Protein in INSANE! Membrane UpperLeaflet>POPC=1.0 LowerLeaflet>POPC=1.0
243687
   22AUC    AUC    1  11.237  34.713   7.500
   23AUC    AUC    2  11.483  34.713   7.348
   24AUC    AUC    3  11.483  34.713   7.651
   25AUC    AUC    4  10.992  34.713   7.348
   26AUC    AUC    5  10.992  34.713   7.651
   27AUC    AUC    6  11.086  34.958   7.500
   28AUC    AUC    7  11.389  34.958   7.500
   29AUC    AUC    8  11.086  34.467   7.500
   30AUC    AUC    9  11.389  34.467   7.500
   31AUC    AUC   10  11.237  34.561   7.745
   32AUC    AUC   11  11.237  34.864   7.745
   33AUC    AUC   12  11.237  34.561   7.254
   34AUC    AUC   13  11.237  34.864   7.254
   35AUC    AUC   14  11.728  34.713   7.196
   36AUC    AUC   15  11.728  34.713   7.500
   37AUC    AUC   16  11.728  34.713   7.803
   38AUC    AUC   17  10.746  34.713   7.196
   39AUC    AUC   18  10.746  34.713   7.500
   40AUC    AUC   19  10.746  34.713   7.803
   41AUC    AUC   20  10.934  35.203   7.500
   42AUC    AUC   21  11.237  35.203   7.500
   43AUC    AUC   22  11.541  35.203   7.500
   44AUC    AUC   23  10.934  34.222   7.500
   45AUC    AUC   24  11.237  34.222   7.500
   46AUC    AUC   25  11.541  34.222   7.500
   47AUC    AUC   26  11.237  34.409   7.991
   48AUC    AUC   27  11.237  34.713   7.991
   49AUC    AUC   28  11.237  35.016   7.991
   50AUC    AUC   29  11.237  34.409   7.009
   51AUC    AUC   30  11.237  34.713   7.009
   52AUC    AUC   31  11.237  35.016   7.009
   53AUC    AUC   32  11.483  34.561   7.897
   54AUC    AUC   33  11.483  34.864   7.897
   55AUC    AUC   34  11.483  34.561   7.103
   56AUC    AUC   35  11.483  34.864   7.103
   57AUC    AUC   36  10.992  34.561   7.897
   58AUC    AUC   37  10.992  34.864   7.897
   59AUC    AUC   38  10.992  34.561   7.103
   60AUC    AUC   39  10.992  34.864   7.103
   61AUC    AUC   40  11.634  34.958   7.348
   62AUC    AUC   41  11.634  34.958   7.651
   63AUC    AUC   42  10.840  34.958   7.348
   64AUC    AUC   43  10.840  34.958   7.651
   65AUC    AUC   44  11.634  34.467   7.348
   66AUC    AUC   45  11.634  34.467   7.651
   67AUC    AUC   46  10.840  34.467   7.348
   68AUC    AUC   47  10.840  34.467   7.651
   69AUC    AUC   48  11.086  35.110   7.745
   70AUC    AUC   49  11.389  35.110   7.745
   71AUC    AUC   50  11.086  34.315   7.745
   72AUC    AUC   51  11.389  34.315   7.745
   73AUC    AUC   52  11.086  35.110   7.254
   74AUC    AUC   53  11.389  35.110   7.254
   75AUC    AUC   54  11.086  34.315   7.254
   76AUC    AUC   55  11.389  34.315   7.254
   77AUSL   AUS   56  11.646  34.713   8.080
   78AUSL   AUS   57  11.502  34.296   8.011
   79AUL    AUL   58  11.728  34.409   8.294
   80THSLK    S   59  11.620  34.108   8.156
   81ETHY    C1   60  11.716  33.740   8.412
   82ETHY    C1   61  11.894  33.357   8.753
   83ETHY    C1   62  12.136  33.057   9.130
   84ETHY    C1   63  12.432  32.838   9.534
   85THSLK    S   64  11.745  34.666   8.327
   86ETHY    C1   65  11.972  34.516   8.694
   87ETHY    C1   66  12.256  34.428   9.148
   88ETHY    C1   67  12.540  34.450   9.607
   89ETHY    C1   68  12.817  34.572  10.061
   90AUSL   AUS   69  11.401  34.561   8.173
   91AUSL   AUS   70  11.074  34.864   8.173
   92AUL    AUL   71  11.237  34.713   8.482
   93THSLK    S   72  11.482  34.510   8.418
   94ETHY    C1   73  11.572  34.292   8.810
   95ETHY    C1   74  11.700  34.118   9.308
   96ETHY    C1   75  11.846  34.053   9.823
   97ETHY    C1   76  12.003  34.087  10.346
   98THSLK    S   77  10.987  34.824   8.432
   99ETHY    C1   78  10.898  34.750   8.874
  100ETHY    C1   79  10.774  34.752   9.403
  101ETHY    C1   80  10.629  34.861   9.912
  102ETHY    C1   81  10.466  35.065  10.392
  103AUSL   AUS   82  11.401  34.864   8.173
  104AUSL   AUS   83  11.747  34.977   7.916
  105AUL    AUL   84  11.728  35.016   8.294
  106THSLK    S   85  11.488  34.916   8.416
  107ETHY    C1   86  11.576  35.133   8.809
  108ETHY    C1   87  11.701  35.306   9.308
  109ETHY    C1   88  11.846  35.372   9.823
  110ETHY    C1   89  12.009  35.339  10.345
  111THSLK    S   90  11.923  35.083   8.079
  112ETHY    C1   91  12.285  35.133   8.355
  113ETHY    C1   92  12.692  35.282   8.681
  114ETHY    C1   93  13.054  35.531   8.995
  115ETHY    C1   94  13.366  35.867   9.293
  116AUSL   AUS   95  11.646  34.713   6.920
  117AUSL   AUS   96  11.502  35.129   6.990
  118AUL    AUL   97  11.728  35.016   6.706
  119THSLK    S   98  11.750  34.666   6.676
  120ETHY    C1   99  11.977  34.516   6.308
  121ETHY    C1  100  12.256  34.428   5.851
  122ETHY    C1  101  12.540  34.450   5.393
  123ETHY    C1  102  12.822  34.572   4.941
  124THSLK    S  103  11.679  35.248   6.820
  125ETHY    C1  104  11.951  35.389   6.480
  126ETHY    C1  105  12.229  35.636   6.085
  127ETHY    C1  106  12.445  35.969   5.720
  128ETHY    C1  107  12.602  36.376   5.391
  129AUSL   AUS  108  11.401  34.561   6.826
  130AUSL   AUS  109  11.747  34.448   7.083
  131AUL    AUL  110  11.728  34.409   6.706
  132THSLK    S  111  11.887  34.257   6.939
  133ETHY    C1  112  12.120  33.940   6.707
  134ETHY    C1  113  12.450  33.633   6.403
  135ETHY    C1  114  12.830  33.424   6.083
  136ETHY    C1  115  13.251  33.307   5.754
  137THSLK    S  116  11.488  34.509   6.583
  138ETHY    C1  117  11.576  34.292   6.191
  139ETHY    C1  118  11.701  34.119   5.692
  140ETHY    C1  119  11.846  34.053   5.176
  141ETHY    C1  120  12.009  34.086   4.656
  142AUSL   AUS  121  11.401  34.864   6.826
  143AUSL   AUS  122  11.074  34.561   6.826
  144AUL    AUL  123  11.237  34.713   6.518
  145THSLK    S  124  10.978  34.509   6.586
  146ETHY    C1  125  10.839  34.294   6.206
  147ETHY    C1  126  10.682  34.123   5.717
  148ETHY    C1  127  10.543  34.057   5.199
  149ETHY    C1  128  10.427  34.088   4.666
  150THSLK    S  129  11.503  34.825   6.572
  151ETHY    C1  130  11.640  34.748   6.142
  152ETHY    C1  131  11.793  34.748   5.622
  153ETHY    C1  132  11.931  34.857   5.112
  154ETHY    C1  133  12.054  35.064   4.621
  155AUSL   AUS  134  10.828  34.713   8.080
  156AUSL   AUS  135  10.973  35.129   8.011
  157AUL    AUL  136  10.746  35.016   8.294
  158THSLK    S  137  10.724  34.666   8.325
  159ETHY    C1  138  10.498  34.516   8.691
  160ETHY    C1  139  10.218  34.428   9.148
  161ETHY    C1  140   9.935  34.450   9.607
  162ETHY    C1  141   9.652  34.572  10.058
  163THSLK    S  142  10.850  35.262   8.201
  164ETHY    C1  143  10.754  35.457   8.604
  165ETHY    C1  144  10.581  35.738   9.034
  166ETHY    C1  145  10.338  36.064   9.390
  167ETHY    C1  146  10.037  36.423   9.671
  168AUSL   AUS  147  11.074  34.561   8.173
  169AUSL   AUS  148  10.727  34.448   7.916
  170AUL    AUL  149  10.746  34.409   8.294
  171THSLK    S  150  10.548  34.282   8.032
  172ETHY    C1  151  10.187  34.035   8.166
  173ETHY    C1  152   9.782  33.769   8.410
  174ETHY    C1  153   9.421  33.549   8.745
  175ETHY    C1  154   9.105  33.376   9.156
  176THSLK    S  155  10.972  34.511   8.413
  177ETHY    C1  156  10.834  34.296   8.793
  178ETHY    C1  157  10.681  34.123   9.284
  179ETHY    C1  158  10.544  34.057   9.800
  180ETHY    C1  159  10.420  34.089  10.332
  181AUSL   AUS  160  10.828  34.713   6.920
  182AUSL   AUS  161  10.973  34.296   6.990
  183AUL    AUL  162  10.746  34.409   6.706
  184THSLK    S  163  10.729  34.666   6.673
  185ETHY    C1  164  10.502  34.516   6.305
  186ETHY    C1  165  10.219  34.428   5.851
  187ETHY    C1  166   9.935  34.450   5.393
  188ETHY    C1  167   9.658  34.572   4.938
  189THSLK    S  168  10.799  34.121   6.865
  190ETHY    C1  169  10.527  33.808   6.673
  191ETHY    C1  170  10.246  33.460   6.367
  192ETHY    C1  171  10.029  33.152   5.980
  193ETHY    C1  172   9.877  32.885   5.528
  194AUSL   AUS  173  11.074  34.864   6.826
  195AUSL   AUS  174  10.727  34.977   7.083
  196AUL    AUL  175  10.746  35.016   6.706
  197THSLK    S  176  10.591  35.108   6.893
  198ETHY    C1  177  10.357  35.229   6.518
  199ETHY    C1  178  10.025  35.417   6.132
  200ETHY    C1  179   9.645  35.656   5.833
  201ETHY    C1  180   9.228  35.936   5.618
  202THSLK    S  181  10.993  34.826   6.566
  203ETHY    C1  182  10.903  34.751   6.124
  204ETHY    C1  183  10.775  34.752   5.597
  205ETHY    C1  184  10.629  34.861   5.089
  206ETHY    C1  185  10.472  35.067   4.608
  207AUSL   AUS  186  11.817  35.122   7.500
  208AUSL   AUS  187  11.747  34.977   7.083
  209AUL    AUL  188  12.031  35.203   7.196
  210THSLK    S  189  11.927  35.084   6.925
  211ETHY    C1  190  12.288  35.134   6.648
  212ETHY    C1  191  12.692  35.282   6.319
  213ETHY    C1  192  13.054  35.531   6.005
  214ETHY    C1  193  13.370  35.868   5.713
  215THSLK    S  194  12.087  35.183   7.503
  216ETHY    C1  195  12.534  35.283   7.502
  217ETHY    C1  196  13.036  35.489   7.500
  218ETHY    C1  197  13.483  35.791   7.500
  219ETHY    C1  198  13.871  36.175   7.503
  220AUSL   AUS  199  11.911  34.876   7.348
  221AUSL   AUS  200  11.911  34.549   7.651
  222AUL    AUL  201  12.219  34.713   7.500
  223THSLK    S  202  12.173  34.923   7.345
  224ETHY    C1  203  12.623  34.892   7.270
  225ETHY    C1  204  13.155  34.947   7.179
  226ETHY    C1  205  13.662  35.110   7.091
  227ETHY    C1  206  14.137  35.368   7.011
  228THSLK    S  207  12.148  34.412   7.659
  229ETHY    C1  208  12.519  34.154   7.726
  230ETHY    C1  209  13.005  33.928   7.808
  231ETHY    C1  210  13.524  33.808   7.896
  232ETHY    C1  211  14.062  33.786   7.989
  233AUSL   AUS  212  11.911  34.876   7.651
  234AUSL   AUS  213  11.654  35.223   7.764
  235AUL    AUL  214  12.031  35.203   7.803
  236THSLK    S  215  11.839  35.347   7.924
  237ETHY    C1  216  12.196  35.539   8.136
  238ETHY    C1  217  12.573  35.846   8.377
  239ETHY    C1  218  12.874  36.233   8.602
  240ETHY    C1  219  13.101  36.684   8.809
  241THSLK    S  220  12.172  34.922   7.661
  242ETHY    C1  221  12.623  34.892   7.734
  243ETHY    C1  222  13.156  34.947   7.821
  244ETHY    C1  223  13.662  35.110   7.908
  245ETHY    C1  224  14.136  35.368   7.995
  246AUSL   AUS  225  10.657  35.122   7.500
  247AUSL   AUS  226  10.727  34.977   7.916
  248AUL    AUL  227  10.443  35.203   7.803
  249THSLK    S  228  10.587  35.103   8.107
  250ETHY    C1  229  10.354  35.224   8.482
  251ETHY    C1  230  10.025  35.417   8.868
  252ETHY    C1  231   9.645  35.656   9.166
  253ETHY    C1  232   9.224  35.931   9.381
  254THSLK    S  233  10.436  35.262   7.503
  255ETHY    C1  234  10.147  35.617   7.502
  256ETHY    C1  235   9.739  35.974   7.500
  257ETHY    C1  236   9.269  36.238   7.500
  258ETHY    C1  237   8.751  36.414   7.503
  259AUSL   AUS  238  10.564  34.876   7.348
  260AUSL   AUS  239  10.821  35.223   7.236
  261AUL    AUL  240  10.443  35.203   7.196
  262THSLK    S  241  10.327  34.990   7.303
  263ETHY    C1  242   9.955  35.164   7.101
  264ETHY    C1  243   9.469  35.340   6.936
  265ETHY    C1  244   8.951  35.472   6.868
  266ETHY    C1  245   8.413  35.564   6.890
  267THSLK    S  246  10.701  35.390   7.056
  268ETHY    C1  247  10.549  35.709   6.765
  269ETHY    C1  248  10.295  36.089   6.473
  270ETHY    C1  249   9.962  36.457   6.260
  271ETHY    C1  250   9.566  36.807   6.122
  272AUSL   AUS  251  10.564  34.876   7.651
  273AUSL   AUS  252  10.564  34.549   7.348
  274AUL    AUL  253  10.256  34.713   7.500
  275THSLK    S  254  10.302  34.474   7.384
  276ETHY    C1  255   9.852  34.423   7.446
  277ETHY    C1  256   9.319  34.320   7.434
  278ETHY    C1  257   8.812  34.170   7.327
  279ETHY    C1  258   8.339  33.977   7.135
  280THSLK    S  259  10.326  34.984   7.699
  281ETHY    C1  260   9.955  35.160   7.901
  282ETHY    C1  261   9.469  35.339   8.063
  283ETHY    C1  262   8.951  35.472   8.133
  284ETHY    C1  263   8.412  35.558   8.114
  285AUSL   AUS  264  11.817  34.303   7.500
  286AUSL   AUS  265  11.747  34.448   7.916
  287AUL    AUL  266  12.031  34.222   7.803
  288THSLK    S  267  12.038  34.163   7.503
  289ETHY    C1  268  12.327  33.808   7.502
  290ETHY    C1  269  12.736  33.451   7.500
  291ETHY    C1  270  13.206  33.187   7.500
  292ETHY    C1  271  13.723  33.011   7.503
  293THSLK    S  272  11.884  34.258   8.066
  294ETHY    C1  273  12.117  33.941   8.297
  295ETHY    C1  274  12.450  33.634   8.598
  296ETHY    C1  275  12.830  33.424   8.918
  297ETHY    C1  276  13.247  33.308   9.250
  298AUSL   AUS  277  11.911  34.549   7.348
  299AUSL   AUS  278  11.654  34.202   7.236
  300AUL    AUL  279  12.031  34.222   7.196
  301THSLK    S  280  12.149  34.412   7.346
  302ETHY    C1  281  12.520  34.154   7.279
  303ETHY    C1  282  13.005  33.928   7.192
  304ETHY    C1  283  13.524  33.808   7.103
  305ETHY    C1  284  14.063  33.786   7.018
  306THSLK    S  285  11.777  34.011   7.099
  307ETHY    C1  286  11.927  33.609   6.942
  308ETHY    C1  287  12.180  33.179   6.728
  309ETHY    C1  288  12.512  32.823   6.495
  310ETHY    C1  289  12.911  32.542   6.249
  311AUSL   AUS  290  10.657  34.303   7.500
  312AUSL   AUS  291  10.727  34.448   7.083
  313AUL    AUL  292  10.443  34.222   7.196
  314THSLK    S  293  10.552  34.277   6.966
  315ETHY    C1  294  10.190  34.031   6.833
  316ETHY    C1  295   9.782  33.768   6.589
  317ETHY    C1  296   9.421  33.549   6.255
  318ETHY    C1  297   9.109  33.371   5.843
  319THSLK    S  298  10.387  34.242   7.503
  320ETHY    C1  299   9.941  34.142   7.502
  321ETHY    C1  300   9.439  33.936   7.500
  322ETHY    C1  301   8.992  33.634   7.500
  323ETHY    C1  302   8.604  33.250   7.503
  324AUSL   AUS  303  10.564  34.549   7.651
  325AUSL   AUS  304  10.821  34.202   7.764
  326AUL    AUL  305  10.443  34.222   7.803
  327THSLK    S  306  10.633  34.054   7.881
  328ETHY    C1  307  10.277  33.778   7.958
  329ETHY    C1  308   9.902  33.421   8.122
  330ETHY    C1  309   9.601  33.047   8.367
  331ETHY    C1  310   9.370  32.665   8.682
  332THSLK    S  311  10.301  34.479   7.618
  333ETHY    C1  312   9.851  34.427   7.557
  334ETHY    C1  313   9.319  34.321   7.566
  335ETHY    C1  314   8.812  34.170   7.673
  336ETHY    C1  315   8.338  33.982   7.867
  337AUSL   AUS  316  11.237  35.293   7.909
  338AUSL   AUS  317  10.821  35.223   7.764
  339AUL    AUL  318  10.934  35.507   7.991
  340THSLK    S  319  10.698  35.385   7.948
  341ETHY    C1  320  10.547  35.705   8.237
  342ETHY    C1  321  10.294  36.088   8.527
  343ETHY    C1  322   9.962  36.456   8.740
  344ETHY    C1  323   9.563  36.802   8.881
  345THSLK    S  324  11.275  35.524   8.034
  346ETHY    C1  325  11.403  35.850   8.327
  347ETHY    C1  326  11.480  36.282   8.646
  348ETHY    C1  327  11.461  36.747   8.920
  349ETHY    C1  328  11.355  37.232   9.147
  350AUSL   AUS  329  11.086  35.386   7.663
  351AUSL   AUS  330  11.389  35.386   7.336
  352AUL    AUL  331  11.237  35.694   7.500
  353THSLK    S  332  11.123  35.638   7.772
  354ETHY    C1  333  11.196  36.062   7.929
  355ETHY    C1  334  11.193  36.578   8.095
  356ETHY    C1  335  11.085  37.089   8.229
  357ETHY    C1  336  10.881  37.585   8.336
  358THSLK    S  337  11.440  35.626   7.237
  359ETHY    C1  338  11.653  36.003   7.091
  360ETHY    C1  339  11.823  36.492   6.929
  361ETHY    C1  340  11.890  37.010   6.792
  362ETHY    C1  341  11.861  37.544   6.682
  363AUSL   AUS  342  11.389  35.386   7.663
  364AUSL   AUS  343  11.502  35.129   8.011
  365AUL    AUL  344  11.541  35.507   7.991
  366THSLK    S  345  11.675  35.246   8.184
  367ETHY    C1  346  11.948  35.387   8.522
  368ETHY    C1  347  12.229  35.636   8.915
  369ETHY    C1  348  12.445  35.969   9.279
  370ETHY    C1  349  12.597  36.374   9.614
  371THSLK    S  350  11.439  35.624   7.768
  372ETHY    C1  351  11.652  36.003   7.913
  373ETHY    C1  352  11.823  36.492   8.072
  374ETHY    C1  353  11.890  37.010   8.207
  375ETHY    C1  354  11.859  37.543   8.325
  376AUSL   AUS  355  11.237  34.132   7.909
  377AUSL   AUS  356  11.654  34.202   7.764
  378AUL    AUL  357  11.541  33.918   7.991
  379THSLK    S  358  11.196  33.875   7.992
  380ETHY    C1  359  11.069  33.466   8.152
  381ETHY    C1  360  10.995  32.985   8.391
  382ETHY    C1  361  11.014  32.533   8.684
  383ETHY    C1  362  11.116  32.115   9.021
  384THSLK    S  363  11.774  34.012   7.907
  385ETHY    C1  364  11.925  33.610   8.062
  386ETHY    C1  365  12.180  33.179   8.272
  387ETHY    C1  366  12.512  32.823   8.505
  388ETHY    C1  367  12.908  32.544   8.758
  389AUSL   AUS  368  11.086  34.039   7.663
  390AUSL   AUS  369  10.973  34.296   8.011
  391AUL    AUL  370  10.934  33.918   7.991
  392THSLK    S  371  11.035  33.794   7.744
  393ETHY    C1  372  10.822  33.395   7.812
  394ETHY    C1  373  10.651  32.892   7.925
  395ETHY    C1  374  10.585  32.378   8.072
  396ETHY    C1  375  10.614  31.863   8.252
  397THSLK    S  376  10.795  34.126   8.136
  398ETHY    C1  377  10.523  33.811   8.327
  399ETHY    C1  378  10.245  33.460   8.633
  400ETHY    C1  379  10.029  33.152   9.019
  401ETHY    C1  380   9.873  32.890   9.473
  402AUSL   AUS  381  11.389  34.039   7.663
  403AUSL   AUS  382  11.086  34.039   7.336
  404AUL    AUL  383  11.237  33.731   7.500
  405THSLK    S  384  11.036  33.792   7.261
  406ETHY    C1  385  10.823  33.394   7.192
  407ETHY    C1  386  10.651  32.892   7.076
  408ETHY    C1  387  10.585  32.378   6.927
  409ETHY    C1  388  10.616  31.861   6.754
  410THSLK    S  389  11.350  33.780   7.748
  411ETHY    C1  390  11.278  33.335   7.829
  412ETHY    C1  391  11.281  32.806   7.948
  413ETHY    C1  392  11.390  32.298   8.095
  414ETHY    C1  393  11.592  31.820   8.264
  415AUSL   AUS  394  11.237  35.293   7.091
  416AUSL   AUS  395  11.654  35.223   7.236
  417AUL    AUL  396  11.541  35.507   7.009
  418THSLK    S  397  11.279  35.527   6.971
  419ETHY    C1  398  11.406  35.852   6.676
  420ETHY    C1  399  11.480  36.282   6.353
  421ETHY    C1  400  11.461  36.747   6.080
  422ETHY    C1  401  11.358  37.235   5.857
  423THSLK    S  402  11.841  35.348   7.081
  424ETHY    C1  403  12.198  35.540   6.869
  425ETHY    C1  404  12.573  35.846   6.623
  426ETHY    C1  405  12.874  36.233   6.398
  427ETHY    C1  406  13.104  36.685   6.197
  428AUSL   AUS  407  11.086  35.386   7.336
  429AUSL   AUS  408  10.973  35.129   6.990
  430AUL    AUL  409  10.934  35.507   7.009
  431THSLK    S  410  11.125  35.640   7.233
  432ETHY    C1  411  11.197  36.063   7.074
  433ETHY    C1  412  11.194  36.579   6.906
  434ETHY    C1  413  11.085  37.089   6.770
  435ETHY    C1  414  10.883  37.587   6.670
  436THSLK    S  415  10.854  35.266   6.800
  437ETHY    C1  416  10.758  35.460   6.396
  438ETHY    C1  417  10.581  35.738   5.966
  439ETHY    C1  418  10.338  36.063   5.611
  440ETHY    C1  419  10.042  36.428   5.330
  441AUSL   AUS  420  11.237  34.132   7.091
  442AUSL   AUS  421  10.821  34.202   7.236
  443AUL    AUL  422  10.934  33.918   7.009
  444THSLK    S  423  10.636  34.049   7.122
  445ETHY    C1  424  10.279  33.775   7.044
  446ETHY    C1  425   9.902  33.421   6.878
  447ETHY    C1  426   9.600  33.047   6.633
  448ETHY    C1  427   9.373  32.660   6.321
  449THSLK    S  428  11.199  33.872   7.013
  450ETHY    C1  429  11.071  33.464   6.852
  451ETHY    C1  430  10.995  32.985   6.609
  452ETHY    C1  431  11.014  32.533   6.315
  453ETHY    C1  432  11.120  32.112   5.983
  454AUSL   AUS  433  11.389  34.039   7.336
  455AUSL   AUS  434  11.502  34.296   6.990
  456AUL    AUL  435  11.541  33.918   7.009
  457THSLK    S  436  11.352  33.779   7.258
  458ETHY    C1  437  11.279  33.334   7.175
  459ETHY    C1  438  11.281  32.806   7.052
  460ETHY    C1  439  11.389  32.298   6.905
  461ETHY    C1  440  11.594  31.819   6.742
  462THSLK    S  441  11.625  34.106   6.847
  463ETHY    C1  442  11.720  33.738   6.592
  464ETHY    C1  443  11.894  33.357   6.247
  465ETHY    C1  444  12.136  33.057   5.870
  466ETHY    C1  445  12.437  32.836   5.471
  467AUC    AUC  446  37.689  33.141   7.500
  468AUC    AUC  447  37.935  33.141   7.348
  469AUC    AUC  448  37.935  33.141   7.651
  470AUC    AUC  449  37.444  33.141   7.348
  471AUC    AUC  450  37.444  33.141   7.651
  472AUC    AUC  451  37.538  33.386   7.500
  473AUC    AUC  452  37.841  33.386   7.500
  474AUC    AUC  453  37.538  32.895   7.500
  475AUC    AUC  454  37.841  32.895   7.500
  476AUC    AUC  455  37.689  32.989   7.745
  477AUC    AUC  456  37.689  33.292   7.745
  478AUC    AUC  457  37.689  32.989   7.254
  479AUC    AUC  458  37.689  33.292   7.254
  480AUC    AUC  459  38.180  33.141   7.196
  481AUC    AUC  460  38.180  33.141   7.500
  482AUC    AUC  461  38.180  33.141   7.803
  483AUC    AUC  462  37.198  33.141   7.196
  484AUC    AUC  463  37.198  33.141   7.500
  485AUC    AUC  464  37.198  33.141   7.803
  486AUC    AUC  465  37.386  33.631   7.500
  487AUC    AUC  466  37.689  33.631   7.500
  488AUC    AUC  467  37.993  33.631   7.500
  489AUC    AUC  468  37.386  32.650   7.500
  490AUC    AUC  469  37.689  32.650   7.500
  491AUC    AUC  470  37.993  32.650   7.500
  492AUC    AUC  471  37.689  32.837   7.991
  493AUC    AUC  472  37.689  33.141   7.991
  494AUC    AUC  473  37.689  33.444   7.991
  495AUC    AUC  474  37.689  32.837   7.009
  496AUC    AUC  475  37.689  33.141   7.009
  497AUC    AUC  476  37.689  33.444   7.009
  498AUC    AUC  477  37.935  32.989   7.897
  499AUC    AUC  478  37.935  33.292   7.897
  500AUC    AUC  479  37.935  32.989   7.103
  501AUC    AUC  480  37.935  33.292   7.103
  502AUC    AUC  481  37.444  32.989   7.897
  503AUC    AUC  482  37.444  33.292   7.897
  504AUC    AUC  483  37.444  32.989   7.103
  505AUC    AUC  484  37.444  33.292   7.103
  506AUC    AUC  485  38.086  33.386   7.348
  507AUC    AUC  486  38.086  33.386   7.651
  508AUC    AUC  487  37.292  33.386   7.348
  509AUC    AUC  488  37.292  33.386   7.651
  510AUC    AUC  489  38.086  32.895   7.348
  511AUC    AUC  490  38.086  32.895   7.651
  512AUC    AUC  491  37.292  32.895   7.348
  513AUC    AUC  492  37.292  32.895   7.651
  514AUC    AUC  493  37.538  33.538   7.745
  515AUC    AUC  494  37.841  33.538   7.745
  516AUC    AUC  495  37.538  32.743   7.745
  517AUC    AUC  496  37.841  32.743   7.745
  518AUC    AUC  497  37.538  33.538   7.254
  519AUC    AUC  498  37.841  33.538   7.254
  520AUC    AUC  499  37.538  32.743   7.254
  521AUC    AUC  500  37.841  32.743   7.254
  522AUSL   AUS  501  38.098  33.141   8.080
  523AUSL   AUS  502  37.954  32.724   8.011
  524AUL    AUL  503  38.180  32.837   8.294
  525THSLK    S  504  38.072  32.536   8.156
  526ETHY    C1  505  38.168  32.168   8.412
  527ETHY    C1  506  38.346  31.785   8.753
  528ETHY    C1  507  38.588  31.485   9.130
  529ETHY    C1  508  38.884  31.266   9.534
  530THSLK    S  509  38.197  33.094   8.327
  531ETHY    C1  510  38.424  32.944   8.694
  532ETHY    C1  511  38.708  32.856   9.148
  533ETHY    C1  512  38.992  32.878   9.607
  534ETHY    C1  513  39.269  33.000  10.061
  535AUSL   AUS  514  37.853  32.989   8.173
  536AUSL   AUS  515  37.526  33.292   8.173
  537AUL    AUL  516  37.689  33.141   8.482
  538THSLK    S  517  37.934  32.938   8.418
  539ETHY    C1  518  38.024  32.720   8.810
  540ETHY    C1  519  38.152  32.546   9.308
  541ETHY    C1  520  38.298  32.481   9.823
  542ETHY    C1  521  38.455  32.515  10.346
  543THSLK    S  522  37.439  33.252   8.432
  544ETHY    C1  523  37.350  33.178   8.874
  545ETHY    C1  524  37.226  33.180   9.403
  546ETHY    C1  525  37.081  33.289   9.912
  547ETHY    C1  526  36.918  33.493  10.392
  548AUSL   AUS  527  37.853  33.292   8.173
  549AUSL   AUS  528  38.199  33.405   7.916
  550AUL    AUL  529  38.180  33.444   8.294
  551THSLK    S  530  37.940  33.344   8.416
  552ETHY    C1  531  38.028  33.561   8.809
  553ETHY    C1  532  38.153  33.734   9.308
  554ETHY    C1  533  38.298  33.800   9.823
  555ETHY    C1  534  38.461  33.767  10.345
  556THSLK    S  535  38.375  33.511   8.079
  557ETHY    C1  536  38.737  33.561   8.355
  558ETHY    C1  537  39.144  33.710   8.681
  559ETHY    C1  538  39.506  33.959   8.995
  560ETHY    C1  539  39.818  34.295   9.293
  561AUSL   AUS  540  38.098  33.141   6.920
  562AUSL   AUS  541  37.954  33.557   6.990
  563AUL    AUL  542  38.180  33.444   6.706
  564THSLK    S  543  38.202  33.094   6.676
  565ETHY    C1  544  38.429  32.944   6.308
  566ETHY    C1  545  38.708  32.856   5.851
  567ETHY    C1  546  38.992  32.878   5.393
  568ETHY    C1  547  39.274  33.000   4.941
  569THSLK    S  548  38.131  33.676   6.820
  570ETHY    C1  549  38.403  33.817   6.480
  571ETHY    C1  550  38.681  34.064   6.085
  572ETHY    C1  551  38.897  34.397   5.720
  573ETHY    C1  552  39.054  34.804   5.391
  574AUSL   AUS  553  37.853  32.989   6.826
  575AUSL   AUS  554  38.199  32.876   7.083
  576AUL    AUL  555  38.180  32.837   6.706
  577THSLK    S  556  38.339  32.685   6.939
  578ETHY    C1  557  38.572  32.368   6.707
  579ETHY    C1  558  38.902  32.061   6.403
  580ETHY    C1  559  39.282  31.852   6.083
  581ETHY    C1  560  39.703  31.735   5.754
  582THSLK    S  561  37.940  32.937   6.583
  583ETHY    C1  562  38.028  32.720   6.191
  584ETHY    C1  563  38.153  32.547   5.692
  585ETHY    C1  564  38.298  32.481   5.176
  586ETHY    C1  565  38.461  32.514   4.656
  587AUSL   AUS  566  37.853  33.292   6.826
  588AUSL   AUS  567  37.526  32.989   6.826
  589AUL    AUL  568  37.689  33.141   6.518
  590THSLK    S  569  37.430  32.937   6.586
  591ETHY    C1  570  37.291  32.722   6.206
  592ETHY    C1  571  37.134  32.551   5.717
  593ETHY    C1  572  36.995  32.485   5.199
  594ETHY    C1  573  36.879  32.516   4.666
  595THSLK    S  574  37.955  33.253   6.572
  596ETHY    C1  575  38.092  33.176   6.142
  597ETHY    C1  576  38.245  33.176   5.622
  598ETHY    C1  577  38.383  33.285   5.112
  599ETHY    C1  578  38.506  33.492   4.621
  600AUSL   AUS  579  37.280  33.141   8.080
  601AUSL   AUS  580  37.425  33.557   8.011
  602AUL    AUL  581  37.198  33.444   8.294
  603THSLK    S  582  37.176  33.094   8.325
  604ETHY    C1  583  36.950  32.944   8.691
  605ETHY    C1  584  36.670  32.856   9.148
  606ETHY    C1  585  36.387  32.878   9.607
  607ETHY    C1  586  36.104  33.000  10.058
  608THSLK    S  587  37.302  33.690   8.201
  609ETHY    C1  588  37.206  33.885   8.604
  610ETHY    C1  589  37.033  34.166   9.034
  611ETHY    C1  590  36.790  34.492   9.390
  612ETHY    C1  591  36.489  34.851   9.671
  613AUSL   AUS  592  37.526  32.989   8.173
  614AUSL   AUS  593  37.179  32.876   7.916
  615AUL    AUL  594  37.198  32.837   8.294
  616THSLK    S  595  37.000  32.710   8.032
  617ETHY    C1  596  36.639  32.463   8.166
  618ETHY    C1  597  36.234  32.197   8.410
  619ETHY    C1  598  35.873  31.977   8.745
  620ETHY    C1  599  35.557  31.804   9.156
  621THSLK    S  600  37.424  32.939   8.413
  622ETHY    C1  601  37.286  32.724   8.793
  623ETHY    C1  602  37.133  32.551   9.284
  624ETHY    C1  603  36.996  32.485   9.800
  625ETHY    C1  604  36.872  32.517  10.332
  626AUSL   AUS  605  37.280  33.141   6.920
  627AUSL   AUS  606  37.425  32.724   6.990
  628AUL    AUL  607  37.198  32.837   6.706
  629THSLK    S  608  37.181  33.094   6.673
  630ETHY    C1  609  36.954  32.944   6.305
  631ETHY    C1  610  36.671  32.856   5.851
  632ETHY    C1  611  36.387  32.878   5.393
  633ETHY    C1  612  36.110  33.000   4.938
  634THSLK    S  613  37.251  32.549   6.865
  635ETHY    C1  614  36.979  32.236   6.673
  636ETHY    C1  615  36.698  31.888   6.367
  637ETHY    C1  616  36.481  31.580   5.980
  638ETHY    C1  617  36.329  31.313   5.528
  639AUSL   AUS  618  37.526  33.292   6.826
  640AUSL   AUS  619  37.179  33.405   7.083
  641AUL    AUL  620  37.198  33.444   6.706
  642THSLK    S  621  37.043  33.536   6.893
  643ETHY    C1  622  36.809  33.657   6.518
  644ETHY    C1  623  36.477  33.845   6.132
  645ETHY    C1  624  36.097  34.084   5.833
  646ETHY    C1  625  35.680  34.364   5.618
  647THSLK    S  626  37.445  33.254   6.566
  648ETHY    C1  627  37.355  33.179   6.124
  649ETHY    C1  628  37.227  33.180   5.597
  650ETHY    C1  629  37.081  33.289   5.089
  651ETHY    C1  630  36.924  33.495   4.608
  652AUSL   AUS  631  38.269  33.550   7.500
  653AUSL   AUS  632  38.199  33.405   7.083
  654AUL    AUL  633  38.483  33.631   7.196
  655THSLK    S  634  38.379  33.512   6.925
  656ETHY    C1  635  38.740  33.562   6.648
  657ETHY    C1  636  39.144  33.710   6.319
  658ETHY    C1  637  39.506  33.959   6.005
  659ETHY    C1  638  39.822  34.296   5.713
  660THSLK    S  639  38.539  33.611   7.503
  661ETHY    C1  640  38.986  33.711   7.502
  662ETHY    C1  641  39.488  33.917   7.500
  663ETHY    C1  642  39.935  34.219   7.500
  664ETHY    C1  643  40.323  34.603   7.503
  665AUSL   AUS  644  38.363  33.304   7.348
  666AUSL   AUS  645  38.363  32.977   7.651
  667AUL    AUL  646  38.671  33.141   7.500
  668THSLK    S  647  38.625  33.351   7.345
  669ETHY    C1  648  39.075  33.320   7.270
  670ETHY    C1  649  39.607  33.375   7.179
  671ETHY    C1  650  40.114  33.538   7.091
  672ETHY    C1  651  40.589  33.796   7.011
  673THSLK    S  652  38.600  32.840   7.659
  674ETHY    C1  653  38.971  32.582   7.726
  675ETHY    C1  654  39.457  32.356   7.808
  676ETHY    C1  655  39.976  32.236   7.896
  677ETHY    C1  656  40.514  32.214   7.989
  678AUSL   AUS  657  38.363  33.304   7.651
  679AUSL   AUS  658  38.106  33.651   7.764
  680AUL    AUL  659  38.483  33.631   7.803
  681THSLK    S  660  38.291  33.775   7.924
  682ETHY    C1  661  38.648  33.967   8.136
  683ETHY    C1  662  39.025  34.274   8.377
  684ETHY    C1  663  39.326  34.661   8.602
  685ETHY    C1  664  39.553  35.112   8.809
  686THSLK    S  665  38.624  33.350   7.661
  687ETHY    C1  666  39.075  33.320   7.734
  688ETHY    C1  667  39.608  33.375   7.821
  689ETHY    C1  668  40.114  33.538   7.908
  690ETHY    C1  669  40.588  33.796   7.995
  691AUSL   AUS  670  37.109  33.550   7.500
  692AUSL   AUS  671  37.179  33.405   7.916
  693AUL    AUL  672  36.895  33.631   7.803
  694THSLK    S  673  37.039  33.531   8.107
  695ETHY    C1  674  36.806  33.652   8.482
  696ETHY    C1  675  36.477  33.845   8.868
  697ETHY    C1  676  36.097  34.084   9.166
  698ETHY    C1  677  35.676  34.359   9.381
  699THSLK    S  678  36.888  33.690   7.503
  700ETHY    C1  679  36.599  34.045   7.502
  701ETHY    C1  680  36.191  34.402   7.500
  702ETHY    C1  681  35.721  34.666   7.500
  703ETHY    C1  682  35.203  34.842   7.503
  704AUSL   AUS  683  37.016  33.304   7.348
  705AUSL   AUS  684  37.273  33.651   7.236
  706AUL    AUL  685  36.895  33.631   7.196
  707THSLK    S  686  36.779  33.418   7.303
  708ETHY    C1  687  36.407  33.592   7.101
  709ETHY    C1  688  35.921  33.768   6.936
  710ETHY    C1  689  35.403  33.900   6.868
  711ETHY    C1  690  34.865  33.992   6.890
  712THSLK    S  691  37.153  33.818   7.056
  713ETHY    C1  692  37.001  34.137   6.765
  714ETHY    C1  693  36.747  34.517   6.473
  715ETHY    C1  694  36.414  34.885   6.260
  716ETHY    C1  695  36.018  35.235   6.122
  717AUSL   AUS  696  37.016  33.304   7.651
  718AUSL   AUS  697  37.016  32.977   7.348
  719AUL    AUL  698  36.708  33.141   7.500
  720THSLK    S  699  36.754  32.902   7.384
  721ETHY    C1  700  36.304  32.851   7.446
  722ETHY    C1  701  35.771  32.748   7.434
  723ETHY    C1  702  35.264  32.598   7.327
  724ETHY    C1  703  34.791  32.405   7.135
  725THSLK    S  704  36.778  33.412   7.699
  726ETHY    C1  705  36.407  33.588   7.901
  727ETHY    C1  706  35.921  33.767   8.063
  728ETHY    C1  707  35.403  33.900   8.133
  729ETHY    C1  708  34.864  33.986   8.114
  730AUSL   AUS  709  38.269  32.731   7.500
  731AUSL   AUS  710  38.199  32.876   7.916
  732AUL    AUL  711  38.483  32.650   7.803
  733THSLK    S  712  38.490  32.591   7.503
  734ETHY    C1  713  38.779  32.236   7.502
  735ETHY    C1  714  39.188  31.879   7.500
  736ETHY    C1  715  39.658  31.615   7.500
  737ETHY    C1  716  40.175  31.439   7.503
  738THSLK    S  717  38.336  32.686   8.066
  739ETHY    C1  718  38.569  32.369   8.297
  740ETHY    C1  719  38.902  32.062   8.598
  741ETHY    C1  720  39.282  31.852   8.918
  742ETHY    C1  721  39.699  31.736   9.250
  743AUSL   AUS  722  38.363  32.977   7.348
  744AUSL   AUS  723  38.106  32.630   7.236
  745AUL    AUL  724  38.483  32.650   7.196
  746THSLK    S  725  38.601  32.840   7.346
  747ETHY    C1  726  38.972  32.582   7.279
  748ETHY    C1  727  39.457  32.356   7.192
  749ETHY    C1  728  39.976  32.236   7.103
  750ETHY    C1  729  40.515  32.214   7.018
  751THSLK    S  730  38.229  32.439   7.099
  752ETHY    C1  731  38.379  32.037   6.942
  753ETHY    C1  732  38.632  31.607   6.728
  754ETHY    C1  733  38.964  31.251   6.495
  755ETHY    C1  734  39.363  30.970   6.249
  756AUSL   AUS  735  37.109  32.731   7.500
  757AUSL   AUS  736  37.179  32.876   7.083
  758AUL    AUL  737  36.895  32.650   7.196
  759THSLK    S  738  37.004  32.705   6.966
  760ETHY    C1  739  36.642  32.459   6.833
  761ETHY    C1  740  36.234  32.196   6.589
  762ETHY    C1  741  35.873  31.977   6.255
  763ETHY    C1  742  35.561  31.799   5.843
  764THSLK    S  743  36.839  32.670   7.503
  765ETHY    C1  744  36.393  32.570   7.502
  766ETHY    C1  745  35.891  32.364   7.500
  767ETHY    C1  746  35.444  32.062   7.500
  768ETHY    C1  747  35.056  31.678   7.503
  769AUSL   AUS  748  37.016  32.977   7.651
  770AUSL   AUS  749  37.273  32.630   7.764
  771AUL    AUL  750  36.895  32.650   7.803
  772THSLK    S  751  37.085  32.482   7.881
  773ETHY    C1  752  36.729  32.206   7.958
  774ETHY    C1  753  36.354  31.849   8.122
  775ETHY    C1  754  36.053  31.475   8.367
  776ETHY    C1  755  35.822  31.093   8.682
  777THSLK    S  756  36.753  32.907   7.618
  778ETHY    C1  757  36.303  32.855   7.557
  779ETHY    C1  758  35.771  32.749   7.566
  780ETHY    C1  759  35.264  32.598   7.673
  781ETHY    C1  760  34.790  32.410   7.867
  782AUSL   AUS  761  37.689  33.721   7.909
  783AUSL   AUS  762  37.273  33.651   7.764
  784AUL    AUL  763  37.386  33.935   7.991
  785THSLK    S  764  37.150  33.813   7.948
  786ETHY    C1  765  36.999  34.133   8.237
  787ETHY    C1  766  36.746  34.516   8.527
  788ETHY    C1  767  36.414  34.884   8.740
  789ETHY    C1  768  36.015  35.230   8.881
  790THSLK    S  769  37.727  33.952   8.034
  791ETHY    C1  770  37.855  34.278   8.327
  792ETHY    C1  771  37.932  34.710   8.646
  793ETHY    C1  772  37.913  35.175   8.920
  794ETHY    C1  773  37.807  35.660   9.147
  795AUSL   AUS  774  37.538  33.814   7.663
  796AUSL   AUS  775  37.841  33.814   7.336
  797AUL    AUL  776  37.689  34.122   7.500
  798THSLK    S  777  37.575  34.066   7.772
  799ETHY    C1  778  37.648  34.490   7.929
  800ETHY    C1  779  37.645  35.006   8.095
  801ETHY    C1  780  37.537  35.517   8.229
  802ETHY    C1  781  37.333  36.013   8.336
  803THSLK    S  782  37.892  34.054   7.237
  804ETHY    C1  783  38.105  34.431   7.091
  805ETHY    C1  784  38.275  34.920   6.929
  806ETHY    C1  785  38.342  35.438   6.792
  807ETHY    C1  786  38.313  35.972   6.682
  808AUSL   AUS  787  37.841  33.814   7.663
  809AUSL   AUS  788  37.954  33.557   8.011
  810AUL    AUL  789  37.993  33.935   7.991
  811THSLK    S  790  38.127  33.674   8.184
  812ETHY    C1  791  38.400  33.815   8.522
  813ETHY    C1  792  38.681  34.064   8.915
  814ETHY    C1  793  38.897  34.397   9.279
  815ETHY    C1  794  39.049  34.802   9.614
  816THSLK    S  795  37.891  34.052   7.768
  817ETHY    C1  796  38.104  34.431   7.913
  818ETHY    C1  797  38.275  34.920   8.072
  819ETHY    C1  798  38.342  35.438   8.207
  820ETHY    C1  799  38.311  35.971   8.325
  821AUSL   AUS  800  37.689  32.560   7.909
  822AUSL   AUS  801  38.106  32.630   7.764
  823AUL    AUL  802  37.993  32.346   7.991
  824THSLK    S  803  37.648  32.303   7.992
  825ETHY    C1  804  37.521  31.894   8.152
  826ETHY    C1  805  37.447  31.413   8.391
  827ETHY    C1  806  37.466  30.961   8.684
  828ETHY    C1  807  37.568  30.543   9.021
  829THSLK    S  808  38.226  32.440   7.907
  830ETHY    C1  809  38.377  32.038   8.062
  831ETHY    C1  810  38.632  31.607   8.272
  832ETHY    C1  811  38.964  31.251   8.505
  833ETHY    C1  812  39.360  30.972   8.758
  834AUSL   AUS  813  37.538  32.467   7.663
  835AUSL   AUS  814  37.425  32.724   8.011
  836AUL    AUL  815  37.386  32.346   7.991
  837THSLK    S  816  37.487  32.222   7.744
  838ETHY    C1  817  37.274  31.823   7.812
  839ETHY    C1  818  37.103  31.320   7.925
  840ETHY    C1  819  37.037  30.806   8.072
  841ETHY    C1  820  37.066  30.291   8.252
  842THSLK    S  821  37.247  32.554   8.136
  843ETHY    C1  822  36.975  32.239   8.327
  844ETHY    C1  823  36.697  31.888   8.633
  845ETHY    C1  824  36.481  31.580   9.019
  846ETHY    C1  825  36.325  31.318   9.473
  847AUSL   AUS  826  37.841  32.467   7.663
  848AUSL   AUS  827  37.538  32.467   7.336
  849AUL    AUL  828  37.689  32.159   7.500
  850THSLK    S  829  37.488  32.220   7.261
  851ETHY    C1  830  37.275  31.822   7.192
  852ETHY    C1  831  37.103  31.320   7.076
  853ETHY    C1  832  37.037  30.806   6.927
  854ETHY    C1  833  37.068  30.289   6.754
  855THSLK    S  834  37.802  32.208   7.748
  856ETHY    C1  835  37.730  31.763   7.829
  857ETHY    C1  836  37.733  31.234   7.948
  858ETHY    C1  837  37.842  30.726   8.095
  859ETHY    C1  838  38.044  30.248   8.264
  860AUSL   AUS  839  37.689  33.721   7.091
  861AUSL   AUS  840  38.106  33.651   7.236
  862AUL    AUL  841  37.993  33.935   7.009
  863THSLK    S  842  37.731  33.955   6.971
  864ETHY    C1  843  37.858  34.280   6.676
  865ETHY    C1  844  37.932  34.710   6.353
  866ETHY    C1  845  37.913  35.175   6.080
  867ETHY    C1  846  37.810  35.663   5.857
  868THSLK    S  847  38.293  33.776   7.081
  869ETHY    C1  848  38.650  33.968   6.869
  870ETHY    C1  849  39.025  34.274   6.623
  871ETHY    C1  850  39.326  34.661   6.398
  872ETHY    C1  851  39.556  35.113   6.197
  873AUSL   AUS  852  37.538  33.814   7.336
  874AUSL   AUS  853  37.425  33.557   6.990
  875AUL    AUL  854  37.386  33.935   7.009
  876THSLK    S  855  37.577  34.068   7.233
  877ETHY    C1  856  37.649  34.491   7.074
  878ETHY    C1  857  37.646  35.007   6.906
  879ETHY    C1  858  37.537  35.517   6.770
  880ETHY    C1  859  37.335  36.015   6.670
  881THSLK    S  860  37.306  33.694   6.800
  882ETHY    C1  861  37.210  33.888   6.396
  883ETHY    C1  862  37.033  34.166   5.966
  884ETHY    C1  863  36.790  34.491   5.611
  885ETHY    C1  864  36.494  34.856   5.330
  886AUSL   AUS  865  37.689  32.560   7.091
  887AUSL   AUS  866  37.273  32.630   7.236
  888AUL    AUL  867  37.386  32.346   7.009
  889THSLK    S  868  37.088  32.477   7.122
  890ETHY    C1  869  36.731  32.203   7.044
  891ETHY    C1  870  36.354  31.849   6.878
  892ETHY    C1  871  36.052  31.475   6.633
  893ETHY    C1  872  35.825  31.088   6.321
  894THSLK    S  873  37.651  32.300   7.013
  895ETHY    C1  874  37.523  31.892   6.852
  896ETHY    C1  875  37.447  31.413   6.609
  897ETHY    C1  876  37.466  30.961   6.315
  898ETHY    C1  877  37.572  30.540   5.983
  899AUSL   AUS  878  37.841  32.467   7.336
  900AUSL   AUS  879  37.954  32.724   6.990
  901AUL    AUL  880  37.993  32.346   7.009
  902THSLK    S  881  37.804  32.207   7.258
  903ETHY    C1  882  37.731  31.762   7.175
  904ETHY    C1  883  37.733  31.234   7.052
  905ETHY    C1  884  37.841  30.726   6.905
  906ETHY    C1  885  38.046  30.247   6.742
  907THSLK    S  886  38.077  32.534   6.847
  908ETHY    C1  887  38.172  32.166   6.592
  909ETHY    C1  888  38.346  31.785   6.247
  910ETHY    C1  889  38.588  31.485   5.870
  911ETHY    C1  890  38.889  31.264   5.471
  912AUC    AUC  891  13.657  23.727   7.500
  913AUC    AUC  892  13.903  23.727   7.348
  914AUC    AUC  893  13.903  23.727   7.651
  915AUC    AUC  894  13.412  23.727   7.348
  916AUC    AUC  895  13.412  23.727   7.651
  917AUC    AUC  896  13.506  23.972   7.500
  918AUC    AUC  897  13.809  23.972   7.500
  919AUC    AUC  898  13.506  23.481   7.500
  920AUC    AUC  899  13.809  23.481   7.500
  921AUC    AUC  900  13.657  23.575   7.745
  922AUC    AUC  901  13.657  23.878   7.745
  923AUC    AUC  902  13.657  23.575   7.254
  924AUC    AUC  903  13.657  23.878   7.254
  925AUC    AUC  904  14.148  23.727   7.196
  926AUC    AUC  905  14.148  23.727   7.500
  927AUC    AUC  906  14.148  23.727   7.803
  928AUC    AUC  907  13.166  23.727   7.196
  929AUC    AUC  908  13.166  23.727   7.500
  930AUC    AUC  909  13.166  23.727   7.803
  931AUC    AUC  910  13.354  24.217   7.500
  932AUC    AUC  911  13.657  24.217   7.500
  933AUC    AUC  912  13.961  24.217   7.500
  934AUC    AUC  913  13.354  23.236   7.500
  935AUC    AUC  914  13.657  23.236   7.500
  936AUC    AUC  915  13.961  23.236   7.500
  937AUC    AUC  916  13.657  23.423   7.991
  938AUC    AUC  917  13.657  23.727   7.991
  939AUC    AUC  918  13.657  24.030   7.991
  940AUC    AUC  919  13.657  23.423   7.009
  941AUC    AUC  920  13.657  23.727   7.009
  942AUC    AUC  921  13.657  24.030   7.009
  943AUC    AUC  922  13.903  23.575   7.897
  944AUC    AUC  923  13.903  23.878   7.897
  945AUC    AUC  924  13.903  23.575   7.103
  946AUC    AUC  925  13.903  23.878   7.103
  947AUC    AUC  926  13.412  23.575   7.897
  948AUC    AUC  927  13.412  23.878   7.897
  949AUC    AUC  928  13.412  23.575   7.103
  950AUC    AUC  929  13.412  23.878   7.103
  951AUC    AUC  930  14.054  23.972   7.348
  952AUC    AUC  931  14.054  23.972   7.651
  953AUC    AUC  932  13.260  23.972   7.348
  954AUC    AUC  933  13.260  23.972   7.651
  955AUC    AUC  934  14.054  23.481   7.348
  956AUC    AUC  935  14.054  23.481   7.651
  957AUC    AUC  936  13.260  23.481   7.348
  958AUC    AUC  937  13.260  23.481   7.651
  959AUC    AUC  938  13.506  24.124   7.745
  960AUC    AUC  939  13.809  24.124   7.745
  961AUC    AUC  940  13.506  23.329   7.745
  962AUC    AUC  941  13.809  23.329   7.745
  963AUC    AUC  942  13.506  24.124   7.254
  964AUC    AUC  943  13.809  24.124   7.254
  965AUC    AUC  944  13.506  23.329   7.254
  966AUC    AUC  945  13.809  23.329   7.254
  967AUSL   AUS  946  14.066  23.727   8.080
  968AUSL   AUS  947  13.922  23.310   8.011
  969AUL    AUL  948  14.148  23.423   8.294
  970THSLK    S  949  14.040  23.122   8.156
  971ETHY    C1  950  14.136  22.754   8.412
  972ETHY    C1  951  14.314  22.371   8.753
  973ETHY    C1  952  14.556  22.071   9.130
  974ETHY    C1  953  14.852  21.852   9.534
  975THSLK    S  954  14.165  23.680   8.327
  976ETHY    C1  955  14.392  23.530   8.694
  977ETHY    C1  956  14.676  23.442   9.148
  978ETHY    C1  957  14.960  23.464   9.607
  979ETHY    C1  958  15.237  23.586  10.061
  980AUSL   AUS  959  13.821  23.575   8.173
  981AUSL   AUS  960  13.494  23.878   8.173
  982AUL    AUL  961  13.657  23.727   8.482
  983THSLK    S  962  13.902  23.524   8.418
  984ETHY    C1  963  13.992  23.306   8.810
  985ETHY    C1  964  14.120  23.132   9.308
  986ETHY    C1  965  14.266  23.067   9.823
  987ETHY    C1  966  14.423  23.101  10.346
  988THSLK    S  967  13.407  23.838   8.432
  989ETHY    C1  968  13.318  23.764   8.874
  990ETHY    C1  969  13.194  23.766   9.403
  991ETHY    C1  970  13.049  23.875   9.912
  992ETHY    C1  971  12.886  24.079  10.392
  993AUSL   AUS  972  13.821  23.878   8.173
  994AUSL   AUS  973  14.167  23.991   7.916
  995AUL    AUL  974  14.148  24.030   8.294
  996THSLK    S  975  13.908  23.930   8.416
  997ETHY    C1  976  13.996  24.147   8.809
  998ETHY    C1  977  14.121  24.320   9.308
  999ETHY    C1  978  14.266  24.386   9.823
 1000ETHY    C1  979  14.429  24.353  10.345
 1001THSLK    S  980  14.343  24.097   8.079
 1002ETHY    C1  981  14.705  24.147   8.355
 1003ETHY    C1  982  15.112  24.296   8.681
 1004ETHY    C1  983  15.474  24.545   8.995
 1005ETHY    C1  984  15.786  24.881   9.293
 1006AUSL   AUS  985  14.066  23.727   6.920
 1007AUSL   AUS  986  13.922  24.143   6.990
 1008AUL    AUL  987  14.148  24.030   6.706
 1009THSLK    S  988  14.170  23.680   6.676
 1010ETHY    C1  989  14.397  23.530   6.308
 1011ETHY    C1  990  14.676  23.442   5.851
 1012ETHY    C1  991  14.960  23.464   5.393
 1013ETHY    C1  992  15.242  23.586   4.941
 1014THSLK    S  993  14.099  24.262   6.820
 1015ETHY    C1  994  14.371  24.403   6.480
 1016ETHY    C1  995  14.649  24.650   6.085
 1017ETHY    C1  996  14.865  24.983   5.720
 1018ETHY    C1  997  15.022  25.390   5.391
 1019AUSL   AUS  998  13.821  23.575   6.826
 1020AUSL   AUS  999  14.167  23.462   7.083
 1021AUL    AUL 1000  14.148  23.423   6.706
 1022THSLK    S 1001  14.307  23.271   6.939
 1023ETHY    C1 1002  14.540  22.954   6.707
 1024ETHY    C1 1003  14.870  22.647   6.403
 1025ETHY    C1 1004  15.250  22.438   6.083
 1026ETHY    C1 1005  15.671  22.321   5.754
 1027THSLK    S 1006  13.908  23.523   6.583
 1028ETHY    C1 1007  13.996  23.306   6.191
 1029ETHY    C1 1008  14.121  23.133   5.692
 1030ETHY    C1 1009  14.266  23.067   5.176
 1031ETHY    C1 1010  14.429  23.100   4.656
 1032AUSL   AUS 1011  13.821  23.878   6.826
 1033AUSL   AUS 1012  13.494  23.575   6.826
 1034AUL    AUL 1013  13.657  23.727   6.518
 1035THSLK    S 1014  13.398  23.523   6.586
 1036ETHY    C1 1015  13.259  23.308   6.206
 1037ETHY    C1 1016  13.102  23.137   5.717
 1038ETHY    C1 1017  12.963  23.071   5.199
 1039ETHY    C1 1018  12.847  23.102   4.666
 1040THSLK    S 1019  13.923  23.839   6.572
 1041ETHY    C1 1020  14.060  23.762   6.142
 1042ETHY    C1 1021  14.213  23.762   5.622
 1043ETHY    C1 1022  14.351  23.871   5.112
 1044ETHY    C1 1023  14.474  24.078   4.621
 1045AUSL   AUS 1024  13.248  23.727   8.080
 1046AUSL   AUS 1025  13.393  24.143   8.011
 1047AUL    AUL 1026  13.166  24.030   8.294
 1048THSLK    S 1027  13.144  23.680   8.325
 1049ETHY    C1 1028  12.918  23.530   8.691
 1050ETHY    C1 1029  12.638  23.442   9.148
 1051ETHY    C1 1030  12.355  23.464   9.607
 1052ETHY    C1 1031  12.072  23.586  10.058
 1053THSLK    S 1032  13.270  24.276   8.201
 1054ETHY    C1 1033  13.174  24.471   8.604
 1055ETHY    C1 1034  13.001  24.752   9.034
 1056ETHY    C1 1035  12.758  25.078   9.390
 1057ETHY    C1 1036  12.457  25.437   9.671
 1058AUSL   AUS 1037  13.494  23.575   8.173
 1059AUSL   AUS 1038  13.147  23.462   7.916
 1060AUL    AUL 1039  13.166  23.423   8.294
 1061THSLK    S 1040  12.968  23.296   8.032
 1062ETHY    C1 1041  12.607  23.049   8.166
 1063ETHY    C1 1042  12.202  22.783   8.410
 1064ETHY    C1 1043  11.841  22.563   8.745
 1065ETHY    C1 1044  11.525  22.390   9.156
 1066THSLK    S 1045  13.392  23.525   8.413
 1067ETHY    C1 1046  13.254  23.310   8.793
 1068ETHY    C1 1047  13.101  23.137   9.284
 1069ETHY    C1 1048  12.964  23.071   9.800
 1070ETHY    C1 1049  12.840  23.103  10.332
 1071AUSL   AUS 1050  13.248  23.727   6.920
 1072AUSL   AUS 1051  13.393  23.310   6.990
 1073AUL    AUL 1052  13.166  23.423   6.706
 1074THSLK    S 1053  13.149  23.680   6.673
 1075ETHY    C1 1054  12.922  23.530   6.305
 1076ETHY    C1 1055  12.639  23.442   5.851
 1077ETHY    C1 1056  12.355  23.464   5.393
 1078ETHY    C1 1057  12.078  23.586   4.938
 1079THSLK    S 1058  13.219  23.135   6.865
 1080ETHY    C1 1059  12.947  22.822   6.673
 1081ETHY    C1 1060  12.666  22.474   6.367
 1082ETHY    C1 1061  12.449  22.166   5.980
 1083ETHY    C1 1062  12.297  21.899   5.528
 1084AUSL   AUS 1063  13.494  23.878   6.826
 1085AUSL   AUS 1064  13.147  23.991   7.083
 1086AUL    AUL 1065  13.166  24.030   6.706
 1087THSLK    S 1066  13.011  24.122   6.893
 1088ETHY    C1 1067  12.777  24.243   6.518
 1089ETHY    C1 1068  12.445  24.431   6.132
 1090ETHY    C1 1069  12.065  24.670   5.833
 1091ETHY    C1 1070  11.648  24.950   5.618
 1092THSLK    S 1071  13.413  23.840   6.566
 1093ETHY    C1 1072  13.323  23.765   6.124
 1094ETHY    C1 1073  13.195  23.766   5.597
 1095ETHY    C1 1074  13.049  23.875   5.089
 1096ETHY    C1 1075  12.892  24.081   4.608
 1097AUSL   AUS 1076  14.237  24.136   7.500
 1098AUSL   AUS 1077  14.167  23.991   7.083
 1099AUL    AUL 1078  14.451  24.217   7.196
 1100THSLK    S 1079  14.347  24.098   6.925
 1101ETHY    C1 1080  14.708  24.148   6.648
 1102ETHY    C1 1081  15.112  24.296   6.319
 1103ETHY    C1 1082  15.474  24.545   6.005
 1104ETHY    C1 1083  15.790  24.882   5.713
 1105THSLK    S 1084  14.507  24.197   7.503
 1106ETHY    C1 1085  14.954  24.297   7.502
 1107ETHY    C1 1086  15.456  24.503   7.500
 1108ETHY    C1 1087  15.903  24.805   7.500
 1109ETHY    C1 1088  16.291  25.189   7.503
 1110AUSL   AUS 1089  14.331  23.890   7.348
 1111AUSL   AUS 1090  14.331  23.563   7.651
 1112AUL    AUL 1091  14.639  23.727   7.500
 1113THSLK    S 1092  14.593  23.937   7.345
 1114ETHY    C1 1093  15.043  23.906   7.270
 1115ETHY    C1 1094  15.575  23.961   7.179
 1116ETHY    C1 1095  16.082  24.124   7.091
 1117ETHY    C1 1096  16.557  24.382   7.011
 1118THSLK    S 1097  14.568  23.426   7.659
 1119ETHY    C1 1098  14.939  23.168   7.726
 1120ETHY    C1 1099  15.425  22.942   7.808
 1121ETHY    C1 1100  15.944  22.822   7.896
 1122ETHY    C1 1101  16.482  22.800   7.989
 1123AUSL   AUS 1102  14.331  23.890   7.651
 1124AUSL   AUS 1103  14.074  24.237   7.764
 1125AUL    AUL 1104  14.451  24.217   7.803
 1126THSLK    S 1105  14.259  24.361   7.924
 1127ETHY    C1 1106  14.616  24.553   8.136
 1128ETHY    C1 1107  14.993  24.860   8.377
 1129ETHY    C1 1108  15.294  25.247   8.602
 1130ETHY    C1 1109  15.521  25.698   8.809
 1131THSLK    S 1110  14.592  23.936   7.661
 1132ETHY    C1 1111  15.043  23.906   7.734
 1133ETHY    C1 1112  15.576  23.961   7.821
 1134ETHY    C1 1113  16.082  24.124   7.908
 1135ETHY    C1 1114  16.556  24.382   7.995
 1136AUSL   AUS 1115  13.077  24.136   7.500
 1137AUSL   AUS 1116  13.147  23.991   7.916
 1138AUL    AUL 1117  12.863  24.217   7.803
 1139THSLK    S 1118  13.007  24.117   8.107
 1140ETHY    C1 1119  12.774  24.238   8.482
 1141ETHY    C1 1120  12.445  24.431   8.868
 1142ETHY    C1 1121  12.065  24.670   9.166
 1143ETHY    C1 1122  11.644  24.945   9.381
 1144THSLK    S 1123  12.856  24.276   7.503
 1145ETHY    C1 1124  12.567  24.631   7.502
 1146ETHY    C1 1125  12.159  24.988   7.500
 1147ETHY    C1 1126  11.689  25.252   7.500
 1148ETHY    C1 1127  11.171  25.428   7.503
 1149AUSL   AUS 1128  12.984  23.890   7.348
 1150AUSL   AUS 1129  13.241  24.237   7.236
 1151AUL    AUL 1130  12.863  24.217   7.196
 1152THSLK    S 1131  12.747  24.004   7.303
 1153ETHY    C1 1132  12.375  24.178   7.101
 1154ETHY    C1 1133  11.889  24.354   6.936
 1155ETHY    C1 1134  11.371  24.486   6.868
 1156ETHY    C1 1135  10.833  24.578   6.890
 1157THSLK    S 1136  13.121  24.404   7.056
 1158ETHY    C1 1137  12.969  24.723   6.765
 1159ETHY    C1 1138  12.715  25.103   6.473
 1160ETHY    C1 1139  12.382  25.471   6.260
 1161ETHY    C1 1140  11.986  25.821   6.122
 1162AUSL   AUS 1141  12.984  23.890   7.651
 1163AUSL   AUS 1142  12.984  23.563   7.348
 1164AUL    AUL 1143  12.676  23.727   7.500
 1165THSLK    S 1144  12.722  23.488   7.384
 1166ETHY    C1 1145  12.272  23.437   7.446
 1167ETHY    C1 1146  11.739  23.334   7.434
 1168ETHY    C1 1147  11.232  23.184   7.327
 1169ETHY    C1 1148  10.759  22.991   7.135
 1170THSLK    S 1149  12.746  23.998   7.699
 1171ETHY    C1 1150  12.375  24.174   7.901
 1172ETHY    C1 1151  11.889  24.353   8.063
 1173ETHY    C1 1152  11.371  24.486   8.133
 1174ETHY    C1 1153  10.832  24.572   8.114
 1175AUSL   AUS 1154  14.237  23.317   7.500
 1176AUSL   AUS 1155  14.167  23.462   7.916
 1177AUL    AUL 1156  14.451  23.236   7.803
 1178THSLK    S 1157  14.458  23.177   7.503
 1179ETHY    C1 1158  14.747  22.822   7.502
 1180ETHY    C1 1159  15.156  22.465   7.500
 1181ETHY    C1 1160  15.626  22.201   7.500
 1182ETHY    C1 1161  16.143  22.025   7.503
 1183THSLK    S 1162  14.304  23.272   8.066
 1184ETHY    C1 1163  14.537  22.955   8.297
 1185ETHY    C1 1164  14.870  22.648   8.598
 1186ETHY    C1 1165  15.250  22.438   8.918
 1187ETHY    C1 1166  15.667  22.322   9.250
 1188AUSL   AUS 1167  14.331  23.563   7.348
 1189AUSL   AUS 1168  14.074  23.216   7.236
 1190AUL    AUL 1169  14.451  23.236   7.196
 1191THSLK    S 1170  14.569  23.426   7.346
 1192ETHY    C1 1171  14.940  23.168   7.279
 1193ETHY    C1 1172  15.425  22.942   7.192
 1194ETHY    C1 1173  15.944  22.822   7.103
 1195ETHY    C1 1174  16.483  22.800   7.018
 1196THSLK    S 1175  14.197  23.025   7.099
 1197ETHY    C1 1176  14.347  22.623   6.942
 1198ETHY    C1 1177  14.600  22.193   6.728
 1199ETHY    C1 1178  14.932  21.837   6.495
 1200ETHY    C1 1179  15.331  21.556   6.249
 1201AUSL   AUS 1180  13.077  23.317   7.500
 1202AUSL   AUS 1181  13.147  23.462   7.083
 1203AUL    AUL 1182  12.863  23.236   7.196
 1204THSLK    S 1183  12.972  23.291   6.966
 1205ETHY    C1 1184  12.610  23.045   6.833
 1206ETHY    C1 1185  12.202  22.782   6.589
 1207ETHY    C1 1186  11.841  22.563   6.255
 1208ETHY    C1 1187  11.529  22.385   5.843
 1209THSLK    S 1188  12.807  23.256   7.503
 1210ETHY    C1 1189  12.361  23.156   7.502
 1211ETHY    C1 1190  11.859  22.950   7.500
 1212ETHY    C1 1191  11.412  22.648   7.500
 1213ETHY    C1 1192  11.024  22.264   7.503
 1214AUSL   AUS 1193  12.984  23.563   7.651
 1215AUSL   AUS 1194  13.241  23.216   7.764
 1216AUL    AUL 1195  12.863  23.236   7.803
 1217THSLK    S 1196  13.053  23.068   7.881
 1218ETHY    C1 1197  12.697  22.792   7.958
 1219ETHY    C1 1198  12.322  22.435   8.122
 1220ETHY    C1 1199  12.021  22.061   8.367
 1221ETHY    C1 1200  11.790  21.679   8.682
 1222THSLK    S 1201  12.721  23.493   7.618
 1223ETHY    C1 1202  12.271  23.441   7.557
 1224ETHY    C1 1203  11.739  23.335   7.566
 1225ETHY    C1 1204  11.232  23.184   7.673
 1226ETHY    C1 1205  10.758  22.996   7.867
 1227AUSL   AUS 1206  13.657  24.307   7.909
 1228AUSL   AUS 1207  13.241  24.237   7.764
 1229AUL    AUL 1208  13.354  24.521   7.991
 1230THSLK    S 1209  13.118  24.399   7.948
 1231ETHY    C1 1210  12.967  24.719   8.237
 1232ETHY    C1 1211  12.714  25.102   8.527
 1233ETHY    C1 1212  12.382  25.470   8.740
 1234ETHY    C1 1213  11.983  25.816   8.881
 1235THSLK    S 1214  13.695  24.538   8.034
 1236ETHY    C1 1215  13.823  24.864   8.327
 1237ETHY    C1 1216  13.900  25.296   8.646
 1238ETHY    C1 1217  13.881  25.761   8.920
 1239ETHY    C1 1218  13.775  26.246   9.147
 1240AUSL   AUS 1219  13.506  24.400   7.663
 1241AUSL   AUS 1220  13.809  24.400   7.336
 1242AUL    AUL 1221  13.657  24.708   7.500
 1243THSLK    S 1222  13.543  24.652   7.772
 1244ETHY    C1 1223  13.616  25.076   7.929
 1245ETHY    C1 1224  13.613  25.592   8.095
 1246ETHY    C1 1225  13.505  26.103   8.229
 1247ETHY    C1 1226  13.301  26.599   8.336
 1248THSLK    S 1227  13.860  24.640   7.237
 1249ETHY    C1 1228  14.073  25.017   7.091
 1250ETHY    C1 1229  14.243  25.506   6.929
 1251ETHY    C1 1230  14.310  26.024   6.792
 1252ETHY    C1 1231  14.281  26.558   6.682
 1253AUSL   AUS 1232  13.809  24.400   7.663
 1254AUSL   AUS 1233  13.922  24.143   8.011
 1255AUL    AUL 1234  13.961  24.521   7.991
 1256THSLK    S 1235  14.095  24.260   8.184
 1257ETHY    C1 1236  14.368  24.401   8.522
 1258ETHY    C1 1237  14.649  24.650   8.915
 1259ETHY    C1 1238  14.865  24.983   9.279
 1260ETHY    C1 1239  15.017  25.388   9.614
 1261THSLK    S 1240  13.859  24.638   7.768
 1262ETHY    C1 1241  14.072  25.017   7.913
 1263ETHY    C1 1242  14.243  25.506   8.072
 1264ETHY    C1 1243  14.310  26.024   8.207
 1265ETHY    C1 1244  14.279  26.557   8.325
 1266AUSL   AUS 1245  13.657  23.146   7.909
 1267AUSL   AUS 1246  14.074  23.216   7.764
 1268AUL    AUL 1247  13.961  22.932   7.991
 1269THSLK    S 1248  13.616  22.889   7.992
 1270ETHY    C1 1249  13.489  22.480   8.152
 1271ETHY    C1 1250  13.415  21.999   8.391
 1272ETHY    C1 1251  13.434  21.547   8.684
 1273ETHY    C1 1252  13.536  21.129   9.021
 1274THSLK    S 1253  14.194  23.026   7.907
 1275ETHY    C1 1254  14.345  22.624   8.062
 1276ETHY    C1 1255  14.600  22.193   8.272
 1277ETHY    C1 1256  14.932  21.837   8.505
 1278ETHY    C1 1257  15.328  21.558   8.758
 1279AUSL   AUS 1258  13.506  23.053   7.663
 1280AUSL   AUS 1259  13.393  23.310   8.011
 1281AUL    AUL 1260  13.354  22.932   7.991
 1282THSLK    S 1261  13.455  22.808   7.744
 1283ETHY    C1 1262  13.242  22.409   7.812
 1284ETHY    C1 1263  13.071  21.906   7.925
 1285ETHY    C1 1264  13.005  21.392   8.072
 1286ETHY    C1 1265  13.034  20.877   8.252
 1287THSLK    S 1266  13.215  23.140   8.136
 1288ETHY    C1 1267  12.943  22.825   8.327
 1289ETHY    C1 1268  12.665  22.474   8.633
 1290ETHY    C1 1269  12.449  22.166   9.019
 1291ETHY    C1 1270  12.293  21.904   9.473
 1292AUSL   AUS 1271  13.809  23.053   7.663
 1293AUSL   AUS 1272  13.506  23.053   7.336
 1294AUL    AUL 1273  13.657  22.745   7.500
 1295THSLK    S 1274  13.456  22.806   7.261
 1296ETHY    C1 1275  13.243  22.408   7.192
 1297ETHY    C1 1276  13.071  21.906   7.076
 1298ETHY    C1 1277  13.005  21.392   6.927
 1299ETHY    C1 1278  13.036  20.875   6.754
 1300THSLK    S 1279  13.770  22.794   7.748
 1301ETHY    C1 1280  13.698  22.349   7.829
 1302ETHY    C1 1281  13.701  21.820   7.948
 1303ETHY    C1 1282  13.810  21.312   8.095
 1304ETHY    C1 1283  14.012  20.834   8.264
 1305AUSL   AUS 1284  13.657  24.307   7.091
 1306AUSL   AUS 1285  14.074  24.237   7.236
 1307AUL    AUL 1286  13.961  24.521   7.009
 1308THSLK    S 1287  13.699  24.541   6.971
 1309ETHY    C1 1288  13.826  24.866   6.676
 1310ETHY    C1 1289  13.900  25.296   6.353
 1311ETHY    C1 1290  13.881  25.761   6.080
 1312ETHY    C1 1291  13.778  26.249   5.857
 1313THSLK    S 1292  14.261  24.362   7.081
 1314ETHY    C1 1293  14.618  24.554   6.869
 1315ETHY    C1 1294  14.993  24.860   6.623
 1316ETHY    C1 1295  15.294  25.247   6.398
 1317ETHY    C1 1296  15.524  25.699   6.197
 1318AUSL   AUS 1297  13.506  24.400   7.336
 1319AUSL   AUS 1298  13.393  24.143   6.990
 1320AUL    AUL 1299  13.354  24.521   7.009
 1321THSLK    S 1300  13.545  24.654   7.233
 1322ETHY    C1 1301  13.617  25.077   7.074
 1323ETHY    C1 1302  13.614  25.593   6.906
 1324ETHY    C1 1303  13.505  26.103   6.770
 1325ETHY    C1 1304  13.303  26.601   6.670
 1326THSLK    S 1305  13.274  24.280   6.800
 1327ETHY    C1 1306  13.178  24.474   6.396
 1328ETHY    C1 1307  13.001  24.752   5.966
 1329ETHY    C1 1308  12.758  25.077   5.611
 1330ETHY    C1 1309  12.462  25.442   5.330
 1331AUSL   AUS 1310  13.657  23.146   7.091
 1332AUSL   AUS 1311  13.241  23.216   7.236
 1333AUL    AUL 1312  13.354  22.932   7.009
 1334THSLK    S 1313  13.056  23.063   7.122
 1335ETHY    C1 1314  12.699  22.789   7.044
 1336ETHY    C1 1315  12.322  22.435   6.878
 1337ETHY    C1 1316  12.020  22.061   6.633
 1338ETHY    C1 1317  11.793  21.674   6.321
 1339THSLK    S 1318  13.619  22.886   7.013
 1340ETHY    C1 1319  13.491  22.478   6.852
 1341ETHY    C1 1320  13.415  21.999   6.609
 1342ETHY    C1 1321  13.434  21.547   6.315
 1343ETHY    C1 1322  13.540  21.126   5.983
 1344AUSL   AUS 1323  13.809  23.053   7.336
 1345AUSL   AUS 1324  13.922  23.310   6.990
 1346AUL    AUL 1325  13.961  22.932   7.009
 1347THSLK    S 1326  13.772  22.793   7.258
 1348ETHY    C1 1327  13.699  22.348   7.175
 1349ETHY    C1 1328  13.701  21.820   7.052
 1350ETHY    C1 1329  13.809  21.312   6.905
 1351ETHY    C1 1330  14.014  20.833   6.742
 1352THSLK    S 1331  14.045  23.120   6.847
 1353ETHY    C1 1332  14.140  22.752   6.592
 1354ETHY    C1 1333  14.314  22.371   6.247
 1355ETHY    C1 1334  14.556  22.071   5.870
 1356ETHY    C1 1335  14.857  21.850   5.471
 1357AUC    AUC 1336  26.756  22.470   7.500
 1358AUC    AUC 1337  27.002  22.470   7.348
 1359AUC    AUC 1338  27.002  22.470   7.651
 1360AUC    AUC 1339  26.511  22.470   7.348
 1361AUC    AUC 1340  26.511  22.470   7.651
 1362AUC    AUC 1341  26.605  22.715   7.500
 1363AUC    AUC 1342  26.908  22.715   7.500
 1364AUC    AUC 1343  26.605  22.224   7.500
 1365AUC    AUC 1344  26.908  22.224   7.500
 1366AUC    AUC 1345  26.756  22.318   7.745
 1367AUC    AUC 1346  26.756  22.621   7.745
 1368AUC    AUC 1347  26.756  22.318   7.254
 1369AUC    AUC 1348  26.756  22.621   7.254
 1370AUC    AUC 1349  27.247  22.470   7.196
 1371AUC    AUC 1350  27.247  22.470   7.500
 1372AUC    AUC 1351  27.247  22.470   7.803
 1373AUC    AUC 1352  26.265  22.470   7.196
 1374AUC    AUC 1353  26.265  22.470   7.500
 1375AUC    AUC 1354  26.265  22.470   7.803
 1376AUC    AUC 1355  26.453  22.960   7.500
 1377AUC    AUC 1356  26.756  22.960   7.500
 1378AUC    AUC 1357  27.060  22.960   7.500
 1379AUC    AUC 1358  26.453  21.979   7.500
 1380AUC    AUC 1359  26.756  21.979   7.500
 1381AUC    AUC 1360  27.060  21.979   7.500
 1382AUC    AUC 1361  26.756  22.166   7.991
 1383AUC    AUC 1362  26.756  22.470   7.991
 1384AUC    AUC 1363  26.756  22.773   7.991
 1385AUC    AUC 1364  26.756  22.166   7.009
 1386AUC    AUC 1365  26.756  22.470   7.009
 1387AUC    AUC 1366  26.756  22.773   7.009
 1388AUC    AUC 1367  27.002  22.318   7.897
 1389AUC    AUC 1368  27.002  22.621   7.897
 1390AUC    AUC 1369  27.002  22.318   7.103
 1391AUC    AUC 1370  27.002  22.621   7.103
 1392AUC    AUC 1371  26.511  22.318   7.897
 1393AUC    AUC 1372  26.511  22.621   7.897
 1394AUC    AUC 1373  26.511  22.318   7.103
 1395AUC    AUC 1374  26.511  22.621   7.103
 1396AUC    AUC 1375  27.153  22.715   7.348
 1397AUC    AUC 1376  27.153  22.715   7.651
 1398AUC    AUC 1377  26.359  22.715   7.348
 1399AUC    AUC 1378  26.359  22.715   7.651
 1400AUC    AUC 1379  27.153  22.224   7.348
 1401AUC    AUC 1380  27.153  22.224   7.651
 1402AUC    AUC 1381  26.359  22.224   7.348
 1403AUC    AUC 1382  26.359  22.224   7.651
 1404AUC    AUC 1383  26.605  22.867   7.745
 1405AUC    AUC 1384  26.908  22.867   7.745
 1406AUC    AUC 1385  26.605  22.072   7.745
 1407AUC    AUC 1386  26.908  22.072   7.745
 1408AUC    AUC 1387  26.605  22.867   7.254
 1409AUC    AUC 1388  26.908  22.867   7.254
 1410AUC    AUC 1389  26.605  22.072   7.254
 1411AUC    AUC 1390  26.908  22.072   7.254
 1412AUSL   AUS 1391  27.165  22.470   8.080
 1413AUSL   AUS 1392  27.021  22.053   8.011
 1414AUL    AUL 1393  27.247  22.166   8.294
 1415THSLK    S 1394  27.139  21.865   8.156
 1416ETHY    C1 1395  27.235  21.497   8.412
 1417ETHY    C1 1396  27.413  21.114   8.753
 1418ETHY    C1 1397  27.655  20.814   9.130
 1419ETHY    C1 1398  27.951  20.595   9.534
 1420THSLK    S 1399  27.264  22.423   8.327
 1421ETHY    C1 1400  27.491  22.273   8.694
 1422ETHY    C1 1401  27.775  22.185   9.148
 1423ETHY    C1 1402  28.059  22.207   9.607
 1424ETHY    C1 1403  28.336  22.329  10.061
 1425AUSL   AUS 1404  26.920  22.318   8.173
 1426AUSL   AUS 1405  26.593  22.621   8.173
 1427AUL    AUL 1406  26.756  22.470   8.482
 1428THSLK    S 1407  27.001  22.267   8.418
 1429ETHY    C1 1408  27.091  22.049   8.810
 1430ETHY    C1 1409  27.219  21.875   9.308
 1431ETHY    C1 1410  27.365  21.810   9.823
 1432ETHY    C1 1411  27.522  21.844  10.346
 1433THSLK    S 1412  26.506  22.581   8.432
 1434ETHY    C1 1413  26.417  22.507   8.874
 1435ETHY    C1 1414  26.293  22.509   9.403
 1436ETHY    C1 1415  26.148  22.618   9.912
 1437ETHY    C1 1416  25.985  22.822  10.392
 1438AUSL   AUS 1417  26.920  22.621   8.173
 1439AUSL   AUS 1418  27.266  22.734   7.916
 1440AUL    AUL 1419  27.247  22.773   8.294
 1441THSLK    S 1420  27.007  22.673   8.416
 1442ETHY    C1 1421  27.095  22.890   8.809
 1443ETHY    C1 1422  27.220  23.063   9.308
 1444ETHY    C1 1423  27.365  23.129   9.823
 1445ETHY    C1 1424  27.528  23.096  10.345
 1446THSLK    S 1425  27.442  22.840   8.079
 1447ETHY    C1 1426  27.804  22.890   8.355
 1448ETHY    C1 1427  28.211  23.039   8.681
 1449ETHY    C1 1428  28.573  23.288   8.995
 1450ETHY    C1 1429  28.885  23.624   9.293
 1451AUSL   AUS 1430  27.165  22.470   6.920
 1452AUSL   AUS 1431  27.021  22.886   6.990
 1453AUL    AUL 1432  27.247  22.773   6.706
 1454THSLK    S 1433  27.269  22.423   6.676
 1455ETHY    C1 1434  27.496  22.273   6.308
 1456ETHY    C1 1435  27.775  22.185   5.851
 1457ETHY    C1 1436  28.059  22.207   5.393
 1458ETHY    C1 1437  28.341  22.329   4.941
 1459THSLK    S 1438  27.198  23.005   6.820
 1460ETHY    C1 1439  27.470  23.146   6.480
 1461ETHY    C1 1440  27.748  23.393   6.085
 1462ETHY    C1 1441  27.964  23.726   5.720
 1463ETHY    C1 1442  28.121  24.133   5.391
 1464AUSL   AUS 1443  26.920  22.318   6.826
 1465AUSL   AUS 1444  27.266  22.205   7.083
 1466AUL    AUL 1445  27.247  22.166   6.706
 1467THSLK    S 1446  27.406  22.014   6.939
 1468ETHY    C1 1447  27.639  21.697   6.707
 1469ETHY    C1 1448  27.969  21.390   6.403
 1470ETHY    C1 1449  28.349  21.181   6.083
 1471ETHY    C1 1450  28.770  21.064   5.754
 1472THSLK    S 1451  27.007  22.266   6.583
 1473ETHY    C1 1452  27.095  22.049   6.191
 1474ETHY    C1 1453  27.220  21.876   5.692
 1475ETHY    C1 1454  27.365  21.810   5.176
 1476ETHY    C1 1455  27.528  21.843   4.656
 1477AUSL   AUS 1456  26.920  22.621   6.826
 1478AUSL   AUS 1457  26.593  22.318   6.826
 1479AUL    AUL 1458  26.756  22.470   6.518
 1480THSLK    S 1459  26.497  22.266   6.586
 1481ETHY    C1 1460  26.358  22.051   6.206
 1482ETHY    C1 1461  26.201  21.880   5.717
 1483ETHY    C1 1462  26.062  21.814   5.199
 1484ETHY    C1 1463  25.946  21.845   4.666
 1485THSLK    S 1464  27.022  22.582   6.572
 1486ETHY    C1 1465  27.159  22.505   6.142
 1487ETHY    C1 1466  27.312  22.505   5.622
 1488ETHY    C1 1467  27.450  22.614   5.112
 1489ETHY    C1 1468  27.573  22.821   4.621
 1490AUSL   AUS 1469  26.347  22.470   8.080
 1491AUSL   AUS 1470  26.492  22.886   8.011
 1492AUL    AUL 1471  26.265  22.773   8.294
 1493THSLK    S 1472  26.243  22.423   8.325
 1494ETHY    C1 1473  26.017  22.273   8.691
 1495ETHY    C1 1474  25.737  22.185   9.148
 1496ETHY    C1 1475  25.454  22.207   9.607
 1497ETHY    C1 1476  25.171  22.329  10.058
 1498THSLK    S 1477  26.369  23.019   8.201
 1499ETHY    C1 1478  26.273  23.214   8.604
 1500ETHY    C1 1479  26.100  23.495   9.034
 1501ETHY    C1 1480  25.857  23.821   9.390
 1502ETHY    C1 1481  25.556  24.180   9.671
 1503AUSL   AUS 1482  26.593  22.318   8.173
 1504AUSL   AUS 1483  26.246  22.205   7.916
 1505AUL    AUL 1484  26.265  22.166   8.294
 1506THSLK    S 1485  26.067  22.039   8.032
 1507ETHY    C1 1486  25.706  21.792   8.166
 1508ETHY    C1 1487  25.301  21.526   8.410
 1509ETHY    C1 1488  24.940  21.306   8.745
 1510ETHY    C1 1489  24.624  21.133   9.156
 1511THSLK    S 1490  26.491  22.268   8.413
 1512ETHY    C1 1491  26.353  22.053   8.793
 1513ETHY    C1 1492  26.200  21.880   9.284
 1514ETHY    C1 1493  26.063  21.814   9.800
 1515ETHY    C1 1494  25.939  21.846  10.332
 1516AUSL   AUS 1495  26.347  22.470   6.920
 1517AUSL   AUS 1496  26.492  22.053   6.990
 1518AUL    AUL 1497  26.265  22.166   6.706
 1519THSLK    S 1498  26.248  22.423   6.673
 1520ETHY    C1 1499  26.021  22.273   6.305
 1521ETHY    C1 1500  25.738  22.185   5.851
 1522ETHY    C1 1501  25.454  22.207   5.393
 1523ETHY    C1 1502  25.177  22.329   4.938
 1524THSLK    S 1503  26.318  21.878   6.865
 1525ETHY    C1 1504  26.046  21.565   6.673
 1526ETHY    C1 1505  25.765  21.217   6.367
 1527ETHY    C1 1506  25.548  20.909   5.980
 1528ETHY    C1 1507  25.396  20.642   5.528
 1529AUSL   AUS 1508  26.593  22.621   6.826
 1530AUSL   AUS 1509  26.246  22.734   7.083
 1531AUL    AUL 1510  26.265  22.773   6.706
 1532THSLK    S 1511  26.110  22.865   6.893
 1533ETHY    C1 1512  25.876  22.986   6.518
 1534ETHY    C1 1513  25.544  23.174   6.132
 1535ETHY    C1 1514  25.164  23.413   5.833
 1536ETHY    C1 1515  24.747  23.693   5.618
 1537THSLK    S 1516  26.512  22.583   6.566
 1538ETHY    C1 1517  26.422  22.508   6.124
 1539ETHY    C1 1518  26.294  22.509   5.597
 1540ETHY    C1 1519  26.148  22.618   5.089
 1541ETHY    C1 1520  25.991  22.824   4.608
 1542AUSL   AUS 1521  27.336  22.879   7.500
 1543AUSL   AUS 1522  27.266  22.734   7.083
 1544AUL    AUL 1523  27.550  22.960   7.196
 1545THSLK    S 1524  27.446  22.841   6.925
 1546ETHY    C1 1525  27.807  22.891   6.648
 1547ETHY    C1 1526  28.211  23.039   6.319
 1548ETHY    C1 1527  28.573  23.288   6.005
 1549ETHY    C1 1528  28.889  23.625   5.713
 1550THSLK    S 1529  27.606  22.940   7.503
 1551ETHY    C1 1530  28.053  23.040   7.502
 1552ETHY    C1 1531  28.555  23.246   7.500
 1553ETHY    C1 1532  29.002  23.548   7.500
 1554ETHY    C1 1533  29.390  23.932   7.503
 1555AUSL   AUS 1534  27.430  22.633   7.348
 1556AUSL   AUS 1535  27.430  22.306   7.651
 1557AUL    AUL 1536  27.738  22.470   7.500
 1558THSLK    S 1537  27.692  22.680   7.345
 1559ETHY    C1 1538  28.142  22.649   7.270
 1560ETHY    C1 1539  28.674  22.704   7.179
 1561ETHY    C1 1540  29.181  22.867   7.091
 1562ETHY    C1 1541  29.656  23.125   7.011
 1563THSLK    S 1542  27.667  22.169   7.659
 1564ETHY    C1 1543  28.038  21.911   7.726
 1565ETHY    C1 1544  28.524  21.685   7.808
 1566ETHY    C1 1545  29.043  21.565   7.896
 1567ETHY    C1 1546  29.581  21.543   7.989
 1568AUSL   AUS 1547  27.430  22.633   7.651
 1569AUSL   AUS 1548  27.173  22.980   7.764
 1570AUL    AUL 1549  27.550  22.960   7.803
 1571THSLK    S 1550  27.358  23.104   7.924
 1572ETHY    C1 1551  27.715  23.296   8.136
 1573ETHY    C1 1552  28.092  23.603   8.377
 1574ETHY    C1 1553  28.393  23.990   8.602
 1575ETHY    C1 1554  28.620  24.441   8.809
 1576THSLK    S 1555  27.691  22.679   7.661
 1577ETHY    C1 1556  28.142  22.649   7.734
 1578ETHY    C1 1557  28.675  22.704   7.821
 1579ETHY    C1 1558  29.181  22.867   7.908
 1580ETHY    C1 1559  29.655  23.125   7.995
 1581AUSL   AUS 1560  26.176  22.879   7.500
 1582AUSL   AUS 1561  26.246  22.734   7.916
 1583AUL    AUL 1562  25.962  22.960   7.803
 1584THSLK    S 1563  26.106  22.860   8.107
 1585ETHY    C1 1564  25.873  22.981   8.482
 1586ETHY    C1 1565  25.544  23.174   8.868
 1587ETHY    C1 1566  25.164  23.413   9.166
 1588ETHY    C1 1567  24.743  23.688   9.381
 1589THSLK    S 1568  25.955  23.019   7.503
 1590ETHY    C1 1569  25.666  23.374   7.502
 1591ETHY    C1 1570  25.258  23.731   7.500
 1592ETHY    C1 1571  24.788  23.995   7.500
 1593ETHY    C1 1572  24.270  24.171   7.503
 1594AUSL   AUS 1573  26.083  22.633   7.348
 1595AUSL   AUS 1574  26.340  22.980   7.236
 1596AUL    AUL 1575  25.962  22.960   7.196
 1597THSLK    S 1576  25.846  22.747   7.303
 1598ETHY    C1 1577  25.474  22.921   7.101
 1599ETHY    C1 1578  24.988  23.097   6.936
 1600ETHY    C1 1579  24.470  23.229   6.868
 1601ETHY    C1 1580  23.932  23.321   6.890
 1602THSLK    S 1581  26.220  23.147   7.056
 1603ETHY    C1 1582  26.068  23.466   6.765
 1604ETHY    C1 1583  25.814  23.846   6.473
 1605ETHY    C1 1584  25.481  24.214   6.260
 1606ETHY    C1 1585  25.085  24.564   6.122
 1607AUSL   AUS 1586  26.083  22.633   7.651
 1608AUSL   AUS 1587  26.083  22.306   7.348
 1609AUL    AUL 1588  25.775  22.470   7.500
 1610THSLK    S 1589  25.821  22.231   7.384
 1611ETHY    C1 1590  25.371  22.180   7.446
 1612ETHY    C1 1591  24.838  22.077   7.434
 1613ETHY    C1 1592  24.331  21.927   7.327
 1614ETHY    C1 1593  23.858  21.734   7.135
 1615THSLK    S 1594  25.845  22.741   7.699
 1616ETHY    C1 1595  25.474  22.917   7.901
 1617ETHY    C1 1596  24.988  23.096   8.063
 1618ETHY    C1 1597  24.470  23.229   8.133
 1619ETHY    C1 1598  23.931  23.315   8.114
 1620AUSL   AUS 1599  27.336  22.060   7.500
 1621AUSL   AUS 1600  27.266  22.205   7.916
 1622AUL    AUL 1601  27.550  21.979   7.803
 1623THSLK    S 1602  27.557  21.920   7.503
 1624ETHY    C1 1603  27.846  21.565   7.502
 1625ETHY    C1 1604  28.255  21.208   7.500
 1626ETHY    C1 1605  28.725  20.944   7.500
 1627ETHY    C1 1606  29.242  20.768   7.503
 1628THSLK    S 1607  27.403  22.015   8.066
 1629ETHY    C1 1608  27.636  21.698   8.297
 1630ETHY    C1 1609  27.969  21.391   8.598
 1631ETHY    C1 1610  28.349  21.181   8.918
 1632ETHY    C1 1611  28.766  21.065   9.250
 1633AUSL   AUS 1612  27.430  22.306   7.348
 1634AUSL   AUS 1613  27.173  21.959   7.236
 1635AUL    AUL 1614  27.550  21.979   7.196
 1636THSLK    S 1615  27.668  22.169   7.346
 1637ETHY    C1 1616  28.039  21.911   7.279
 1638ETHY    C1 1617  28.524  21.685   7.192
 1639ETHY    C1 1618  29.043  21.565   7.103
 1640ETHY    C1 1619  29.582  21.543   7.018
 1641THSLK    S 1620  27.296  21.768   7.099
 1642ETHY    C1 1621  27.446  21.366   6.942
 1643ETHY    C1 1622  27.699  20.936   6.728
 1644ETHY    C1 1623  28.031  20.580   6.495
 1645ETHY    C1 1624  28.430  20.299   6.249
 1646AUSL   AUS 1625  26.176  22.060   7.500
 1647AUSL   AUS 1626  26.246  22.205   7.083
 1648AUL    AUL 1627  25.962  21.979   7.196
 1649THSLK    S 1628  26.071  22.034   6.966
 1650ETHY    C1 1629  25.709  21.788   6.833
 1651ETHY    C1 1630  25.301  21.525   6.589
 1652ETHY    C1 1631  24.940  21.306   6.255
 1653ETHY    C1 1632  24.628  21.128   5.843
 1654THSLK    S 1633  25.906  21.999   7.503
 1655ETHY    C1 1634  25.460  21.899   7.502
 1656ETHY    C1 1635  24.958  21.693   7.500
 1657ETHY    C1 1636  24.511  21.391   7.500
 1658ETHY    C1 1637  24.123  21.007   7.503
 1659AUSL   AUS 1638  26.083  22.306   7.651
 1660AUSL   AUS 1639  26.340  21.959   7.764
 1661AUL    AUL 1640  25.962  21.979   7.803
 1662THSLK    S 1641  26.152  21.811   7.881
 1663ETHY    C1 1642  25.796  21.535   7.958
 1664ETHY    C1 1643  25.421  21.178   8.122
 1665ETHY    C1 1644  25.120  20.804   8.367
 1666ETHY    C1 1645  24.889  20.422   8.682
 1667THSLK    S 1646  25.820  22.236   7.618
 1668ETHY    C1 1647  25.370  22.184   7.557
 1669ETHY    C1 1648  24.838  22.078   7.566
 1670ETHY    C1 1649  24.331  21.927   7.673
 1671ETHY    C1 1650  23.857  21.739   7.867
 1672AUSL   AUS 1651  26.756  23.050   7.909
 1673AUSL   AUS 1652  26.340  22.980   7.764
 1674AUL    AUL 1653  26.453  23.264   7.991
 1675THSLK    S 1654  26.217  23.142   7.948
 1676ETHY    C1 1655  26.066  23.462   8.237
 1677ETHY    C1 1656  25.813  23.845   8.527
 1678ETHY    C1 1657  25.481  24.213   8.740
 1679ETHY    C1 1658  25.082  24.559   8.881
 1680THSLK    S 1659  26.794  23.281   8.034
 1681ETHY    C1 1660  26.922  23.607   8.327
 1682ETHY    C1 1661  26.999  24.039   8.646
 1683ETHY    C1 1662  26.980  24.504   8.920
 1684ETHY    C1 1663  26.874  24.989   9.147
 1685AUSL   AUS 1664  26.605  23.143   7.663
 1686AUSL   AUS 1665  26.908  23.143   7.336
 1687AUL    AUL 1666  26.756  23.451   7.500
 1688THSLK    S 1667  26.642  23.395   7.772
 1689ETHY    C1 1668  26.715  23.819   7.929
 1690ETHY    C1 1669  26.712  24.335   8.095
 1691ETHY    C1 1670  26.604  24.846   8.229
 1692ETHY    C1 1671  26.400  25.342   8.336
 1693THSLK    S 1672  26.959  23.383   7.237
 1694ETHY    C1 1673  27.172  23.760   7.091
 1695ETHY    C1 1674  27.342  24.249   6.929
 1696ETHY    C1 1675  27.409  24.767   6.792
 1697ETHY    C1 1676  27.380  25.301   6.682
 1698AUSL   AUS 1677  26.908  23.143   7.663
 1699AUSL   AUS 1678  27.021  22.886   8.011
 1700AUL    AUL 1679  27.060  23.264   7.991
 1701THSLK    S 1680  27.194  23.003   8.184
 1702ETHY    C1 1681  27.467  23.144   8.522
 1703ETHY    C1 1682  27.748  23.393   8.915
 1704ETHY    C1 1683  27.964  23.726   9.279
 1705ETHY    C1 1684  28.116  24.131   9.614
 1706THSLK    S 1685  26.958  23.381   7.768
 1707ETHY    C1 1686  27.171  23.760   7.913
 1708ETHY    C1 1687  27.342  24.249   8.072
 1709ETHY    C1 1688  27.409  24.767   8.207
 1710ETHY    C1 1689  27.378  25.300   8.325
 1711AUSL   AUS 1690  26.756  21.889   7.909
 1712AUSL   AUS 1691  27.173  21.959   7.764
 1713AUL    AUL 1692  27.060  21.675   7.991
 1714THSLK    S 1693  26.715  21.632   7.992
 1715ETHY    C1 1694  26.588  21.223   8.152
 1716ETHY    C1 1695  26.514  20.742   8.391
 1717ETHY    C1 1696  26.533  20.290   8.684
 1718ETHY    C1 1697  26.635  19.872   9.021
 1719THSLK    S 1698  27.293  21.769   7.907
 1720ETHY    C1 1699  27.444  21.367   8.062
 1721ETHY    C1 1700  27.699  20.936   8.272
 1722ETHY    C1 1701  28.031  20.580   8.505
 1723ETHY    C1 1702  28.427  20.301   8.758
 1724AUSL   AUS 1703  26.605  21.796   7.663
 1725AUSL   AUS 1704  26.492  22.053   8.011
 1726AUL    AUL 1705  26.453  21.675   7.991
 1727THSLK    S 1706  26.554  21.551   7.744
 1728ETHY    C1 1707  26.341  21.152   7.812
 1729ETHY    C1 1708  26.170  20.649   7.925
 1730ETHY    C1 1709  26.104  20.135   8.072
 1731ETHY    C1 1710  26.133  19.620   8.252
 1732THSLK    S 1711  26.314  21.883   8.136
 1733ETHY    C1 1712  26.042  21.568   8.327
 1734ETHY    C1 1713  25.764  21.217   8.633
 1735ETHY    C1 1714  25.548  20.909   9.019
 1736ETHY    C1 1715  25.392  20.647   9.473
 1737AUSL   AUS 1716  26.908  21.796   7.663
 1738AUSL   AUS 1717  26.605  21.796   7.336
 1739AUL    AUL 1718  26.756  21.488   7.500
 1740THSLK    S 1719  26.555  21.549   7.261
 1741ETHY    C1 1720  26.342  21.151   7.192
 1742ETHY    C1 1721  26.170  20.649   7.076
 1743ETHY    C1 1722  26.104  20.135   6.927
 1744ETHY    C1 1723  26.135  19.618   6.754
 1745THSLK    S 1724  26.869  21.537   7.748
 1746ETHY    C1 1725  26.797  21.092   7.829
 1747ETHY    C1 1726  26.800  20.563   7.948
 1748ETHY    C1 1727  26.909  20.055   8.095
 1749ETHY    C1 1728  27.111  19.577   8.264
 1750AUSL   AUS 1729  26.756  23.050   7.091
 1751AUSL   AUS 1730  27.173  22.980   7.236
 1752AUL    AUL 1731  27.060  23.264   7.009
 1753THSLK    S 1732  26.798  23.284   6.971
 1754ETHY    C1 1733  26.925  23.609   6.676
 1755ETHY    C1 1734  26.999  24.039   6.353
 1756ETHY    C1 1735  26.980  24.504   6.080
 1757ETHY    C1 1736  26.877  24.992   5.857
 1758THSLK    S 1737  27.360  23.105   7.081
 1759ETHY    C1 1738  27.717  23.297   6.869
 1760ETHY    C1 1739  28.092  23.603   6.623
 1761ETHY    C1 1740  28.393  23.990   6.398
 1762ETHY    C1 1741  28.623  24.442   6.197
 1763AUSL   AUS 1742  26.605  23.143   7.336
 1764AUSL   AUS 1743  26.492  22.886   6.990
 1765AUL    AUL 1744  26.453  23.264   7.009
 1766THSLK    S 1745  26.644  23.397   7.233
 1767ETHY    C1 1746  26.716  23.820   7.074
 1768ETHY    C1 1747  26.713  24.336   6.906
 1769ETHY    C1 1748  26.604  24.846   6.770
 1770ETHY    C1 1749  26.402  25.344   6.670
 1771THSLK    S 1750  26.373  23.023   6.800
 1772ETHY    C1 1751  26.277  23.217   6.396
 1773ETHY    C1 1752  26.100  23.495   5.966
 1774ETHY    C1 1753  25.857  23.820   5.611
 1775ETHY    C1 1754  25.561  24.185   5.330
 1776AUSL   AUS 1755  26.756  21.889   7.091
 1777AUSL   AUS 1756  26.340  21.959   7.236
 1778AUL    AUL 1757  26.453  21.675   7.009
 1779THSLK    S 1758  26.155  21.806   7.122
 1780ETHY    C1 1759  25.798  21.532   7.044
 1781ETHY    C1 1760  25.421  21.178   6.878
 1782ETHY    C1 1761  25.119  20.804   6.633
 1783ETHY    C1 1762  24.892  20.417   6.321
 1784THSLK    S 1763  26.718  21.629   7.013
 1785ETHY    C1 1764  26.590  21.221   6.852
 1786ETHY    C1 1765  26.514  20.742   6.609
 1787ETHY    C1 1766  26.533  20.290   6.315
 1788ETHY    C1 1767  26.639  19.869   5.983
 1789AUSL   AUS 1768  26.908  21.796   7.336
 1790AUSL   AUS 1769  27.021  22.053   6.990
 1791AUL    AUL 1770  27.060  21.675   7.009
 1792THSLK    S 1771  26.871  21.536   7.258
 1793ETHY    C1 1772  26.798  21.091   7.175
 1794ETHY    C1 1773  26.800  20.563   7.052
 1795ETHY    C1 1774  26.908  20.055   6.905
 1796ETHY    C1 1775  27.113  19.576   6.742
 1797THSLK    S 1776  27.144  21.863   6.847
 1798ETHY    C1 1777  27.239  21.495   6.592
 1799ETHY    C1 1778  27.413  21.114   6.247
 1800ETHY    C1 1779  27.655  20.814   5.870
 1801ETHY    C1 1780  27.956  20.593   5.471
 1802AUC    AUC 1781  21.132  29.812   7.500
 1803AUC    AUC 1782  21.378  29.812   7.348
 1804AUC    AUC 1783  21.378  29.812   7.651
 1805AUC    AUC 1784  20.887  29.812   7.348
 1806AUC    AUC 1785  20.887  29.812   7.651
 1807AUC    AUC 1786  20.981  30.057   7.500
 1808AUC    AUC 1787  21.284  30.057   7.500
 1809AUC    AUC 1788  20.981  29.566   7.500
 1810AUC    AUC 1789  21.284  29.566   7.500
 1811AUC    AUC 1790  21.132  29.660   7.745
 1812AUC    AUC 1791  21.132  29.963   7.745
 1813AUC    AUC 1792  21.132  29.660   7.254
 1814AUC    AUC 1793  21.132  29.963   7.254
 1815AUC    AUC 1794  21.623  29.812   7.196
 1816AUC    AUC 1795  21.623  29.812   7.500
 1817AUC    AUC 1796  21.623  29.812   7.803
 1818AUC    AUC 1797  20.641  29.812   7.196
 1819AUC    AUC 1798  20.641  29.812   7.500
 1820AUC    AUC 1799  20.641  29.812   7.803
 1821AUC    AUC 1800  20.829  30.302   7.500
 1822AUC    AUC 1801  21.132  30.302   7.500
 1823AUC    AUC 1802  21.436  30.302   7.500
 1824AUC    AUC 1803  20.829  29.321   7.500
 1825AUC    AUC 1804  21.132  29.321   7.500
 1826AUC    AUC 1805  21.436  29.321   7.500
 1827AUC    AUC 1806  21.132  29.508   7.991
 1828AUC    AUC 1807  21.132  29.812   7.991
 1829AUC    AUC 1808  21.132  30.115   7.991
 1830AUC    AUC 1809  21.132  29.508   7.009
 1831AUC    AUC 1810  21.132  29.812   7.009
 1832AUC    AUC 1811  21.132  30.115   7.009
 1833AUC    AUC 1812  21.378  29.660   7.897
 1834AUC    AUC 1813  21.378  29.963   7.897
 1835AUC    AUC 1814  21.378  29.660   7.103
 1836AUC    AUC 1815  21.378  29.963   7.103
 1837AUC    AUC 1816  20.887  29.660   7.897
 1838AUC    AUC 1817  20.887  29.963   7.897
 1839AUC    AUC 1818  20.887  29.660   7.103
 1840AUC    AUC 1819  20.887  29.963   7.103
 1841AUC    AUC 1820  21.529  30.057   7.348
 1842AUC    AUC 1821  21.529  30.057   7.651
 1843AUC    AUC 1822  20.735  30.057   7.348
 1844AUC    AUC 1823  20.735  30.057   7.651
 1845AUC    AUC 1824  21.529  29.566   7.348
 1846AUC    AUC 1825  21.529  29.566   7.651
 1847AUC    AUC 1826  20.735  29.566   7.348
 1848AUC    AUC 1827  20.735  29.566   7.651
 1849AUC    AUC 1828  20.981  30.209   7.745
 1850AUC    AUC 1829  21.284  30.209   7.745
 1851AUC    AUC 1830  20.981  29.414   7.745
 1852AUC    AUC 1831  21.284  29.414   7.745
 1853AUC    AUC 1832  20.981  30.209   7.254
 1854AUC    AUC 1833  21.284  30.209   7.254
 1855AUC    AUC 1834  20.981  29.414   7.254
 1856AUC    AUC 1835  21.284  29.414   7.254
 1857AUSL   AUS 1836  21.541  29.812   8.080
 1858AUSL   AUS 1837  21.397  29.395   8.011
 1859AUL    AUL 1838  21.623  29.508   8.294
 1860THSLK    S 1839  21.515  29.207   8.156
 1861ETHY    C1 1840  21.611  28.839   8.412
 1862ETHY    C1 1841  21.789  28.456   8.753
 1863ETHY    C1 1842  22.031  28.156   9.130
 1864ETHY    C1 1843  22.327  27.937   9.534
 1865THSLK    S 1844  21.640  29.765   8.327
 1866ETHY    C1 1845  21.867  29.615   8.694
 1867ETHY    C1 1846  22.151  29.527   9.148
 1868ETHY    C1 1847  22.435  29.549   9.607
 1869ETHY    C1 1848  22.712  29.671  10.061
 1870AUSL   AUS 1849  21.296  29.660   8.173
 1871AUSL   AUS 1850  20.969  29.963   8.173
 1872AUL    AUL 1851  21.132  29.812   8.482
 1873THSLK    S 1852  21.377  29.609   8.418
 1874ETHY    C1 1853  21.467  29.391   8.810
 1875ETHY    C1 1854  21.595  29.217   9.308
 1876ETHY    C1 1855  21.741  29.152   9.823
 1877ETHY    C1 1856  21.898  29.186  10.346
 1878THSLK    S 1857  20.882  29.923   8.432
 1879ETHY    C1 1858  20.793  29.849   8.874
 1880ETHY    C1 1859  20.669  29.851   9.403
 1881ETHY    C1 1860  20.524  29.960   9.912
 1882ETHY    C1 1861  20.361  30.164  10.392
 1883AUSL   AUS 1862  21.296  29.963   8.173
 1884AUSL   AUS 1863  21.642  30.076   7.916
 1885AUL    AUL 1864  21.623  30.115   8.294
 1886THSLK    S 1865  21.383  30.015   8.416
 1887ETHY    C1 1866  21.471  30.232   8.809
 1888ETHY    C1 1867  21.596  30.405   9.308
 1889ETHY    C1 1868  21.741  30.471   9.823
 1890ETHY    C1 1869  21.904  30.438  10.345
 1891THSLK    S 1870  21.818  30.182   8.079
 1892ETHY    C1 1871  22.180  30.232   8.355
 1893ETHY    C1 1872  22.587  30.381   8.681
 1894ETHY    C1 1873  22.949  30.630   8.995
 1895ETHY    C1 1874  23.261  30.966   9.293
 1896AUSL   AUS 1875  21.541  29.812   6.920
 1897AUSL   AUS 1876  21.397  30.228   6.990
 1898AUL    AUL 1877  21.623  30.115   6.706
 1899THSLK    S 1878  21.645  29.765   6.676
 1900ETHY    C1 1879  21.872  29.615   6.308
 1901ETHY    C1 1880  22.151  29.527   5.851
 1902ETHY    C1 1881  22.435  29.549   5.393
 1903ETHY    C1 1882  22.717  29.671   4.941
 1904THSLK    S 1883  21.574  30.347   6.820
 1905ETHY    C1 1884  21.846  30.488   6.480
 1906ETHY    C1 1885  22.124  30.735   6.085
 1907ETHY    C1 1886  22.340  31.068   5.720
 1908ETHY    C1 1887  22.497  31.475   5.391
 1909AUSL   AUS 1888  21.296  29.660   6.826
 1910AUSL   AUS 1889  21.642  29.547   7.083
 1911AUL    AUL 1890  21.623  29.508   6.706
 1912THSLK    S 1891  21.782  29.356   6.939
 1913ETHY    C1 1892  22.015  29.039   6.707
 1914ETHY    C1 1893  22.345  28.732   6.403
 1915ETHY    C1 1894  22.725  28.523   6.083
 1916ETHY    C1 1895  23.146  28.406   5.754
 1917THSLK    S 1896  21.383  29.608   6.583
 1918ETHY    C1 1897  21.471  29.391   6.191
 1919ETHY    C1 1898  21.596  29.218   5.692
 1920ETHY    C1 1899  21.741  29.152   5.176
 1921ETHY    C1 1900  21.904  29.185   4.656
 1922AUSL   AUS 1901  21.296  29.963   6.826
 1923AUSL   AUS 1902  20.969  29.660   6.826
 1924AUL    AUL 1903  21.132  29.812   6.518
 1925THSLK    S 1904  20.873  29.608   6.586
 1926ETHY    C1 1905  20.734  29.393   6.206
 1927ETHY    C1 1906  20.577  29.222   5.717
 1928ETHY    C1 1907  20.438  29.156   5.199
 1929ETHY    C1 1908  20.322  29.187   4.666
 1930THSLK    S 1909  21.398  29.924   6.572
 1931ETHY    C1 1910  21.535  29.847   6.142
 1932ETHY    C1 1911  21.688  29.847   5.622
 1933ETHY    C1 1912  21.826  29.956   5.112
 1934ETHY    C1 1913  21.949  30.163   4.621
 1935AUSL   AUS 1914  20.723  29.812   8.080
 1936AUSL   AUS 1915  20.868  30.228   8.011
 1937AUL    AUL 1916  20.641  30.115   8.294
 1938THSLK    S 1917  20.619  29.765   8.325
 1939ETHY    C1 1918  20.393  29.615   8.691
 1940ETHY    C1 1919  20.113  29.527   9.148
 1941ETHY    C1 1920  19.830  29.549   9.607
 1942ETHY    C1 1921  19.547  29.671  10.058
 1943THSLK    S 1922  20.745  30.361   8.201
 1944ETHY    C1 1923  20.649  30.556   8.604
 1945ETHY    C1 1924  20.476  30.837   9.034
 1946ETHY    C1 1925  20.233  31.163   9.390
 1947ETHY    C1 1926  19.932  31.522   9.671
 1948AUSL   AUS 1927  20.969  29.660   8.173
 1949AUSL   AUS 1928  20.622  29.547   7.916
 1950AUL    AUL 1929  20.641  29.508   8.294
 1951THSLK    S 1930  20.443  29.381   8.032
 1952ETHY    C1 1931  20.082  29.134   8.166
 1953ETHY    C1 1932  19.677  28.868   8.410
 1954ETHY    C1 1933  19.316  28.648   8.745
 1955ETHY    C1 1934  19.000  28.475   9.156
 1956THSLK    S 1935  20.867  29.610   8.413
 1957ETHY    C1 1936  20.729  29.395   8.793
 1958ETHY    C1 1937  20.576  29.222   9.284
 1959ETHY    C1 1938  20.439  29.156   9.800
 1960ETHY    C1 1939  20.315  29.188  10.332
 1961AUSL   AUS 1940  20.723  29.812   6.920
 1962AUSL   AUS 1941  20.868  29.395   6.990
 1963AUL    AUL 1942  20.641  29.508   6.706
 1964THSLK    S 1943  20.624  29.765   6.673
 1965ETHY    C1 1944  20.397  29.615   6.305
 1966ETHY    C1 1945  20.114  29.527   5.851
 1967ETHY    C1 1946  19.830  29.549   5.393
 1968ETHY    C1 1947  19.553  29.671   4.938
 1969THSLK    S 1948  20.694  29.220   6.865
 1970ETHY    C1 1949  20.422  28.907   6.673
 1971ETHY    C1 1950  20.141  28.559   6.367
 1972ETHY    C1 1951  19.924  28.251   5.980
 1973ETHY    C1 1952  19.772  27.984   5.528
 1974AUSL   AUS 1953  20.969  29.963   6.826
 1975AUSL   AUS 1954  20.622  30.076   7.083
 1976AUL    AUL 1955  20.641  30.115   6.706
 1977THSLK    S 1956  20.486  30.207   6.893
 1978ETHY    C1 1957  20.252  30.328   6.518
 1979ETHY    C1 1958  19.920  30.516   6.132
 1980ETHY    C1 1959  19.540  30.755   5.833
 1981ETHY    C1 1960  19.123  31.035   5.618
 1982THSLK    S 1961  20.888  29.925   6.566
 1983ETHY    C1 1962  20.798  29.850   6.124
 1984ETHY    C1 1963  20.670  29.851   5.597
 1985ETHY    C1 1964  20.524  29.960   5.089
 1986ETHY    C1 1965  20.367  30.166   4.608
 1987AUSL   AUS 1966  21.712  30.221   7.500
 1988AUSL   AUS 1967  21.642  30.076   7.083
 1989AUL    AUL 1968  21.926  30.302   7.196
 1990THSLK    S 1969  21.822  30.183   6.925
 1991ETHY    C1 1970  22.183  30.233   6.648
 1992ETHY    C1 1971  22.587  30.381   6.319
 1993ETHY    C1 1972  22.949  30.630   6.005
 1994ETHY    C1 1973  23.265  30.967   5.713
 1995THSLK    S 1974  21.982  30.282   7.503
 1996ETHY    C1 1975  22.429  30.382   7.502
 1997ETHY    C1 1976  22.931  30.588   7.500
 1998ETHY    C1 1977  23.378  30.890   7.500
 1999ETHY    C1 1978  23.766  31.274   7.503
 2000AUSL   AUS 1979  21.806  29.975   7.348
 2001AUSL   AUS 1980  21.806  29.648   7.651
 2002AUL    AUL 1981  22.114  29.812   7.500
 2003THSLK    S 1982  22.068  30.022   7.345
 2004ETHY    C1 1983  22.518  29.991   7.270
 2005ETHY    C1 1984  23.050  30.046   7.179
 2006ETHY    C1 1985  23.557  30.209   7.091
 2007ETHY    C1 1986  24.032  30.467   7.011
 2008THSLK    S 1987  22.043  29.511   7.659
 2009ETHY    C1 1988  22.414  29.253   7.726
 2010ETHY    C1 1989  22.900  29.027   7.808
 2011ETHY    C1 1990  23.419  28.907   7.896
 2012ETHY    C1 1991  23.957  28.885   7.989
 2013AUSL   AUS 1992  21.806  29.975   7.651
 2014AUSL   AUS 1993  21.549  30.322   7.764
 2015AUL    AUL 1994  21.926  30.302   7.803
 2016THSLK    S 1995  21.734  30.446   7.924
 2017ETHY    C1 1996  22.091  30.638   8.136
 2018ETHY    C1 1997  22.468  30.945   8.377
 2019ETHY    C1 1998  22.769  31.332   8.602
 2020ETHY    C1 1999  22.996  31.783   8.809
 2021THSLK    S 2000  22.067  30.021   7.661
 2022ETHY    C1 2001  22.518  29.991   7.734
 2023ETHY    C1 2002  23.051  30.046   7.821
 2024ETHY    C1 2003  23.557  30.209   7.908
 2025ETHY    C1 2004  24.031  30.467   7.995
 2026AUSL   AUS 2005  20.552  30.221   7.500
 2027AUSL   AUS 2006  20.622  30.076   7.916
 2028AUL    AUL 2007  20.338  30.302   7.803
 2029THSLK    S 2008  20.482  30.202   8.107
 2030ETHY    C1 2009  20.249  30.323   8.482
 2031ETHY    C1 2010  19.920  30.516   8.868
 2032ETHY    C1 2011  19.540  30.755   9.166
 2033ETHY    C1 2012  19.119  31.030   9.381
 2034THSLK    S 2013  20.331  30.361   7.503
 2035ETHY    C1 2014  20.042  30.716   7.502
 2036ETHY    C1 2015  19.634  31.073   7.500
 2037ETHY    C1 2016  19.164  31.337   7.500
 2038ETHY    C1 2017  18.646  31.513   7.503
 2039AUSL   AUS 2018  20.459  29.975   7.348
 2040AUSL   AUS 2019  20.716  30.322   7.236
 2041AUL    AUL 2020  20.338  30.302   7.196
 2042THSLK    S 2021  20.222  30.089   7.303
 2043ETHY    C1 2022  19.850  30.263   7.101
 2044ETHY    C1 2023  19.364  30.439   6.936
 2045ETHY    C1 2024  18.846  30.571   6.868
 2046ETHY    C1 2025  18.308  30.663   6.890
 2047THSLK    S 2026  20.596  30.489   7.056
 2048ETHY    C1 2027  20.444  30.808   6.765
 2049ETHY    C1 2028  20.190  31.188   6.473
 2050ETHY    C1 2029  19.857  31.556   6.260
 2051ETHY    C1 2030  19.461  31.906   6.122
 2052AUSL   AUS 2031  20.459  29.975   7.651
 2053AUSL   AUS 2032  20.459  29.648   7.348
 2054AUL    AUL 2033  20.151  29.812   7.500
 2055THSLK    S 2034  20.197  29.573   7.384
 2056ETHY    C1 2035  19.747  29.522   7.446
 2057ETHY    C1 2036  19.214  29.419   7.434
 2058ETHY    C1 2037  18.707  29.269   7.327
 2059ETHY    C1 2038  18.234  29.076   7.135
 2060THSLK    S 2039  20.221  30.083   7.699
 2061ETHY    C1 2040  19.850  30.259   7.901
 2062ETHY    C1 2041  19.364  30.438   8.063
 2063ETHY    C1 2042  18.846  30.571   8.133
 2064ETHY    C1 2043  18.307  30.657   8.114
 2065AUSL   AUS 2044  21.712  29.402   7.500
 2066AUSL   AUS 2045  21.642  29.547   7.916
 2067AUL    AUL 2046  21.926  29.321   7.803
 2068THSLK    S 2047  21.933  29.262   7.503
 2069ETHY    C1 2048  22.222  28.907   7.502
 2070ETHY    C1 2049  22.631  28.550   7.500
 2071ETHY    C1 2050  23.101  28.286   7.500
 2072ETHY    C1 2051  23.618  28.110   7.503
 2073THSLK    S 2052  21.779  29.357   8.066
 2074ETHY    C1 2053  22.012  29.040   8.297
 2075ETHY    C1 2054  22.345  28.733   8.598
 2076ETHY    C1 2055  22.725  28.523   8.918
 2077ETHY    C1 2056  23.142  28.407   9.250
 2078AUSL   AUS 2057  21.806  29.648   7.348
 2079AUSL   AUS 2058  21.549  29.301   7.236
 2080AUL    AUL 2059  21.926  29.321   7.196
 2081THSLK    S 2060  22.044  29.511   7.346
 2082ETHY    C1 2061  22.415  29.253   7.279
 2083ETHY    C1 2062  22.900  29.027   7.192
 2084ETHY    C1 2063  23.419  28.907   7.103
 2085ETHY    C1 2064  23.958  28.885   7.018
 2086THSLK    S 2065  21.672  29.110   7.099
 2087ETHY    C1 2066  21.822  28.708   6.942
 2088ETHY    C1 2067  22.075  28.278   6.728
 2089ETHY    C1 2068  22.407  27.922   6.495
 2090ETHY    C1 2069  22.806  27.641   6.249
 2091AUSL   AUS 2070  20.552  29.402   7.500
 2092AUSL   AUS 2071  20.622  29.547   7.083
 2093AUL    AUL 2072  20.338  29.321   7.196
 2094THSLK    S 2073  20.447  29.376   6.966
 2095ETHY    C1 2074  20.085  29.130   6.833
 2096ETHY    C1 2075  19.677  28.867   6.589
 2097ETHY    C1 2076  19.316  28.648   6.255
 2098ETHY    C1 2077  19.004  28.470   5.843
 2099THSLK    S 2078  20.282  29.341   7.503
 2100ETHY    C1 2079  19.836  29.241   7.502
 2101ETHY    C1 2080  19.334  29.035   7.500
 2102ETHY    C1 2081  18.887  28.733   7.500
 2103ETHY    C1 2082  18.499  28.349   7.503
 2104AUSL   AUS 2083  20.459  29.648   7.651
 2105AUSL   AUS 2084  20.716  29.301   7.764
 2106AUL    AUL 2085  20.338  29.321   7.803
 2107THSLK    S 2086  20.528  29.153   7.881
 2108ETHY    C1 2087  20.172  28.877   7.958
 2109ETHY    C1 2088  19.797  28.520   8.122
 2110ETHY    C1 2089  19.496  28.146   8.367
 2111ETHY    C1 2090  19.265  27.764   8.682
 2112THSLK    S 2091  20.196  29.578   7.618
 2113ETHY    C1 2092  19.746  29.526   7.557
 2114ETHY    C1 2093  19.214  29.420   7.566
 2115ETHY    C1 2094  18.707  29.269   7.673
 2116ETHY    C1 2095  18.233  29.081   7.867
 2117AUSL   AUS 2096  21.132  30.392   7.909
 2118AUSL   AUS 2097  20.716  30.322   7.764
 2119AUL    AUL 2098  20.829  30.606   7.991
 2120THSLK    S 2099  20.593  30.484   7.948
 2121ETHY    C1 2100  20.442  30.804   8.237
 2122ETHY    C1 2101  20.189  31.187   8.527
 2123ETHY    C1 2102  19.857  31.555   8.740
 2124ETHY    C1 2103  19.458  31.901   8.881
 2125THSLK    S 2104  21.170  30.623   8.034
 2126ETHY    C1 2105  21.298  30.949   8.327
 2127ETHY    C1 2106  21.375  31.381   8.646
 2128ETHY    C1 2107  21.356  31.846   8.920
 2129ETHY    C1 2108  21.250  32.331   9.147
 2130AUSL   AUS 2109  20.981  30.485   7.663
 2131AUSL   AUS 2110  21.284  30.485   7.336
 2132AUL    AUL 2111  21.132  30.793   7.500
 2133THSLK    S 2112  21.018  30.737   7.772
 2134ETHY    C1 2113  21.091  31.161   7.929
 2135ETHY    C1 2114  21.088  31.677   8.095
 2136ETHY    C1 2115  20.980  32.188   8.229
 2137ETHY    C1 2116  20.776  32.684   8.336
 2138THSLK    S 2117  21.335  30.725   7.237
 2139ETHY    C1 2118  21.548  31.102   7.091
 2140ETHY    C1 2119  21.718  31.591   6.929
 2141ETHY    C1 2120  21.785  32.109   6.792
 2142ETHY    C1 2121  21.756  32.643   6.682
 2143AUSL   AUS 2122  21.284  30.485   7.663
 2144AUSL   AUS 2123  21.397  30.228   8.011
 2145AUL    AUL 2124  21.436  30.606   7.991
 2146THSLK    S 2125  21.570  30.345   8.184
 2147ETHY    C1 2126  21.843  30.486   8.522
 2148ETHY    C1 2127  22.124  30.735   8.915
 2149ETHY    C1 2128  22.340  31.068   9.279
 2150ETHY    C1 2129  22.492  31.473   9.614
 2151THSLK    S 2130  21.334  30.723   7.768
 2152ETHY    C1 2131  21.547  31.102   7.913
 2153ETHY    C1 2132  21.718  31.591   8.072
 2154ETHY    C1 2133  21.785  32.109   8.207
 2155ETHY    C1 2134  21.754  32.642   8.325
 2156AUSL   AUS 2135  21.132  29.231   7.909
 2157AUSL   AUS 2136  21.549  29.301   7.764
 2158AUL    AUL 2137  21.436  29.017   7.991
 2159THSLK    S 2138  21.091  28.974   7.992
 2160ETHY    C1 2139  20.964  28.565   8.152
 2161ETHY    C1 2140  20.890  28.084   8.391
 2162ETHY    C1 2141  20.909  27.632   8.684
 2163ETHY    C1 2142  21.011  27.214   9.021
 2164THSLK    S 2143  21.669  29.111   7.907
 2165ETHY    C1 2144  21.820  28.709   8.062
 2166ETHY    C1 2145  22.075  28.278   8.272
 2167ETHY    C1 2146  22.407  27.922   8.505
 2168ETHY    C1 2147  22.803  27.643   8.758
 2169AUSL   AUS 2148  20.981  29.138   7.663
 2170AUSL   AUS 2149  20.868  29.395   8.011
 2171AUL    AUL 2150  20.829  29.017   7.991
 2172THSLK    S 2151  20.930  28.893   7.744
 2173ETHY    C1 2152  20.717  28.494   7.812
 2174ETHY    C1 2153  20.546  27.991   7.925
 2175ETHY    C1 2154  20.480  27.477   8.072
 2176ETHY    C1 2155  20.509  26.962   8.252
 2177THSLK    S 2156  20.690  29.225   8.136
 2178ETHY    C1 2157  20.418  28.910   8.327
 2179ETHY    C1 2158  20.140  28.559   8.633
 2180ETHY    C1 2159  19.924  28.251   9.019
 2181ETHY    C1 2160  19.768  27.989   9.473
 2182AUSL   AUS 2161  21.284  29.138   7.663
 2183AUSL   AUS 2162  20.981  29.138   7.336
 2184AUL    AUL 2163  21.132  28.830   7.500
 2185THSLK    S 2164  20.931  28.891   7.261
 2186ETHY    C1 2165  20.718  28.493   7.192
 2187ETHY    C1 2166  20.546  27.991   7.076
 2188ETHY    C1 2167  20.480  27.477   6.927
 2189ETHY    C1 2168  20.511  26.960   6.754
 2190THSLK    S 2169  21.245  28.879   7.748
 2191ETHY    C1 2170  21.173  28.434   7.829
 2192ETHY    C1 2171  21.176  27.905   7.948
 2193ETHY    C1 2172  21.285  27.397   8.095
 2194ETHY    C1 2173  21.487  26.919   8.264
 2195AUSL   AUS 2174  21.132  30.392   7.091
 2196AUSL   AUS 2175  21.549  30.322   7.236
 2197AUL    AUL 2176  21.436  30.606   7.009
 2198THSLK    S 2177  21.174  30.626   6.971
 2199ETHY    C1 2178  21.301  30.951   6.676
 2200ETHY    C1 2179  21.375  31.381   6.353
 2201ETHY    C1 2180  21.356  31.846   6.080
 2202ETHY    C1 2181  21.253  32.334   5.857
 2203THSLK    S 2182  21.736  30.447   7.081
 2204ETHY    C1 2183  22.093  30.639   6.869
 2205ETHY    C1 2184  22.468  30.945   6.623
 2206ETHY    C1 2185  22.769  31.332   6.398
 2207ETHY    C1 2186  22.999  31.784   6.197
 2208AUSL   AUS 2187  20.981  30.485   7.336
 2209AUSL   AUS 2188  20.868  30.228   6.990
 2210AUL    AUL 2189  20.829  30.606   7.009
 2211THSLK    S 2190  21.020  30.739   7.233
 2212ETHY    C1 2191  21.092  31.162   7.074
 2213ETHY    C1 2192  21.089  31.678   6.906
 2214ETHY    C1 2193  20.980  32.188   6.770
 2215ETHY    C1 2194  20.778  32.686   6.670
 2216THSLK    S 2195  20.749  30.365   6.800
 2217ETHY    C1 2196  20.653  30.559   6.396
 2218ETHY    C1 2197  20.476  30.837   5.966
 2219ETHY    C1 2198  20.233  31.162   5.611
 2220ETHY    C1 2199  19.937  31.527   5.330
 2221AUSL   AUS 2200  21.132  29.231   7.091
 2222AUSL   AUS 2201  20.716  29.301   7.236
 2223AUL    AUL 2202  20.829  29.017   7.009
 2224THSLK    S 2203  20.531  29.148   7.122
 2225ETHY    C1 2204  20.174  28.874   7.044
 2226ETHY    C1 2205  19.797  28.520   6.878
 2227ETHY    C1 2206  19.495  28.146   6.633
 2228ETHY    C1 2207  19.268  27.759   6.321
 2229THSLK    S 2208  21.094  28.971   7.013
 2230ETHY    C1 2209  20.966  28.563   6.852
 2231ETHY    C1 2210  20.890  28.084   6.609
 2232ETHY    C1 2211  20.909  27.632   6.315
 2233ETHY    C1 2212  21.015  27.211   5.983
 2234AUSL   AUS 2213  21.284  29.138   7.336
 2235AUSL   AUS 2214  21.397  29.395   6.990
 2236AUL    AUL 2215  21.436  29.017   7.009
 2237THSLK    S 2216  21.247  28.878   7.258
 2238ETHY    C1 2217  21.174  28.433   7.175
 2239ETHY    C1 2218  21.176  27.905   7.052
 2240ETHY    C1 2219  21.284  27.397   6.905
 2241ETHY    C1 2220  21.489  26.918   6.742
 2242THSLK    S 2221  21.520  29.205   6.847
 2243ETHY    C1 2222  21.615  28.837   6.592
 2244ETHY    C1 2223  21.789  28.456   6.247
 2245ETHY    C1 2224  22.031  28.156   5.870
 2246ETHY    C1 2225  22.332  27.935   5.471
 2247AUC    AUC 2226  24.820  10.975   7.500
 2248AUC    AUC 2227  25.066  10.975   7.348
 2249AUC    AUC 2228  25.066  10.975   7.651
 2250AUC    AUC 2229  24.575  10.975   7.348
 2251AUC    AUC 2230  24.575  10.975   7.651
 2252AUC    AUC 2231  24.669  11.220   7.500
 2253AUC    AUC 2232  24.972  11.220   7.500
 2254AUC    AUC 2233  24.669  10.729   7.500
 2255AUC    AUC 2234  24.972  10.729   7.500
 2256AUC    AUC 2235  24.820  10.823   7.745
 2257AUC    AUC 2236  24.820  11.126   7.745
 2258AUC    AUC 2237  24.820  10.823   7.254
 2259AUC    AUC 2238  24.820  11.126   7.254
 2260AUC    AUC 2239  25.311  10.975   7.196
 2261AUC    AUC 2240  25.311  10.975   7.500
 2262AUC    AUC 2241  25.311  10.975   7.803
 2263AUC    AUC 2242  24.329  10.975   7.196
 2264AUC    AUC 2243  24.329  10.975   7.500
 2265AUC    AUC 2244  24.329  10.975   7.803
 2266AUC    AUC 2245  24.517  11.465   7.500
 2267AUC    AUC 2246  24.820  11.465   7.500
 2268AUC    AUC 2247  25.124  11.465   7.500
 2269AUC    AUC 2248  24.517  10.484   7.500
 2270AUC    AUC 2249  24.820  10.484   7.500
 2271AUC    AUC 2250  25.124  10.484   7.500
 2272AUC    AUC 2251  24.820  10.671   7.991
 2273AUC    AUC 2252  24.820  10.975   7.991
 2274AUC    AUC 2253  24.820  11.278   7.991
 2275AUC    AUC 2254  24.820  10.671   7.009
 2276AUC    AUC 2255  24.820  10.975   7.009
 2277AUC    AUC 2256  24.820  11.278   7.009
 2278AUC    AUC 2257  25.066  10.823   7.897
 2279AUC    AUC 2258  25.066  11.126   7.897
 2280AUC    AUC 2259  25.066  10.823   7.103
 2281AUC    AUC 2260  25.066  11.126   7.103
 2282AUC    AUC 2261  24.575  10.823   7.897
 2283AUC    AUC 2262  24.575  11.126   7.897
 2284AUC    AUC 2263  24.575  10.823   7.103
 2285AUC    AUC 2264  24.575  11.126   7.103
 2286AUC    AUC 2265  25.217  11.220   7.348
 2287AUC    AUC 2266  25.217  11.220   7.651
 2288AUC    AUC 2267  24.423  11.220   7.348
 2289AUC    AUC 2268  24.423  11.220   7.651
 2290AUC    AUC 2269  25.217  10.729   7.348
 2291AUC    AUC 2270  25.217  10.729   7.651
 2292AUC    AUC 2271  24.423  10.729   7.348
 2293AUC    AUC 2272  24.423  10.729   7.651
 2294AUC    AUC 2273  24.669  11.372   7.745
 2295AUC    AUC 2274  24.972  11.372   7.745
 2296AUC    AUC 2275  24.669  10.577   7.745
 2297AUC    AUC 2276  24.972  10.577   7.745
 2298AUC    AUC 2277  24.669  11.372   7.254
 2299AUC    AUC 2278  24.972  11.372   7.254
 2300AUC    AUC 2279  24.669  10.577   7.254
 2301AUC    AUC 2280  24.972  10.577   7.254
 2302AUSL   AUS 2281  25.229  10.975   8.080
 2303AUSL   AUS 2282  25.085  10.558   8.011
 2304AUL    AUL 2283  25.311  10.671   8.294
 2305THSLK    S 2284  25.203  10.370   8.156
 2306ETHY    C1 2285  25.299  10.002   8.412
 2307ETHY    C1 2286  25.477   9.619   8.753
 2308ETHY    C1 2287  25.719   9.319   9.130
 2309ETHY    C1 2288  26.015   9.100   9.534
 2310THSLK    S 2289  25.328  10.928   8.327
 2311ETHY    C1 2290  25.555  10.778   8.694
 2312ETHY    C1 2291  25.839  10.690   9.148
 2313ETHY    C1 2292  26.123  10.712   9.607
 2314ETHY    C1 2293  26.400  10.834  10.061
 2315AUSL   AUS 2294  24.984  10.823   8.173
 2316AUSL   AUS 2295  24.657  11.126   8.173
 2317AUL    AUL 2296  24.820  10.975   8.482
 2318THSLK    S 2297  25.065  10.772   8.418
 2319ETHY    C1 2298  25.155  10.554   8.810
 2320ETHY    C1 2299  25.283  10.380   9.308
 2321ETHY    C1 2300  25.429  10.315   9.823
 2322ETHY    C1 2301  25.586  10.349  10.346
 2323THSLK    S 2302  24.570  11.086   8.432
 2324ETHY    C1 2303  24.481  11.012   8.874
 2325ETHY    C1 2304  24.357  11.014   9.403
 2326ETHY    C1 2305  24.212  11.123   9.912
 2327ETHY    C1 2306  24.049  11.327  10.392
 2328AUSL   AUS 2307  24.984  11.126   8.173
 2329AUSL   AUS 2308  25.330  11.239   7.916
 2330AUL    AUL 2309  25.311  11.278   8.294
 2331THSLK    S 2310  25.071  11.178   8.416
 2332ETHY    C1 2311  25.159  11.395   8.809
 2333ETHY    C1 2312  25.284  11.568   9.308
 2334ETHY    C1 2313  25.429  11.634   9.823
 2335ETHY    C1 2314  25.592  11.601  10.345
 2336THSLK    S 2315  25.506  11.345   8.079
 2337ETHY    C1 2316  25.868  11.395   8.355
 2338ETHY    C1 2317  26.275  11.544   8.681
 2339ETHY    C1 2318  26.637  11.793   8.995
 2340ETHY    C1 2319  26.949  12.129   9.293
 2341AUSL   AUS 2320  25.229  10.975   6.920
 2342AUSL   AUS 2321  25.085  11.391   6.990
 2343AUL    AUL 2322  25.311  11.278   6.706
 2344THSLK    S 2323  25.333  10.928   6.676
 2345ETHY    C1 2324  25.560  10.778   6.308
 2346ETHY    C1 2325  25.839  10.690   5.851
 2347ETHY    C1 2326  26.123  10.712   5.393
 2348ETHY    C1 2327  26.405  10.834   4.941
 2349THSLK    S 2328  25.262  11.510   6.820
 2350ETHY    C1 2329  25.534  11.651   6.480
 2351ETHY    C1 2330  25.812  11.898   6.085
 2352ETHY    C1 2331  26.028  12.231   5.720
 2353ETHY    C1 2332  26.185  12.638   5.391
 2354AUSL   AUS 2333  24.984  10.823   6.826
 2355AUSL   AUS 2334  25.330  10.710   7.083
 2356AUL    AUL 2335  25.311  10.671   6.706
 2357THSLK    S 2336  25.470  10.519   6.939
 2358ETHY    C1 2337  25.703  10.202   6.707
 2359ETHY    C1 2338  26.033   9.895   6.403
 2360ETHY    C1 2339  26.413   9.686   6.083
 2361ETHY    C1 2340  26.834   9.569   5.754
 2362THSLK    S 2341  25.071  10.771   6.583
 2363ETHY    C1 2342  25.159  10.554   6.191
 2364ETHY    C1 2343  25.284  10.381   5.692
 2365ETHY    C1 2344  25.429  10.315   5.176
 2366ETHY    C1 2345  25.592  10.348   4.656
 2367AUSL   AUS 2346  24.984  11.126   6.826
 2368AUSL   AUS 2347  24.657  10.823   6.826
 2369AUL    AUL 2348  24.820  10.975   6.518
 2370THSLK    S 2349  24.561  10.771   6.586
 2371ETHY    C1 2350  24.422  10.556   6.206
 2372ETHY    C1 2351  24.265  10.385   5.717
 2373ETHY    C1 2352  24.126  10.319   5.199
 2374ETHY    C1 2353  24.010  10.350   4.666
 2375THSLK    S 2354  25.086  11.087   6.572
 2376ETHY    C1 2355  25.223  11.010   6.142
 2377ETHY    C1 2356  25.376  11.010   5.622
 2378ETHY    C1 2357  25.514  11.119   5.112
 2379ETHY    C1 2358  25.637  11.326   4.621
 2380AUSL   AUS 2359  24.411  10.975   8.080
 2381AUSL   AUS 2360  24.556  11.391   8.011
 2382AUL    AUL 2361  24.329  11.278   8.294
 2383THSLK    S 2362  24.307  10.928   8.325
 2384ETHY    C1 2363  24.081  10.778   8.691
 2385ETHY    C1 2364  23.801  10.690   9.148
 2386ETHY    C1 2365  23.518  10.712   9.607
 2387ETHY    C1 2366  23.235  10.834  10.058
 2388THSLK    S 2367  24.433  11.524   8.201
 2389ETHY    C1 2368  24.337  11.719   8.604
 2390ETHY    C1 2369  24.164  12.000   9.034
 2391ETHY    C1 2370  23.921  12.326   9.390
 2392ETHY    C1 2371  23.620  12.685   9.671
 2393AUSL   AUS 2372  24.657  10.823   8.173
 2394AUSL   AUS 2373  24.310  10.710   7.916
 2395AUL    AUL 2374  24.329  10.671   8.294
 2396THSLK    S 2375  24.131  10.544   8.032
 2397ETHY    C1 2376  23.770  10.297   8.166
 2398ETHY    C1 2377  23.365  10.031   8.410
 2399ETHY    C1 2378  23.004   9.811   8.745
 2400ETHY    C1 2379  22.688   9.638   9.156
 2401THSLK    S 2380  24.555  10.773   8.413
 2402ETHY    C1 2381  24.417  10.558   8.793
 2403ETHY    C1 2382  24.264  10.385   9.284
 2404ETHY    C1 2383  24.127  10.319   9.800
 2405ETHY    C1 2384  24.003  10.351  10.332
 2406AUSL   AUS 2385  24.411  10.975   6.920
 2407AUSL   AUS 2386  24.556  10.558   6.990
 2408AUL    AUL 2387  24.329  10.671   6.706
 2409THSLK    S 2388  24.312  10.928   6.673
 2410ETHY    C1 2389  24.085  10.778   6.305
 2411ETHY    C1 2390  23.802  10.690   5.851
 2412ETHY    C1 2391  23.518  10.712   5.393
 2413ETHY    C1 2392  23.241  10.834   4.938
 2414THSLK    S 2393  24.382  10.383   6.865
 2415ETHY    C1 2394  24.110  10.070   6.673
 2416ETHY    C1 2395  23.829   9.722   6.367
 2417ETHY    C1 2396  23.612   9.414   5.980
 2418ETHY    C1 2397  23.460   9.147   5.528
 2419AUSL   AUS 2398  24.657  11.126   6.826
 2420AUSL   AUS 2399  24.310  11.239   7.083
 2421AUL    AUL 2400  24.329  11.278   6.706
 2422THSLK    S 2401  24.174  11.370   6.893
 2423ETHY    C1 2402  23.940  11.491   6.518
 2424ETHY    C1 2403  23.608  11.679   6.132
 2425ETHY    C1 2404  23.228  11.918   5.833
 2426ETHY    C1 2405  22.811  12.198   5.618
 2427THSLK    S 2406  24.576  11.088   6.566
 2428ETHY    C1 2407  24.486  11.013   6.124
 2429ETHY    C1 2408  24.358  11.014   5.597
 2430ETHY    C1 2409  24.212  11.123   5.089
 2431ETHY    C1 2410  24.055  11.329   4.608
 2432AUSL   AUS 2411  25.400  11.384   7.500
 2433AUSL   AUS 2412  25.330  11.239   7.083
 2434AUL    AUL 2413  25.614  11.465   7.196
 2435THSLK    S 2414  25.510  11.346   6.925
 2436ETHY    C1 2415  25.871  11.396   6.648
 2437ETHY    C1 2416  26.275  11.544   6.319
 2438ETHY    C1 2417  26.637  11.793   6.005
 2439ETHY    C1 2418  26.953  12.130   5.713
 2440THSLK    S 2419  25.670  11.445   7.503
 2441ETHY    C1 2420  26.117  11.545   7.502
 2442ETHY    C1 2421  26.619  11.751   7.500
 2443ETHY    C1 2422  27.066  12.053   7.500
 2444ETHY    C1 2423  27.454  12.437   7.503
 2445AUSL   AUS 2424  25.494  11.138   7.348
 2446AUSL   AUS 2425  25.494  10.811   7.651
 2447AUL    AUL 2426  25.802  10.975   7.500
 2448THSLK    S 2427  25.756  11.185   7.345
 2449ETHY    C1 2428  26.206  11.154   7.270
 2450ETHY    C1 2429  26.738  11.209   7.179
 2451ETHY    C1 2430  27.245  11.372   7.091
 2452ETHY    C1 2431  27.720  11.630   7.011
 2453THSLK    S 2432  25.731  10.674   7.659
 2454ETHY    C1 2433  26.102  10.416   7.726
 2455ETHY    C1 2434  26.588  10.190   7.808
 2456ETHY    C1 2435  27.107  10.070   7.896
 2457ETHY    C1 2436  27.645  10.048   7.989
 2458AUSL   AUS 2437  25.494  11.138   7.651
 2459AUSL   AUS 2438  25.237  11.485   7.764
 2460AUL    AUL 2439  25.614  11.465   7.803
 2461THSLK    S 2440  25.422  11.609   7.924
 2462ETHY    C1 2441  25.779  11.801   8.136
 2463ETHY    C1 2442  26.156  12.108   8.377
 2464ETHY    C1 2443  26.457  12.495   8.602
 2465ETHY    C1 2444  26.684  12.946   8.809
 2466THSLK    S 2445  25.755  11.184   7.661
 2467ETHY    C1 2446  26.206  11.154   7.734
 2468ETHY    C1 2447  26.739  11.209   7.821
 2469ETHY    C1 2448  27.245  11.372   7.908
 2470ETHY    C1 2449  27.719  11.630   7.995
 2471AUSL   AUS 2450  24.240  11.384   7.500
 2472AUSL   AUS 2451  24.310  11.239   7.916
 2473AUL    AUL 2452  24.026  11.465   7.803
 2474THSLK    S 2453  24.170  11.365   8.107
 2475ETHY    C1 2454  23.937  11.486   8.482
 2476ETHY    C1 2455  23.608  11.679   8.868
 2477ETHY    C1 2456  23.228  11.918   9.166
 2478ETHY    C1 2457  22.807  12.193   9.381
 2479THSLK    S 2458  24.019  11.524   7.503
 2480ETHY    C1 2459  23.730  11.879   7.502
 2481ETHY    C1 2460  23.322  12.236   7.500
 2482ETHY    C1 2461  22.852  12.500   7.500
 2483ETHY    C1 2462  22.334  12.676   7.503
 2484AUSL   AUS 2463  24.147  11.138   7.348
 2485AUSL   AUS 2464  24.404  11.485   7.236
 2486AUL    AUL 2465  24.026  11.465   7.196
 2487THSLK    S 2466  23.910  11.252   7.303
 2488ETHY    C1 2467  23.538  11.426   7.101
 2489ETHY    C1 2468  23.052  11.602   6.936
 2490ETHY    C1 2469  22.534  11.734   6.868
 2491ETHY    C1 2470  21.996  11.826   6.890
 2492THSLK    S 2471  24.284  11.652   7.056
 2493ETHY    C1 2472  24.132  11.971   6.765
 2494ETHY    C1 2473  23.878  12.351   6.473
 2495ETHY    C1 2474  23.545  12.719   6.260
 2496ETHY    C1 2475  23.149  13.069   6.122
 2497AUSL   AUS 2476  24.147  11.138   7.651
 2498AUSL   AUS 2477  24.147  10.811   7.348
 2499AUL    AUL 2478  23.839  10.975   7.500
 2500THSLK    S 2479  23.885  10.736   7.384
 2501ETHY    C1 2480  23.435  10.685   7.446
 2502ETHY    C1 2481  22.902  10.582   7.434
 2503ETHY    C1 2482  22.395  10.432   7.327
 2504ETHY    C1 2483  21.922  10.239   7.135
 2505THSLK    S 2484  23.909  11.246   7.699
 2506ETHY    C1 2485  23.538  11.422   7.901
 2507ETHY    C1 2486  23.052  11.601   8.063
 2508ETHY    C1 2487  22.534  11.734   8.133
 2509ETHY    C1 2488  21.995  11.820   8.114
 2510AUSL   AUS 2489  25.400  10.565   7.500
 2511AUSL   AUS 2490  25.330  10.710   7.916
 2512AUL    AUL 2491  25.614  10.484   7.803
 2513THSLK    S 2492  25.621  10.425   7.503
 2514ETHY    C1 2493  25.910  10.070   7.502
 2515ETHY    C1 2494  26.319   9.713   7.500
 2516ETHY    C1 2495  26.789   9.449   7.500
 2517ETHY    C1 2496  27.306   9.273   7.503
 2518THSLK    S 2497  25.467  10.520   8.066
 2519ETHY    C1 2498  25.700  10.203   8.297
 2520ETHY    C1 2499  26.033   9.896   8.598
 2521ETHY    C1 2500  26.413   9.686   8.918
 2522ETHY    C1 2501  26.830   9.570   9.250
 2523AUSL   AUS 2502  25.494  10.811   7.348
 2524AUSL   AUS 2503  25.237  10.464   7.236
 2525AUL    AUL 2504  25.614  10.484   7.196
 2526THSLK    S 2505  25.732  10.674   7.346
 2527ETHY    C1 2506  26.103  10.416   7.279
 2528ETHY    C1 2507  26.588  10.190   7.192
 2529ETHY    C1 2508  27.107  10.070   7.103
 2530ETHY    C1 2509  27.646  10.048   7.018
 2531THSLK    S 2510  25.360  10.273   7.099
 2532ETHY    C1 2511  25.510   9.871   6.942
 2533ETHY    C1 2512  25.763   9.441   6.728
 2534ETHY    C1 2513  26.095   9.085   6.495
 2535ETHY    C1 2514  26.494   8.804   6.249
 2536AUSL   AUS 2515  24.240  10.565   7.500
 2537AUSL   AUS 2516  24.310  10.710   7.083
 2538AUL    AUL 2517  24.026  10.484   7.196
 2539THSLK    S 2518  24.135  10.539   6.966
 2540ETHY    C1 2519  23.773  10.293   6.833
 2541ETHY    C1 2520  23.365  10.030   6.589
 2542ETHY    C1 2521  23.004   9.811   6.255
 2543ETHY    C1 2522  22.692   9.633   5.843
 2544THSLK    S 2523  23.970  10.504   7.503
 2545ETHY    C1 2524  23.524  10.404   7.502
 2546ETHY    C1 2525  23.022  10.198   7.500
 2547ETHY    C1 2526  22.575   9.896   7.500
 2548ETHY    C1 2527  22.187   9.512   7.503
 2549AUSL   AUS 2528  24.147  10.811   7.651
 2550AUSL   AUS 2529  24.404  10.464   7.764
 2551AUL    AUL 2530  24.026  10.484   7.803
 2552THSLK    S 2531  24.216  10.316   7.881
 2553ETHY    C1 2532  23.860  10.040   7.958
 2554ETHY    C1 2533  23.485   9.683   8.122
 2555ETHY    C1 2534  23.184   9.309   8.367
 2556ETHY    C1 2535  22.953   8.927   8.682
 2557THSLK    S 2536  23.884  10.741   7.618
 2558ETHY    C1 2537  23.434  10.689   7.557
 2559ETHY    C1 2538  22.902  10.583   7.566
 2560ETHY    C1 2539  22.395  10.432   7.673
 2561ETHY    C1 2540  21.921  10.244   7.867
 2562AUSL   AUS 2541  24.820  11.555   7.909
 2563AUSL   AUS 2542  24.404  11.485   7.764
 2564AUL    AUL 2543  24.517  11.769   7.991
 2565THSLK    S 2544  24.281  11.647   7.948
 2566ETHY    C1 2545  24.130  11.967   8.237
 2567ETHY    C1 2546  23.877  12.350   8.527
 2568ETHY    C1 2547  23.545  12.718   8.740
 2569ETHY    C1 2548  23.146  13.064   8.881
 2570THSLK    S 2549  24.858  11.786   8.034
 2571ETHY    C1 2550  24.986  12.112   8.327
 2572ETHY    C1 2551  25.063  12.544   8.646
 2573ETHY    C1 2552  25.044  13.009   8.920
 2574ETHY    C1 2553  24.938  13.494   9.147
 2575AUSL   AUS 2554  24.669  11.648   7.663
 2576AUSL   AUS 2555  24.972  11.648   7.336
 2577AUL    AUL 2556  24.820  11.956   7.500
 2578THSLK    S 2557  24.706  11.900   7.772
 2579ETHY    C1 2558  24.779  12.324   7.929
 2580ETHY    C1 2559  24.776  12.840   8.095
 2581ETHY    C1 2560  24.668  13.351   8.229
 2582ETHY    C1 2561  24.464  13.847   8.336
 2583THSLK    S 2562  25.023  11.888   7.237
 2584ETHY    C1 2563  25.236  12.265   7.091
 2585ETHY    C1 2564  25.406  12.754   6.929
 2586ETHY    C1 2565  25.473  13.272   6.792
 2587ETHY    C1 2566  25.444  13.806   6.682
 2588AUSL   AUS 2567  24.972  11.648   7.663
 2589AUSL   AUS 2568  25.085  11.391   8.011
 2590AUL    AUL 2569  25.124  11.769   7.991
 2591THSLK    S 2570  25.258  11.508   8.184
 2592ETHY    C1 2571  25.531  11.649   8.522
 2593ETHY    C1 2572  25.812  11.898   8.915
 2594ETHY    C1 2573  26.028  12.231   9.279
 2595ETHY    C1 2574  26.180  12.636   9.614
 2596THSLK    S 2575  25.022  11.886   7.768
 2597ETHY    C1 2576  25.235  12.265   7.913
 2598ETHY    C1 2577  25.406  12.754   8.072
 2599ETHY    C1 2578  25.473  13.272   8.207
 2600ETHY    C1 2579  25.442  13.805   8.325
 2601AUSL   AUS 2580  24.820  10.394   7.909
 2602AUSL   AUS 2581  25.237  10.464   7.764
 2603AUL    AUL 2582  25.124  10.180   7.991
 2604THSLK    S 2583  24.779  10.137   7.992
 2605ETHY    C1 2584  24.652   9.728   8.152
 2606ETHY    C1 2585  24.578   9.247   8.391
 2607ETHY    C1 2586  24.597   8.795   8.684
 2608ETHY    C1 2587  24.699   8.377   9.021
 2609THSLK    S 2588  25.357  10.274   7.907
 2610ETHY    C1 2589  25.508   9.872   8.062
 2611ETHY    C1 2590  25.763   9.441   8.272
 2612ETHY    C1 2591  26.095   9.085   8.505
 2613ETHY    C1 2592  26.491   8.806   8.758
 2614AUSL   AUS 2593  24.669  10.301   7.663
 2615AUSL   AUS 2594  24.556  10.558   8.011
 2616AUL    AUL 2595  24.517  10.180   7.991
 2617THSLK    S 2596  24.618  10.056   7.744
 2618ETHY    C1 2597  24.405   9.657   7.812
 2619ETHY    C1 2598  24.234   9.154   7.925
 2620ETHY    C1 2599  24.168   8.640   8.072
 2621ETHY    C1 2600  24.197   8.125   8.252
 2622THSLK    S 2601  24.378  10.388   8.136
 2623ETHY    C1 2602  24.106  10.073   8.327
 2624ETHY    C1 2603  23.828   9.722   8.633
 2625ETHY    C1 2604  23.612   9.414   9.019
 2626ETHY    C1 2605  23.456   9.152   9.473
 2627AUSL   AUS 2606  24.972  10.301   7.663
 2628AUSL   AUS 2607  24.669  10.301   7.336
 2629AUL    AUL 2608  24.820   9.993   7.500
 2630THSLK    S 2609  24.619  10.054   7.261
 2631ETHY    C1 2610  24.406   9.656   7.192
 2632ETHY    C1 2611  24.234   9.154   7.076
 2633ETHY    C1 2612  24.168   8.640   6.927
 2634ETHY    C1 2613  24.199   8.123   6.754
 2635THSLK    S 2614  24.933  10.042   7.748
 2636ETHY    C1 2615  24.861   9.597   7.829
 2637ETHY    C1 2616  24.864   9.068   7.948
 2638ETHY    C1 2617  24.973   8.560   8.095
 2639ETHY    C1 2618  25.175   8.082   8.264
 2640AUSL   AUS 2619  24.820  11.555   7.091
 2641AUSL   AUS 2620  25.237  11.485   7.236
 2642AUL    AUL 2621  25.124  11.769   7.009
 2643THSLK    S 2622  24.862  11.789   6.971
 2644ETHY    C1 2623  24.989  12.114   6.676
 2645ETHY    C1 2624  25.063  12.544   6.353
 2646ETHY    C1 2625  25.044  13.009   6.080
 2647ETHY    C1 2626  24.941  13.497   5.857
 2648THSLK    S 2627  25.424  11.610   7.081
 2649ETHY    C1 2628  25.781  11.802   6.869
 2650ETHY    C1 2629  26.156  12.108   6.623
 2651ETHY    C1 2630  26.457  12.495   6.398
 2652ETHY    C1 2631  26.687  12.947   6.197
 2653AUSL   AUS 2632  24.669  11.648   7.336
 2654AUSL   AUS 2633  24.556  11.391   6.990
 2655AUL    AUL 2634  24.517  11.769   7.009
 2656THSLK    S 2635  24.708  11.902   7.233
 2657ETHY    C1 2636  24.780  12.325   7.074
 2658ETHY    C1 2637  24.777  12.841   6.906
 2659ETHY    C1 2638  24.668  13.351   6.770
 2660ETHY    C1 2639  24.466  13.849   6.670
 2661THSLK    S 2640  24.437  11.528   6.800
 2662ETHY    C1 2641  24.341  11.722   6.396
 2663ETHY    C1 2642  24.164  12.000   5.966
 2664ETHY    C1 2643  23.921  12.325   5.611
 2665ETHY    C1 2644  23.625  12.690   5.330
 2666AUSL   AUS 2645  24.820  10.394   7.091
 2667AUSL   AUS 2646  24.404  10.464   7.236
 2668AUL    AUL 2647  24.517  10.180   7.009
 2669THSLK    S 2648  24.219  10.311   7.122
 2670ETHY    C1 2649  23.862  10.037   7.044
 2671ETHY    C1 2650  23.485   9.683   6.878
 2672ETHY    C1 2651  23.183   9.309   6.633
 2673ETHY    C1 2652  22.956   8.922   6.321
 2674THSLK    S 2653  24.782  10.134   7.013
 2675ETHY    C1 2654  24.654   9.726   6.852
 2676ETHY    C1 2655  24.578   9.247   6.609
 2677ETHY    C1 2656  24.597   8.795   6.315
 2678ETHY    C1 2657  24.703   8.374   5.983
 2679AUSL   AUS 2658  24.972  10.301   7.336
 2680AUSL   AUS 2659  25.085  10.558   6.990
 2681AUL    AUL 2660  25.124  10.180   7.009
 2682THSLK    S 2661  24.935  10.041   7.258
 2683ETHY    C1 2662  24.862   9.596   7.175
 2684ETHY    C1 2663  24.864   9.068   7.052
 2685ETHY    C1 2664  24.972   8.560   6.905
 2686ETHY    C1 2665  25.177   8.081   6.742
 2687THSLK    S 2666  25.208  10.368   6.847
 2688ETHY    C1 2667  25.303  10.000   6.592
 2689ETHY    C1 2668  25.477   9.619   6.247
 2690ETHY    C1 2669  25.719   9.319   5.870
 2691ETHY    C1 2670  26.020   9.098   5.471
 2692AUC    AUC 2671  34.525   9.673   7.500
 2693AUC    AUC 2672  34.771   9.673   7.348
 2694AUC    AUC 2673  34.771   9.673   7.651
 2695AUC    AUC 2674  34.280   9.673   7.348
 2696AUC    AUC 2675  34.280   9.673   7.651
 2697AUC    AUC 2676  34.374   9.918   7.500
 2698AUC    AUC 2677  34.677   9.918   7.500
 2699AUC    AUC 2678  34.374   9.427   7.500
 2700AUC    AUC 2679  34.677   9.427   7.500
 2701AUC    AUC 2680  34.525   9.521   7.745
 2702AUC    AUC 2681  34.525   9.824   7.745
 2703AUC    AUC 2682  34.525   9.521   7.254
 2704AUC    AUC 2683  34.525   9.824   7.254
 2705AUC    AUC 2684  35.016   9.673   7.196
 2706AUC    AUC 2685  35.016   9.673   7.500
 2707AUC    AUC 2686  35.016   9.673   7.803
 2708AUC    AUC 2687  34.034   9.673   7.196
 2709AUC    AUC 2688  34.034   9.673   7.500
 2710AUC    AUC 2689  34.034   9.673   7.803
 2711AUC    AUC 2690  34.222  10.163   7.500
 2712AUC    AUC 2691  34.525  10.163   7.500
 2713AUC    AUC 2692  34.829  10.163   7.500
 2714AUC    AUC 2693  34.222   9.182   7.500
 2715AUC    AUC 2694  34.525   9.182   7.500
 2716AUC    AUC 2695  34.829   9.182   7.500
 2717AUC    AUC 2696  34.525   9.369   7.991
 2718AUC    AUC 2697  34.525   9.673   7.991
 2719AUC    AUC 2698  34.525   9.976   7.991
 2720AUC    AUC 2699  34.525   9.369   7.009
 2721AUC    AUC 2700  34.525   9.673   7.009
 2722AUC    AUC 2701  34.525   9.976   7.009
 2723AUC    AUC 2702  34.771   9.521   7.897
 2724AUC    AUC 2703  34.771   9.824   7.897
 2725AUC    AUC 2704  34.771   9.521   7.103
 2726AUC    AUC 2705  34.771   9.824   7.103
 2727AUC    AUC 2706  34.280   9.521   7.897
 2728AUC    AUC 2707  34.280   9.824   7.897
 2729AUC    AUC 2708  34.280   9.521   7.103
 2730AUC    AUC 2709  34.280   9.824   7.103
 2731AUC    AUC 2710  34.922   9.918   7.348
 2732AUC    AUC 2711  34.922   9.918   7.651
 2733AUC    AUC 2712  34.128   9.918   7.348
 2734AUC    AUC 2713  34.128   9.918   7.651
 2735AUC    AUC 2714  34.922   9.427   7.348
 2736AUC    AUC 2715  34.922   9.427   7.651
 2737AUC    AUC 2716  34.128   9.427   7.348
 2738AUC    AUC 2717  34.128   9.427   7.651
 2739AUC    AUC 2718  34.374  10.070   7.745
 2740AUC    AUC 2719  34.677  10.070   7.745
 2741AUC    AUC 2720  34.374   9.275   7.745
 2742AUC    AUC 2721  34.677   9.275   7.745
 2743AUC    AUC 2722  34.374  10.070   7.254
 2744AUC    AUC 2723  34.677  10.070   7.254
 2745AUC    AUC 2724  34.374   9.275   7.254
 2746AUC    AUC 2725  34.677   9.275   7.254
 2747AUSL   AUS 2726  34.934   9.673   8.080
 2748AUSL   AUS 2727  34.790   9.256   8.011
 2749AUL    AUL 2728  35.016   9.369   8.294
 2750THSLK    S 2729  34.908   9.068   8.156
 2751ETHY    C1 2730  35.004   8.700   8.412
 2752ETHY    C1 2731  35.182   8.317   8.753
 2753ETHY    C1 2732  35.424   8.017   9.130
 2754ETHY    C1 2733  35.720   7.798   9.534
 2755THSLK    S 2734  35.033   9.626   8.327
 2756ETHY    C1 2735  35.260   9.476   8.694
 2757ETHY    C1 2736  35.544   9.388   9.148
 2758ETHY    C1 2737  35.828   9.410   9.607
 2759ETHY    C1 2738  36.105   9.532  10.061
 2760AUSL   AUS 2739  34.689   9.521   8.173
 2761AUSL   AUS 2740  34.362   9.824   8.173
 2762AUL    AUL 2741  34.525   9.673   8.482
 2763THSLK    S 2742  34.770   9.470   8.418
 2764ETHY    C1 2743  34.860   9.252   8.810
 2765ETHY    C1 2744  34.988   9.078   9.308
 2766ETHY    C1 2745  35.134   9.013   9.823
 2767ETHY    C1 2746  35.291   9.047  10.346
 2768THSLK    S 2747  34.275   9.784   8.432
 2769ETHY    C1 2748  34.186   9.710   8.874
 2770ETHY    C1 2749  34.062   9.712   9.403
 2771ETHY    C1 2750  33.917   9.821   9.912
 2772ETHY    C1 2751  33.754  10.025  10.392
 2773AUSL   AUS 2752  34.689   9.824   8.173
 2774AUSL   AUS 2753  35.035   9.937   7.916
 2775AUL    AUL 2754  35.016   9.976   8.294
 2776THSLK    S 2755  34.776   9.876   8.416
 2777ETHY    C1 2756  34.864  10.093   8.809
 2778ETHY    C1 2757  34.989  10.266   9.308
 2779ETHY    C1 2758  35.134  10.332   9.823
 2780ETHY    C1 2759  35.297  10.299  10.345
 2781THSLK    S 2760  35.211  10.043   8.079
 2782ETHY    C1 2761  35.573  10.093   8.355
 2783ETHY    C1 2762  35.980  10.242   8.681
 2784ETHY    C1 2763  36.342  10.491   8.995
 2785ETHY    C1 2764  36.654  10.827   9.293
 2786AUSL   AUS 2765  34.934   9.673   6.920
 2787AUSL   AUS 2766  34.790  10.089   6.990
 2788AUL    AUL 2767  35.016   9.976   6.706
 2789THSLK    S 2768  35.038   9.626   6.676
 2790ETHY    C1 2769  35.265   9.476   6.308
 2791ETHY    C1 2770  35.544   9.388   5.851
 2792ETHY    C1 2771  35.828   9.410   5.393
 2793ETHY    C1 2772  36.110   9.532   4.941
 2794THSLK    S 2773  34.967  10.208   6.820
 2795ETHY    C1 2774  35.239  10.349   6.480
 2796ETHY    C1 2775  35.517  10.596   6.085
 2797ETHY    C1 2776  35.733  10.929   5.720
 2798ETHY    C1 2777  35.890  11.336   5.391
 2799AUSL   AUS 2778  34.689   9.521   6.826
 2800AUSL   AUS 2779  35.035   9.408   7.083
 2801AUL    AUL 2780  35.016   9.369   6.706
 2802THSLK    S 2781  35.175   9.217   6.939
 2803ETHY    C1 2782  35.408   8.900   6.707
 2804ETHY    C1 2783  35.738   8.593   6.403
 2805ETHY    C1 2784  36.118   8.384   6.083
 2806ETHY    C1 2785  36.539   8.267   5.754
 2807THSLK    S 2786  34.776   9.469   6.583
 2808ETHY    C1 2787  34.864   9.252   6.191
 2809ETHY    C1 2788  34.989   9.079   5.692
 2810ETHY    C1 2789  35.134   9.013   5.176
 2811ETHY    C1 2790  35.297   9.046   4.656
 2812AUSL   AUS 2791  34.689   9.824   6.826
 2813AUSL   AUS 2792  34.362   9.521   6.826
 2814AUL    AUL 2793  34.525   9.673   6.518
 2815THSLK    S 2794  34.266   9.469   6.586
 2816ETHY    C1 2795  34.127   9.254   6.206
 2817ETHY    C1 2796  33.970   9.083   5.717
 2818ETHY    C1 2797  33.831   9.017   5.199
 2819ETHY    C1 2798  33.715   9.048   4.666
 2820THSLK    S 2799  34.791   9.785   6.572
 2821ETHY    C1 2800  34.928   9.708   6.142
 2822ETHY    C1 2801  35.081   9.708   5.622
 2823ETHY    C1 2802  35.219   9.817   5.112
 2824ETHY    C1 2803  35.342  10.024   4.621
 2825AUSL   AUS 2804  34.116   9.673   8.080
 2826AUSL   AUS 2805  34.261  10.089   8.011
 2827AUL    AUL 2806  34.034   9.976   8.294
 2828THSLK    S 2807  34.012   9.626   8.325
 2829ETHY    C1 2808  33.786   9.476   8.691
 2830ETHY    C1 2809  33.506   9.388   9.148
 2831ETHY    C1 2810  33.223   9.410   9.607
 2832ETHY    C1 2811  32.940   9.532  10.058
 2833THSLK    S 2812  34.138  10.222   8.201
 2834ETHY    C1 2813  34.042  10.417   8.604
 2835ETHY    C1 2814  33.869  10.698   9.034
 2836ETHY    C1 2815  33.626  11.024   9.390
 2837ETHY    C1 2816  33.325  11.383   9.671
 2838AUSL   AUS 2817  34.362   9.521   8.173
 2839AUSL   AUS 2818  34.015   9.408   7.916
 2840AUL    AUL 2819  34.034   9.369   8.294
 2841THSLK    S 2820  33.836   9.242   8.032
 2842ETHY    C1 2821  33.475   8.995   8.166
 2843ETHY    C1 2822  33.070   8.729   8.410
 2844ETHY    C1 2823  32.709   8.509   8.745
 2845ETHY    C1 2824  32.393   8.336   9.156
 2846THSLK    S 2825  34.260   9.471   8.413
 2847ETHY    C1 2826  34.122   9.256   8.793
 2848ETHY    C1 2827  33.969   9.083   9.284
 2849ETHY    C1 2828  33.832   9.017   9.800
 2850ETHY    C1 2829  33.708   9.049  10.332
 2851AUSL   AUS 2830  34.116   9.673   6.920
 2852AUSL   AUS 2831  34.261   9.256   6.990
 2853AUL    AUL 2832  34.034   9.369   6.706
 2854THSLK    S 2833  34.017   9.626   6.673
 2855ETHY    C1 2834  33.790   9.476   6.305
 2856ETHY    C1 2835  33.507   9.388   5.851
 2857ETHY    C1 2836  33.223   9.410   5.393
 2858ETHY    C1 2837  32.946   9.532   4.938
 2859THSLK    S 2838  34.087   9.081   6.865
 2860ETHY    C1 2839  33.815   8.768   6.673
 2861ETHY    C1 2840  33.534   8.420   6.367
 2862ETHY    C1 2841  33.317   8.112   5.980
 2863ETHY    C1 2842  33.165   7.845   5.528
 2864AUSL   AUS 2843  34.362   9.824   6.826
 2865AUSL   AUS 2844  34.015   9.937   7.083
 2866AUL    AUL 2845  34.034   9.976   6.706
 2867THSLK    S 2846  33.879  10.068   6.893
 2868ETHY    C1 2847  33.645  10.189   6.518
 2869ETHY    C1 2848  33.313  10.377   6.132
 2870ETHY    C1 2849  32.933  10.616   5.833
 2871ETHY    C1 2850  32.516  10.896   5.618
 2872THSLK    S 2851  34.281   9.786   6.566
 2873ETHY    C1 2852  34.191   9.711   6.124
 2874ETHY    C1 2853  34.063   9.712   5.597
 2875ETHY    C1 2854  33.917   9.821   5.089
 2876ETHY    C1 2855  33.760  10.027   4.608
 2877AUSL   AUS 2856  35.105  10.082   7.500
 2878AUSL   AUS 2857  35.035   9.937   7.083
 2879AUL    AUL 2858  35.319  10.163   7.196
 2880THSLK    S 2859  35.215  10.044   6.925
 2881ETHY    C1 2860  35.576  10.094   6.648
 2882ETHY    C1 2861  35.980  10.242   6.319
 2883ETHY    C1 2862  36.342  10.491   6.005
 2884ETHY    C1 2863  36.658  10.828   5.713
 2885THSLK    S 2864  35.375  10.143   7.503
 2886ETHY    C1 2865  35.822  10.243   7.502
 2887ETHY    C1 2866  36.324  10.449   7.500
 2888ETHY    C1 2867  36.771  10.751   7.500
 2889ETHY    C1 2868  37.159  11.135   7.503
 2890AUSL   AUS 2869  35.199   9.836   7.348
 2891AUSL   AUS 2870  35.199   9.509   7.651
 2892AUL    AUL 2871  35.507   9.673   7.500
 2893THSLK    S 2872  35.461   9.883   7.345
 2894ETHY    C1 2873  35.911   9.852   7.270
 2895ETHY    C1 2874  36.443   9.907   7.179
 2896ETHY    C1 2875  36.950  10.070   7.091
 2897ETHY    C1 2876  37.425  10.328   7.011
 2898THSLK    S 2877  35.436   9.372   7.659
 2899ETHY    C1 2878  35.807   9.114   7.726
 2900ETHY    C1 2879  36.293   8.888   7.808
 2901ETHY    C1 2880  36.812   8.768   7.896
 2902ETHY    C1 2881  37.350   8.746   7.989
 2903AUSL   AUS 2882  35.199   9.836   7.651
 2904AUSL   AUS 2883  34.942  10.183   7.764
 2905AUL    AUL 2884  35.319  10.163   7.803
 2906THSLK    S 2885  35.127  10.307   7.924
 2907ETHY    C1 2886  35.484  10.499   8.136
 2908ETHY    C1 2887  35.861  10.806   8.377
 2909ETHY    C1 2888  36.162  11.193   8.602
 2910ETHY    C1 2889  36.389  11.644   8.809
 2911THSLK    S 2890  35.460   9.882   7.661
 2912ETHY    C1 2891  35.911   9.852   7.734
 2913ETHY    C1 2892  36.444   9.907   7.821
 2914ETHY    C1 2893  36.950  10.070   7.908
 2915ETHY    C1 2894  37.424  10.328   7.995
 2916AUSL   AUS 2895  33.945  10.082   7.500
 2917AUSL   AUS 2896  34.015   9.937   7.916
 2918AUL    AUL 2897  33.731  10.163   7.803
 2919THSLK    S 2898  33.875  10.063   8.107
 2920ETHY    C1 2899  33.642  10.184   8.482
 2921ETHY    C1 2900  33.313  10.377   8.868
 2922ETHY    C1 2901  32.933  10.616   9.166
 2923ETHY    C1 2902  32.512  10.891   9.381
 2924THSLK    S 2903  33.724  10.222   7.503
 2925ETHY    C1 2904  33.435  10.577   7.502
 2926ETHY    C1 2905  33.027  10.934   7.500
 2927ETHY    C1 2906  32.557  11.198   7.500
 2928ETHY    C1 2907  32.039  11.374   7.503
 2929AUSL   AUS 2908  33.852   9.836   7.348
 2930AUSL   AUS 2909  34.109  10.183   7.236
 2931AUL    AUL 2910  33.731  10.163   7.196
 2932THSLK    S 2911  33.615   9.950   7.303
 2933ETHY    C1 2912  33.243  10.124   7.101
 2934ETHY    C1 2913  32.757  10.300   6.936
 2935ETHY    C1 2914  32.239  10.432   6.868
 2936ETHY    C1 2915  31.701  10.524   6.890
 2937THSLK    S 2916  33.989  10.350   7.056
 2938ETHY    C1 2917  33.837  10.669   6.765
 2939ETHY    C1 2918  33.583  11.049   6.473
 2940ETHY    C1 2919  33.250  11.417   6.260
 2941ETHY    C1 2920  32.854  11.767   6.122
 2942AUSL   AUS 2921  33.852   9.836   7.651
 2943AUSL   AUS 2922  33.852   9.509   7.348
 2944AUL    AUL 2923  33.544   9.673   7.500
 2945THSLK    S 2924  33.590   9.434   7.384
 2946ETHY    C1 2925  33.140   9.383   7.446
 2947ETHY    C1 2926  32.607   9.280   7.434
 2948ETHY    C1 2927  32.100   9.130   7.327
 2949ETHY    C1 2928  31.627   8.937   7.135
 2950THSLK    S 2929  33.614   9.944   7.699
 2951ETHY    C1 2930  33.243  10.120   7.901
 2952ETHY    C1 2931  32.757  10.299   8.063
 2953ETHY    C1 2932  32.239  10.432   8.133
 2954ETHY    C1 2933  31.700  10.518   8.114
 2955AUSL   AUS 2934  35.105   9.263   7.500
 2956AUSL   AUS 2935  35.035   9.408   7.916
 2957AUL    AUL 2936  35.319   9.182   7.803
 2958THSLK    S 2937  35.326   9.123   7.503
 2959ETHY    C1 2938  35.615   8.768   7.502
 2960ETHY    C1 2939  36.024   8.411   7.500
 2961ETHY    C1 2940  36.494   8.147   7.500
 2962ETHY    C1 2941  37.011   7.971   7.503
 2963THSLK    S 2942  35.172   9.218   8.066
 2964ETHY    C1 2943  35.405   8.901   8.297
 2965ETHY    C1 2944  35.738   8.594   8.598
 2966ETHY    C1 2945  36.118   8.384   8.918
 2967ETHY    C1 2946  36.535   8.268   9.250
 2968AUSL   AUS 2947  35.199   9.509   7.348
 2969AUSL   AUS 2948  34.942   9.162   7.236
 2970AUL    AUL 2949  35.319   9.182   7.196
 2971THSLK    S 2950  35.437   9.372   7.346
 2972ETHY    C1 2951  35.808   9.114   7.279
 2973ETHY    C1 2952  36.293   8.888   7.192
 2974ETHY    C1 2953  36.812   8.768   7.103
 2975ETHY    C1 2954  37.351   8.746   7.018
 2976THSLK    S 2955  35.065   8.971   7.099
 2977ETHY    C1 2956  35.215   8.569   6.942
 2978ETHY    C1 2957  35.468   8.139   6.728
 2979ETHY    C1 2958  35.800   7.783   6.495
 2980ETHY    C1 2959  36.199   7.502   6.249
 2981AUSL   AUS 2960  33.945   9.263   7.500
 2982AUSL   AUS 2961  34.015   9.408   7.083
 2983AUL    AUL 2962  33.731   9.182   7.196
 2984THSLK    S 2963  33.840   9.237   6.966
 2985ETHY    C1 2964  33.478   8.991   6.833
 2986ETHY    C1 2965  33.070   8.728   6.589
 2987ETHY    C1 2966  32.709   8.509   6.255
 2988ETHY    C1 2967  32.397   8.331   5.843
 2989THSLK    S 2968  33.675   9.202   7.503
 2990ETHY    C1 2969  33.229   9.102   7.502
 2991ETHY    C1 2970  32.727   8.896   7.500
 2992ETHY    C1 2971  32.280   8.594   7.500
 2993ETHY    C1 2972  31.892   8.210   7.503
 2994AUSL   AUS 2973  33.852   9.509   7.651
 2995AUSL   AUS 2974  34.109   9.162   7.764
 2996AUL    AUL 2975  33.731   9.182   7.803
 2997THSLK    S 2976  33.921   9.014   7.881
 2998ETHY    C1 2977  33.565   8.738   7.958
 2999ETHY    C1 2978  33.190   8.381   8.122
 3000ETHY    C1 2979  32.889   8.007   8.367
 3001ETHY    C1 2980  32.658   7.625   8.682
 3002THSLK    S 2981  33.589   9.439   7.618
 3003ETHY    C1 2982  33.139   9.387   7.557
 3004ETHY    C1 2983  32.607   9.281   7.566
 3005ETHY    C1 2984  32.100   9.130   7.673
 3006ETHY    C1 2985  31.626   8.942   7.867
 3007AUSL   AUS 2986  34.525  10.253   7.909
 3008AUSL   AUS 2987  34.109  10.183   7.764
 3009AUL    AUL 2988  34.222  10.467   7.991
 3010THSLK    S 2989  33.986  10.345   7.948
 3011ETHY    C1 2990  33.835  10.665   8.237
 3012ETHY    C1 2991  33.582  11.048   8.527
 3013ETHY    C1 2992  33.250  11.416   8.740
 3014ETHY    C1 2993  32.851  11.762   8.881
 3015THSLK    S 2994  34.563  10.484   8.034
 3016ETHY    C1 2995  34.691  10.810   8.327
 3017ETHY    C1 2996  34.768  11.242   8.646
 3018ETHY    C1 2997  34.749  11.707   8.920
 3019ETHY    C1 2998  34.643  12.192   9.147
 3020AUSL   AUS 2999  34.374  10.346   7.663
 3021AUSL   AUS 3000  34.677  10.346   7.336
 3022AUL    AUL 3001  34.525  10.654   7.500
 3023THSLK    S 3002  34.411  10.598   7.772
 3024ETHY    C1 3003  34.484  11.022   7.929
 3025ETHY    C1 3004  34.481  11.538   8.095
 3026ETHY    C1 3005  34.373  12.049   8.229
 3027ETHY    C1 3006  34.169  12.545   8.336
 3028THSLK    S 3007  34.728  10.586   7.237
 3029ETHY    C1 3008  34.941  10.963   7.091
 3030ETHY    C1 3009  35.111  11.452   6.929
 3031ETHY    C1 3010  35.178  11.970   6.792
 3032ETHY    C1 3011  35.149  12.504   6.682
 3033AUSL   AUS 3012  34.677  10.346   7.663
 3034AUSL   AUS 3013  34.790  10.089   8.011
 3035AUL    AUL 3014  34.829  10.467   7.991
 3036THSLK    S 3015  34.963  10.206   8.184
 3037ETHY    C1 3016  35.236  10.347   8.522
 3038ETHY    C1 3017  35.517  10.596   8.915
 3039ETHY    C1 3018  35.733  10.929   9.279
 3040ETHY    C1 3019  35.885  11.334   9.614
 3041THSLK    S 3020  34.727  10.584   7.768
 3042ETHY    C1 3021  34.940  10.963   7.913
 3043ETHY    C1 3022  35.111  11.452   8.072
 3044ETHY    C1 3023  35.178  11.970   8.207
 3045ETHY    C1 3024  35.147  12.503   8.325
 3046AUSL   AUS 3025  34.525   9.092   7.909
 3047AUSL   AUS 3026  34.942   9.162   7.764
 3048AUL    AUL 3027  34.829   8.878   7.991
 3049THSLK    S 3028  34.484   8.835   7.992
 3050ETHY    C1 3029  34.357   8.426   8.152
 3051ETHY    C1 3030  34.283   7.945   8.391
 3052ETHY    C1 3031  34.302   7.493   8.684
 3053ETHY    C1 3032  34.404   7.075   9.021
 3054THSLK    S 3033  35.062   8.972   7.907
 3055ETHY    C1 3034  35.213   8.570   8.062
 3056ETHY    C1 3035  35.468   8.139   8.272
 3057ETHY    C1 3036  35.800   7.783   8.505
 3058ETHY    C1 3037  36.196   7.504   8.758
 3059AUSL   AUS 3038  34.374   8.999   7.663
 3060AUSL   AUS 3039  34.261   9.256   8.011
 3061AUL    AUL 3040  34.222   8.878   7.991
 3062THSLK    S 3041  34.323   8.754   7.744
 3063ETHY    C1 3042  34.110   8.355   7.812
 3064ETHY    C1 3043  33.939   7.852   7.925
 3065ETHY    C1 3044  33.873   7.338   8.072
 3066ETHY    C1 3045  33.902   6.823   8.252
 3067THSLK    S 3046  34.083   9.086   8.136
 3068ETHY    C1 3047  33.811   8.771   8.327
 3069ETHY    C1 3048  33.533   8.420   8.633
 3070ETHY    C1 3049  33.317   8.112   9.019
 3071ETHY    C1 3050  33.161   7.850   9.473
 3072AUSL   AUS 3051  34.677   8.999   7.663
 3073AUSL   AUS 3052  34.374   8.999   7.336
 3074AUL    AUL 3053  34.525   8.691   7.500
 3075THSLK    S 3054  34.324   8.752   7.261
 3076ETHY    C1 3055  34.111   8.354   7.192
 3077ETHY    C1 3056  33.939   7.852   7.076
 3078ETHY    C1 3057  33.873   7.338   6.927
 3079ETHY    C1 3058  33.904   6.821   6.754
 3080THSLK    S 3059  34.638   8.740   7.748
 3081ETHY    C1 3060  34.566   8.295   7.829
 3082ETHY    C1 3061  34.569   7.766   7.948
 3083ETHY    C1 3062  34.678   7.258   8.095
 3084ETHY    C1 3063  34.880   6.780   8.264
 3085AUSL   AUS 3064  34.525  10.253   7.091
 3086AUSL   AUS 3065  34.942  10.183   7.236
 3087AUL    AUL 3066  34.829  10.467   7.009
 3088THSLK    S 3067  34.567  10.487   6.971
 3089ETHY    C1 3068  34.694  10.812   6.676
 3090ETHY    C1 3069  34.768  11.242   6.353
 3091ETHY    C1 3070  34.749  11.707   6.080
 3092ETHY    C1 3071  34.646  12.195   5.857
 3093THSLK    S 3072  35.129  10.308   7.081
 3094ETHY    C1 3073  35.486  10.500   6.869
 3095ETHY    C1 3074  35.861  10.806   6.623
 3096ETHY    C1 3075  36.162  11.193   6.398
 3097ETHY    C1 3076  36.392  11.645   6.197
 3098AUSL   AUS 3077  34.374  10.346   7.336
 3099AUSL   AUS 3078  34.261  10.089   6.990
 3100AUL    AUL 3079  34.222  10.467   7.009
 3101THSLK    S 3080  34.413  10.600   7.233
 3102ETHY    C1 3081  34.485  11.023   7.074
 3103ETHY    C1 3082  34.482  11.539   6.906
 3104ETHY    C1 3083  34.373  12.049   6.770
 3105ETHY    C1 3084  34.171  12.547   6.670
 3106THSLK    S 3085  34.142  10.226   6.800
 3107ETHY    C1 3086  34.046  10.420   6.396
 3108ETHY    C1 3087  33.869  10.698   5.966
 3109ETHY    C1 3088  33.626  11.023   5.611
 3110ETHY    C1 3089  33.330  11.388   5.330
 3111AUSL   AUS 3090  34.525   9.092   7.091
 3112AUSL   AUS 3091  34.109   9.162   7.236
 3113AUL    AUL 3092  34.222   8.878   7.009
 3114THSLK    S 3093  33.924   9.009   7.122
 3115ETHY    C1 3094  33.567   8.735   7.044
 3116ETHY    C1 3095  33.190   8.381   6.878
 3117ETHY    C1 3096  32.888   8.007   6.633
 3118ETHY    C1 3097  32.661   7.620   6.321
 3119THSLK    S 3098  34.487   8.832   7.013
 3120ETHY    C1 3099  34.359   8.424   6.852
 3121ETHY    C1 3100  34.283   7.945   6.609
 3122ETHY    C1 3101  34.302   7.493   6.315
 3123ETHY    C1 3102  34.408   7.072   5.983
 3124AUSL   AUS 3103  34.677   8.999   7.336
 3125AUSL   AUS 3104  34.790   9.256   6.990
 3126AUL    AUL 3105  34.829   8.878   7.009
 3127THSLK    S 3106  34.640   8.739   7.258
 3128ETHY    C1 3107  34.567   8.294   7.175
 3129ETHY    C1 3108  34.569   7.766   7.052
 3130ETHY    C1 3109  34.677   7.258   6.905
 3131ETHY    C1 3110  34.882   6.779   6.742
 3132THSLK    S 3111  34.913   9.066   6.847
 3133ETHY    C1 3112  35.008   8.698   6.592
 3134ETHY    C1 3113  35.182   8.317   6.247
 3135ETHY    C1 3114  35.424   8.017   5.870
 3136ETHY    C1 3115  35.725   7.796   5.471
 3137AUC    AUC 3116  13.882   7.772   7.500
 3138AUC    AUC 3117  14.128   7.772   7.348
 3139AUC    AUC 3118  14.128   7.772   7.651
 3140AUC    AUC 3119  13.637   7.772   7.348
 3141AUC    AUC 3120  13.637   7.772   7.651
 3142AUC    AUC 3121  13.731   8.017   7.500
 3143AUC    AUC 3122  14.034   8.017   7.500
 3144AUC    AUC 3123  13.731   7.526   7.500
 3145AUC    AUC 3124  14.034   7.526   7.500
 3146AUC    AUC 3125  13.882   7.620   7.745
 3147AUC    AUC 3126  13.882   7.923   7.745
 3148AUC    AUC 3127  13.882   7.620   7.254
 3149AUC    AUC 3128  13.882   7.923   7.254
 3150AUC    AUC 3129  14.373   7.772   7.196
 3151AUC    AUC 3130  14.373   7.772   7.500
 3152AUC    AUC 3131  14.373   7.772   7.803
 3153AUC    AUC 3132  13.391   7.772   7.196
 3154AUC    AUC 3133  13.391   7.772   7.500
 3155AUC    AUC 3134  13.391   7.772   7.803
 3156AUC    AUC 3135  13.579   8.262   7.500
 3157AUC    AUC 3136  13.882   8.262   7.500
 3158AUC    AUC 3137  14.186   8.262   7.500
 3159AUC    AUC 3138  13.579   7.281   7.500
 3160AUC    AUC 3139  13.882   7.281   7.500
 3161AUC    AUC 3140  14.186   7.281   7.500
 3162AUC    AUC 3141  13.882   7.468   7.991
 3163AUC    AUC 3142  13.882   7.772   7.991
 3164AUC    AUC 3143  13.882   8.075   7.991
 3165AUC    AUC 3144  13.882   7.468   7.009
 3166AUC    AUC 3145  13.882   7.772   7.009
 3167AUC    AUC 3146  13.882   8.075   7.009
 3168AUC    AUC 3147  14.128   7.620   7.897
 3169AUC    AUC 3148  14.128   7.923   7.897
 3170AUC    AUC 3149  14.128   7.620   7.103
 3171AUC    AUC 3150  14.128   7.923   7.103
 3172AUC    AUC 3151  13.637   7.620   7.897
 3173AUC    AUC 3152  13.637   7.923   7.897
 3174AUC    AUC 3153  13.637   7.620   7.103
 3175AUC    AUC 3154  13.637   7.923   7.103
 3176AUC    AUC 3155  14.279   8.017   7.348
 3177AUC    AUC 3156  14.279   8.017   7.651
 3178AUC    AUC 3157  13.485   8.017   7.348
 3179AUC    AUC 3158  13.485   8.017   7.651
 3180AUC    AUC 3159  14.279   7.526   7.348
 3181AUC    AUC 3160  14.279   7.526   7.651
 3182AUC    AUC 3161  13.485   7.526   7.348
 3183AUC    AUC 3162  13.485   7.526   7.651
 3184AUC    AUC 3163  13.731   8.169   7.745
 3185AUC    AUC 3164  14.034   8.169   7.745
 3186AUC    AUC 3165  13.731   7.374   7.745
 3187AUC    AUC 3166  14.034   7.374   7.745
 3188AUC    AUC 3167  13.731   8.169   7.254
 3189AUC    AUC 3168  14.034   8.169   7.254
 3190AUC    AUC 3169  13.731   7.374   7.254
 3191AUC    AUC 3170  14.034   7.374   7.254
 3192AUSL   AUS 3171  14.291   7.772   8.080
 3193AUSL   AUS 3172  14.147   7.355   8.011
 3194AUL    AUL 3173  14.373   7.468   8.294
 3195THSLK    S 3174  14.265   7.167   8.156
 3196ETHY    C1 3175  14.361   6.799   8.412
 3197ETHY    C1 3176  14.539   6.416   8.753
 3198ETHY    C1 3177  14.781   6.116   9.130
 3199ETHY    C1 3178  15.077   5.897   9.534
 3200THSLK    S 3179  14.390   7.725   8.327
 3201ETHY    C1 3180  14.617   7.575   8.694
 3202ETHY    C1 3181  14.901   7.487   9.148
 3203ETHY    C1 3182  15.185   7.509   9.607
 3204ETHY    C1 3183  15.462   7.631  10.061
 3205AUSL   AUS 3184  14.046   7.620   8.173
 3206AUSL   AUS 3185  13.719   7.923   8.173
 3207AUL    AUL 3186  13.882   7.772   8.482
 3208THSLK    S 3187  14.127   7.569   8.418
 3209ETHY    C1 3188  14.217   7.351   8.810
 3210ETHY    C1 3189  14.345   7.177   9.308
 3211ETHY    C1 3190  14.491   7.112   9.823
 3212ETHY    C1 3191  14.648   7.146  10.346
 3213THSLK    S 3192  13.632   7.883   8.432
 3214ETHY    C1 3193  13.543   7.809   8.874
 3215ETHY    C1 3194  13.419   7.811   9.403
 3216ETHY    C1 3195  13.274   7.920   9.912
 3217ETHY    C1 3196  13.111   8.124  10.392
 3218AUSL   AUS 3197  14.046   7.923   8.173
 3219AUSL   AUS 3198  14.392   8.036   7.916
 3220AUL    AUL 3199  14.373   8.075   8.294
 3221THSLK    S 3200  14.133   7.975   8.416
 3222ETHY    C1 3201  14.221   8.192   8.809
 3223ETHY    C1 3202  14.346   8.365   9.308
 3224ETHY    C1 3203  14.491   8.431   9.823
 3225ETHY    C1 3204  14.654   8.398  10.345
 3226THSLK    S 3205  14.568   8.142   8.079
 3227ETHY    C1 3206  14.930   8.192   8.355
 3228ETHY    C1 3207  15.337   8.341   8.681
 3229ETHY    C1 3208  15.699   8.590   8.995
 3230ETHY    C1 3209  16.011   8.926   9.293
 3231AUSL   AUS 3210  14.291   7.772   6.920
 3232AUSL   AUS 3211  14.147   8.188   6.990
 3233AUL    AUL 3212  14.373   8.075   6.706
 3234THSLK    S 3213  14.395   7.725   6.676
 3235ETHY    C1 3214  14.622   7.575   6.308
 3236ETHY    C1 3215  14.901   7.487   5.851
 3237ETHY    C1 3216  15.185   7.509   5.393
 3238ETHY    C1 3217  15.467   7.631   4.941
 3239THSLK    S 3218  14.324   8.307   6.820
 3240ETHY    C1 3219  14.596   8.448   6.480
 3241ETHY    C1 3220  14.874   8.695   6.085
 3242ETHY    C1 3221  15.090   9.028   5.720
 3243ETHY    C1 3222  15.247   9.435   5.391
 3244AUSL   AUS 3223  14.046   7.620   6.826
 3245AUSL   AUS 3224  14.392   7.507   7.083
 3246AUL    AUL 3225  14.373   7.468   6.706
 3247THSLK    S 3226  14.532   7.316   6.939
 3248ETHY    C1 3227  14.765   6.999   6.707
 3249ETHY    C1 3228  15.095   6.692   6.403
 3250ETHY    C1 3229  15.475   6.483   6.083
 3251ETHY    C1 3230  15.896   6.366   5.754
 3252THSLK    S 3231  14.133   7.568   6.583
 3253ETHY    C1 3232  14.221   7.351   6.191
 3254ETHY    C1 3233  14.346   7.178   5.692
 3255ETHY    C1 3234  14.491   7.112   5.176
 3256ETHY    C1 3235  14.654   7.145   4.656
 3257AUSL   AUS 3236  14.046   7.923   6.826
 3258AUSL   AUS 3237  13.719   7.620   6.826
 3259AUL    AUL 3238  13.882   7.772   6.518
 3260THSLK    S 3239  13.623   7.568   6.586
 3261ETHY    C1 3240  13.484   7.353   6.206
 3262ETHY    C1 3241  13.327   7.182   5.717
 3263ETHY    C1 3242  13.188   7.116   5.199
 3264ETHY    C1 3243  13.072   7.147   4.666
 3265THSLK    S 3244  14.148   7.884   6.572
 3266ETHY    C1 3245  14.285   7.807   6.142
 3267ETHY    C1 3246  14.438   7.807   5.622
 3268ETHY    C1 3247  14.576   7.916   5.112
 3269ETHY    C1 3248  14.699   8.123   4.621
 3270AUSL   AUS 3249  13.473   7.772   8.080
 3271AUSL   AUS 3250  13.618   8.188   8.011
 3272AUL    AUL 3251  13.391   8.075   8.294
 3273THSLK    S 3252  13.369   7.725   8.325
 3274ETHY    C1 3253  13.143   7.575   8.691
 3275ETHY    C1 3254  12.863   7.487   9.148
 3276ETHY    C1 3255  12.580   7.509   9.607
 3277ETHY    C1 3256  12.297   7.631  10.058
 3278THSLK    S 3257  13.495   8.321   8.201
 3279ETHY    C1 3258  13.399   8.516   8.604
 3280ETHY    C1 3259  13.226   8.797   9.034
 3281ETHY    C1 3260  12.983   9.123   9.390
 3282ETHY    C1 3261  12.682   9.482   9.671
 3283AUSL   AUS 3262  13.719   7.620   8.173
 3284AUSL   AUS 3263  13.372   7.507   7.916
 3285AUL    AUL 3264  13.391   7.468   8.294
 3286THSLK    S 3265  13.193   7.341   8.032
 3287ETHY    C1 3266  12.832   7.094   8.166
 3288ETHY    C1 3267  12.427   6.828   8.410
 3289ETHY    C1 3268  12.066   6.608   8.745
 3290ETHY    C1 3269  11.750   6.435   9.156
 3291THSLK    S 3270  13.617   7.570   8.413
 3292ETHY    C1 3271  13.479   7.355   8.793
 3293ETHY    C1 3272  13.326   7.182   9.284
 3294ETHY    C1 3273  13.189   7.116   9.800
 3295ETHY    C1 3274  13.065   7.148  10.332
 3296AUSL   AUS 3275  13.473   7.772   6.920
 3297AUSL   AUS 3276  13.618   7.355   6.990
 3298AUL    AUL 3277  13.391   7.468   6.706
 3299THSLK    S 3278  13.374   7.725   6.673
 3300ETHY    C1 3279  13.147   7.575   6.305
 3301ETHY    C1 3280  12.864   7.487   5.851
 3302ETHY    C1 3281  12.580   7.509   5.393
 3303ETHY    C1 3282  12.303   7.631   4.938
 3304THSLK    S 3283  13.444   7.180   6.865
 3305ETHY    C1 3284  13.172   6.867   6.673
 3306ETHY    C1 3285  12.891   6.519   6.367
 3307ETHY    C1 3286  12.674   6.211   5.980
 3308ETHY    C1 3287  12.522   5.944   5.528
 3309AUSL   AUS 3288  13.719   7.923   6.826
 3310AUSL   AUS 3289  13.372   8.036   7.083
 3311AUL    AUL 3290  13.391   8.075   6.706
 3312THSLK    S 3291  13.236   8.167   6.893
 3313ETHY    C1 3292  13.002   8.288   6.518
 3314ETHY    C1 3293  12.670   8.476   6.132
 3315ETHY    C1 3294  12.290   8.715   5.833
 3316ETHY    C1 3295  11.873   8.995   5.618
 3317THSLK    S 3296  13.638   7.885   6.566
 3318ETHY    C1 3297  13.548   7.810   6.124
 3319ETHY    C1 3298  13.420   7.811   5.597
 3320ETHY    C1 3299  13.274   7.920   5.089
 3321ETHY    C1 3300  13.117   8.126   4.608
 3322AUSL   AUS 3301  14.462   8.181   7.500
 3323AUSL   AUS 3302  14.392   8.036   7.083
 3324AUL    AUL 3303  14.676   8.262   7.196
 3325THSLK    S 3304  14.572   8.143   6.925
 3326ETHY    C1 3305  14.933   8.193   6.648
 3327ETHY    C1 3306  15.337   8.341   6.319
 3328ETHY    C1 3307  15.699   8.590   6.005
 3329ETHY    C1 3308  16.015   8.927   5.713
 3330THSLK    S 3309  14.732   8.242   7.503
 3331ETHY    C1 3310  15.179   8.342   7.502
 3332ETHY    C1 3311  15.681   8.548   7.500
 3333ETHY    C1 3312  16.128   8.850   7.500
 3334ETHY    C1 3313  16.516   9.234   7.503
 3335AUSL   AUS 3314  14.556   7.935   7.348
 3336AUSL   AUS 3315  14.556   7.608   7.651
 3337AUL    AUL 3316  14.864   7.772   7.500
 3338THSLK    S 3317  14.818   7.982   7.345
 3339ETHY    C1 3318  15.268   7.951   7.270
 3340ETHY    C1 3319  15.800   8.006   7.179
 3341ETHY    C1 3320  16.307   8.169   7.091
 3342ETHY    C1 3321  16.782   8.427   7.011
 3343THSLK    S 3322  14.793   7.471   7.659
 3344ETHY    C1 3323  15.164   7.213   7.726
 3345ETHY    C1 3324  15.650   6.987   7.808
 3346ETHY    C1 3325  16.169   6.867   7.896
 3347ETHY    C1 3326  16.707   6.845   7.989
 3348AUSL   AUS 3327  14.556   7.935   7.651
 3349AUSL   AUS 3328  14.299   8.282   7.764
 3350AUL    AUL 3329  14.676   8.262   7.803
 3351THSLK    S 3330  14.484   8.406   7.924
 3352ETHY    C1 3331  14.841   8.598   8.136
 3353ETHY    C1 3332  15.218   8.905   8.377
 3354ETHY    C1 3333  15.519   9.292   8.602
 3355ETHY    C1 3334  15.746   9.743   8.809
 3356THSLK    S 3335  14.817   7.981   7.661
 3357ETHY    C1 3336  15.268   7.951   7.734
 3358ETHY    C1 3337  15.801   8.006   7.821
 3359ETHY    C1 3338  16.307   8.169   7.908
 3360ETHY    C1 3339  16.781   8.427   7.995
 3361AUSL   AUS 3340  13.302   8.181   7.500
 3362AUSL   AUS 3341  13.372   8.036   7.916
 3363AUL    AUL 3342  13.088   8.262   7.803
 3364THSLK    S 3343  13.232   8.162   8.107
 3365ETHY    C1 3344  12.999   8.283   8.482
 3366ETHY    C1 3345  12.670   8.476   8.868
 3367ETHY    C1 3346  12.290   8.715   9.166
 3368ETHY    C1 3347  11.869   8.990   9.381
 3369THSLK    S 3348  13.081   8.321   7.503
 3370ETHY    C1 3349  12.792   8.676   7.502
 3371ETHY    C1 3350  12.384   9.033   7.500
 3372ETHY    C1 3351  11.914   9.297   7.500
 3373ETHY    C1 3352  11.396   9.473   7.503
 3374AUSL   AUS 3353  13.209   7.935   7.348
 3375AUSL   AUS 3354  13.466   8.282   7.236
 3376AUL    AUL 3355  13.088   8.262   7.196
 3377THSLK    S 3356  12.972   8.049   7.303
 3378ETHY    C1 3357  12.600   8.223   7.101
 3379ETHY    C1 3358  12.114   8.399   6.936
 3380ETHY    C1 3359  11.596   8.531   6.868
 3381ETHY    C1 3360  11.058   8.623   6.890
 3382THSLK    S 3361  13.346   8.449   7.056
 3383ETHY    C1 3362  13.194   8.768   6.765
 3384ETHY    C1 3363  12.940   9.148   6.473
 3385ETHY    C1 3364  12.607   9.516   6.260
 3386ETHY    C1 3365  12.211   9.866   6.122
 3387AUSL   AUS 3366  13.209   7.935   7.651
 3388AUSL   AUS 3367  13.209   7.608   7.348
 3389AUL    AUL 3368  12.901   7.772   7.500
 3390THSLK    S 3369  12.947   7.533   7.384
 3391ETHY    C1 3370  12.497   7.482   7.446
 3392ETHY    C1 3371  11.964   7.379   7.434
 3393ETHY    C1 3372  11.457   7.229   7.327
 3394ETHY    C1 3373  10.984   7.036   7.135
 3395THSLK    S 3374  12.971   8.043   7.699
 3396ETHY    C1 3375  12.600   8.219   7.901
 3397ETHY    C1 3376  12.114   8.398   8.063
 3398ETHY    C1 3377  11.596   8.531   8.133
 3399ETHY    C1 3378  11.057   8.617   8.114
 3400AUSL   AUS 3379  14.462   7.362   7.500
 3401AUSL   AUS 3380  14.392   7.507   7.916
 3402AUL    AUL 3381  14.676   7.281   7.803
 3403THSLK    S 3382  14.683   7.222   7.503
 3404ETHY    C1 3383  14.972   6.867   7.502
 3405ETHY    C1 3384  15.381   6.510   7.500
 3406ETHY    C1 3385  15.851   6.246   7.500
 3407ETHY    C1 3386  16.368   6.070   7.503
 3408THSLK    S 3387  14.529   7.317   8.066
 3409ETHY    C1 3388  14.762   7.000   8.297
 3410ETHY    C1 3389  15.095   6.693   8.598
 3411ETHY    C1 3390  15.475   6.483   8.918
 3412ETHY    C1 3391  15.892   6.367   9.250
 3413AUSL   AUS 3392  14.556   7.608   7.348
 3414AUSL   AUS 3393  14.299   7.261   7.236
 3415AUL    AUL 3394  14.676   7.281   7.196
 3416THSLK    S 3395  14.794   7.471   7.346
 3417ETHY    C1 3396  15.165   7.213   7.279
 3418ETHY    C1 3397  15.650   6.987   7.192
 3419ETHY    C1 3398  16.169   6.867   7.103
 3420ETHY    C1 3399  16.708   6.845   7.018
 3421THSLK    S 3400  14.422   7.070   7.099
 3422ETHY    C1 3401  14.572   6.668   6.942
 3423ETHY    C1 3402  14.825   6.238   6.728
 3424ETHY    C1 3403  15.157   5.882   6.495
 3425ETHY    C1 3404  15.556   5.601   6.249
 3426AUSL   AUS 3405  13.302   7.362   7.500
 3427AUSL   AUS 3406  13.372   7.507   7.083
 3428AUL    AUL 3407  13.088   7.281   7.196
 3429THSLK    S 3408  13.197   7.336   6.966
 3430ETHY    C1 3409  12.835   7.090   6.833
 3431ETHY    C1 3410  12.427   6.827   6.589
 3432ETHY    C1 3411  12.066   6.608   6.255
 3433ETHY    C1 3412  11.754   6.430   5.843
 3434THSLK    S 3413  13.032   7.301   7.503
 3435ETHY    C1 3414  12.586   7.201   7.502
 3436ETHY    C1 3415  12.084   6.995   7.500
 3437ETHY    C1 3416  11.637   6.693   7.500
 3438ETHY    C1 3417  11.249   6.309   7.503
 3439AUSL   AUS 3418  13.209   7.608   7.651
 3440AUSL   AUS 3419  13.466   7.261   7.764
 3441AUL    AUL 3420  13.088   7.281   7.803
 3442THSLK    S 3421  13.278   7.113   7.881
 3443ETHY    C1 3422  12.922   6.837   7.958
 3444ETHY    C1 3423  12.547   6.480   8.122
 3445ETHY    C1 3424  12.246   6.106   8.367
 3446ETHY    C1 3425  12.015   5.724   8.682
 3447THSLK    S 3426  12.946   7.538   7.618
 3448ETHY    C1 3427  12.496   7.486   7.557
 3449ETHY    C1 3428  11.964   7.380   7.566
 3450ETHY    C1 3429  11.457   7.229   7.673
 3451ETHY    C1 3430  10.983   7.041   7.867
 3452AUSL   AUS 3431  13.882   8.352   7.909
 3453AUSL   AUS 3432  13.466   8.282   7.764
 3454AUL    AUL 3433  13.579   8.566   7.991
 3455THSLK    S 3434  13.343   8.444   7.948
 3456ETHY    C1 3435  13.192   8.764   8.237
 3457ETHY    C1 3436  12.939   9.147   8.527
 3458ETHY    C1 3437  12.607   9.515   8.740
 3459ETHY    C1 3438  12.208   9.861   8.881
 3460THSLK    S 3439  13.920   8.583   8.034
 3461ETHY    C1 3440  14.048   8.909   8.327
 3462ETHY    C1 3441  14.125   9.341   8.646
 3463ETHY    C1 3442  14.106   9.806   8.920
 3464ETHY    C1 3443  14.000  10.291   9.147
 3465AUSL   AUS 3444  13.731   8.445   7.663
 3466AUSL   AUS 3445  14.034   8.445   7.336
 3467AUL    AUL 3446  13.882   8.753   7.500
 3468THSLK    S 3447  13.768   8.697   7.772
 3469ETHY    C1 3448  13.841   9.121   7.929
 3470ETHY    C1 3449  13.838   9.637   8.095
 3471ETHY    C1 3450  13.730  10.148   8.229
 3472ETHY    C1 3451  13.526  10.644   8.336
 3473THSLK    S 3452  14.085   8.685   7.237
 3474ETHY    C1 3453  14.298   9.062   7.091
 3475ETHY    C1 3454  14.468   9.551   6.929
 3476ETHY    C1 3455  14.535  10.069   6.792
 3477ETHY    C1 3456  14.506  10.603   6.682
 3478AUSL   AUS 3457  14.034   8.445   7.663
 3479AUSL   AUS 3458  14.147   8.188   8.011
 3480AUL    AUL 3459  14.186   8.566   7.991
 3481THSLK    S 3460  14.320   8.305   8.184
 3482ETHY    C1 3461  14.593   8.446   8.522
 3483ETHY    C1 3462  14.874   8.695   8.915
 3484ETHY    C1 3463  15.090   9.028   9.279
 3485ETHY    C1 3464  15.242   9.433   9.614
 3486THSLK    S 3465  14.084   8.683   7.768
 3487ETHY    C1 3466  14.297   9.062   7.913
 3488ETHY    C1 3467  14.468   9.551   8.072
 3489ETHY    C1 3468  14.535  10.069   8.207
 3490ETHY    C1 3469  14.504  10.602   8.325
 3491AUSL   AUS 3470  13.882   7.191   7.909
 3492AUSL   AUS 3471  14.299   7.261   7.764
 3493AUL    AUL 3472  14.186   6.977   7.991
 3494THSLK    S 3473  13.841   6.934   7.992
 3495ETHY    C1 3474  13.714   6.525   8.152
 3496ETHY    C1 3475  13.640   6.044   8.391
 3497ETHY    C1 3476  13.659   5.592   8.684
 3498ETHY    C1 3477  13.761   5.174   9.021
 3499THSLK    S 3478  14.419   7.071   7.907
 3500ETHY    C1 3479  14.570   6.669   8.062
 3501ETHY    C1 3480  14.825   6.238   8.272
 3502ETHY    C1 3481  15.157   5.882   8.505
 3503ETHY    C1 3482  15.553   5.603   8.758
 3504AUSL   AUS 3483  13.731   7.098   7.663
 3505AUSL   AUS 3484  13.618   7.355   8.011
 3506AUL    AUL 3485  13.579   6.977   7.991
 3507THSLK    S 3486  13.680   6.853   7.744
 3508ETHY    C1 3487  13.467   6.454   7.812
 3509ETHY    C1 3488  13.296   5.951   7.925
 3510ETHY    C1 3489  13.230   5.437   8.072
 3511ETHY    C1 3490  13.259   4.922   8.252
 3512THSLK    S 3491  13.440   7.185   8.136
 3513ETHY    C1 3492  13.168   6.870   8.327
 3514ETHY    C1 3493  12.890   6.519   8.633
 3515ETHY    C1 3494  12.674   6.211   9.019
 3516ETHY    C1 3495  12.518   5.949   9.473
 3517AUSL   AUS 3496  14.034   7.098   7.663
 3518AUSL   AUS 3497  13.731   7.098   7.336
 3519AUL    AUL 3498  13.882   6.790   7.500
 3520THSLK    S 3499  13.681   6.851   7.261
 3521ETHY    C1 3500  13.468   6.453   7.192
 3522ETHY    C1 3501  13.296   5.951   7.076
 3523ETHY    C1 3502  13.230   5.437   6.927
 3524ETHY    C1 3503  13.261   4.920   6.754
 3525THSLK    S 3504  13.995   6.839   7.748
 3526ETHY    C1 3505  13.923   6.394   7.829
 3527ETHY    C1 3506  13.926   5.865   7.948
 3528ETHY    C1 3507  14.035   5.357   8.095
 3529ETHY    C1 3508  14.237   4.879   8.264
 3530AUSL   AUS 3509  13.882   8.352   7.091
 3531AUSL   AUS 3510  14.299   8.282   7.236
 3532AUL    AUL 3511  14.186   8.566   7.009
 3533THSLK    S 3512  13.924   8.586   6.971
 3534ETHY    C1 3513  14.051   8.911   6.676
 3535ETHY    C1 3514  14.125   9.341   6.353
 3536ETHY    C1 3515  14.106   9.806   6.080
 3537ETHY    C1 3516  14.003  10.294   5.857
 3538THSLK    S 3517  14.486   8.407   7.081
 3539ETHY    C1 3518  14.843   8.599   6.869
 3540ETHY    C1 3519  15.218   8.905   6.623
 3541ETHY    C1 3520  15.519   9.292   6.398
 3542ETHY    C1 3521  15.749   9.744   6.197
 3543AUSL   AUS 3522  13.731   8.445   7.336
 3544AUSL   AUS 3523  13.618   8.188   6.990
 3545AUL    AUL 3524  13.579   8.566   7.009
 3546THSLK    S 3525  13.770   8.699   7.233
 3547ETHY    C1 3526  13.842   9.122   7.074
 3548ETHY    C1 3527  13.839   9.638   6.906
 3549ETHY    C1 3528  13.730  10.148   6.770
 3550ETHY    C1 3529  13.528  10.646   6.670
 3551THSLK    S 3530  13.499   8.325   6.800
 3552ETHY    C1 3531  13.403   8.519   6.396
 3553ETHY    C1 3532  13.226   8.797   5.966
 3554ETHY    C1 3533  12.983   9.122   5.611
 3555ETHY    C1 3534  12.687   9.487   5.330
 3556AUSL   AUS 3535  13.882   7.191   7.091
 3557AUSL   AUS 3536  13.466   7.261   7.236
 3558AUL    AUL 3537  13.579   6.977   7.009
 3559THSLK    S 3538  13.281   7.108   7.122
 3560ETHY    C1 3539  12.924   6.834   7.044
 3561ETHY    C1 3540  12.547   6.480   6.878
 3562ETHY    C1 3541  12.245   6.106   6.633
 3563ETHY    C1 3542  12.018   5.719   6.321
 3564THSLK    S 3543  13.844   6.931   7.013
 3565ETHY    C1 3544  13.716   6.523   6.852
 3566ETHY    C1 3545  13.640   6.044   6.609
 3567ETHY    C1 3546  13.659   5.592   6.315
 3568ETHY    C1 3547  13.765   5.171   5.983
 3569AUSL   AUS 3548  14.034   7.098   7.336
 3570AUSL   AUS 3549  14.147   7.355   6.990
 3571AUL    AUL 3550  14.186   6.977   7.009
 3572THSLK    S 3551  13.997   6.838   7.258
 3573ETHY    C1 3552  13.924   6.393   7.175
 3574ETHY    C1 3553  13.926   5.865   7.052
 3575ETHY    C1 3554  14.034   5.357   6.905
 3576ETHY    C1 3555  14.239   4.878   6.742
 3577THSLK    S 3556  14.270   7.165   6.847
 3578ETHY    C1 3557  14.365   6.797   6.592
 3579ETHY    C1 3558  14.539   6.416   6.247
 3580ETHY    C1 3559  14.781   6.116   5.870
 3581ETHY    C1 3560  15.082   5.895   5.471
 3582AUC    AUC 3561   9.793  13.704   7.500
 3583AUC    AUC 3562  10.039  13.704   7.348
 3584AUC    AUC 3563  10.039  13.704   7.651
 3585AUC    AUC 3564   9.548  13.704   7.348
 3586AUC    AUC 3565   9.548  13.704   7.651
 3587AUC    AUC 3566   9.642  13.949   7.500
 3588AUC    AUC 3567   9.945  13.949   7.500
 3589AUC    AUC 3568   9.642  13.458   7.500
 3590AUC    AUC 3569   9.945  13.458   7.500
 3591AUC    AUC 3570   9.793  13.552   7.745
 3592AUC    AUC 3571   9.793  13.855   7.745
 3593AUC    AUC 3572   9.793  13.552   7.254
 3594AUC    AUC 3573   9.793  13.855   7.254
 3595AUC    AUC 3574  10.284  13.704   7.196
 3596AUC    AUC 3575  10.284  13.704   7.500
 3597AUC    AUC 3576  10.284  13.704   7.803
 3598AUC    AUC 3577   9.302  13.704   7.196
 3599AUC    AUC 3578   9.302  13.704   7.500
 3600AUC    AUC 3579   9.302  13.704   7.803
 3601AUC    AUC 3580   9.490  14.194   7.500
 3602AUC    AUC 3581   9.793  14.194   7.500
 3603AUC    AUC 3582  10.097  14.194   7.500
 3604AUC    AUC 3583   9.490  13.213   7.500
 3605AUC    AUC 3584   9.793  13.213   7.500
 3606AUC    AUC 3585  10.097  13.213   7.500
 3607AUC    AUC 3586   9.793  13.400   7.991
 3608AUC    AUC 3587   9.793  13.704   7.991
 3609AUC    AUC 3588   9.793  14.007   7.991
 3610AUC    AUC 3589   9.793  13.400   7.009
 3611AUC    AUC 3590   9.793  13.704   7.009
 3612AUC    AUC 3591   9.793  14.007   7.009
 3613AUC    AUC 3592  10.039  13.552   7.897
 3614AUC    AUC 3593  10.039  13.855   7.897
 3615AUC    AUC 3594  10.039  13.552   7.103
 3616AUC    AUC 3595  10.039  13.855   7.103
 3617AUC    AUC 3596   9.548  13.552   7.897
 3618AUC    AUC 3597   9.548  13.855   7.897
 3619AUC    AUC 3598   9.548  13.552   7.103
 3620AUC    AUC 3599   9.548  13.855   7.103
 3621AUC    AUC 3600  10.190  13.949   7.348
 3622AUC    AUC 3601  10.190  13.949   7.651
 3623AUC    AUC 3602   9.396  13.949   7.348
 3624AUC    AUC 3603   9.396  13.949   7.651
 3625AUC    AUC 3604  10.190  13.458   7.348
 3626AUC    AUC 3605  10.190  13.458   7.651
 3627AUC    AUC 3606   9.396  13.458   7.348
 3628AUC    AUC 3607   9.396  13.458   7.651
 3629AUC    AUC 3608   9.642  14.101   7.745
 3630AUC    AUC 3609   9.945  14.101   7.745
 3631AUC    AUC 3610   9.642  13.306   7.745
 3632AUC    AUC 3611   9.945  13.306   7.745
 3633AUC    AUC 3612   9.642  14.101   7.254
 3634AUC    AUC 3613   9.945  14.101   7.254
 3635AUC    AUC 3614   9.642  13.306   7.254
 3636AUC    AUC 3615   9.945  13.306   7.254
 3637AUSL   AUS 3616  10.202  13.704   8.080
 3638AUSL   AUS 3617  10.058  13.287   8.011
 3639AUL    AUL 3618  10.284  13.400   8.294
 3640THSLK    S 3619  10.176  13.099   8.156
 3641ETHY    C1 3620  10.272  12.731   8.412
 3642ETHY    C1 3621  10.450  12.348   8.753
 3643ETHY    C1 3622  10.692  12.048   9.130
 3644ETHY    C1 3623  10.988  11.829   9.534
 3645THSLK    S 3624  10.301  13.657   8.327
 3646ETHY    C1 3625  10.528  13.507   8.694
 3647ETHY    C1 3626  10.812  13.419   9.148
 3648ETHY    C1 3627  11.096  13.441   9.607
 3649ETHY    C1 3628  11.373  13.563  10.061
 3650AUSL   AUS 3629   9.957  13.552   8.173
 3651AUSL   AUS 3630   9.630  13.855   8.173
 3652AUL    AUL 3631   9.793  13.704   8.482
 3653THSLK    S 3632  10.038  13.501   8.418
 3654ETHY    C1 3633  10.128  13.283   8.810
 3655ETHY    C1 3634  10.256  13.109   9.308
 3656ETHY    C1 3635  10.402  13.044   9.823
 3657ETHY    C1 3636  10.559  13.078  10.346
 3658THSLK    S 3637   9.543  13.815   8.432
 3659ETHY    C1 3638   9.454  13.741   8.874
 3660ETHY    C1 3639   9.330  13.743   9.403
 3661ETHY    C1 3640   9.185  13.852   9.912
 3662ETHY    C1 3641   9.022  14.056  10.392
 3663AUSL   AUS 3642   9.957  13.855   8.173
 3664AUSL   AUS 3643  10.303  13.968   7.916
 3665AUL    AUL 3644  10.284  14.007   8.294
 3666THSLK    S 3645  10.044  13.907   8.416
 3667ETHY    C1 3646  10.132  14.124   8.809
 3668ETHY    C1 3647  10.257  14.297   9.308
 3669ETHY    C1 3648  10.402  14.363   9.823
 3670ETHY    C1 3649  10.565  14.330  10.345
 3671THSLK    S 3650  10.479  14.074   8.079
 3672ETHY    C1 3651  10.841  14.124   8.355
 3673ETHY    C1 3652  11.248  14.273   8.681
 3674ETHY    C1 3653  11.610  14.522   8.995
 3675ETHY    C1 3654  11.922  14.858   9.293
 3676AUSL   AUS 3655  10.202  13.704   6.920
 3677AUSL   AUS 3656  10.058  14.120   6.990
 3678AUL    AUL 3657  10.284  14.007   6.706
 3679THSLK    S 3658  10.306  13.657   6.676
 3680ETHY    C1 3659  10.533  13.507   6.308
 3681ETHY    C1 3660  10.812  13.419   5.851
 3682ETHY    C1 3661  11.096  13.441   5.393
 3683ETHY    C1 3662  11.378  13.563   4.941
 3684THSLK    S 3663  10.235  14.239   6.820
 3685ETHY    C1 3664  10.507  14.380   6.480
 3686ETHY    C1 3665  10.785  14.627   6.085
 3687ETHY    C1 3666  11.001  14.960   5.720
 3688ETHY    C1 3667  11.158  15.367   5.391
 3689AUSL   AUS 3668   9.957  13.552   6.826
 3690AUSL   AUS 3669  10.303  13.439   7.083
 3691AUL    AUL 3670  10.284  13.400   6.706
 3692THSLK    S 3671  10.443  13.248   6.939
 3693ETHY    C1 3672  10.676  12.931   6.707
 3694ETHY    C1 3673  11.006  12.624   6.403
 3695ETHY    C1 3674  11.386  12.415   6.083
 3696ETHY    C1 3675  11.807  12.298   5.754
 3697THSLK    S 3676  10.044  13.500   6.583
 3698ETHY    C1 3677  10.132  13.283   6.191
 3699ETHY    C1 3678  10.257  13.110   5.692
 3700ETHY    C1 3679  10.402  13.044   5.176
 3701ETHY    C1 3680  10.565  13.077   4.656
 3702AUSL   AUS 3681   9.957  13.855   6.826
 3703AUSL   AUS 3682   9.630  13.552   6.826
 3704AUL    AUL 3683   9.793  13.704   6.518
 3705THSLK    S 3684   9.534  13.500   6.586
 3706ETHY    C1 3685   9.395  13.285   6.206
 3707ETHY    C1 3686   9.238  13.114   5.717
 3708ETHY    C1 3687   9.099  13.048   5.199
 3709ETHY    C1 3688   8.983  13.079   4.666
 3710THSLK    S 3689  10.059  13.816   6.572
 3711ETHY    C1 3690  10.196  13.739   6.142
 3712ETHY    C1 3691  10.349  13.739   5.622
 3713ETHY    C1 3692  10.487  13.848   5.112
 3714ETHY    C1 3693  10.610  14.055   4.621
 3715AUSL   AUS 3694   9.384  13.704   8.080
 3716AUSL   AUS 3695   9.529  14.120   8.011
 3717AUL    AUL 3696   9.302  14.007   8.294
 3718THSLK    S 3697   9.280  13.657   8.325
 3719ETHY    C1 3698   9.054  13.507   8.691
 3720ETHY    C1 3699   8.774  13.419   9.148
 3721ETHY    C1 3700   8.491  13.441   9.607
 3722ETHY    C1 3701   8.208  13.563  10.058
 3723THSLK    S 3702   9.406  14.253   8.201
 3724ETHY    C1 3703   9.310  14.448   8.604
 3725ETHY    C1 3704   9.137  14.729   9.034
 3726ETHY    C1 3705   8.894  15.055   9.390
 3727ETHY    C1 3706   8.593  15.414   9.671
 3728AUSL   AUS 3707   9.630  13.552   8.173
 3729AUSL   AUS 3708   9.283  13.439   7.916
 3730AUL    AUL 3709   9.302  13.400   8.294
 3731THSLK    S 3710   9.104  13.273   8.032
 3732ETHY    C1 3711   8.743  13.026   8.166
 3733ETHY    C1 3712   8.338  12.760   8.410
 3734ETHY    C1 3713   7.977  12.540   8.745
 3735ETHY    C1 3714   7.661  12.367   9.156
 3736THSLK    S 3715   9.528  13.502   8.413
 3737ETHY    C1 3716   9.390  13.287   8.793
 3738ETHY    C1 3717   9.237  13.114   9.284
 3739ETHY    C1 3718   9.100  13.048   9.800
 3740ETHY    C1 3719   8.976  13.080  10.332
 3741AUSL   AUS 3720   9.384  13.704   6.920
 3742AUSL   AUS 3721   9.529  13.287   6.990
 3743AUL    AUL 3722   9.302  13.400   6.706
 3744THSLK    S 3723   9.285  13.657   6.673
 3745ETHY    C1 3724   9.058  13.507   6.305
 3746ETHY    C1 3725   8.775  13.419   5.851
 3747ETHY    C1 3726   8.491  13.441   5.393
 3748ETHY    C1 3727   8.214  13.563   4.938
 3749THSLK    S 3728   9.355  13.112   6.865
 3750ETHY    C1 3729   9.083  12.799   6.673
 3751ETHY    C1 3730   8.802  12.451   6.367
 3752ETHY    C1 3731   8.585  12.143   5.980
 3753ETHY    C1 3732   8.433  11.876   5.528
 3754AUSL   AUS 3733   9.630  13.855   6.826
 3755AUSL   AUS 3734   9.283  13.968   7.083
 3756AUL    AUL 3735   9.302  14.007   6.706
 3757THSLK    S 3736   9.147  14.099   6.893
 3758ETHY    C1 3737   8.913  14.220   6.518
 3759ETHY    C1 3738   8.581  14.408   6.132
 3760ETHY    C1 3739   8.201  14.647   5.833
 3761ETHY    C1 3740   7.784  14.927   5.618
 3762THSLK    S 3741   9.549  13.817   6.566
 3763ETHY    C1 3742   9.459  13.742   6.124
 3764ETHY    C1 3743   9.331  13.743   5.597
 3765ETHY    C1 3744   9.185  13.852   5.089
 3766ETHY    C1 3745   9.028  14.058   4.608
 3767AUSL   AUS 3746  10.373  14.113   7.500
 3768AUSL   AUS 3747  10.303  13.968   7.083
 3769AUL    AUL 3748  10.587  14.194   7.196
 3770THSLK    S 3749  10.483  14.075   6.925
 3771ETHY    C1 3750  10.844  14.125   6.648
 3772ETHY    C1 3751  11.248  14.273   6.319
 3773ETHY    C1 3752  11.610  14.522   6.005
 3774ETHY    C1 3753  11.926  14.859   5.713
 3775THSLK    S 3754  10.643  14.174   7.503
 3776ETHY    C1 3755  11.090  14.274   7.502
 3777ETHY    C1 3756  11.592  14.480   7.500
 3778ETHY    C1 3757  12.039  14.782   7.500
 3779ETHY    C1 3758  12.427  15.166   7.503
 3780AUSL   AUS 3759  10.467  13.867   7.348
 3781AUSL   AUS 3760  10.467  13.540   7.651
 3782AUL    AUL 3761  10.775  13.704   7.500
 3783THSLK    S 3762  10.729  13.914   7.345
 3784ETHY    C1 3763  11.179  13.883   7.270
 3785ETHY    C1 3764  11.711  13.938   7.179
 3786ETHY    C1 3765  12.218  14.101   7.091
 3787ETHY    C1 3766  12.693  14.359   7.011
 3788THSLK    S 3767  10.704  13.403   7.659
 3789ETHY    C1 3768  11.075  13.145   7.726
 3790ETHY    C1 3769  11.561  12.919   7.808
 3791ETHY    C1 3770  12.080  12.799   7.896
 3792ETHY    C1 3771  12.618  12.777   7.989
 3793AUSL   AUS 3772  10.467  13.867   7.651
 3794AUSL   AUS 3773  10.210  14.214   7.764
 3795AUL    AUL 3774  10.587  14.194   7.803
 3796THSLK    S 3775  10.395  14.338   7.924
 3797ETHY    C1 3776  10.752  14.530   8.136
 3798ETHY    C1 3777  11.129  14.837   8.377
 3799ETHY    C1 3778  11.430  15.224   8.602
 3800ETHY    C1 3779  11.657  15.675   8.809
 3801THSLK    S 3780  10.728  13.913   7.661
 3802ETHY    C1 3781  11.179  13.883   7.734
 3803ETHY    C1 3782  11.712  13.938   7.821
 3804ETHY    C1 3783  12.218  14.101   7.908
 3805ETHY    C1 3784  12.692  14.359   7.995
 3806AUSL   AUS 3785   9.213  14.113   7.500
 3807AUSL   AUS 3786   9.283  13.968   7.916
 3808AUL    AUL 3787   8.999  14.194   7.803
 3809THSLK    S 3788   9.143  14.094   8.107
 3810ETHY    C1 3789   8.910  14.215   8.482
 3811ETHY    C1 3790   8.581  14.408   8.868
 3812ETHY    C1 3791   8.201  14.647   9.166
 3813ETHY    C1 3792   7.780  14.922   9.381
 3814THSLK    S 3793   8.992  14.253   7.503
 3815ETHY    C1 3794   8.703  14.608   7.502
 3816ETHY    C1 3795   8.295  14.965   7.500
 3817ETHY    C1 3796   7.825  15.229   7.500
 3818ETHY    C1 3797   7.307  15.405   7.503
 3819AUSL   AUS 3798   9.120  13.867   7.348
 3820AUSL   AUS 3799   9.377  14.214   7.236
 3821AUL    AUL 3800   8.999  14.194   7.196
 3822THSLK    S 3801   8.883  13.981   7.303
 3823ETHY    C1 3802   8.511  14.155   7.101
 3824ETHY    C1 3803   8.025  14.331   6.936
 3825ETHY    C1 3804   7.507  14.463   6.868
 3826ETHY    C1 3805   6.969  14.555   6.890
 3827THSLK    S 3806   9.257  14.381   7.056
 3828ETHY    C1 3807   9.105  14.700   6.765
 3829ETHY    C1 3808   8.851  15.080   6.473
 3830ETHY    C1 3809   8.518  15.448   6.260
 3831ETHY    C1 3810   8.122  15.798   6.122
 3832AUSL   AUS 3811   9.120  13.867   7.651
 3833AUSL   AUS 3812   9.120  13.540   7.348
 3834AUL    AUL 3813   8.812  13.704   7.500
 3835THSLK    S 3814   8.858  13.465   7.384
 3836ETHY    C1 3815   8.408  13.414   7.446
 3837ETHY    C1 3816   7.875  13.311   7.434
 3838ETHY    C1 3817   7.368  13.161   7.327
 3839ETHY    C1 3818   6.895  12.968   7.135
 3840THSLK    S 3819   8.882  13.975   7.699
 3841ETHY    C1 3820   8.511  14.151   7.901
 3842ETHY    C1 3821   8.025  14.330   8.063
 3843ETHY    C1 3822   7.507  14.463   8.133
 3844ETHY    C1 3823   6.968  14.549   8.114
 3845AUSL   AUS 3824  10.373  13.294   7.500
 3846AUSL   AUS 3825  10.303  13.439   7.916
 3847AUL    AUL 3826  10.587  13.213   7.803
 3848THSLK    S 3827  10.594  13.154   7.503
 3849ETHY    C1 3828  10.883  12.799   7.502
 3850ETHY    C1 3829  11.292  12.442   7.500
 3851ETHY    C1 3830  11.762  12.178   7.500
 3852ETHY    C1 3831  12.279  12.002   7.503
 3853THSLK    S 3832  10.440  13.249   8.066
 3854ETHY    C1 3833  10.673  12.932   8.297
 3855ETHY    C1 3834  11.006  12.625   8.598
 3856ETHY    C1 3835  11.386  12.415   8.918
 3857ETHY    C1 3836  11.803  12.299   9.250
 3858AUSL   AUS 3837  10.467  13.540   7.348
 3859AUSL   AUS 3838  10.210  13.193   7.236
 3860AUL    AUL 3839  10.587  13.213   7.196
 3861THSLK    S 3840  10.705  13.403   7.346
 3862ETHY    C1 3841  11.076  13.145   7.279
 3863ETHY    C1 3842  11.561  12.919   7.192
 3864ETHY    C1 3843  12.080  12.799   7.103
 3865ETHY    C1 3844  12.619  12.777   7.018
 3866THSLK    S 3845  10.333  13.002   7.099
 3867ETHY    C1 3846  10.483  12.600   6.942
 3868ETHY    C1 3847  10.736  12.170   6.728
 3869ETHY    C1 3848  11.068  11.814   6.495
 3870ETHY    C1 3849  11.467  11.533   6.249
 3871AUSL   AUS 3850   9.213  13.294   7.500
 3872AUSL   AUS 3851   9.283  13.439   7.083
 3873AUL    AUL 3852   8.999  13.213   7.196
 3874THSLK    S 3853   9.108  13.268   6.966
 3875ETHY    C1 3854   8.746  13.022   6.833
 3876ETHY    C1 3855   8.338  12.759   6.589
 3877ETHY    C1 3856   7.977  12.540   6.255
 3878ETHY    C1 3857   7.665  12.362   5.843
 3879THSLK    S 3858   8.943  13.233   7.503
 3880ETHY    C1 3859   8.497  13.133   7.502
 3881ETHY    C1 3860   7.995  12.927   7.500
 3882ETHY    C1 3861   7.548  12.625   7.500
 3883ETHY    C1 3862   7.160  12.241   7.503
 3884AUSL   AUS 3863   9.120  13.540   7.651
 3885AUSL   AUS 3864   9.377  13.193   7.764
 3886AUL    AUL 3865   8.999  13.213   7.803
 3887THSLK    S 3866   9.189  13.045   7.881
 3888ETHY    C1 3867   8.833  12.769   7.958
 3889ETHY    C1 3868   8.458  12.412   8.122
 3890ETHY    C1 3869   8.157  12.038   8.367
 3891ETHY    C1 3870   7.926  11.656   8.682
 3892THSLK    S 3871   8.857  13.470   7.618
 3893ETHY    C1 3872   8.407  13.418   7.557
 3894ETHY    C1 3873   7.875  13.312   7.566
 3895ETHY    C1 3874   7.368  13.161   7.673
 3896ETHY    C1 3875   6.894  12.973   7.867
 3897AUSL   AUS 3876   9.793  14.284   7.909
 3898AUSL   AUS 3877   9.377  14.214   7.764
 3899AUL    AUL 3878   9.490  14.498   7.991
 3900THSLK    S 3879   9.254  14.376   7.948
 3901ETHY    C1 3880   9.103  14.696   8.237
 3902ETHY    C1 3881   8.850  15.079   8.527
 3903ETHY    C1 3882   8.518  15.447   8.740
 3904ETHY    C1 3883   8.119  15.793   8.881
 3905THSLK    S 3884   9.831  14.515   8.034
 3906ETHY    C1 3885   9.959  14.841   8.327
 3907ETHY    C1 3886  10.036  15.273   8.646
 3908ETHY    C1 3887  10.017  15.738   8.920
 3909ETHY    C1 3888   9.911  16.223   9.147
 3910AUSL   AUS 3889   9.642  14.377   7.663
 3911AUSL   AUS 3890   9.945  14.377   7.336
 3912AUL    AUL 3891   9.793  14.685   7.500
 3913THSLK    S 3892   9.679  14.629   7.772
 3914ETHY    C1 3893   9.752  15.053   7.929
 3915ETHY    C1 3894   9.749  15.569   8.095
 3916ETHY    C1 3895   9.641  16.080   8.229
 3917ETHY    C1 3896   9.437  16.576   8.336
 3918THSLK    S 3897   9.996  14.617   7.237
 3919ETHY    C1 3898  10.209  14.994   7.091
 3920ETHY    C1 3899  10.379  15.483   6.929
 3921ETHY    C1 3900  10.446  16.001   6.792
 3922ETHY    C1 3901  10.417  16.535   6.682
 3923AUSL   AUS 3902   9.945  14.377   7.663
 3924AUSL   AUS 3903  10.058  14.120   8.011
 3925AUL    AUL 3904  10.097  14.498   7.991
 3926THSLK    S 3905  10.231  14.237   8.184
 3927ETHY    C1 3906  10.504  14.378   8.522
 3928ETHY    C1 3907  10.785  14.627   8.915
 3929ETHY    C1 3908  11.001  14.960   9.279
 3930ETHY    C1 3909  11.153  15.365   9.614
 3931THSLK    S 3910   9.995  14.615   7.768
 3932ETHY    C1 3911  10.208  14.994   7.913
 3933ETHY    C1 3912  10.379  15.483   8.072
 3934ETHY    C1 3913  10.446  16.001   8.207
 3935ETHY    C1 3914  10.415  16.534   8.325
 3936AUSL   AUS 3915   9.793  13.123   7.909
 3937AUSL   AUS 3916  10.210  13.193   7.764
 3938AUL    AUL 3917  10.097  12.909   7.991
 3939THSLK    S 3918   9.752  12.866   7.992
 3940ETHY    C1 3919   9.625  12.457   8.152
 3941ETHY    C1 3920   9.551  11.976   8.391
 3942ETHY    C1 3921   9.570  11.524   8.684
 3943ETHY    C1 3922   9.672  11.106   9.021
 3944THSLK    S 3923  10.330  13.003   7.907
 3945ETHY    C1 3924  10.481  12.601   8.062
 3946ETHY    C1 3925  10.736  12.170   8.272
 3947ETHY    C1 3926  11.068  11.814   8.505
 3948ETHY    C1 3927  11.464  11.535   8.758
 3949AUSL   AUS 3928   9.642  13.030   7.663
 3950AUSL   AUS 3929   9.529  13.287   8.011
 3951AUL    AUL 3930   9.490  12.909   7.991
 3952THSLK    S 3931   9.591  12.785   7.744
 3953ETHY    C1 3932   9.378  12.386   7.812
 3954ETHY    C1 3933   9.207  11.883   7.925
 3955ETHY    C1 3934   9.141  11.369   8.072
 3956ETHY    C1 3935   9.170  10.854   8.252
 3957THSLK    S 3936   9.351  13.117   8.136
 3958ETHY    C1 3937   9.079  12.802   8.327
 3959ETHY    C1 3938   8.801  12.451   8.633
 3960ETHY    C1 3939   8.585  12.143   9.019
 3961ETHY    C1 3940   8.429  11.881   9.473
 3962AUSL   AUS 3941   9.945  13.030   7.663
 3963AUSL   AUS 3942   9.642  13.030   7.336
 3964AUL    AUL 3943   9.793  12.722   7.500
 3965THSLK    S 3944   9.592  12.783   7.261
 3966ETHY    C1 3945   9.379  12.385   7.192
 3967ETHY    C1 3946   9.207  11.883   7.076
 3968ETHY    C1 3947   9.141  11.369   6.927
 3969ETHY    C1 3948   9.172  10.852   6.754
 3970THSLK    S 3949   9.906  12.771   7.748
 3971ETHY    C1 3950   9.834  12.326   7.829
 3972ETHY    C1 3951   9.837  11.797   7.948
 3973ETHY    C1 3952   9.946  11.289   8.095
 3974ETHY    C1 3953  10.148  10.811   8.264
 3975AUSL   AUS 3954   9.793  14.284   7.091
 3976AUSL   AUS 3955  10.210  14.214   7.236
 3977AUL    AUL 3956  10.097  14.498   7.009
 3978THSLK    S 3957   9.835  14.518   6.971
 3979ETHY    C1 3958   9.962  14.843   6.676
 3980ETHY    C1 3959  10.036  15.273   6.353
 3981ETHY    C1 3960  10.017  15.738   6.080
 3982ETHY    C1 3961   9.914  16.226   5.857
 3983THSLK    S 3962  10.397  14.339   7.081
 3984ETHY    C1 3963  10.754  14.531   6.869
 3985ETHY    C1 3964  11.129  14.837   6.623
 3986ETHY    C1 3965  11.430  15.224   6.398
 3987ETHY    C1 3966  11.660  15.676   6.197
 3988AUSL   AUS 3967   9.642  14.377   7.336
 3989AUSL   AUS 3968   9.529  14.120   6.990
 3990AUL    AUL 3969   9.490  14.498   7.009
 3991THSLK    S 3970   9.681  14.631   7.233
 3992ETHY    C1 3971   9.753  15.054   7.074
 3993ETHY    C1 3972   9.750  15.570   6.906
 3994ETHY    C1 3973   9.641  16.080   6.770
 3995ETHY    C1 3974   9.439  16.578   6.670
 3996THSLK    S 3975   9.410  14.257   6.800
 3997ETHY    C1 3976   9.314  14.451   6.396
 3998ETHY    C1 3977   9.137  14.729   5.966
 3999ETHY    C1 3978   8.894  15.054   5.611
 4000ETHY    C1 3979   8.598  15.419   5.330
 4001AUSL   AUS 3980   9.793  13.123   7.091
 4002AUSL   AUS 3981   9.377  13.193   7.236
 4003AUL    AUL 3982   9.490  12.909   7.009
 4004THSLK    S 3983   9.192  13.040   7.122
 4005ETHY    C1 3984   8.835  12.766   7.044
 4006ETHY    C1 3985   8.458  12.412   6.878
 4007ETHY    C1 3986   8.156  12.038   6.633
 4008ETHY    C1 3987   7.929  11.651   6.321
 4009THSLK    S 3988   9.755  12.863   7.013
 4010ETHY    C1 3989   9.627  12.455   6.852
 4011ETHY    C1 3990   9.551  11.976   6.609
 4012ETHY    C1 3991   9.570  11.524   6.315
 4013ETHY    C1 3992   9.676  11.103   5.983
 4014AUSL   AUS 3993   9.945  13.030   7.336
 4015AUSL   AUS 3994  10.058  13.287   6.990
 4016AUL    AUL 3995  10.097  12.909   7.009
 4017THSLK    S 3996   9.908  12.770   7.258
 4018ETHY    C1 3997   9.835  12.325   7.175
 4019ETHY    C1 3998   9.837  11.797   7.052
 4020ETHY    C1 3999   9.945  11.289   6.905
 4021ETHY    C1 4000  10.150  10.810   6.742
 4022THSLK    S 4001  10.181  13.097   6.847
 4023ETHY    C1 4002  10.276  12.729   6.592
 4024ETHY    C1 4003  10.450  12.348   6.247
 4025ETHY    C1 4004  10.692  12.048   5.870
 4026ETHY    C1 4005  10.993  11.827   5.471
 4027AUC    AUC 4006  31.515  39.559   7.500
 4028AUC    AUC 4007  31.761  39.559   7.348
 4029AUC    AUC 4008  31.761  39.559   7.651
 4030AUC    AUC 4009  31.270  39.559   7.348
 4031AUC    AUC 4010  31.270  39.559   7.651
 4032AUC    AUC 4011  31.364  39.804   7.500
 4033AUC    AUC 4012  31.667  39.804   7.500
 4034AUC    AUC 4013  31.364  39.313   7.500
 4035AUC    AUC 4014  31.667  39.313   7.500
 4036AUC    AUC 4015  31.515  39.407   7.745
 4037AUC    AUC 4016  31.515  39.710   7.745
 4038AUC    AUC 4017  31.515  39.407   7.254
 4039AUC    AUC 4018  31.515  39.710   7.254
 4040AUC    AUC 4019  32.006  39.559   7.196
 4041AUC    AUC 4020  32.006  39.559   7.500
 4042AUC    AUC 4021  32.006  39.559   7.803
 4043AUC    AUC 4022  31.024  39.559   7.196
 4044AUC    AUC 4023  31.024  39.559   7.500
 4045AUC    AUC 4024  31.024  39.559   7.803
 4046AUC    AUC 4025  31.212  40.049   7.500
 4047AUC    AUC 4026  31.515  40.049   7.500
 4048AUC    AUC 4027  31.819  40.049   7.500
 4049AUC    AUC 4028  31.212  39.068   7.500
 4050AUC    AUC 4029  31.515  39.068   7.500
 4051AUC    AUC 4030  31.819  39.068   7.500
 4052AUC    AUC 4031  31.515  39.255   7.991
 4053AUC    AUC 4032  31.515  39.559   7.991
 4054AUC    AUC 4033  31.515  39.862   7.991
 4055AUC    AUC 4034  31.515  39.255   7.009
 4056AUC    AUC 4035  31.515  39.559   7.009
 4057AUC    AUC 4036  31.515  39.862   7.009
 4058AUC    AUC 4037  31.761  39.407   7.897
 4059AUC    AUC 4038  31.761  39.710   7.897
 4060AUC    AUC 4039  31.761  39.407   7.103
 4061AUC    AUC 4040  31.761  39.710   7.103
 4062AUC    AUC 4041  31.270  39.407   7.897
 4063AUC    AUC 4042  31.270  39.710   7.897
 4064AUC    AUC 4043  31.270  39.407   7.103
 4065AUC    AUC 4044  31.270  39.710   7.103
 4066AUC    AUC 4045  31.912  39.804   7.348
 4067AUC    AUC 4046  31.912  39.804   7.651
 4068AUC    AUC 4047  31.118  39.804   7.348
 4069AUC    AUC 4048  31.118  39.804   7.651
 4070AUC    AUC 4049  31.912  39.313   7.348
 4071AUC    AUC 4050  31.912  39.313   7.651
 4072AUC    AUC 4051  31.118  39.313   7.348
 4073AUC    AUC 4052  31.118  39.313   7.651
 4074AUC    AUC 4053  31.364  39.956   7.745
 4075AUC    AUC 4054  31.667  39.956   7.745
 4076AUC    AUC 4055  31.364  39.161   7.745
 4077AUC    AUC 4056  31.667  39.161   7.745
 4078AUC    AUC 4057  31.364  39.956   7.254
 4079AUC    AUC 4058  31.667  39.956   7.254
 4080AUC    AUC 4059  31.364  39.161   7.254
 4081AUC    AUC 4060  31.667  39.161   7.254
 4082AUSL   AUS 4061  31.924  39.559   8.080
 4083AUSL   AUS 4062  31.780  39.142   8.011
 4084AUL    AUL 4063  32.006  39.255   8.294
 4085THSLK    S 4064  31.898  38.954   8.156
 4086ETHY    C1 4065  31.994  38.586   8.412
 4087ETHY    C1 4066  32.172  38.203   8.753
 4088ETHY    C1 4067  32.414  37.903   9.130
 4089ETHY    C1 4068  32.710  37.684   9.534
 4090THSLK    S 4069  32.023  39.512   8.327
 4091ETHY    C1 4070  32.250  39.362   8.694
 4092ETHY    C1 4071  32.534  39.274   9.148
 4093ETHY    C1 4072  32.818  39.296   9.607
 4094ETHY    C1 4073  33.095  39.418  10.061
 4095AUSL   AUS 4074  31.679  39.407   8.173
 4096AUSL   AUS 4075  31.352  39.710   8.173
 4097AUL    AUL 4076  31.515  39.559   8.482
 4098THSLK    S 4077  31.760  39.356   8.418
 4099ETHY    C1 4078  31.850  39.138   8.810
 4100ETHY    C1 4079  31.978  38.964   9.308
 4101ETHY    C1 4080  32.124  38.899   9.823
 4102ETHY    C1 4081  32.281  38.933  10.346
 4103THSLK    S 4082  31.265  39.670   8.432
 4104ETHY    C1 4083  31.176  39.596   8.874
 4105ETHY    C1 4084  31.052  39.598   9.403
 4106ETHY    C1 4085  30.907  39.707   9.912
 4107ETHY    C1 4086  30.744  39.911  10.392
 4108AUSL   AUS 4087  31.679  39.710   8.173
 4109AUSL   AUS 4088  32.025  39.823   7.916
 4110AUL    AUL 4089  32.006  39.862   8.294
 4111THSLK    S 4090  31.766  39.762   8.416
 4112ETHY    C1 4091  31.854  39.979   8.809
 4113ETHY    C1 4092  31.979  40.152   9.308
 4114ETHY    C1 4093  32.124  40.218   9.823
 4115ETHY    C1 4094  32.287  40.185  10.345
 4116THSLK    S 4095  32.201  39.929   8.079
 4117ETHY    C1 4096  32.563  39.979   8.355
 4118ETHY    C1 4097  32.970  40.128   8.681
 4119ETHY    C1 4098  33.332  40.377   8.995
 4120ETHY    C1 4099  33.644  40.713   9.293
 4121AUSL   AUS 4100  31.924  39.559   6.920
 4122AUSL   AUS 4101  31.780  39.975   6.990
 4123AUL    AUL 4102  32.006  39.862   6.706
 4124THSLK    S 4103  32.028  39.512   6.676
 4125ETHY    C1 4104  32.255  39.362   6.308
 4126ETHY    C1 4105  32.534  39.274   5.851
 4127ETHY    C1 4106  32.818  39.296   5.393
 4128ETHY    C1 4107  33.100  39.418   4.941
 4129THSLK    S 4108  31.957  40.094   6.820
 4130ETHY    C1 4109  32.229  40.235   6.480
 4131ETHY    C1 4110  32.507  40.482   6.085
 4132ETHY    C1 4111  32.723  40.815   5.720
 4133ETHY    C1 4112  32.880  41.222   5.391
 4134AUSL   AUS 4113  31.679  39.407   6.826
 4135AUSL   AUS 4114  32.025  39.294   7.083
 4136AUL    AUL 4115  32.006  39.255   6.706
 4137THSLK    S 4116  32.165  39.103   6.939
 4138ETHY    C1 4117  32.398  38.786   6.707
 4139ETHY    C1 4118  32.728  38.479   6.403
 4140ETHY    C1 4119  33.108  38.270   6.083
 4141ETHY    C1 4120  33.529  38.153   5.754
 4142THSLK    S 4121  31.766  39.355   6.583
 4143ETHY    C1 4122  31.854  39.138   6.191
 4144ETHY    C1 4123  31.979  38.965   5.692
 4145ETHY    C1 4124  32.124  38.899   5.176
 4146ETHY    C1 4125  32.287  38.932   4.656
 4147AUSL   AUS 4126  31.679  39.710   6.826
 4148AUSL   AUS 4127  31.352  39.407   6.826
 4149AUL    AUL 4128  31.515  39.559   6.518
 4150THSLK    S 4129  31.256  39.355   6.586
 4151ETHY    C1 4130  31.117  39.140   6.206
 4152ETHY    C1 4131  30.960  38.969   5.717
 4153ETHY    C1 4132  30.821  38.903   5.199
 4154ETHY    C1 4133  30.705  38.934   4.666
 4155THSLK    S 4134  31.781  39.671   6.572
 4156ETHY    C1 4135  31.918  39.594   6.142
 4157ETHY    C1 4136  32.071  39.594   5.622
 4158ETHY    C1 4137  32.209  39.703   5.112
 4159ETHY    C1 4138  32.332  39.910   4.621
 4160AUSL   AUS 4139  31.106  39.559   8.080
 4161AUSL   AUS 4140  31.251  39.975   8.011
 4162AUL    AUL 4141  31.024  39.862   8.294
 4163THSLK    S 4142  31.002  39.512   8.325
 4164ETHY    C1 4143  30.776  39.362   8.691
 4165ETHY    C1 4144  30.496  39.274   9.148
 4166ETHY    C1 4145  30.213  39.296   9.607
 4167ETHY    C1 4146  29.930  39.418  10.058
 4168THSLK    S 4147  31.128  40.108   8.201
 4169ETHY    C1 4148  31.032  40.303   8.604
 4170ETHY    C1 4149  30.859  40.584   9.034
 4171ETHY    C1 4150  30.616  40.910   9.390
 4172ETHY    C1 4151  30.315  41.269   9.671
 4173AUSL   AUS 4152  31.352  39.407   8.173
 4174AUSL   AUS 4153  31.005  39.294   7.916
 4175AUL    AUL 4154  31.024  39.255   8.294
 4176THSLK    S 4155  30.826  39.128   8.032
 4177ETHY    C1 4156  30.465  38.881   8.166
 4178ETHY    C1 4157  30.060  38.615   8.410
 4179ETHY    C1 4158  29.699  38.395   8.745
 4180ETHY    C1 4159  29.383  38.222   9.156
 4181THSLK    S 4160  31.250  39.357   8.413
 4182ETHY    C1 4161  31.112  39.142   8.793
 4183ETHY    C1 4162  30.959  38.969   9.284
 4184ETHY    C1 4163  30.822  38.903   9.800
 4185ETHY    C1 4164  30.698  38.935  10.332
 4186AUSL   AUS 4165  31.106  39.559   6.920
 4187AUSL   AUS 4166  31.251  39.142   6.990
 4188AUL    AUL 4167  31.024  39.255   6.706
 4189THSLK    S 4168  31.007  39.512   6.673
 4190ETHY    C1 4169  30.780  39.362   6.305
 4191ETHY    C1 4170  30.497  39.274   5.851
 4192ETHY    C1 4171  30.213  39.296   5.393
 4193ETHY    C1 4172  29.936  39.418   4.938
 4194THSLK    S 4173  31.077  38.967   6.865
 4195ETHY    C1 4174  30.805  38.654   6.673
 4196ETHY    C1 4175  30.524  38.306   6.367
 4197ETHY    C1 4176  30.307  37.998   5.980
 4198ETHY    C1 4177  30.155  37.731   5.528
 4199AUSL   AUS 4178  31.352  39.710   6.826
 4200AUSL   AUS 4179  31.005  39.823   7.083
 4201AUL    AUL 4180  31.024  39.862   6.706
 4202THSLK    S 4181  30.869  39.954   6.893
 4203ETHY    C1 4182  30.635  40.075   6.518
 4204ETHY    C1 4183  30.303  40.263   6.132
 4205ETHY    C1 4184  29.923  40.502   5.833
 4206ETHY    C1 4185  29.506  40.782   5.618
 4207THSLK    S 4186  31.271  39.672   6.566
 4208ETHY    C1 4187  31.181  39.597   6.124
 4209ETHY    C1 4188  31.053  39.598   5.597
 4210ETHY    C1 4189  30.907  39.707   5.089
 4211ETHY    C1 4190  30.750  39.913   4.608
 4212AUSL   AUS 4191  32.095  39.968   7.500
 4213AUSL   AUS 4192  32.025  39.823   7.083
 4214AUL    AUL 4193  32.309  40.049   7.196
 4215THSLK    S 4194  32.205  39.930   6.925
 4216ETHY    C1 4195  32.566  39.980   6.648
 4217ETHY    C1 4196  32.970  40.128   6.319
 4218ETHY    C1 4197  33.332  40.377   6.005
 4219ETHY    C1 4198  33.648  40.714   5.713
 4220THSLK    S 4199  32.365  40.029   7.503
 4221ETHY    C1 4200  32.812  40.129   7.502
 4222ETHY    C1 4201  33.314  40.335   7.500
 4223ETHY    C1 4202  33.761  40.637   7.500
 4224ETHY    C1 4203  34.149  41.021   7.503
 4225AUSL   AUS 4204  32.189  39.722   7.348
 4226AUSL   AUS 4205  32.189  39.395   7.651
 4227AUL    AUL 4206  32.497  39.559   7.500
 4228THSLK    S 4207  32.451  39.769   7.345
 4229ETHY    C1 4208  32.901  39.738   7.270
 4230ETHY    C1 4209  33.433  39.793   7.179
 4231ETHY    C1 4210  33.940  39.956   7.091
 4232ETHY    C1 4211  34.415  40.214   7.011
 4233THSLK    S 4212  32.426  39.258   7.659
 4234ETHY    C1 4213  32.797  39.000   7.726
 4235ETHY    C1 4214  33.283  38.774   7.808
 4236ETHY    C1 4215  33.802  38.654   7.896
 4237ETHY    C1 4216  34.340  38.632   7.989
 4238AUSL   AUS 4217  32.189  39.722   7.651
 4239AUSL   AUS 4218  31.932  40.069   7.764
 4240AUL    AUL 4219  32.309  40.049   7.803
 4241THSLK    S 4220  32.117  40.193   7.924
 4242ETHY    C1 4221  32.474  40.385   8.136
 4243ETHY    C1 4222  32.851  40.692   8.377
 4244ETHY    C1 4223  33.152  41.079   8.602
 4245ETHY    C1 4224  33.379  41.530   8.809
 4246THSLK    S 4225  32.450  39.768   7.661
 4247ETHY    C1 4226  32.901  39.738   7.734
 4248ETHY    C1 4227  33.434  39.793   7.821
 4249ETHY    C1 4228  33.940  39.956   7.908
 4250ETHY    C1 4229  34.414  40.214   7.995
 4251AUSL   AUS 4230  30.935  39.968   7.500
 4252AUSL   AUS 4231  31.005  39.823   7.916
 4253AUL    AUL 4232  30.721  40.049   7.803
 4254THSLK    S 4233  30.865  39.949   8.107
 4255ETHY    C1 4234  30.632  40.070   8.482
 4256ETHY    C1 4235  30.303  40.263   8.868
 4257ETHY    C1 4236  29.923  40.502   9.166
 4258ETHY    C1 4237  29.502  40.777   9.381
 4259THSLK    S 4238  30.714  40.108   7.503
 4260ETHY    C1 4239  30.425  40.463   7.502
 4261ETHY    C1 4240  30.017  40.820   7.500
 4262ETHY    C1 4241  29.547  41.084   7.500
 4263ETHY    C1 4242  29.029  41.260   7.503
 4264AUSL   AUS 4243  30.842  39.722   7.348
 4265AUSL   AUS 4244  31.099  40.069   7.236
 4266AUL    AUL 4245  30.721  40.049   7.196
 4267THSLK    S 4246  30.605  39.836   7.303
 4268ETHY    C1 4247  30.233  40.010   7.101
 4269ETHY    C1 4248  29.747  40.186   6.936
 4270ETHY    C1 4249  29.229  40.318   6.868
 4271ETHY    C1 4250  28.691  40.410   6.890
 4272THSLK    S 4251  30.979  40.236   7.056
 4273ETHY    C1 4252  30.827  40.555   6.765
 4274ETHY    C1 4253  30.573  40.935   6.473
 4275ETHY    C1 4254  30.240  41.303   6.260
 4276ETHY    C1 4255  29.844  41.653   6.122
 4277AUSL   AUS 4256  30.842  39.722   7.651
 4278AUSL   AUS 4257  30.842  39.395   7.348
 4279AUL    AUL 4258  30.534  39.559   7.500
 4280THSLK    S 4259  30.580  39.320   7.384
 4281ETHY    C1 4260  30.130  39.269   7.446
 4282ETHY    C1 4261  29.597  39.166   7.434
 4283ETHY    C1 4262  29.090  39.016   7.327
 4284ETHY    C1 4263  28.617  38.823   7.135
 4285THSLK    S 4264  30.604  39.830   7.699
 4286ETHY    C1 4265  30.233  40.006   7.901
 4287ETHY    C1 4266  29.747  40.185   8.063
 4288ETHY    C1 4267  29.229  40.318   8.133
 4289ETHY    C1 4268  28.690  40.404   8.114
 4290AUSL   AUS 4269  32.095  39.149   7.500
 4291AUSL   AUS 4270  32.025  39.294   7.916
 4292AUL    AUL 4271  32.309  39.068   7.803
 4293THSLK    S 4272  32.316  39.009   7.503
 4294ETHY    C1 4273  32.605  38.654   7.502
 4295ETHY    C1 4274  33.014  38.297   7.500
 4296ETHY    C1 4275  33.484  38.033   7.500
 4297ETHY    C1 4276  34.001  37.857   7.503
 4298THSLK    S 4277  32.162  39.104   8.066
 4299ETHY    C1 4278  32.395  38.787   8.297
 4300ETHY    C1 4279  32.728  38.480   8.598
 4301ETHY    C1 4280  33.108  38.270   8.918
 4302ETHY    C1 4281  33.525  38.154   9.250
 4303AUSL   AUS 4282  32.189  39.395   7.348
 4304AUSL   AUS 4283  31.932  39.048   7.236
 4305AUL    AUL 4284  32.309  39.068   7.196
 4306THSLK    S 4285  32.427  39.258   7.346
 4307ETHY    C1 4286  32.798  39.000   7.279
 4308ETHY    C1 4287  33.283  38.774   7.192
 4309ETHY    C1 4288  33.802  38.654   7.103
 4310ETHY    C1 4289  34.341  38.632   7.018
 4311THSLK    S 4290  32.055  38.857   7.099
 4312ETHY    C1 4291  32.205  38.455   6.942
 4313ETHY    C1 4292  32.458  38.025   6.728
 4314ETHY    C1 4293  32.790  37.669   6.495
 4315ETHY    C1 4294  33.189  37.388   6.249
 4316AUSL   AUS 4295  30.935  39.149   7.500
 4317AUSL   AUS 4296  31.005  39.294   7.083
 4318AUL    AUL 4297  30.721  39.068   7.196
 4319THSLK    S 4298  30.830  39.123   6.966
 4320ETHY    C1 4299  30.468  38.877   6.833
 4321ETHY    C1 4300  30.060  38.614   6.589
 4322ETHY    C1 4301  29.699  38.395   6.255
 4323ETHY    C1 4302  29.387  38.217   5.843
 4324THSLK    S 4303  30.665  39.088   7.503
 4325ETHY    C1 4304  30.219  38.988   7.502
 4326ETHY    C1 4305  29.717  38.782   7.500
 4327ETHY    C1 4306  29.270  38.480   7.500
 4328ETHY    C1 4307  28.882  38.096   7.503
 4329AUSL   AUS 4308  30.842  39.395   7.651
 4330AUSL   AUS 4309  31.099  39.048   7.764
 4331AUL    AUL 4310  30.721  39.068   7.803
 4332THSLK    S 4311  30.911  38.900   7.881
 4333ETHY    C1 4312  30.555  38.624   7.958
 4334ETHY    C1 4313  30.180  38.267   8.122
 4335ETHY    C1 4314  29.879  37.893   8.367
 4336ETHY    C1 4315  29.648  37.511   8.682
 4337THSLK    S 4316  30.579  39.325   7.618
 4338ETHY    C1 4317  30.129  39.273   7.557
 4339ETHY    C1 4318  29.597  39.167   7.566
 4340ETHY    C1 4319  29.090  39.016   7.673
 4341ETHY    C1 4320  28.616  38.828   7.867
 4342AUSL   AUS 4321  31.515  40.139   7.909
 4343AUSL   AUS 4322  31.099  40.069   7.764
 4344AUL    AUL 4323  31.212  40.353   7.991
 4345THSLK    S 4324  30.976  40.231   7.948
 4346ETHY    C1 4325  30.825  40.551   8.237
 4347ETHY    C1 4326  30.572  40.934   8.527
 4348ETHY    C1 4327  30.240  41.302   8.740
 4349ETHY    C1 4328  29.841  41.648   8.881
 4350THSLK    S 4329  31.553  40.370   8.034
 4351ETHY    C1 4330  31.681  40.696   8.327
 4352ETHY    C1 4331  31.758  41.128   8.646
 4353ETHY    C1 4332  31.739  41.593   8.920
 4354ETHY    C1 4333  31.633  42.078   9.147
 4355AUSL   AUS 4334  31.364  40.232   7.663
 4356AUSL   AUS 4335  31.667  40.232   7.336
 4357AUL    AUL 4336  31.515  40.540   7.500
 4358THSLK    S 4337  31.401  40.484   7.772
 4359ETHY    C1 4338  31.474  40.908   7.929
 4360ETHY    C1 4339  31.471  41.424   8.095
 4361ETHY    C1 4340  31.363  41.935   8.229
 4362ETHY    C1 4341  31.159  42.431   8.336
 4363THSLK    S 4342  31.718  40.472   7.237
 4364ETHY    C1 4343  31.931  40.849   7.091
 4365ETHY    C1 4344  32.101  41.338   6.929
 4366ETHY    C1 4345  32.168  41.856   6.792
 4367ETHY    C1 4346  32.139  42.390   6.682
 4368AUSL   AUS 4347  31.667  40.232   7.663
 4369AUSL   AUS 4348  31.780  39.975   8.011
 4370AUL    AUL 4349  31.819  40.353   7.991
 4371THSLK    S 4350  31.953  40.092   8.184
 4372ETHY    C1 4351  32.226  40.233   8.522
 4373ETHY    C1 4352  32.507  40.482   8.915
 4374ETHY    C1 4353  32.723  40.815   9.279
 4375ETHY    C1 4354  32.875  41.220   9.614
 4376THSLK    S 4355  31.717  40.470   7.768
 4377ETHY    C1 4356  31.930  40.849   7.913
 4378ETHY    C1 4357  32.101  41.338   8.072
 4379ETHY    C1 4358  32.168  41.856   8.207
 4380ETHY    C1 4359  32.137  42.389   8.325
 4381AUSL   AUS 4360  31.515  38.978   7.909
 4382AUSL   AUS 4361  31.932  39.048   7.764
 4383AUL    AUL 4362  31.819  38.764   7.991
 4384THSLK    S 4363  31.474  38.721   7.992
 4385ETHY    C1 4364  31.347  38.312   8.152
 4386ETHY    C1 4365  31.273  37.831   8.391
 4387ETHY    C1 4366  31.292  37.379   8.684
 4388ETHY    C1 4367  31.394  36.961   9.021
 4389THSLK    S 4368  32.052  38.858   7.907
 4390ETHY    C1 4369  32.203  38.456   8.062
 4391ETHY    C1 4370  32.458  38.025   8.272
 4392ETHY    C1 4371  32.790  37.669   8.505
 4393ETHY    C1 4372  33.186  37.390   8.758
 4394AUSL   AUS 4373  31.364  38.885   7.663
 4395AUSL   AUS 4374  31.251  39.142   8.011
 4396AUL    AUL 4375  31.212  38.764   7.991
 4397THSLK    S 4376  31.313  38.640   7.744
 4398ETHY    C1 4377  31.100  38.241   7.812
 4399ETHY    C1 4378  30.929  37.738   7.925
 4400ETHY    C1 4379  30.863  37.224   8.072
 4401ETHY    C1 4380  30.892  36.709   8.252
 4402THSLK    S 4381  31.073  38.972   8.136
 4403ETHY    C1 4382  30.801  38.657   8.327
 4404ETHY    C1 4383  30.523  38.306   8.633
 4405ETHY    C1 4384  30.307  37.998   9.019
 4406ETHY    C1 4385  30.151  37.736   9.473
 4407AUSL   AUS 4386  31.667  38.885   7.663
 4408AUSL   AUS 4387  31.364  38.885   7.336
 4409AUL    AUL 4388  31.515  38.577   7.500
 4410THSLK    S 4389  31.314  38.638   7.261
 4411ETHY    C1 4390  31.101  38.240   7.192
 4412ETHY    C1 4391  30.929  37.738   7.076
 4413ETHY    C1 4392  30.863  37.224   6.927
 4414ETHY    C1 4393  30.894  36.707   6.754
 4415THSLK    S 4394  31.628  38.626   7.748
 4416ETHY    C1 4395  31.556  38.181   7.829
 4417ETHY    C1 4396  31.559  37.652   7.948
 4418ETHY    C1 4397  31.668  37.144   8.095
 4419ETHY    C1 4398  31.870  36.666   8.264
 4420AUSL   AUS 4399  31.515  40.139   7.091
 4421AUSL   AUS 4400  31.932  40.069   7.236
 4422AUL    AUL 4401  31.819  40.353   7.009
 4423THSLK    S 4402  31.557  40.373   6.971
 4424ETHY    C1 4403  31.684  40.698   6.676
 4425ETHY    C1 4404  31.758  41.128   6.353
 4426ETHY    C1 4405  31.739  41.593   6.080
 4427ETHY    C1 4406  31.636  42.081   5.857
 4428THSLK    S 4407  32.119  40.194   7.081
 4429ETHY    C1 4408  32.476  40.386   6.869
 4430ETHY    C1 4409  32.851  40.692   6.623
 4431ETHY    C1 4410  33.152  41.079   6.398
 4432ETHY    C1 4411  33.382  41.531   6.197
 4433AUSL   AUS 4412  31.364  40.232   7.336
 4434AUSL   AUS 4413  31.251  39.975   6.990
 4435AUL    AUL 4414  31.212  40.353   7.009
 4436THSLK    S 4415  31.403  40.486   7.233
 4437ETHY    C1 4416  31.475  40.909   7.074
 4438ETHY    C1 4417  31.472  41.425   6.906
 4439ETHY    C1 4418  31.363  41.935   6.770
 4440ETHY    C1 4419  31.161  42.433   6.670
 4441THSLK    S 4420  31.132  40.112   6.800
 4442ETHY    C1 4421  31.036  40.306   6.396
 4443ETHY    C1 4422  30.859  40.584   5.966
 4444ETHY    C1 4423  30.616  40.909   5.611
 4445ETHY    C1 4424  30.320  41.274   5.330
 4446AUSL   AUS 4425  31.515  38.978   7.091
 4447AUSL   AUS 4426  31.099  39.048   7.236
 4448AUL    AUL 4427  31.212  38.764   7.009
 4449THSLK    S 4428  30.914  38.895   7.122
 4450ETHY    C1 4429  30.557  38.621   7.044
 4451ETHY    C1 4430  30.180  38.267   6.878
 4452ETHY    C1 4431  29.878  37.893   6.633
 4453ETHY    C1 4432  29.651  37.506   6.321
 4454THSLK    S 4433  31.477  38.718   7.013
 4455ETHY    C1 4434  31.349  38.310   6.852
 4456ETHY    C1 4435  31.273  37.831   6.609
 4457ETHY    C1 4436  31.292  37.379   6.315
 4458ETHY    C1 4437  31.398  36.958   5.983
 4459AUSL   AUS 4438  31.667  38.885   7.336
 4460AUSL   AUS 4439  31.780  39.142   6.990
 4461AUL    AUL 4440  31.819  38.764   7.009
 4462THSLK    S 4441  31.630  38.625   7.258
 4463ETHY    C1 4442  31.557  38.180   7.175
 4464ETHY    C1 4443  31.559  37.652   7.052
 4465ETHY    C1 4444  31.667  37.144   6.905
 4466ETHY    C1 4445  31.872  36.665   6.742
 4467THSLK    S 4446  31.903  38.952   6.847
 4468ETHY    C1 4447  31.998  38.584   6.592
 4469ETHY    C1 4448  32.172  38.203   6.247
 4470ETHY    C1 4449  32.414  37.903   5.870
 4471ETHY    C1 4450  32.715  37.682   5.471
 4472POPC   NC3 4451  29.939  18.238   9.450
 4472POPC   PO4 4452  29.882  18.331   9.150
 4472POPC   GL1 4453  29.887  18.251   8.850
 4472POPC   GL2 4454  30.072  18.330   8.850
 4472POPC   C1A 4455  29.930  18.268   8.550
 4472POPC   D2A 4456  29.876  18.238   8.250
 4472POPC   C3A 4457  29.895  18.307   7.950
 4472POPC   C4A 4458  29.926  18.288   7.650
 4472POPC   C1B 4459  30.163  18.387   8.550
 4472POPC   C2B 4460  30.175  18.357   8.250
 4472POPC   C3B 4461  30.152  18.411   7.950
 4472POPC   C4B 4462  30.161  18.328   7.650
 4473POPC   NC3 4463   2.737  26.805   9.450
 4473POPC   PO4 4464   2.808  26.864   9.150
 4473POPC   GL1 4465   2.732  26.826   8.850
 4473POPC   GL2 4466   2.800  26.721   8.850
 4473POPC   C1A 4467   2.778  26.782   8.550
 4473POPC   D2A 4468   2.717  26.804   8.250
 4473POPC   C3A 4469   2.811  26.779   7.950
 4473POPC   C4A 4470   2.753  26.812   7.650
 4473POPC   C1B 4471   2.760  26.539   8.550
 4473POPC   C2B 4472   2.780  26.527   8.250
 4473POPC   C3B 4473   2.743  26.528   7.950
 4473POPC   C4B 4474   2.822  26.531   7.650
 4474POPC   NC3 4475  39.996  43.883   9.450
 4474POPC   PO4 4476  40.026  43.867   9.150
 4474POPC   GL1 4477  40.046  43.856   8.850
 4474POPC   GL2 4478  39.875  43.883   8.850
 4474POPC   C1A 4479  40.017  43.864   8.550
 4474POPC   D2A 4480  40.004  43.848   8.250
 4474POPC   C3A 4481  40.047  43.881   7.950
 4474POPC   C4A 4482  40.049  43.926   7.650
 4474POPC   C1B 4483  39.785  43.968   8.550
 4474POPC   C2B 4484  39.720  43.969   8.250
 4474POPC   C3B 4485  39.742  43.992   7.950
 4474POPC   C4B 4486  39.753  43.977   7.650
 4475POPC   NC3 4487  24.490  34.598   9.450
 4475POPC   PO4 4488  24.466  34.558   9.150
 4475POPC   GL1 4489  24.511  34.556   8.850
 4475POPC   GL2 4490  24.548  34.647   8.850
 4475POPC   C1A 4491  24.525  34.611   8.550
 4475POPC   D2A 4492  24.488  34.535   8.250
 4475POPC   C3A 4493  24.480  34.621   7.950
 4475POPC   C4A 4494  24.481  34.550   7.650
 4475POPC   C1B 4495  24.639  34.727   8.550
 4475POPC   C2B 4496  24.696  34.735   8.250
 4475POPC   C3B 4497  24.636  34.711   7.950
 4475POPC   C4B 4498  24.699  34.743   7.650
 4476POPC   NC3 4499   1.170  29.966   9.450
 4476POPC   PO4 4500   1.208  29.883   9.150
 4476POPC   GL1 4501   1.204  29.903   8.850
 4476POPC   GL2 4502   1.130  30.033   8.850
 4476POPC   C1A 4503   1.192  29.910   8.550
 4476POPC   D2A 4504   1.201  29.920   8.250
 4476POPC   C3A 4505   1.243  29.893   7.950
 4476POPC   C4A 4506   1.197  29.926   7.650
 4476POPC   C1B 4507   1.084  30.135   8.550
 4476POPC   C2B 4508   1.111  30.152   8.250
 4476POPC   C3B 4509   1.090  30.186   7.950
 4476POPC   C4B 4510   1.071  30.131   7.650
 4477POPC   NC3 4511  35.325  20.565   9.450
 4477POPC   PO4 4512  35.321  20.562   9.150
 4477POPC   GL1 4513  35.338  20.609   8.850
 4477POPC   GL2 4514  35.196  20.559   8.850
 4477POPC   C1A 4515  35.368  20.617   8.550
 4477POPC   D2A 4516  35.370  20.584   8.250
 4477POPC   C3A 4517  35.359  20.636   7.950
 4477POPC   C4A 4518  35.383  20.629   7.650
 4477POPC   C1B 4519  35.101  20.457   8.550
 4477POPC   C2B 4520  35.123  20.533   8.250
 4477POPC   C3B 4521  35.128  20.508   7.950
 4477POPC   C4B 4522  35.088  20.480   7.650
 4478POPC   NC3 4523   8.938  16.756   9.450
 4478POPC   PO4 4524   8.933  16.755   9.150
 4478POPC   GL1 4525   9.005  16.681   8.850
 4478POPC   GL2 4526   8.902  16.802   8.850
 4478POPC   C1A 4527   8.997  16.756   8.550
 4478POPC   D2A 4528   9.017  16.711   8.250
 4478POPC   C3A 4529   8.942  16.740   7.950
 4478POPC   C4A 4530   9.004  16.697   7.650
 4478POPC   C1B 4531   8.919  16.940   8.550
 4478POPC   C2B 4532   8.842  16.928   8.250
 4478POPC   C3B 4533   8.882  16.973   7.950
 4478POPC   C4B 4534   8.864  16.941   7.650
 4479POPC   NC3 4535  40.751  29.103   9.450
 4479POPC   PO4 4536  40.758  29.112   9.150
 4479POPC   GL1 4537  40.815  29.106   8.850
 4479POPC   GL2 4538  40.813  29.204   8.850
 4479POPC   C1A 4539  40.820  29.101   8.550
 4479POPC   D2A 4540  40.778  29.144   8.250
 4479POPC   C3A 4541  40.808  29.146   7.950
 4479POPC   C4A 4542  40.827  29.138   7.650
 4479POPC   C1B 4543  40.890  29.406   8.550
 4479POPC   C2B 4544  40.888  29.387   8.250
 4479POPC   C3B 4545  40.949  29.386   7.950
 4479POPC   C4B 4546  40.959  29.398   7.650
 4480POPC   NC3 4547  22.912  36.935   9.450
 4480POPC   PO4 4548  22.932  36.929   9.150
 4480POPC   GL1 4549  22.903  36.895   8.850
 4480POPC   GL2 4550  22.998  36.818   8.850
 4480POPC   C1A 4551  22.890  36.869   8.550
 4480POPC   D2A 4552  22.974  36.871   8.250
 4480POPC   C3A 4553  22.917  36.894   7.950
 4480POPC   C4A 4554  22.986  36.866   7.650
 4480POPC   C1B 4555  23.138  36.724   8.550
 4480POPC   C2B 4556  23.095  36.689   8.250
 4480POPC   C3B 4557  23.153  36.715   7.950
 4480POPC   C4B 4558  23.095  36.690   7.650
 4481POPC   NC3 4559  31.519  27.557   9.450
 4481POPC   PO4 4560  31.522  27.582   9.150
 4481POPC   GL1 4561  31.501  27.583   8.850
 4481POPC   GL2 4562  31.370  27.706   8.850
 4481POPC   C1A 4563  31.459  27.634   8.550
 4481POPC   D2A 4564  31.510  27.610   8.250
 4481POPC   C3A 4565  31.427  27.557   7.950
 4481POPC   C4A 4566  31.458  27.599   7.650
 4481POPC   C1B 4567  31.300  27.799   8.550
 4481POPC   C2B 4568  31.245  27.769   8.250
 4481POPC   C3B 4569  31.276  27.799   7.950
 4481POPC   C4B 4570  31.282  27.714   7.650
 4482POPC   NC3 4571   1.193  26.063   9.450
 4482POPC   PO4 4572   1.210  26.068   9.150
 4482POPC   GL1 4573   1.230  26.045   8.850
 4482POPC   GL2 4574   1.266  25.944   8.850
 4482POPC   C1A 4575   1.171  26.036   8.550
 4482POPC   D2A 4576   1.195  26.049   8.250
 4482POPC   C3A 4577   1.171  26.086   7.950
 4482POPC   C4A 4578   1.222  26.077   7.650
 4482POPC   C1B 4579   1.279  25.847   8.550
 4482POPC   C2B 4580   1.364  25.796   8.250
 4482POPC   C3B 4581   1.340  25.852   7.950
 4482POPC   C4B 4582   1.344  25.844   7.650
 4483POPC   NC3 4583  22.123  11.319   9.450
 4483POPC   PO4 4584  22.191  11.336   9.150
 4483POPC   GL1 4585  22.129  11.345   8.850
 4483POPC   GL2 4586  22.071  11.308   8.850
 4483POPC   C1A 4587  22.148  11.263   8.550
 4483POPC   D2A 4588  22.164  11.343   8.250
 4483POPC   C3A 4589  22.211  11.287   7.950
 4483POPC   C4A 4590  22.118  11.252   7.650
 4483POPC   C1B 4591  21.944  11.332   8.550
 4483POPC   C2B 4592  21.961  11.407   8.250
 4483POPC   C3B 4593  21.901  11.335   7.950
 4483POPC   C4B 4594  21.918  11.401   7.650
 4484POPC   NC3 4595  43.863  34.559   9.450
 4484POPC   PO4 4596  43.907  34.604   9.150
 4484POPC   GL1 4597  43.847  34.564   8.850
 4484POPC   GL2 4598  43.839  34.486   8.850
 4484POPC   C1A 4599  43.877  34.625   8.550
 4484POPC   D2A 4600  43.897  34.618   8.250
 4484POPC   C3A 4601  43.895  34.540   7.950
 4484POPC   C4A 4602  43.849  34.528   7.650
 4484POPC   C1B 4603  43.839  34.348   8.550
 4484POPC   C2B 4604  43.780  34.283   8.250
 4484POPC   C3B 4605  43.852  34.363   7.950
 4484POPC   C4B 4606  43.832  34.370   7.650
 4485POPC   NC3 4607  31.441  11.328   9.450
 4485POPC   PO4 4608  31.519  11.340   9.150
 4485POPC   GL1 4609  31.437  11.295   8.850
 4485POPC   GL2 4610  31.443  11.370   8.850
 4485POPC   C1A 4611  31.454  11.284   8.550
 4485POPC   D2A 4612  31.448  11.280   8.250
 4485POPC   C3A 4613  31.512  11.257   7.950
 4485POPC   C4A 4614  31.475  11.282   7.650
 4485POPC   C1B 4615  31.376  11.494   8.550
 4485POPC   C2B 4616  31.401  11.479   8.250
 4485POPC   C3B 4617  31.360  11.504   7.950
 4485POPC   C4B 4618  31.397  11.556   7.650
 4486POPC   NC3 4619  35.398  39.991   9.450
 4486POPC   PO4 4620  35.373  39.976   9.150
 4486POPC   GL1 4621  35.336  39.969   8.850
 4486POPC   GL2 4622  35.269  40.082   8.850
 4486POPC   C1A 4623  35.304  40.022   8.550
 4486POPC   D2A 4624  35.370  39.988   8.250
 4486POPC   C3A 4625  35.346  40.054   7.950
 4486POPC   C4A 4626  35.365  39.986   7.650
 4486POPC   C1B 4627  35.085  40.098   8.550
 4486POPC   C2B 4628  35.164  40.106   8.250
 4486POPC   C3B 4629  35.096  40.047   7.950
 4486POPC   C4B 4630  35.088  40.038   7.650
 4487POPC   NC3 4631  29.123  27.565   9.450
 4487POPC   PO4 4632  29.100  27.628   9.150
 4487POPC   GL1 4633  29.149  27.612   8.850
 4487POPC   GL2 4634  29.172  27.760   8.850
 4487POPC   C1A 4635  29.170  27.569   8.550
 4487POPC   D2A 4636  29.174  27.548   8.250
 4487POPC   C3A 4637  29.180  27.563   7.950
 4487POPC   C4A 4638  29.162  27.603   7.650
 4487POPC   C1B 4639  29.227  27.840   8.550
 4487POPC   C2B 4640  29.200  27.815   8.250
 4487POPC   C3B 4641  29.244  27.837   7.950
 4487POPC   C4B 4642  29.213  27.848   7.650
 4488POPC   NC3 4643  17.469  11.289   9.450
 4488POPC   PO4 4644  17.539  11.286   9.150
 4488POPC   GL1 4645  17.490  11.298   8.850
 4488POPC   GL2 4646  17.471  11.417   8.850
 4488POPC   C1A 4647  17.458  11.327   8.550
 4488POPC   D2A 4648  17.531  11.344   8.250
 4488POPC   C3A 4649  17.553  11.328   7.950
 4488POPC   C4A 4650  17.478  11.298   7.650
 4488POPC   C1B 4651  17.522  11.535   8.550
 4488POPC   C2B 4652  17.476  11.514   8.250
 4488POPC   C3B 4653  17.470  11.534   7.950
 4488POPC   C4B 4654  17.471  11.504   7.650
 4489POPC   NC3 4655  29.134  18.238   9.450
 4489POPC   PO4 4656  29.172  18.236   9.150
 4489POPC   GL1 4657  29.186  18.278   8.850
 4489POPC   GL2 4658  29.172  18.148   8.850
 4489POPC   C1A 4659  29.114  18.281   8.550
 4489POPC   D2A 4660  29.188  18.290   8.250
 4489POPC   C3A 4661  29.175  18.329   7.950
 4489POPC   C4A 4662  29.098  18.272   7.650
 4489POPC   C1B 4663  29.253  18.100   8.550
 4489POPC   C2B 4664  29.248  18.103   8.250
 4489POPC   C3B 4665  29.302  18.102   7.950
 4489POPC   C4B 4666  29.266  18.090   7.650
 4490POPC   NC3 4667  27.568  16.717   9.450
 4490POPC   PO4 4668  27.616  16.703   9.150
 4490POPC   GL1 4669  27.548  16.747   8.850
 4490POPC   GL2 4670  27.725  16.830   8.850
 4490POPC   C1A 4671  27.614  16.751   8.550
 4490POPC   D2A 4672  27.570  16.705   8.250
 4490POPC   C3A 4673  27.632  16.712   7.950
 4490POPC   C4A 4674  27.577  16.693   7.650
 4490POPC   C1B 4675  27.823  16.807   8.550
 4490POPC   C2B 4676  27.803  16.871   8.250
 4490POPC   C3B 4677  27.832  16.841   7.950
 4490POPC   C4B 4678  27.827  16.875   7.650
 4491POPC   NC3 4679   1.227  23.695   9.450
 4491POPC   PO4 4680   1.168  23.678   9.150
 4491POPC   GL1 4681   1.244  23.675   8.850
 4491POPC   GL2 4682   1.121  23.643   8.850
 4491POPC   C1A 4683   1.175  23.729   8.550
 4491POPC   D2A 4684   1.228  23.740   8.250
 4491POPC   C3A 4685   1.185  23.753   7.950
 4491POPC   C4A 4686   1.187  23.706   7.650
 4491POPC   C1B 4687   1.038  23.536   8.550
 4491POPC   C2B 4688   1.023  23.472   8.250
 4491POPC   C3B 4689   1.105  23.543   7.950
 4491POPC   C4B 4690   1.027  23.477   7.650
 4492POPC   NC3 4691   8.953  37.713   9.450
 4492POPC   PO4 4692   8.986  37.661   9.150
 4492POPC   GL1 4693   8.939  37.701   8.850
 4492POPC   GL2 4694   8.968  37.591   8.850
 4492POPC   C1A 4695   8.957  37.659   8.550
 4492POPC   D2A 4696   8.982  37.699   8.250
 4492POPC   C3A 4697   8.938  37.644   7.950
 4492POPC   C4A 4698   8.935  37.681   7.650
 4492POPC   C1B 4699   9.005  37.426   8.550
 4492POPC   C2B 4700   9.001  37.457   8.250
 4492POPC   C3B 4701   8.988  37.437   7.950
 4492POPC   C4B 4702   9.020  37.418   7.650
 4493POPC   NC3 4703  15.980  12.094   9.450
 4493POPC   PO4 4704  15.917  12.034   9.150
 4493POPC   GL1 4705  15.998  12.093   8.850
 4493POPC   GL2 4706  15.877  12.199   8.850
 4493POPC   C1A 4707  15.942  12.033   8.550
 4493POPC   D2A 4708  15.916  12.069   8.250
 4493POPC   C3A 4709  15.973  12.115   7.950
 4493POPC   C4A 4710  15.963  12.027   7.650
 4493POPC   C1B 4711  15.860  12.356   8.550
 4493POPC   C2B 4712  15.873  12.308   8.250
 4493POPC   C3B 4713  15.924  12.271   7.950
 4493POPC   C4B 4714  15.891  12.351   7.650
 4494POPC   NC3 4715  39.991  44.613   9.450
 4494POPC   PO4 4716  39.962  44.622   9.150
 4494POPC   GL1 4717  40.050  44.638   8.850
 4494POPC   GL2 4718  40.059  44.544   8.850
 4494POPC   C1A 4719  40.002  44.646   8.550
 4494POPC   D2A 4720  40.010  44.699   8.250
 4494POPC   C3A 4721  39.972  44.697   7.950
 4494POPC   C4A 4722  40.030  44.660   7.650
 4494POPC   C1B 4723  40.000  44.415   8.550
 4494POPC   C2B 4724  40.007  44.368   8.250
 4494POPC   C3B 4725  40.037  44.455   7.950
 4494POPC   C4B 4726  40.015  44.417   7.650
 4495POPC   NC3 4727   2.749  28.333   9.450
 4495POPC   PO4 4728   2.745  28.376   9.150
 4495POPC   GL1 4729   2.747  28.387   8.850
 4495POPC   GL2 4730   2.826  28.321   8.850
 4495POPC   C1A 4731   2.719  28.406   8.550
 4495POPC   D2A 4732   2.750  28.330   8.250
 4495POPC   C3A 4733   2.806  28.352   7.950
 4495POPC   C4A 4734   2.789  28.401   7.650
 4495POPC   C1B 4735   2.999  28.224   8.550
 4495POPC   C2B 4736   2.952  28.258   8.250
 4495POPC   C3B 4737   2.958  28.191   7.950
 4495POPC   C4B 4738   2.996  28.205   7.650
 4496POPC   NC3 4739  39.266  10.571   9.450
 4496POPC   PO4 4740  39.211  10.540   9.150
 4496POPC   GL1 4741  39.245  10.572   8.850
 4496POPC   GL2 4742  39.296  10.433   8.850
 4496POPC   C1A 4743  39.183  10.492   8.550
 4496POPC   D2A 4744  39.212  10.558   8.250
 4496POPC   C3A 4745  39.199  10.489   7.950
 4496POPC   C4A 4746  39.220  10.486   7.650
 4496POPC   C1B 4747  39.301  10.329   8.550
 4496POPC   C2B 4748  39.241  10.298   8.250
 4496POPC   C3B 4749  39.245  10.323   7.950
 4496POPC   C4B 4750  39.311  10.329   7.650
 4497POPC   NC3 4751  40.040   5.879   9.450
 4497POPC   PO4 4752  40.013   5.857   9.150
 4497POPC   GL1 4753  40.037   5.900   8.850
 4497POPC   GL2 4754  40.108   5.771   8.850
 4497POPC   C1A 4755  40.006   5.893   8.550
 4497POPC   D2A 4756  40.002   5.910   8.250
 4497POPC   C3A 4757  39.960   5.917   7.950
 4497POPC   C4A 4758  39.972   5.917   7.650
 4497POPC   C1B 4759  40.245   5.790   8.550
 4497POPC   C2B 4760  40.221   5.732   8.250
 4497POPC   C3B 4761  40.205   5.738   7.950
 4497POPC   C4B 4762  40.229   5.748   7.650
 4498POPC   NC3 4763  25.280   1.220   9.450
 4498POPC   PO4 4764  25.305   1.251   9.150
 4498POPC   GL1 4765  25.285   1.224   8.850
 4498POPC   GL2 4766  25.184   1.298   8.850
 4498POPC   C1A 4767  25.289   1.257   8.550
 4498POPC   D2A 4768  25.218   1.191   8.250
 4498POPC   C3A 4769  25.216   1.204   7.950
 4498POPC   C4A 4770  25.271   1.220   7.650
 4498POPC   C1B 4771  25.068   1.279   8.550
 4498POPC   C2B 4772  25.045   1.342   8.250
 4498POPC   C3B 4773  25.067   1.362   7.950
 4498POPC   C4B 4774  25.047   1.352   7.650
 4499POPC   NC3 4775  19.099  36.146   9.450
 4499POPC   PO4 4776  19.041  36.152   9.150
 4499POPC   GL1 4777  19.013  36.098   8.850
 4499POPC   GL2 4778  19.028  36.293   8.850
 4499POPC   C1A 4779  19.073  36.146   8.550
 4499POPC   D2A 4780  19.022  36.097   8.250
 4499POPC   C3A 4781  19.024  36.099   7.950
 4499POPC   C4A 4782  19.037  36.121   7.650
 4499POPC   C1B 4783  19.087  36.391   8.550
 4499POPC   C2B 4784  19.080  36.393   8.250
 4499POPC   C3B 4785  19.072  36.337   7.950
 4499POPC   C4B 4786  19.120  36.407   7.650
 4500POPC   NC3 4787  12.838  26.857   9.450
 4500POPC   PO4 4788  12.806  26.795   9.150
 4500POPC   GL1 4789  12.859  26.835   8.850
 4500POPC   GL2 4790  12.941  26.949   8.850
 4500POPC   C1A 4791  12.821  26.824   8.550
 4500POPC   D2A 4792  12.865  26.826   8.250
 4500POPC   C3A 4793  12.806  26.782   7.950
 4500POPC   C4A 4794  12.834  26.848   7.650
 4500POPC   C1B 4795  12.979  27.072   8.550
 4500POPC   C2B 4796  12.950  27.010   8.250
 4500POPC   C3B 4797  12.966  27.025   7.950
 4500POPC   C4B 4798  12.926  27.078   7.650
 4501POPC   NC3 4799  31.453  14.438   9.450
 4501POPC   PO4 4800  31.427  14.444   9.150
 4501POPC   GL1 4801  31.518  14.408   8.850
 4501POPC   GL2 4802  31.479  14.329   8.850
 4501POPC   C1A 4803  31.479  14.371   8.550
 4501POPC   D2A 4804  31.439  14.357   8.250
 4501POPC   C3A 4805  31.468  14.415   7.950
 4501POPC   C4A 4806  31.521  14.399   7.650
 4501POPC   C1B 4807  31.571  14.148   8.550
 4501POPC   C2B 4808  31.575  14.211   8.250
 4501POPC   C3B 4809  31.562  14.131   7.950
 4501POPC   C4B 4810  31.575  14.120   7.650
 4502POPC   NC3 4811  37.710  23.683   9.450
 4502POPC   PO4 4812  37.657  23.673   9.150
 4502POPC   GL1 4813  37.632  23.711   8.850
 4502POPC   GL2 4814  37.772  23.799   8.850
 4502POPC   C1A 4815  37.649  23.739   8.550
 4502POPC   D2A 4816  37.663  23.758   8.250
 4502POPC   C3A 4817  37.672  23.670   7.950
 4502POPC   C4A 4818  37.634  23.746   7.650
 4502POPC   C1B 4819  37.844  23.919   8.550
 4502POPC   C2B 4820  37.812  23.965   8.250
 4502POPC   C3B 4821  37.857  23.873   7.950
 4502POPC   C4B 4822  37.867  23.877   7.650
 4503POPC   NC3 4823  26.787  31.498   9.450
 4503POPC   PO4 4824  26.797  31.446   9.150
 4503POPC   GL1 4825  26.796  31.491   8.850
 4503POPC   GL2 4826  26.715  31.456   8.850
 4503POPC   C1A 4827  26.855  31.521   8.550
 4503POPC   D2A 4828  26.819  31.424   8.250
 4503POPC   C3A 4829  26.865  31.436   7.950
 4503POPC   C4A 4830  26.819  31.457   7.650
 4503POPC   C1B 4831  26.575  31.441   8.550
 4503POPC   C2B 4832  26.563  31.405   8.250
 4503POPC   C3B 4833  26.525  31.445   7.950
 4503POPC   C4B 4834  26.577  31.381   7.650
 4504POPC   NC3 4835   8.178  39.192   9.450
 4504POPC   PO4 4836   8.176  39.233   9.150
 4504POPC   GL1 4837   8.150  39.247   8.850
 4504POPC   GL2 4838   8.077  39.247   8.850
 4504POPC   C1A 4839   8.150  39.260   8.550
 4504POPC   D2A 4840   8.185  39.260   8.250
 4504POPC   C3A 4841   8.242  39.227   7.950
 4504POPC   C4A 4842   8.153  39.206   7.650
 4504POPC   C1B 4843   7.934  39.346   8.550
 4504POPC   C2B 4844   7.936  39.342   8.250
 4504POPC   C3B 4845   8.000  39.355   7.950
 4504POPC   C4B 4846   7.948  39.308   7.650
 4505POPC   NC3 4847  37.702  15.188   9.450
 4505POPC   PO4 4848  37.726  15.219   9.150
 4505POPC   GL1 4849  37.700  15.153   8.850
 4505POPC   GL2 4850  37.591  15.217   8.850
 4505POPC   C1A 4851  37.674  15.224   8.550
 4505POPC   D2A 4852  37.724  15.229   8.250
 4505POPC   C3A 4853  37.718  15.167   7.950
 4505POPC   C4A 4854  37.640  15.142   7.650
 4505POPC   C1B 4855  37.402  15.159   8.550
 4505POPC   C2B 4856  37.383  15.193   8.250
 4505POPC   C3B 4857  37.451  15.163   7.950
 4505POPC   C4B 4858  37.386  15.225   7.650
 4506POPC   NC3 4859  38.467  13.671   9.450
 4506POPC   PO4 4860  38.447  13.652   9.150
 4506POPC   GL1 4861  38.494  13.605   8.850
 4506POPC   GL2 4862  38.497  13.741   8.850
 4506POPC   C1A 4863  38.483  13.585   8.550
 4506POPC   D2A 4864  38.501  13.670   8.250
 4506POPC   C3A 4865  38.473  13.645   7.950
 4506POPC   C4A 4866  38.449  13.598   7.650
 4506POPC   C1B 4867  38.508  13.897   8.550
 4506POPC   C2B 4868  38.533  13.812   8.250
 4506POPC   C3B 4869  38.562  13.887   7.950
 4506POPC   C4B 4870  38.548  13.842   7.650
 4507POPC   NC3 4871  27.621   1.170   9.450
 4507POPC   PO4 4872  27.629   1.243   9.150
 4507POPC   GL1 4873  27.610   1.255   8.850
 4507POPC   GL2 4874  27.682   1.106   8.850
 4507POPC   C1A 4875  27.567   1.227   8.550
 4507POPC   D2A 4876  27.630   1.184   8.250
 4507POPC   C3A 4877  27.581   1.220   7.950
 4507POPC   C4A 4878  27.549   1.231   7.650
 4507POPC   C1B 4879  27.774   1.046   8.550
 4507POPC   C2B 4880  27.778   1.013   8.250
 4507POPC   C3B 4881  27.813   1.027   7.950
 4507POPC   C4B 4882  27.815   1.065   7.650
 4508POPC   NC3 4883  41.540  42.292   9.450
 4508POPC   PO4 4884  41.595  42.311   9.150
 4508POPC   GL1 4885  41.518  42.356   8.850
 4508POPC   GL2 4886  41.709  42.371   8.850
 4508POPC   C1A 4887  41.524  42.380   8.550
 4508POPC   D2A 4888  41.598  42.315   8.250
 4508POPC   C3A 4889  41.567  42.309   7.950
 4508POPC   C4A 4890  41.575  42.344   7.650
 4508POPC   C1B 4891  41.845  42.456   8.550
 4508POPC   C2B 4892  41.836  42.380   8.250
 4508POPC   C3B 4893  41.788  42.370   7.950
 4508POPC   C4B 4894  41.757  42.406   7.650
 4509POPC   NC3 4895  16.710  39.225   9.450
 4509POPC   PO4 4896  16.705  39.210   9.150
 4509POPC   GL1 4897  16.689  39.259   8.850
 4509POPC   GL2 4898  16.771  39.106   8.850
 4509POPC   C1A 4899  16.685  39.273   8.550
 4509POPC   D2A 4900  16.725  39.199   8.250
 4509POPC   C3A 4901  16.706  39.187   7.950
 4509POPC   C4A 4902  16.683  39.204   7.650
 4509POPC   C1B 4903  16.840  38.959   8.550
 4509POPC   C2B 4904  16.781  38.985   8.250
 4509POPC   C3B 4905  16.813  38.995   7.950
 4509POPC   C4B 4906  16.854  38.984   7.650
 4510POPC   NC3 4907  32.297  17.529   9.450
 4510POPC   PO4 4908  32.289  17.514   9.150
 4510POPC   GL1 4909  32.214  17.540   8.850
 4510POPC   GL2 4910  32.157  17.618   8.850
 4510POPC   C1A 4911  32.278  17.463   8.550
 4510POPC   D2A 4912  32.246  17.512   8.250
 4510POPC   C3A 4913  32.289  17.503   7.950
 4510POPC   C4A 4914  32.296  17.493   7.650
 4510POPC   C1B 4915  32.021  17.612   8.550
 4510POPC   C2B 4916  32.003  17.601   8.250
 4510POPC   C3B 4917  31.993  17.652   7.950
 4510POPC   C4B 4918  32.015  17.644   7.650
 4511POPC   NC3 4919   5.829  19.063   9.450
 4511POPC   PO4 4920   5.911  19.012   9.150
 4511POPC   GL1 4921   5.840  19.025   8.850
 4511POPC   GL2 4922   5.777  18.999   8.850
 4511POPC   C1A 4923   5.837  19.029   8.550
 4511POPC   D2A 4924   5.877  19.048   8.250
 4511POPC   C3A 4925   5.901  19.089   7.950
 4511POPC   C4A 4926   5.848  19.028   7.650
 4511POPC   C1B 4927   5.707  18.890   8.550
 4511POPC   C2B 4928   5.626  18.883   8.250
 4511POPC   C3B 4929   5.702  18.918   7.950
 4511POPC   C4B 4930   5.684  18.965   7.650
 4512POPC   NC3 4931   8.976  19.050   9.450
 4512POPC   PO4 4932   9.012  19.026   9.150
 4512POPC   GL1 4933   8.972  19.034   8.850
 4512POPC   GL2 4934   9.127  19.126   8.850
 4512POPC   C1A 4935   9.013  19.102   8.550
 4512POPC   D2A 4936   8.962  19.019   8.250
 4512POPC   C3A 4937   8.928  19.067   7.950
 4512POPC   C4A 4938   8.963  19.080   7.650
 4512POPC   C1B 4939   9.184  19.097   8.550
 4512POPC   C2B 4940   9.214  19.165   8.250
 4512POPC   C3B 4941   9.228  19.176   7.950
 4512POPC   C4B 4942   9.181  19.092   7.650
 4513POPC   NC3 4943   1.260   4.360   9.450
 4513POPC   PO4 4944   1.248   4.330   9.150
 4513POPC   GL1 4945   1.244   4.353   8.850
 4513POPC   GL2 4946   1.062   4.371   8.850
 4513POPC   C1A 4947   1.214   4.298   8.550
 4513POPC   D2A 4948   1.169   4.361   8.250
 4513POPC   C3A 4949   1.215   4.282   7.950
 4513POPC   C4A 4950   1.213   4.349   7.650
 4513POPC   C1B 4951   0.931   4.397   8.550
 4513POPC   C2B 4952   0.992   4.393   8.250
 4513POPC   C3B 4953   0.999   4.340   7.950
 4513POPC   C4B 4954   0.954   4.361   7.650
 4514POPC   NC3 4955  17.556   3.495   9.450
 4514POPC   PO4 4956  17.502   3.504   9.150
 4514POPC   GL1 4957  17.466   3.578   8.850
 4514POPC   GL2 4958  17.427   3.467   8.850
 4514POPC   C1A 4959  17.524   3.588   8.550
 4514POPC   D2A 4960  17.487   3.567   8.250
 4514POPC   C3A 4961  17.505   3.590   7.950
 4514POPC   C4A 4962  17.471   3.495   7.650
 4514POPC   C1B 4963  17.372   3.393   8.550
 4514POPC   C2B 4964  17.336   3.417   8.250
 4514POPC   C3B 4965  17.317   3.360   7.950
 4514POPC   C4B 4966  17.354   3.394   7.650
 4515POPC   NC3 4967   0.434  33.750   9.450
 4515POPC   PO4 4968   0.444  33.810   9.150
 4515POPC   GL1 4969   0.457  33.806   8.850
 4515POPC   GL2 4970   0.311  33.886   8.850
 4515POPC   C1A 4971   0.419  33.828   8.550
 4515POPC   D2A 4972   0.465  33.822   8.250
 4515POPC   C3A 4973   0.461  33.779   7.950
 4515POPC   C4A 4974   0.401  33.789   7.650
 4515POPC   C1B 4975   0.242  33.888   8.550
 4515POPC   C2B 4976   0.179  33.901   8.250
 4515POPC   C3B 4977   0.245  33.916   7.950
 4515POPC   C4B 4978   0.214  33.968   7.650
 4516POPC   NC3 4979  21.404   9.751   9.450
 4516POPC   PO4 4980  21.385   9.719   9.150
 4516POPC   GL1 4981  21.368   9.710   8.850
 4516POPC   GL2 4982  21.507   9.883   8.850
 4516POPC   C1A 4983  21.399   9.706   8.550
 4516POPC   D2A 4984  21.410   9.729   8.250
 4516POPC   C3A 4985  21.383   9.710   7.950
 4516POPC   C4A 4986  21.422   9.791   7.650
 4516POPC   C1B 4987  21.589   9.919   8.550
 4516POPC   C2B 4988  21.570   9.913   8.250
 4516POPC   C3B 4989  21.531   9.911   7.950
 4516POPC   C4B 4990  21.576   9.980   7.650
 4517POPC   NC3 4991  16.723  16.722   9.450
 4517POPC   PO4 4992  16.732  16.751   9.150
 4517POPC   GL1 4993  16.776  16.778   8.850
 4517POPC   GL2 4994  16.797  16.851   8.850
 4517POPC   C1A 4995  16.693  16.768   8.550
 4517POPC   D2A 4996  16.713  16.728   8.250
 4517POPC   C3A 4997  16.773  16.765   7.950
 4517POPC   C4A 4998  16.708  16.736   7.650
 4517POPC   C1B 4999  16.807  16.920   8.550
 4517POPC   C2B 5000  16.806  16.942   8.250
 4517POPC   C3B 5001  16.827  16.992   7.950
 4517POPC   C4B 5002  16.844  16.924   7.650
 4518POPC   NC3 5003   0.426  11.294   9.450
 4518POPC   PO4 5004   0.423  11.262   9.150
 4518POPC   GL1 5005   0.487  11.274   8.850
 4518POPC   GL2 5006   0.523  11.284   8.850
 4518POPC   C1A 5007   0.464  11.255   8.550
 4518POPC   D2A 5008   0.420  11.272   8.250
 4518POPC   C3A 5009   0.447  11.329   7.950
 4518POPC   C4A 5010   0.472  11.345   7.650
 4518POPC   C1B 5011   0.655  11.311   8.550
 4518POPC   C2B 5012   0.716  11.359   8.250
 4518POPC   C3B 5013   0.707  11.296   7.950
 4518POPC   C4B 5014   0.669  11.333   7.650
 4519POPC   NC3 5015  40.763  29.959   9.450
 4519POPC   PO4 5016  40.776  29.966   9.150
 4519POPC   GL1 5017  40.774  29.883   8.850
 4519POPC   GL2 5018  40.679  29.841   8.850
 4519POPC   C1A 5019  40.745  29.962   8.550
 4519POPC   D2A 5020  40.778  29.970   8.250
 4519POPC   C3A 5021  40.735  29.930   7.950
 4519POPC   C4A 5022  40.813  29.914   7.650
 4519POPC   C1B 5023  40.618  29.824   8.550
 4519POPC   C2B 5024  40.589  29.799   8.250
 4519POPC   C3B 5025  40.590  29.755   7.950
 4519POPC   C4B 5026  40.558  29.770   7.650
 4520POPC   NC3 5027   0.410   5.125   9.450
 4520POPC   PO4 5028   0.427   5.137   9.150
 4520POPC   GL1 5029   0.426   5.117   8.850
 4520POPC   GL2 5030   0.482   4.998   8.850
 4520POPC   C1A 5031   0.390   5.048   8.550
 4520POPC   D2A 5032   0.477   5.098   8.250
 4520POPC   C3A 5033   0.459   5.046   7.950
 4520POPC   C4A 5034   0.414   5.117   7.650
 4520POPC   C1B 5035   0.594   4.904   8.550
 4520POPC   C2B 5036   0.582   4.911   8.250
 4520POPC   C3B 5037   0.601   4.913   7.950
 4520POPC   C4B 5038   0.521   4.855   7.650
 4521POPC   NC3 5039  28.325  17.481   9.450
 4521POPC   PO4 5040  28.346  17.529   9.150
 4521POPC   GL1 5041  28.367  17.500   8.850
 4521POPC   GL2 5042  28.464  17.630   8.850
 4521POPC   C1A 5043  28.380  17.528   8.550
 4521POPC   D2A 5044  28.381  17.523   8.250
 4521POPC   C3A 5045  28.338  17.502   7.950
 4521POPC   C4A 5046  28.383  17.482   7.650
 4521POPC   C1B 5047  28.517  17.697   8.550
 4521POPC   C2B 5048  28.459  17.705   8.250
 4521POPC   C3B 5049  28.503  17.742   7.950
 4521POPC   C4B 5050  28.479  17.762   7.650
 4522POPC   NC3 5051   5.839  20.597   9.450
 4522POPC   PO4 5052   5.824  20.595   9.150
 4522POPC   GL1 5053   5.905  20.612   8.850
 4522POPC   GL2 5054   5.851  20.537   8.850
 4522POPC   C1A 5055   5.850  20.598   8.550
 4522POPC   D2A 5056   5.891  20.620   8.250
 4522POPC   C3A 5057   5.846  20.599   7.950
 4522POPC   C4A 5058   5.879  20.608   7.650
 4522POPC   C1B 5059   5.839  20.358   8.550
 4522POPC   C2B 5060   5.830  20.402   8.250
 4522POPC   C3B 5061   5.801  20.390   7.950
 4522POPC   C4B 5062   5.826  20.403   7.650
 4523POPC   NC3 5063   8.965  42.308   9.450
 4523POPC   PO4 5064   8.971  42.291   9.150
 4523POPC   GL1 5065   8.940  42.373   8.850
 4523POPC   GL2 5066   8.974  42.446   8.850
 4523POPC   C1A 5067   8.959  42.300   8.550
 4523POPC   D2A 5068   8.936  42.285   8.250
 4523POPC   C3A 5069   8.923  42.288   7.950
 4523POPC   C4A 5070   8.974  42.339   7.650
 4523POPC   C1B 5071   8.997  42.618   8.550
 4523POPC   C2B 5072   8.960  42.631   8.250
 4523POPC   C3B 5073   8.970  42.596   7.950
 4523POPC   C4B 5074   9.018  42.567   7.650
 4524POPC   NC3 5075  26.787   8.217   9.450
 4524POPC   PO4 5076  26.770   8.242   9.150
 4524POPC   GL1 5077  26.828   8.242   8.850
 4524POPC   GL2 5078  26.988   8.164   8.850
 4524POPC   C1A 5079  26.768   8.195   8.550
 4524POPC   D2A 5080  26.860   8.200   8.250
 4524POPC   C3A 5081  26.825   8.172   7.950
 4524POPC   C4A 5082  26.772   8.155   7.650
 4524POPC   C1B 5083  27.063   8.186   8.550
 4524POPC   C2B 5084  27.056   8.163   8.250
 4524POPC   C3B 5085  27.074   8.236   7.950
 4524POPC   C4B 5086  27.034   8.205   7.650
 4525POPC   NC3 5087  19.860  11.282   9.450
 4525POPC   PO4 5088  19.869  11.320   9.150
 4525POPC   GL1 5089  19.804  11.275   8.850
 4525POPC   GL2 5090  19.785  11.219   8.850
 4525POPC   C1A 5091  19.869  11.303   8.550
 4525POPC   D2A 5092  19.820  11.341   8.250
 4525POPC   C3A 5093  19.856  11.319   7.950
 4525POPC   C4A 5094  19.852  11.320   7.650
 4525POPC   C1B 5095  19.754  11.012   8.550
 4525POPC   C2B 5096  19.762  11.063   8.250
 4525POPC   C3B 5097  19.829  11.058   7.950
 4525POPC   C4B 5098  19.781  11.089   7.650
 4526POPC   NC3 5099  22.139  43.901   9.450
 4526POPC   PO4 5100  22.174  43.843   9.150
 4526POPC   GL1 5101  22.173  43.889   8.850
 4526POPC   GL2 5102  22.202  44.060   8.850
 4526POPC   C1A 5103  22.146  43.898   8.550
 4526POPC   D2A 5104  22.210  43.843   8.250
 4526POPC   C3A 5105  22.199  43.872   7.950
 4526POPC   C4A 5106  22.151  43.911   7.650
 4526POPC   C1B 5107  22.204  44.119   8.550
 4526POPC   C2B 5108  22.154  44.094   8.250
 4526POPC   C3B 5109  22.179  44.122   7.950
 4526POPC   C4B 5110  22.211  44.095   7.650
 4527POPC   NC3 5111   4.302  16.736   9.450
 4527POPC   PO4 5112   4.352  16.734   9.150
 4527POPC   GL1 5113   4.313  16.759   8.850
 4527POPC   GL2 5114   4.328  16.603   8.850
 4527POPC   C1A 5115   4.342  16.688   8.550
 4527POPC   D2A 5116   4.323  16.744   8.250
 4527POPC   C3A 5117   4.332  16.731   7.950
 4527POPC   C4A 5118   4.367  16.763   7.650
 4527POPC   C1B 5119   4.391  16.451   8.550
 4527POPC   C2B 5120   4.456  16.539   8.250
 4527POPC   C3B 5121   4.455  16.540   7.950
 4527POPC   C4B 5122   4.449  16.516   7.650
 4528POPC   NC3 5123   5.067  14.397   9.450
 4528POPC   PO4 5124   5.055  14.384   9.150
 4528POPC   GL1 5125   5.137  14.424   8.850
 4528POPC   GL2 5126   5.182  14.380   8.850
 4528POPC   C1A 5127   5.119  14.425   8.550
 4528POPC   D2A 5128   5.067  14.376   8.250
 4528POPC   C3A 5129   5.056  14.411   7.950
 4528POPC   C4A 5130   5.127  14.402   7.650
 4528POPC   C1B 5131   5.315  14.423   8.550
 4528POPC   C2B 5132   5.385  14.359   8.250
 4528POPC   C3B 5133   5.377  14.436   7.950
 4528POPC   C4B 5134   5.383  14.348   7.650
 4529POPC   NC3 5135  19.100  40.755   9.450
 4529POPC   PO4 5136  19.077  40.811   9.150
 4529POPC   GL1 5137  19.049  40.755   8.850
 4529POPC   GL2 5138  19.196  40.840   8.850
 4529POPC   C1A 5139  19.034  40.792   8.550
 4529POPC   D2A 5140  19.043  40.753   8.250
 4529POPC   C3A 5141  19.012  40.745   7.950
 4529POPC   C4A 5142  19.048  40.809   7.650
 4529POPC   C1B 5143  19.293  40.777   8.550
 4529POPC   C2B 5144  19.260  40.825   8.250
 4529POPC   C3B 5145  19.311  40.788   7.950
 4529POPC   C4B 5146  19.266  40.821   7.650
 4530POPC   NC3 5147  41.554  22.905   9.450
 4530POPC   PO4 5148  41.552  22.966   9.150
 4530POPC   GL1 5149  41.608  22.923   8.850
 4530POPC   GL2 5150  41.642  22.929   8.850
 4530POPC   C1A 5151  41.577  22.980   8.550
 4530POPC   D2A 5152  41.538  22.951   8.250
 4530POPC   C3A 5153  41.580  22.908   7.950
 4530POPC   C4A 5154  41.528  22.934   7.650
 4530POPC   C1B 5155  41.825  23.003   8.550
 4530POPC   C2B 5156  41.831  22.973   8.250
 4530POPC   C3B 5157  41.817  22.934   7.950
 4530POPC   C4B 5158  41.802  22.982   7.650
 4531POPC   NC3 5159  17.474  41.586   9.450
 4531POPC   PO4 5160  17.511  41.592   9.150
 4531POPC   GL1 5161  17.547  41.575   8.850
 4531POPC   GL2 5162  17.373  41.586   8.850
 4531POPC   C1A 5163  17.517  41.567   8.550
 4531POPC   D2A 5164  17.544  41.535   8.250
 4531POPC   C3A 5165  17.542  41.568   7.950
 4531POPC   C4A 5166  17.507  41.556   7.650
 4531POPC   C1B 5167  17.239  41.713   8.550
 4531POPC   C2B 5168  17.333  41.641   8.250
 4531POPC   C3B 5169  17.253  41.666   7.950
 4531POPC   C4B 5170  17.321  41.709   7.650
 4532POPC   NC3 5171  32.995  26.785   9.450
 4532POPC   PO4 5172  33.067  26.836   9.150
 4532POPC   GL1 5173  33.038  26.807   8.850
 4532POPC   GL2 5174  32.934  26.679   8.850
 4532POPC   C1A 5175  33.032  26.847   8.550
 4532POPC   D2A 5176  33.046  26.850   8.250
 4532POPC   C3A 5177  33.026  26.811   7.950
 4532POPC   C4A 5178  33.059  26.807   7.650
 4532POPC   C1B 5179  32.903  26.593   8.550
 4532POPC   C2B 5180  32.891  26.655   8.250
 4532POPC   C3B 5181  32.927  26.647   7.950
 4532POPC   C4B 5182  32.881  26.568   7.650
 4533POPC   NC3 5183  31.490  19.790   9.450
 4533POPC   PO4 5184  31.424  19.859   9.150
 4533POPC   GL1 5185  31.435  19.815   8.850
 4533POPC   GL2 5186  31.620  19.797   8.850
 4533POPC   C1A 5187  31.491  19.859   8.550
 4533POPC   D2A 5188  31.457  19.864   8.250
 4533POPC   C3A 5189  31.474  19.862   7.950
 4533POPC   C4A 5190  31.466  19.852   7.650
 4533POPC   C1B 5191  31.674  19.775   8.550
 4533POPC   C2B 5192  31.767  19.855   8.250
 4533POPC   C3B 5193  31.687  19.767   7.950
 4533POPC   C4B 5194  31.763  19.826   7.650
 4534POPC   NC3 5195  18.311  17.535   9.450
 4534POPC   PO4 5196  18.277  17.497   9.150
 4534POPC   GL1 5197  18.251  17.553   8.850
 4534POPC   GL2 5198  18.155  17.530   8.850
 4534POPC   C1A 5199  18.276  17.551   8.550
 4534POPC   D2A 5200  18.241  17.537   8.250
 4534POPC   C3A 5201  18.317  17.494   7.950
 4534POPC   C4A 5202  18.238  17.502   7.650
 4534POPC   C1B 5203  18.115  17.601   8.550
 4534POPC   C2B 5204  18.106  17.673   8.250
 4534POPC   C3B 5205  18.101  17.670   7.950
 4534POPC   C4B 5206  18.032  17.669   7.650
 4535POPC   NC3 5207  42.359  15.166   9.450
 4535POPC   PO4 5208  42.293  15.212   9.150
 4535POPC   GL1 5209  42.321  15.227   8.850
 4535POPC   GL2 5210  42.307  15.285   8.850
 4535POPC   C1A 5211  42.312  15.229   8.550
 4535POPC   D2A 5212  42.308  15.131   8.250
 4535POPC   C3A 5213  42.376  15.153   7.950
 4535POPC   C4A 5214  42.310  15.136   7.650
 4535POPC   C1B 5215  42.176  15.395   8.550
 4535POPC   C2B 5216  42.259  15.424   8.250
 4535POPC   C3B 5217  42.220  15.405   7.950
 4535POPC   C4B 5218  42.183  15.391   7.650
 4536POPC   NC3 5219   5.824   7.436   9.450
 4536POPC   PO4 5220   5.820   7.453   9.150
 4536POPC   GL1 5221   5.912   7.465   8.850
 4536POPC   GL2 5222   5.827   7.561   8.850
 4536POPC   C1A 5223   5.877   7.453   8.550
 4536POPC   D2A 5224   5.866   7.453   8.250
 4536POPC   C3A 5225   5.886   7.396   7.950
 4536POPC   C4A 5226   5.912   7.395   7.650
 4536POPC   C1B 5227   5.738   7.681   8.550
 4536POPC   C2B 5228   5.831   7.694   8.250
 4536POPC   C3B 5229   5.742   7.626   7.950
 4536POPC   C4B 5230   5.793   7.617   7.650
 4537POPC   NC3 5231   8.241   9.768   9.450
 4537POPC   PO4 5232   8.163   9.723   9.150
 4537POPC   GL1 5233   8.162   9.772   8.850
 4537POPC   GL2 5234   8.307   9.685   8.850
 4537POPC   C1A 5235   8.202   9.765   8.550
 4537POPC   D2A 5236   8.148   9.713   8.250
 4537POPC   C3A 5237   8.149   9.774   7.950
 4537POPC   C4A 5238   8.153   9.764   7.650
 4537POPC   C1B 5239   8.303   9.585   8.550
 4537POPC   C2B 5240   8.365   9.595   8.250
 4537POPC   C3B 5241   8.323   9.504   7.950
 4537POPC   C4B 5242   8.299   9.594   7.650
 4538POPC   NC3 5243  15.132  26.049   9.450
 4538POPC   PO4 5244  15.188  26.032   9.150
 4538POPC   GL1 5245  15.182  26.041   8.850
 4538POPC   GL2 5246  15.127  26.131   8.850
 4538POPC   C1A 5247  15.218  26.020   8.550
 4538POPC   D2A 5248  15.192  26.005   8.250
 4538POPC   C3A 5249  15.211  26.074   7.950
 4538POPC   C4A 5250  15.188  26.005   7.650
 4538POPC   C1B 5251  15.020  26.226   8.550
 4538POPC   C2B 5252  14.978  26.194   8.250
 4538POPC   C3B 5253  14.945  26.179   7.950
 4538POPC   C4B 5254  15.023  26.219   7.650
 4539POPC   NC3 5255   6.658  42.309   9.450
 4539POPC   PO4 5256   6.633  42.326   9.150
 4539POPC   GL1 5257   6.675  42.381   8.850
 4539POPC   GL2 5258   6.649  42.213   8.850
 4539POPC   C1A 5259   6.605  42.384   8.550
 4539POPC   D2A 5260   6.627  42.375   8.250
 4539POPC   C3A 5261   6.642  42.347   7.950
 4539POPC   C4A 5262   6.626  42.305   7.650
 4539POPC   C1B 5263   6.649  42.036   8.550
 4539POPC   C2B 5264   6.673  42.080   8.250
 4539POPC   C3B 5265   6.670  42.086   7.950
 4539POPC   C4B 5266   6.625  42.135   7.650
 4540POPC   NC3 5267  20.613   5.879   9.450
 4540POPC   PO4 5268  20.600   5.836   9.150
 4540POPC   GL1 5269  20.639   5.898   8.850
 4540POPC   GL2 5270  20.511   5.794   8.850
 4540POPC   C1A 5271  20.630   5.903   8.550
 4540POPC   D2A 5272  20.625   5.915   8.250
 4540POPC   C3A 5273  20.632   5.843   7.950
 4540POPC   C4A 5274  20.583   5.870   7.650
 4540POPC   C1B 5275  20.413   5.740   8.550
 4540POPC   C2B 5276  20.378   5.787   8.250
 4540POPC   C3B 5277  20.343   5.767   7.950
 4540POPC   C4B 5278  20.341   5.785   7.650
 4541POPC   NC3 5279  37.708  36.879   9.450
 4541POPC   PO4 5280  37.697  36.936   9.150
 4541POPC   GL1 5281  37.683  36.876   8.850
 4541POPC   GL2 5282  37.632  36.827   8.850
 4541POPC   C1A 5283  37.715  36.950   8.550
 4541POPC   D2A 5284  37.654  36.902   8.250
 4541POPC   C3A 5285  37.681  36.938   7.950
 4541POPC   C4A 5286  37.726  36.895   7.650
 4541POPC   C1B 5287  37.556  36.732   8.550
 4541POPC   C2B 5288  37.553  36.679   8.250
 4541POPC   C3B 5289  37.539  36.729   7.950
 4541POPC   C4B 5290  37.525  36.689   7.650
 4542POPC   NC3 5291  27.618  38.452   9.450
 4542POPC   PO4 5292  27.554  38.492   9.150
 4542POPC   GL1 5293  27.553  38.461   8.850
 4542POPC   GL2 5294  27.716  38.445   8.850
 4542POPC   C1A 5295  27.606  38.475   8.550
 4542POPC   D2A 5296  27.569  38.438   8.250
 4542POPC   C3A 5297  27.641  38.491   7.950
 4542POPC   C4A 5298  27.637  38.411   7.650
 4542POPC   C1B 5299  27.861  38.351   8.550
 4542POPC   C2B 5300  27.814  38.338   8.250
 4542POPC   C3B 5301  27.791  38.410   7.950
 4542POPC   C4B 5302  27.804  38.411   7.650
 4543POPC   NC3 5303  15.195  39.273   9.450
 4543POPC   PO4 5304  15.226  39.271   9.150
 4543POPC   GL1 5305  15.206  39.264   8.850
 4543POPC   GL2 5306  15.259  39.300   8.850
 4543POPC   C1A 5307  15.136  39.260   8.550
 4543POPC   D2A 5308  15.144  39.206   8.250
 4543POPC   C3A 5309  15.189  39.271   7.950
 4543POPC   C4A 5310  15.165  39.183   7.650
 4543POPC   C1B 5311  15.304  39.386   8.550
 4543POPC   C2B 5312  15.378  39.397   8.250
 4543POPC   C3B 5313  15.367  39.405   7.950
 4543POPC   C4B 5314  15.318  39.425   7.650
 4544POPC   NC3 5315  39.984  12.059   9.450
 4544POPC   PO4 5316  39.978  12.096   9.150
 4544POPC   GL1 5317  40.032  12.027   8.850
 4544POPC   GL2 5318  39.914  12.179   8.850
 4544POPC   C1A 5319  40.036  12.067   8.550
 4544POPC   D2A 5320  40.013  12.111   8.250
 4544POPC   C3A 5321  39.981  12.053   7.950
 4544POPC   C4A 5322  40.013  12.100   7.650
 4544POPC   C1B 5323  39.857  12.251   8.550
 4544POPC   C2B 5324  39.860  12.311   8.250
 4544POPC   C3B 5325  39.793  12.309   7.950
 4544POPC   C4B 5326  39.857  12.276   7.650
 4545POPC   NC3 5327  39.220  41.601   9.450
 4545POPC   PO4 5328  39.247  41.563   9.150
 4545POPC   GL1 5329  39.240  41.569   8.850
 4545POPC   GL2 5330  39.089  41.521   8.850
 4545POPC   C1A 5331  39.210  41.546   8.550
 4545POPC   D2A 5332  39.202  41.596   8.250
 4545POPC   C3A 5333  39.253  41.540   7.950
 4545POPC   C4A 5334  39.196  41.579   7.650
 4545POPC   C1B 5335  39.051  41.415   8.550
 4545POPC   C2B 5336  38.991  41.392   8.250
 4545POPC   C3B 5337  39.000  41.415   7.950
 4545POPC   C4B 5338  38.995  41.458   7.650
 4546POPC   NC3 5339   1.193  17.552   9.450
 4546POPC   PO4 5340   1.168  17.532   9.150
 4546POPC   GL1 5341   1.194  17.521   8.850
 4546POPC   GL2 5342   1.191  17.383   8.850
 4546POPC   C1A 5343   1.212  17.463   8.550
 4546POPC   D2A 5344   1.251  17.544   8.250
 4546POPC   C3A 5345   1.203  17.460   7.950
 4546POPC   C4A 5346   1.205  17.541   7.650
 4546POPC   C1B 5347   1.057  17.330   8.550
 4546POPC   C2B 5348   1.099  17.331   8.250
 4546POPC   C3B 5349   1.054  17.299   7.950
 4546POPC   C4B 5350   1.033  17.292   7.650
 4547POPC   NC3 5351  17.537  23.757   9.450
 4547POPC   PO4 5352  17.533  23.710   9.150
 4547POPC   GL1 5353  17.533  23.706   8.850
 4547POPC   GL2 5354  17.484  23.579   8.850
 4547POPC   C1A 5355  17.524  23.710   8.550
 4547POPC   D2A 5356  17.498  23.700   8.250
 4547POPC   C3A 5357  17.459  23.696   7.950
 4547POPC   C4A 5358  17.554  23.729   7.650
 4547POPC   C1B 5359  17.440  23.462   8.550
 4547POPC   C2B 5360  17.490  23.473   8.250
 4547POPC   C3B 5361  17.497  23.416   7.950
 4547POPC   C4B 5362  17.524  23.496   7.650
 4548POPC   NC3 5363   1.188   2.745   9.450
 4548POPC   PO4 5364   1.243   2.791   9.150
 4548POPC   GL1 5365   1.204   2.734   8.850
 4548POPC   GL2 5366   1.199   2.687   8.850
 4548POPC   C1A 5367   1.243   2.717   8.550
 4548POPC   D2A 5368   1.234   2.815   8.250
 4548POPC   C3A 5369   1.225   2.797   7.950
 4548POPC   C4A 5370   1.247   2.776   7.650
 4548POPC   C1B 5371   1.244   2.565   8.550
 4548POPC   C2B 5372   1.228   2.562   8.250
 4548POPC   C3B 5373   1.288   2.499   7.950
 4548POPC   C4B 5374   1.273   2.490   7.650
 4549POPC   NC3 5375  31.489  18.331   9.450
 4549POPC   PO4 5376  31.513  18.303   9.150
 4549POPC   GL1 5377  31.514  18.322   8.850
 4549POPC   GL2 5378  31.588  18.247   8.850
 4549POPC   C1A 5379  31.488  18.324   8.550
 4549POPC   D2A 5380  31.427  18.258   8.250
 4549POPC   C3A 5381  31.458  18.276   7.950
 4549POPC   C4A 5382  31.439  18.302   7.650
 4549POPC   C1B 5383  31.646  18.123   8.550
 4549POPC   C2B 5384  31.716  18.122   8.250
 4549POPC   C3B 5385  31.728  18.153   7.950
 4549POPC   C4B 5386  31.641  18.152   7.650
 4550POPC   NC3 5387   9.009  43.070   9.450
 4550POPC   PO4 5388   8.948  43.129   9.150
 4550POPC   GL1 5389   8.997  43.080   8.850
 4550POPC   GL2 5390   8.843  43.096   8.850
 4550POPC   C1A 5391   8.945  43.065   8.550
 4550POPC   D2A 5392   8.965  43.064   8.250
 4550POPC   C3A 5393   8.971  43.118   7.950
 4550POPC   C4A 5394   8.987  43.075   7.650
 4550POPC   C1B 5395   8.785  43.011   8.550
 4550POPC   C2B 5396   8.718  43.037   8.250
 4550POPC   C3B 5397   8.703  43.057   7.950
 4550POPC   C4B 5398   8.783  43.025   7.650
 4551POPC   NC3 5399  30.650  11.290   9.450
 4551POPC   PO4 5400  30.720  11.281   9.150
 4551POPC   GL1 5401  30.740  11.251   8.850
 4551POPC   GL2 5402  30.810  11.152   8.850
 4551POPC   C1A 5403  30.651  11.293   8.550
 4551POPC   D2A 5404  30.663  11.262   8.250
 4551POPC   C3A 5405  30.697  11.329   7.950
 4551POPC   C4A 5406  30.720  11.289   7.650
 4551POPC   C1B 5407  30.877  11.146   8.550
 4551POPC   C2B 5408  30.876  11.076   8.250
 4551POPC   C3B 5409  30.825  11.094   7.950
 4551POPC   C4B 5410  30.891  11.054   7.650
 4552POPC   NC3 5411  12.822  38.424   9.450
 4552POPC   PO4 5412  12.847  38.430   9.150
 4552POPC   GL1 5413  12.841  38.413   8.850
 4552POPC   GL2 5414  12.897  38.533   8.850
 4552POPC   C1A 5415  12.861  38.499   8.550
 4552POPC   D2A 5416  12.834  38.437   8.250
 4552POPC   C3A 5417  12.807  38.446   7.950
 4552POPC   C4A 5418  12.857  38.460   7.650
 4552POPC   C1B 5419  12.930  38.684   8.550
 4552POPC   C2B 5420  13.008  38.684   8.250
 4552POPC   C3B 5421  13.010  38.624   7.950
 4552POPC   C4B 5422  13.015  38.624   7.650
 4553POPC   NC3 5423   8.980  41.581   9.450
 4553POPC   PO4 5424   8.968  41.522   9.150
 4553POPC   GL1 5425   8.950  41.555   8.850
 4553POPC   GL2 5426   9.018  41.619   8.850
 4553POPC   C1A 5427   8.998  41.542   8.550
 4553POPC   D2A 5428   9.019  41.581   8.250
 4553POPC   C3A 5429   8.957  41.543   7.950
 4553POPC   C4A 5430   8.963  41.586   7.650
 4553POPC   C1B 5431   9.138  41.769   8.550
 4553POPC   C2B 5432   9.067  41.815   8.250
 4553POPC   C3B 5433   9.134  41.813   7.950
 4553POPC   C4B 5434   9.134  41.742   7.650
 4554POPC   NC3 5435  19.038  13.596   9.450
 4554POPC   PO4 5436  19.104  13.612   9.150
 4554POPC   GL1 5437  19.070  13.673   8.850
 4554POPC   GL2 5438  18.943  13.755   8.850
 4554POPC   C1A 5439  19.085  13.596   8.550
 4554POPC   D2A 5440  19.058  13.581   8.250
 4554POPC   C3A 5441  19.098  13.665   7.950
 4554POPC   C4A 5442  19.021  13.644   7.650
 4554POPC   C1B 5443  18.856  13.819   8.550
 4554POPC   C2B 5444  18.912  13.786   8.250
 4554POPC   C3B 5445  18.862  13.833   7.950
 4554POPC   C4B 5446  18.877  13.825   7.650
 4555POPC   NC3 5447   1.189   8.164   9.450
 4555POPC   PO4 5448   1.189   8.158   9.150
 4555POPC   GL1 5449   1.240   8.156   8.850
 4555POPC   GL2 5450   1.156   8.357   8.850
 4555POPC   C1A 5451   1.228   8.155   8.550
 4555POPC   D2A 5452   1.235   8.211   8.250
 4555POPC   C3A 5453   1.227   8.214   7.950
 4555POPC   C4A 5454   1.217   8.187   7.650
 4555POPC   C1B 5455   1.147   8.424   8.550
 4555POPC   C2B 5456   1.137   8.463   8.250
 4555POPC   C3B 5457   1.116   8.445   7.950
 4555POPC   C4B 5458   1.178   8.460   7.650
 4556POPC   NC3 5459  15.192  28.369   9.450
 4556POPC   PO4 5460  15.226  28.395   9.150
 4556POPC   GL1 5461  15.224  28.350   8.850
 4556POPC   GL2 5462  15.165  28.442   8.850
 4556POPC   C1A 5463  15.205  28.346   8.550
 4556POPC   D2A 5464  15.143  28.341   8.250
 4556POPC   C3A 5465  15.167  28.408   7.950
 4556POPC   C4A 5466  15.228  28.399   7.650
 4556POPC   C1B 5467  15.206  28.592   8.550
 4556POPC   C2B 5468  15.208  28.577   8.250
 4556POPC   C3B 5469  15.279  28.631   7.950
 4556POPC   C4B 5470  15.241  28.625   7.650
 4557POPC   NC3 5471  40.811   4.362   9.450
 4557POPC   PO4 5472  40.784   4.301   9.150
 4557POPC   GL1 5473  40.744   4.347   8.850
 4557POPC   GL2 5474  40.621   4.372   8.850
 4557POPC   C1A 5475  40.736   4.281   8.550
 4557POPC   D2A 5476  40.821   4.361   8.250
 4557POPC   C3A 5477  40.774   4.283   7.950
 4557POPC   C4A 5478  40.833   4.291   7.650
 4557POPC   C1B 5479  40.571   4.402   8.550
 4557POPC   C2B 5480  40.558   4.381   8.250
 4557POPC   C3B 5481  40.517   4.355   7.950
 4557POPC   C4B 5482  40.544   4.410   7.650
 4558POPC   NC3 5483  44.612   6.687   9.450
 4558POPC   PO4 5484  44.638   6.678   9.150
 4558POPC   GL1 5485  44.642   6.676   8.850
 4558POPC   GL2 5486  44.562   6.614   8.850
 4558POPC   C1A 5487  44.645   6.633   8.550
 4558POPC   D2A 5488  44.679   6.621   8.250
 4558POPC   C3A 5489  44.643   6.651   7.950
 4558POPC   C4A 5490  44.663   6.648   7.650
 4558POPC   C1B 5491  44.433   6.560   8.550
 4558POPC   C2B 5492  44.389   6.519   8.250
 4558POPC   C3B 5493  44.412   6.543   7.950
 4558POPC   C4B 5494  44.420   6.511   7.650
 4559POPC   NC3 5495  11.301  28.369   9.450
 4559POPC   PO4 5496  11.277  28.326   9.150
 4559POPC   GL1 5497  11.251  28.371   8.850
 4559POPC   GL2 5498  11.153  28.306   8.850
 4559POPC   C1A 5499  11.282  28.383   8.550
 4559POPC   D2A 5500  11.250  28.409   8.250
 4559POPC   C3A 5501  11.342  28.354   7.950
 4559POPC   C4A 5502  11.254  28.320   7.650
 4559POPC   C1B 5503  11.088  28.253   8.550
 4559POPC   C2B 5504  11.115  28.226   8.250
 4559POPC   C3B 5505  11.080  28.272   7.950
 4559POPC   C4B 5506  11.133  28.284   7.650
 4560POPC   NC3 5507   3.556  16.779   9.450
 4560POPC   PO4 5508   3.510  16.769   9.150
 4560POPC   GL1 5509   3.547  16.767   8.850
 4560POPC   GL2 5510   3.431  16.661   8.850
 4560POPC   C1A 5511   3.543  16.777   8.550
 4560POPC   D2A 5512   3.541  16.704   8.250
 4560POPC   C3A 5513   3.589  16.780   7.950
 4560POPC   C4A 5514   3.556  16.769   7.650
 4560POPC   C1B 5515   3.293  16.647   8.550
 4560POPC   C2B 5516   3.296  16.661   8.250
 4560POPC   C3B 5517   3.329  16.686   7.950
 4560POPC   C4B 5518   3.294  16.608   7.650
 4561POPC   NC3 5519  18.329   1.198   9.450
 4561POPC   PO4 5520  18.264   1.251   9.150
 4561POPC   GL1 5521  18.318   1.217   8.850
 4561POPC   GL2 5522  18.317   1.359   8.850
 4561POPC   C1A 5523  18.253   1.262   8.550
 4561POPC   D2A 5524  18.282   1.170   8.250
 4561POPC   C3A 5525  18.258   1.246   7.950
 4561POPC   C4A 5526  18.286   1.175   7.650
 4561POPC   C1B 5527  18.292   1.506   8.550
 4561POPC   C2B 5528  18.363   1.506   8.250
 4561POPC   C3B 5529  18.324   1.462   7.950
 4561POPC   C4B 5530  18.348   1.498   7.650
 4562POPC   NC3 5531  36.953  43.914   9.450
 4562POPC   PO4 5532  36.949  43.908   9.150
 4562POPC   GL1 5533  36.916  43.846   8.850
 4562POPC   GL2 5534  37.052  43.924   8.850
 4562POPC   C1A 5535  36.953  43.891   8.550
 4562POPC   D2A 5536  36.888  43.919   8.250
 4562POPC   C3A 5537  36.927  43.888   7.950
 4562POPC   C4A 5538  36.899  43.895   7.650
 4562POPC   C1B 5539  37.125  43.921   8.550
 4562POPC   C2B 5540  37.162  43.938   8.250
 4562POPC   C3B 5541  37.185  43.864   7.950
 4562POPC   C4B 5542  37.174  43.870   7.650
 4563POPC   NC3 5543  30.654  22.891   9.450
 4563POPC   PO4 5544  30.727  22.943   9.150
 4563POPC   GL1 5545  30.717  22.897   8.850
 4563POPC   GL2 5546  30.716  22.836   8.850
 4563POPC   C1A 5547  30.687  22.977   8.550
 4563POPC   D2A 5548  30.739  22.915   8.250
 4563POPC   C3A 5549  30.708  22.979   7.950
 4563POPC   C4A 5550  30.727  22.926   7.650
 4563POPC   C1B 5551  30.642  22.708   8.550
 4563POPC   C2B 5552  30.671  22.676   8.250
 4563POPC   C3B 5553  30.708  22.729   7.950
 4563POPC   C4B 5554  30.725  22.692   7.650
 4564POPC   NC3 5555  20.594  40.773   9.450
 4564POPC   PO4 5556  20.593  40.742   9.150
 4564POPC   GL1 5557  20.563  40.771   8.850
 4564POPC   GL2 5558  20.465  40.788   8.850
 4564POPC   C1A 5559  20.637  40.818   8.550
 4564POPC   D2A 5560  20.628  40.765   8.250
 4564POPC   C3A 5561  20.643  40.796   7.950
 4564POPC   C4A 5562  20.578  40.757   7.650
 4564POPC   C1B 5563  20.331  40.819   8.550
 4564POPC   C2B 5564  20.336  40.823   8.250
 4564POPC   C3B 5565  20.373  40.835   7.950
 4564POPC   C4B 5566  20.339  40.809   7.650
 4565POPC   NC3 5567  18.266   8.955   9.450
 4565POPC   PO4 5568  18.241   9.006   9.150
 4565POPC   GL1 5569  18.235   8.957   8.850
 4565POPC   GL2 5570  18.354   8.892   8.850
 4565POPC   C1A 5571  18.277   9.017   8.550
 4565POPC   D2A 5572  18.312   8.962   8.250
 4565POPC   C3A 5573  18.310   8.978   7.950
 4565POPC   C4A 5574  18.306   9.003   7.650
 4565POPC   C1B 5575  18.363   8.771   8.550
 4565POPC   C2B 5576  18.352   8.725   8.250
 4565POPC   C3B 5577  18.299   8.772   7.950
 4565POPC   C4B 5578  18.303   8.763   7.650
 4566POPC   NC3 5579  42.344  22.119   9.450
 4566POPC   PO4 5580  42.353  22.172   9.150
 4566POPC   GL1 5581  42.303  22.128   8.850
 4566POPC   GL2 5582  42.223  22.268   8.850
 4566POPC   C1A 5583  42.302  22.155   8.550
 4566POPC   D2A 5584  42.379  22.151   8.250
 4566POPC   C3A 5585  42.335  22.130   7.950
 4566POPC   C4A 5586  42.377  22.172   7.650
 4566POPC   C1B 5587  42.151  22.315   8.550
 4566POPC   C2B 5588  42.152  22.328   8.250
 4566POPC   C3B 5589  42.143  22.331   7.950
 4566POPC   C4B 5590  42.143  22.359   7.650
 4567POPC   NC3 5591  27.554  26.844   9.450
 4567POPC   PO4 5592  27.545  26.837   9.150
 4567POPC   GL1 5593  27.556  26.856   8.850
 4567POPC   GL2 5594  27.724  26.758   8.850
 4567POPC   C1A 5595  27.559  26.855   8.550
 4567POPC   D2A 5596  27.601  26.796   8.250
 4567POPC   C3A 5597  27.630  26.802   7.950
 4567POPC   C4A 5598  27.584  26.864   7.650
 4567POPC   C1B 5599  27.890  26.760   8.550
 4567POPC   C2B 5600  27.856  26.784   8.250
 4567POPC   C3B 5601  27.798  26.794   7.950
 4567POPC   C4B 5602  27.845  26.752   7.650
 4568POPC   NC3 5603  40.046   4.307   9.450
 4568POPC   PO4 5604  40.045   4.304   9.150
 4568POPC   GL1 5605  39.981   4.280   8.850
 4568POPC   GL2 5606  40.021   4.470   8.850
 4568POPC   C1A 5607  40.009   4.347   8.550
 4568POPC   D2A 5608  40.030   4.295   8.250
 4568POPC   C3A 5609  40.045   4.338   7.950
 4568POPC   C4A 5610  39.972   4.284   7.650
 4568POPC   C1B 5611  40.086   4.592   8.550
 4568POPC   C2B 5612  40.042   4.582   8.250
 4568POPC   C3B 5613  40.035   4.605   7.950
 4568POPC   C4B 5614  40.130   4.552   7.650
 4569POPC   NC3 5615   3.586  20.641   9.450
 4569POPC   PO4 5616   3.536  20.638   9.150
 4569POPC   GL1 5617   3.496  20.645   8.850
 4569POPC   GL2 5618   3.682  20.675   8.850
 4569POPC   C1A 5619   3.549  20.609   8.550
 4569POPC   D2A 5620   3.496  20.647   8.250
 4569POPC   C3A 5621   3.513  20.609   7.950
 4569POPC   C4A 5622   3.566  20.575   7.650
 4569POPC   C1B 5623   3.788  20.792   8.550
 4569POPC   C2B 5624   3.798  20.773   8.250
 4569POPC   C3B 5625   3.745  20.725   7.950
 4569POPC   C4B 5626   3.733  20.736   7.650
 4570POPC   NC3 5627  30.658  34.553   9.450
 4570POPC   PO4 5628  30.669  34.532   9.150
 4570POPC   GL1 5629  30.661  34.588   8.850
 4570POPC   GL2 5630  30.839  34.642   8.850
 4570POPC   C1A 5631  30.676  34.555   8.550
 4570POPC   D2A 5632  30.721  34.568   8.250
 4570POPC   C3A 5633  30.728  34.604   7.950
 4570POPC   C4A 5634  30.712  34.558   7.650
 4570POPC   C1B 5635  30.958  34.740   8.550
 4570POPC   C2B 5636  30.870  34.673   8.250
 4570POPC   C3B 5637  30.882  34.739   7.950
 4570POPC   C4B 5638  30.925  34.691   7.650
 4571POPC   NC3 5639  15.922  15.192   9.450
 4571POPC   PO4 5640  15.978  15.205   9.150
 4571POPC   GL1 5641  15.941  15.185   8.850
 4571POPC   GL2 5642  15.972  15.306   8.850
 4571POPC   C1A 5643  15.989  15.192   8.550
 4571POPC   D2A 5644  15.970  15.190   8.250
 4571POPC   C3A 5645  15.924  15.165   7.950
 4571POPC   C4A 5646  16.000  15.171   7.650
 4571POPC   C1B 5647  15.983  15.432   8.550
 4571POPC   C2B 5648  16.050  15.442   8.250
 4571POPC   C3B 5649  16.010  15.412   7.950
 4571POPC   C4B 5650  16.055  15.396   7.650
 4572POPC   NC3 5651  43.077  36.929   9.450
 4572POPC   PO4 5652  43.061  36.883   9.150
 4572POPC   GL1 5653  43.081  36.870   8.850
 4572POPC   GL2 5654  43.034  36.955   8.850
 4572POPC   C1A 5655  43.099  36.894   8.550
 4572POPC   D2A 5656  43.113  36.900   8.250
 4572POPC   C3A 5657  43.155  36.871   7.950
 4572POPC   C4A 5658  43.113  36.884   7.650
 4572POPC   C1B 5659  42.870  36.971   8.550
 4572POPC   C2B 5660  42.901  36.980   8.250
 4572POPC   C3B 5661  42.858  37.020   7.950
 4572POPC   C4B 5662  42.870  37.039   7.650
 4573POPC   NC3 5663  32.275  22.126   9.450
 4573POPC   PO4 5664  32.229  22.160   9.150
 4573POPC   GL1 5665  32.246  22.114   8.850
 4573POPC   GL2 5666  32.163  22.246   8.850
 4573POPC   C1A 5667  32.199  22.113   8.550
 4573POPC   D2A 5668  32.287  22.174   8.250
 4573POPC   C3A 5669  32.215  22.123   7.950
 4573POPC   C4A 5670  32.256  22.157   7.650
 4573POPC   C1B 5671  32.200  22.426   8.550
 4573POPC   C2B 5672  32.133  22.388   8.250
 4573POPC   C3B 5673  32.178  22.402   7.950
 4573POPC   C4B 5674  32.127  22.445   7.650
 4574POPC   NC3 5675  19.862  27.609   9.450
 4574POPC   PO4 5676  19.879  27.581   9.150
 4574POPC   GL1 5677  19.792  27.550   8.850
 4574POPC   GL2 5678  19.725  27.458   8.850
 4574POPC   C1A 5679  19.795  27.567   8.550
 4574POPC   D2A 5680  19.848  27.581   8.250
 4574POPC   C3A 5681  19.819  27.619   7.950
 4574POPC   C4A 5682  19.883  27.638   7.650
 4574POPC   C1B 5683  19.743  27.367   8.550
 4574POPC   C2B 5684  19.715  27.384   8.250
 4574POPC   C3B 5685  19.751  27.355   7.950
 4574POPC   C4B 5686  19.752  27.355   7.650
 4575POPC   NC3 5687  39.238   7.447   9.450
 4575POPC   PO4 5688  39.217   7.439   9.150
 4575POPC   GL1 5689  39.181   7.408   8.850
 4575POPC   GL2 5690  39.304   7.511   8.850
 4575POPC   C1A 5691  39.205   7.427   8.550
 4575POPC   D2A 5692  39.266   7.371   8.250
 4575POPC   C3A 5693  39.214   7.429   7.950
 4575POPC   C4A 5694  39.241   7.466   7.650
 4575POPC   C1B 5695  39.304   7.618   8.550
 4575POPC   C2B 5696  39.309   7.665   8.250
 4575POPC   C3B 5697  39.355   7.609   7.950
 4575POPC   C4B 5698  39.360   7.614   7.650
 4576POPC   NC3 5699  39.267  43.857   9.450
 4576POPC   PO4 5700  39.202  43.890   9.150
 4576POPC   GL1 5701  39.188  43.897   8.850
 4576POPC   GL2 5702  39.363  43.905   8.850
 4576POPC   C1A 5703  39.259  43.903   8.550
 4576POPC   D2A 5704  39.245  43.897   8.250
 4576POPC   C3A 5705  39.261  43.843   7.950
 4576POPC   C4A 5706  39.269  43.924   7.650
 4576POPC   C1B 5707  39.515  43.838   8.550
 4576POPC   C2B 5708  39.443  43.878   8.250
 4576POPC   C3B 5709  39.463  43.832   7.950
 4576POPC   C4B 5710  39.434  43.879   7.650
 4577POPC   NC3 5711  26.808  36.148   9.450
 4577POPC   PO4 5712  26.814  36.167   9.150
 4577POPC   GL1 5713  26.834  36.169   8.850
 4577POPC   GL2 5714  26.726  36.259   8.850
 4577POPC   C1A 5715  26.781  36.112   8.550
 4577POPC   D2A 5716  26.801  36.110   8.250
 4577POPC   C3A 5717  26.837  36.099   7.950
 4577POPC   C4A 5718  26.842  36.141   7.650
 4577POPC   C1B 5719  26.700  36.390   8.550
 4577POPC   C2B 5720  26.761  36.347   8.250
 4577POPC   C3B 5721  26.761  36.361   7.950
 4577POPC   C4B 5722  26.717  36.369   7.650
 4578POPC   NC3 5723   7.380   9.748   9.450
 4578POPC   PO4 5724   7.439   9.767   9.150
 4578POPC   GL1 5725   7.384   9.706   8.850
 4578POPC   GL2 5726   7.449   9.881   8.850
 4578POPC   C1A 5727   7.407   9.702   8.550
 4578POPC   D2A 5728   7.372   9.789   8.250
 4578POPC   C3A 5729   7.396   9.758   7.950
 4578POPC   C4A 5730   7.391   9.756   7.650
 4578POPC   C1B 5731   7.475   9.969   8.550
 4578POPC   C2B 5732   7.491  10.017   8.250
 4578POPC   C3B 5733   7.487   9.973   7.950
 4578POPC   C4B 5734   7.432  10.035   7.650
 4579POPC   NC3 5735   7.435  36.174   9.450
 4579POPC   PO4 5736   7.424  36.169   9.150
 4579POPC   GL1 5737   7.457  36.081   8.850
 4579POPC   GL2 5738   7.376  36.039   8.850
 4579POPC   C1A 5739   7.439  36.137   8.550
 4579POPC   D2A 5740   7.469  36.157   8.250
 4579POPC   C3A 5741   7.439  36.113   7.950
 4579POPC   C4A 5742   7.450  36.113   7.650
 4579POPC   C1B 5743   7.405  35.886   8.550
 4579POPC   C2B 5744   7.447  35.913   8.250
 4579POPC   C3B 5745   7.399  35.913   7.950
 4579POPC   C4B 5746   7.468  35.915   7.650
 4580POPC   NC3 5747  28.345  13.607   9.450
 4580POPC   PO4 5748  28.407  13.641   9.150
 4580POPC   GL1 5749  28.382  13.608   8.850
 4580POPC   GL2 5750  28.224  13.575   8.850
 4580POPC   C1A 5751  28.409  13.595   8.550
 4580POPC   D2A 5752  28.364  13.644   8.250
 4580POPC   C3A 5753  28.334  13.614   7.950
 4580POPC   C4A 5754  28.370  13.649   7.650
 4580POPC   C1B 5755  28.176  13.433   8.550
 4580POPC   C2B 5756  28.212  13.444   8.250
 4580POPC   C3B 5757  28.176  13.513   7.950
 4580POPC   C4B 5758  28.142  13.437   7.650
 4581POPC   NC3 5759  22.208  21.341   9.450
 4581POPC   PO4 5760  22.202  21.381   9.150
 4581POPC   GL1 5761  22.142  21.370   8.850
 4581POPC   GL2 5762  22.255  21.448   8.850
 4581POPC   C1A 5763  22.182  21.349   8.550
 4581POPC   D2A 5764  22.152  21.347   8.250
 4581POPC   C3A 5765  22.121  21.364   7.950
 4581POPC   C4A 5766  22.190  21.418   7.650
 4581POPC   C1B 5767  22.439  21.445   8.550
 4581POPC   C2B 5768  22.433  21.444   8.250
 4581POPC   C3B 5769  22.427  21.454   7.950
 4581POPC   C4B 5770  22.423  21.481   7.650
 4582POPC   NC3 5771  19.864  43.107   9.450
 4582POPC   PO4 5772  19.809  43.150   9.150
 4582POPC   GL1 5773  19.875  43.110   8.850
 4582POPC   GL2 5774  19.945  42.957   8.850
 4582POPC   C1A 5775  19.809  43.121   8.550
 4582POPC   D2A 5776  19.860  43.128   8.250
 4582POPC   C3A 5777  19.787  43.129   7.950
 4582POPC   C4A 5778  19.827  43.141   7.650
 4582POPC   C1B 5779  19.957  42.931   8.550
 4582POPC   C2B 5780  19.922  42.921   8.250
 4582POPC   C3B 5781  20.001  42.933   7.950
 4582POPC   C4B 5782  19.926  42.865   7.650
 4583POPC   NC3 5783  37.724  11.281   9.450
 4583POPC   PO4 5784  37.686  11.283   9.150
 4583POPC   GL1 5785  37.675  11.330   8.850
 4583POPC   GL2 5786  37.670  11.452   8.850
 4583POPC   C1A 5787  37.700  11.253   8.550
 4583POPC   D2A 5788  37.716  11.283   8.250
 4583POPC   C3A 5789  37.727  11.273   7.950
 4583POPC   C4A 5790  37.686  11.258   7.650
 4583POPC   C1B 5791  37.687  11.553   8.550
 4583POPC   C2B 5792  37.654  11.551   8.250
 4583POPC   C3B 5793  37.674  11.510   7.950
 4583POPC   C4B 5794  37.709  11.536   7.650
 4584POPC   NC3 5795   1.979  41.535   9.450
 4584POPC   PO4 5796   1.970  41.595   9.150
 4584POPC   GL1 5797   1.947  41.604   8.850
 4584POPC   GL2 5798   2.065  41.624   8.850
 4584POPC   C1A 5799   1.981  41.604   8.550
 4584POPC   D2A 5800   2.003  41.550   8.250
 4584POPC   C3A 5801   2.012  41.535   7.950
 4584POPC   C4A 5802   1.988  41.603   7.650
 4584POPC   C1B 5803   2.192  41.740   8.550
 4584POPC   C2B 5804   2.158  41.731   8.250
 4584POPC   C3B 5805   2.142  41.765   7.950
 4584POPC   C4B 5806   2.225  41.684   7.650
 4585POPC   NC3 5807  15.914  20.628   9.450
 4585POPC   PO4 5808  15.925  20.625   9.150
 4585POPC   GL1 5809  15.975  20.636   8.850
 4585POPC   GL2 5810  16.022  20.663   8.850
 4585POPC   C1A 5811  15.956  20.593   8.550
 4585POPC   D2A 5812  15.956  20.604   8.250
 4585POPC   C3A 5813  16.002  20.645   7.950
 4585POPC   C4A 5814  15.950  20.578   7.650
 4585POPC   C1B 5815  16.156  20.746   8.550
 4585POPC   C2B 5816  16.214  20.750   8.250
 4585POPC   C3B 5817  16.220  20.746   7.950
 4585POPC   C4B 5818  16.127  20.715   7.650
 4586POPC   NC3 5819  31.489  33.033   9.450
 4586POPC   PO4 5820  31.521  32.988   9.150
 4586POPC   GL1 5821  31.441  33.009   8.850
 4586POPC   GL2 5822  31.618  33.063   8.850
 4586POPC   C1A 5823  31.458  33.039   8.550
 4586POPC   D2A 5824  31.440  33.024   8.250
 4586POPC   C3A 5825  31.509  33.041   7.950
 4586POPC   C4A 5826  31.453  32.980   7.650
 4586POPC   C1B 5827  31.728  33.148   8.550
 4586POPC   C2B 5828  31.641  33.127   8.250
 4586POPC   C3B 5829  31.684  33.204   7.950
 4586POPC   C4B 5830  31.640  33.133   7.650
 4587POPC   NC3 5831  33.787  28.371   9.450
 4587POPC   PO4 5832  33.838  28.352   9.150
 4587POPC   GL1 5833  33.840  28.324   8.850
 4587POPC   GL2 5834  33.891  28.210   8.850
 4587POPC   C1A 5835  33.771  28.396   8.550
 4587POPC   D2A 5836  33.777  28.381   8.250
 4587POPC   C3A 5837  33.758  28.327   7.950
 4587POPC   C4A 5838  33.765  28.398   7.650
 4587POPC   C1B 5839  33.953  28.162   8.550
 4587POPC   C2B 5840  33.892  28.189   8.250
 4587POPC   C3B 5841  33.910  28.093   7.950
 4587POPC   C4B 5842  33.886  28.177   7.650
 4588POPC   NC3 5843  28.413  43.146   9.450
 4588POPC   PO4 5844  28.374  43.067   9.150
 4588POPC   GL1 5845  28.343  43.074   8.850
 4588POPC   GL2 5846  28.442  43.145   8.850
 4588POPC   C1A 5847  28.394  43.097   8.550
 4588POPC   D2A 5848  28.372  43.109   8.250
 4588POPC   C3A 5849  28.396  43.154   7.950
 4588POPC   C4A 5850  28.413  43.093   7.650
 4588POPC   C1B 5851  28.560  43.227   8.550
 4588POPC   C2B 5852  28.585  43.237   8.250
 4588POPC   C3B 5853  28.590  43.240   7.950
 4588POPC   C4B 5854  28.548  43.249   7.650
 4589POPC   NC3 5855  26.861  43.849   9.450
 4589POPC   PO4 5856  26.846  43.891   9.150
 4589POPC   GL1 5857  26.851  43.892   8.850
 4589POPC   GL2 5858  26.682  43.833   8.850
 4589POPC   C1A 5859  26.794  43.847   8.550
 4589POPC   D2A 5860  26.857  43.902   8.250
 4589POPC   C3A 5861  26.827  43.865   7.950
 4589POPC   C4A 5862  26.834  43.840   7.650
 4589POPC   C1B 5863  26.601  43.705   8.550
 4589POPC   C2B 5864  26.623  43.705   8.250
 4589POPC   C3B 5865  26.666  43.711   7.950
 4589POPC   C4B 5866  26.632  43.675   7.650
 4590POPC   NC3 5867   1.256  39.190   9.450
 4590POPC   PO4 5868   1.228  39.232   9.150
 4590POPC   GL1 5869   1.211  39.258   8.850
 4590POPC   GL2 5870   1.319  39.220   8.850
 4590POPC   C1A 5871   1.190  39.239   8.550
 4590POPC   D2A 5872   1.260  39.199   8.250
 4590POPC   C3A 5873   1.214  39.186   7.950
 4590POPC   C4A 5874   1.193  39.281   7.650
 4590POPC   C1B 5875   1.436  39.338   8.550
 4590POPC   C2B 5876   1.438  39.348   8.250
 4590POPC   C3B 5877   1.450  39.273   7.950
 4590POPC   C4B 5878   1.471  39.326   7.650
 4591POPC   NC3 5879   5.122  19.876   9.450
 4591POPC   PO4 5880   5.046  19.864   9.150
 4591POPC   GL1 5881   5.051  19.866   8.850
 4591POPC   GL2 5882   5.107  19.716   8.850
 4591POPC   C1A 5883   5.108  19.812   8.550
 4591POPC   D2A 5884   5.136  19.806   8.250
 4591POPC   C3A 5885   5.088  19.853   7.950
 4591POPC   C4A 5886   5.065  19.838   7.650
 4591POPC   C1B 5887   5.153  19.636   8.550
 4591POPC   C2B 5888   5.143  19.563   8.250
 4591POPC   C3B 5889   5.175  19.630   7.950
 4591POPC   C4B 5890   5.124  19.590   7.650
 4592POPC   NC3 5891  13.672  29.969   9.450
 4592POPC   PO4 5892  13.634  29.954   9.150
 4592POPC   GL1 5893  13.600  29.928   8.850
 4592POPC   GL2 5894  13.487  29.841   8.850
 4592POPC   C1A 5895  13.606  29.892   8.550
 4592POPC   D2A 5896  13.654  29.899   8.250
 4592POPC   C3A 5897  13.594  29.933   7.950
 4592POPC   C4A 5898  13.606  29.884   7.650
 4592POPC   C1B 5899  13.450  29.787   8.550
 4592POPC   C2B 5900  13.406  29.716   8.250
 4592POPC   C3B 5901  13.481  29.716   7.950
 4592POPC   C4B 5902  13.406  29.716   7.650
 4593POPC   NC3 5903  26.805  32.298   9.450
 4593POPC   PO4 5904  26.813  32.218   9.150
 4593POPC   GL1 5905  26.788  32.213   8.850
 4593POPC   GL2 5906  26.931  32.224   8.850
 4593POPC   C1A 5907  26.853  32.203   8.550
 4593POPC   D2A 5908  26.806  32.215   8.250
 4593POPC   C3A 5909  26.775  32.288   7.950
 4593POPC   C4A 5910  26.818  32.243   7.650
 4593POPC   C1B 5911  27.023  32.207   8.550
 4593POPC   C2B 5912  27.086  32.177   8.250
 4593POPC   C3B 5913  27.055  32.163   7.950
 4593POPC   C4B 5914  27.060  32.145   7.650
 4594POPC   NC3 5915  41.524  25.274   9.450
 4594POPC   PO4 5916  41.533  25.287   9.150
 4594POPC   GL1 5917  41.588  25.227   8.850
 4594POPC   GL2 5918  41.651  25.193   8.850
 4594POPC   C1A 5919  41.524  25.236   8.550
 4594POPC   D2A 5920  41.594  25.268   8.250
 4594POPC   C3A 5921  41.579  25.278   7.950
 4594POPC   C4A 5922  41.552  25.309   7.650
 4594POPC   C1B 5923  41.787  25.159   8.550
 4594POPC   C2B 5924  41.800  25.108   8.250
 4594POPC   C3B 5925  41.774  25.115   7.950
 4594POPC   C4B 5926  41.741  25.087   7.650
 4595POPC   NC3 5927   5.093  15.997   9.450
 4595POPC   PO4 5928   5.119  15.944   9.150
 4595POPC   GL1 5929   5.051  15.988   8.850
 4595POPC   GL2 5930   5.033  15.843   8.850
 4595POPC   C1A 5931   5.088  15.987   8.550
 4595POPC   D2A 5932   5.048  15.954   8.250
 4595POPC   C3A 5933   5.062  15.979   7.950
 4595POPC   C4A 5934   5.046  15.942   7.650
 4595POPC   C1B 5935   4.896  15.842   8.550
 4595POPC   C2B 5936   4.836  15.829   8.250
 4595POPC   C3B 5937   4.911  15.823   7.950
 4595POPC   C4B 5938   4.918  15.777   7.650
 4596POPC   NC3 5939  25.305  40.760   9.450
 4596POPC   PO4 5940  25.258  40.810   9.150
 4596POPC   GL1 5941  25.240  40.791   8.850
 4596POPC   GL2 5942  25.233  40.692   8.850
 4596POPC   C1A 5943  25.219  40.809   8.550
 4596POPC   D2A 5944  25.245  40.775   8.250
 4596POPC   C3A 5945  25.228  40.767   7.950
 4596POPC   C4A 5946  25.220  40.821   7.650
 4596POPC   C1B 5947  25.162  40.570   8.550
 4596POPC   C2B 5948  25.246  40.539   8.250
 4596POPC   C3B 5949  25.161  40.589   7.950
 4596POPC   C4B 5950  25.224  40.546   7.650
 4597POPC   NC3 5951   4.302  22.891   9.450
 4597POPC   PO4 5952   4.279  22.969   9.150
 4597POPC   GL1 5953   4.282  22.940   8.850
 4597POPC   GL2 5954   4.180  22.902   8.850
 4597POPC   C1A 5955   4.357  22.988   8.550
 4597POPC   D2A 5956   4.309  22.889   8.250
 4597POPC   C3A 5957   4.367  22.921   7.950
 4597POPC   C4A 5958   4.287  22.982   7.650
 4597POPC   C1B 5959   4.121  22.850   8.550
 4597POPC   C2B 5960   4.109  22.874   8.250
 4597POPC   C3B 5961   4.042  22.871   7.950
 4597POPC   C4B 5962   4.081  22.893   7.650
 4598POPC   NC3 5963  43.126  17.519   9.450
 4598POPC   PO4 5964  43.120  17.493   9.150
 4598POPC   GL1 5965  43.091  17.549   8.850
 4598POPC   GL2 5966  43.001  17.532   8.850
 4598POPC   C1A 5967  43.122  17.502   8.550
 4598POPC   D2A 5968  43.135  17.517   8.250
 4598POPC   C3A 5969  43.068  17.514   7.950
 4598POPC   C4A 5970  43.148  17.509   7.650
 4598POPC   C1B 5971  42.892  17.617   8.550
 4598POPC   C2B 5972  42.900  17.602   8.250
 4598POPC   C3B 5973  42.827  17.634   7.950
 4598POPC   C4B 5974  42.862  17.609   7.650
 4599POPC   NC3 5975   1.256  33.815   9.450
 4599POPC   PO4 5976   1.215  33.758   9.150
 4599POPC   GL1 5977   1.209  33.815   8.850
 4599POPC   GL2 5978   1.358  33.769   8.850
 4599POPC   C1A 5979   1.238  33.769   8.550
 4599POPC   D2A 5980   1.256  33.763   8.250
 4599POPC   C3A 5981   1.171  33.778   7.950
 4599POPC   C4A 5982   1.245  33.788   7.650
 4599POPC   C1B 5983   1.483  33.791   8.550
 4599POPC   C2B 5984   1.511  33.796   8.250
 4599POPC   C3B 5985   1.498  33.754   7.950
 4599POPC   C4B 5986   1.482  33.836   7.650
 4600POPC   NC3 5987  39.224  18.295   9.450
 4600POPC   PO4 5988  39.183  18.258   9.150
 4600POPC   GL1 5989  39.214  18.329   8.850
 4600POPC   GL2 5990  39.174  18.367   8.850
 4600POPC   C1A 5991  39.216  18.269   8.550
 4600POPC   D2A 5992  39.233  18.329   8.250
 4600POPC   C3A 5993  39.260  18.311   7.950
 4600POPC   C4A 5994  39.260  18.250   7.650
 4600POPC   C1B 5995  39.157  18.570   8.550
 4600POPC   C2B 5996  39.239  18.560   8.250
 4600POPC   C3B 5997  39.187  18.546   7.950
 4600POPC   C4B 5998  39.231  18.487   7.650
 4601POPC   NC3 5999  38.469  24.482   9.450
 4601POPC   PO4 6000  38.485  24.468   9.150
 4601POPC   GL1 6001  38.462  24.442   8.850
 4601POPC   GL2 6002  38.447  24.385   8.850
 4601POPC   C1A 6003  38.442  24.506   8.550
 4601POPC   D2A 6004  38.479  24.508   8.250
 4601POPC   C3A 6005  38.457  24.526   7.950
 4601POPC   C4A 6006  38.491  24.527   7.650
 4601POPC   C1B 6007  38.421  24.217   8.550
 4601POPC   C2B 6008  38.375  24.249   8.250
 4601POPC   C3B 6009  38.350  24.237   7.950
 4601POPC   C4B 6010  38.407  24.224   7.650
 4602POPC   NC3 6011  37.638  22.924   9.450
 4602POPC   PO4 6012  37.669  22.918   9.150
 4602POPC   GL1 6013  37.660  22.947   8.850
 4602POPC   GL2 6014  37.802  22.909   8.850
 4602POPC   C1A 6015  37.723  22.983   8.550
 4602POPC   D2A 6016  37.717  22.971   8.250
 4602POPC   C3A 6017  37.652  22.956   7.950
 4602POPC   C4A 6018  37.669  22.967   7.650
 4602POPC   C1B 6019  37.902  22.830   8.550
 4602POPC   C2B 6020  37.922  22.797   8.250
 4602POPC   C3B 6021  37.843  22.788   7.950
 4602POPC   C4B 6022  37.892  22.774   7.650
 4603POPC   NC3 6023  12.083  18.237   9.450
 4603POPC   PO4 6024  12.082  18.288   9.150
 4603POPC   GL1 6025  12.042  18.262   8.850
 4603POPC   GL2 6026  12.124  18.403   8.850
 4603POPC   C1A 6027  12.037  18.268   8.550
 4603POPC   D2A 6028  12.125  18.267   8.250
 4603POPC   C3A 6029  12.051  18.321   7.950
 4603POPC   C4A 6030  12.026  18.281   7.650
 4603POPC   C1B 6031  12.283  18.483   8.550
 4603POPC   C2B 6032  12.244  18.489   8.250
 4603POPC   C3B 6033  12.227  18.413   7.950
 4603POPC   C4B 6034  12.262  18.407   7.650
 4604POPC   NC3 6035  16.750  25.224   9.450
 4604POPC   PO4 6036  16.751  25.242   9.150
 4604POPC   GL1 6037  16.750  25.274   8.850
 4604POPC   GL2 6038  16.789  25.386   8.850
 4604POPC   C1A 6039  16.735  25.218   8.550
 4604POPC   D2A 6040  16.776  25.304   8.250
 4604POPC   C3A 6041  16.690  25.249   7.950
 4604POPC   C4A 6042  16.729  25.292   7.650
 4604POPC   C1B 6043  16.866  25.505   8.550
 4604POPC   C2B 6044  16.904  25.499   8.250
 4604POPC   C3B 6045  16.917  25.462   7.950
 4604POPC   C4B 6046  16.851  25.481   7.650
 4605POPC   NC3 6047   1.239   1.215   9.450
 4605POPC   PO4 6048   1.232   1.252   9.150
 4605POPC   GL1 6049   1.248   1.219   8.850
 4605POPC   GL2 6050   1.354   1.130   8.850
 4605POPC   C1A 6051   1.210   1.174   8.550
 4605POPC   D2A 6052   1.200   1.167   8.250
 4605POPC   C3A 6053   1.169   1.227   7.950
 4605POPC   C4A 6054   1.167   1.246   7.650
 4605POPC   C1B 6055   1.454   1.161   8.550
 4605POPC   C2B 6056   1.494   1.091   8.250
 4605POPC   C3B 6057   1.457   1.148   7.950
 4605POPC   C4B 6058   1.470   1.108   7.650
 4606POPC   NC3 6059  32.200  16.729   9.450
 4606POPC   PO4 6060  32.260  16.743   9.150
 4606POPC   GL1 6061  32.215  16.698   8.850
 4606POPC   GL2 6062  32.339  16.755   8.850
 4606POPC   C1A 6063  32.290  16.695   8.550
 4606POPC   D2A 6064  32.234  16.727   8.250
 4606POPC   C3A 6065  32.198  16.684   7.950
 4606POPC   C4A 6066  32.216  16.755   7.650
 4606POPC   C1B 6067  32.509  16.842   8.550
 4606POPC   C2B 6068  32.417  16.830   8.250
 4606POPC   C3B 6069  32.445  16.893   7.950
 4606POPC   C4B 6070  32.426  16.815   7.650
 4607POPC   NC3 6071  23.702  13.615   9.450
 4607POPC   PO4 6072  23.742  13.661   9.150
 4607POPC   GL1 6073  23.732  13.587   8.850
 4607POPC   GL2 6074  23.888  13.627   8.850
 4607POPC   C1A 6075  23.702  13.657   8.550
 4607POPC   D2A 6076  23.706  13.615   8.250
 4607POPC   C3A 6077  23.752  13.610   7.950
 4607POPC   C4A 6078  23.689  13.616   7.650
 4607POPC   C1B 6079  23.956  13.616   8.550
 4607POPC   C2B 6080  23.929  13.656   8.250
 4607POPC   C3B 6081  23.956  13.630   7.950
 4607POPC   C4B 6082  23.966  13.632   7.650
 4608POPC   NC3 6083   5.060  16.764   9.450
 4608POPC   PO4 6084   5.056  16.737   9.150
 4608POPC   GL1 6085   5.079  16.772   8.850
 4608POPC   GL2 6086   5.250  16.632   8.850
 4608POPC   C1A 6087   5.082  16.731   8.550
 4608POPC   D2A 6088   5.143  16.727   8.250
 4608POPC   C3A 6089   5.138  16.761   7.950
 4608POPC   C4A 6090   5.047  16.737   7.650
 4608POPC   C1B 6091   5.300  16.567   8.550
 4608POPC   C2B 6092   5.319  16.569   8.250
 4608POPC   C3B 6093   5.295  16.653   7.950
 4608POPC   C4B 6094   5.261  16.611   7.650
 4609POPC   NC3 6095  43.105  12.038   9.450
 4609POPC   PO4 6096  43.145  12.036   9.150
 4609POPC   GL1 6097  43.150  12.121   8.850
 4609POPC   GL2 6098  43.082  12.193   8.850
 4609POPC   C1A 6099  43.148  12.086   8.550
 4609POPC   D2A 6100  43.098  12.103   8.250
 4609POPC   C3A 6101  43.140  12.108   7.950
 4609POPC   C4A 6102  43.088  12.084   7.650
 4609POPC   C1B 6103  43.032  12.339   8.550
 4609POPC   C2B 6104  43.102  12.348   8.250
 4609POPC   C3B 6105  43.060  12.278   7.950
 4609POPC   C4B 6106  43.084  12.331   7.650
 4610POPC   NC3 6107   5.083  12.097   9.450
 4610POPC   PO4 6108   5.067  12.102   9.150
 4610POPC   GL1 6109   5.057  12.106   8.850
 4610POPC   GL2 6110   5.224  12.197   8.850
 4610POPC   C1A 6111   5.082  12.066   8.550
 4610POPC   D2A 6112   5.051  12.050   8.250
 4610POPC   C3A 6113   5.077  12.068   7.950
 4610POPC   C4A 6114   5.071  12.088   7.650
 4610POPC   C1B 6115   5.287  12.280   8.550
 4610POPC   C2B 6116   5.259  12.242   8.250
 4610POPC   C3B 6117   5.242  12.267   7.950
 4610POPC   C4B 6118   5.244  12.282   7.650
 4611POPC   NC3 6119  24.519   2.037   9.450
 4611POPC   PO4 6120  24.533   2.039   9.150
 4611POPC   GL1 6121  24.511   1.943   8.850
 4611POPC   GL2 6122  24.662   2.020   8.850
 4611POPC   C1A 6123  24.493   1.948   8.550
 4611POPC   D2A 6124  24.490   2.011   8.250
 4611POPC   C3A 6125  24.451   1.971   7.950
 4611POPC   C4A 6126  24.509   2.000   7.650
 4611POPC   C1B 6127  24.741   2.003   8.550
 4611POPC   C2B 6128  24.736   2.028   8.250
 4611POPC   C3B 6129  24.766   2.003   7.950
 4611POPC   C4B 6130  24.779   2.020   7.650
 4612POPC   NC3 6131  19.012  36.917   9.450
 4612POPC   PO4 6132  19.063  36.925   9.150
 4612POPC   GL1 6133  19.103  36.876   8.850
 4612POPC   GL2 6134  18.985  36.774   8.850
 4612POPC   C1A 6135  19.080  36.924   8.550
 4612POPC   D2A 6136  19.077  36.860   8.250
 4612POPC   C3A 6137  19.065  36.905   7.950
 4612POPC   C4A 6138  19.093  36.867   7.650
 4612POPC   C1B 6139  18.978  36.705   8.550
 4612POPC   C2B 6140  18.977  36.632   8.250
 4612POPC   C3B 6141  18.919  36.674   7.950
 4612POPC   C4B 6142  18.964  36.664   7.650
 4613POPC   NC3 6143  25.283  44.680   9.450
 4613POPC   PO4 6144  25.315  44.636   9.150
 4613POPC   GL1 6145  25.282  44.619   8.850
 4613POPC   GL2 6146  25.180  44.533   8.850
 4613POPC   C1A 6147  25.281  44.677   8.550
 4613POPC   D2A 6148  25.302  44.628   8.250
 4613POPC   C3A 6149  25.315  44.632   7.950
 4613POPC   C4A 6150  25.311  44.671   7.650
 4613POPC   C1B 6151  25.180  44.383   8.550
 4613POPC   C2B 6152  25.182  44.473   8.250
 4613POPC   C3B 6153  25.203  44.414   7.950
 4613POPC   C4B 6154  25.141  44.451   7.650
 4614POPC   NC3 6155  44.639  37.713   9.450
 4614POPC   PO4 6156  44.694  37.686   9.150
 4614POPC   GL1 6157  44.679  37.650   8.850
 4614POPC   GL2 6158  44.704  37.765   8.850
 4614POPC   C1A 6159  44.624  37.661   8.550
 4614POPC   D2A 6160  44.628  37.674   8.250
 4614POPC   C3A 6161  44.692  37.658   7.950
 4614POPC   C4A 6162  44.650  37.662   7.650
 4614POPC   C1B 6163  44.633  37.945   8.550
 4614POPC   C2B 6164  44.690  37.976   8.250
 4614POPC   C3B 6165  44.642  37.934   7.950
 4614POPC   C4B 6166  44.664  37.973   7.650
 4615POPC   NC3 6167  40.053  22.205   9.450
 4615POPC   PO4 6168  39.990  22.201   9.150
 4615POPC   GL1 6169  39.998  22.184   8.850
 4615POPC   GL2 6170  39.869  22.119   8.850
 4615POPC   C1A 6171  40.030  22.157   8.550
 4615POPC   D2A 6172  40.007  22.134   8.250
 4615POPC   C3A 6173  39.980  22.123   7.950
 4615POPC   C4A 6174  39.969  22.211   7.650
 4615POPC   C1B 6175  39.775  22.045   8.550
 4615POPC   C2B 6176  39.821  22.082   8.250
 4615POPC   C3B 6177  39.729  22.108   7.950
 4615POPC   C4B 6178  39.775  22.069   7.650
 4616POPC   NC3 6179  17.512   4.317   9.450
 4616POPC   PO4 6180  17.524   4.332   9.150
 4616POPC   GL1 6181  17.469   4.312   8.850
 4616POPC   GL2 6182  17.360   4.380   8.850
 4616POPC   C1A 6183  17.549   4.280   8.550
 4616POPC   D2A 6184  17.532   4.327   8.250
 4616POPC   C3A 6185  17.514   4.294   7.950
 4616POPC   C4A 6186  17.545   4.290   7.650
 4616POPC   C1B 6187  17.313   4.403   8.550
 4616POPC   C2B 6188  17.267   4.396   8.250
 4616POPC   C3B 6189  17.263   4.469   7.950
 4616POPC   C4B 6190  17.274   4.396   7.650
 4617POPC   NC3 6191  26.076  40.016   9.450
 4617POPC   PO4 6192  26.021  40.028   9.150
 4617POPC   GL1 6193  26.066  40.014   8.850
 4617POPC   GL2 6194  26.089  40.088   8.850
 4617POPC   C1A 6195  26.051  40.029   8.550
 4617POPC   D2A 6196  26.081  40.049   8.250
 4617POPC   C3A 6197  26.028  40.000   7.950
 4617POPC   C4A 6198  26.061  40.044   7.650
 4617POPC   C1B 6199  26.143  40.256   8.550
 4617POPC   C2B 6200  26.152  40.189   8.250
 4617POPC   C3B 6201  26.148  40.202   7.950
 4617POPC   C4B 6202  26.211  40.259   7.650
 4618POPC   NC3 6203  44.685  39.985   9.450
 4618POPC   PO4 6204  44.621  40.017   9.150
 4618POPC   GL1 6205  44.678  39.981   8.850
 4618POPC   GL2 6206  44.702  40.131   8.850
 4618POPC   C1A 6207  44.701  40.033   8.550
 4618POPC   D2A 6208  44.670  40.012   8.250
 4618POPC   C3A 6209  44.626  40.055   7.950
 4618POPC   C4A 6210  44.658  40.010   7.650
 4618POPC   C1B 6211  44.632  40.280   8.550
 4618POPC   C2B 6212  44.620  40.256   8.250
 4618POPC   C3B 6213  44.687  40.235   7.950
 4618POPC   C4B 6214  44.620  40.302   7.650
 4619POPC   NC3 6215  22.948   1.198   9.450
 4619POPC   PO4 6216  22.907   1.259   9.150
 4619POPC   GL1 6217  22.891   1.250   8.850
 4619POPC   GL2 6218  23.018   1.296   8.850
 4619POPC   C1A 6219  22.910   1.206   8.550
 4619POPC   D2A 6220  22.939   1.245   8.250
 4619POPC   C3A 6221  22.923   1.236   7.950
 4619POPC   C4A 6222  22.897   1.205   7.650
 4619POPC   C1B 6223  23.203   1.293   8.550
 4619POPC   C2B 6224  23.119   1.296   8.250
 4619POPC   C3B 6225  23.131   1.296   7.950
 4619POPC   C4B 6226  23.113   1.329   7.650
 4620POPC   NC3 6227   1.960  40.763   9.450
 4620POPC   PO4 6228   1.973  40.753   9.150
 4620POPC   GL1 6229   2.002  40.825   8.850
 4620POPC   GL2 6230   1.823  40.843   8.850
 4620POPC   C1A 6231   2.010  40.778   8.550
 4620POPC   D2A 6232   1.957  40.823   8.250
 4620POPC   C3A 6233   1.972  40.764   7.950
 4620POPC   C4A 6234   1.949  40.756   7.650
 4620POPC   C1B 6235   1.762  40.845   8.550
 4620POPC   C2B 6236   1.711  40.804   8.250
 4620POPC   C3B 6237   1.699  40.845   7.950
 4620POPC   C4B 6238   1.700  40.787   7.650
 4621POPC   NC3 6239   7.374   5.120   9.450
 4621POPC   PO4 6240   7.372   5.129   9.150
 4621POPC   GL1 6241   7.458   5.138   8.850
 4621POPC   GL2 6242   7.289   5.115   8.850
 4621POPC   C1A 6243   7.401   5.076   8.550
 4621POPC   D2A 6244   7.429   5.075   8.250
 4621POPC   C3A 6245   7.411   5.117   7.950
 4621POPC   C4A 6246   7.469   5.083   7.650
 4621POPC   C1B 6247   7.148   5.107   8.550
 4621POPC   C2B 6248   7.138   5.100   8.250
 4621POPC   C3B 6249   7.211   5.071   7.950
 4621POPC   C4B 6250   7.206   5.053   7.650
 4622POPC   NC3 6251  11.313  30.648   9.450
 4622POPC   PO4 6252  11.287  30.682   9.150
 4622POPC   GL1 6253  11.254  30.688   8.850
 4622POPC   GL2 6254  11.187  30.666   8.850
 4622POPC   C1A 6255  11.334  30.741   8.550
 4622POPC   D2A 6256  11.259  30.705   8.250
 4622POPC   C3A 6257  11.346  30.697   7.950
 4622POPC   C4A 6258  11.286  30.686   7.650
 4622POPC   C1B 6259  11.042  30.727   8.550
 4622POPC   C2B 6260  11.034  30.699   8.250
 4622POPC   C3B 6261  11.014  30.674   7.950
 4622POPC   C4B 6262  11.025  30.730   7.650
 4623POPC   NC3 6263  14.365  18.303   9.450
 4623POPC   PO4 6264  14.443  18.247   9.150
 4623POPC   GL1 6265  14.379  18.279   8.850
 4623POPC   GL2 6266  14.302  18.358   8.850
 4623POPC   C1A 6267  14.389  18.274   8.550
 4623POPC   D2A 6268  14.415  18.254   8.250
 4623POPC   C3A 6269  14.449  18.315   7.950
 4623POPC   C4A 6270  14.407  18.327   7.650
 4623POPC   C1B 6271  14.302  18.537   8.550
 4623POPC   C2B 6272  14.288  18.532   8.250
 4623POPC   C3B 6273  14.256  18.499   7.950
 4623POPC   C4B 6274  14.244  18.478   7.650
 4624POPC   NC3 6275  44.650  32.210   9.450
 4624POPC   PO4 6276  44.639  32.204   9.150
 4624POPC   GL1 6277  44.688  32.204   8.850
 4624POPC   GL2 6278  44.573  32.267   8.850
 4624POPC   C1A 6279  44.698  32.253   8.550
 4624POPC   D2A 6280  44.694  32.243   8.250
 4624POPC   C3A 6281  44.686  32.201   7.950
 4624POPC   C4A 6282  44.641  32.219   7.650
 4624POPC   C1B 6283  44.393  32.307   8.550
 4624POPC   C2B 6284  44.452  32.345   8.250
 4624POPC   C3B 6285  44.409  32.293   7.950
 4624POPC   C4B 6286  44.446  32.355   7.650
 4625POPC   NC3 6287  32.988  24.449   9.450
 4625POPC   PO4 6288  33.025  24.451   9.150
 4625POPC   GL1 6289  33.017  24.456   8.850
 4625POPC   GL2 6290  33.047  24.332   8.850
 4625POPC   C1A 6291  32.977  24.526   8.550
 4625POPC   D2A 6292  33.038  24.450   8.250
 4625POPC   C3A 6293  33.043  24.484   7.950
 4625POPC   C4A 6294  32.993  24.444   7.650
 4625POPC   C1B 6295  33.070  24.216   8.550
 4625POPC   C2B 6296  33.132  24.198   8.250
 4625POPC   C3B 6297  33.063  24.246   7.950
 4625POPC   C4B 6298  33.095  24.235   7.650
 4626POPC   NC3 6299   5.860  31.471   9.450
 4626POPC   PO4 6300   5.859  31.471   9.150
 4626POPC   GL1 6301   5.912  31.464   8.850
 4626POPC   GL2 6302   5.730  31.475   8.850
 4626POPC   C1A 6303   5.827  31.522   8.550
 4626POPC   D2A 6304   5.905  31.494   8.250
 4626POPC   C3A 6305   5.850  31.427   7.950
 4626POPC   C4A 6306   5.869  31.501   7.650
 4626POPC   C1B 6307   5.666  31.536   8.550
 4626POPC   C2B 6308   5.626  31.535   8.250
 4626POPC   C3B 6309   5.673  31.590   7.950
 4626POPC   C4B 6310   5.613  31.532   7.650
 4627POPC   NC3 6311   4.336   9.707   9.450
 4627POPC   PO4 6312   4.364   9.700   9.150
 4627POPC   GL1 6313   4.299   9.759   8.850
 4627POPC   GL2 6314   4.232   9.718   8.850
 4627POPC   C1A 6315   4.275   9.713   8.550
 4627POPC   D2A 6316   4.272   9.754   8.250
 4627POPC   C3A 6317   4.359   9.773   7.950
 4627POPC   C4A 6318   4.282   9.756   7.650
 4627POPC   C1B 6319   4.083   9.566   8.550
 4627POPC   C2B 6320   4.083   9.585   8.250
 4627POPC   C3B 6321   4.123   9.647   7.950
 4627POPC   C4B 6322   4.120   9.615   7.650
 4628POPC   NC3 6323   2.720  32.983   9.450
 4628POPC   PO4 6324   2.763  32.998   9.150
 4628POPC   GL1 6325   2.795  32.975   8.850
 4628POPC   GL2 6326   2.866  32.957   8.850
 4628POPC   C1A 6327   2.794  33.070   8.550
 4628POPC   D2A 6328   2.782  33.020   8.250
 4628POPC   C3A 6329   2.725  33.066   7.950
 4628POPC   C4A 6330   2.785  33.026   7.650
 4628POPC   C1B 6331   3.015  32.900   8.550
 4628POPC   C2B 6332   3.021  32.868   8.250
 4628POPC   C3B 6333   3.011  32.915   7.950
 4628POPC   C4B 6334   2.964  32.908   7.650
 4629POPC   NC3 6335   8.195   5.075   9.450
 4629POPC   PO4 6336   8.243   5.065   9.150
 4629POPC   GL1 6337   8.182   5.067   8.850
 4629POPC   GL2 6338   8.357   5.055   8.850
 4629POPC   C1A 6339   8.182   5.056   8.550
 4629POPC   D2A 6340   8.197   5.093   8.250
 4629POPC   C3A 6341   8.180   5.094   7.950
 4629POPC   C4A 6342   8.223   5.111   7.650
 4629POPC   C1B 6343   8.451   5.126   8.550
 4629POPC   C2B 6344   8.452   5.073   8.250
 4629POPC   C3B 6345   8.426   5.115   7.950
 4629POPC   C4B 6346   8.398   5.087   7.650
 4630POPC   NC3 6347  32.206  30.684   9.450
 4630POPC   PO4 6348  32.256  30.699   9.150
 4630POPC   GL1 6349  32.208  30.709   8.850
 4630POPC   GL2 6350  32.086  30.731   8.850
 4630POPC   C1A 6351  32.265  30.696   8.550
 4630POPC   D2A 6352  32.278  30.648   8.250
 4630POPC   C3A 6353  32.266  30.656   7.950
 4630POPC   C4A 6354  32.259  30.696   7.650
 4630POPC   C1B 6355  32.010  30.835   8.550
 4630POPC   C2B 6356  32.023  30.852   8.250
 4630POPC   C3B 6357  32.072  30.828   7.950
 4630POPC   C4B 6358  31.986  30.853   7.650
 4631POPC   NC3 6359  21.348  19.858   9.450
 4631POPC   PO4 6360  21.350  19.834   9.150
 4631POPC   GL1 6361  21.422  19.874   8.850
 4631POPC   GL2 6362  21.473  19.759   8.850
 4631POPC   C1A 6363  21.338  19.800   8.550
 4631POPC   D2A 6364  21.340  19.864   8.250
 4631POPC   C3A 6365  21.359  19.884   7.950
 4631POPC   C4A 6366  21.342  19.811   7.650
 4631POPC   C1B 6367  21.598  19.738   8.550
 4631POPC   C2B 6368  21.620  19.788   8.250
 4631POPC   C3B 6369  21.660  19.819   7.950
 4631POPC   C4B 6370  21.659  19.789   7.650
 4632POPC   NC3 6371  39.215  28.365   9.450
 4632POPC   PO4 6372  39.251  28.325   9.150
 4632POPC   GL1 6373  39.244  28.408   8.850
 4632POPC   GL2 6374  39.131  28.283   8.850
 4632POPC   C1A 6375  39.199  28.386   8.550
 4632POPC   D2A 6376  39.228  28.400   8.250
 4632POPC   C3A 6377  39.203  28.366   7.950
 4632POPC   C4A 6378  39.204  28.378   7.650
 4632POPC   C1B 6379  39.052  28.239   8.550
 4632POPC   C2B 6380  39.033  28.206   8.250
 4632POPC   C3B 6381  38.999  28.168   7.950
 4632POPC   C4B 6382  39.063  28.182   7.650
 4633POPC   NC3 6383  35.384  42.315   9.450
 4633POPC   PO4 6384  35.345  42.380   9.150
 4633POPC   GL1 6385  35.371  42.318   8.850
 4633POPC   GL2 6386  35.394  42.466   8.850
 4633POPC   C1A 6387  35.345  42.358   8.550
 4633POPC   D2A 6388  35.302  42.377   8.250
 4633POPC   C3A 6389  35.314  42.380   7.950
 4633POPC   C4A 6390  35.399  42.318   7.650
 4633POPC   C1B 6391  35.489  42.528   8.550
 4633POPC   C2B 6392  35.487  42.582   8.250
 4633POPC   C3B 6393  35.480  42.531   7.950
 4633POPC   C4B 6394  35.486  42.596   7.650
 4634POPC   NC3 6395  42.308  33.821   9.450
 4634POPC   PO4 6396  42.347  33.815   9.150
 4634POPC   GL1 6397  42.340  33.756   8.850
 4634POPC   GL2 6398  42.273  33.858   8.850
 4634POPC   C1A 6399  42.367  33.754   8.550
 4634POPC   D2A 6400  42.309  33.803   8.250
 4634POPC   C3A 6401  42.324  33.814   7.950
 4634POPC   C4A 6402  42.328  33.807   7.650
 4634POPC   C1B 6403  42.120  33.882   8.550
 4634POPC   C2B 6404  42.158  33.967   8.250
 4634POPC   C3B 6405  42.088  33.907   7.950
 4634POPC   C4B 6406  42.106  33.946   7.650
 4635POPC   NC3 6407  40.021  16.722   9.450
 4635POPC   PO4 6408  40.030  16.765   9.150
 4635POPC   GL1 6409  40.002  16.747   8.850
 4635POPC   GL2 6410  39.913  16.746   8.850
 4635POPC   C1A 6411  40.046  16.755   8.550
 4635POPC   D2A 6412  40.029  16.694   8.250
 4635POPC   C3A 6413  40.054  16.739   7.950
 4635POPC   C4A 6414  39.960  16.711   7.650
 4635POPC   C1B 6415  39.774  16.739   8.550
 4635POPC   C2B 6416  39.725  16.722   8.250
 4635POPC   C3B 6417  39.753  16.731   7.950
 4635POPC   C4B 6418  39.746  16.704   7.650
 4636POPC   NC3 6419   8.198  29.946   9.450
 4636POPC   PO4 6420   8.186  29.935   9.150
 4636POPC   GL1 6421   8.229  29.968   8.850
 4636POPC   GL2 6422   8.065  29.973   8.850
 4636POPC   C1A 6423   8.195  29.893   8.550
 4636POPC   D2A 6424   8.179  29.888   8.250
 4636POPC   C3A 6425   8.185  29.941   7.950
 4636POPC   C4A 6426   8.230  29.916   7.650
 4636POPC   C1B 6427   7.949  30.099   8.550
 4636POPC   C2B 6428   7.945  30.089   8.250
 4636POPC   C3B 6429   7.943  30.030   7.950
 4636POPC   C4B 6430   7.969  30.061   7.650
 4637POPC   NC3 6431  19.832  16.695   9.450
 4637POPC   PO4 6432  19.808  16.697   9.150
 4637POPC   GL1 6433  19.813  16.689   8.850
 4637POPC   GL2 6434  19.775  16.843   8.850
 4637POPC   C1A 6435  19.854  16.743   8.550
 4637POPC   D2A 6436  19.792  16.722   8.250
 4637POPC   C3A 6437  19.861  16.689   7.950
 4637POPC   C4A 6438  19.833  16.745   7.650
 4637POPC   C1B 6439  19.732  16.972   8.550
 4637POPC   C2B 6440  19.705  16.950   8.250
 4637POPC   C3B 6441  19.678  16.960   7.950
 4637POPC   C4B 6442  19.697  16.963   7.650
 4638POPC   NC3 6443  27.604  39.181   9.450
 4638POPC   PO4 6444  27.625  39.238   9.150
 4638POPC   GL1 6445  27.583  39.271   8.850
 4638POPC   GL2 6446  27.516  39.332   8.850
 4638POPC   C1A 6447  27.621  39.203   8.550
 4638POPC   D2A 6448  27.546  39.246   8.250
 4638POPC   C3A 6449  27.615  39.272   7.950
 4638POPC   C4A 6450  27.588  39.235   7.650
 4638POPC   C1B 6451  27.513  39.469   8.550
 4638POPC   C2B 6452  27.506  39.420   8.250
 4638POPC   C3B 6453  27.469  39.414   7.950
 4638POPC   C4B 6454  27.469  39.463   7.650
 4639POPC   NC3 6455  19.848  36.947   9.450
 4639POPC   PO4 6456  19.822  36.932   9.150
 4639POPC   GL1 6457  19.811  36.895   8.850
 4639POPC   GL2 6458  19.668  36.907   8.850
 4639POPC   C1A 6459  19.831  36.928   8.550
 4639POPC   D2A 6460  19.786  36.943   8.250
 4639POPC   C3A 6461  19.849  36.879   7.950
 4639POPC   C4A 6462  19.875  36.911   7.650
 4639POPC   C1B 6463  19.557  36.875   8.550
 4639POPC   C2B 6464  19.548  36.831   8.250
 4639POPC   C3B 6465  19.625  36.832   7.950
 4639POPC   C4B 6466  19.635  36.916   7.650
 4640POPC   NC3 6467  43.083  37.689   9.450
 4640POPC   PO4 6468  43.087  37.667   9.150
 4640POPC   GL1 6469  43.146  37.690   8.850
 4640POPC   GL2 6470  43.082  37.785   8.850
 4640POPC   C1A 6471  43.068  37.722   8.550
 4640POPC   D2A 6472  43.141  37.646   8.250
 4640POPC   C3A 6473  43.159  37.646   7.950
 4640POPC   C4A 6474  43.133  37.667   7.650
 4640POPC   C1B 6475  43.101  37.911   8.550
 4640POPC   C2B 6476  43.110  37.938   8.250
 4640POPC   C3B 6477  43.147  37.884   7.950
 4640POPC   C4B 6478  43.164  37.898   7.650
 4641POPC   NC3 6479  29.880  19.791   9.450
 4641POPC   PO4 6480  29.873  19.824   9.150
 4641POPC   GL1 6481  29.941  19.806   8.850
 4641POPC   GL2 6482  29.814  19.892   8.850
 4641POPC   C1A 6483  29.894  19.817   8.550
 4641POPC   D2A 6484  29.968  19.818   8.250
 4641POPC   C3A 6485  29.894  19.802   7.950
 4641POPC   C4A 6486  29.890  19.792   7.650
 4641POPC   C1B 6487  29.766  20.018   8.550
 4641POPC   C2B 6488  29.733  20.014   8.250
 4641POPC   C3B 6489  29.778  20.020   7.950
 4641POPC   C4B 6490  29.778  19.996   7.650
 4642POPC   NC3 6491  32.294  35.339   9.450
 4642POPC   PO4 6492  32.293  35.329   9.150
 4642POPC   GL1 6493  32.282  35.327   8.850
 4642POPC   GL2 6494  32.140  35.301   8.850
 4642POPC   C1A 6495  32.284  35.379   8.550
 4642POPC   D2A 6496  32.287  35.392   8.250
 4642POPC   C3A 6497  32.221  35.313   7.950
 4642POPC   C4A 6498  32.207  35.390   7.650
 4642POPC   C1B 6499  32.020  35.328   8.550
 4642POPC   C2B 6500  32.044  35.329   8.250
 4642POPC   C3B 6501  31.973  35.329   7.950
 4642POPC   C4B 6502  31.969  35.353   7.650
 4643POPC   NC3 6503   1.971   7.445   9.450
 4643POPC   PO4 6504   1.970   7.404   9.150
 4643POPC   GL1 6505   2.003   7.385   8.850
 4643POPC   GL2 6506   2.039   7.540   8.850
 4643POPC   C1A 6507   2.011   7.397   8.550
 4643POPC   D2A 6508   2.000   7.384   8.250
 4643POPC   C3A 6509   2.006   7.386   7.950
 4643POPC   C4A 6510   1.978   7.450   7.650
 4643POPC   C1B 6511   2.082   7.600   8.550
 4643POPC   C2B 6512   2.136   7.660   8.250
 4643POPC   C3B 6513   2.127   7.598   7.950
 4643POPC   C4B 6514   2.131   7.634   7.650
 4644POPC   NC3 6515  23.748  33.010   9.450
 4644POPC   PO4 6516  23.667  33.026   9.150
 4644POPC   GL1 6517  23.675  32.981   8.850
 4644POPC   GL2 6518  23.644  32.898   8.850
 4644POPC   C1A 6519  23.668  32.980   8.550
 4644POPC   D2A 6520  23.694  33.003   8.250
 4644POPC   C3A 6521  23.722  33.016   7.950
 4644POPC   C4A 6522  23.688  33.038   7.650
 4644POPC   C1B 6523  23.521  32.827   8.550
 4644POPC   C2B 6524  23.506  32.824   8.250
 4644POPC   C3B 6525  23.547  32.815   7.950
 4644POPC   C4B 6526  23.489  32.893   7.650
 4645POPC   NC3 6527  42.383  36.905   9.450
 4645POPC   PO4 6528  42.300  36.950   9.150
 4645POPC   GL1 6529  42.346  36.898   8.850
 4645POPC   GL2 6530  42.242  37.020   8.850
 4645POPC   C1A 6531  42.318  36.912   8.550
 4645POPC   D2A 6532  42.285  36.854   8.250
 4645POPC   C3A 6533  42.332  36.882   7.950
 4645POPC   C4A 6534  42.291  36.911   7.650
 4645POPC   C1B 6535  42.175  37.099   8.550
 4645POPC   C2B 6536  42.147  37.079   8.250
 4645POPC   C3B 6537  42.182  37.115   7.950
 4645POPC   C4B 6538  42.151  37.117   7.650
 4646POPC   NC3 6539   6.605  21.433   9.450
 4646POPC   PO4 6540   6.664  21.352   9.150
 4646POPC   GL1 6541   6.606  21.373   8.850
 4646POPC   GL2 6542   6.673  21.273   8.850
 4646POPC   C1A 6543   6.655  21.366   8.550
 4646POPC   D2A 6544   6.655  21.432   8.250
 4646POPC   C3A 6545   6.676  21.359   7.950
 4646POPC   C4A 6546   6.688  21.389   7.650
 4646POPC   C1B 6547   6.685  21.100   8.550
 4646POPC   C2B 6548   6.656  21.159   8.250
 4646POPC   C3B 6549   6.713  21.099   7.950
 4646POPC   C4B 6550   6.699  21.097   7.650
 4647POPC   NC3 6551   6.657  20.561   9.450
 4647POPC   PO4 6552   6.618  20.622   9.150
 4647POPC   GL1 6553   6.669  20.642   8.850
 4647POPC   GL2 6554   6.651  20.463   8.850
 4647POPC   C1A 6555   6.643  20.570   8.550
 4647POPC   D2A 6556   6.690  20.586   8.250
 4647POPC   C3A 6557   6.620  20.626   7.950
 4647POPC   C4A 6558   6.688  20.600   7.650
 4647POPC   C1B 6559   6.759  20.372   8.550
 4647POPC   C2B 6560   6.690  20.369   8.250
 4647POPC   C3B 6561   6.722  20.336   7.950
 4647POPC   C4B 6562   6.768  20.413   7.650
 4648POPC   NC3 6563  15.933  12.868   9.450
 4648POPC   PO4 6564  15.957  12.834   9.150
 4648POPC   GL1 6565  15.993  12.858   8.850
 4648POPC   GL2 6566  15.887  12.703   8.850
 4648POPC   C1A 6567  15.925  12.832   8.550
 4648POPC   D2A 6568  15.997  12.816   8.250
 4648POPC   C3A 6569  16.000  12.855   7.950
 4648POPC   C4A 6570  15.952  12.885   7.650
 4648POPC   C1B 6571  15.888  12.647   8.550
 4648POPC   C2B 6572  15.883  12.651   8.250
 4648POPC   C3B 6573  15.807  12.662   7.950
 4648POPC   C4B 6574  15.903  12.621   7.650
 4649POPC   NC3 6575   5.906  26.795   9.450
 4649POPC   PO4 6576   5.860  26.835   9.150
 4649POPC   GL1 6577   5.898  26.811   8.850
 4649POPC   GL2 6578   5.773  26.753   8.850
 4649POPC   C1A 6579   5.915  26.805   8.550
 4649POPC   D2A 6580   5.850  26.769   8.250
 4649POPC   C3A 6581   5.825  26.768   7.950
 4649POPC   C4A 6582   5.876  26.842   7.650
 4649POPC   C1B 6583   5.739  26.620   8.550
 4649POPC   C2B 6584   5.693  26.586   8.250
 4649POPC   C3B 6585   5.731  26.651   7.950
 4649POPC   C4B 6586   5.741  26.620   7.650
 4650POPC   NC3 6587  23.682  43.112   9.450
 4650POPC   PO4 6588  23.760  43.114   9.150
 4650POPC   GL1 6589  23.672  43.063   8.850
 4650POPC   GL2 6590  23.612  43.066   8.850
 4650POPC   C1A 6591  23.741  43.117   8.550
 4650POPC   D2A 6592  23.744  43.078   8.250
 4650POPC   C3A 6593  23.667  43.102   7.950
 4650POPC   C4A 6594  23.732  43.092   7.650
 4650POPC   C1B 6595  23.499  42.940   8.550
 4650POPC   C2B 6596  23.559  42.912   8.250
 4650POPC   C3B 6597  23.522  42.916   7.950
 4650POPC   C4B 6598  23.529  42.917   7.650
 4651POPC   NC3 6599  13.614  17.478   9.450
 4651POPC   PO4 6600  13.612  17.540   9.150
 4651POPC   GL1 6601  13.642  17.523   8.850
 4651POPC   GL2 6602  13.744  17.601   8.850
 4651POPC   C1A 6603  13.647  17.514   8.550
 4651POPC   D2A 6604  13.637  17.500   8.250
 4651POPC   C3A 6605  13.579  17.521   7.950
 4651POPC   C4A 6606  13.668  17.516   7.650
 4651POPC   C1B 6607  13.771  17.671   8.550
 4651POPC   C2B 6608  13.803  17.654   8.250
 4651POPC   C3B 6609  13.771  17.692   7.950
 4651POPC   C4B 6610  13.780  17.652   7.650
 4652POPC   NC3 6611  42.376  29.885   9.450
 4652POPC   PO4 6612  42.329  29.929   9.150
 4652POPC   GL1 6613  42.340  29.928   8.850
 4652POPC   GL2 6614  42.450  29.873   8.850
 4652POPC   C1A 6615  42.379  29.905   8.550
 4652POPC   D2A 6616  42.296  29.945   8.250
 4652POPC   C3A 6617  42.354  29.964   7.950
 4652POPC   C4A 6618  42.373  29.929   7.650
 4652POPC   C1B 6619  42.555  29.829   8.550
 4652POPC   C2B 6620  42.587  29.874   8.250
 4652POPC   C3B 6621  42.577  29.885   7.950
 4652POPC   C4B 6622  42.545  29.895   7.650
 4653POPC   NC3 6623  24.513  32.287   9.450
 4653POPC   PO4 6624  24.499  32.290   9.150
 4653POPC   GL1 6625  24.456  32.204   8.850
 4653POPC   GL2 6626  24.330  32.206   8.850
 4653POPC   C1A 6627  24.453  32.209   8.550
 4653POPC   D2A 6628  24.532  32.266   8.250
 4653POPC   C3A 6629  24.522  32.217   7.950
 4653POPC   C4A 6630  24.485  32.243   7.650
 4653POPC   C1B 6631  24.197  32.205   8.550
 4653POPC   C2B 6632  24.220  32.188   8.250
 4653POPC   C3B 6633  24.271  32.253   7.950
 4653POPC   C4B 6634  24.215  32.179   7.650
 4654POPC   NC3 6635  14.367  42.336   9.450
 4654POPC   PO4 6636  14.362  42.329   9.150
 4654POPC   GL1 6637  14.380  42.310   8.850
 4654POPC   GL2 6638  14.341  42.253   8.850
 4654POPC   C1A 6639  14.371  42.303   8.550
 4654POPC   D2A 6640  14.437  42.345   8.250
 4654POPC   C3A 6641  14.407  42.361   7.950
 4654POPC   C4A 6642  14.375  42.310   7.650
 4654POPC   C1B 6643  14.361  42.104   8.550
 4654POPC   C2B 6644  14.282  42.047   8.250
 4654POPC   C3B 6645  14.323  42.096   7.950
 4654POPC   C4B 6646  14.367  42.127   7.650
 4655POPC   NC3 6647  32.291  15.971   9.450
 4655POPC   PO4 6648  32.282  15.965   9.150
 4655POPC   GL1 6649  32.291  15.938   8.850
 4655POPC   GL2 6650  32.313  15.872   8.850
 4655POPC   C1A 6651  32.245  15.947   8.550
 4655POPC   D2A 6652  32.255  15.983   8.250
 4655POPC   C3A 6653  32.275  15.958   7.950
 4655POPC   C4A 6654  32.248  15.914   7.650
 4655POPC   C1B 6655  32.374  15.808   8.550
 4655POPC   C2B 6656  32.424  15.759   8.250
 4655POPC   C3B 6657  32.403  15.756   7.950
 4655POPC   C4B 6658  32.470  15.798   7.650
 4656POPC   NC3 6659  18.263  13.661   9.450
 4656POPC   PO4 6660  18.269  13.660   9.150
 4656POPC   GL1 6661  18.238  13.614   8.850
 4656POPC   GL2 6662  18.199  13.699   8.850
 4656POPC   C1A 6663  18.240  13.593   8.550
 4656POPC   D2A 6664  18.272  13.594   8.250
 4656POPC   C3A 6665  18.316  13.639   7.950
 4656POPC   C4A 6666  18.276  13.623   7.650
 4656POPC   C1B 6667  18.068  13.691   8.550
 4656POPC   C2B 6668  18.030  13.662   8.250
 4656POPC   C3B 6669  18.079  13.745   7.950
 4656POPC   C4B 6670  18.025  13.665   7.650
 4657POPC   NC3 6671  12.862  19.080   9.450
 4657POPC   PO4 6672  12.866  19.062   9.150
 4657POPC   GL1 6673  12.889  19.042   8.850
 4657POPC   GL2 6674  12.759  18.975   8.850
 4657POPC   C1A 6675  12.824  19.096   8.550
 4657POPC   D2A 6676  12.849  19.050   8.250
 4657POPC   C3A 6677  12.863  19.092   7.950
 4657POPC   C4A 6678  12.838  19.044   7.650
 4657POPC   C1B 6679  12.725  18.870   8.550
 4657POPC   C2B 6680  12.742  18.815   8.250
 4657POPC   C3B 6681  12.797  18.824   7.950
 4657POPC   C4B 6682  12.732  18.789   7.650
 4658POPC   NC3 6683  40.034  36.938   9.450
 4658POPC   PO4 6684  40.035  36.881   9.150
 4658POPC   GL1 6685  39.973  36.890   8.850
 4658POPC   GL2 6686  39.976  37.063   8.850
 4658POPC   C1A 6687  40.053  36.917   8.550
 4658POPC   D2A 6688  40.008  36.939   8.250
 4658POPC   C3A 6689  39.996  36.862   7.950
 4658POPC   C4A 6690  39.991  36.875   7.650
 4658POPC   C1B 6691  40.011  37.187   8.550
 4658POPC   C2B 6692  40.004  37.130   8.250
 4658POPC   C3B 6693  40.003  37.105   7.950
 4658POPC   C4B 6694  40.041  37.105   7.650
 4659POPC   NC3 6695  17.530  13.660   9.450
 4659POPC   PO4 6696  17.474  13.655   9.150
 4659POPC   GL1 6697  17.473  13.605   8.850
 4659POPC   GL2 6698  17.430  13.717   8.850
 4659POPC   C1A 6699  17.507  13.662   8.550
 4659POPC   D2A 6700  17.535  13.596   8.250
 4659POPC   C3A 6701  17.476  13.672   7.950
 4659POPC   C4A 6702  17.516  13.663   7.650
 4659POPC   C1B 6703  17.304  13.756   8.550
 4659POPC   C2B 6704  17.287  13.779   8.250
 4659POPC   C3B 6705  17.252  13.782   7.950
 4659POPC   C4B 6706  17.323  13.733   7.650
 4660POPC   NC3 6707  10.491  20.572   9.450
 4660POPC   PO4 6708  10.538  20.638   9.150
 4660POPC   GL1 6709  10.521  20.637   8.850
 4660POPC   GL2 6710  10.568  20.736   8.850
 4660POPC   C1A 6711  10.488  20.649   8.550
 4660POPC   D2A 6712  10.529  20.628   8.250
 4660POPC   C3A 6713  10.566  20.615   7.950
 4660POPC   C4A 6714  10.532  20.590   7.650
 4660POPC   C1B 6715  10.584  20.898   8.550
 4660POPC   C2B 6716  10.608  20.828   8.250
 4660POPC   C3B 6717  10.561  20.853   7.950
 4660POPC   C4B 6718  10.605  20.893   7.650
 4661POPC   NC3 6719  29.928  36.911   9.450
 4661POPC   PO4 6720  29.926  36.883   9.150
 4661POPC   GL1 6721  29.958  36.929   8.850
 4661POPC   GL2 6722  30.047  36.898   8.850
 4661POPC   C1A 6723  29.889  36.877   8.550
 4661POPC   D2A 6724  29.872  36.953   8.250
 4661POPC   C3A 6725  29.921  36.946   7.950
 4661POPC   C4A 6726  29.901  36.891   7.650
 4661POPC   C1B 6727  30.211  36.880   8.550
 4661POPC   C2B 6728  30.208  36.866   8.250
 4661POPC   C3B 6729  30.205  36.907   7.950
 4661POPC   C4B 6730  30.137  36.815   7.650
 4662POPC   NC3 6731  36.934  27.605   9.450
 4662POPC   PO4 6732  36.942  27.635   9.150
 4662POPC   GL1 6733  36.889  27.624   8.850
 4662POPC   GL2 6734  36.924  27.683   8.850
 4662POPC   C1A 6735  36.891  27.585   8.550
 4662POPC   D2A 6736  36.916  27.626   8.250
 4662POPC   C3A 6737  36.942  27.555   7.950
 4662POPC   C4A 6738  36.911  27.597   7.650
 4662POPC   C1B 6739  37.007  27.849   8.550
 4662POPC   C2B 6740  37.017  27.844   8.250
 4662POPC   C3B 6741  37.058  27.803   7.950
 4662POPC   C4B 6742  37.022  27.768   7.650
 4663POPC   NC3 6743   7.460  25.275   9.450
 4663POPC   PO4 6744   7.449  25.302   9.150
 4663POPC   GL1 6745   7.383  25.237   8.850
 4663POPC   GL2 6746   7.293  25.171   8.850
 4663POPC   C1A 6747   7.467  25.262   8.550
 4663POPC   D2A 6748   7.412  25.264   8.250
 4663POPC   C3A 6749   7.450  25.231   7.950
 4663POPC   C4A 6750   7.462  25.278   7.650
 4663POPC   C1B 6751   7.209  25.042   8.550
 4663POPC   C2B 6752   7.252  25.074   8.250
 4663POPC   C3B 6753   7.232  25.124   7.950
 4663POPC   C4B 6754   7.279  25.101   7.650
 4664POPC   NC3 6755  26.846  18.322   9.450
 4664POPC   PO4 6756  26.845  18.241   9.150
 4664POPC   GL1 6757  26.804  18.304   8.850
 4664POPC   GL2 6758  26.814  18.362   8.850
 4664POPC   C1A 6759  26.783  18.327   8.550
 4664POPC   D2A 6760  26.784  18.284   8.250
 4664POPC   C3A 6761  26.811  18.306   7.950
 4664POPC   C4A 6762  26.851  18.272   7.650
 4664POPC   C1B 6763  26.759  18.522   8.550
 4664POPC   C2B 6764  26.753  18.547   8.250
 4664POPC   C3B 6765  26.742  18.560   7.950
 4664POPC   C4B 6766  26.712  18.529   7.650
 4665POPC   NC3 6767  18.274  36.088   9.450
 4665POPC   PO4 6768  18.274  36.108   9.150
 4665POPC   GL1 6769  18.259  36.094   8.850
 4665POPC   GL2 6770  18.215  36.042   8.850
 4665POPC   C1A 6771  18.274  36.143   8.550
 4665POPC   D2A 6772  18.327  36.086   8.250
 4665POPC   C3A 6773  18.298  36.127   7.950
 4665POPC   C4A 6774  18.314  36.152   7.650
 4665POPC   C1B 6775  18.113  36.037   8.550
 4665POPC   C2B 6776  18.097  36.036   8.250
 4665POPC   C3B 6777  18.050  36.010   7.950
 4665POPC   C4B 6778  18.079  35.974   7.650
 4666POPC   NC3 6779  30.676  20.638   9.450
 4666POPC   PO4 6780  30.691  20.562   9.150
 4666POPC   GL1 6781  30.661  20.641   8.850
 4666POPC   GL2 6782  30.863  20.618   8.850
 4666POPC   C1A 6783  30.668  20.617   8.550
 4666POPC   D2A 6784  30.728  20.562   8.250
 4666POPC   C3A 6785  30.722  20.653   7.950
 4666POPC   C4A 6786  30.695  20.635   7.650
 4666POPC   C1B 6787  30.983  20.599   8.550
 4666POPC   C2B 6788  30.987  20.612   8.250
 4666POPC   C3B 6789  30.989  20.591   7.950
 4666POPC   C4B 6790  30.963  20.559   7.650
 4667POPC   NC3 6791  41.580  44.614   9.450
 4667POPC   PO4 6792  41.595  44.638   9.150
 4667POPC   GL1 6793  41.512  44.667   8.850
 4667POPC   GL2 6794  41.432  44.793   8.850
 4667POPC   C1A 6795  41.513  44.664   8.550
 4667POPC   D2A 6796  41.571  44.674   8.250
 4667POPC   C3A 6797  41.559  44.636   7.950
 4667POPC   C4A 6798  41.581  44.673   7.650
 4667POPC   C1B 6799  41.390  44.860   8.550
 4667POPC   C2B 6800  41.431  44.895   8.250
 4667POPC   C3B 6801  41.356  44.834   7.950
 4667POPC   C4B 6802  41.351  44.864   7.650
 4668POPC   NC3 6803   9.710  40.051   9.450
 4668POPC   PO4 6804   9.742  39.989   9.150
 4668POPC   GL1 6805   9.793  39.992   8.850
 4668POPC   GL2 6806   9.673  40.058   8.850
 4668POPC   C1A 6807   9.727  39.983   8.550
 4668POPC   D2A 6808   9.719  40.039   8.250
 4668POPC   C3A 6809   9.751  40.039   7.950
 4668POPC   C4A 6810   9.775  40.052   7.650
 4668POPC   C1B 6811   9.526  40.084   8.550
 4668POPC   C2B 6812   9.514  40.086   8.250
 4668POPC   C3B 6813   9.506  40.105   7.950
 4668POPC   C4B 6814   9.506  40.088   7.650
 4669POPC   NC3 6815  40.784  42.375   9.450
 4669POPC   PO4 6816  40.748  42.345   9.150
 4669POPC   GL1 6817  40.748  42.343   8.850
 4669POPC   GL2 6818  40.798  42.173   8.850
 4669POPC   C1A 6819  40.784  42.372   8.550
 4669POPC   D2A 6820  40.754  42.379   8.250
 4669POPC   C3A 6821  40.774  42.307   7.950
 4669POPC   C4A 6822  40.763  42.302   7.650
 4669POPC   C1B 6823  40.787  42.121   8.550
 4669POPC   C2B 6824  40.749  42.088   8.250
 4669POPC   C3B 6825  40.800  42.105   7.950
 4669POPC   C4B 6826  40.812  42.055   7.650
 4670POPC   NC3 6827  21.351   4.329   9.450
 4670POPC   PO4 6828  21.427   4.270   9.150
 4670POPC   GL1 6829  21.426   4.352   8.850
 4670POPC   GL2 6830  21.305   4.469   8.850
 4670POPC   C1A 6831  21.399   4.271   8.550
 4670POPC   D2A 6832  21.433   4.317   8.250
 4670POPC   C3A 6833  21.405   4.359   7.950
 4670POPC   C4A 6834  21.392   4.328   7.650
 4670POPC   C1B 6835  21.289   4.543   8.550
 4670POPC   C2B 6836  21.265   4.563   8.250
 4670POPC   C3B 6837  21.239   4.562   7.950
 4670POPC   C4B 6838  21.255   4.544   7.650
 4671POPC   NC3 6839  17.472  15.931   9.450
 4671POPC   PO4 6840  17.502  15.907   9.150
 4671POPC   GL1 6841  17.487  15.989   8.850
 4671POPC   GL2 6842  17.420  16.054   8.850
 4671POPC   C1A 6843  17.468  15.939   8.550
 4671POPC   D2A 6844  17.504  15.962   8.250
 4671POPC   C3A 6845  17.478  15.922   7.950
 4671POPC   C4A 6846  17.497  15.975   7.650
 4671POPC   C1B 6847  17.317  16.078   8.550
 4671POPC   C2B 6848  17.320  16.077   8.250
 4671POPC   C3B 6849  17.326  16.143   7.950
 4671POPC   C4B 6850  17.281  16.145   7.650
 4672POPC   NC3 6851  19.812   0.398   9.450
 4672POPC   PO4 6852  19.816   0.473   9.150
 4672POPC   GL1 6853  19.880   0.468   8.850
 4672POPC   GL2 6854  19.869   0.328   8.850
 4672POPC   C1A 6855  19.793   0.435   8.550
 4672POPC   D2A 6856  19.805   0.488   8.250
 4672POPC   C3A 6857  19.882   0.427   7.950
 4672POPC   C4A 6858  19.822   0.397   7.650
 4672POPC   C1B 6859  19.953   0.219   8.550
 4672POPC   C2B 6860  19.941   0.234   8.250
 4672POPC   C3B 6861  19.968   0.217   7.950
 4672POPC   C4B 6862  19.946   0.165   7.650
 4673POPC   NC3 6863  42.374  43.905   9.450
 4673POPC   PO4 6864  42.310  43.891   9.150
 4673POPC   GL1 6865  42.358  43.846   8.850
 4673POPC   GL2 6866  42.246  43.738   8.850
 4673POPC   C1A 6867  42.333  43.842   8.550
 4673POPC   D2A 6868  42.380  43.860   8.250
 4673POPC   C3A 6869  42.380  43.897   7.950
 4673POPC   C4A 6870  42.304  43.899   7.650
 4673POPC   C1B 6871  42.257  43.712   8.550
 4673POPC   C2B 6872  42.174  43.628   8.250
 4673POPC   C3B 6873  42.228  43.684   7.950
 4673POPC   C4B 6874  42.169  43.708   7.650
 4674POPC   NC3 6875  32.238  29.099   9.450
 4674POPC   PO4 6876  32.234  29.182   9.150
 4674POPC   GL1 6877  32.200  29.099   8.850
 4674POPC   GL2 6878  32.118  29.226   8.850
 4674POPC   C1A 6879  32.276  29.135   8.550
 4674POPC   D2A 6880  32.238  29.114   8.250
 4674POPC   C3A 6881  32.213  29.171   7.950
 4674POPC   C4A 6882  32.207  29.133   7.650
 4674POPC   C1B 6883  32.023  29.234   8.550
 4674POPC   C2B 6884  32.058  29.178   8.250
 4674POPC   C3B 6885  32.038  29.188   7.950
 4674POPC   C4B 6886  32.007  29.207   7.650
 4675POPC   NC3 6887   2.743   0.456   9.450
 4675POPC   PO4 6888   2.738   0.395   9.150
 4675POPC   GL1 6889   2.726   0.431   8.850
 4675POPC   GL2 6890   2.667   0.540   8.850
 4675POPC   C1A 6891   2.774   0.465   8.550
 4675POPC   D2A 6892   2.809   0.402   8.250
 4675POPC   C3A 6893   2.743   0.461   7.950
 4675POPC   C4A 6894   2.803   0.478   7.650
 4675POPC   C1B 6895   2.590   0.635   8.550
 4675POPC   C2B 6896   2.577   0.571   8.250
 4675POPC   C3B 6897   2.607   0.559   7.950
 4675POPC   C4B 6898   2.569   0.615   7.650
 4676POPC   NC3 6899  29.946  24.489   9.450
 4676POPC   PO4 6900  29.876  24.448   9.150
 4676POPC   GL1 6901  29.963  24.449   8.850
 4676POPC   GL2 6902  29.845  24.375   8.850
 4676POPC   C1A 6903  29.936  24.520   8.550
 4676POPC   D2A 6904  29.921  24.463   8.250
 4676POPC   C3A 6905  29.879  24.501   7.950
 4676POPC   C4A 6906  29.961  24.449   7.650
 4676POPC   C1B 6907  29.729  24.342   8.550
 4676POPC   C2B 6908  29.724  24.309   8.250
 4676POPC   C3B 6909  29.776  24.312   7.950
 4676POPC   C4B 6910  29.754  24.285   7.650
 4677POPC   NC3 6911  42.309  34.601   9.450
 4677POPC   PO4 6912  42.380  34.548   9.150
 4677POPC   GL1 6913  42.312  34.608   8.850
 4677POPC   GL2 6914  42.407  34.489   8.850
 4677POPC   C1A 6915  42.331  34.544   8.550
 4677POPC   D2A 6916  42.327  34.557   8.250
 4677POPC   C3A 6917  42.320  34.625   7.950
 4677POPC   C4A 6918  42.342  34.624   7.650
 4677POPC   C1B 6919  42.584  34.418   8.550
 4677POPC   C2B 6920  42.561  34.459   8.250
 4677POPC   C3B 6921  42.541  34.470   7.950
 4677POPC   C4B 6922  42.509  34.441   7.650
 4678POPC   NC3 6923  37.654  18.258   9.450
 4678POPC   PO4 6924  37.656  18.264   9.150
 4678POPC   GL1 6925  37.681  18.331   8.850
 4678POPC   GL2 6926  37.642  18.171   8.850
 4678POPC   C1A 6927  37.658  18.297   8.550
 4678POPC   D2A 6928  37.692  18.248   8.250
 4678POPC   C3A 6929  37.653  18.235   7.950
 4678POPC   C4A 6930  37.640  18.299   7.650
 4678POPC   C1B 6931  37.654  18.077   8.550
 4678POPC   C2B 6932  37.591  17.994   8.250
 4678POPC   C3B 6933  37.586  18.022   7.950
 4678POPC   C4B 6934  37.608  18.039   7.650
 4679POPC   NC3 6935   2.729  19.798   9.450
 4679POPC   PO4 6936   2.721  19.866   9.150
 4679POPC   GL1 6937   2.807  19.805   8.850
 4679POPC   GL2 6938   2.888  19.861   8.850
 4679POPC   C1A 6939   2.737  19.845   8.550
 4679POPC   D2A 6940   2.762  19.816   8.250
 4679POPC   C3A 6941   2.718  19.848   7.950
 4679POPC   C4A 6942   2.735  19.792   7.650
 4679POPC   C1B 6943   3.048  19.811   8.550
 4679POPC   C2B 6944   3.010  19.789   8.250
 4679POPC   C3B 6945   2.964  19.793   7.950
 4679POPC   C4B 6946   3.013  19.829   7.650
 4680POPC   NC3 6947  22.971  19.037   9.450
 4680POPC   PO4 6948  22.975  19.099   9.150
 4680POPC   GL1 6949  22.901  19.102   8.850
 4680POPC   GL2 6950  22.923  18.974   8.850
 4680POPC   C1A 6951  22.949  19.076   8.550
 4680POPC   D2A 6952  22.905  19.036   8.250
 4680POPC   C3A 6953  22.984  19.077   7.950
 4680POPC   C4A 6954  22.980  19.035   7.650
 4680POPC   C1B 6955  22.891  18.829   8.550
 4680POPC   C2B 6956  22.820  18.782   8.250
 4680POPC   C3B 6957  22.863  18.792   7.950
 4680POPC   C4B 6958  22.806  18.798   7.650
 4681POPC   NC3 6959  34.598   4.353   9.450
 4681POPC   PO4 6960  34.541   4.344   9.150
 4681POPC   GL1 6961  34.599   4.362   8.850
 4681POPC   GL2 6962  34.673   4.224   8.850
 4681POPC   C1A 6963  34.594   4.301   8.550
 4681POPC   D2A 6964  34.532   4.329   8.250
 4681POPC   C3A 6965  34.608   4.334   7.950
 4681POPC   C4A 6966  34.531   4.297   7.650
 4681POPC   C1B 6967  34.837   4.171   8.550
 4681POPC   C2B 6968  34.839   4.221   8.250
 4681POPC   C3B 6969  34.847   4.251   7.950
 4681POPC   C4B 6970  34.768   4.183   7.650
 4682POPC   NC3 6971  14.388  21.387   9.450
 4682POPC   PO4 6972  14.397  21.385   9.150
 4682POPC   GL1 6973  14.413  21.427   8.850
 4682POPC   GL2 6974  14.520  21.424   8.850
 4682POPC   C1A 6975  14.393  21.348   8.550
 4682POPC   D2A 6976  14.432  21.394   8.250
 4682POPC   C3A 6977  14.372  21.354   7.950
 4682POPC   C4A 6978  14.374  21.341   7.650
 4682POPC   C1B 6979  14.688  21.440   8.550
 4682POPC   C2B 6980  14.611  21.447   8.250
 4682POPC   C3B 6981  14.658  21.450   7.950
 4682POPC   C4B 6982  14.662  21.450   7.650
 4683POPC   NC3 6983  39.993  36.164   9.450
 4683POPC   PO4 6984  39.971  36.113   9.150
 4683POPC   GL1 6985  39.984  36.136   8.850
 4683POPC   GL2 6986  40.030  36.256   8.850
 4683POPC   C1A 6987  39.993  36.108   8.550
 4683POPC   D2A 6988  40.000  36.170   8.250
 4683POPC   C3A 6989  40.015  36.123   7.950
 4683POPC   C4A 6990  39.996  36.132   7.650
 4683POPC   C1B 6991  40.063  36.324   8.550
 4683POPC   C2B 6992  40.104  36.319   8.250
 4683POPC   C3B 6993  40.155  36.393   7.950
 4683POPC   C4B 6994  40.071  36.320   7.650
 4684POPC   NC3 6995  33.807  33.040   9.450
 4684POPC   PO4 6996  33.792  33.062   9.150
 4684POPC   GL1 6997  33.783  33.006   8.850
 4684POPC   GL2 6998  33.797  32.886   8.850
 4684POPC   C1A 6999  33.829  33.031   8.550
 4684POPC   D2A 7000  33.811  33.010   8.250
 4684POPC   C3A 7001  33.774  33.002   7.950
 4684POPC   C4A 7002  33.822  33.035   7.650
 4684POPC   C1B 7003  33.801  32.786   8.550
 4684POPC   C2B 7004  33.792  32.823   8.250
 4684POPC   C3B 7005  33.787  32.770   7.950
 4684POPC   C4B 7006  33.756  32.786   7.650
 4685POPC   NC3 7007  36.903   0.457   9.450
 4685POPC   PO4 7008  36.920   0.438   9.150
 4685POPC   GL1 7009  36.912   0.428   8.850
 4685POPC   GL2 7010  36.807   0.343   8.850
 4685POPC   C1A 7011  36.895   0.390   8.550
 4685POPC   D2A 7012  36.857   0.428   8.250
 4685POPC   C3A 7013  36.940   0.442   7.950
 4685POPC   C4A 7014  36.876   0.471   7.650
 4685POPC   C1B 7015  36.646   0.342   8.550
 4685POPC   C2B 7016  36.707   0.331   8.250
 4685POPC   C3B 7017  36.717   0.370   7.950
 4685POPC   C4B 7018  36.686   0.302   7.650
 4686POPC   NC3 7019  12.088   3.507   9.450
 4686POPC   PO4 7020  12.055   3.557   9.150
 4686POPC   GL1 7021  12.073   3.507   8.850
 4686POPC   GL2 7022  12.013   3.385   8.850
 4686POPC   C1A 7023  12.048   3.528   8.550
 4686POPC   D2A 7024  12.120   3.506   8.250
 4686POPC   C3A 7025  12.026   3.555   7.950
 4686POPC   C4A 7026  12.076   3.568   7.650
 4686POPC   C1B 7027  12.027   3.296   8.550
 4686POPC   C2B 7028  12.005   3.330   8.250
 4686POPC   C3B 7029  12.046   3.300   7.950
 4686POPC   C4B 7030  12.039   3.276   7.650
 4687POPC   NC3 7031  39.222  23.721   9.450
 4687POPC   PO4 7032  39.191  23.702   9.150
 4687POPC   GL1 7033  39.277  23.680   8.850
 4687POPC   GL2 7034  39.348  23.569   8.850
 4687POPC   C1A 7035  39.254  23.695   8.550
 4687POPC   D2A 7036  39.218  23.761   8.250
 4687POPC   C3A 7037  39.277  23.741   7.950
 4687POPC   C4A 7038  39.217  23.717   7.650
 4687POPC   C1B 7039  39.384  23.504   8.550
 4687POPC   C2B 7040  39.393  23.528   8.250
 4687POPC   C3B 7041  39.384  23.481   7.950
 4687POPC   C4B 7042  39.405  23.492   7.650
 4688POPC   NC3 7043  36.084  29.118   9.450
 4688POPC   PO4 7044  36.105  29.174   9.150
 4688POPC   GL1 7045  36.133  29.149   8.850
 4688POPC   GL2 7046  36.214  29.227   8.850
 4688POPC   C1A 7047  36.133  29.193   8.550
 4688POPC   D2A 7048  36.146  29.178   8.250
 4688POPC   C3A 7049  36.159  29.166   7.950
 4688POPC   C4A 7050  36.153  29.158   7.650
 4688POPC   C1B 7051  36.231  29.405   8.550
 4688POPC   C2B 7052  36.227  29.399   8.250
 4688POPC   C3B 7053  36.220  29.383   7.950
 4688POPC   C4B 7054  36.266  29.410   7.650
 4689POPC   NC3 7055  15.993  26.844   9.450
 4689POPC   PO4 7056  15.997  26.790   9.150
 4689POPC   GL1 7057  15.975  26.802   8.850
 4689POPC   GL2 7058  16.118  26.827   8.850
 4689POPC   C1A 7059  15.980  26.769   8.550
 4689POPC   D2A 7060  15.908  26.852   8.250
 4689POPC   C3A 7061  15.989  26.767   7.950
 4689POPC   C4A 7062  15.906  26.858   7.650
 4689POPC   C1B 7063  16.243  26.802   8.550
 4689POPC   C2B 7064  16.156  26.751   8.250
 4689POPC   C3B 7065  16.174  26.773   7.950
 4689POPC   C4B 7066  16.236  26.708   7.650
 4690POPC   NC3 7067  39.219  11.343   9.450
 4690POPC   PO4 7068  39.185  11.348   9.150
 4690POPC   GL1 7069  39.213  11.262   8.850
 4690POPC   GL2 7070  39.360  11.350   8.850
 4690POPC   C1A 7071  39.220  11.280   8.550
 4690POPC   D2A 7072  39.280  11.294   8.250
 4690POPC   C3A 7073  39.198  11.305   7.950
 4690POPC   C4A 7074  39.265  11.304   7.650
 4690POPC   C1B 7075  39.474  11.460   8.550
 4690POPC   C2B 7076  39.416  11.399   8.250
 4690POPC   C3B 7077  39.480  11.401   7.950
 4690POPC   C4B 7078  39.459  11.459   7.650
 4691POPC   NC3 7079  36.131  24.488   9.450
 4691POPC   PO4 7080  36.097  24.487   9.150
 4691POPC   GL1 7081  36.138  24.442   8.850
 4691POPC   GL2 7082  36.206  24.449   8.850
 4691POPC   C1A 7083  36.152  24.478   8.550
 4691POPC   D2A 7084  36.089  24.536   8.250
 4691POPC   C3A 7085  36.118  24.530   7.950
 4691POPC   C4A 7086  36.173  24.460   7.650
 4691POPC   C1B 7087  36.368  24.339   8.550
 4691POPC   C2B 7088  36.354  24.321   8.250
 4691POPC   C3B 7089  36.332  24.338   7.950
 4691POPC   C4B 7090  36.354  24.398   7.650
 4692POPC   NC3 7091  32.998  17.477   9.450
 4692POPC   PO4 7092  33.058  17.500   9.150
 4692POPC   GL1 7093  32.991  17.492   8.850
 4692POPC   GL2 7094  32.954  17.557   8.850
 4692POPC   C1A 7095  33.069  17.480   8.550
 4692POPC   D2A 7096  33.016  17.522   8.250
 4692POPC   C3A 7097  33.011  17.488   7.950
 4692POPC   C4A 7098  33.026  17.500   7.650
 4692POPC   C1B 7099  32.792  17.558   8.550
 4692POPC   C2B 7100  32.763  17.569   8.250
 4692POPC   C3B 7101  32.804  17.570   7.950
 4692POPC   C4B 7102  32.774  17.546   7.650
 4693POPC   NC3 7103  24.461   6.682   9.450
 4693POPC   PO4 7104  24.471   6.635   9.150
 4693POPC   GL1 7105  24.517   6.628   8.850
 4693POPC   GL2 7106  24.421   6.787   8.850
 4693POPC   C1A 7107  24.444   6.642   8.550
 4693POPC   D2A 7108  24.450   6.654   8.250
 4693POPC   C3A 7109  24.531   6.667   7.950
 4693POPC   C4A 7110  24.482   6.661   7.650
 4693POPC   C1B 7111  24.393   6.895   8.550
 4693POPC   C2B 7112  24.398   6.898   8.250
 4693POPC   C3B 7113  24.314   6.847   7.950
 4693POPC   C4B 7114  24.393   6.823   7.650
 4694POPC   NC3 7115   2.782  15.204   9.450
 4694POPC   PO4 7116   2.733  15.146   9.150
 4694POPC   GL1 7117   2.765  15.166   8.850
 4694POPC   GL2 7118   2.708  15.055   8.850
 4694POPC   C1A 7119   2.724  15.213   8.550
 4694POPC   D2A 7120   2.802  15.213   8.250
 4694POPC   C3A 7121   2.739  15.187   7.950
 4694POPC   C4A 7122   2.798  15.211   7.650
 4694POPC   C1B 7123   2.665  14.962   8.550
 4694POPC   C2B 7124   2.706  14.952   8.250
 4694POPC   C3B 7125   2.682  14.892   7.950
 4694POPC   C4B 7126   2.643  14.896   7.650
 4695POPC   NC3 7127  13.610  43.134   9.450
 4695POPC   PO4 7128  13.649  43.063   9.150
 4695POPC   GL1 7129  13.611  43.145   8.850
 4695POPC   GL2 7130  13.620  43.016   8.850
 4695POPC   C1A 7131  13.660  43.136   8.550
 4695POPC   D2A 7132  13.623  43.156   8.250
 4695POPC   C3A 7133  13.657  43.104   7.950
 4695POPC   C4A 7134  13.600  43.106   7.650
 4695POPC   C1B 7135  13.622  42.881   8.550
 4695POPC   C2B 7136  13.710  42.854   8.250
 4695POPC   C3B 7137  13.647  42.889   7.950
 4695POPC   C4B 7138  13.697  42.866   7.650
 4696POPC   NC3 7139  29.885  42.326   9.450
 4696POPC   PO4 7140  29.953  42.357   9.150
 4696POPC   GL1 7141  29.902  42.292   8.850
 4696POPC   GL2 7142  30.090  42.280   8.850
 4696POPC   C1A 7143  29.924  42.343   8.550
 4696POPC   D2A 7144  29.969  42.323   8.250
 4696POPC   C3A 7145  29.909  42.313   7.950
 4696POPC   C4A 7146  29.927  42.373   7.650
 4696POPC   C1B 7147  30.126  42.272   8.550
 4696POPC   C2B 7148  30.148  42.271   8.250
 4696POPC   C3B 7149  30.183  42.328   7.950
 4696POPC   C4B 7150  30.193  42.320   7.650
 4697POPC   NC3 7151   2.783  40.809   9.450
 4697POPC   PO4 7152   2.812  40.765   9.150
 4697POPC   GL1 7153   2.717  40.827   8.850
 4697POPC   GL2 7154   2.662  40.800   8.850
 4697POPC   C1A 7155   2.728  40.826   8.550
 4697POPC   D2A 7156   2.803  40.825   8.250
 4697POPC   C3A 7157   2.724  40.789   7.950
 4697POPC   C4A 7158   2.739  40.820   7.650
 4697POPC   C1B 7159   2.516  40.754   8.550
 4697POPC   C2B 7160   2.528  40.740   8.250
 4697POPC   C3B 7161   2.508  40.715   7.950
 4697POPC   C4B 7162   2.488  40.700   7.650
 4698POPC   NC3 7163  35.336   4.334   9.450
 4698POPC   PO4 7164  35.396   4.345   9.150
 4698POPC   GL1 7165  35.303   4.365   8.850
 4698POPC   GL2 7166  35.191   4.398   8.850
 4698POPC   C1A 7167  35.325   4.301   8.550
 4698POPC   D2A 7168  35.316   4.273   8.250
 4698POPC   C3A 7169  35.372   4.326   7.950
 4698POPC   C4A 7170  35.354   4.279   7.650
 4698POPC   C1B 7171  35.153   4.439   8.550
 4698POPC   C2B 7172  35.171   4.439   8.250
 4698POPC   C3B 7173  35.123   4.394   7.950
 4698POPC   C4B 7174  35.104   4.410   7.650
 4699POPC   NC3 7175   3.541  32.254   9.450
 4699POPC   PO4 7176   3.516  32.221   9.150
 4699POPC   GL1 7177   3.537  32.285   8.850
 4699POPC   GL2 7178   3.643  32.236   8.850
 4699POPC   C1A 7179   3.535  32.262   8.550
 4699POPC   D2A 7180   3.492  32.271   8.250
 4699POPC   C3A 7181   3.536  32.293   7.950
 4699POPC   C4A 7182   3.589  32.261   7.650
 4699POPC   C1B 7183   3.831  32.263   8.550
 4699POPC   C2B 7184   3.812  32.201   8.250
 4699POPC   C3B 7185   3.770  32.269   7.950
 4699POPC   C4B 7186   3.799  32.253   7.650
 4700POPC   NC3 7187   7.449   0.426   9.450
 4700POPC   PO4 7188   7.429   0.454   9.150
 4700POPC   GL1 7189   7.383   0.465   8.850
 4700POPC   GL2 7190   7.314   0.504   8.850
 4700POPC   C1A 7191   7.379   0.436   8.550
 4700POPC   D2A 7192   7.459   0.398   8.250
 4700POPC   C3A 7193   7.426   0.471   7.950
 4700POPC   C4A 7194   7.438   0.425   7.650
 4700POPC   C1B 7195   7.215   0.621   8.550
 4700POPC   C2B 7196   7.217   0.591   8.250
 4700POPC   C3B 7197   7.239   0.616   7.950
 4700POPC   C4B 7198   7.215   0.552   7.650
 4701POPC   NC3 7199   5.059  12.819   9.450
 4701POPC   PO4 7200   5.090  12.829   9.150
 4701POPC   GL1 7201   5.126  12.860   8.850
 4701POPC   GL2 7202   5.176  12.931   8.850
 4701POPC   C1A 7203   5.115  12.852   8.550
 4701POPC   D2A 7204   5.095  12.875   8.250
 4701POPC   C3A 7205   5.131  12.892   7.950
 4701POPC   C4A 7206   5.129  12.842   7.650
 4701POPC   C1B 7207   5.148  13.116   8.550
 4701POPC   C2B 7208   5.209  13.121   8.250
 4701POPC   C3B 7209   5.192  13.093   7.950
 4701POPC   C4B 7210   5.180  13.113   7.650
 4702POPC   NC3 7211  28.343  26.830   9.450
 4702POPC   PO4 7212  28.345  26.789   9.150
 4702POPC   GL1 7213  28.390  26.867   8.850
 4702POPC   GL2 7214  28.532  26.870   8.850
 4702POPC   C1A 7215  28.378  26.860   8.550
 4702POPC   D2A 7216  28.339  26.845   8.250
 4702POPC   C3A 7217  28.384  26.775   7.950
 4702POPC   C4A 7218  28.378  26.803   7.650
 4702POPC   C1B 7219  28.643  26.879   8.550
 4702POPC   C2B 7220  28.638  26.940   8.250
 4702POPC   C3B 7221  28.611  26.894   7.950
 4702POPC   C4B 7222  28.588  26.933   7.650
 4703POPC   NC3 7223   4.343  38.423   9.450
 4703POPC   PO4 7224   4.285  38.466   9.150
 4703POPC   GL1 7225   4.344  38.431   8.850
 4703POPC   GL2 7226   4.336  38.299   8.850
 4703POPC   C1A 7227   4.332  38.502   8.550
 4703POPC   D2A 7228   4.282  38.497   8.250
 4703POPC   C3A 7229   4.268  38.464   7.950
 4703POPC   C4A 7230   4.283  38.414   7.650
 4703POPC   C1B 7231   4.328  38.217   8.550
 4703POPC   C2B 7232   4.364  38.242   8.250
 4703POPC   C3B 7233   4.335  38.229   7.950
 4703POPC   C4B 7234   4.349  38.217   7.650
 4704POPC   NC3 7235   5.850  14.414   9.450
 4704POPC   PO4 7236   5.852  14.430   9.150
 4704POPC   GL1 7237   5.825  14.446   8.850
 4704POPC   GL2 7238   5.811  14.518   8.850
 4704POPC   C1A 7239   5.843  14.357   8.550
 4704POPC   D2A 7240   5.867  14.368   8.250
 4704POPC   C3A 7241   5.865  14.360   7.950
 4704POPC   C4A 7242   5.859  14.391   7.650
 4704POPC   C1B 7243   5.700  14.585   8.550
 4704POPC   C2B 7244   5.727  14.552   8.250
 4704POPC   C3B 7245   5.734  14.595   7.950
 4704POPC   C4B 7246   5.721  14.619   7.650
 4705POPC   NC3 7247  15.994  21.352   9.450
 4705POPC   PO4 7248  15.942  21.407   9.150
 4705POPC   GL1 7249  15.939  21.373   8.850
 4705POPC   GL2 7250  16.092  21.315   8.850
 4705POPC   C1A 7251  15.968  21.350   8.550
 4705POPC   D2A 7252  15.994  21.427   8.250
 4705POPC   C3A 7253  15.980  21.358   7.950
 4705POPC   C4A 7254  15.911  21.347   7.650
 4705POPC   C1B 7255  16.202  21.277   8.550
 4705POPC   C2B 7256  16.166  21.332   8.250
 4705POPC   C3B 7257  16.216  21.313   7.950
 4705POPC   C4B 7258  16.209  21.314   7.650
 4706POPC   NC3 7259  39.989  28.352   9.450
 4706POPC   PO4 7260  39.993  28.396   9.150
 4706POPC   GL1 7261  40.053  28.325   8.850
 4706POPC   GL2 7262  39.859  28.355   8.850
 4706POPC   C1A 7263  40.055  28.324   8.550
 4706POPC   D2A 7264  40.014  28.414   8.250
 4706POPC   C3A 7265  40.023  28.319   7.950
 4706POPC   C4A 7266  39.999  28.335   7.650
 4706POPC   C1B 7267  39.790  28.242   8.550
 4706POPC   C2B 7268  39.805  28.249   8.250
 4706POPC   C3B 7269  39.731  28.219   7.950
 4706POPC   C4B 7270  39.793  28.250   7.650
 4707POPC   NC3 7271  17.515  20.603   9.450
 4707POPC   PO4 7272  17.488  20.621   9.150
 4707POPC   GL1 7273  17.542  20.569   8.850
 4707POPC   GL2 7274  17.473  20.470   8.850
 4707POPC   C1A 7275  17.543  20.591   8.550
 4707POPC   D2A 7276  17.492  20.580   8.250
 4707POPC   C3A 7277  17.465  20.563   7.950
 4707POPC   C4A 7278  17.553  20.635   7.650
 4707POPC   C1B 7279  17.425  20.403   8.550
 4707POPC   C2B 7280  17.428  20.395   8.250
 4707POPC   C3B 7281  17.449  20.396   7.950
 4707POPC   C4B 7282  17.437  20.377   7.650
 4708POPC   NC3 7283   5.124  21.361   9.450
 4708POPC   PO4 7284   5.113  21.398   9.150
 4708POPC   GL1 7285   5.108  21.392   8.850
 4708POPC   GL2 7286   5.141  21.531   8.850
 4708POPC   C1A 7287   5.124  21.350   8.550
 4708POPC   D2A 7288   5.104  21.394   8.250
 4708POPC   C3A 7289   5.118  21.410   7.950
 4708POPC   C4A 7290   5.082  21.391   7.650
 4708POPC   C1B 7291   5.115  21.638   8.550
 4708POPC   C2B 7292   5.155  21.665   8.250
 4708POPC   C3B 7293   5.189  21.593   7.950
 4708POPC   C4B 7294   5.196  21.647   7.650
 4709POPC   NC3 7295  29.186  33.016   9.450
 4709POPC   PO4 7296  29.155  33.026   9.150
 4709POPC   GL1 7297  29.123  33.031   8.850
 4709POPC   GL2 7298  29.283  33.068   8.850
 4709POPC   C1A 7299  29.096  33.040   8.550
 4709POPC   D2A 7300  29.109  33.029   8.250
 4709POPC   C3A 7301  29.095  33.005   7.950
 4709POPC   C4A 7302  29.156  32.993   7.650
 4709POPC   C1B 7303  29.352  33.141   8.550
 4709POPC   C2B 7304  29.320  33.166   8.250
 4709POPC   C3B 7305  29.313  33.238   7.950
 4709POPC   C4B 7306  29.344  33.217   7.650
 4710POPC   NC3 7307   4.274  26.017   9.450
 4710POPC   PO4 7308   4.344  26.041   9.150
 4710POPC   GL1 7309   4.290  26.017   8.850
 4710POPC   GL2 7310   4.193  26.071   8.850
 4710POPC   C1A 7311   4.284  26.054   8.550
 4710POPC   D2A 7312   4.306  26.026   8.250
 4710POPC   C3A 7313   4.355  26.032   7.950
 4710POPC   C4A 7314   4.327  26.076   7.650
 4710POPC   C1B 7315   4.099  26.123   8.550
 4710POPC   C2B 7316   4.065  26.130   8.250
 4710POPC   C3B 7317   4.099  26.108   7.950
 4710POPC   C4B 7318   4.090  26.162   7.650
 4711POPC   NC3 7319  12.085  28.353   9.450
 4711POPC   PO4 7320  12.027  28.373   9.150
 4711POPC   GL1 7321  12.041  28.345   8.850
 4711POPC   GL2 7322  12.086  28.281   8.850
 4711POPC   C1A 7323  12.054  28.352   8.550
 4711POPC   D2A 7324  12.032  28.369   8.250
 4711POPC   C3A 7325  12.060  28.331   7.950
 4711POPC   C4A 7326  12.052  28.344   7.650
 4711POPC   C1B 7327  11.963  28.147   8.550
 4711POPC   C2B 7328  11.959  28.176   8.250
 4711POPC   C3B 7329  12.009  28.115   7.950
 4711POPC   C4B 7330  12.009  28.177   7.650
 4712POPC   NC3 7331  12.897   1.210   9.450
 4712POPC   PO4 7332  12.870   1.176   9.150
 4712POPC   GL1 7333  12.846   1.191   8.850
 4712POPC   GL2 7334  12.977   1.247   8.850
 4712POPC   C1A 7335  12.827   1.207   8.550
 4712POPC   D2A 7336  12.817   1.185   8.250
 4712POPC   C3A 7337  12.874   1.195   7.950
 4712POPC   C4A 7338  12.823   1.171   7.650
 4712POPC   C1B 7339  13.028   1.325   8.550
 4712POPC   C2B 7340  13.082   1.373   8.250
 4712POPC   C3B 7341  13.083   1.333   7.950
 4712POPC   C4B 7342  13.100   1.360   7.650
 4713POPC   NC3 7343  38.488   1.994   9.450
 4713POPC   PO4 7344  38.416   1.952   9.150
 4713POPC   GL1 7345  38.474   1.992   8.850
 4713POPC   GL2 7346  38.625   1.963   8.850
 4713POPC   C1A 7347  38.421   1.990   8.550
 4713POPC   D2A 7348  38.438   2.024   8.250
 4713POPC   C3A 7349  38.494   1.991   7.950
 4713POPC   C4A 7350  38.405   1.995   7.650
 4713POPC   C1B 7351  38.677   2.000   8.550
 4713POPC   C2B 7352  38.692   2.033   8.250
 4713POPC   C3B 7353  38.663   2.017   7.950
 4713POPC   C4B 7354  38.676   2.023   7.650
 4714POPC   NC3 7355  25.297  29.873   9.450
 4714POPC   PO4 7356  25.283  29.964   9.150
 4714POPC   GL1 7357  25.221  29.954   8.850
 4714POPC   GL2 7358  25.266  29.844   8.850
 4714POPC   C1A 7359  25.245  29.881   8.550
 4714POPC   D2A 7360  25.223  29.911   8.250
 4714POPC   C3A 7361  25.313  29.909   7.950
 4714POPC   C4A 7362  25.278  29.930   7.650
 4714POPC   C1B 7363  25.167  29.699   8.550
 4714POPC   C2B 7364  25.156  29.637   8.250
 4714POPC   C3B 7365  25.161  29.654   7.950
 4714POPC   C4B 7366  25.216  29.706   7.650
 4715POPC   NC3 7367  16.000  11.292   9.450
 4715POPC   PO4 7368  15.950  11.321   9.150
 4715POPC   GL1 7369  15.916  11.312   8.850
 4715POPC   GL2 7370  16.046  11.258   8.850
 4715POPC   C1A 7371  16.004  11.337   8.550
 4715POPC   D2A 7372  15.961  11.346   8.250
 4715POPC   C3A 7373  15.970  11.267   7.950
 4715POPC   C4A 7374  15.954  11.268   7.650
 4715POPC   C1B 7375  16.220  11.192   8.550
 4715POPC   C2B 7376  16.189  11.144   8.250
 4715POPC   C3B 7377  16.220  11.231   7.950
 4715POPC   C4B 7378  16.150  11.233   7.650
 4716POPC   NC3 7379  44.614   8.933   9.450
 4716POPC   PO4 7380  44.634   8.963   9.150
 4716POPC   GL1 7381  44.712   8.975   8.850
 4716POPC   GL2 7382  44.603   9.138   8.850
 4716POPC   C1A 7383  44.708   8.968   8.550
 4716POPC   D2A 7384  44.614   9.018   8.250
 4716POPC   C3A 7385  44.620   8.982   7.950
 4716POPC   C4A 7386  44.631   8.967   7.650
 4716POPC   C1B 7387  44.626   9.263   8.550
 4716POPC   C2B 7388  44.555   9.230   8.250
 4716POPC   C3B 7389  44.620   9.190   7.950
 4716POPC   C4B 7390  44.623   9.180   7.650
 4717POPC   NC3 7391  39.986  39.960   9.450
 4717POPC   PO4 7392  40.011  39.986   9.150
 4717POPC   GL1 7393  39.965  39.980   8.850
 4717POPC   GL2 7394  40.154  39.963   8.850
 4717POPC   C1A 7395  40.042  40.047   8.550
 4717POPC   D2A 7396  39.989  39.983   8.250
 4717POPC   C3A 7397  40.011  39.964   7.950
 4717POPC   C4A 7398  40.013  39.991   7.650
 4717POPC   C1B 7399  40.204  39.849   8.550
 4717POPC   C2B 7400  40.219  39.847   8.250
 4717POPC   C3B 7401  40.221  39.830   7.950
 4717POPC   C4B 7402  40.181  39.827   7.650
 4718POPC   NC3 7403  36.860   1.219   9.450
 4718POPC   PO4 7404  36.893   1.221   9.150
 4718POPC   GL1 7405  36.928   1.217   8.850
 4718POPC   GL2 7406  36.863   1.104   8.850
 4718POPC   C1A 7407  36.858   1.237   8.550
 4718POPC   D2A 7408  36.910   1.231   8.250
 4718POPC   C3A 7409  36.902   1.193   7.950
 4718POPC   C4A 7410  36.903   1.232   7.650
 4718POPC   C1B 7411  36.798   0.964   8.550
 4718POPC   C2B 7412  36.788   0.981   8.250
 4718POPC   C3B 7413  36.727   0.976   7.950
 4718POPC   C4B 7414  36.733   1.004   7.650
 4719POPC   NC3 7415  28.364  25.313   9.450
 4719POPC   PO4 7416  28.399  25.240   9.150
 4719POPC   GL1 7417  28.362  25.260   8.850
 4719POPC   GL2 7418  28.492  25.172   8.850
 4719POPC   C1A 7419  28.397  25.313   8.550
 4719POPC   D2A 7420  28.414  25.302   8.250
 4719POPC   C3A 7421  28.368  25.268   7.950
 4719POPC   C4A 7422  28.377  25.218   7.650
 4719POPC   C1B 7423  28.524  25.130   8.550
 4719POPC   C2B 7424  28.584  25.128   8.250
 4719POPC   C3B 7425  28.559  25.108   7.950
 4719POPC   C4B 7426  28.601  25.144   7.650
 4720POPC   NC3 7427   5.863  25.230   9.450
 4720POPC   PO4 7428   5.872  25.271   9.150
 4720POPC   GL1 7429   5.866  25.314   8.850
 4720POPC   GL2 7430   5.747  25.193   8.850
 4720POPC   C1A 7431   5.838  25.251   8.550
 4720POPC   D2A 7432   5.820  25.294   8.250
 4720POPC   C3A 7433   5.871  25.265   7.950
 4720POPC   C4A 7434   5.874  25.307   7.650
 4720POPC   C1B 7435   5.717  25.092   8.550
 4720POPC   C2B 7436   5.667  25.067   8.250
 4720POPC   C3B 7437   5.688  25.062   7.950
 4720POPC   C4B 7438   5.643  25.129   7.650
 4721POPC   NC3 7439  15.185  13.646   9.450
 4721POPC   PO4 7440  15.153  13.645   9.150
 4721POPC   GL1 7441  15.195  13.634   8.850
 4721POPC   GL2 7442  15.195  13.782   8.850
 4721POPC   C1A 7443  15.151  13.640   8.550
 4721POPC   D2A 7444  15.188  13.631   8.250
 4721POPC   C3A 7445  15.208  13.595   7.950
 4721POPC   C4A 7446  15.209  13.650   7.650
 4721POPC   C1B 7447  15.193  13.922   8.550
 4721POPC   C2B 7448  15.229  13.881   8.250
 4721POPC   C3B 7449  15.250  13.832   7.950
 4721POPC   C4B 7450  15.235  13.879   7.650
 4722POPC   NC3 7451   5.880  44.644   9.450
 4722POPC   PO4 7452   5.858  44.657   9.150
 4722POPC   GL1 7453   5.895  44.634   8.850
 4722POPC   GL2 7454   5.859  44.588   8.850
 4722POPC   C1A 7455   5.903  44.703   8.550
 4722POPC   D2A 7456   5.840  44.628   8.250
 4722POPC   C3A 7457   5.901  44.689   7.950
 4722POPC   C4A 7458   5.907  44.645   7.650
 4722POPC   C1B 7459   5.922  44.458   8.550
 4722POPC   C2B 7460   5.974  44.439   8.250
 4722POPC   C3B 7461   5.892  44.406   7.950
 4722POPC   C4B 7462   5.901  44.404   7.650
 4723POPC   NC3 7463  31.497  12.854   9.450
 4723POPC   PO4 7464  31.483  12.823   9.150
 4723POPC   GL1 7465  31.460  12.855   8.850
 4723POPC   GL2 7466  31.553  12.915   8.850
 4723POPC   C1A 7467  31.437  12.869   8.550
 4723POPC   D2A 7468  31.496  12.851   8.250
 4723POPC   C3A 7469  31.494  12.863   7.950
 4723POPC   C4A 7470  31.454  12.842   7.650
 4723POPC   C1B 7471  31.646  12.962   8.550
 4723POPC   C2B 7472  31.640  13.024   8.250
 4723POPC   C3B 7473  31.648  12.963   7.950
 4723POPC   C4B 7474  31.627  12.990   7.650
 4724POPC   NC3 7475  37.642  14.365   9.450
 4724POPC   PO4 7476  37.712  14.451   9.150
 4724POPC   GL1 7477  37.681  14.382   8.850
 4724POPC   GL2 7478  37.713  14.319   8.850
 4724POPC   C1A 7479  37.702  14.422   8.550
 4724POPC   D2A 7480  37.635  14.387   8.250
 4724POPC   C3A 7481  37.701  14.444   7.950
 4724POPC   C4A 7482  37.724  14.361   7.650
 4724POPC   C1B 7483  37.704  14.169   8.550
 4724POPC   C2B 7484  37.615  14.181   8.250
 4724POPC   C3B 7485  37.634  14.115   7.950
 4724POPC   C4B 7486  37.661  14.162   7.650
 4725POPC   NC3 7487  21.386   9.020   9.450
 4725POPC   PO4 7488  21.343   8.932   9.150
 4725POPC   GL1 7489  21.386   8.944   8.850
 4725POPC   GL2 7490  21.476   8.857   8.850
 4725POPC   C1A 7491  21.419   8.931   8.550
 4725POPC   D2A 7492  21.369   8.926   8.250
 4725POPC   C3A 7493  21.426   8.969   7.950
 4725POPC   C4A 7494  21.358   8.929   7.650
 4725POPC   C1B 7495  21.466   8.753   8.550
 4725POPC   C2B 7496  21.494   8.728   8.250
 4725POPC   C3B 7497  21.536   8.790   7.950
 4725POPC   C4B 7498  21.484   8.732   7.650
 4726POPC   NC3 7499   0.457   7.391   9.450
 4726POPC   PO4 7500   0.393   7.457   9.150
 4726POPC   GL1 7501   0.469   7.456   8.850
 4726POPC   GL2 7502   0.391   7.556   8.850
 4726POPC   C1A 7503   0.457   7.407   8.550
 4726POPC   D2A 7504   0.410   7.405   8.250
 4726POPC   C3A 7505   0.412   7.460   7.950
 4726POPC   C4A 7506   0.472   7.443   7.650
 4726POPC   C1B 7507   0.449   7.706   8.550
 4726POPC   C2B 7508   0.456   7.645   8.250
 4726POPC   C3B 7509   0.456   7.699   7.950
 4726POPC   C4B 7510   0.430   7.637   7.650
 4727POPC   NC3 7511  21.370  39.983   9.450
 4727POPC   PO4 7512  21.356  40.017   9.150
 4727POPC   GL1 7513  21.346  40.032   8.850
 4727POPC   GL2 7514  21.300  40.151   8.850
 4727POPC   C1A 7515  21.380  40.057   8.550
 4727POPC   D2A 7516  21.373  39.994   8.250
 4727POPC   C3A 7517  21.400  40.011   7.950
 4727POPC   C4A 7518  21.364  39.975   7.650
 4727POPC   C1B 7519  21.324  40.278   8.550
 4727POPC   C2B 7520  21.253  40.246   8.250
 4727POPC   C3B 7521  21.288  40.233   7.950
 4727POPC   C4B 7522  21.271  40.243   7.650
 4728POPC   NC3 7523  16.693  19.071   9.450
 4728POPC   PO4 7524  16.731  19.087   9.150
 4728POPC   GL1 7525  16.742  19.080   8.850
 4728POPC   GL2 7526  16.891  19.082   8.850
 4728POPC   C1A 7527  16.746  19.009   8.550
 4728POPC   D2A 7528  16.681  19.102   8.250
 4728POPC   C3A 7529  16.772  19.100   7.950
 4728POPC   C4A 7530  16.719  19.094   7.650
 4728POPC   C1B 7531  17.006  19.095   8.550
 4728POPC   C2B 7532  16.945  19.118   8.250
 4728POPC   C3B 7533  16.954  19.178   7.950
 4728POPC   C4B 7534  16.977  19.164   7.650
 4729POPC   NC3 7535   2.798  12.113   9.450
 4729POPC   PO4 7536   2.729  12.081   9.150
 4729POPC   GL1 7537   2.806  12.103   8.850
 4729POPC   GL2 7538   2.760  11.963   8.850
 4729POPC   C1A 7539   2.756  12.110   8.550
 4729POPC   D2A 7540   2.748  12.045   8.250
 4729POPC   C3A 7541   2.730  12.062   7.950
 4729POPC   C4A 7542   2.808  12.031   7.650
 4729POPC   C1B 7543   2.674  11.819   8.550
 4729POPC   C2B 7544   2.630  11.807   8.250
 4729POPC   C3B 7545   2.627  11.889   7.950
 4729POPC   C4B 7546   2.611  11.844   7.650
 4730POPC   NC3 7547  15.228  38.469   9.450
 4730POPC   PO4 7548  15.141  38.483   9.150
 4730POPC   GL1 7549  15.176  38.425   8.850
 4730POPC   GL2 7550  15.140  38.305   8.850
 4730POPC   C1A 7551  15.224  38.418   8.550
 4730POPC   D2A 7552  15.195  38.427   8.250
 4730POPC   C3A 7553  15.227  38.448   7.950
 4730POPC   C4A 7554  15.212  38.456   7.650
 4730POPC   C1B 7555  15.087  38.186   8.550
 4730POPC   C2B 7556  15.116  38.185   8.250
 4730POPC   C3B 7557  15.108  38.237   7.950
 4730POPC   C4B 7558  15.135  38.212   7.650
 4731POPC   NC3 7559  43.093  19.063   9.450
 4731POPC   PO4 7560  43.100  19.070   9.150
 4731POPC   GL1 7561  43.076  19.089   8.850
 4731POPC   GL2 7562  43.023  19.043   8.850
 4731POPC   C1A 7563  43.151  19.059   8.550
 4731POPC   D2A 7564  43.157  19.060   8.250
 4731POPC   C3A 7565  43.117  19.068   7.950
 4731POPC   C4A 7566  43.095  19.082   7.650
 4731POPC   C1B 7567  42.823  19.066   8.550
 4731POPC   C2B 7568  42.813  19.033   8.250
 4731POPC   C3B 7569  42.905  19.008   7.950
 4731POPC   C4B 7570  42.879  19.087   7.650
 4732POPC   NC3 7571  16.716   9.740   9.450
 4732POPC   PO4 7572  16.717   9.752   9.150
 4732POPC   GL1 7573  16.711   9.748   8.850
 4732POPC   GL2 7574  16.806   9.655   8.850
 4732POPC   C1A 7575  16.768   9.746   8.550
 4732POPC   D2A 7576  16.688   9.726   8.250
 4732POPC   C3A 7577  16.712   9.702   7.950
 4732POPC   C4A 7578  16.756   9.735   7.650
 4732POPC   C1B 7579  16.890   9.591   8.550
 4732POPC   C2B 7580  16.934   9.570   8.250
 4732POPC   C3B 7581  16.909   9.608   7.950
 4732POPC   C4B 7582  16.903   9.586   7.650
 4733POPC   NC3 7583  43.907   8.926   9.450
 4733POPC   PO4 7584  43.855   9.011   9.150
 4733POPC   GL1 7585  43.839   9.011   8.850
 4733POPC   GL2 7586  43.904   8.801   8.850
 4733POPC   C1A 7587  43.912   8.946   8.550
 4733POPC   D2A 7588  43.865   9.019   8.250
 4733POPC   C3A 7589  43.927   8.944   7.950
 4733POPC   C4A 7590  43.908   8.943   7.650
 4733POPC   C1B 7591  43.861   8.684   8.550
 4733POPC   C2B 7592  43.822   8.696   8.250
 4733POPC   C3B 7593  43.917   8.748   7.950
 4733POPC   C4B 7594  43.847   8.745   7.650
 4734POPC   NC3 7595  29.122  36.084   9.450
 4734POPC   PO4 7596  29.121  36.150   9.150
 4734POPC   GL1 7597  29.176  36.166   8.850
 4734POPC   GL2 7598  29.288  36.147   8.850
 4734POPC   C1A 7599  29.128  36.124   8.550
 4734POPC   D2A 7600  29.181  36.146   8.250
 4734POPC   C3A 7601  29.160  36.151   7.950
 4734POPC   C4A 7602  29.151  36.148   7.650
 4734POPC   C1B 7603  29.412  36.176   8.550
 4734POPC   C2B 7604  29.403  36.123   8.250
 4734POPC   C3B 7605  29.417  36.087   7.950
 4734POPC   C4B 7606  29.420  36.127   7.650
 4735POPC   NC3 7607  44.637   8.209   9.450
 4735POPC   PO4 7608  44.709   8.209   9.150
 4735POPC   GL1 7609  44.656   8.186   8.850
 4735POPC   GL2 7610  44.687   8.305   8.850
 4735POPC   C1A 7611  44.662   8.246   8.550
 4735POPC   D2A 7612  44.676   8.188   8.250
 4735POPC   C3A 7613  44.616   8.217   7.950
 4735POPC   C4A 7614  44.709   8.222   7.650
 4735POPC   C1B 7615  44.622   8.451   8.550
 4735POPC   C2B 7616  44.629   8.421   8.250
 4735POPC   C3B 7617  44.649   8.480   7.950
 4735POPC   C4B 7618  44.642   8.474   7.650
 4736POPC   NC3 7619   8.226  32.229   9.450
 4736POPC   PO4 7620   8.156  32.267   9.150
 4736POPC   GL1 7621   8.152  32.214   8.850
 4736POPC   GL2 7622   8.191  32.413   8.850
 4736POPC   C1A 7623   8.244  32.219   8.550
 4736POPC   D2A 7624   8.231  32.208   8.250
 4736POPC   C3A 7625   8.222  32.221   7.950
 4736POPC   C4A 7626   8.193  32.292   7.650
 4736POPC   C1B 7627   8.160  32.471   8.550
 4736POPC   C2B 7628   8.105  32.537   8.250
 4736POPC   C3B 7629   8.153  32.449   7.950
 4736POPC   C4B 7630   8.128  32.534   7.650
 4737POPC   NC3 7631  15.956  32.242   9.450
 4737POPC   PO4 7632  15.957  32.235   9.150
 4737POPC   GL1 7633  15.997  32.287   8.850
 4737POPC   GL2 7634  15.847  32.142   8.850
 4737POPC   C1A 7635  15.909  32.271   8.550
 4737POPC   D2A 7636  15.998  32.253   8.250
 4737POPC   C3A 7637  15.936  32.255   7.950
 4737POPC   C4A 7638  15.964  32.233   7.650
 4737POPC   C1B 7639  15.820  32.009   8.550
 4737POPC   C2B 7640  15.843  32.049   8.250
 4737POPC   C3B 7641  15.774  32.085   7.950
 4737POPC   C4B 7642  15.764  32.038   7.650
 4738POPC   NC3 7643   7.451  19.052   9.450
 4738POPC   PO4 7644   7.433  19.105   9.150
 4738POPC   GL1 7645   7.386  19.080   8.850
 4738POPC   GL2 7646   7.351  19.092   8.850
 4738POPC   C1A 7647   7.462  19.090   8.550
 4738POPC   D2A 7648   7.466  19.036   8.250
 4738POPC   C3A 7649   7.415  19.095   7.950
 4738POPC   C4A 7650   7.458  19.040   7.650
 4738POPC   C1B 7651   7.224  19.211   8.550
 4738POPC   C2B 7652   7.169  19.154   8.250
 4738POPC   C3B 7653   7.193  19.166   7.950
 4738POPC   C4B 7654   7.226  19.159   7.650
 4739POPC   NC3 7655   6.690  18.291   9.450
 4739POPC   PO4 7656   6.612  18.299   9.150
 4739POPC   GL1 7657   6.674  18.294   8.850
 4739POPC   GL2 7658   6.659  18.421   8.850
 4739POPC   C1A 7659   6.623  18.248   8.550
 4739POPC   D2A 7660   6.608  18.255   8.250
 4739POPC   C3A 7661   6.607  18.253   7.950
 4739POPC   C4A 7662   6.668  18.249   7.650
 4739POPC   C1B 7663   6.634  18.498   8.550
 4739POPC   C2B 7664   6.663  18.578   8.250
 4739POPC   C3B 7665   6.634  18.505   7.950
 4739POPC   C4B 7666   6.621  18.573   7.650
 4740POPC   NC3 7667   8.232   8.177   9.450
 4740POPC   PO4 7668   8.214   8.155   9.150
 4740POPC   GL1 7669   8.237   8.181   8.850
 4740POPC   GL2 7670   8.140   8.266   8.850
 4740POPC   C1A 7671   8.232   8.202   8.550
 4740POPC   D2A 7672   8.202   8.173   8.250
 4740POPC   C3A 7673   8.239   8.200   7.950
 4740POPC   C4A 7674   8.238   8.209   7.650
 4740POPC   C1B 7675   8.134   8.397   8.550
 4740POPC   C2B 7676   8.092   8.386   8.250
 4740POPC   C3B 7677   8.141   8.425   7.950
 4740POPC   C4B 7678   8.123   8.412   7.650
 4741POPC   NC3 7679  17.535   1.953   9.450
 4741POPC   PO4 7680  17.508   2.003   9.150
 4741POPC   GL1 7681  17.517   1.943   8.850
 4741POPC   GL2 7682  17.526   1.844   8.850
 4741POPC   C1A 7683  17.460   1.972   8.550
 4741POPC   D2A 7684  17.476   2.025   8.250
 4741POPC   C3A 7685  17.547   1.948   7.950
 4741POPC   C4A 7686  17.493   2.026   7.650
 4741POPC   C1B 7687  17.480   1.783   8.550
 4741POPC   C2B 7688  17.482   1.690   8.250
 4741POPC   C3B 7689  17.517   1.772   7.950
 4741POPC   C4B 7690  17.502   1.763   7.650
 4742POPC   NC3 7691  30.731  23.676   9.450
 4742POPC   PO4 7692  30.714  23.689   9.150
 4742POPC   GL1 7693  30.687  23.722   8.850
 4742POPC   GL2 7694  30.526  23.725   8.850
 4742POPC   C1A 7695  30.728  23.686   8.550
 4742POPC   D2A 7696  30.714  23.667   8.250
 4742POPC   C3A 7697  30.649  23.669   7.950
 4742POPC   C4A 7698  30.696  23.722   7.650
 4742POPC   C1B 7699  30.449  23.748   8.550
 4742POPC   C2B 7700  30.404  23.692   8.250
 4742POPC   C3B 7701  30.497  23.750   7.950
 4742POPC   C4B 7702  30.399  23.736   7.650
 4743POPC   NC3 7703  29.098  28.387   9.450
 4743POPC   PO4 7704  29.153  28.408   9.150
 4743POPC   GL1 7705  29.168  28.402   8.850
 4743POPC   GL2 7706  29.159  28.217   8.850
 4743POPC   C1A 7707  29.171  28.370   8.550
 4743POPC   D2A 7708  29.137  28.387   8.250
 4743POPC   C3A 7709  29.174  28.399   7.950
 4743POPC   C4A 7710  29.168  28.387   7.650
 4743POPC   C1B 7711  29.226  28.117   8.550
 4743POPC   C2B 7712  29.268  28.169   8.250
 4743POPC   C3B 7713  29.231  28.115   7.950
 4743POPC   C4B 7714  29.265  28.182   7.650
 4744POPC   NC3 7715  26.020  17.522   9.450
 4744POPC   PO4 7716  26.025  17.480   9.150
 4744POPC   GL1 7717  26.030  17.460   8.850
 4744POPC   GL2 7718  25.952  17.458   8.850
 4744POPC   C1A 7719  26.029  17.521   8.550
 4744POPC   D2A 7720  26.036  17.486   8.250
 4744POPC   C3A 7721  26.090  17.499   7.950
 4744POPC   C4A 7722  25.992  17.474   7.650
 4744POPC   C1B 7723  25.840  17.360   8.550
 4744POPC   C2B 7724  25.911  17.284   8.250
 4744POPC   C3B 7725  25.876  17.300   7.950
 4744POPC   C4B 7726  25.864  17.309   7.650
 4745POPC   NC3 7727  41.574  18.268   9.450
 4745POPC   PO4 7728  41.606  18.273   9.150
 4745POPC   GL1 7729  41.547  18.268   8.850
 4745POPC   GL2 7730  41.662  18.371   8.850
 4745POPC   C1A 7731  41.549  18.289   8.550
 4745POPC   D2A 7732  41.519  18.286   8.250
 4745POPC   C3A 7733  41.556  18.272   7.950
 4745POPC   C4A 7734  41.532  18.284   7.650
 4745POPC   C1B 7735  41.679  18.431   8.550
 4745POPC   C2B 7736  41.673  18.522   8.250
 4745POPC   C3B 7737  41.733  18.480   7.950
 4745POPC   C4B 7738  41.670  18.457   7.650
 4746POPC   NC3 7739  34.553  30.731   9.450
 4746POPC   PO4 7740  34.583  30.665   9.150
 4746POPC   GL1 7741  34.537  30.650   8.850
 4746POPC   GL2 7742  34.604  30.560   8.850
 4746POPC   C1A 7743  34.608  30.666   8.550
 4746POPC   D2A 7744  34.529  30.674   8.250
 4746POPC   C3A 7745  34.625  30.657   7.950
 4746POPC   C4A 7746  34.570  30.656   7.650
 4746POPC   C1B 7747  34.621  30.451   8.550
 4746POPC   C2B 7748  34.567  30.491   8.250
 4746POPC   C3B 7749  34.579  30.451   7.950
 4746POPC   C4B 7750  34.584  30.411   7.650
 4747POPC   NC3 7751  36.930   1.965   9.450
 4747POPC   PO4 7752  36.916   1.982   9.150
 4747POPC   GL1 7753  36.879   1.985   8.850
 4747POPC   GL2 7754  37.009   2.039   8.850
 4747POPC   C1A 7755  36.855   1.947   8.550
 4747POPC   D2A 7756  36.929   1.971   8.250
 4747POPC   C3A 7757  36.886   1.954   7.950
 4747POPC   C4A 7758  36.952   2.028   7.650
 4747POPC   C1B 7759  37.098   2.093   8.550
 4747POPC   C2B 7760  37.086   2.053   8.250
 4747POPC   C3B 7761  37.113   2.107   7.950
 4747POPC   C4B 7762  37.173   2.054   7.650
 4748POPC   NC3 7763  19.811  15.211   9.450
 4748POPC   PO4 7764  19.790  15.182   9.150
 4748POPC   GL1 7765  19.863  15.141   8.850
 4748POPC   GL2 7766  19.960  15.224   8.850
 4748POPC   C1A 7767  19.786  15.216   8.550
 4748POPC   D2A 7768  19.839  15.133   8.250
 4748POPC   C3A 7769  19.861  15.192   7.950
 4748POPC   C4A 7770  19.840  15.211   7.650
 4748POPC   C1B 7771  20.060  15.321   8.550
 4748POPC   C2B 7772  20.058  15.275   8.250
 4748POPC   C3B 7773  20.062  15.316   7.950
 4748POPC   C4B 7774  20.055  15.358   7.650
 4749POPC   NC3 7775  11.336  16.761   9.450
 4749POPC   PO4 7776  11.350  16.717   9.150
 4749POPC   GL1 7777  11.262  16.741   8.850
 4749POPC   GL2 7778  11.275  16.583   8.850
 4749POPC   C1A 7779  11.302  16.724   8.550
 4749POPC   D2A 7780  11.321  16.729   8.250
 4749POPC   C3A 7781  11.278  16.701   7.950
 4749POPC   C4A 7782  11.296  16.758   7.650
 4749POPC   C1B 7783  11.209  16.450   8.550
 4749POPC   C2B 7784  11.266  16.528   8.250
 4749POPC   C3B 7785  11.242  16.455   7.950
 4749POPC   C4B 7786  11.227  16.513   7.650
 4750POPC   NC3 7787   1.240  43.866   9.450
 4750POPC   PO4 7788   1.213  43.875   9.150
 4750POPC   GL1 7789   1.189  43.855   8.850
 4750POPC   GL2 7790   1.218  43.758   8.850
 4750POPC   C1A 7791   1.165  43.861   8.550
 4750POPC   D2A 7792   1.209  43.856   8.250
 4750POPC   C3A 7793   1.198  43.844   7.950
 4750POPC   C4A 7794   1.195  43.858   7.650
 4750POPC   C1B 7795   1.180  43.639   8.550
 4750POPC   C2B 7796   1.171  43.685   8.250
 4750POPC   C3B 7797   1.221  43.640   7.950
 4750POPC   C4B 7798   1.183  43.675   7.650
 4751POPC   NC3 7799  43.903  26.046   9.450
 4751POPC   PO4 7800  43.851  26.078   9.150
 4751POPC   GL1 7801  43.881  26.023   8.850
 4751POPC   GL2 7802  43.743  26.128   8.850
 4751POPC   C1A 7803  43.933  26.090   8.550
 4751POPC   D2A 7804  43.854  26.018   8.250
 4751POPC   C3A 7805  43.868  26.084   7.950
 4751POPC   C4A 7806  43.874  26.027   7.650
 4751POPC   C1B 7807  43.665  26.208   8.550
 4751POPC   C2B 7808  43.662  26.199   8.250
 4751POPC   C3B 7809  43.719  26.169   7.950
 4751POPC   C4B 7810  43.688  26.156   7.650
 4752POPC   NC3 7811  41.580  10.501   9.450
 4752POPC   PO4 7812  41.592  10.516   9.150
 4752POPC   GL1 7813  41.591  10.515   8.850
 4752POPC   GL2 7814  41.410  10.486   8.850
 4752POPC   C1A 7815  41.564  10.516   8.550
 4752POPC   D2A 7816  41.609  10.491   8.250
 4752POPC   C3A 7817  41.523  10.509   7.950
 4752POPC   C4A 7818  41.533  10.515   7.650
 4752POPC   C1B 7819  41.355  10.383   8.550
 4752POPC   C2B 7820  41.302  10.374   8.250
 4752POPC   C3B 7821  41.334  10.440   7.950
 4752POPC   C4B 7822  41.345  10.421   7.650
 4753POPC   NC3 7823  37.701  26.042   9.450
 4753POPC   PO4 7824  37.635  25.998   9.150
 4753POPC   GL1 7825  37.658  26.022   8.850
 4753POPC   GL2 7826  37.644  25.903   8.850
 4753POPC   C1A 7827  37.705  25.996   8.550
 4753POPC   D2A 7828  37.719  26.063   8.250
 4753POPC   C3A 7829  37.691  25.992   7.950
 4753POPC   C4A 7830  37.721  26.075   7.650
 4753POPC   C1B 7831  37.599  25.804   8.550
 4753POPC   C2B 7832  37.642  25.797   8.250
 4753POPC   C3B 7833  37.616  25.811   7.950
 4753POPC   C4B 7834  37.546  25.772   7.650
 4754POPC   NC3 7835   2.806  24.464   9.450
 4754POPC   PO4 7836   2.800  24.455   9.150
 4754POPC   GL1 7837   2.782  24.527   8.850
 4754POPC   GL2 7838   2.885  24.454   8.850
 4754POPC   C1A 7839   2.745  24.481   8.550
 4754POPC   D2A 7840   2.761  24.500   8.250
 4754POPC   C3A 7841   2.783  24.463   7.950
 4754POPC   C4A 7842   2.743  24.518   7.650
 4754POPC   C1B 7843   3.019  24.487   8.550
 4754POPC   C2B 7844   2.987  24.482   8.250
 4754POPC   C3B 7845   3.021  24.541   7.950
 4754POPC   C4B 7846   3.058  24.487   7.650
 4755POPC   NC3 7847   2.812  38.483   9.450
 4755POPC   PO4 7848   2.795  38.492   9.150
 4755POPC   GL1 7849   2.722  38.471   8.850
 4755POPC   GL2 7850   2.710  38.359   8.850
 4755POPC   C1A 7851   2.740  38.460   8.550
 4755POPC   D2A 7852   2.803  38.420   8.250
 4755POPC   C3A 7853   2.744  38.471   7.950
 4755POPC   C4A 7854   2.794  38.427   7.650
 4755POPC   C1B 7855   2.589  38.229   8.550
 4755POPC   C2B 7856   2.651  38.307   8.250
 4755POPC   C3B 7857   2.607  38.231   7.950
 4755POPC   C4B 7858   2.594  38.215   7.650
 4756POPC   NC3 7859  35.353  26.772   9.450
 4756POPC   PO4 7860  35.369  26.803   9.150
 4756POPC   GL1 7861  35.351  26.840   8.850
 4756POPC   GL2 7862  35.221  26.907   8.850
 4756POPC   C1A 7863  35.304  26.859   8.550
 4756POPC   D2A 7864  35.345  26.865   8.250
 4756POPC   C3A 7865  35.337  26.809   7.950
 4756POPC   C4A 7866  35.381  26.813   7.650
 4756POPC   C1B 7867  35.142  26.897   8.550
 4756POPC   C2B 7868  35.113  26.893   8.250
 4756POPC   C3B 7869  35.115  26.898   7.950
 4756POPC   C4B 7870  35.165  26.895   7.650
 4757POPC   NC3 7871  39.256  42.285   9.450
 4757POPC   PO4 7872  39.260  42.365   9.150
 4757POPC   GL1 7873  39.192  42.373   8.850
 4757POPC   GL2 7874  39.353  42.302   8.850
 4757POPC   C1A 7875  39.232  42.295   8.550
 4757POPC   D2A 7876  39.219  42.349   8.250
 4757POPC   C3A 7877  39.253  42.331   7.950
 4757POPC   C4A 7878  39.261  42.324   7.650
 4757POPC   C1B 7879  39.407  42.257   8.550
 4757POPC   C2B 7880  39.401  42.231   8.250
 4757POPC   C3B 7881  39.476  42.170   7.950
 4757POPC   C4B 7882  39.465  42.172   7.650
 4758POPC   NC3 7883  43.867  15.173   9.450
 4758POPC   PO4 7884  43.896  15.154   9.150
 4758POPC   GL1 7885  43.882  15.170   8.850
 4758POPC   GL2 7886  43.896  15.264   8.850
 4758POPC   C1A 7887  43.916  15.194   8.550
 4758POPC   D2A 7888  43.897  15.188   8.250
 4758POPC   C3A 7889  43.866  15.191   7.950
 4758POPC   C4A 7890  43.896  15.185   7.650
 4758POPC   C1B 7891  43.955  15.381   8.550
 4758POPC   C2B 7892  43.943  15.454   8.250
 4758POPC   C3B 7893  43.969  15.441   7.950
 4758POPC   C4B 7894  43.977  15.439   7.650
 4759POPC   NC3 7895   1.949  13.596   9.450
 4759POPC   PO4 7896   2.014  13.633   9.150
 4759POPC   GL1 7897   1.997  13.633   8.850
 4759POPC   GL2 7898   2.134  13.616   8.850
 4759POPC   C1A 7899   2.019  13.586   8.550
 4759POPC   D2A 7900   2.004  13.645   8.250
 4759POPC   C3A 7901   2.011  13.612   7.950
 4759POPC   C4A 7902   1.980  13.618   7.650
 4759POPC   C1B 7903   2.264  13.583   8.550
 4759POPC   C2B 7904   2.264  13.574   8.250
 4759POPC   C3B 7905   2.271  13.591   7.950
 4759POPC   C4B 7906   2.212  13.555   7.650
 4760POPC   NC3 7907  38.439   4.316   9.450
 4760POPC   PO4 7908  38.406   4.306   9.150
 4760POPC   GL1 7909  38.467   4.331   8.850
 4760POPC   GL2 7910  38.558   4.405   8.850
 4760POPC   C1A 7911  38.451   4.305   8.550
 4760POPC   D2A 7912  38.456   4.322   8.250
 4760POPC   C3A 7913  38.434   4.342   7.950
 4760POPC   C4A 7914  38.408   4.270   7.650
 4760POPC   C1B 7915  38.613   4.552   8.550
 4760POPC   C2B 7916  38.543   4.522   8.250
 4760POPC   C3B 7917  38.611   4.530   7.950
 4760POPC   C4B 7918  38.578   4.558   7.650
 4761POPC   NC3 7919  36.152   5.832   9.450
 4761POPC   PO4 7920  36.152   5.868   9.150
 4761POPC   GL1 7921  36.115   5.908   8.850
 4761POPC   GL2 7922  36.203   5.701   8.850
 4761POPC   C1A 7923  36.166   5.900   8.550
 4761POPC   D2A 7924  36.158   5.911   8.250
 4761POPC   C3A 7925  36.149   5.900   7.950
 4761POPC   C4A 7926  36.134   5.890   7.650
 4761POPC   C1B 7927  36.224   5.606   8.550
 4761POPC   C2B 7928  36.201   5.650   8.250
 4761POPC   C3B 7929  36.202   5.645   7.950
 4761POPC   C4B 7930  36.214   5.616   7.650
 4762POPC   NC3 7931  26.867   5.134   9.450
 4762POPC   PO4 7932  26.808   5.051   9.150
 4762POPC   GL1 7933  26.789   5.050   8.850
 4762POPC   GL2 7934  26.903   4.987   8.850
 4762POPC   C1A 7935  26.809   5.100   8.550
 4762POPC   D2A 7936  26.785   5.051   8.250
 4762POPC   C3A 7937  26.818   5.054   7.950
 4762POPC   C4A 7938  26.844   5.058   7.650
 4762POPC   C1B 7939  27.084   4.971   8.550
 4762POPC   C2B 7940  26.997   4.957   8.250
 4762POPC   C3B 7941  27.045   4.947   7.950
 4762POPC   C4B 7942  27.068   5.008   7.650
 4763POPC   NC3 7943  27.544  42.294   9.450
 4763POPC   PO4 7944  27.628  42.374   9.150
 4763POPC   GL1 7945  27.609  42.343   8.850
 4763POPC   GL2 7946  27.467  42.317   8.850
 4763POPC   C1A 7947  27.627  42.293   8.550
 4763POPC   D2A 7948  27.638  42.330   8.250
 4763POPC   C3A 7949  27.562  42.337   7.950
 4763POPC   C4A 7950  27.600  42.294   7.650
 4763POPC   C1B 7951  27.300  42.387   8.550
 4763POPC   C2B 7952  27.393  42.384   8.250
 4763POPC   C3B 7953  27.377  42.397   7.950
 4763POPC   C4B 7954  27.340  42.370   7.650
 4764POPC   NC3 7955  22.211  18.327   9.450
 4764POPC   PO4 7956  22.117  18.299   9.150
 4764POPC   GL1 7957  22.200  18.254   8.850
 4764POPC   GL2 7958  22.256  18.430   8.850
 4764POPC   C1A 7959  22.192  18.320   8.550
 4764POPC   D2A 7960  22.191  18.328   8.250
 4764POPC   C3A 7961  22.122  18.297   7.950
 4764POPC   C4A 7962  22.174  18.251   7.650
 4764POPC   C1B 7963  22.274  18.490   8.550
 4764POPC   C2B 7964  22.305  18.514   8.250
 4764POPC   C3B 7965  22.330  18.481   7.950
 4764POPC   C4B 7966  22.302  18.534   7.650
 4765POPC   NC3 7967  26.836  41.541   9.450
 4765POPC   PO4 7968  26.811  41.602   9.150
 4765POPC   GL1 7969  26.818  41.512   8.850
 4765POPC   GL2 7970  26.676  41.490   8.850
 4765POPC   C1A 7971  26.815  41.543   8.550
 4765POPC   D2A 7972  26.790  41.588   8.250
 4765POPC   C3A 7973  26.865  41.555   7.950
 4765POPC   C4A 7974  26.776  41.536   7.650
 4765POPC   C1B 7975  26.642  41.423   8.550
 4765POPC   C2B 7976  26.651  41.379   8.250
 4765POPC   C3B 7977  26.663  41.404   7.950
 4765POPC   C4B 7978  26.663  41.380   7.650
 4766POPC   NC3 7979  29.132  11.349   9.450
 4766POPC   PO4 7980  29.187  11.332   9.150
 4766POPC   GL1 7981  29.124  11.291   8.850
 4766POPC   GL2 7982  29.297  11.311   8.850
 4766POPC   C1A 7983  29.146  11.270   8.550
 4766POPC   D2A 7984  29.125  11.292   8.250
 4766POPC   C3A 7985  29.116  11.317   7.950
 4766POPC   C4A 7986  29.178  11.340   7.650
 4766POPC   C1B 7987  29.412  11.291   8.550
 4766POPC   C2B 7988  29.346  11.221   8.250
 4766POPC   C3B 7989  29.401  11.223   7.950
 4766POPC   C4B 7990  29.360  11.268   7.650
 4767POPC   NC3 7991  12.027  44.670   9.450
 4767POPC   PO4 7992  12.071  44.712   9.150
 4767POPC   GL1 7993  12.125  44.695   8.850
 4767POPC   GL2 7994  11.944  44.569   8.850
 4767POPC   C1A 7995  12.048  44.640   8.550
 4767POPC   D2A 7996  12.035  44.645   8.250
 4767POPC   C3A 7997  12.105  44.621   7.950
 4767POPC   C4A 7998  12.068  44.689   7.650
 4767POPC   C1B 7999  11.865  44.564   8.550
 4767POPC   C2B 8000  11.830  44.504   8.250
 4767POPC   C3B 8001  11.849  44.561   7.950
 4767POPC   C4B 8002  11.849  44.533   7.650
 4768POPC   NC3 8003  39.264   2.808   9.450
 4768POPC   PO4 8004  39.214   2.778   9.150
 4768POPC   GL1 8005  39.265   2.763   8.850
 4768POPC   GL2 8006  39.224   2.600   8.850
 4768POPC   C1A 8007  39.226   2.754   8.550
 4768POPC   D2A 8008  39.194   2.742   8.250
 4768POPC   C3A 8009  39.188   2.755   7.950
 4768POPC   C4A 8010  39.264   2.779   7.650
 4768POPC   C1B 8011  39.127   2.486   8.550
 4768POPC   C2B 8012  39.118   2.523   8.250
 4768POPC   C3B 8013  39.159   2.493   7.950
 4768POPC   C4B 8014  39.156   2.497   7.650
 4769POPC   NC3 8015   9.714  22.187   9.450
 4769POPC   PO4 8016   9.798  22.125   9.150
 4769POPC   GL1 8017   9.730  22.146   8.850
 4769POPC   GL2 8018   9.712  22.042   8.850
 4769POPC   C1A 8019   9.727  22.201   8.550
 4769POPC   D2A 8020   9.792  22.198   8.250
 4769POPC   C3A 8021   9.733  22.168   7.950
 4769POPC   C4A 8022   9.738  22.115   7.650
 4769POPC   C1B 8023   9.639  21.874   8.550
 4769POPC   C2B 8024   9.723  21.953   8.250
 4769POPC   C3B 8025   9.649  21.876   7.950
 4769POPC   C4B 8026   9.698  21.914   7.650
 4770POPC   NC3 8027  22.194  36.920   9.450
 4770POPC   PO4 8028  22.179  36.914   9.150
 4770POPC   GL1 8029  22.182  36.871   8.850
 4770POPC   GL2 8030  22.239  36.833   8.850
 4770POPC   C1A 8031  22.160  36.927   8.550
 4770POPC   D2A 8032  22.163  36.870   8.250
 4770POPC   C3A 8033  22.158  36.924   7.950
 4770POPC   C4A 8034  22.124  36.864   7.650
 4770POPC   C1B 8035  22.239  36.675   8.550
 4770POPC   C2B 8036  22.266  36.689   8.250
 4770POPC   C3B 8037  22.243  36.627   7.950
 4770POPC   C4B 8038  22.243  36.633   7.650
 4771POPC   NC3 8039  43.909   9.703   9.450
 4771POPC   PO4 8040  43.852   9.762   9.150
 4771POPC   GL1 8041  43.848   9.737   8.850
 4771POPC   GL2 8042  43.965   9.702   8.850
 4771POPC   C1A 8043  43.898   9.780   8.550
 4771POPC   D2A 8044  43.882   9.719   8.250
 4771POPC   C3A 8045  43.882   9.745   7.950
 4771POPC   C4A 8046  43.892   9.732   7.650
 4771POPC   C1B 8047  44.085   9.545   8.550
 4771POPC   C2B 8048  44.063   9.553   8.250
 4771POPC   C3B 8049  44.077   9.556   7.950
 4771POPC   C4B 8050  44.052   9.599   7.650
 4772POPC   NC3 8051   4.284  12.076   9.450
 4772POPC   PO4 8052   4.354  12.050   9.150
 4772POPC   GL1 8053   4.320  12.100   8.850
 4772POPC   GL2 8054   4.393  12.108   8.850
 4772POPC   C1A 8055   4.275  12.052   8.550
 4772POPC   D2A 8056   4.307  12.042   8.250
 4772POPC   C3A 8057   4.270  12.116   7.950
 4772POPC   C4A 8058   4.322  12.059   7.650
 4772POPC   C1B 8059   4.586  12.088   8.550
 4772POPC   C2B 8060   4.564  12.021   8.250
 4772POPC   C3B 8061   4.571  12.074   7.950
 4772POPC   C4B 8062   4.563  12.078   7.650
 4773POPC   NC3 8063  15.144  41.524   9.450
 4773POPC   PO4 8064  15.195  41.600   9.150
 4773POPC   GL1 8065  15.177  41.607   8.850
 4773POPC   GL2 8066  15.326  41.566   8.850
 4773POPC   C1A 8067  15.191  41.553   8.550
 4773POPC   D2A 8068  15.227  41.512   8.250
 4773POPC   C3A 8069  15.153  41.543   7.950
 4773POPC   C4A 8070  15.171  41.568   7.650
 4773POPC   C1B 8071  15.383  41.646   8.550
 4773POPC   C2B 8072  15.467  41.585   8.250
 4773POPC   C3B 8073  15.414  41.560   7.950
 4773POPC   C4B 8074  15.395  41.639   7.650
 4774POPC   NC3 8075  29.190  16.724   9.450
 4774POPC   PO4 8076  29.097  16.727   9.150
 4774POPC   GL1 8077  29.177  16.729   8.850
 4774POPC   GL2 8078  29.176  16.640   8.850
 4774POPC   C1A 8079  29.096  16.690   8.550
 4774POPC   D2A 8080  29.154  16.715   8.250
 4774POPC   C3A 8081  29.136  16.773   7.950
 4774POPC   C4A 8082  29.105  16.686   7.650
 4774POPC   C1B 8083  29.183  16.495   8.550
 4774POPC   C2B 8084  29.154  16.491   8.250
 4774POPC   C3B 8085  29.220  16.511   7.950
 4774POPC   C4B 8086  29.187  16.501   7.650
 4775POPC   NC3 8087  13.638  16.001   9.450
 4775POPC   PO4 8088  13.634  15.972   9.150
 4775POPC   GL1 8089  13.636  15.962   8.850
 4775POPC   GL2 8090  13.689  15.862   8.850
 4775POPC   C1A 8091  13.630  15.913   8.550
 4775POPC   D2A 8092  13.670  15.906   8.250
 4775POPC   C3A 8093  13.614  15.968   7.950
 4775POPC   C4A 8094  13.603  15.980   7.650
 4775POPC   C1B 8095  13.725  15.778   8.550
 4775POPC   C2B 8096  13.741  15.778   8.250
 4775POPC   C3B 8097  13.704  15.753   7.950
 4775POPC   C4B 8098  13.784  15.700   7.650
 4776POPC   NC3 8099  16.739  18.305   9.450
 4776POPC   PO4 8100  16.698  18.252   9.150
 4776POPC   GL1 8101  16.682  18.280   8.850
 4776POPC   GL2 8102  16.882  18.236   8.850
 4776POPC   C1A 8103  16.748  18.271   8.550
 4776POPC   D2A 8104  16.718  18.274   8.250
 4776POPC   C3A 8105  16.737  18.273   7.950
 4776POPC   C4A 8106  16.733  18.302   7.650
 4776POPC   C1B 8107  16.944  18.253   8.550
 4776POPC   C2B 8108  16.964  18.278   8.250
 4776POPC   C3B 8109  16.966  18.226   7.950
 4776POPC   C4B 8110  16.942  18.241   7.650
 4777POPC   NC3 8111  43.151  40.049   9.450
 4777POPC   PO4 8112  43.079  39.986   9.150
 4777POPC   GL1 8113  43.147  40.035   8.850
 4777POPC   GL2 8114  42.988  40.048   8.850
 4777POPC   C1A 8115  43.096  40.047   8.550
 4777POPC   D2A 8116  43.066  40.016   8.250
 4777POPC   C3A 8117  43.082  40.025   7.950
 4777POPC   C4A 8118  43.061  39.960   7.650
 4777POPC   C1B 8119  42.846  40.002   8.550
 4777POPC   C2B 8120  42.827  40.020   8.250
 4777POPC   C3B 8121  42.861  40.035   7.950
 4777POPC   C4B 8122  42.855  40.007   7.650
 4778POPC   NC3 8123  25.233  30.715   9.450
 4778POPC   PO4 8124  25.296  30.729   9.150
 4778POPC   GL1 8125  25.225  30.736   8.850
 4778POPC   GL2 8126  25.139  30.674   8.850
 4778POPC   C1A 8127  25.315  30.730   8.550
 4778POPC   D2A 8128  25.300  30.731   8.250
 4778POPC   C3A 8129  25.261  30.699   7.950
 4778POPC   C4A 8130  25.237  30.679   7.650
 4778POPC   C1B 8131  25.008  30.737   8.550
 4778POPC   C2B 8132  24.998  30.662   8.250
 4778POPC   C3B 8133  25.035  30.671   7.950
 4778POPC   C4B 8134  25.031  30.709   7.650
 4779POPC   NC3 8135  42.349  30.728   9.450
 4779POPC   PO4 8136  42.322  30.667   9.150
 4779POPC   GL1 8137  42.326  30.668   8.850
 4779POPC   GL2 8138  42.335  30.798   8.850
 4779POPC   C1A 8139  42.309  30.722   8.550
 4779POPC   D2A 8140  42.342  30.651   8.250
 4779POPC   C3A 8141  42.313  30.697   7.950
 4779POPC   C4A 8142  42.312  30.649   7.650
 4779POPC   C1B 8143  42.226  30.929   8.550
 4779POPC   C2B 8144  42.240  30.948   8.250
 4779POPC   C3B 8145  42.291  30.897   7.950
 4779POPC   C4B 8146  42.287  30.935   7.650
 4780POPC   NC3 8147  15.909  15.912   9.450
 4780POPC   PO4 8148  15.949  15.923   9.150
 4780POPC   GL1 8149  15.944  15.979   8.850
 4780POPC   GL2 8150  16.053  15.881   8.850
 4780POPC   C1A 8151  15.912  15.944   8.550
 4780POPC   D2A 8152  15.924  15.948   8.250
 4780POPC   C3A 8153  15.995  16.000   7.950
 4780POPC   C4A 8154  15.932  15.972   7.650
 4780POPC   C1B 8155  16.089  15.756   8.550
 4780POPC   C2B 8156  16.051  15.688   8.250
 4780POPC   C3B 8157  16.069  15.709   7.950
 4780POPC   C4B 8158  16.072  15.738   7.650
 4781POPC   NC3 8159   1.972  15.916   9.450
 4781POPC   PO4 8160   1.981  15.966   9.150
 4781POPC   GL1 8161   1.999  15.967   8.850
 4781POPC   GL2 8162   2.099  16.008   8.850
 4781POPC   C1A 8163   1.974  15.941   8.550
 4781POPC   D2A 8164   1.997  16.005   8.250
 4781POPC   C3A 8165   1.954  15.921   7.950
 4781POPC   C4A 8166   1.997  15.912   7.650
 4781POPC   C1B 8167   2.247  16.117   8.550
 4781POPC   C2B 8168   2.213  16.056   8.250
 4781POPC   C3B 8169   2.221  16.073   7.950
 4781POPC   C4B 8170   2.217  16.035   7.650
 4782POPC   NC3 8171  15.193   1.948   9.450
 4782POPC   PO4 8172  15.166   2.018   9.150
 4782POPC   GL1 8173  15.178   1.965   8.850
 4782POPC   GL2 8174  15.265   2.048   8.850
 4782POPC   C1A 8175  15.226   2.003   8.550
 4782POPC   D2A 8176  15.199   2.006   8.250
 4782POPC   C3A 8177  15.157   2.015   7.950
 4782POPC   C4A 8178  15.192   1.977   7.650
 4782POPC   C1B 8179  15.345   2.178   8.550
 4782POPC   C2B 8180  15.319   2.178   8.250
 4782POPC   C3B 8181  15.347   2.185   7.950
 4782POPC   C4B 8182  15.300   2.141   7.650
 4783POPC   NC3 8183  18.291   0.436   9.450
 4783POPC   PO4 8184  18.249   0.391   9.150
 4783POPC   GL1 8185  18.240   0.403   8.850
 4783POPC   GL2 8186  18.291   0.288   8.850
 4783POPC   C1A 8187  18.243   0.389   8.550
 4783POPC   D2A 8188  18.300   0.389   8.250
 4783POPC   C3A 8189  18.299   0.401   7.950
 4783POPC   C4A 8190  18.315   0.426   7.650
 4783POPC   C1B 8191  18.299   0.182   8.550
 4783POPC   C2B 8192  18.330   0.204   8.250
 4783POPC   C3B 8193  18.256   0.175   7.950
 4783POPC   C4B 8194  18.338   0.173   7.650
 4784POPC   NC3 8195  38.488  40.786   9.450
 4784POPC   PO4 8196  38.456  40.736   9.150
 4784POPC   GL1 8197  38.424  40.799   8.850
 4784POPC   GL2 8198  38.523  40.886   8.850
 4784POPC   C1A 8199  38.463  40.773   8.550
 4784POPC   D2A 8200  38.476  40.778   8.250
 4784POPC   C3A 8201  38.476  40.788   7.950
 4784POPC   C4A 8202  38.465  40.821   7.650
 4784POPC   C1B 8203  38.594  40.994   8.550
 4784POPC   C2B 8204  38.625  41.012   8.250
 4784POPC   C3B 8205  38.588  41.032   7.950
 4784POPC   C4B 8206  38.599  40.967   7.650
 4785POPC   NC3 8207   9.722   7.455   9.450
 4785POPC   PO4 8208   9.731   7.386   9.150
 4785POPC   GL1 8209   9.733   7.441   8.850
 4785POPC   GL2 8210   9.745   7.248   8.850
 4785POPC   C1A 8211   9.714   7.413   8.550
 4785POPC   D2A 8212   9.751   7.451   8.250
 4785POPC   C3A 8213   9.712   7.408   7.950
 4785POPC   C4A 8214   9.700   7.428   7.650
 4785POPC   C1B 8215   9.802   7.143   8.550
 4785POPC   C2B 8216   9.828   7.142   8.250
 4785POPC   C3B 8217   9.825   7.218   7.950
 4785POPC   C4B 8218   9.767   7.133   7.650
 4786POPC   NC3 8219  28.392  36.091   9.450
 4786POPC   PO4 8220  28.391  36.144   9.150
 4786POPC   GL1 8221  28.357  36.098   8.850
 4786POPC   GL2 8222  28.306  36.011   8.850
 4786POPC   C1A 8223  28.381  36.109   8.550
 4786POPC   D2A 8224  28.322  36.086   8.250
 4786POPC   C3A 8225  28.348  36.159   7.950
 4786POPC   C4A 8226  28.342  36.084   7.650
 4786POPC   C1B 8227  28.248  35.936   8.550
 4786POPC   C2B 8228  28.233  35.898   8.250
 4786POPC   C3B 8229  28.313  35.924   7.950
 4786POPC   C4B 8230  28.314  35.946   7.650
 4787POPC   NC3 8231  20.605  37.650   9.450
 4787POPC   PO4 8232  20.621  37.669   9.150
 4787POPC   GL1 8233  20.583  37.647   8.850
 4787POPC   GL2 8234  20.576  37.525   8.850
 4787POPC   C1A 8235  20.635  37.650   8.550
 4787POPC   D2A 8236  20.606  37.659   8.250
 4787POPC   C3A 8237  20.591  37.674   7.950
 4787POPC   C4A 8238  20.630  37.680   7.650
 4787POPC   C1B 8239  20.569  37.402   8.550
 4787POPC   C2B 8240  20.562  37.430   8.250
 4787POPC   C3B 8241  20.577  37.444   7.950
 4787POPC   C4B 8242  20.568  37.395   7.650
 4788POPC   NC3 8243  18.260  26.857   9.450
 4788POPC   PO4 8244  18.300  26.788   9.150
 4788POPC   GL1 8245  18.325  26.798   8.850
 4788POPC   GL2 8246  18.185  26.744   8.850
 4788POPC   C1A 8247  18.239  26.821   8.550
 4788POPC   D2A 8248  18.288  26.827   8.250
 4788POPC   C3A 8249  18.263  26.812   7.950
 4788POPC   C4A 8250  18.321  26.804   7.650
 4788POPC   C1B 8251  18.158  26.556   8.550
 4788POPC   C2B 8252  18.209  26.564   8.250
 4788POPC   C3B 8253  18.157  26.635   7.950
 4788POPC   C4B 8254  18.212  26.546   7.650
 4789POPC   NC3 8255  29.107  33.765   9.450
 4789POPC   PO4 8256  29.120  33.794   9.150
 4789POPC   GL1 8257  29.105  33.829   8.850
 4789POPC   GL2 8258  29.124  33.927   8.850
 4789POPC   C1A 8259  29.165  33.839   8.550
 4789POPC   D2A 8260  29.138  33.809   8.250
 4789POPC   C3A 8261  29.102  33.764   7.950
 4789POPC   C4A 8262  29.168  33.776   7.650
 4789POPC   C1B 8263  29.206  34.092   8.550
 4789POPC   C2B 8264  29.173  33.998   8.250
 4789POPC   C3B 8265  29.204  34.090   7.950
 4789POPC   C4B 8266  29.192  34.041   7.650
 4790POPC   NC3 8267  36.883  39.185   9.450
 4790POPC   PO4 8268  36.856  39.266   9.150
 4790POPC   GL1 8269  36.882  39.219   8.850
 4790POPC   GL2 8270  36.734  39.270   8.850
 4790POPC   C1A 8271  36.947  39.226   8.550
 4790POPC   D2A 8272  36.859  39.212   8.250
 4790POPC   C3A 8273  36.913  39.273   7.950
 4790POPC   C4A 8274  36.910  39.243   7.650
 4790POPC   C1B 8275  36.624  39.212   8.550
 4790POPC   C2B 8276  36.609  39.251   8.250
 4790POPC   C3B 8277  36.619  39.193   7.950
 4790POPC   C4B 8278  36.643  39.192   7.650
 4791POPC   NC3 8279  12.886  44.653   9.450
 4791POPC   PO4 8280  12.829  44.687   9.150
 4791POPC   GL1 8281  12.877  44.614   8.850
 4791POPC   GL2 8282  12.712  44.672   8.850
 4791POPC   C1A 8283  12.886  44.614   8.550
 4791POPC   D2A 8284  12.813  44.704   8.250
 4791POPC   C3A 8285  12.838  44.616   7.950
 4791POPC   C4A 8286  12.897  44.699   7.650
 4791POPC   C1B 8287  12.584  44.745   8.550
 4791POPC   C2B 8288  12.636  44.764   8.250
 4791POPC   C3B 8289  12.626  44.729   7.950
 4791POPC   C4B 8290  12.596  44.801   7.650
 4792POPC   NC3 8291   6.618  26.838   9.450
 4792POPC   PO4 8292   6.597  26.806   9.150
 4792POPC   GL1 8293   6.658  26.861   8.850
 4792POPC   GL2 8294   6.743  26.891   8.850
 4792POPC   C1A 8295   6.608  26.862   8.550
 4792POPC   D2A 8296   6.624  26.822   8.250
 4792POPC   C3A 8297   6.624  26.767   7.950
 4792POPC   C4A 8298   6.607  26.809   7.650
 4792POPC   C1B 8299   6.835  26.985   8.550
 4792POPC   C2B 8300   6.895  26.917   8.250
 4792POPC   C3B 8301   6.882  26.982   7.950
 4792POPC   C4B 8302   6.878  26.924   7.650
 4793POPC   NC3 8303  20.603  39.997   9.450
 4793POPC   PO4 8304  20.601  40.047   9.150
 4793POPC   GL1 8305  20.627  40.007   8.850
 4793POPC   GL2 8306  20.633  40.172   8.850
 4793POPC   C1A 8307  20.577  39.984   8.550
 4793POPC   D2A 8308  20.600  40.019   8.250
 4793POPC   C3A 8309  20.578  39.979   7.950
 4793POPC   C4A 8310  20.633  40.006   7.650
 4793POPC   C1B 8311  20.577  40.239   8.550
 4793POPC   C2B 8312  20.544  40.302   8.250
 4793POPC   C3B 8313  20.562  40.285   7.950
 4793POPC   C4B 8314  20.602  40.294   7.650
 4794POPC   NC3 8315  15.926  39.211   9.450
 4794POPC   PO4 8316  15.983  39.247   9.150
 4794POPC   GL1 8317  15.942  39.279   8.850
 4794POPC   GL2 8318  16.095  39.177   8.850
 4794POPC   C1A 8319  15.955  39.244   8.550
 4794POPC   D2A 8320  15.916  39.233   8.250
 4794POPC   C3A 8321  15.908  39.238   7.950
 4794POPC   C4A 8322  15.936  39.183   7.650
 4794POPC   C1B 8323  16.190  39.124   8.550
 4794POPC   C2B 8324  16.203  39.149   8.250
 4794POPC   C3B 8325  16.210  39.066   7.950
 4794POPC   C4B 8326  16.155  39.074   7.650
 4795POPC   NC3 8327   5.911   8.192   9.450
 4795POPC   PO4 8328   5.900   8.209   9.150
 4795POPC   GL1 8329   5.907   8.155   8.850
 4795POPC   GL2 8330   5.817   8.224   8.850
 4795POPC   C1A 8331   5.918   8.193   8.550
 4795POPC   D2A 8332   5.898   8.178   8.250
 4795POPC   C3A 8333   5.905   8.213   7.950
 4795POPC   C4A 8334   5.867   8.151   7.650
 4795POPC   C1B 8335   5.711   8.381   8.550
 4795POPC   C2B 8336   5.692   8.394   8.250
 4795POPC   C3B 8337   5.702   8.357   7.950
 4795POPC   C4B 8338   5.643   8.313   7.650
 4796POPC   NC3 8339   0.450  15.906   9.450
 4796POPC   PO4 8340   0.407  15.947   9.150
 4796POPC   GL1 8341   0.462  15.947   8.850
 4796POPC   GL2 8342   0.447  15.792   8.850
 4796POPC   C1A 8343   0.419  15.951   8.550
 4796POPC   D2A 8344   0.479  15.936   8.250
 4796POPC   C3A 8345   0.468  15.928   7.950
 4796POPC   C4A 8346   0.450  15.931   7.650
 4796POPC   C1B 8347   0.414  15.727   8.550
 4796POPC   C2B 8348   0.504  15.675   8.250
 4796POPC   C3B 8349   0.431  15.727   7.950
 4796POPC   C4B 8350   0.463  15.720   7.650
 4797POPC   NC3 8351  44.622  27.616   9.450
 4797POPC   PO4 8352  44.633  27.611   9.150
 4797POPC   GL1 8353  44.650  27.597   8.850
 4797POPC   GL2 8354  44.495  27.616   8.850
 4797POPC   C1A 8355  44.623  27.593   8.550
 4797POPC   D2A 8356  44.668  27.553   8.250
 4797POPC   C3A 8357  44.672  27.627   7.950
 4797POPC   C4A 8358  44.686  27.642   7.650
 4797POPC   C1B 8359  44.426  27.641   8.550
 4797POPC   C2B 8360  44.384  27.545   8.250
 4797POPC   C3B 8361  44.379  27.550   7.950
 4797POPC   C4B 8362  44.451  27.545   7.650
 4798POPC   NC3 8363  33.043  21.354   9.450
 4798POPC   PO4 8364  33.056  21.419   9.150
 4798POPC   GL1 8365  33.003  21.383   8.850
 4798POPC   GL2 8366  33.133  21.314   8.850
 4798POPC   C1A 8367  33.055  21.352   8.550
 4798POPC   D2A 8368  33.064  21.356   8.250
 4798POPC   C3A 8369  33.012  21.424   7.950
 4798POPC   C4A 8370  33.067  21.364   7.650
 4798POPC   C1B 8371  33.299  21.352   8.550
 4798POPC   C2B 8372  33.256  21.277   8.250
 4798POPC   C3B 8373  33.266  21.349   7.950
 4798POPC   C4B 8374  33.233  21.313   7.650
 4799POPC   NC3 8375  36.899   5.044   9.450
 4799POPC   PO4 8376  36.899   5.100   9.150
 4799POPC   GL1 8377  36.873   5.076   8.850
 4799POPC   GL2 8378  36.978   5.041   8.850
 4799POPC   C1A 8379  36.884   5.058   8.550
 4799POPC   D2A 8380  36.883   5.128   8.250
 4799POPC   C3A 8381  36.865   5.113   7.950
 4799POPC   C4A 8382  36.886   5.095   7.650
 4799POPC   C1B 8383  37.182   5.031   8.550
 4799POPC   C2B 8384  37.188   5.069   8.250
 4799POPC   C3B 8385  37.136   4.986   7.950
 4799POPC   C4B 8386  37.105   5.035   7.650
 4800POPC   NC3 8387  36.864   7.436   9.450
 4800POPC   PO4 8388  36.926   7.386   9.150
 4800POPC   GL1 8389  36.855   7.425   8.850
 4800POPC   GL2 8390  36.775   7.519   8.850
 4800POPC   C1A 8391  36.907   7.425   8.550
 4800POPC   D2A 8392  36.873   7.377   8.250
 4800POPC   C3A 8393  36.881   7.469   7.950
 4800POPC   C4A 8394  36.903   7.387   7.650
 4800POPC   C1B 8395  36.702   7.569   8.550
 4800POPC   C2B 8396  36.711   7.564   8.250
 4800POPC   C3B 8397  36.706   7.615   7.950
 4800POPC   C4B 8398  36.716   7.588   7.650
 4801POPC   NC3 8399  10.532   2.794   9.450
 4801POPC   PO4 8400  10.564   2.736   9.150
 4801POPC   GL1 8401  10.564   2.793   8.850
 4801POPC   GL2 8402  10.545   2.638   8.850
 4801POPC   C1A 8403  10.553   2.728   8.550
 4801POPC   D2A 8404  10.496   2.811   8.250
 4801POPC   C3A 8405  10.551   2.778   7.950
 4801POPC   C4A 8406  10.544   2.810   7.650
 4801POPC   C1B 8407  10.656   2.524   8.550
 4801POPC   C2B 8408  10.611   2.594   8.250
 4801POPC   C3B 8409  10.639   2.548   7.950
 4801POPC   C4B 8410  10.685   2.548   7.650
 4802POPC   NC3 8411   5.868   9.723   9.450
 4802POPC   PO4 8412   5.859   9.761   9.150
 4802POPC   GL1 8413   5.871   9.740   8.850
 4802POPC   GL2 8414   5.799   9.827   8.850
 4802POPC   C1A 8415   5.916   9.759   8.550
 4802POPC   D2A 8416   5.849   9.770   8.250
 4802POPC   C3A 8417   5.880   9.770   7.950
 4802POPC   C4A 8418   5.889   9.765   7.650
 4802POPC   C1B 8419   5.727   9.915   8.550
 4802POPC   C2B 8420   5.787  10.003   8.250
 4802POPC   C3B 8421   5.743   9.976   7.950
 4802POPC   C4B 8422   5.774   9.928   7.650
 4803POPC   NC3 8423  25.253  28.414   9.450
 4803POPC   PO4 8424  25.307  28.346   9.150
 4803POPC   GL1 8425  25.255  28.350   8.850
 4803POPC   GL2 8426  25.382  28.339   8.850
 4803POPC   C1A 8427  25.219  28.413   8.550
 4803POPC   D2A 8428  25.311  28.395   8.250
 4803POPC   C3A 8429  25.217  28.388   7.950
 4803POPC   C4A 8430  25.300  28.351   7.650
 4803POPC   C1B 8431  25.556  28.362   8.550
 4803POPC   C2B 8432  25.484  28.330   8.250
 4803POPC   C3B 8433  25.553  28.307   7.950
 4803POPC   C4B 8434  25.553  28.330   7.650
 4804POPC   NC3 8435  40.802  30.702   9.450
 4804POPC   PO4 8436  40.739  30.739   9.150
 4804POPC   GL1 8437  40.780  30.666   8.850
 4804POPC   GL2 8438  40.849  30.562   8.850
 4804POPC   C1A 8439  40.774  30.658   8.550
 4804POPC   D2A 8440  40.831  30.718   8.250
 4804POPC   C3A 8441  40.751  30.675   7.950
 4804POPC   C4A 8442  40.812  30.729   7.650
 4804POPC   C1B 8443  40.896  30.508   8.550
 4804POPC   C2B 8444  40.891  30.516   8.250
 4804POPC   C3B 8445  40.913  30.507   7.950
 4804POPC   C4B 8446  40.879  30.456   7.650
 4805POPC   NC3 8447  22.911   6.633   9.450
 4805POPC   PO4 8448  22.909   6.643   9.150
 4805POPC   GL1 8449  22.964   6.660   8.850
 4805POPC   GL2 8450  22.850   6.530   8.850
 4805POPC   C1A 8451  22.938   6.598   8.550
 4805POPC   D2A 8452  22.935   6.659   8.250
 4805POPC   C3A 8453  22.930   6.679   7.950
 4805POPC   C4A 8454  22.925   6.662   7.650
 4805POPC   C1B 8455  22.814   6.483   8.550
 4805POPC   C2B 8456  22.758   6.484   8.250
 4805POPC   C3B 8457  22.717   6.500   7.950
 4805POPC   C4B 8458  22.747   6.474   7.650
 4806POPC   NC3 8459  16.763   4.318   9.450
 4806POPC   PO4 8460  16.731   4.354   9.150
 4806POPC   GL1 8461  16.683   4.334   8.850
 4806POPC   GL2 8462  16.632   4.407   8.850
 4806POPC   C1A 8463  16.689   4.288   8.550
 4806POPC   D2A 8464  16.765   4.362   8.250
 4806POPC   C3A 8465  16.760   4.302   7.950
 4806POPC   C4A 8466  16.749   4.328   7.650
 4806POPC   C1B 8467  16.501   4.481   8.550
 4806POPC   C2B 8468  16.550   4.515   8.250
 4806POPC   C3B 8469  16.530   4.450   7.950
 4806POPC   C4B 8470  16.557   4.487   7.650
 4807POPC   NC3 8471  11.303  20.606   9.450
 4807POPC   PO4 8472  11.309  20.624   9.150
 4807POPC   GL1 8473  11.288  20.580   8.850
 4807POPC   GL2 8474  11.205  20.737   8.850
 4807POPC   C1A 8475  11.274  20.619   8.550
 4807POPC   D2A 8476  11.266  20.632   8.250
 4807POPC   C3A 8477  11.305  20.582   7.950
 4807POPC   C4A 8478  11.321  20.645   7.650
 4807POPC   C1B 8479  11.104  20.735   8.550
 4807POPC   C2B 8480  11.101  20.825   8.250
 4807POPC   C3B 8481  11.089  20.798   7.950
 4807POPC   C4B 8482  11.132  20.739   7.650
 4808POPC   NC3 8483  19.799   6.638   9.450
 4808POPC   PO4 8484  19.873   6.636   9.150
 4808POPC   GL1 8485  19.876   6.612   8.850
 4808POPC   GL2 8486  19.777   6.763   8.850
 4808POPC   C1A 8487  19.874   6.612   8.550
 4808POPC   D2A 8488  19.853   6.652   8.250
 4808POPC   C3A 8489  19.792   6.666   7.950
 4808POPC   C4A 8490  19.858   6.622   7.650
 4808POPC   C1B 8491  19.767   6.868   8.550
 4808POPC   C2B 8492  19.812   6.878   8.250
 4808POPC   C3B 8493  19.792   6.892   7.950
 4808POPC   C4B 8494  19.824   6.918   7.650
 4809POPC   NC3 8495  22.959  26.833   9.450
 4809POPC   PO4 8496  22.936  26.832   9.150
 4809POPC   GL1 8497  22.928  26.778   8.850
 4809POPC   GL2 8498  22.828  26.923   8.850
 4809POPC   C1A 8499  22.898  26.768   8.550
 4809POPC   D2A 8500  22.928  26.787   8.250
 4809POPC   C3A 8501  22.985  26.800   7.950
 4809POPC   C4A 8502  22.943  26.799   7.650
 4809POPC   C1B 8503  22.780  26.985   8.550
 4809POPC   C2B 8504  22.730  27.020   8.250
 4809POPC   C3B 8505  22.709  26.990   7.950
 4809POPC   C4B 8506  22.738  26.958   7.650
 4810POPC   NC3 8507  41.608  31.468   9.450
 4810POPC   PO4 8508  41.600  31.514   9.150
 4810POPC   GL1 8509  41.572  31.482   8.850
 4810POPC   GL2 8510  41.633  31.506   8.850
 4810POPC   C1A 8511  41.606  31.514   8.550
 4810POPC   D2A 8512  41.567  31.476   8.250
 4810POPC   C3A 8513  41.587  31.470   7.950
 4810POPC   C4A 8514  41.514  31.441   7.650
 4810POPC   C1B 8515  41.825  31.631   8.550
 4810POPC   C2B 8516  41.731  31.600   8.250
 4810POPC   C3B 8517  41.813  31.552   7.950
 4810POPC   C4B 8518  41.789  31.606   7.650
 4811POPC   NC3 8519  22.185   4.348   9.450
 4811POPC   PO4 8520  22.198   4.356   9.150
 4811POPC   GL1 8521  22.173   4.286   8.850
 4811POPC   GL2 8522  22.230   4.270   8.850
 4811POPC   C1A 8523  22.191   4.289   8.550
 4811POPC   D2A 8524  22.186   4.352   8.250
 4811POPC   C3A 8525  22.123   4.292   7.950
 4811POPC   C4A 8526  22.176   4.351   7.650
 4811POPC   C1B 8527  22.356   4.136   8.550
 4811POPC   C2B 8528  22.380   4.199   8.250
 4811POPC   C3B 8529  22.368   4.141   7.950
 4811POPC   C4B 8530  22.335   4.106   7.650
 4812POPC   NC3 8531  36.160  13.647   9.450
 4812POPC   PO4 8532  36.127  13.666   9.150
 4812POPC   GL1 8533  36.150  13.614   8.850
 4812POPC   GL2 8534  36.108  13.717   8.850
 4812POPC   C1A 8535  36.141  13.608   8.550
 4812POPC   D2A 8536  36.102  13.651   8.250
 4812POPC   C3A 8537  36.130  13.630   7.950
 4812POPC   C4A 8538  36.155  13.627   7.650
 4812POPC   C1B 8539  36.120  13.901   8.550
 4812POPC   C2B 8540  36.131  13.883   8.250
 4812POPC   C3B 8541  36.079  13.860   7.950
 4812POPC   C4B 8542  36.116  13.911   7.650
 4813POPC   NC3 8543  40.054   1.964   9.450
 4813POPC   PO4 8544  39.966   1.971   9.150
 4813POPC   GL1 8545  40.039   2.004   8.850
 4813POPC   GL2 8546  40.043   1.925   8.850
 4813POPC   C1A 8547  39.964   2.012   8.550
 4813POPC   D2A 8548  39.985   2.011   8.250
 4813POPC   C3A 8549  39.993   1.977   7.950
 4813POPC   C4A 8550  39.990   2.002   7.650
 4813POPC   C1B 8551  40.101   1.785   8.550
 4813POPC   C2B 8552  40.082   1.757   8.250
 4813POPC   C3B 8553  40.074   1.756   7.950
 4813POPC   C4B 8554  40.150   1.741   7.650
 4814POPC   NC3 8555  21.434  13.676   9.450
 4814POPC   PO4 8556  21.382  13.599   9.150
 4814POPC   GL1 8557  21.389  13.641   8.850
 4814POPC   GL2 8558  21.416  13.537   8.850
 4814POPC   C1A 8559  21.343  13.610   8.550
 4814POPC   D2A 8560  21.350  13.659   8.250
 4814POPC   C3A 8561  21.350  13.603   7.950
 4814POPC   C4A 8562  21.341  13.623   7.650
 4814POPC   C1B 8563  21.455  13.393   8.550
 4814POPC   C2B 8564  21.445  13.429   8.250
 4814POPC   C3B 8565  21.434  13.419   7.950
 4814POPC   C4B 8566  21.457  13.347   7.650
 4815POPC   NC3 8567  21.419   8.238   9.450
 4815POPC   PO4 8568  21.375   8.228   9.150
 4815POPC   GL1 8569  21.427   8.174   8.850
 4815POPC   GL2 8570  21.420   8.090   8.850
 4815POPC   C1A 8571  21.338   8.235   8.550
 4815POPC   D2A 8572  21.342   8.177   8.250
 4815POPC   C3A 8573  21.363   8.196   7.950
 4815POPC   C4A 8574  21.361   8.196   7.650
 4815POPC   C1B 8575  21.602   7.994   8.550
 4815POPC   C2B 8576  21.577   7.983   8.250
 4815POPC   C3B 8577  21.511   7.968   7.950
 4815POPC   C4B 8578  21.563   7.984   7.650
 4816POPC   NC3 8579   1.170  14.439   9.450
 4816POPC   PO4 8580   1.262  14.365   9.150
 4816POPC   GL1 8581   1.180  14.416   8.850
 4816POPC   GL2 8582   1.167  14.493   8.850
 4816POPC   C1A 8583   1.244  14.418   8.550
 4816POPC   D2A 8584   1.188  14.421   8.250
 4816POPC   C3A 8585   1.200  14.384   7.950
 4816POPC   C4A 8586   1.255  14.423   7.650
 4816POPC   C1B 8587   1.074  14.625   8.550
 4816POPC   C2B 8588   1.069  14.634   8.250
 4816POPC   C3B 8589   1.088  14.624   7.950
 4816POPC   C4B 8590   1.041  14.578   7.650
 4817POPC   NC3 8591  38.467   7.417   9.450
 4817POPC   PO4 8592  38.469   7.413   9.150
 4817POPC   GL1 8593  38.408   7.468   8.850
 4817POPC   GL2 8594  38.322   7.494   8.850
 4817POPC   C1A 8595  38.456   7.420   8.550
 4817POPC   D2A 8596  38.416   7.412   8.250
 4817POPC   C3A 8597  38.488   7.467   7.950
 4817POPC   C4A 8598  38.500   7.418   7.650
 4817POPC   C1B 8599  38.290   7.644   8.550
 4817POPC   C2B 8600  38.315   7.580   8.250
 4817POPC   C3B 8601  38.312   7.631   7.950
 4817POPC   C4B 8602  38.316   7.557   7.650
 4818POPC   NC3 8603  18.263  39.975   9.450
 4818POPC   PO4 8604  18.233  40.003   9.150
 4818POPC   GL1 8605  18.241  40.035   8.850
 4818POPC   GL2 8606  18.448  39.974   8.850
 4818POPC   C1A 8607  18.249  40.012   8.550
 4818POPC   D2A 8608  18.312  40.039   8.250
 4818POPC   C3A 8609  18.267  40.023   7.950
 4818POPC   C4A 8610  18.236  39.966   7.650
 4818POPC   C1B 8611  18.528  39.920   8.550
 4818POPC   C2B 8612  18.476  39.921   8.250
 4818POPC   C3B 8613  18.472  39.946   7.950
 4818POPC   C4B 8614  18.507  39.930   7.650
 4819POPC   NC3 8615   8.976  22.983   9.450
 4819POPC   PO4 8616   8.968  22.956   9.150
 4819POPC   GL1 8617   8.979  22.908   8.850
 4819POPC   GL2 8618   9.037  23.054   8.850
 4819POPC   C1A 8619   8.996  22.932   8.550
 4819POPC   D2A 8620   8.965  22.986   8.250
 4819POPC   C3A 8621   8.940  22.945   7.950
 4819POPC   C4A 8622   8.931  22.897   7.650
 4819POPC   C1B 8623   9.058  23.154   8.550
 4819POPC   C2B 8624   9.066  23.179   8.250
 4819POPC   C3B 8625   9.022  23.171   7.950
 4819POPC   C4B 8626   9.055  23.219   7.650
 4820POPC   NC3 8627  35.359  26.003   9.450
 4820POPC   PO4 8628  35.394  26.034   9.150
 4820POPC   GL1 8629  35.388  26.005   8.850
 4820POPC   GL2 8630  35.426  25.962   8.850
 4820POPC   C1A 8631  35.348  26.007   8.550
 4820POPC   D2A 8632  35.362  26.089   8.250
 4820POPC   C3A 8633  35.348  26.066   7.950
 4820POPC   C4A 8634  35.342  26.057   7.650
 4820POPC   C1B 8635  35.536  25.918   8.550
 4820POPC   C2B 8636  35.562  25.910   8.250
 4820POPC   C3B 8637  35.530  25.927   7.950
 4820POPC   C4B 8638  35.590  25.938   7.650
 4821POPC   NC3 8639   3.578   0.473   9.450
 4821POPC   PO4 8640   3.522   0.469   9.150
 4821POPC   GL1 8641   3.535   0.407   8.850
 4821POPC   GL2 8642   3.635   0.334   8.850
 4821POPC   C1A 8643   3.564   0.452   8.550
 4821POPC   D2A 8644   3.589   0.473   8.250
 4821POPC   C3A 8645   3.576   0.403   7.950
 4821POPC   C4A 8646   3.526   0.487   7.650
 4821POPC   C1B 8647   3.715   0.271   8.550
 4821POPC   C2B 8648   3.734   0.239   8.250
 4821POPC   C3B 8649   3.697   0.282   7.950
 4821POPC   C4B 8650   3.723   0.232   7.650
 4822POPC   NC3 8651   2.015   5.092   9.450
 4822POPC   PO4 8652   1.965   5.123   9.150
 4822POPC   GL1 8653   2.012   5.143   8.850
 4822POPC   GL2 8654   2.158   5.129   8.850
 4822POPC   C1A 8655   2.016   5.096   8.550
 4822POPC   D2A 8656   2.032   5.094   8.250
 4822POPC   C3A 8657   1.956   5.093   7.950
 4822POPC   C4A 8658   1.965   5.115   7.650
 4822POPC   C1B 8659   2.251   5.150   8.550
 4822POPC   C2B 8660   2.214   5.109   8.250
 4822POPC   C3B 8661   2.273   5.149   7.950
 4822POPC   C4B 8662   2.235   5.111   7.650
 4823POPC   NC3 8663  25.297  36.863   9.450
 4823POPC   PO4 8664  25.219  36.905   9.150
 4823POPC   GL1 8665  25.291  36.883   8.850
 4823POPC   GL2 8666  25.378  36.923   8.850
 4823POPC   C1A 8667  25.232  36.870   8.550
 4823POPC   D2A 8668  25.265  36.911   8.250
 4823POPC   C3A 8669  25.216  36.899   7.950
 4823POPC   C4A 8670  25.299  36.880   7.650
 4823POPC   C1B 8671  25.512  36.916   8.550
 4823POPC   C2B 8672  25.494  36.933   8.250
 4823POPC   C3B 8673  25.475  36.866   7.950
 4823POPC   C4B 8674  25.554  36.939   7.650
 4824POPC   NC3 8675  41.558  12.049   9.450
 4824POPC   PO4 8676  41.596  12.105   9.150
 4824POPC   GL1 8677  41.579  12.046   8.850
 4824POPC   GL2 8678  41.535  11.926   8.850
 4824POPC   C1A 8679  41.559  12.034   8.550
 4824POPC   D2A 8680  41.532  12.039   8.250
 4824POPC   C3A 8681  41.536  12.054   7.950
 4824POPC   C4A 8682  41.509  12.113   7.650
 4824POPC   C1B 8683  41.633  11.844   8.550
 4824POPC   C2B 8684  41.630  11.865   8.250
 4824POPC   C3B 8685  41.612  11.800   7.950
 4824POPC   C4B 8686  41.581  11.800   7.650
 4825POPC   NC3 8687  32.277   1.965   9.450
 4825POPC   PO4 8688  32.248   2.020   9.150
 4825POPC   GL1 8689  32.295   1.971   8.850
 4825POPC   GL2 8690  32.107   1.987   8.850
 4825POPC   C1A 8691  32.266   1.940   8.550
 4825POPC   D2A 8692  32.273   2.013   8.250
 4825POPC   C3A 8693  32.266   2.039   7.950
 4825POPC   C4A 8694  32.241   2.011   7.650
 4825POPC   C1B 8695  32.054   1.943   8.550
 4825POPC   C2B 8696  32.051   1.903   8.250
 4825POPC   C3B 8697  31.965   1.858   7.950
 4825POPC   C4B 8698  31.976   1.871   7.650
 4826POPC   NC3 8699  36.097  42.382   9.450
 4826POPC   PO4 8700  36.143  42.333   9.150
 4826POPC   GL1 8701  36.095  42.285   8.850
 4826POPC   GL2 8702  36.159  42.258   8.850
 4826POPC   C1A 8703  36.118  42.287   8.550
 4826POPC   D2A 8704  36.177  42.336   8.250
 4826POPC   C3A 8705  36.139  42.289   7.950
 4826POPC   C4A 8706  36.137  42.333   7.650
 4826POPC   C1B 8707  36.207  42.093   8.550
 4826POPC   C2B 8708  36.179  42.106   8.250
 4826POPC   C3B 8709  36.222  42.134   7.950
 4826POPC   C4B 8710  36.257  42.075   7.650
 4827POPC   NC3 8711  18.321   2.804   9.450
 4827POPC   PO4 8712  18.329   2.728   9.150
 4827POPC   GL1 8713  18.241   2.747   8.850
 4827POPC   GL2 8714  18.179   2.767   8.850
 4827POPC   C1A 8715  18.286   2.786   8.550
 4827POPC   D2A 8716  18.291   2.793   8.250
 4827POPC   C3A 8717  18.280   2.751   7.950
 4827POPC   C4A 8718  18.285   2.804   7.650
 4827POPC   C1B 8719  18.090   2.807   8.550
 4827POPC   C2B 8720  18.041   2.817   8.250
 4827POPC   C3B 8721  18.002   2.884   7.950
 4827POPC   C4B 8722  18.047   2.890   7.650
 4828POPC   NC3 8723  40.740  20.640   9.450
 4828POPC   PO4 8724  40.786  20.640   9.150
 4828POPC   GL1 8725  40.815  20.612   8.850
 4828POPC   GL2 8726  40.652  20.492   8.850
 4828POPC   C1A 8727  40.754  20.567   8.550
 4828POPC   D2A 8728  40.751  20.568   8.250
 4828POPC   C3A 8729  40.820  20.607   7.950
 4828POPC   C4A 8730  40.783  20.570   7.650
 4828POPC   C1B 8731  40.594  20.419   8.550
 4828POPC   C2B 8732  40.600  20.401   8.250
 4828POPC   C3B 8733  40.630  20.454   7.950
 4828POPC   C4B 8734  40.596  20.474   7.650
 4829POPC   NC3 8735  22.152  17.530   9.450
 4829POPC   PO4 8736  22.188  17.549   9.150
 4829POPC   GL1 8737  22.151  17.519   8.850
 4829POPC   GL2 8738  22.106  17.596   8.850
 4829POPC   C1A 8739  22.203  17.556   8.550
 4829POPC   D2A 8740  22.157  17.546   8.250
 4829POPC   C3A 8741  22.195  17.554   7.950
 4829POPC   C4A 8742  22.161  17.496   7.650
 4829POPC   C1B 8743  22.019  17.697   8.550
 4829POPC   C2B 8744  21.923  17.716   8.250
 4829POPC   C3B 8745  21.957  17.645   7.950
 4829POPC   C4B 8746  21.968  17.680   7.650
 4830POPC   NC3 8747  38.428   2.765   9.450
 4830POPC   PO4 8748  38.425   2.729   9.150
 4830POPC   GL1 8749  38.470   2.722   8.850
 4830POPC   GL2 8750  38.436   2.889   8.850
 4830POPC   C1A 8751  38.487   2.747   8.550
 4830POPC   D2A 8752  38.449   2.745   8.250
 4830POPC   C3A 8753  38.475   2.779   7.950
 4830POPC   C4A 8754  38.441   2.803   7.650
 4830POPC   C1B 8755  38.365   3.016   8.550
 4830POPC   C2B 8756  38.382   3.040   8.250
 4830POPC   C3B 8757  38.387   2.985   7.950
 4830POPC   C4B 8758  38.400   3.032   7.650
 4831POPC   NC3 8759  19.036  15.978   9.450
 4831POPC   PO4 8760  19.067  15.986   9.150
 4831POPC   GL1 8761  19.030  16.004   8.850
 4831POPC   GL2 8762  18.967  16.083   8.850
 4831POPC   C1A 8763  19.061  15.933   8.550
 4831POPC   D2A 8764  19.026  15.929   8.250
 4831POPC   C3A 8765  19.046  15.997   7.950
 4831POPC   C4A 8766  19.070  16.004   7.650
 4831POPC   C1B 8767  18.867  16.103   8.550
 4831POPC   C2B 8768  18.815  16.159   8.250
 4831POPC   C3B 8769  18.897  16.101   7.950
 4831POPC   C4B 8770  18.843  16.072   7.650
 4832POPC   NC3 8771  44.617  23.673   9.450
 4832POPC   PO4 8772  44.672  23.680   9.150
 4832POPC   GL1 8773  44.646  23.760   8.850
 4832POPC   GL2 8774  44.697  23.766   8.850
 4832POPC   C1A 8775  44.685  23.722   8.550
 4832POPC   D2A 8776  44.646  23.748   8.250
 4832POPC   C3A 8777  44.674  23.696   7.950
 4832POPC   C4A 8778  44.618  23.740   7.650
 4832POPC   C1B 8779  44.806  23.940   8.550
 4832POPC   C2B 8780  44.829  23.880   8.250
 4832POPC   C3B 8781  44.779  23.909   7.950
 4832POPC   C4B 8782  44.822  23.907   7.650
 4833POPC   NC3 8783   9.022  23.750   9.450
 4833POPC   PO4 8784   8.950  23.740   9.150
 4833POPC   GL1 8785   8.940  23.754   8.850
 4833POPC   GL2 8786   8.985  23.821   8.850
 4833POPC   C1A 8787   8.935  23.705   8.550
 4833POPC   D2A 8788   8.926  23.693   8.250
 4833POPC   C3A 8789   8.967  23.671   7.950
 4833POPC   C4A 8790   8.940  23.679   7.650
 4833POPC   C1B 8791   8.977  23.926   8.550
 4833POPC   C2B 8792   8.972  23.987   8.250
 4833POPC   C3B 8793   8.895  23.913   7.950
 4833POPC   C4B 8794   8.936  23.920   7.650
 4834POPC   NC3 8795  32.975  20.566   9.450
 4834POPC   PO4 8796  33.073  20.582   9.150
 4834POPC   GL1 8797  32.979  20.610   8.850
 4834POPC   GL2 8798  32.878  20.585   8.850
 4834POPC   C1A 8799  33.058  20.562   8.550
 4834POPC   D2A 8800  33.072  20.568   8.250
 4834POPC   C3A 8801  33.033  20.627   7.950
 4834POPC   C4A 8802  33.047  20.576   7.650
 4834POPC   C1B 8803  32.841  20.502   8.550
 4834POPC   C2B 8804  32.788  20.445   8.250
 4834POPC   C3B 8805  32.794  20.470   7.950
 4834POPC   C4B 8806  32.801  20.446   7.650
 4835POPC   NC3 8807  32.288  23.725   9.450
 4835POPC   PO4 8808  32.241  23.735   9.150
 4835POPC   GL1 8809  32.230  23.691   8.850
 4835POPC   GL2 8810  32.179  23.615   8.850
 4835POPC   C1A 8811  32.256  23.677   8.550
 4835POPC   D2A 8812  32.287  23.681   8.250
 4835POPC   C3A 8813  32.240  23.751   7.950
 4835POPC   C4A 8814  32.265  23.755   7.650
 4835POPC   C1B 8815  32.062  23.533   8.550
 4835POPC   C2B 8816  32.065  23.584   8.250
 4835POPC   C3B 8817  32.093  23.521   7.950
 4835POPC   C4B 8818  32.052  23.522   7.650
 4836POPC   NC3 8819  26.854   2.777   9.450
 4836POPC   PO4 8820  26.865   2.801   9.150
 4836POPC   GL1 8821  26.833   2.719   8.850
 4836POPC   GL2 8822  26.990   2.696   8.850
 4836POPC   C1A 8823  26.799   2.796   8.550
 4836POPC   D2A 8824  26.793   2.716   8.250
 4836POPC   C3A 8825  26.803   2.788   7.950
 4836POPC   C4A 8826  26.801   2.721   7.650
 4836POPC   C1B 8827  27.086   2.718   8.550
 4836POPC   C2B 8828  27.013   2.745   8.250
 4836POPC   C3B 8829  27.090   2.676   7.950
 4836POPC   C4B 8830  27.069   2.722   7.650
 4837POPC   NC3 8831   1.243  31.446   9.450
 4837POPC   PO4 8832   1.206  31.489   9.150
 4837POPC   GL1 8833   1.249  31.467   8.850
 4837POPC   GL2 8834   1.042  31.488   8.850
 4837POPC   C1A 8835   1.244  31.445   8.550
 4837POPC   D2A 8836   1.166  31.456   8.250
 4837POPC   C3A 8837   1.207  31.450   7.950
 4837POPC   C4A 8838   1.178  31.439   7.650
 4837POPC   C1B 8839   0.980  31.447   8.550
 4837POPC   C2B 8840   0.949  31.441   8.250
 4837POPC   C3B 8841   0.973  31.457   7.950
 4837POPC   C4B 8842   0.973  31.445   7.650
 4838POPC   NC3 8843  44.650  19.080   9.450
 4838POPC   PO4 8844  44.621  19.058   9.150
 4838POPC   GL1 8845  44.658  19.052   8.850
 4838POPC   GL2 8846  44.794  19.012   8.850
 4838POPC   C1A 8847  44.673  19.051   8.550
 4838POPC   D2A 8848  44.645  19.037   8.250
 4838POPC   C3A 8849  44.629  19.043   7.950
 4838POPC   C4A 8850  44.642  19.065   7.650
 4838POPC   C1B 8851  44.887  18.879   8.550
 4838POPC   C2B 8852  44.851  18.867   8.250
 4838POPC   C3B 8853  44.891  18.884   7.950
 4838POPC   C4B 8854  44.903  18.912   7.650
 4839POPC   NC3 8855  15.930  33.766   9.450
 4839POPC   PO4 8856  15.970  33.770   9.150
 4839POPC   GL1 8857  15.923  33.768   8.850
 4839POPC   GL2 8858  15.961  33.902   8.850
 4839POPC   C1A 8859  15.912  33.834   8.550
 4839POPC   D2A 8860  15.910  33.841   8.250
 4839POPC   C3A 8861  15.948  33.832   7.950
 4839POPC   C4A 8862  15.935  33.793   7.650
 4839POPC   C1B 8863  16.038  34.080   8.550
 4839POPC   C2B 8864  16.071  34.036   8.250
 4839POPC   C3B 8865  16.037  34.025   7.950
 4839POPC   C4B 8866  16.067  33.985   7.650
 4840POPC   NC3 8867  22.964  23.675   9.450
 4840POPC   PO4 8868  22.964  23.716   9.150
 4840POPC   GL1 8869  22.958  23.717   8.850
 4840POPC   GL2 8870  23.050  23.667   8.850
 4840POPC   C1A 8871  22.907  23.718   8.550
 4840POPC   D2A 8872  22.919  23.672   8.250
 4840POPC   C3A 8873  22.899  23.757   7.950
 4840POPC   C4A 8874  22.985  23.737   7.650
 4840POPC   C1B 8875  23.167  23.705   8.550
 4840POPC   C2B 8876  23.203  23.662   8.250
 4840POPC   C3B 8877  23.235  23.673   7.950
 4840POPC   C4B 8878  23.184  23.686   7.650
 4841POPC   NC3 8879  43.920   8.161   9.450
 4841POPC   PO4 8880  43.872   8.232   9.150
 4841POPC   GL1 8881  43.841   8.217   8.850
 4841POPC   GL2 8882  43.804   8.178   8.850
 4841POPC   C1A 8883  43.926   8.245   8.550
 4841POPC   D2A 8884  43.895   8.236   8.250
 4841POPC   C3A 8885  43.933   8.205   7.950
 4841POPC   C4A 8886  43.853   8.225   7.650
 4841POPC   C1B 8887  43.635   8.083   8.550
 4841POPC   C2B 8888  43.684   8.136   8.250
 4841POPC   C3B 8889  43.643   8.097   7.950
 4841POPC   C4B 8890  43.678   8.148   7.650
 4842POPC   NC3 8891  14.450  27.623   9.450
 4842POPC   PO4 8892  14.366  27.554   9.150
 4842POPC   GL1 8893  14.380  27.546   8.850
 4842POPC   GL2 8894  14.307  27.516   8.850
 4842POPC   C1A 8895  14.415  27.625   8.550
 4842POPC   D2A 8896  14.404  27.556   8.250
 4842POPC   C3A 8897  14.433  27.562   7.950
 4842POPC   C4A 8898  14.369  27.608   7.650
 4842POPC   C1B 8899  14.182  27.426   8.550
 4842POPC   C2B 8900  14.248  27.485   8.250
 4842POPC   C3B 8901  14.249  27.428   7.950
 4842POPC   C4B 8902  14.164  27.408   7.650
 4843POPC   NC3 8903  21.430  40.743   9.450
 4843POPC   PO4 8904  21.374  40.752   9.150
 4843POPC   GL1 8905  21.384  40.809   8.850
 4843POPC   GL2 8906  21.529  40.771   8.850
 4843POPC   C1A 8907  21.375  40.832   8.550
 4843POPC   D2A 8908  21.432  40.807   8.250
 4843POPC   C3A 8909  21.429  40.793   7.950
 4843POPC   C4A 8910  21.408  40.741   7.650
 4843POPC   C1B 8911  21.586  40.814   8.550
 4843POPC   C2B 8912  21.672  40.825   8.250
 4843POPC   C3B 8913  21.596  40.840   7.950
 4843POPC   C4B 8914  21.637  40.851   7.650
 4844POPC   NC3 8915   4.308  11.345   9.450
 4844POPC   PO4 8916   4.332  11.252   9.150
 4844POPC   GL1 8917   4.294  11.260   8.850
 4844POPC   GL2 8918   4.471  11.243   8.850
 4844POPC   C1A 8919   4.335  11.335   8.550
 4844POPC   D2A 8920   4.353  11.257   8.250
 4844POPC   C3A 8921   4.336  11.269   7.950
 4844POPC   C4A 8922   4.289  11.334   7.650
 4844POPC   C1B 8923   4.554  11.248   8.550
 4844POPC   C2B 8924   4.548  11.214   8.250
 4844POPC   C3B 8925   4.561  11.219   7.950
 4844POPC   C4B 8926   4.539  11.207   7.650
 4845POPC   NC3 8927  32.996  15.185   9.450
 4845POPC   PO4 8928  33.072  15.226   9.150
 4845POPC   GL1 8929  32.998  15.131   8.850
 4845POPC   GL2 8930  33.152  15.132   8.850
 4845POPC   C1A 8931  33.062  15.134   8.550
 4845POPC   D2A 8932  32.984  15.133   8.250
 4845POPC   C3A 8933  33.061  15.148   7.950
 4845POPC   C4A 8934  33.000  15.178   7.650
 4845POPC   C1B 8935  33.230  15.072   8.550
 4845POPC   C2B 8936  33.256  15.046   8.250
 4845POPC   C3B 8937  33.292  15.100   7.950
 4845POPC   C4B 8938  33.300  15.130   7.650
 4846POPC   NC3 8939  28.324  15.959   9.450
 4846POPC   PO4 8940  28.351  15.956   9.150
 4846POPC   GL1 8941  28.360  15.967   8.850
 4846POPC   GL2 8942  28.390  16.090   8.850
 4846POPC   C1A 8943  28.333  15.988   8.550
 4846POPC   D2A 8944  28.359  15.977   8.250
 4846POPC   C3A 8945  28.360  15.981   7.950
 4846POPC   C4A 8946  28.376  15.997   7.650
 4846POPC   C1B 8947  28.355  16.225   8.550
 4846POPC   C2B 8948  28.406  16.194   8.250
 4846POPC   C3B 8949  28.373  16.169   7.950
 4846POPC   C4B 8950  28.356  16.206   7.650
 4847POPC   NC3 8951  15.201  17.475   9.450
 4847POPC   PO4 8952  15.204  17.482   9.150
 4847POPC   GL1 8953  15.171  17.542   8.850
 4847POPC   GL2 8954  15.182  17.355   8.850
 4847POPC   C1A 8955  15.130  17.548   8.550
 4847POPC   D2A 8956  15.211  17.548   8.250
 4847POPC   C3A 8957  15.198  17.538   7.950
 4847POPC   C4A 8958  15.215  17.457   7.650
 4847POPC   C1B 8959  15.143  17.215   8.550
 4847POPC   C2B 8960  15.111  17.310   8.250
 4847POPC   C3B 8961  15.170  17.285   7.950
 4847POPC   C4B 8962  15.138  17.235   7.650
 4848POPC   NC3 8963  39.267  12.060   9.450
 4848POPC   PO4 8964  39.196  12.125   9.150
 4848POPC   GL1 8965  39.237  12.113   8.850
 4848POPC   GL2 8966  39.246  11.915   8.850
 4848POPC   C1A 8967  39.252  12.084   8.550
 4848POPC   D2A 8968  39.182  12.086   8.250
 4848POPC   C3A 8969  39.233  12.048   7.950
 4848POPC   C4A 8970  39.219  12.047   7.650
 4848POPC   C1B 8971  39.241  11.869   8.550
 4848POPC   C2B 8972  39.321  11.825   8.250
 4848POPC   C3B 8973  39.288  11.801   7.950
 4848POPC   C4B 8974  39.278  11.877   7.650
 4849POPC   NC3 8975  36.913  26.019   9.450
 4849POPC   PO4 8976  36.903  26.037   9.150
 4849POPC   GL1 8977  36.907  26.086   8.850
 4849POPC   GL2 8978  36.907  25.929   8.850
 4849POPC   C1A 8979  36.867  26.056   8.550
 4849POPC   D2A 8980  36.901  25.998   8.250
 4849POPC   C3A 8981  36.884  26.085   7.950
 4849POPC   C4A 8982  36.886  26.008   7.650
 4849POPC   C1B 8983  37.003  25.778   8.550
 4849POPC   C2B 8984  36.937  25.792   8.250
 4849POPC   C3B 8985  36.970  25.786   7.950
 4849POPC   C4B 8986  36.934  25.790   7.650
 4850POPC   NC3 8987  44.612  36.171   9.450
 4850POPC   PO4 8988  44.624  36.084   9.150
 4850POPC   GL1 8989  44.675  36.177   8.850
 4850POPC   GL2 8990  44.763  36.230   8.850
 4850POPC   C1A 8991  44.632  36.143   8.550
 4850POPC   D2A 8992  44.628  36.103   8.250
 4850POPC   C3A 8993  44.674  36.146   7.950
 4850POPC   C4A 8994  44.619  36.114   7.650
 4850POPC   C1B 8995  44.819  36.373   8.550
 4850POPC   C2B 8996  44.783  36.333   8.250
 4850POPC   C3B 8997  44.763  36.302   7.950
 4850POPC   C4B 8998  44.825  36.302   7.650
 4851POPC   NC3 8999   5.112   9.732   9.450
 4851POPC   PO4 9000   5.084   9.702   9.150
 4851POPC   GL1 9001   5.132   9.748   8.850
 4851POPC   GL2 9002   5.228   9.747   8.850
 4851POPC   C1A 9003   5.058   9.738   8.550
 4851POPC   D2A 9004   5.078   9.786   8.250
 4851POPC   C3A 9005   5.067   9.703   7.950
 4851POPC   C4A 9006   5.095   9.763   7.650
 4851POPC   C1B 9007   5.344   9.606   8.550
 4851POPC   C2B 9008   5.358   9.654   8.250
 4851POPC   C3B 9009   5.277   9.671   7.950
 4851POPC   C4B 9010   5.342   9.636   7.650
 4852POPC   NC3 9011   7.416  20.610   9.450
 4852POPC   PO4 9012   7.386  20.590   9.150
 4852POPC   GL1 9013   7.407  20.626   8.850
 4852POPC   GL2 9014   7.513  20.674   8.850
 4852POPC   C1A 9015   7.399  20.586   8.550
 4852POPC   D2A 9016   7.462  20.563   8.250
 4852POPC   C3A 9017   7.422  20.658   7.950
 4852POPC   C4A 9018   7.379  20.592   7.650
 4852POPC   C1B 9019   7.644  20.647   8.550
 4852POPC   C2B 9020   7.688  20.721   8.250
 4852POPC   C3B 9021   7.658  20.666   7.950
 4852POPC   C4B 9022   7.659  20.672   7.650
 4853POPC   NC3 9023   0.440  12.049   9.450
 4853POPC   PO4 9024   0.467  12.084   9.150
 4853POPC   GL1 9025   0.395  12.042   8.850
 4853POPC   GL2 9026   0.357  12.159   8.850
 4853POPC   C1A 9027   0.422  12.054   8.550
 4853POPC   D2A 9028   0.445  12.084   8.250
 4853POPC   C3A 9029   0.453  12.051   7.950
 4853POPC   C4A 9030   0.485  12.100   7.650
 4853POPC   C1B 9031   0.332  12.278   8.550
 4853POPC   C2B 9032   0.356  12.340   8.250
 4853POPC   C3B 9033   0.383  12.301   7.950
 4853POPC   C4B 9034   0.395  12.322   7.650
 4854POPC   NC3 9035  33.792  21.390   9.450
 4854POPC   PO4 9036  33.783  21.395   9.150
 4854POPC   GL1 9037  33.837  21.360   8.850
 4854POPC   GL2 9038  33.858  21.282   8.850
 4854POPC   C1A 9039  33.779  21.419   8.550
 4854POPC   D2A 9040  33.832  21.367   8.250
 4854POPC   C3A 9041  33.843  21.356   7.950
 4854POPC   C4A 9042  33.838  21.375   7.650
 4854POPC   C1B 9043  33.924  21.122   8.550
 4854POPC   C2B 9044  33.839  21.152   8.250
 4854POPC   C3B 9045  33.867  21.158   7.950
 4854POPC   C4B 9046  33.888  21.174   7.650
 4855POPC   NC3 9047  13.658   0.426   9.450
 4855POPC   PO4 9048  13.623   0.468   9.150
 4855POPC   GL1 9049  13.619   0.467   8.850
 4855POPC   GL2 9050  13.586   0.530   8.850
 4855POPC   C1A 9051  13.620   0.419   8.550
 4855POPC   D2A 9052  13.593   0.459   8.250
 4855POPC   C3A 9053  13.641   0.444   7.950
 4855POPC   C4A 9054  13.662   0.437   7.650
 4855POPC   C1B 9055  13.459   0.633   8.550
 4855POPC   C2B 9056  13.427   0.666   8.250
 4855POPC   C3B 9057  13.419   0.648   7.950
 4855POPC   C4B 9058  13.411   0.574   7.650
 4856POPC   NC3 9059  16.727  26.783   9.450
 4856POPC   PO4 9060  16.763  26.818   9.150
 4856POPC   GL1 9061  16.698  26.800   8.850
 4856POPC   GL2 9062  16.865  26.869   8.850
 4856POPC   C1A 9063  16.748  26.853   8.550
 4856POPC   D2A 9064  16.698  26.774   8.250
 4856POPC   C3A 9065  16.723  26.854   7.950
 4856POPC   C4A 9066  16.761  26.783   7.650
 4856POPC   C1B 9067  16.943  26.835   8.550
 4856POPC   C2B 9068  16.991  26.825   8.250
 4856POPC   C3B 9069  16.984  26.866   7.950
 4856POPC   C4B 9070  16.943  26.780   7.650
 4857POPC   NC3 9071  40.752  44.616   9.450
 4857POPC   PO4 9072  40.812  44.677   9.150
 4857POPC   GL1 9073  40.770  44.695   8.850
 4857POPC   GL2 9074  40.858  44.548   8.850
 4857POPC   C1A 9075  40.768  44.675   8.550
 4857POPC   D2A 9076  40.826  44.705   8.250
 4857POPC   C3A 9077  40.791  44.666   7.950
 4857POPC   C4A 9078  40.805  44.665   7.650
 4857POPC   C1B 9079  40.913  44.432   8.550
 4857POPC   C2B 9080  40.984  44.473   8.250
 4857POPC   C3B 9081  41.001  44.463   7.950
 4857POPC   C4B 9082  40.957  44.498   7.650
 4858POPC   NC3 9083  16.694  32.233   9.450
 4858POPC   PO4 9084  16.737  32.232   9.150
 4858POPC   GL1 9085  16.726  32.272   8.850
 4858POPC   GL2 9086  16.687  32.384   8.850
 4858POPC   C1A 9087  16.772  32.280   8.550
 4858POPC   D2A 9088  16.734  32.259   8.250
 4858POPC   C3A 9089  16.757  32.272   7.950
 4858POPC   C4A 9090  16.736  32.283   7.650
 4858POPC   C1B 9091  16.649  32.479   8.550
 4858POPC   C2B 9092  16.604  32.495   8.250
 4858POPC   C3B 9093  16.611  32.512   7.950
 4858POPC   C4B 9094  16.665  32.482   7.650
 4859POPC   NC3 9095  18.330   8.197   9.450
 4859POPC   PO4 9096  18.250   8.211   9.150
 4859POPC   GL1 9097  18.254   8.174   8.850
 4859POPC   GL2 9098  18.350   8.059   8.850
 4859POPC   C1A 9099  18.236   8.232   8.550
 4859POPC   D2A 9100  18.234   8.207   8.250
 4859POPC   C3A 9101  18.305   8.214   7.950
 4859POPC   C4A 9102  18.328   8.187   7.650
 4859POPC   C1B 9103  18.430   7.961   8.550
 4859POPC   C2B 9104  18.480   7.999   8.250
 4859POPC   C3B 9105  18.455   8.057   7.950
 4859POPC   C4B 9106  18.475   8.047   7.650
 4860POPC   NC3 9107   7.436  41.535   9.450
 4860POPC   PO4 9108   7.420  41.597   9.150
 4860POPC   GL1 9109   7.461  41.523   8.850
 4860POPC   GL2 9110   7.341  41.505   8.850
 4860POPC   C1A 9111   7.417  41.511   8.550
 4860POPC   D2A 9112   7.380  41.567   8.250
 4860POPC   C3A 9113   7.443  41.566   7.950
 4860POPC   C4A 9114   7.414  41.514   7.650
 4860POPC   C1B 9115   7.284  41.370   8.550
 4860POPC   C2B 9116   7.266  41.392   8.250
 4860POPC   C3B 9117   7.280  41.338   7.950
 4860POPC   C4B 9118   7.274  41.350   7.650
 4861POPC   NC3 9119  40.752  25.225   9.450
 4861POPC   PO4 9120  40.816  25.249   9.150
 4861POPC   GL1 9121  40.800  25.294   8.850
 4861POPC   GL2 9122  40.806  25.167   8.850
 4861POPC   C1A 9123  40.764  25.301   8.550
 4861POPC   D2A 9124  40.781  25.221   8.250
 4861POPC   C3A 9125  40.747  25.237   7.950
 4861POPC   C4A 9126  40.754  25.271   7.650
 4861POPC   C1B 9127  40.938  25.064   8.550
 4861POPC   C2B 9128  40.880  25.068   8.250
 4861POPC   C3B 9129  40.923  25.033   7.950
 4861POPC   C4B 9130  40.954  25.027   7.650
 4862POPC   NC3 9131  32.999  19.799   9.450
 4862POPC   PO4 9132  33.032  19.792   9.150
 4862POPC   GL1 9133  33.052  19.879   8.850
 4862POPC   GL2 9134  33.121  19.674   8.850
 4862POPC   C1A 9135  32.979  19.838   8.550
 4862POPC   D2A 9136  32.987  19.828   8.250
 4862POPC   C3A 9137  33.025  19.845   7.950
 4862POPC   C4A 9138  33.037  19.833   7.650
 4862POPC   C1B 9139  33.119  19.625   8.550
 4862POPC   C2B 9140  33.095  19.616   8.250
 4862POPC   C3B 9141  33.119  19.585   7.950
 4862POPC   C4B 9142  33.125  19.591   7.650
 4863POPC   NC3 9143  39.269   6.626   9.450
 4863POPC   PO4 9144  39.222   6.676   9.150
 4863POPC   GL1 9145  39.196   6.615   8.850
 4863POPC   GL2 9146  39.063   6.646   8.850
 4863POPC   C1A 9147  39.218   6.682   8.550
 4863POPC   D2A 9148  39.209   6.684   8.250
 4863POPC   C3A 9149  39.231   6.687   7.950
 4863POPC   C4A 9150  39.275   6.639   7.650
 4863POPC   C1B 9151  39.027   6.586   8.550
 4863POPC   C2B 9152  38.978   6.545   8.250
 4863POPC   C3B 9153  38.965   6.627   7.950
 4863POPC   C4B 9154  38.948   6.603   7.650
 4864POPC   NC3 9155  21.347  15.964   9.450
 4864POPC   PO4 9156  21.343  15.923   9.150
 4864POPC   GL1 9157  21.406  15.932   8.850
 4864POPC   GL2 9158  21.270  15.944   8.850
 4864POPC   C1A 9159  21.346  15.910   8.550
 4864POPC   D2A 9160  21.338  15.942   8.250
 4864POPC   C3A 9161  21.405  15.926   7.950
 4864POPC   C4A 9162  21.356  15.923   7.650
 4864POPC   C1B 9163  21.106  15.967   8.550
 4864POPC   C2B 9164  21.104  15.978   8.250
 4864POPC   C3B 9165  21.147  15.972   7.950
 4864POPC   C4B 9166  21.157  15.952   7.650
 4865POPC   NC3 9167  19.080  15.220   9.450
 4865POPC   PO4 9168  19.105  15.207   9.150
 4865POPC   GL1 9169  19.016  15.156   8.850
 4865POPC   GL2 9170  19.110  15.077   8.850
 4865POPC   C1A 9171  19.037  15.224   8.550
 4865POPC   D2A 9172  19.058  15.133   8.250
 4865POPC   C3A 9173  19.032  15.154   7.950
 4865POPC   C4A 9174  19.010  15.146   7.650
 4865POPC   C1B 9175  19.271  15.017   8.550
 4865POPC   C2B 9176  19.220  15.052   8.250
 4865POPC   C3B 9177  19.248  15.072   7.950
 4865POPC   C4B 9178  19.273  15.035   7.650
 4866POPC   NC3 9179  18.249  21.413   9.450
 4866POPC   PO4 9180  18.317  21.340   9.150
 4866POPC   GL1 9181  18.306  21.355   8.850
 4866POPC   GL2 9182  18.298  21.510   8.850
 4866POPC   C1A 9183  18.314  21.409   8.550
 4866POPC   D2A 9184  18.252  21.434   8.250
 4866POPC   C3A 9185  18.269  21.399   7.950
 4866POPC   C4A 9186  18.319  21.416   7.650
 4866POPC   C1B 9187  18.220  21.668   8.550
 4866POPC   C2B 9188  18.218  21.657   8.250
 4866POPC   C3B 9189  18.182  21.655   7.950
 4866POPC   C4B 9190  18.218  21.615   7.650
 4867POPC   NC3 9191  17.506  10.502   9.450
 4867POPC   PO4 9192  17.485  10.570   9.150
 4867POPC   GL1 9193  17.516  10.504   8.850
 4867POPC   GL2 9194  17.466  10.617   8.850
 4867POPC   C1A 9195  17.544  10.534   8.550
 4867POPC   D2A 9196  17.507  10.478   8.250
 4867POPC   C3A 9197  17.514  10.491   7.950
 4867POPC   C4A 9198  17.463  10.551   7.650
 4867POPC   C1B 9199  17.473  10.766   8.550
 4867POPC   C2B 9200  17.499  10.797   8.250
 4867POPC   C3B 9201  17.469  10.766   7.950
 4867POPC   C4B 9202  17.470  10.782   7.650
 4868POPC   NC3 9203  35.312   0.418   9.450
 4868POPC   PO4 9204  35.342   0.440   9.150
 4868POPC   GL1 9205  35.358   0.479   8.850
 4868POPC   GL2 9206  35.254   0.437   8.850
 4868POPC   C1A 9207  35.348   0.466   8.550
 4868POPC   D2A 9208  35.354   0.392   8.250
 4868POPC   C3A 9209  35.350   0.454   7.950
 4868POPC   C4A 9210  35.327   0.395   7.650
 4868POPC   C1B 9211  35.126   0.414   8.550
 4868POPC   C2B 9212  35.107   0.408   8.250
 4868POPC   C3B 9213  35.099   0.433   7.950
 4868POPC   C4B 9214  35.104   0.489   7.650
 4869POPC   NC3 9215  28.397  34.606   9.450
 4869POPC   PO4 9216  28.345  34.594   9.150
 4869POPC   GL1 9217  28.394  34.577   8.850
 4869POPC   GL2 9218  28.253  34.659   8.850
 4869POPC   C1A 9219  28.379  34.597   8.550
 4869POPC   D2A 9220  28.369  34.601   8.250
 4869POPC   C3A 9221  28.412  34.585   7.950
 4869POPC   C4A 9222  28.403  34.610   7.650
 4869POPC   C1B 9223  28.174  34.666   8.550
 4869POPC   C2B 9224  28.104  34.610   8.250
 4869POPC   C3B 9225  28.109  34.627   7.950
 4869POPC   C4B 9226  28.173  34.656   7.650
 4870POPC   NC3 9227  26.833  44.675   9.450
 4870POPC   PO4 9228  26.788  44.647   9.150
 4870POPC   GL1 9229  26.842  44.664   8.850
 4870POPC   GL2 9230  26.921  44.582   8.850
 4870POPC   C1A 9231  26.858  44.652   8.550
 4870POPC   D2A 9232  26.816  44.621   8.250
 4870POPC   C3A 9233  26.770  44.675   7.950
 4870POPC   C4A 9234  26.770  44.613   7.650
 4870POPC   C1B 9235  27.016  44.541   8.550
 4870POPC   C2B 9236  27.091  44.543   8.250
 4870POPC   C3B 9237  27.040  44.628   7.950
 4870POPC   C4B 9238  27.071  44.593   7.650
 4871POPC   NC3 9239   8.162  20.582   9.450
 4871POPC   PO4 9240   8.198  20.660   9.150
 4871POPC   GL1 9241   8.206  20.574   8.850
 4871POPC   GL2 9242   8.341  20.589   8.850
 4871POPC   C1A 9243   8.242  20.588   8.550
 4871POPC   D2A 9244   8.159  20.635   8.250
 4871POPC   C3A 9245   8.152  20.627   7.950
 4871POPC   C4A 9246   8.167  20.612   7.650
 4871POPC   C1B 9247   8.415  20.586   8.550
 4871POPC   C2B 9248   8.459  20.551   8.250
 4871POPC   C3B 9249   8.395  20.545   7.950
 4871POPC   C4B 9250   8.411  20.487   7.650
 4872POPC   NC3 9251   2.016   8.931   9.450
 4872POPC   PO4 9252   2.001   8.931   9.150
 4872POPC   GL1 9253   1.972   8.945   8.850
 4872POPC   GL2 9254   2.086   8.997   8.850
 4872POPC   C1A 9255   2.034   8.932   8.550
 4872POPC   D2A 9256   2.014   8.971   8.250
 4872POPC   C3A 9257   2.012   8.952   7.950
 4872POPC   C4A 9258   1.988   8.950   7.650
 4872POPC   C1B 9259   2.176   9.085   8.550
 4872POPC   C2B 9260   2.163   9.119   8.250
 4872POPC   C3B 9261   2.181   9.067   7.950
 4872POPC   C4B 9262   2.241   9.058   7.650
 4873POPC   NC3 9263  31.494   4.322   9.450
 4873POPC   PO4 9264  31.447   4.310   9.150
 4873POPC   GL1 9265  31.469   4.337   8.850
 4873POPC   GL2 9266  31.491   4.392   8.850
 4873POPC   C1A 9267  31.484   4.330   8.550
 4873POPC   D2A 9268  31.476   4.336   8.250
 4873POPC   C3A 9269  31.489   4.316   7.950
 4873POPC   C4A 9270  31.506   4.321   7.650
 4873POPC   C1B 9271  31.454   4.594   8.550
 4873POPC   C2B 9272  31.461   4.518   8.250
 4873POPC   C3B 9273  31.553   4.577   7.950
 4873POPC   C4B 9274  31.516   4.526   7.650
 4874POPC   NC3 9275  22.955  22.901   9.450
 4874POPC   PO4 9276  22.964  22.947   9.150
 4874POPC   GL1 9277  22.938  22.893   8.850
 4874POPC   GL2 9278  22.948  23.024   8.850
 4874POPC   C1A 9279  22.904  22.910   8.550
 4874POPC   D2A 9280  22.980  22.956   8.250
 4874POPC   C3A 9281  22.922  22.944   7.950
 4874POPC   C4A 9282  22.893  22.916   7.650
 4874POPC   C1B 9283  22.907  23.219   8.550
 4874POPC   C2B 9284  22.926  23.217   8.250
 4874POPC   C3B 9285  22.927  23.203   7.950
 4874POPC   C4B 9286  22.941  23.146   7.650
 4875POPC   NC3 9287   2.746  15.985   9.450
 4875POPC   PO4 9288   2.741  15.962   9.150
 4875POPC   GL1 9289   2.805  15.953   8.850
 4875POPC   GL2 9290   2.806  16.048   8.850
 4875POPC   C1A 9291   2.793  15.957   8.550
 4875POPC   D2A 9292   2.755  15.911   8.250
 4875POPC   C3A 9293   2.801  15.932   7.950
 4875POPC   C4A 9294   2.758  15.969   7.650
 4875POPC   C1B 9295   2.872  16.210   8.550
 4875POPC   C2B 9296   2.868  16.225   8.250
 4875POPC   C3B 9297   2.801  16.172   7.950
 4875POPC   C4B 9298   2.873  16.209   7.650
 4876POPC   NC3 9299   8.209   2.035   9.450
 4876POPC   PO4 9300   8.240   2.032   9.150
 4876POPC   GL1 9301   8.226   1.983   8.850
 4876POPC   GL2 9302   8.217   2.103   8.850
 4876POPC   C1A 9303   8.235   1.943   8.550
 4876POPC   D2A 9304   8.238   2.037   8.250
 4876POPC   C3A 9305   8.181   1.951   7.950
 4876POPC   C4A 9306   8.172   1.961   7.650
 4876POPC   C1B 9307   8.223   2.259   8.550
 4876POPC   C2B 9308   8.183   2.257   8.250
 4876POPC   C3B 9309   8.196   2.246   7.950
 4876POPC   C4B 9310   8.253   2.236   7.650
 4877POPC   NC3 9311  22.977  14.419   9.450
 4877POPC   PO4 9312  22.891  14.429   9.150
 4877POPC   GL1 9313  22.984  14.446   8.850
 4877POPC   GL2 9314  23.011  14.425   8.850
 4877POPC   C1A 9315  22.910  14.436   8.550
 4877POPC   D2A 9316  22.977  14.398   8.250
 4877POPC   C3A 9317  22.940  14.426   7.950
 4877POPC   C4A 9318  22.907  14.416   7.650
 4877POPC   C1B 9319  23.146  14.319   8.550
 4877POPC   C2B 9320  23.171  14.346   8.250
 4877POPC   C3B 9321  23.220  14.352   7.950
 4877POPC   C4B 9322  23.210  14.332   7.650
 4878POPC   NC3 9323  26.775   4.331   9.450
 4878POPC   PO4 9324  26.820   4.300   9.150
 4878POPC   GL1 9325  26.867   4.295   8.850
 4878POPC   GL2 9326  26.951   4.247   8.850
 4878POPC   C1A 9327  26.851   4.305   8.550
 4878POPC   D2A 9328  26.845   4.315   8.250
 4878POPC   C3A 9329  26.836   4.365   7.950
 4878POPC   C4A 9330  26.847   4.290   7.650
 4878POPC   C1B 9331  27.072   4.198   8.550
 4878POPC   C2B 9332  27.040   4.211   8.250
 4878POPC   C3B 9333  27.071   4.186   7.950
 4878POPC   C4B 9334  27.078   4.210   7.650
 4879POPC   NC3 9335  43.881  18.234   9.450
 4879POPC   PO4 9336  43.861  18.309   9.150
 4879POPC   GL1 9337  43.846  18.234   8.850
 4879POPC   GL2 9338  43.809  18.160   8.850
 4879POPC   C1A 9339  43.893  18.315   8.550
 4879POPC   D2A 9340  43.905  18.258   8.250
 4879POPC   C3A 9341  43.844  18.301   7.950
 4879POPC   C4A 9342  43.904  18.240   7.650
 4879POPC   C1B 9343  43.737  18.094   8.550
 4879POPC   C2B 9344  43.689  18.158   8.250
 4879POPC   C3B 9345  43.685  18.065   7.950
 4879POPC   C4B 9346  43.723  18.127   7.650
 4880POPC   NC3 9347  23.695   0.395   9.450
 4880POPC   PO4 9348  23.757   0.475   9.150
 4880POPC   GL1 9349  23.718   0.437   8.850
 4880POPC   GL2 9350  23.771   0.377   8.850
 4880POPC   C1A 9351  23.732   0.464   8.550
 4880POPC   D2A 9352  23.755   0.439   8.250
 4880POPC   C3A 9353  23.709   0.443   7.950
 4880POPC   C4A 9354  23.743   0.430   7.650
 4880POPC   C1B 9355  23.867   0.238   8.550
 4880POPC   C2B 9356  23.894   0.197   8.250
 4880POPC   C3B 9357  23.879   0.266   7.950
 4880POPC   C4B 9358  23.901   0.259   7.650
 4881POPC   NC3 9359  26.032  41.537   9.450
 4881POPC   PO4 9360  26.055  41.580   9.150
 4881POPC   GL1 9361  26.050  41.546   8.850
 4881POPC   GL2 9362  26.052  41.655   8.850
 4881POPC   C1A 9363  26.033  41.600   8.550
 4881POPC   D2A 9364  26.039  41.553   8.250
 4881POPC   C3A 9365  25.992  41.537   7.950
 4881POPC   C4A 9366  26.017  41.532   7.650
 4881POPC   C1B 9367  25.962  41.810   8.550
 4881POPC   C2B 9368  25.991  41.764   8.250
 4881POPC   C3B 9369  26.007  41.753   7.950
 4881POPC   C4B 9370  26.027  41.778   7.650
 4882POPC   NC3 9371  12.084   5.119   9.450
 4882POPC   PO4 9372  12.079   5.069   9.150
 4882POPC   GL1 9373  12.039   5.082   8.850
 4882POPC   GL2 9374  12.165   4.952   8.850
 4882POPC   C1A 9375  12.035   5.077   8.550
 4882POPC   D2A 9376  12.083   5.124   8.250
 4882POPC   C3A 9377  12.063   5.142   7.950
 4882POPC   C4A 9378  12.029   5.077   7.650
 4882POPC   C1B 9379  12.241   4.894   8.550
 4882POPC   C2B 9380  12.204   4.857   8.250
 4882POPC   C3B 9381  12.171   4.857   7.950
 4882POPC   C4B 9382  12.250   4.885   7.650
 4883POPC   NC3 9383  34.586   2.005   9.450
 4883POPC   PO4 9384  34.564   1.962   9.150
 4883POPC   GL1 9385  34.544   1.983   8.850
 4883POPC   GL2 9386  34.702   1.982   8.850
 4883POPC   C1A 9387  34.590   1.970   8.550
 4883POPC   D2A 9388  34.601   1.950   8.250
 4883POPC   C3A 9389  34.547   2.004   7.950
 4883POPC   C4A 9390  34.591   2.024   7.650
 4883POPC   C1B 9391  34.833   1.872   8.550
 4883POPC   C2B 9392  34.767   1.900   8.250
 4883POPC   C3B 9393  34.789   1.880   7.950
 4883POPC   C4B 9394  34.811   1.883   7.650
 4884POPC   NC3 9395  22.896  39.227   9.450
 4884POPC   PO4 9396  22.969  39.243   9.150
 4884POPC   GL1 9397  22.966  39.212   8.850
 4884POPC   GL2 9398  23.019  39.162   8.850
 4884POPC   C1A 9399  22.916  39.258   8.550
 4884POPC   D2A 9400  22.969  39.261   8.250
 4884POPC   C3A 9401  22.913  39.278   7.950
 4884POPC   C4A 9402  22.896  39.263   7.650
 4884POPC   C1B 9403  23.086  39.058   8.550
 4884POPC   C2B 9404  23.161  39.036   8.250
 4884POPC   C3B 9405  23.098  39.098   7.950
 4884POPC   C4B 9406  23.083  39.048   7.650
 4885POPC   NC3 9407  15.156  15.177   9.450
 4885POPC   PO4 9408  15.179  15.218   9.150
 4885POPC   GL1 9409  15.151  15.214   8.850
 4885POPC   GL2 9410  15.259  15.103   8.850
 4885POPC   C1A 9411  15.197  15.156   8.550
 4885POPC   D2A 9412  15.225  15.197   8.250
 4885POPC   C3A 9413  15.143  15.208   7.950
 4885POPC   C4A 9414  15.199  15.173   7.650
 4885POPC   C1B 9415  15.319  14.943   8.550
 4885POPC   C2B 9416  15.370  15.015   8.250
 4885POPC   C3B 9417  15.298  14.934   7.950
 4885POPC   C4B 9418  15.320  14.974   7.650
 4886POPC   NC3 9419   7.413   5.853   9.450
 4886POPC   PO4 9420   7.379   5.878   9.150
 4886POPC   GL1 9421   7.397   5.837   8.850
 4886POPC   GL2 9422   7.324   5.964   8.850
 4886POPC   C1A 9423   7.397   5.905   8.550
 4886POPC   D2A 9424   7.433   5.862   8.250
 4886POPC   C3A 9425   7.437   5.880   7.950
 4886POPC   C4A 9426   7.451   5.854   7.650
 4886POPC   C1B 9427   7.244   5.984   8.550
 4886POPC   C2B 9428   7.201   5.999   8.250
 4886POPC   C3B 9429   7.201   6.011   7.950
 4886POPC   C4B 9430   7.193   5.998   7.650
 4887POPC   NC3 9431  11.344  31.500   9.450
 4887POPC   PO4 9432  11.261  31.494   9.150
 4887POPC   GL1 9433  11.272  31.479   8.850
 4887POPC   GL2 9434  11.345  31.619   8.850
 4887POPC   C1A 9435  11.274  31.508   8.550
 4887POPC   D2A 9436  11.291  31.440   8.250
 4887POPC   C3A 9437  11.341  31.431   7.950
 4887POPC   C4A 9438  11.261  31.427   7.650
 4887POPC   C1B 9439  11.334  31.690   8.550
 4887POPC   C2B 9440  11.381  31.763   8.250
 4887POPC   C3B 9441  11.312  31.751   7.950
 4887POPC   C4B 9442  11.340  31.670   7.650
 4888POPC   NC3 9443  43.843   4.288   9.450
 4888POPC   PO4 9444  43.916   4.333   9.150
 4888POPC   GL1 9445  43.859   4.307   8.850
 4888POPC   GL2 9446  43.876   4.204   8.850
 4888POPC   C1A 9447  43.874   4.336   8.550
 4888POPC   D2A 9448  43.896   4.315   8.250
 4888POPC   C3A 9449  43.932   4.303   7.950
 4888POPC   C4A 9450  43.837   4.354   7.650
 4888POPC   C1B 9451  43.934   4.068   8.550
 4888POPC   C2B 9452  43.914   4.028   8.250
 4888POPC   C3B 9453  43.994   4.087   7.950
 4888POPC   C4B 9454  43.951   4.084   7.650
 4889POPC   NC3 9455  21.407  36.900   9.450
 4889POPC   PO4 9456  21.400  36.928   9.150
 4889POPC   GL1 9457  21.355  36.903   8.850
 4889POPC   GL2 9458  21.505  36.826   8.850
 4889POPC   C1A 9459  21.403  36.939   8.550
 4889POPC   D2A 9460  21.366  36.925   8.250
 4889POPC   C3A 9461  21.350  36.908   7.950
 4889POPC   C4A 9462  21.357  36.858   7.650
 4889POPC   C1B 9463  21.520  36.726   8.550
 4889POPC   C2B 9464  21.538  36.711   8.250
 4889POPC   C3B 9465  21.566  36.748   7.950
 4889POPC   C4B 9466  21.527  36.693   7.650
 4890POPC   NC3 9467  34.591   5.915   9.450
 4890POPC   PO4 9468  34.546   5.842   9.150
 4890POPC   GL1 9469  34.599   5.826   8.850
 4890POPC   GL2 9470  34.619   6.013   8.850
 4890POPC   C1A 9471  34.577   5.898   8.550
 4890POPC   D2A 9472  34.550   5.883   8.250
 4890POPC   C3A 9473  34.588   5.820   7.950
 4890POPC   C4A 9474  34.610   5.835   7.650
 4890POPC   C1B 9475  34.574   6.165   8.550
 4890POPC   C2B 9476  34.607   6.154   8.250
 4890POPC   C3B 9477  34.638   6.100   7.950
 4890POPC   C4B 9478  34.578   6.164   7.650
 4891POPC   NC3 9479  33.025  16.719   9.450
 4891POPC   PO4 9480  33.028  16.715   9.150
 4891POPC   GL1 9481  33.001  16.772   8.850
 4891POPC   GL2 9482  33.094  16.649   8.850
 4891POPC   C1A 9483  33.040  16.759   8.550
 4891POPC   D2A 9484  32.982  16.735   8.250
 4891POPC   C3A 9485  32.995  16.736   7.950
 4891POPC   C4A 9486  33.015  16.692   7.650
 4891POPC   C1B 9487  33.198  16.548   8.550
 4891POPC   C2B 9488  33.237  16.602   8.250
 4891POPC   C3B 9489  33.181  16.576   7.950
 4891POPC   C4B 9490  33.245  16.561   7.650
 4892POPC   NC3 9491  26.006  34.540   9.450
 4892POPC   PO4 9492  26.080  34.624   9.150
 4892POPC   GL1 9493  26.077  34.615   8.850
 4892POPC   GL2 9494  26.099  34.496   8.850
 4892POPC   C1A 9495  26.074  34.592   8.550
 4892POPC   D2A 9496  26.056  34.560   8.250
 4892POPC   C3A 9497  26.040  34.550   7.950
 4892POPC   C4A 9498  26.009  34.544   7.650
 4892POPC   C1B 9499  26.177  34.344   8.550
 4892POPC   C2B 9500  26.189  34.424   8.250
 4892POPC   C3B 9501  26.242  34.344   7.950
 4892POPC   C4B 9502  26.238  34.386   7.650
 4893POPC   NC3 9503  38.460  29.142   9.450
 4893POPC   PO4 9504  38.455  29.148   9.150
 4893POPC   GL1 9505  38.414  29.118   8.850
 4893POPC   GL2 9506  38.543  29.211   8.850
 4893POPC   C1A 9507  38.433  29.125   8.550
 4893POPC   D2A 9508  38.414  29.188   8.250
 4893POPC   C3A 9509  38.479  29.102   7.950
 4893POPC   C4A 9510  38.499  29.184   7.650
 4893POPC   C1B 9511  38.630  29.264   8.550
 4893POPC   C2B 9512  38.663  29.315   8.250
 4893POPC   C3B 9513  38.678  29.240   7.950
 4893POPC   C4B 9514  38.660  29.291   7.650
 4894POPC   NC3 9515  23.754  39.250   9.450
 4894POPC   PO4 9516  23.719  39.208   9.150
 4894POPC   GL1 9517  23.744  39.258   8.850
 4894POPC   GL2 9518  23.801  39.307   8.850
 4894POPC   C1A 9519  23.676  39.211   8.550
 4894POPC   D2A 9520  23.744  39.233   8.250
 4894POPC   C3A 9521  23.740  39.246   7.950
 4894POPC   C4A 9522  23.750  39.222   7.650
 4894POPC   C1B 9523  23.874  39.407   8.550
 4894POPC   C2B 9524  23.959  39.368   8.250
 4894POPC   C3B 9525  23.941  39.332   7.950
 4894POPC   C4B 9526  23.883  39.417   7.650
 4895POPC   NC3 9527  33.071   5.857   9.450
 4895POPC   PO4 9528  32.984   5.877   9.150
 4895POPC   GL1 9529  33.062   5.863   8.850
 4895POPC   GL2 9530  33.066   6.041   8.850
 4895POPC   C1A 9531  32.998   5.881   8.550
 4895POPC   D2A 9532  33.017   5.884   8.250
 4895POPC   C3A 9533  32.977   5.821   7.950
 4895POPC   C4A 9534  33.069   5.868   7.650
 4895POPC   C1B 9535  33.093   6.165   8.550
 4895POPC   C2B 9536  33.025   6.108   8.250
 4895POPC   C3B 9537  33.049   6.121   7.950
 4895POPC   C4B 9538  33.063   6.130   7.650
 4896POPC   NC3 9539  35.360  23.669   9.450
 4896POPC   PO4 9540  35.308  23.755   9.150
 4896POPC   GL1 9541  35.369  23.718   8.850
 4896POPC   GL2 9542  35.388  23.840   8.850
 4896POPC   C1A 9543  35.383  23.759   8.550
 4896POPC   D2A 9544  35.388  23.757   8.250
 4896POPC   C3A 9545  35.328  23.671   7.950
 4896POPC   C4A 9546  35.328  23.732   7.650
 4896POPC   C1B 9547  35.362  23.951   8.550
 4896POPC   C2B 9548  35.361  23.911   8.250
 4896POPC   C3B 9549  35.392  23.948   7.950
 4896POPC   C4B 9550  35.416  23.992   7.650
 4897POPC   NC3 9551  43.101  28.331   9.450
 4897POPC   PO4 9552  43.097  28.393   9.150
 4897POPC   GL1 9553  43.146  28.377   8.850
 4897POPC   GL2 9554  43.221  28.399   8.850
 4897POPC   C1A 9555  43.073  28.355   8.550
 4897POPC   D2A 9556  43.084  28.387   8.250
 4897POPC   C3A 9557  43.075  28.332   7.950
 4897POPC   C4A 9558  43.125  28.374   7.650
 4897POPC   C1B 9559  43.320  28.575   8.550
 4897POPC   C2B 9560  43.321  28.550   8.250
 4897POPC   C3B 9561  43.330  28.515   7.950
 4897POPC   C4B 9562  43.353  28.566   7.650
 4898POPC   NC3 9563  20.639   9.013   9.450
 4898POPC   PO4 9564  20.568   9.001   9.150
 4898POPC   GL1 9565  20.565   8.942   8.850
 4898POPC   GL2 9566  20.700   9.039   8.850
 4898POPC   C1A 9567  20.568   9.012   8.550
 4898POPC   D2A 9568  20.561   8.928   8.250
 4898POPC   C3A 9569  20.639   8.940   7.950
 4898POPC   C4A 9570  20.657   8.977   7.650
 4898POPC   C1B 9571  20.774   9.151   8.550
 4898POPC   C2B 9572  20.806   9.126   8.250
 4898POPC   C3B 9573  20.746   9.169   7.950
 4898POPC   C4B 9574  20.731   9.134   7.650
 4899POPC   NC3 9575   7.386  10.485   9.450
 4899POPC   PO4 9576   7.437  10.484   9.150
 4899POPC   GL1 9577   7.442  10.475   8.850
 4899POPC   GL2 9578   7.247  10.589   8.850
 4899POPC   C1A 9579   7.384  10.550   8.550
 4899POPC   D2A 9580   7.394  10.548   8.250
 4899POPC   C3A 9581   7.428  10.572   7.950
 4899POPC   C4A 9582   7.388  10.531   7.650
 4899POPC   C1B 9583   7.192  10.565   8.550
 4899POPC   C2B 9584   7.162  10.517   8.250
 4899POPC   C3B 9585   7.176  10.569   7.950
 4899POPC   C4B 9586   7.140  10.554   7.650
 4900POPC   NC3 9587  33.031  33.764   9.450
 4900POPC   PO4 9588  33.001  33.817   9.150
 4900POPC   GL1 9589  32.993  33.816   8.850
 4900POPC   GL2 9590  32.884  33.756   8.850
 4900POPC   C1A 9591  33.071  33.790   8.550
 4900POPC   D2A 9592  32.996  33.780   8.250
 4900POPC   C3A 9593  32.977  33.790   7.950
 4900POPC   C4A 9594  33.027  33.836   7.650
 4900POPC   C1B 9595  32.748  33.710   8.550
 4900POPC   C2B 9596  32.757  33.708   8.250
 4900POPC   C3B 9597  32.761  33.713   7.950
 4900POPC   C4B 9598  32.760  33.715   7.650
 4901POPC   NC3 9599  20.604  15.196   9.450
 4901POPC   PO4 9600  20.627  15.190   9.150
 4901POPC   GL1 9601  20.608  15.130   8.850
 4901POPC   GL2 9602  20.459  15.100   8.850
 4901POPC   C1A 9603  20.572  15.196   8.550
 4901POPC   D2A 9604  20.593  15.144   8.250
 4901POPC   C3A 9605  20.638  15.196   7.950
 4901POPC   C4A 9606  20.585  15.228   7.650
 4901POPC   C1B 9607  20.323  15.115   8.550
 4901POPC   C2B 9608  20.405  15.107   8.250
 4901POPC   C3B 9609  20.348  15.068   7.950
 4901POPC   C4B 9610  20.393  15.130   7.650
 4902POPC   NC3 9611  20.584   8.209   9.450
 4902POPC   PO4 9612  20.581   8.204   9.150
 4902POPC   GL1 9613  20.580   8.230   8.850
 4902POPC   GL2 9614  20.724   8.098   8.850
 4902POPC   C1A 9615  20.579   8.191   8.550
 4902POPC   D2A 9616  20.658   8.160   8.250
 4902POPC   C3A 9617  20.600   8.239   7.950
 4902POPC   C4A 9618  20.639   8.241   7.650
 4902POPC   C1B 9619  20.777   8.019   8.550
 4902POPC   C2B 9620  20.804   8.021   8.250
 4902POPC   C3B 9621  20.801   8.006   7.950
 4902POPC   C4B 9622  20.735   7.997   7.650
 4903POPC   NC3 9623  26.041  16.693   9.450
 4903POPC   PO4 9624  26.068  16.693   9.150
 4903POPC   GL1 9625  26.087  16.775   8.850
 4903POPC   GL2 9626  25.901  16.808   8.850
 4903POPC   C1A 9627  26.080  16.769   8.550
 4903POPC   D2A 9628  26.081  16.724   8.250
 4903POPC   C3A 9629  26.071  16.711   7.950
 4903POPC   C4A 9630  26.026  16.732   7.650
 4903POPC   C1B 9631  25.833  16.920   8.550
 4903POPC   C2B 9632  25.874  16.854   8.250
 4903POPC   C3B 9633  25.808  16.884   7.950
 4903POPC   C4B 9634  25.838  16.874   7.650
 4904POPC   NC3 9635  15.934  43.896   9.450
 4904POPC   PO4 9636  15.984  43.908   9.150
 4904POPC   GL1 9637  15.906  43.876   8.850
 4904POPC   GL2 9638  15.824  43.899   8.850
 4904POPC   C1A 9639  15.934  43.868   8.550
 4904POPC   D2A 9640  15.926  43.845   8.250
 4904POPC   C3A 9641  15.925  43.903   7.950
 4904POPC   C4A 9642  15.961  43.910   7.650
 4904POPC   C1B 9643  15.761  44.025   8.550
 4904POPC   C2B 9644  15.703  43.975   8.250
 4904POPC   C3B 9645  15.686  43.968   7.950
 4904POPC   C4B 9646  15.759  44.042   7.650
 4905POPC   NC3 9647  31.434  36.082   9.450
 4905POPC   PO4 9648  31.431  36.176   9.150
 4905POPC   GL1 9649  31.440  36.114   8.850
 4905POPC   GL2 9650  31.354  36.040   8.850
 4905POPC   C1A 9651  31.440  36.143   8.550
 4905POPC   D2A 9652  31.457  36.156   8.250
 4905POPC   C3A 9653  31.464  36.171   7.950
 4905POPC   C4A 9654  31.471  36.091   7.650
 4905POPC   C1B 9655  31.314  35.954   8.550
 4905POPC   C2B 9656  31.310  35.902   8.250
 4905POPC   C3B 9657  31.290  35.946   7.950
 4905POPC   C4B 9658  31.349  35.918   7.650
 4906POPC   NC3 9659  18.254  33.788   9.450
 4906POPC   PO4 9660  18.273  33.823   9.150
 4906POPC   GL1 9661  18.320  33.752   8.850
 4906POPC   GL2 9662  18.399  33.741   8.850
 4906POPC   C1A 9663  18.288  33.784   8.550
 4906POPC   D2A 9664  18.251  33.823   8.250
 4906POPC   C3A 9665  18.319  33.839   7.950
 4906POPC   C4A 9666  18.299  33.833   7.650
 4906POPC   C1B 9667  18.569  33.750   8.550
 4906POPC   C2B 9668  18.550  33.712   8.250
 4906POPC   C3B 9669  18.494  33.764   7.950
 4906POPC   C4B 9670  18.502  33.734   7.650
 4907POPC   NC3 9671  24.514  42.293   9.450
 4907POPC   PO4 9672  24.534  42.329   9.150
 4907POPC   GL1 9673  24.485  42.304   8.850
 4907POPC   GL2 9674  24.515  42.455   8.850
 4907POPC   C1A 9675  24.487  42.346   8.550
 4907POPC   D2A 9676  24.459  42.327   8.250
 4907POPC   C3A 9677  24.510  42.343   7.950
 4907POPC   C4A 9678  24.463  42.359   7.650
 4907POPC   C1B 9679  24.508  42.603   8.550
 4907POPC   C2B 9680  24.517  42.592   8.250
 4907POPC   C3B 9681  24.446  42.568   7.950
 4907POPC   C4B 9682  24.538  42.549   7.650
 4908POPC   NC3 9683   0.459  35.362   9.450
 4908POPC   PO4 9684   0.413  35.380   9.150
 4908POPC   GL1 9685   0.394  35.353   8.850
 4908POPC   GL2 9686   0.312  35.338   8.850
 4908POPC   C1A 9687   0.394  35.322   8.550
 4908POPC   D2A 9688   0.467  35.393   8.250
 4908POPC   C3A 9689   0.408  35.384   7.950
 4908POPC   C4A 9690   0.390  35.379   7.650
 4908POPC   C1B 9691   0.181  35.412   8.550
 4908POPC   C2B 9692   0.156  35.363   8.250
 4908POPC   C3B 9693   0.229  35.380   7.950
 4908POPC   C4B 9694   0.159  35.416   7.650
 4909POPC   NC3 9695  19.069  12.110   9.450
 4909POPC   PO4 9696  19.096  12.071   9.150
 4909POPC   GL1 9697  19.048  12.094   8.850
 4909POPC   GL2 9698  19.113  12.156   8.850
 4909POPC   C1A 9699  19.050  12.046   8.550
 4909POPC   D2A 9700  19.097  12.048   8.250
 4909POPC   C3A 9701  19.033  12.076   7.950
 4909POPC   C4A 9702  19.074  12.110   7.650
 4909POPC   C1B 9703  19.116  12.329   8.550
 4909POPC   C2B 9704  19.073  12.318   8.250
 4909POPC   C3B 9705  19.098  12.344   7.950
 4909POPC   C4B 9706  19.132  12.357   7.650
 4910POPC   NC3 9707  33.040  13.651   9.450
 4910POPC   PO4 9708  32.977  13.603   9.150
 4910POPC   GL1 9709  33.020  13.615   8.850
 4910POPC   GL2 9710  32.967  13.729   8.850
 4910POPC   C1A 9711  33.045  13.588   8.550
 4910POPC   D2A 9712  32.990  13.620   8.250
 4910POPC   C3A 9713  33.000  13.625   7.950
 4910POPC   C4A 9714  32.981  13.675   7.650
 4910POPC   C1B 9715  32.949  13.876   8.550
 4910POPC   C2B 9716  32.904  13.819   8.250
 4910POPC   C3B 9717  32.890  13.882   7.950
 4910POPC   C4B 9718  32.893  13.825   7.650
 4911POPC   NC3 9719  15.988  18.323   9.450
 4911POPC   PO4 9720  15.988  18.314   9.150
 4911POPC   GL1 9721  15.976  18.279   8.850
 4911POPC   GL2 9722  16.022  18.227   8.850
 4911POPC   C1A 9723  15.912  18.310   8.550
 4911POPC   D2A 9724  15.928  18.245   8.250
 4911POPC   C3A 9725  15.952  18.292   7.950
 4911POPC   C4A 9726  15.969  18.298   7.650
 4911POPC   C1B 9727  16.129  18.194   8.550
 4911POPC   C2B 9728  16.190  18.163   8.250
 4911POPC   C3B 9729  16.142  18.161   7.950
 4911POPC   C4B 9730  16.221  18.155   7.650
 4912POPC   NC3 9731  44.703   2.735   9.450
 4912POPC   PO4 9732  44.675   2.724   9.150
 4912POPC   GL1 9733  44.697   2.765   8.850
 4912POPC   GL2 9734  44.611   2.894   8.850
 4912POPC   C1A 9735  44.652   2.733   8.550
 4912POPC   D2A 9736  44.660   2.805   8.250
 4912POPC   C3A 9737  44.617   2.768   7.950
 4912POPC   C4A 9738  44.631   2.728   7.650
 4912POPC   C1B 9739  44.518   2.940   8.550
 4912POPC   C2B 9740  44.522   2.924   8.250
 4912POPC   C3B 9741  44.534   2.942   7.950
 4912POPC   C4B 9742  44.565   2.954   7.650
 4913POPC   NC3 9743  37.658   5.100   9.450
 4913POPC   PO4 9744  37.662   5.103   9.150
 4913POPC   GL1 9745  37.648   5.105   8.850
 4913POPC   GL2 9746  37.615   5.185   8.850
 4913POPC   C1A 9747  37.645   5.105   8.550
 4913POPC   D2A 9748  37.648   5.130   8.250
 4913POPC   C3A 9749  37.690   5.097   7.950
 4913POPC   C4A 9750  37.655   5.132   7.650
 4913POPC   C1B 9751  37.579   5.319   8.550
 4913POPC   C2B 9752  37.606   5.279   8.250
 4913POPC   C3B 9753  37.554   5.295   7.950
 4913POPC   C4B 9754  37.581   5.295   7.650
 4914POPC   NC3 9755   8.945  29.915   9.450
 4914POPC   PO4 9756   8.972  29.881   9.150
 4914POPC   GL1 9757   8.978  29.888   8.850
 4914POPC   GL2 9758   9.031  29.971   8.850
 4914POPC   C1A 9759   9.015  29.968   8.550
 4914POPC   D2A 9760   8.984  29.918   8.250
 4914POPC   C3A 9761   8.978  29.965   7.950
 4914POPC   C4A 9762   8.978  29.950   7.650
 4914POPC   C1B 9763   9.191  30.051   8.550
 4914POPC   C2B 9764   9.097  30.110   8.250
 4914POPC   C3B 9765   9.137  30.087   7.950
 4914POPC   C4B 9766   9.150  30.126   7.650
 4915POPC   NC3 9767   4.304  24.481   9.450
 4915POPC   PO4 9768   4.324  24.492   9.150
 4915POPC   GL1 9769   4.339  24.485   8.850
 4915POPC   GL2 9770   4.181  24.494   8.850
 4915POPC   C1A 9771   4.321  24.492   8.550
 4915POPC   D2A 9772   4.300  24.483   8.250
 4915POPC   C3A 9773   4.355  24.441   7.950
 4915POPC   C4A 9774   4.278  24.445   7.650
 4915POPC   C1B 9775   4.080  24.548   8.550
 4915POPC   C2B 9776   4.061  24.604   8.250
 4915POPC   C3B 9777   4.031  24.563   7.950
 4915POPC   C4B 9778   4.060  24.512   7.650
 4916POPC   NC3 9779  20.608   5.115   9.450
 4916POPC   PO4 9780  20.636   5.132   9.150
 4916POPC   GL1 9781  20.627   5.103   8.850
 4916POPC   GL2 9782  20.592   5.231   8.850
 4916POPC   C1A 9783  20.614   5.080   8.550
 4916POPC   D2A 9784  20.623   5.141   8.250
 4916POPC   C3A 9785  20.650   5.102   7.950
 4916POPC   C4A 9786  20.638   5.132   7.650
 4916POPC   C1B 9787  20.569   5.361   8.550
 4916POPC   C2B 9788  20.516   5.322   8.250
 4916POPC   C3B 9789  20.532   5.304   7.950
 4916POPC   C4B 9790  20.558   5.309   7.650
 4917POPC   NC3 9791  40.747   2.764   9.450
 4917POPC   PO4 9792  40.773   2.749   9.150
 4917POPC   GL1 9793  40.798   2.761   8.850
 4917POPC   GL2 9794  40.812   2.885   8.850
 4917POPC   C1A 9795  40.810   2.766   8.550
 4917POPC   D2A 9796  40.751   2.788   8.250
 4917POPC   C3A 9797  40.826   2.777   7.950
 4917POPC   C4A 9798  40.772   2.809   7.650
 4917POPC   C1B 9799  40.750   3.062   8.550
 4917POPC   C2B 9800  40.793   3.026   8.250
 4917POPC   C3B 9801  40.740   3.057   7.950
 4917POPC   C4B 9802  40.755   2.978   7.650
 4918POPC   NC3 9803  25.239   6.633   9.450
 4918POPC   PO4 9804  25.257   6.634   9.150
 4918POPC   GL1 9805  25.305   6.675   8.850
 4918POPC   GL2 9806  25.152   6.770   8.850
 4918POPC   C1A 9807  25.283   6.662   8.550
 4918POPC   D2A 9808  25.237   6.600   8.250
 4918POPC   C3A 9809  25.250   6.601   7.950
 4918POPC   C4A 9810  25.217   6.663   7.650
 4918POPC   C1B 9811  25.150   6.886   8.550
 4918POPC   C2B 9812  25.079   6.821   8.250
 4918POPC   C3B 9813  25.071   6.894   7.950
 4918POPC   C4B 9814  25.101   6.823   7.650
 4919POPC   NC3 9815  39.190   1.990   9.450
 4919POPC   PO4 9816  39.271   1.956   9.150
 4919POPC   GL1 9817  39.263   1.997   8.850
 4919POPC   GL2 9818  39.142   1.851   8.850
 4919POPC   C1A 9819  39.245   2.025   8.550
 4919POPC   D2A 9820  39.280   2.023   8.250
 4919POPC   C3A 9821  39.224   1.976   7.950
 4919POPC   C4A 9822  39.249   2.007   7.650
 4919POPC   C1B 9823  39.039   1.764   8.550
 4919POPC   C2B 9824  39.080   1.776   8.250
 4919POPC   C3B 9825  39.095   1.786   7.950
 4919POPC   C4B 9826  39.115   1.832   7.650
 4920POPC   NC3 9827   1.961  36.080   9.450
 4920POPC   PO4 9828   1.964  36.155   9.150
 4920POPC   GL1 9829   1.952  36.131   8.850
 4920POPC   GL2 9830   2.104  36.020   8.850
 4920POPC   C1A 9831   2.003  36.154   8.550
 4920POPC   D2A 9832   1.970  36.092   8.250
 4920POPC   C3A 9833   1.999  36.159   7.950
 4920POPC   C4A 9834   1.974  36.119   7.650
 4920POPC   C1B 9835   2.124  35.938   8.550
 4920POPC   C2B 9836   2.154  35.927   8.250
 4920POPC   C3B 9837   2.179  35.971   7.950
 4920POPC   C4B 9838   2.151  35.950   7.650
 4921POPC   NC3 9839  13.610  12.829   9.450
 4921POPC   PO4 9840  13.644  12.887   9.150
 4921POPC   GL1 9841  13.665  12.838   8.850
 4921POPC   GL2 9842  13.535  12.902   8.850
 4921POPC   C1A 9843  13.588  12.884   8.550
 4921POPC   D2A 9844  13.617  12.837   8.250
 4921POPC   C3A 9845  13.596  12.806   7.950
 4921POPC   C4A 9846  13.590  12.840   7.650
 4921POPC   C1B 9847  13.423  12.893   8.550
 4921POPC   C2B 9848  13.435  12.914   8.250
 4921POPC   C3B 9849  13.425  12.868   7.950
 4921POPC   C4B 9850  13.342  12.945   7.650
 4922POPC   NC3 9851  43.895  36.153   9.450
 4922POPC   PO4 9852  43.868  36.097   9.150
 4922POPC   GL1 9853  43.891  36.141   8.850
 4922POPC   GL2 9854  44.014  36.058   8.850
 4922POPC   C1A 9855  43.896  36.140   8.550
 4922POPC   D2A 9856  43.902  36.143   8.250
 4922POPC   C3A 9857  43.880  36.173   7.950
 4922POPC   C4A 9858  43.897  36.082   7.650
 4922POPC   C1B 9859  44.093  36.020   8.550
 4922POPC   C2B 9860  44.159  36.080   8.250
 4922POPC   C3B 9861  44.115  36.013   7.950
 4922POPC   C4B 9862  44.134  36.007   7.650
 4923POPC   NC3 9863  36.950  25.240   9.450
 4923POPC   PO4 9864  36.949  25.252   9.150
 4923POPC   GL1 9865  36.924  25.293   8.850
 4923POPC   GL2 9866  36.953  25.166   8.850
 4923POPC   C1A 9867  36.941  25.266   8.550
 4923POPC   D2A 9868  36.880  25.303   8.250
 4923POPC   C3A 9869  36.903  25.274   7.950
 4923POPC   C4A 9870  36.883  25.241   7.650
 4923POPC   C1B 9871  36.875  25.009   8.550
 4923POPC   C2B 9872  36.955  24.992   8.250
 4923POPC   C3B 9873  36.888  24.988   7.950
 4923POPC   C4B 9874  36.905  25.032   7.650
 4924POPC   NC3 9875  15.925  43.148   9.450
 4924POPC   PO4 9876  15.999  43.110   9.150
 4924POPC   GL1 9877  16.005  43.107   8.850
 4924POPC   GL2 9878  16.046  43.068   8.850
 4924POPC   C1A 9879  15.981  43.113   8.550
 4924POPC   D2A 9880  15.967  43.089   8.250
 4924POPC   C3A 9881  15.916  43.064   7.950
 4924POPC   C4A 9882  15.927  43.090   7.650
 4924POPC   C1B 9883  16.244  43.116   8.550
 4924POPC   C2B 9884  16.178  43.066   8.250
 4924POPC   C3B 9885  16.231  43.112   7.950
 4924POPC   C4B 9886  16.210  43.105   7.650
 4925POPC   NC3 9887  29.146   9.747   9.450
 4925POPC   PO4 9888  29.175   9.753   9.150
 4925POPC   GL1 9889  29.107   9.708   8.850
 4925POPC   GL2 9890  29.266   9.746   8.850
 4925POPC   C1A 9891  29.180   9.786   8.550
 4925POPC   D2A 9892  29.146   9.796   8.250
 4925POPC   C3A 9893  29.184   9.713   7.950
 4925POPC   C4A 9894  29.113   9.729   7.650
 4925POPC   C1B 9895  29.418   9.845   8.550
 4925POPC   C2B 9896  29.359   9.817   8.250
 4925POPC   C3B 9897  29.360   9.836   7.950
 4925POPC   C4B 9898  29.377   9.798   7.650
 4926POPC   NC3 9899  36.940  44.648   9.450
 4926POPC   PO4 9900  36.908  44.667   9.150
 4926POPC   GL1 9901  36.930  44.658   8.850
 4926POPC   GL2 9902  36.990  44.692   8.850
 4926POPC   C1A 9903  36.945  44.673   8.550
 4926POPC   D2A 9904  36.859  44.642   8.250
 4926POPC   C3A 9905  36.912  44.651   7.950
 4926POPC   C4A 9906  36.934  44.625   7.650
 4926POPC   C1B 9907  37.163  44.717   8.550
 4926POPC   C2B 9908  37.140  44.745   8.250
 4926POPC   C3B 9909  37.166  44.739   7.950
 4926POPC   C4B 9910  37.119  44.757   7.650
 4927POPC   NC3 9911  43.850  38.433   9.450
 4927POPC   PO4 9912  43.877  38.405   9.150
 4927POPC   GL1 9913  43.849  38.409   8.850
 4927POPC   GL2 9914  43.865  38.622   8.850
 4927POPC   C1A 9915  43.856  38.423   8.550
 4927POPC   D2A 9916  43.872  38.423   8.250
 4927POPC   C3A 9917  43.908  38.429   7.950
 4927POPC   C4A 9918  43.857  38.484   7.650
 4927POPC   C1B 9919  43.931  38.739   8.550
 4927POPC   C2B 9920  43.924  38.675   8.250
 4927POPC   C3B 9921  43.893  38.744   7.950
 4927POPC   C4B 9922  43.909  38.690   7.650
 4928POPC   NC3 9923  25.273  18.297   9.450
 4928POPC   PO4 9924  25.234  18.315   9.150
 4928POPC   GL1 9925  25.226  18.270   8.850
 4928POPC   GL2 9926  25.364  18.408   8.850
 4928POPC   C1A 9927  25.241  18.277   8.550
 4928POPC   D2A 9928  25.251  18.290   8.250
 4928POPC   C3A 9929  25.227  18.239   7.950
 4928POPC   C4A 9930  25.242  18.250   7.650
 4928POPC   C1B 9931  25.502  18.467   8.550
 4928POPC   C2B 9932  25.439  18.405   8.250
 4928POPC   C3B 9933  25.490  18.444   7.950
 4928POPC   C4B 9934  25.460  18.429   7.650
 4929POPC   NC3 9935   5.107   5.115   9.450
 4929POPC   PO4 9936   5.120   5.098   9.150
 4929POPC   GL1 9937   5.046   5.084   8.850
 4929POPC   GL2 9938   5.231   5.116   8.850
 4929POPC   C1A 9939   5.043   5.057   8.550
 4929POPC   D2A 9940   5.082   5.138   8.250
 4929POPC   C3A 9941   5.050   5.086   7.950
 4929POPC   C4A 9942   5.084   5.129   7.650
 4929POPC   C1B 9943   5.366   5.188   8.550
 4929POPC   C2B 9944   5.320   5.213   8.250
 4929POPC   C3B 9945   5.284   5.119   7.950
 4929POPC   C4B 9946   5.353   5.170   7.650
 4930POPC   NC3 9947   5.848  22.952   9.450
 4930POPC   PO4 9948   5.890  22.889   9.150
 4930POPC   GL1 9949   5.878  22.914   8.850
 4930POPC   GL2 9950   5.963  22.875   8.850
 4930POPC   C1A 9951   5.899  22.898   8.550
 4930POPC   D2A 9952   5.899  22.966   8.250
 4930POPC   C3A 9953   5.918  22.967   7.950
 4930POPC   C4A 9954   5.839  22.960   7.650
 4930POPC   C1B 9955   6.029  22.774   8.550
 4930POPC   C2B 9956   5.975  22.754   8.250
 4930POPC   C3B 9957   5.973  22.759   7.950
 4930POPC   C4B 9958   5.986  22.763   7.650
 4931POPC   NC3 9959  24.466  33.779   9.450
 4931POPC   PO4 9960  24.500  33.777   9.150
 4931POPC   GL1 9961  24.515  33.848   8.850
 4931POPC   GL2 9962  24.623  33.929   8.850
 4931POPC   C1A 9963  24.527  33.784   8.550
 4931POPC   D2A 9964  24.489  33.839   8.250
 4931POPC   C3A 9965  24.540  33.824   7.950
 4931POPC   C4A 9966  24.523  33.768   7.650
 4931POPC   C1B 9967  24.683  33.934   8.550
 4931POPC   C2B 9968  24.670  33.928   8.250
 4931POPC   C3B 9969  24.672  33.961   7.950
 4931POPC   C4B 9970  24.654  34.007   7.650
 4932POPC   NC3 9971  28.335  11.258   9.450
 4932POPC   PO4 9972  28.321  11.278   9.150
 4932POPC   GL1 9973  28.396  11.269   8.850
 4932POPC   GL2 9974  28.279  11.207   8.850
 4932POPC   C1A 9975  28.333  11.322   8.550
 4932POPC   D2A 9976  28.346  11.270   8.250
 4932POPC   C3A 9977  28.363  11.261   7.950
 4932POPC   C4A 9978  28.329  11.332   7.650
 4932POPC   C1B 9979  28.319  11.017   8.550
 4932POPC   C2B 9980  28.264  11.094   8.250
 4932POPC   C3B 9981  28.241  11.074   7.950
 4932POPC   C4B 9982  28.322  11.014   7.650
 4933POPC   NC3 9983   6.628   1.230   9.450
 4933POPC   PO4 9984   6.680   1.213   9.150
 4933POPC   GL1 9985   6.673   1.249   8.850
 4933POPC   GL2 9986   6.668   1.368   8.850
 4933POPC   C1A 9987   6.632   1.248   8.550
 4933POPC   D2A 9988   6.636   1.207   8.250
 4933POPC   C3A 9989   6.606   1.248   7.950
 4933POPC   C4A 9990   6.675   1.251   7.650
 4933POPC   C1B 9991   6.786   1.417   8.550
 4933POPC   C2B 9992   6.759   1.474   8.250
 4933POPC   C3B 9993   6.764   1.473   7.950
 4933POPC   C4B 9994   6.736   1.433   7.650
 4934POPC   NC3 9995  35.319   6.625   9.450
 4934POPC   PO4 9996  35.334   6.620   9.150
 4934POPC   GL1 9997  35.355   6.671   8.850
 4934POPC   GL2 9998  35.360   6.472   8.850
 4934POPC   C1A 9999  35.344   6.644   8.550
 4934POPC   D2A10000  35.312   6.687   8.250
 4934POPC   C3A10001  35.393   6.670   7.950
 4934POPC   C4A10002  35.315   6.657   7.650
 4934POPC   C1B10003  35.392   6.397   8.550
 4934POPC   C2B10004  35.401   6.350   8.250
 4934POPC   C3B10005  35.359   6.427   7.950
 4934POPC   C4B10006  35.380   6.437   7.650
 4935POPC   NC310007  19.874   8.953   9.450
 4935POPC   PO410008  19.794   9.010   9.150
 4935POPC   GL110009  19.847   8.938   8.850
 4935POPC   GL210010  19.963   8.883   8.850
 4935POPC   C1A10011  19.876   8.937   8.550
 4935POPC   D2A10012  19.877   8.988   8.250
 4935POPC   C3A10013  19.883   8.960   7.950
 4935POPC   C4A10014  19.803   8.936   7.650
 4935POPC   C1B10015  19.988   8.804   8.550
 4935POPC   C2B10016  20.056   8.786   8.250
 4935POPC   C3B10017  19.964   8.837   7.950
 4935POPC   C4B10018  19.976   8.775   7.650
 4936POPC   NC310019  11.337  27.560   9.450
 4936POPC   PO410020  11.254  27.569   9.150
 4936POPC   GL110021  11.336  27.612   8.850
 4936POPC   GL210022  11.297  27.478   8.850
 4936POPC   C1A10023  11.292  27.632   8.550
 4936POPC   D2A10024  11.313  27.641   8.250
 4936POPC   C3A10025  11.257  27.546   7.950
 4936POPC   C4A10026  11.349  27.570   7.650
 4936POPC   C1B10027  11.423  27.369   8.550
 4936POPC   C2B10028  11.397  27.338   8.250
 4936POPC   C3B10029  11.429  27.398   7.950
 4936POPC   C4B10030  11.432  27.328   7.650
 4937POPC   NC310031   0.400   5.902   9.450
 4937POPC   PO410032   0.444   5.849   9.150
 4937POPC   GL110033   0.469   5.823   8.850
 4937POPC   GL210034   0.316   5.954   8.850
 4937POPC   C1A10035   0.430   5.895   8.550
 4937POPC   D2A10036   0.434   5.849   8.250
 4937POPC   C3A10037   0.441   5.908   7.950
 4937POPC   C4A10038   0.424   5.888   7.650
 4937POPC   C1B10039   0.296   6.042   8.550
 4937POPC   C2B10040   0.221   6.073   8.250
 4937POPC   C3B10041   0.262   6.028   7.950
 4937POPC   C4B10042   0.253   6.040   7.650
 4938POPC   NC310043  33.073  32.230   9.450
 4938POPC   PO410044  33.066  32.240   9.150
 4938POPC   GL110045  33.053  32.211   8.850
 4938POPC   GL210046  32.895  32.267   8.850
 4938POPC   C1A10047  33.006  32.235   8.550
 4938POPC   D2A10048  33.038  32.210   8.250
 4938POPC   C3A10049  33.045  32.261   7.950
 4938POPC   C4A10050  33.009  32.268   7.650
 4938POPC   C1B10051  32.837  32.334   8.550
 4938POPC   C2B10052  32.806  32.375   8.250
 4938POPC   C3B10053  32.803  32.378   7.950
 4938POPC   C4B10054  32.748  32.393   7.650
 4939POPC   NC310055  36.890   2.766   9.450
 4939POPC   PO410056  36.936   2.782   9.150
 4939POPC   GL110057  36.899   2.811   8.850
 4939POPC   GL210058  36.946   2.873   8.850
 4939POPC   C1A10059  36.900   2.772   8.550
 4939POPC   D2A10060  36.911   2.744   8.250
 4939POPC   C3A10061  36.897   2.802   7.950
 4939POPC   C4A10062  36.896   2.806   7.650
 4939POPC   C1B10063  37.026   2.975   8.550
 4939POPC   C2B10064  36.985   2.969   8.250
 4939POPC   C3B10065  37.010   2.973   7.950
 4939POPC   C4B10066  36.990   2.946   7.650
 4940POPC   NC310067  19.052  39.246   9.450
 4940POPC   PO410068  19.048  39.223   9.150
 4940POPC   GL110069  19.009  39.238   8.850
 4940POPC   GL210070  19.154  39.296   8.850
 4940POPC   C1A10071  19.071  39.188   8.550
 4940POPC   D2A10072  19.065  39.248   8.250
 4940POPC   C3A10073  19.028  39.269   7.950
 4940POPC   C4A10074  19.069  39.248   7.650
 4940POPC   C1B10075  19.199  39.439   8.550
 4940POPC   C2B10076  19.145  39.443   8.250
 4940POPC   C3B10077  19.222  39.496   7.950
 4940POPC   C4B10078  19.200  39.407   7.650
 4941POPC   NC310079  41.526  19.828   9.450
 4941POPC   PO410080  41.538  19.858   9.150
 4941POPC   GL110081  41.510  19.813   8.850
 4941POPC   GL210082  41.696  19.945   8.850
 4941POPC   C1A10083  41.594  19.796   8.550
 4941POPC   D2A10084  41.528  19.859   8.250
 4941POPC   C3A10085  41.568  19.831   7.950
 4941POPC   C4A10086  41.608  19.839   7.650
 4941POPC   C1B10087  41.746  19.979   8.550
 4941POPC   C2B10088  41.786  19.980   8.250
 4941POPC   C3B10089  41.767  19.954   7.950
 4941POPC   C4B10090  41.733  19.925   7.650
 4942POPC   NC310091   7.420  29.914   9.450
 4942POPC   PO410092   7.461  29.881   9.150
 4942POPC   GL110093   7.470  29.919   8.850
 4942POPC   GL210094   7.509  29.852   8.850
 4942POPC   C1A10095   7.419  29.939   8.550
 4942POPC   D2A10096   7.447  29.937   8.250
 4942POPC   C3A10097   7.425  29.924   7.950
 4942POPC   C4A10098   7.381  29.958   7.650
 4942POPC   C1B10099   7.600  29.725   8.550
 4942POPC   C2B10100   7.626  29.793   8.250
 4942POPC   C3B10101   7.634  29.747   7.950
 4942POPC   C4B10102   7.584  29.798   7.650
 4943POPC   NC310103  14.365  29.947   9.450
 4943POPC   PO410104  14.388  29.949   9.150
 4943POPC   GL110105  14.386  29.892   8.850
 4943POPC   GL210106  14.375  30.016   8.850
 4943POPC   C1A10107  14.394  29.924   8.550
 4943POPC   D2A10108  14.439  29.910   8.250
 4943POPC   C3A10109  14.362  29.874   7.950
 4943POPC   C4A10110  14.367  29.925   7.650
 4943POPC   C1B10111  14.279  30.104   8.550
 4943POPC   C2B10112  14.291  30.113   8.250
 4943POPC   C3B10113  14.343  30.191   7.950
 4943POPC   C4B10114  14.302  30.163   7.650
 4944POPC   NC310115   2.001  43.872   9.450
 4944POPC   PO410116   2.025  43.844   9.150
 4944POPC   GL110117   1.957  43.890   8.850
 4944POPC   GL210118   1.907  43.921   8.850
 4944POPC   C1A10119   1.996  43.887   8.550
 4944POPC   D2A10120   2.018  43.936   8.250
 4944POPC   C3A10121   2.036  43.904   7.950
 4944POPC   C4A10122   2.006  43.864   7.650
 4944POPC   C1B10123   1.722  43.879   8.550
 4944POPC   C2B10124   1.695  43.880   8.250
 4944POPC   C3B10125   1.787  43.883   7.950
 4944POPC   C4B10126   1.726  43.898   7.650
 4945POPC   NC310127   1.992  31.521   9.450
 4945POPC   PO410128   2.039  31.508   9.150
 4945POPC   GL110129   2.004  31.454   8.850
 4945POPC   GL210130   1.939  31.340   8.850
 4945POPC   C1A10131   1.976  31.498   8.550
 4945POPC   D2A10132   2.037  31.429   8.250
 4945POPC   C3A10133   2.001  31.478   7.950
 4945POPC   C4A10134   2.016  31.500   7.650
 4945POPC   C1B10135   1.933  31.270   8.550
 4945POPC   C2B10136   1.960  31.215   8.250
 4945POPC   C3B10137   1.945  31.261   7.950
 4945POPC   C4B10138   1.920  31.229   7.650
 4946POPC   NC310139   9.017   3.520   9.450
 4946POPC   PO410140   8.970   3.538   9.150
 4946POPC   GL110141   8.946   3.553   8.850
 4946POPC   GL210142   8.933   3.688   8.850
 4946POPC   C1A10143   8.987   3.520   8.550
 4946POPC   D2A10144   9.008   3.497   8.250
 4946POPC   C3A10145   9.011   3.586   7.950
 4946POPC   C4A10146   8.973   3.577   7.650
 4946POPC   C1B10147   9.036   3.785   8.550
 4946POPC   C2B10148   8.963   3.774   8.250
 4946POPC   C3B10149   8.948   3.813   7.950
 4946POPC   C4B10150   8.987   3.799   7.650
 4947POPC   NC310151   0.409  27.597   9.450
 4947POPC   PO410152   0.394  27.626   9.150
 4947POPC   GL110153   0.485  27.626   8.850
 4947POPC   GL210154   0.389  27.745   8.850
 4947POPC   C1A10155   0.487  27.622   8.550
 4947POPC   D2A10156   0.391  27.623   8.250
 4947POPC   C3A10157   0.399  27.601   7.950
 4947POPC   C4A10158   0.421  27.601   7.650
 4947POPC   C1B10159   0.429  27.816   8.550
 4947POPC   C2B10160   0.412  27.815   8.250
 4947POPC   C3B10161   0.422  27.883   7.950
 4947POPC   C4B10162   0.418  27.863   7.650
 4948POPC   NC310163  41.599  23.685   9.450
 4948POPC   PO410164  41.601  23.697   9.150
 4948POPC   GL110165  41.517  23.730   8.850
 4948POPC   GL210166  41.459  23.752   8.850
 4948POPC   C1A10167  41.573  23.670   8.550
 4948POPC   D2A10168  41.564  23.674   8.250
 4948POPC   C3A10169  41.603  23.669   7.950
 4948POPC   C4A10170  41.529  23.670   7.650
 4948POPC   C1B10171  41.292  23.775   8.550
 4948POPC   C2B10172  41.299  23.774   8.250
 4948POPC   C3B10173  41.286  23.711   7.950
 4948POPC   C4B10174  41.342  23.774   7.650
 4949POPC   NC310175   7.448  35.390   9.450
 4949POPC   PO410176   7.438  35.389   9.150
 4949POPC   GL110177   7.423  35.357   8.850
 4949POPC   GL210178   7.382  35.246   8.850
 4949POPC   C1A10179   7.396  35.369   8.550
 4949POPC   D2A10180   7.398  35.338   8.250
 4949POPC   C3A10181   7.392  35.366   7.950
 4949POPC   C4A10182   7.382  35.340   7.650
 4949POPC   C1B10183   7.275  35.102   8.550
 4949POPC   C2B10184   7.316  35.095   8.250
 4949POPC   C3B10185   7.336  35.117   7.950
 4949POPC   C4B10186   7.341  35.165   7.650
 4950POPC   NC310187  36.160  15.184   9.450
 4950POPC   PO410188  36.156  15.151   9.150
 4950POPC   GL110189  36.163  15.135   8.850
 4950POPC   GL210190  36.249  15.293   8.850
 4950POPC   C1A10191  36.108  15.167   8.550
 4950POPC   D2A10192  36.100  15.148   8.250
 4950POPC   C3A10193  36.110  15.151   7.950
 4950POPC   C4A10194  36.178  15.205   7.650
 4950POPC   C1B10195  36.324  15.373   8.550
 4950POPC   C2B10196  36.308  15.377   8.250
 4950POPC   C3B10197  36.358  15.381   7.950
 4950POPC   C4B10198  36.367  15.363   7.650
 4951POPC   NC310199  23.753  27.622   9.450
 4951POPC   PO410200  23.718  27.619   9.150
 4951POPC   GL110201  23.728  27.628   8.850
 4951POPC   GL210202  23.791  27.582   8.850
 4951POPC   C1A10203  23.687  27.563   8.550
 4951POPC   D2A10204  23.725  27.607   8.250
 4951POPC   C3A10205  23.692  27.624   7.950
 4951POPC   C4A10206  23.745  27.558   7.650
 4951POPC   C1B10207  23.932  27.527   8.550
 4951POPC   C2B10208  23.905  27.480   8.250
 4951POPC   C3B10209  23.985  27.535   7.950
 4951POPC   C4B10210  23.944  27.504   7.650
 4952POPC   NC310211   6.695   2.754   9.450
 4952POPC   PO410212   6.636   2.795   9.150
 4952POPC   GL110213   6.675   2.723   8.850
 4952POPC   GL210214   6.582   2.888   8.850
 4952POPC   C1A10215   6.663   2.779   8.550
 4952POPC   D2A10216   6.669   2.759   8.250
 4952POPC   C3A10217   6.657   2.790   7.950
 4952POPC   C4A10218   6.644   2.791   7.650
 4952POPC   C1B10219   6.403   2.873   8.550
 4952POPC   C2B10220   6.436   2.942   8.250
 4952POPC   C3B10221   6.476   2.915   7.950
 4952POPC   C4B10222   6.459   2.924   7.650
 4953POPC   NC310223   0.468  40.792   9.450
 4953POPC   PO410224   0.411  40.816   9.150
 4953POPC   GL110225   0.420  40.737   8.850
 4953POPC   GL210226   0.288  40.832   8.850
 4953POPC   C1A10227   0.480  40.787   8.550
 4953POPC   D2A10228   0.402  40.821   8.250
 4953POPC   C3A10229   0.434  40.801   7.950
 4953POPC   C4A10230   0.438  40.793   7.650
 4953POPC   C1B10231   0.146  40.816   8.550
 4953POPC   C2B10232   0.145  40.792   8.250
 4953POPC   C3B10233   0.225  40.751   7.950
 4953POPC   C4B10234   0.233  40.752   7.650
 4954POPC   NC310235  33.017   6.642   9.450
 4954POPC   PO410236  33.051   6.653   9.150
 4954POPC   GL110237  33.010   6.660   8.850
 4954POPC   GL210238  33.011   6.562   8.850
 4954POPC   C1A10239  33.053   6.675   8.550
 4954POPC   D2A10240  33.070   6.654   8.250
 4954POPC   C3A10241  33.028   6.626   7.950
 4954POPC   C4A10242  32.977   6.652   7.650
 4954POPC   C1B10243  32.956   6.379   8.550
 4954POPC   C2B10244  33.005   6.430   8.250
 4954POPC   C3B10245  33.036   6.445   7.950
 4954POPC   C4B10246  32.983   6.367   7.650
 4955POPC   NC310247   4.305   8.164   9.450
 4955POPC   PO410248   4.321   8.152   9.150
 4955POPC   GL110249   4.361   8.151   8.850
 4955POPC   GL210250   4.258   8.279   8.850
 4955POPC   C1A10251   4.326   8.204   8.550
 4955POPC   D2A10252   4.283   8.211   8.250
 4955POPC   C3A10253   4.274   8.187   7.950
 4955POPC   C4A10254   4.272   8.232   7.650
 4955POPC   C1B10255   4.330   8.489   8.550
 4955POPC   C2B10256   4.249   8.415   8.250
 4955POPC   C3B10257   4.255   8.429   7.950
 4955POPC   C4B10258   4.298   8.441   7.650
 4956POPC   NC310259  36.120  19.875   9.450
 4956POPC   PO410260  36.165  19.821   9.150
 4956POPC   GL110261  36.134  19.837   8.850
 4956POPC   GL210262  36.142  19.976   8.850
 4956POPC   C1A10263  36.129  19.872   8.550
 4956POPC   D2A10264  36.174  19.828   8.250
 4956POPC   C3A10265  36.166  19.847   7.950
 4956POPC   C4A10266  36.136  19.860   7.650
 4956POPC   C1B10267  36.088  20.074   8.550
 4956POPC   C2B10268  36.108  20.113   8.250
 4956POPC   C3B10269  36.039  20.074   7.950
 4956POPC   C4B10270  36.036  20.074   7.650
 4957POPC   NC310271  43.131   0.445   9.450
 4957POPC   PO410272  43.135   0.429   9.150
 4957POPC   GL110273  43.061   0.448   8.850
 4957POPC   GL210274  43.023   0.409   8.850
 4957POPC   C1A10275  43.127   0.468   8.550
 4957POPC   D2A10276  43.156   0.406   8.250
 4957POPC   C3A10277  43.130   0.439   7.950
 4957POPC   C4A10278  43.096   0.416   7.650
 4957POPC   C1B10279  42.896   0.480   8.550
 4957POPC   C2B10280  42.888   0.503   8.250
 4957POPC   C3B10281  42.904   0.417   7.950
 4957POPC   C4B10282  42.849   0.448   7.650
 4958POPC   NC310283  41.521  28.334   9.450
 4958POPC   PO410284  41.528  28.413   9.150
 4958POPC   GL110285  41.600  28.322   8.850
 4958POPC   GL210286  41.399  28.404   8.850
 4958POPC   C1A10287  41.549  28.339   8.550
 4958POPC   D2A10288  41.593  28.329   8.250
 4958POPC   C3A10289  41.608  28.346   7.950
 4958POPC   C4A10290  41.543  28.399   7.650
 4958POPC   C1B10291  41.284  28.425   8.550
 4958POPC   C2B10292  41.330  28.448   8.250
 4958POPC   C3B10293  41.353  28.451   7.950
 4958POPC   C4B10294  41.324  28.454   7.650
 4959POPC   NC310295  21.380  44.670   9.450
 4959POPC   PO410296  21.424  44.621   9.150
 4959POPC   GL110297  21.433  44.640   8.850
 4959POPC   GL210298  21.500  44.650   8.850
 4959POPC   C1A10299  21.408  44.655   8.550
 4959POPC   D2A10300  21.399  44.701   8.250
 4959POPC   C3A10301  21.348  44.638   7.950
 4959POPC   C4A10302  21.429  44.642   7.650
 4959POPC   C1B10303  21.613  44.629   8.550
 4959POPC   C2B10304  21.644  44.625   8.250
 4959POPC   C3B10305  21.617  44.654   7.950
 4959POPC   C4B10306  21.634  44.633   7.650
 4960POPC   NC310307  24.475   2.772   9.450
 4960POPC   PO410308  24.529   2.767   9.150
 4960POPC   GL110309  24.524   2.748   8.850
 4960POPC   GL210310  24.473   2.669   8.850
 4960POPC   C1A10311  24.444   2.746   8.550
 4960POPC   D2A10312  24.503   2.757   8.250
 4960POPC   C3A10313  24.446   2.780   7.950
 4960POPC   C4A10314  24.461   2.778   7.650
 4960POPC   C1B10315  24.443   2.516   8.550
 4960POPC   C2B10316  24.403   2.544   8.250
 4960POPC   C3B10317  24.481   2.550   7.950
 4960POPC   C4B10318  24.445   2.525   7.650
 4961POPC   NC310319  44.638  26.066   9.450
 4961POPC   PO410320  44.662  26.051   9.150
 4961POPC   GL110321  44.627  26.032   8.850
 4961POPC   GL210322  44.588  26.041   8.850
 4961POPC   C1A10323  44.649  26.014   8.550
 4961POPC   D2A10324  44.702  26.074   8.250
 4961POPC   C3A10325  44.632  25.998   7.950
 4961POPC   C4A10326  44.680  26.052   7.650
 4961POPC   C1B10327  44.411  26.129   8.550
 4961POPC   C2B10328  44.413  26.082   8.250
 4961POPC   C3B10329  44.470  26.137   7.950
 4961POPC   C4B10330  44.430  26.103   7.650
 4962POPC   NC310331  25.216  39.975   9.450
 4962POPC   PO410332  25.220  39.966   9.150
 4962POPC   GL110333  25.281  39.992   8.850
 4962POPC   GL210334  25.358  40.126   8.850
 4962POPC   C1A10335  25.314  40.019   8.550
 4962POPC   D2A10336  25.312  40.023   8.250
 4962POPC   C3A10337  25.282  40.053   7.950
 4962POPC   C4A10338  25.296  40.044   7.650
 4962POPC   C1B10339  25.453  40.163   8.550
 4962POPC   C2B10340  25.467  40.121   8.250
 4962POPC   C3B10341  25.454  40.167   7.950
 4962POPC   C4B10342  25.431  40.194   7.650
 4963POPC   NC310343   1.975  26.037   9.450
 4963POPC   PO410344   1.959  26.086   9.150
 4963POPC   GL110345   2.017  26.077   8.850
 4963POPC   GL210346   2.095  26.113   8.850
 4963POPC   C1A10347   1.947  26.074   8.550
 4963POPC   D2A10348   1.947  26.078   8.250
 4963POPC   C3A10349   1.997  26.065   7.950
 4963POPC   C4A10350   1.950  26.034   7.650
 4963POPC   C1B10351   2.231  26.115   8.550
 4963POPC   C2B10352   2.211  26.115   8.250
 4963POPC   C3B10353   2.240  26.100   7.950
 4963POPC   C4B10354   2.191  26.097   7.650
 4964POPC   NC310355  28.345  10.547   9.450
 4964POPC   PO410356  28.386  10.551   9.150
 4964POPC   GL110357  28.390  10.517   8.850
 4964POPC   GL210358  28.346  10.433   8.850
 4964POPC   C1A10359  28.385  10.562   8.550
 4964POPC   D2A10360  28.354  10.572   8.250
 4964POPC   C3A10361  28.355  10.549   7.950
 4964POPC   C4A10362  28.406  10.554   7.650
 4964POPC   C1B10363  28.358  10.238   8.550
 4964POPC   C2B10364  28.375  10.236   8.250
 4964POPC   C3B10365  28.407  10.284   7.950
 4964POPC   C4B10366  28.335  10.286   7.650
 4965POPC   NC310367   2.813  25.245   9.450
 4965POPC   PO410368   2.752  25.222   9.150
 4965POPC   GL110369   2.796  25.289   8.850
 4965POPC   GL210370   2.905  25.156   8.850
 4965POPC   C1A10371   2.739  25.227   8.550
 4965POPC   D2A10372   2.769  25.264   8.250
 4965POPC   C3A10373   2.782  25.268   7.950
 4965POPC   C4A10374   2.775  25.275   7.650
 4965POPC   C1B10375   2.987  25.078   8.550
 4965POPC   C2B10376   2.914  25.106   8.250
 4965POPC   C3B10377   2.944  25.151   7.950
 4965POPC   C4B10378   2.984  25.142   7.650
 4966POPC   NC310379  33.051  29.102   9.450
 4966POPC   PO410380  33.004  29.188   9.150
 4966POPC   GL110381  33.009  29.104   8.850
 4966POPC   GL210382  32.925  29.011   8.850
 4966POPC   C1A10383  33.025  29.131   8.550
 4966POPC   D2A10384  33.062  29.143   8.250
 4966POPC   C3A10385  33.042  29.108   7.950
 4966POPC   C4A10386  32.982  29.180   7.650
 4966POPC   C1B10387  32.868  28.965   8.550
 4966POPC   C2B10388  32.882  28.937   8.250
 4966POPC   C3B10389  32.850  28.934   7.950
 4966POPC   C4B10390  32.880  28.946   7.650
 4967POPC   NC310391  36.108  25.256   9.450
 4967POPC   PO410392  36.132  25.307   9.150
 4967POPC   GL110393  36.104  25.282   8.850
 4967POPC   GL210394  36.205  25.236   8.850
 4967POPC   C1A10395  36.101  25.242   8.550
 4967POPC   D2A10396  36.113  25.292   8.250
 4967POPC   C3A10397  36.094  25.266   7.950
 4967POPC   C4A10398  36.133  25.270   7.650
 4967POPC   C1B10399  36.351  25.201   8.550
 4967POPC   C2B10400  36.404  25.221   8.250
 4967POPC   C3B10401  36.381  25.239   7.950
 4967POPC   C4B10402  36.321  25.184   7.650
 4968POPC   NC310403  24.507  28.415   9.450
 4968POPC   PO410404  24.480  28.343   9.150
 4968POPC   GL110405  24.472  28.371   8.850
 4968POPC   GL210406  24.541  28.515   8.850
 4968POPC   C1A10407  24.507  28.409   8.550
 4968POPC   D2A10408  24.487  28.387   8.250
 4968POPC   C3A10409  24.514  28.351   7.950
 4968POPC   C4A10410  24.490  28.323   7.650
 4968POPC   C1B10411  24.588  28.622   8.550
 4968POPC   C2B10412  24.562  28.622   8.250
 4968POPC   C3B10413  24.607  28.571   7.950
 4968POPC   C4B10414  24.532  28.622   7.650
 4969POPC   NC310415  30.716  27.641   9.450
 4969POPC   PO410416  30.695  27.619   9.150
 4969POPC   GL110417  30.745  27.632   8.850
 4969POPC   GL210418  30.569  27.639   8.850
 4969POPC   C1A10419  30.731  27.566   8.550
 4969POPC   D2A10420  30.723  27.558   8.250
 4969POPC   C3A10421  30.675  27.579   7.950
 4969POPC   C4A10422  30.672  27.611   7.650
 4969POPC   C1B10423  30.532  27.809   8.550
 4969POPC   C2B10424  30.564  27.755   8.250
 4969POPC   C3B10425  30.566  27.770   7.950
 4969POPC   C4B10426  30.558  27.809   7.650
 4970POPC   NC310427  22.117  22.895   9.450
 4970POPC   PO410428  22.196  22.935   9.150
 4970POPC   GL110429  22.132  22.949   8.850
 4970POPC   GL210430  22.276  23.023   8.850
 4970POPC   C1A10431  22.210  22.927   8.550
 4970POPC   D2A10432  22.126  22.950   8.250
 4970POPC   C3A10433  22.174  22.908   7.950
 4970POPC   C4A10434  22.171  22.891   7.650
 4970POPC   C1B10435  22.322  23.134   8.550
 4970POPC   C2B10436  22.259  23.134   8.250
 4970POPC   C3B10437  22.342  23.149   7.950
 4970POPC   C4B10438  22.285  23.109   7.650
 4971POPC   NC310439  22.127   5.132   9.450
 4971POPC   PO410440  22.165   5.070   9.150
 4971POPC   GL110441  22.197   5.126   8.850
 4971POPC   GL210442  22.105   5.025   8.850
 4971POPC   C1A10443  22.209   5.120   8.550
 4971POPC   D2A10444  22.143   5.116   8.250
 4971POPC   C3A10445  22.159   5.062   7.950
 4971POPC   C4A10446  22.135   5.099   7.650
 4971POPC   C1B10447  22.107   4.882   8.550
 4971POPC   C2B10448  22.094   4.837   8.250
 4971POPC   C3B10449  22.061   4.847   7.950
 4971POPC   C4B10450  22.098   4.843   7.650
 4972POPC   NC310451  34.617   2.807   9.450
 4972POPC   PO410452  34.580   2.771   9.150
 4972POPC   GL110453  34.585   2.791   8.850
 4972POPC   GL210454  34.701   2.772   8.850
 4972POPC   C1A10455  34.623   2.726   8.550
 4972POPC   D2A10456  34.579   2.743   8.250
 4972POPC   C3A10457  34.533   2.796   7.950
 4972POPC   C4A10458  34.615   2.748   7.650
 4972POPC   C1B10459  34.805   2.693   8.550
 4972POPC   C2B10460  34.782   2.706   8.250
 4972POPC   C3B10461  34.851   2.649   7.950
 4972POPC   C4B10462  34.809   2.708   7.650
 4973POPC   NC310463  29.109  19.801   9.450
 4973POPC   PO410464  29.157  19.807   9.150
 4973POPC   GL110465  29.144  19.821   8.850
 4973POPC   GL210466  28.996  19.826   8.850
 4973POPC   C1A10467  29.192  19.806   8.550
 4973POPC   D2A10468  29.128  19.851   8.250
 4973POPC   C3A10469  29.115  19.804   7.950
 4973POPC   C4A10470  29.132  19.864   7.650
 4973POPC   C1B10471  28.919  19.871   8.550
 4973POPC   C2B10472  28.912  19.895   8.250
 4973POPC   C3B10473  28.877  19.886   7.950
 4973POPC   C4B10474  28.942  19.900   7.650
 4974POPC   NC310475  31.505   1.186   9.450
 4974POPC   PO410476  31.474   1.233   9.150
 4974POPC   GL110477  31.508   1.165   8.850
 4974POPC   GL210478  31.319   1.130   8.850
 4974POPC   C1A10479  31.489   1.172   8.550
 4974POPC   D2A10480  31.478   1.250   8.250
 4974POPC   C3A10481  31.423   1.260   7.950
 4974POPC   C4A10482  31.443   1.237   7.650
 4974POPC   C1B10483  31.241   1.130   8.550
 4974POPC   C2B10484  31.234   1.114   8.250
 4974POPC   C3B10485  31.233   1.096   7.950
 4974POPC   C4B10486  31.207   1.124   7.650
 4975POPC   NC310487  18.295  20.565   9.450
 4975POPC   PO410488  18.298  20.634   9.150
 4975POPC   GL110489  18.304  20.600   8.850
 4975POPC   GL210490  18.293  20.698   8.850
 4975POPC   C1A10491  18.278  20.640   8.550
 4975POPC   D2A10492  18.288  20.596   8.250
 4975POPC   C3A10493  18.283  20.621   7.950
 4975POPC   C4A10494  18.278  20.624   7.650
 4975POPC   C1B10495  18.291  20.846   8.550
 4975POPC   C2B10496  18.304  20.840   8.250
 4975POPC   C3B10497  18.347  20.881   7.950
 4975POPC   C4B10498  18.325  20.873   7.650
 4976POPC   NC310499  32.199  28.407   9.450
 4976POPC   PO410500  32.261  28.372   9.150
 4976POPC   GL110501  32.205  28.417   8.850
 4976POPC   GL210502  32.361  28.441   8.850
 4976POPC   C1A10503  32.265  28.356   8.550
 4976POPC   D2A10504  32.218  28.321   8.250
 4976POPC   C3A10505  32.244  28.377   7.950
 4976POPC   C4A10506  32.281  28.339   7.650
 4976POPC   C1B10507  32.390  28.553   8.550
 4976POPC   C2B10508  32.358  28.533   8.250
 4976POPC   C3B10509  32.421  28.532   7.950
 4976POPC   C4B10510  32.368  28.558   7.650
 4977POPC   NC310511  12.108   2.008   9.450
 4977POPC   PO410512  12.093   1.952   9.150
 4977POPC   GL110513  12.066   2.039   8.850
 4977POPC   GL210514  12.010   2.019   8.850
 4977POPC   C1A10515  12.070   2.006   8.550
 4977POPC   D2A10516  12.121   1.941   8.250
 4977POPC   C3A10517  12.097   1.954   7.950
 4977POPC   C4A10518  12.118   1.965   7.650
 4977POPC   C1B10519  11.868   2.099   8.550
 4977POPC   C2B10520  11.890   2.100   8.250
 4977POPC   C3B10521  11.865   2.127   7.950
 4977POPC   C4B10522  11.865   2.193   7.650
 4978POPC   NC310523  28.380  40.007   9.450
 4978POPC   PO410524  28.353  39.993   9.150
 4978POPC   GL110525  28.360  39.957   8.850
 4978POPC   GL210526  28.285  39.957   8.850
 4978POPC   C1A10527  28.417  40.050   8.550
 4978POPC   D2A10528  28.396  39.976   8.250
 4978POPC   C3A10529  28.417  39.965   7.950
 4978POPC   C4A10530  28.415  40.026   7.650
 4978POPC   C1B10531  28.094  39.970   8.550
 4978POPC   C2B10532  28.072  39.996   8.250
 4978POPC   C3B10533  28.118  40.034   7.950
 4978POPC   C4B10534  28.085  39.961   7.650
 4979POPC   NC310535  22.982  36.173   9.450
 4979POPC   PO410536  22.985  36.142   9.150
 4979POPC   GL110537  22.903  36.078   8.850
 4979POPC   GL210538  22.968  36.207   8.850
 4979POPC   C1A10539  22.930  36.132   8.550
 4979POPC   D2A10540  22.987  36.132   8.250
 4979POPC   C3A10541  22.980  36.085   7.950
 4979POPC   C4A10542  22.933  36.123   7.650
 4979POPC   C1B10543  23.109  36.330   8.550
 4979POPC   C2B10544  23.092  36.341   8.250
 4979POPC   C3B10545  23.056  36.278   7.950
 4979POPC   C4B10546  23.040  36.323   7.650
 4980POPC   NC310547  36.161  18.274   9.450
 4980POPC   PO410548  36.120  18.248   9.150
 4980POPC   GL110549  36.175  18.327   8.850
 4980POPC   GL210550  35.995  18.402   8.850
 4980POPC   C1A10551  36.177  18.297   8.550
 4980POPC   D2A10552  36.125  18.239   8.250
 4980POPC   C3A10553  36.083  18.245   7.950
 4980POPC   C4A10554  36.104  18.277   7.650
 4980POPC   C1B10555  35.910  18.484   8.550
 4980POPC   C2B10556  35.985  18.463   8.250
 4980POPC   C3B10557  35.920  18.454   7.950
 4980POPC   C4B10558  35.903  18.470   7.650
 4981POPC   NC310559   2.801  37.697   9.450
 4981POPC   PO410560   2.806  37.713   9.150
 4981POPC   GL110561   2.810  37.721   8.850
 4981POPC   GL210562   2.651  37.614   8.850
 4981POPC   C1A10563   2.743  37.724   8.550
 4981POPC   D2A10564   2.721  37.636   8.250
 4981POPC   C3A10565   2.810  37.711   7.950
 4981POPC   C4A10566   2.727  37.706   7.650
 4981POPC   C1B10567   2.602  37.513   8.550
 4981POPC   C2B10568   2.598  37.509   8.250
 4981POPC   C3B10569   2.618  37.499   7.950
 4981POPC   C4B10570   2.609  37.486   7.650
 4982POPC   NC310571   7.412  23.687   9.450
 4982POPC   PO410572   7.440  23.742   9.150
 4982POPC   GL110573   7.408  23.751   8.850
 4982POPC   GL210574   7.294  23.795   8.850
 4982POPC   C1A10575   7.467  23.686   8.550
 4982POPC   D2A10576   7.468  23.754   8.250
 4982POPC   C3A10577   7.406  23.757   7.950
 4982POPC   C4A10578   7.455  23.716   7.650
 4982POPC   C1B10579   7.223  23.842   8.550
 4982POPC   C2B10580   7.184  23.877   8.250
 4982POPC   C3B10581   7.168  23.839   7.950
 4982POPC   C4B10582   7.232  23.808   7.650
 4983POPC   NC310583   9.745  26.087   9.450
 4983POPC   PO410584   9.742  26.052   9.150
 4983POPC   GL110585   9.760  26.044   8.850
 4983POPC   GL210586   9.665  25.984   8.850
 4983POPC   C1A10587   9.707  26.052   8.550
 4983POPC   D2A10588   9.729  26.087   8.250
 4983POPC   C3A10589   9.769  26.001   7.950
 4983POPC   C4A10590   9.720  26.065   7.650
 4983POPC   C1B10591   9.529  25.858   8.550
 4983POPC   C2B10592   9.564  25.831   8.250
 4983POPC   C3B10593   9.617  25.892   7.950
 4983POPC   C4B10594   9.627  25.865   7.650
 4984POPC   NC310595  42.322  16.694   9.450
 4984POPC   PO410596  42.336  16.775   9.150
 4984POPC   GL110597  42.377  16.731   8.850
 4984POPC   GL210598  42.390  16.848   8.850
 4984POPC   C1A10599  42.293  16.768   8.550
 4984POPC   D2A10600  42.376  16.780   8.250
 4984POPC   C3A10601  42.337  16.709   7.950
 4984POPC   C4A10602  42.383  16.716   7.650
 4984POPC   C1B10603  42.553  16.950   8.550
 4984POPC   C2B10604  42.535  16.945   8.250
 4984POPC   C3B10605  42.544  16.949   7.950
 4984POPC   C4B10606  42.538  16.885   7.650
 4985POPC   NC310607  33.064  12.834   9.450
 4985POPC   PO410608  33.053  12.882   9.150
 4985POPC   GL110609  33.009  12.853   8.850
 4985POPC   GL210610  33.080  12.698   8.850
 4985POPC   C1A10611  32.999  12.845   8.550
 4985POPC   D2A10612  33.003  12.878   8.250
 4985POPC   C3A10613  33.066  12.803   7.950
 4985POPC   C4A10614  33.030  12.885   7.650
 4985POPC   C1B10615  33.172  12.680   8.550
 4985POPC   C2B10616  33.206  12.591   8.250
 4985POPC   C3B10617  33.111  12.687   7.950
 4985POPC   C4B10618  33.166  12.617   7.650
 4986POPC   NC310619  11.319   0.397   9.450
 4986POPC   PO410620  11.253   0.476   9.150
 4986POPC   GL110621  11.279   0.441   8.850
 4986POPC   GL210622  11.172   0.440   8.850
 4986POPC   C1A10623  11.306   0.461   8.550
 4986POPC   D2A10624  11.271   0.431   8.250
 4986POPC   C3A10625  11.323   0.410   7.950
 4986POPC   C4A10626  11.300   0.461   7.650
 4986POPC   C1B10627  11.029   0.372   8.550
 4986POPC   C2B10628  11.079   0.405   8.250
 4986POPC   C3B10629  11.021   0.364   7.950
 4986POPC   C4B10630  11.092   0.430   7.650
 4987POPC   NC310631  43.108  12.804   9.450
 4987POPC   PO410632  43.077  12.821   9.150
 4987POPC   GL110633  43.121  12.845   8.850
 4987POPC   GL210634  43.026  12.950   8.850
 4987POPC   C1A10635  43.119  12.839   8.550
 4987POPC   D2A10636  43.066  12.843   8.250
 4987POPC   C3A10637  43.131  12.818   7.950
 4987POPC   C4A10638  43.138  12.838   7.650
 4987POPC   C1B10639  43.061  13.058   8.550
 4987POPC   C2B10640  43.050  13.129   8.250
 4987POPC   C3B10641  43.062  13.037   7.950
 4987POPC   C4B10642  43.060  13.063   7.650
 4988POPC   NC310643  26.054   4.285   9.450
 4988POPC   PO410644  25.998   4.306   9.150
 4988POPC   GL110645  26.012   4.282   8.850
 4988POPC   GL210646  26.083   4.400   8.850
 4988POPC   C1A10647  26.030   4.360   8.550
 4988POPC   D2A10648  26.007   4.297   8.250
 4988POPC   C3A10649  26.057   4.285   7.950
 4988POPC   C4A10650  26.039   4.343   7.650
 4988POPC   C1B10651  26.085   4.584   8.550
 4988POPC   C2B10652  26.155   4.561   8.250
 4988POPC   C3B10653  26.136   4.602   7.950
 4988POPC   C4B10654  26.133   4.559   7.650
 4989POPC   NC310655   8.186  40.742   9.450
 4989POPC   PO410656   8.211  40.754   9.150
 4989POPC   GL110657   8.233  40.770   8.850
 4989POPC   GL210658   8.200  40.641   8.850
 4989POPC   C1A10659   8.213  40.795   8.550
 4989POPC   D2A10660   8.170  40.793   8.250
 4989POPC   C3A10661   8.212  40.806   7.950
 4989POPC   C4A10662   8.196  40.826   7.650
 4989POPC   C1B10663   8.108  40.535   8.550
 4989POPC   C2B10664   8.116  40.570   8.250
 4989POPC   C3B10665   8.087  40.542   7.950
 4989POPC   C4B10666   8.139  40.587   7.650
 4990POPC   NC310667   5.103   0.416   9.450
 4990POPC   PO410668   5.094   0.482   9.150
 4990POPC   GL110669   5.105   0.463   8.850
 4990POPC   GL210670   5.029   0.373   8.850
 4990POPC   C1A10671   5.056   0.426   8.550
 4990POPC   D2A10672   5.131   0.467   8.250
 4990POPC   C3A10673   5.051   0.394   7.950
 4990POPC   C4A10674   5.099   0.437   7.650
 4990POPC   C1B10675   4.823   0.317   8.550
 4990POPC   C2B10676   4.826   0.383   8.250
 4990POPC   C3B10677   4.870   0.358   7.950
 4990POPC   C4B10678   4.870   0.317   7.650
 4991POPC   NC310679  34.616  36.080   9.450
 4991POPC   PO410680  34.607  36.133   9.150
 4991POPC   GL110681  34.528  36.155   8.850
 4991POPC   GL210682  34.723  36.040   8.850
 4991POPC   C1A10683  34.584  36.167   8.550
 4991POPC   D2A10684  34.598  36.078   8.250
 4991POPC   C3A10685  34.610  36.111   7.950
 4991POPC   C4A10686  34.589  36.135   7.650
 4991POPC   C1B10687  34.794  36.014   8.550
 4991POPC   C2B10688  34.859  36.050   8.250
 4991POPC   C3B10689  34.814  36.056   7.950
 4991POPC   C4B10690  34.777  36.016   7.650
 4992POPC   NC310691  26.086   5.059   9.450
 4992POPC   PO410692  26.080   5.082   9.150
 4992POPC   GL110693  26.063   5.094   8.850
 4992POPC   GL210694  26.121   5.184   8.850
 4992POPC   C1A10695  26.014   5.110   8.550
 4992POPC   D2A10696  26.065   5.114   8.250
 4992POPC   C3A10697  26.071   5.087   7.950
 4992POPC   C4A10698  26.057   5.137   7.650
 4992POPC   C1B10699  26.122   5.345   8.550
 4992POPC   C2B10700  26.179   5.354   8.250
 4992POPC   C3B10701  26.112   5.361   7.950
 4992POPC   C4B10702  26.156   5.284   7.650
 4993POPC   NC310703  17.534  40.799   9.450
 4993POPC   PO410704  17.475  40.734   9.150
 4993POPC   GL110705  17.506  40.790   8.850
 4993POPC   GL210706  17.457  40.698   8.850
 4993POPC   C1A10707  17.530  40.774   8.550
 4993POPC   D2A10708  17.535  40.814   8.250
 4993POPC   C3A10709  17.506  40.795   7.950
 4993POPC   C4A10710  17.457  40.829   7.650
 4993POPC   C1B10711  17.416  40.538   8.550
 4993POPC   C2B10712  17.362  40.607   8.250
 4993POPC   C3B10713  17.333  40.598   7.950
 4993POPC   C4B10714  17.418  40.530   7.650
 4994POPC   NC310715  29.966  29.118   9.450
 4994POPC   PO410716  29.895  29.100   9.150
 4994POPC   GL110717  29.960  29.098   8.850
 4994POPC   GL210718  29.952  29.021   8.850
 4994POPC   C1A10719  29.885  29.105   8.550
 4994POPC   D2A10720  29.910  29.144   8.250
 4994POPC   C3A10721  29.965  29.114   7.950
 4994POPC   C4A10722  29.889  29.114   7.650
 4994POPC   C1B10723  29.938  28.897   8.550
 4994POPC   C2B10724  29.963  28.886   8.250
 4994POPC   C3B10725  29.934  28.938   7.950
 4994POPC   C4B10726  30.004  28.940   7.650
 4995POPC   NC310727   6.656  33.008   9.450
 4995POPC   PO410728   6.610  33.014   9.150
 4995POPC   GL110729   6.632  32.975   8.850
 4995POPC   GL210730   6.691  33.175   8.850
 4995POPC   C1A10731   6.602  33.065   8.550
 4995POPC   D2A10732   6.681  33.003   8.250
 4995POPC   C3A10733   6.694  33.053   7.950
 4995POPC   C4A10734   6.687  33.015   7.650
 4995POPC   C1B10735   6.709  33.305   8.550
 4995POPC   C2B10736   6.695  33.234   8.250
 4995POPC   C3B10737   6.653  33.227   7.950
 4995POPC   C4B10738   6.701  33.278   7.650
 4996POPC   NC310739  29.888  32.226   9.450
 4996POPC   PO410740  29.947  32.214   9.150
 4996POPC   GL110741  29.967  32.223   8.850
 4996POPC   GL210742  29.812  32.113   8.850
 4996POPC   C1A10743  29.901  32.243   8.550
 4996POPC   D2A10744  29.934  32.289   8.250
 4996POPC   C3A10745  29.910  32.256   7.950
 4996POPC   C4A10746  29.969  32.271   7.650
 4996POPC   C1B10747  29.787  32.034   8.550
 4996POPC   C2B10748  29.798  32.013   8.250
 4996POPC   C3B10749  29.747  32.083   7.950
 4996POPC   C4B10750  29.783  32.007   7.650
 4997POPC   NC310751  27.637   3.570   9.450
 4997POPC   PO410752  27.564   3.579   9.150
 4997POPC   GL110753  27.609   3.581   8.850
 4997POPC   GL210754  27.504   3.572   8.850
 4997POPC   C1A10755  27.601   3.591   8.550
 4997POPC   D2A10756  27.564   3.508   8.250
 4997POPC   C3A10757  27.638   3.518   7.950
 4997POPC   C4A10758  27.582   3.591   7.650
 4997POPC   C1B10759  27.370   3.611   8.550
 4997POPC   C2B10760  27.363   3.683   8.250
 4997POPC   C3B10761  27.375   3.655   7.950
 4997POPC   C4B10762  27.370   3.637   7.650
 4998POPC   NC310763  43.885  27.567   9.450
 4998POPC   PO410764  43.875  27.624   9.150
 4998POPC   GL110765  43.913  27.570   8.850
 4998POPC   GL210766  43.791  27.605   8.850
 4998POPC   C1A10767  43.851  27.610   8.550
 4998POPC   D2A10768  43.847  27.609   8.250
 4998POPC   C3A10769  43.923  27.587   7.950
 4998POPC   C4A10770  43.919  27.617   7.650
 4998POPC   C1B10771  43.629  27.615   8.550
 4998POPC   C2B10772  43.609  27.599   8.250
 4998POPC   C3B10773  43.608  27.612   7.950
 4998POPC   C4B10774  43.598  27.591   7.650
 4999POPC   NC310775  40.742  43.894   9.450
 4999POPC   PO410776  40.762  43.865   9.150
 4999POPC   GL110777  40.794  43.883   8.850
 4999POPC   GL210778  40.935  43.932   8.850
 4999POPC   C1A10779  40.746  43.894   8.550
 4999POPC   D2A10780  40.756  43.846   8.250
 4999POPC   C3A10781  40.750  43.894   7.950
 4999POPC   C4A10782  40.822  43.881   7.650
 4999POPC   C1B10783  40.983  44.059   8.550
 4999POPC   C2B10784  41.022  44.025   8.250
 4999POPC   C3B10785  41.032  44.032   7.950
 4999POPC   C4B10786  40.980  44.059   7.650
 5000POPC   NC310787  44.689  12.048   9.450
 5000POPC   PO410788  44.627  12.090   9.150
 5000POPC   GL110789  44.674  12.057   8.850
 5000POPC   GL210790  44.779  12.167   8.850
 5000POPC   C1A10791  44.665  12.031   8.550
 5000POPC   D2A10792  44.631  12.073   8.250
 5000POPC   C3A10793  44.629  12.035   7.950
 5000POPC   C4A10794  44.654  12.080   7.650
 5000POPC   C1B10795  44.842  12.267   8.550
 5000POPC   C2B10796  44.786  12.286   8.250
 5000POPC   C3B10797  44.820  12.296   7.950
 5000POPC   C4B10798  44.790  12.324   7.650
 5001POPC   NC310799   6.641   5.077   9.450
 5001POPC   PO410800   6.684   5.131   9.150
 5001POPC   GL110801   6.658   5.045   8.850
 5001POPC   GL210802   6.719   5.134   8.850
 5001POPC   C1A10803   6.662   5.113   8.550
 5001POPC   D2A10804   6.687   5.075   8.250
 5001POPC   C3A10805   6.607   5.120   7.950
 5001POPC   C4A10806   6.627   5.136   7.650
 5001POPC   C1B10807   6.858   5.317   8.550
 5001POPC   C2B10808   6.771   5.225   8.250
 5001POPC   C3B10809   6.805   5.286   7.950
 5001POPC   C4B10810   6.810   5.319   7.650
 5002POPC   NC310811  43.105  24.524   9.450
 5002POPC   PO410812  43.151  24.456   9.150
 5002POPC   GL110813  43.071  24.456   8.850
 5002POPC   GL210814  43.066  24.411   8.850
 5002POPC   C1A10815  43.153  24.492   8.550
 5002POPC   D2A10816  43.093  24.487   8.250
 5002POPC   C3A10817  43.121  24.532   7.950
 5002POPC   C4A10818  43.087  24.464   7.650
 5002POPC   C1B10819  43.084  24.287   8.550
 5002POPC   C2B10820  43.084  24.199   8.250
 5002POPC   C3B10821  43.076  24.251   7.950
 5002POPC   C4B10822  43.060  24.223   7.650
 5003POPC   NC310823  12.901   4.303   9.450
 5003POPC   PO410824  12.869   4.311   9.150
 5003POPC   GL110825  12.899   4.283   8.850
 5003POPC   GL210826  12.785   4.401   8.850
 5003POPC   C1A10827  12.839   4.339   8.550
 5003POPC   D2A10828  12.878   4.356   8.250
 5003POPC   C3A10829  12.895   4.327   7.950
 5003POPC   C4A10830  12.882   4.297   7.650
 5003POPC   C1B10831  12.743   4.578   8.550
 5003POPC   C2B10832  12.767   4.595   8.250
 5003POPC   C3B10833  12.784   4.572   7.950
 5003POPC   C4B10834  12.734   4.575   7.650
 5004POPC   NC310835  34.604  43.845   9.450
 5004POPC   PO410836  34.551  43.894   9.150
 5004POPC   GL110837  34.583  43.836   8.850
 5004POPC   GL210838  34.433  43.888   8.850
 5004POPC   C1A10839  34.609  43.837   8.550
 5004POPC   D2A10840  34.539  43.868   8.250
 5004POPC   C3A10841  34.592  43.872   7.950
 5004POPC   C4A10842  34.527  43.933   7.650
 5004POPC   C1B10843  34.289  43.824   8.550
 5004POPC   C2B10844  34.356  43.816   8.250
 5004POPC   C3B10845  34.300  43.829   7.950
 5004POPC   C4B10846  34.379  43.869   7.650
 5005POPC   NC310847   6.637   9.762   9.450
 5005POPC   PO410848   6.648   9.796   9.150
 5005POPC   GL110849   6.615   9.759   8.850
 5005POPC   GL210850   6.487   9.701   8.850
 5005POPC   C1A10851   6.616   9.781   8.550
 5005POPC   D2A10852   6.615   9.773   8.250
 5005POPC   C3A10853   6.669   9.783   7.950
 5005POPC   C4A10854   6.599   9.714   7.650
 5005POPC   C1B10855   6.438   9.664   8.550
 5005POPC   C2B10856   6.450   9.686   8.250
 5005POPC   C3B10857   6.386   9.646   7.950
 5005POPC   C4B10858   6.363   9.694   7.650
 5006POPC   NC310859  21.416   3.535   9.450
 5006POPC   PO410860  21.386   3.582   9.150
 5006POPC   GL110861  21.339   3.528   8.850
 5006POPC   GL210862  21.403   3.406   8.850
 5006POPC   C1A10863  21.342   3.557   8.550
 5006POPC   D2A10864  21.367   3.537   8.250
 5006POPC   C3A10865  21.385   3.505   7.950
 5006POPC   C4A10866  21.396   3.530   7.650
 5006POPC   C1B10867  21.364   3.316   8.550
 5006POPC   C2B10868  21.374   3.322   8.250
 5006POPC   C3B10869  21.334   3.296   7.950
 5006POPC   C4B10870  21.404   3.294   7.650
 5007POPC   NC310871  35.325  15.174   9.450
 5007POPC   PO410872  35.397  15.204   9.150
 5007POPC   GL110873  35.337  15.217   8.850
 5007POPC   GL210874  35.343  15.263   8.850
 5007POPC   C1A10875  35.329  15.141   8.550
 5007POPC   D2A10876  35.330  15.148   8.250
 5007POPC   C3A10877  35.359  15.194   7.950
 5007POPC   C4A10878  35.311  15.135   7.650
 5007POPC   C1B10879  35.244  15.401   8.550
 5007POPC   C2B10880  35.230  15.389   8.250
 5007POPC   C3B10881  35.288  15.377   7.950
 5007POPC   C4B10882  35.285  15.428   7.650
 5008POPC   NC310883  23.730  39.975   9.450
 5008POPC   PO410884  23.702  40.034   9.150
 5008POPC   GL110885  23.694  40.018   8.850
 5008POPC   GL210886  23.556  40.083   8.850
 5008POPC   C1A10887  23.753  40.012   8.550
 5008POPC   D2A10888  23.672  39.980   8.250
 5008POPC   C3A10889  23.692  39.989   7.950
 5008POPC   C4A10890  23.713  40.029   7.650
 5008POPC   C1B10891  23.466  40.116   8.550
 5008POPC   C2B10892  23.465  40.087   8.250
 5008POPC   C3B10893  23.431  40.134   7.950
 5008POPC   C4B10894  23.462  40.106   7.650
 5009POPC   NC310895   7.426   6.647   9.450
 5009POPC   PO410896   7.391   6.672   9.150
 5009POPC   GL110897   7.462   6.635   8.850
 5009POPC   GL210898   7.514   6.721   8.850
 5009POPC   C1A10899   7.390   6.654   8.550
 5009POPC   D2A10900   7.399   6.620   8.250
 5009POPC   C3A10901   7.407   6.659   7.950
 5009POPC   C4A10902   7.411   6.621   7.650
 5009POPC   C1B10903   7.629   6.729   8.550
 5009POPC   C2B10904   7.693   6.789   8.250
 5009POPC   C3B10905   7.689   6.768   7.950
 5009POPC   C4B10906   7.690   6.773   7.650
 5010POPC   NC310907  29.912   5.840   9.450
 5010POPC   PO410908  29.891   5.833   9.150
 5010POPC   GL110909  29.953   5.848   8.850
 5010POPC   GL210910  29.792   5.924   8.850
 5010POPC   C1A10911  29.954   5.848   8.550
 5010POPC   D2A10912  29.959   5.825   8.250
 5010POPC   C3A10913  29.893   5.884   7.950
 5010POPC   C4A10914  29.922   5.916   7.650
 5010POPC   C1B10915  29.744   6.024   8.550
 5010POPC   C2B10916  29.683   5.995   8.250
 5010POPC   C3B10917  29.763   6.001   7.950
 5010POPC   C4B10918  29.746   6.047   7.650
 5011POPC   NC310919  43.067   5.836   9.450
 5011POPC   PO410920  43.148   5.825   9.150
 5011POPC   GL110921  43.128   5.878   8.850
 5011POPC   GL210922  43.042   6.014   8.850
 5011POPC   C1A10923  43.092   5.841   8.550
 5011POPC   D2A10924  43.066   5.875   8.250
 5011POPC   C3A10925  43.070   5.852   7.950
 5011POPC   C4A10926  43.068   5.917   7.650
 5011POPC   C1B10927  42.918   6.103   8.550
 5011POPC   C2B10928  42.989   6.041   8.250
 5011POPC   C3B10929  42.938   6.113   7.950
 5011POPC   C4B10930  42.953   6.050   7.650
 5012POPC   NC310931  10.544  43.145   9.450
 5012POPC   PO410932  10.531  43.135   9.150
 5012POPC   GL110933  10.508  43.066   8.850
 5012POPC   GL210934  10.470  43.165   8.850
 5012POPC   C1A10935  10.560  43.134   8.550
 5012POPC   D2A10936  10.537  43.156   8.250
 5012POPC   C3A10937  10.549  43.092   7.950
 5012POPC   C4A10938  10.557  43.116   7.650
 5012POPC   C1B10939  10.362  43.287   8.550
 5012POPC   C2B10940  10.303  43.273   8.250
 5012POPC   C3B10941  10.312  43.253   7.950
 5012POPC   C4B10942  10.345  43.305   7.650
 5013POPC   NC310943  32.251  44.693   9.450
 5013POPC   PO410944  32.209  44.623   9.150
 5013POPC   GL110945  32.235  44.627   8.850
 5013POPC   GL210946  32.128  44.578   8.850
 5013POPC   C1A10947  32.277  44.708   8.550
 5013POPC   D2A10948  32.263  44.680   8.250
 5013POPC   C3A10949  32.291  44.626   7.950
 5013POPC   C4A10950  32.279  44.658   7.650
 5013POPC   C1B10951  32.094  44.482   8.550
 5013POPC   C2B10952  32.149  44.505   8.250
 5013POPC   C3B10953  32.150  44.498   7.950
 5013POPC   C4B10954  32.127  44.466   7.650
 5014POPC   NC310955  40.742  22.973   9.450
 5014POPC   PO410956  40.823  22.973   9.150
 5014POPC   GL110957  40.796  22.986   8.850
 5014POPC   GL210958  40.867  22.835   8.850
 5014POPC   C1A10959  40.813  22.905   8.550
 5014POPC   D2A10960  40.742  22.986   8.250
 5014POPC   C3A10961  40.821  22.915   7.950
 5014POPC   C4A10962  40.807  22.925   7.650
 5014POPC   C1B10963  40.944  22.774   8.550
 5014POPC   C2B10964  40.898  22.706   8.250
 5014POPC   C3B10965  40.921  22.752   7.950
 5014POPC   C4B10966  40.904  22.682   7.650
 5015POPC   NC310967  44.661  22.974   9.450
 5015POPC   PO410968  44.634  22.970   9.150
 5015POPC   GL110969  44.673  22.893   8.850
 5015POPC   GL210970  44.741  22.951   8.850
 5015POPC   C1A10971  44.691  22.967   8.550
 5015POPC   D2A10972  44.613  22.908   8.250
 5015POPC   C3A10973  44.670  22.927   7.950
 5015POPC   C4A10974  44.706  22.953   7.650
 5015POPC   C1B10975  44.879  22.956   8.550
 5015POPC   C2B10976  44.865  23.025   8.250
 5015POPC   C3B10977  44.949  22.975   7.950
 5015POPC   C4B10978  44.920  22.998   7.650
 5016POPC   NC310979  43.908  19.805   9.450
 5016POPC   PO410980  43.936  19.856   9.150
 5016POPC   GL110981  43.903  19.875   8.850
 5016POPC   GL210982  43.914  19.712   8.850
 5016POPC   C1A10983  43.932  19.818   8.550
 5016POPC   D2A10984  43.883  19.831   8.250
 5016POPC   C3A10985  43.844  19.794   7.950
 5016POPC   C4A10986  43.889  19.812   7.650
 5016POPC   C1B10987  43.841  19.549   8.550
 5016POPC   C2B10988  43.846  19.574   8.250
 5016POPC   C3B10989  43.867  19.604   7.950
 5016POPC   C4B10990  43.897  19.544   7.650
 5017POPC   NC310991   2.798  36.154   9.450
 5017POPC   PO410992   2.783  36.107   9.150
 5017POPC   GL110993   2.808  36.174   8.850
 5017POPC   GL210994   2.791  36.242   8.850
 5017POPC   C1A10995   2.738  36.092   8.550
 5017POPC   D2A10996   2.724  36.157   8.250
 5017POPC   C3A10997   2.781  36.140   7.950
 5017POPC   C4A10998   2.729  36.161   7.650
 5017POPC   C1B10999   2.800  36.345   8.550
 5017POPC   C2B11000   2.869  36.411   8.250
 5017POPC   C3B11001   2.845  36.354   7.950
 5017POPC   C4B11002   2.848  36.356   7.650
 5018POPC   NC311003  15.151  16.699   9.450
 5018POPC   PO411004  15.137  16.766   9.150
 5018POPC   GL111005  15.140  16.781   8.850
 5018POPC   GL211006  15.224  16.841   8.850
 5018POPC   C1A11007  15.135  16.776   8.550
 5018POPC   D2A11008  15.212  16.749   8.250
 5018POPC   C3A11009  15.209  16.726   7.950
 5018POPC   C4A11010  15.164  16.731   7.650
 5018POPC   C1B11011  15.304  16.872   8.550
 5018POPC   C2B11012  15.341  16.880   8.250
 5018POPC   C3B11013  15.332  16.905   7.950
 5018POPC   C4B11014  15.319  16.943   7.650
 5019POPC   NC311015  30.700  21.421   9.450
 5019POPC   PO411016  30.717  21.410   9.150
 5019POPC   GL111017  30.680  21.391   8.850
 5019POPC   GL211018  30.649  21.300   8.850
 5019POPC   C1A11019  30.654  21.364   8.550
 5019POPC   D2A11020  30.739  21.342   8.250
 5019POPC   C3A11021  30.728  21.426   7.950
 5019POPC   C4A11022  30.684  21.352   7.650
 5019POPC   C1B11023  30.518  21.204   8.550
 5019POPC   C2B11024  30.539  21.160   8.250
 5019POPC   C3B11025  30.499  21.191   7.950
 5019POPC   C4B11026  30.524  21.221   7.650
 5020POPC   NC311027  22.163  39.227   9.450
 5020POPC   PO411028  22.140  39.219   9.150
 5020POPC   GL111029  22.146  39.193   8.850
 5020POPC   GL211030  22.054  39.238   8.850
 5020POPC   C1A11031  22.168  39.245   8.550
 5020POPC   D2A11032  22.130  39.248   8.250
 5020POPC   C3A11033  22.180  39.211   7.950
 5020POPC   C4A11034  22.182  39.211   7.650
 5020POPC   C1B11035  21.956  39.241   8.550
 5020POPC   C2B11036  21.946  39.263   8.250
 5020POPC   C3B11037  21.950  39.274   7.950
 5020POPC   C4B11038  21.918  39.202   7.650
 5021POPC   NC311039  12.834  39.196   9.450
 5021POPC   PO411040  12.810  39.233   9.150
 5021POPC   GL111041  12.839  39.218   8.850
 5021POPC   GL211042  12.743  39.340   8.850
 5021POPC   C1A11043  12.866  39.224   8.550
 5021POPC   D2A11044  12.840  39.268   8.250
 5021POPC   C3A11045  12.809  39.219   7.950
 5021POPC   C4A11046  12.867  39.197   7.650
 5021POPC   C1B11047  12.672  39.392   8.550
 5021POPC   C2B11048  12.696  39.371   8.250
 5021POPC   C3B11049  12.630  39.448   7.950
 5021POPC   C4B11050  12.691  39.357   7.650
 5022POPC   NC311051   8.178  18.292   9.450
 5022POPC   PO411052   8.214  18.331   9.150
 5022POPC   GL111053   8.223  18.322   8.850
 5022POPC   GL211054   8.158  18.188   8.850
 5022POPC   C1A11055   8.184  18.324   8.550
 5022POPC   D2A11056   8.194  18.237   8.250
 5022POPC   C3A11057   8.213  18.283   7.950
 5022POPC   C4A11058   8.152  18.244   7.650
 5022POPC   C1B11059   8.165  18.011   8.550
 5022POPC   C2B11060   8.127  18.033   8.250
 5022POPC   C3B11061   8.097  18.059   7.950
 5022POPC   C4B11062   8.139  18.030   7.650
 5023POPC   NC311063  19.045  19.098   9.450
 5023POPC   PO411064  19.079  19.102   9.150
 5023POPC   GL111065  19.019  19.054   8.850
 5023POPC   GL211066  19.150  18.926   8.850
 5023POPC   C1A11067  19.019  19.009   8.550
 5023POPC   D2A11068  19.078  19.018   8.250
 5023POPC   C3A11069  19.107  19.027   7.950
 5023POPC   C4A11070  19.086  19.091   7.650
 5023POPC   C1B11071  19.223  18.791   8.550
 5023POPC   C2B11072  19.219  18.851   8.250
 5023POPC   C3B11073  19.169  18.864   7.950
 5023POPC   C4B11074  19.183  18.827   7.650
 5024POPC   NC311075   5.115   2.728   9.450
 5024POPC   PO411076   5.097   2.739   9.150
 5024POPC   GL111077   5.136   2.773   8.850
 5024POPC   GL211078   5.148   2.888   8.850
 5024POPC   C1A11079   5.122   2.798   8.550
 5024POPC   D2A11080   5.072   2.755   8.250
 5024POPC   C3A11081   5.136   2.737   7.950
 5024POPC   C4A11082   5.081   2.813   7.650
 5024POPC   C1B11083   5.238   2.967   8.550
 5024POPC   C2B11084   5.272   2.992   8.250
 5024POPC   C3B11085   5.213   2.941   7.950
 5024POPC   C4B11086   5.249   2.928   7.650
 5025POPC   NC311087  28.339  41.608   9.450
 5025POPC   PO411088  28.349  41.548   9.150
 5025POPC   GL111089  28.375  41.604   8.850
 5025POPC   GL211090  28.293  41.474   8.850
 5025POPC   C1A11091  28.324  41.598   8.550
 5025POPC   D2A11092  28.333  41.523   8.250
 5025POPC   C3A11093  28.358  41.529   7.950
 5025POPC   C4A11094  28.397  41.550   7.650
 5025POPC   C1B11095  28.247  41.333   8.550
 5025POPC   C2B11096  28.275  41.348   8.250
 5025POPC   C3B11097  28.247  41.321   7.950
 5025POPC   C4B11098  28.309  41.323   7.650
 5026POPC   NC311099  33.052  25.257   9.450
 5026POPC   PO411100  33.056  25.304   9.150
 5026POPC   GL111101  33.062  25.276   8.850
 5026POPC   GL211102  33.030  25.158   8.850
 5026POPC   C1A11103  33.049  25.287   8.550
 5026POPC   D2A11104  33.001  25.218   8.250
 5026POPC   C3A11105  33.061  25.246   7.950
 5026POPC   C4A11106  33.014  25.248   7.650
 5026POPC   C1B11107  33.012  25.000   8.550
 5026POPC   C2B11108  33.067  25.047   8.250
 5026POPC   C3B11109  33.012  25.029   7.950
 5026POPC   C4B11110  33.021  25.030   7.650
 5027POPC   NC311111   7.378  39.182   9.450
 5027POPC   PO411112   7.467  39.245   9.150
 5027POPC   GL111113   7.412  39.239   8.850
 5027POPC   GL211114   7.428  39.382   8.850
 5027POPC   C1A11115   7.412  39.272   8.550
 5027POPC   D2A11116   7.388  39.277   8.250
 5027POPC   C3A11117   7.406  39.244   7.950
 5027POPC   C4A11118   7.378  39.279   7.650
 5027POPC   C1B11119   7.430  39.449   8.550
 5027POPC   C2B11120   7.474  39.481   8.250
 5027POPC   C3B11121   7.467  39.499   7.950
 5027POPC   C4B11122   7.465  39.496   7.650
 5028POPC   NC311123  21.372  18.245   9.450
 5028POPC   PO411124  21.397  18.287   9.150
 5028POPC   GL111125  21.357  18.325   8.850
 5028POPC   GL211126  21.511  18.269   8.850
 5028POPC   C1A11127  21.416  18.307   8.550
 5028POPC   D2A11128  21.359  18.309   8.250
 5028POPC   C3A11129  21.416  18.236   7.950
 5028POPC   C4A11130  21.365  18.304   7.650
 5028POPC   C1B11131  21.619  18.210   8.550
 5028POPC   C2B11132  21.664  18.225   8.250
 5028POPC   C3B11133  21.634  18.220   7.950
 5028POPC   C4B11134  21.624  18.217   7.650
 5029POPC   NC311135  15.162   1.175   9.450
 5029POPC   PO411136  15.152   1.217   9.150
 5029POPC   GL111137  15.201   1.231   8.850
 5029POPC   GL211138  15.049   1.229   8.850
 5029POPC   C1A11139  15.171   1.193   8.550
 5029POPC   D2A11140  15.174   1.167   8.250
 5029POPC   C3A11141  15.195   1.168   7.950
 5029POPC   C4A11142  15.152   1.264   7.650
 5029POPC   C1B11143  14.927   1.231   8.550
 5029POPC   C2B11144  14.918   1.262   8.250
 5029POPC   C3B11145  14.948   1.291   7.950
 5029POPC   C4B11146  14.890   1.294   7.650
 5030POPC   NC311147  11.327  29.176   9.450
 5030POPC   PO411148  11.259  29.099   9.150
 5030POPC   GL111149  11.269  29.136   8.850
 5030POPC   GL211150  11.173  29.056   8.850
 5030POPC   C1A11151  11.312  29.122   8.550
 5030POPC   D2A11152  11.298  29.146   8.250
 5030POPC   C3A11153  11.305  29.133   7.950
 5030POPC   C4A11154  11.295  29.146   7.650
 5030POPC   C1B11155  11.113  29.030   8.550
 5030POPC   C2B11156  11.106  29.087   8.250
 5030POPC   C3B11157  11.034  29.006   7.950
 5030POPC   C4B11158  11.105  29.006   7.650
 5031POPC   NC311159   8.213  28.383   9.450
 5031POPC   PO411160   8.202  28.367   9.150
 5031POPC   GL111161   8.165  28.417   8.850
 5031POPC   GL211162   8.055  28.271   8.850
 5031POPC   C1A11163   8.221  28.361   8.550
 5031POPC   D2A11164   8.201  28.319   8.250
 5031POPC   C3A11165   8.211  28.356   7.950
 5031POPC   C4A11166   8.183  28.399   7.650
 5031POPC   C1B11167   8.025  28.250   8.550
 5031POPC   C2B11168   7.993  28.240   8.250
 5031POPC   C3B11169   7.972  28.247   7.950
 5031POPC   C4B11170   8.001  28.260   7.650
 5032POPC   NC311171   6.610  28.401   9.450
 5032POPC   PO411172   6.604  28.397   9.150
 5032POPC   GL111173   6.688  28.398   8.850
 5032POPC   GL211174   6.539  28.398   8.850
 5032POPC   C1A11175   6.617  28.335   8.550
 5032POPC   D2A11176   6.599  28.343   8.250
 5032POPC   C3A11177   6.642  28.409   7.950
 5032POPC   C4A11178   6.607  28.374   7.650
 5032POPC   C1B11179   6.451  28.522   8.550
 5032POPC   C2B11180   6.429  28.565   8.250
 5032POPC   C3B11181   6.424  28.552   7.950
 5032POPC   C4B11182   6.421  28.543   7.650
 5033POPC   NC311183  22.981  13.636   9.450
 5033POPC   PO411184  22.951  13.585   9.150
 5033POPC   GL111185  22.923  13.581   8.850
 5033POPC   GL211186  23.019  13.559   8.850
 5033POPC   C1A11187  22.955  13.589   8.550
 5033POPC   D2A11188  22.954  13.658   8.250
 5033POPC   C3A11189  22.907  13.645   7.950
 5033POPC   C4A11190  22.960  13.675   7.650
 5033POPC   C1B11191  23.046  13.417   8.550
 5033POPC   C2B11192  23.032  13.446   8.250
 5033POPC   C3B11193  23.066  13.409   7.950
 5033POPC   C4B11194  23.066  13.387   7.650
 5034POPC   NC311195  43.121  13.647   9.450
 5034POPC   PO411196  43.080  13.666   9.150
 5034POPC   GL111197  43.063  13.631   8.850
 5034POPC   GL211198  43.073  13.465   8.850
 5034POPC   C1A11199  43.146  13.615   8.550
 5034POPC   D2A11200  43.103  13.607   8.250
 5034POPC   C3A11201  43.103  13.587   7.950
 5034POPC   C4A11202  43.103  13.628   7.650
 5034POPC   C1B11203  43.064  13.395   8.550
 5034POPC   C2B11204  42.990  13.418   8.250
 5034POPC   C3B11205  43.058  13.372   7.950
 5034POPC   C4B11206  43.009  13.358   7.650
 5035POPC   NC311207  33.058  22.956   9.450
 5035POPC   PO411208  33.016  22.944   9.150
 5035POPC   GL111209  33.034  22.954   8.850
 5035POPC   GL211210  33.098  23.044   8.850
 5035POPC   C1A11211  32.989  22.948   8.550
 5035POPC   D2A11212  33.047  22.916   8.250
 5035POPC   C3A11213  33.031  22.944   7.950
 5035POPC   C4A11214  32.975  22.943   7.650
 5035POPC   C1B11215  33.038  23.193   8.550
 5035POPC   C2B11216  33.083  23.158   8.250
 5035POPC   C3B11217  33.064  23.170   7.950
 5035POPC   C4B11218  33.130  23.220   7.650
 5036POPC   NC311219   5.064   2.021   9.450
 5036POPC   PO411220   5.072   1.947   9.150
 5036POPC   GL111221   5.066   1.997   8.850
 5036POPC   GL211222   5.084   1.873   8.850
 5036POPC   C1A11223   5.074   1.978   8.550
 5036POPC   D2A11224   5.132   1.992   8.250
 5036POPC   C3A11225   5.091   2.033   7.950
 5036POPC   C4A11226   5.044   2.027   7.650
 5036POPC   C1B11227   4.969   1.818   8.550
 5036POPC   C2B11228   4.931   1.767   8.250
 5036POPC   C3B11229   5.005   1.786   7.950
 5036POPC   C4B11230   5.001   1.812   7.650
 5037POPC   NC311231  40.819  11.324   9.450
 5037POPC   PO411232  40.746  11.316   9.150
 5037POPC   GL111233  40.831  11.304   8.850
 5037POPC   GL211234  40.639  11.298   8.850
 5037POPC   C1A11235  40.782  11.252   8.550
 5037POPC   D2A11236  40.753  11.262   8.250
 5037POPC   C3A11237  40.749  11.280   7.950
 5037POPC   C4A11238  40.784  11.312   7.650
 5037POPC   C1B11239  40.511  11.169   8.550
 5037POPC   C2B11240  40.545  11.224   8.250
 5037POPC   C3B11241  40.547  11.206   7.950
 5037POPC   C4B11242  40.597  11.196   7.650
 5038POPC   NC311243  24.498  15.926   9.450
 5038POPC   PO411244  24.522  15.965   9.150
 5038POPC   GL111245  24.499  15.947   8.850
 5038POPC   GL211246  24.628  16.008   8.850
 5038POPC   C1A11247  24.511  15.944   8.550
 5038POPC   D2A11248  24.507  15.990   8.250
 5038POPC   C3A11249  24.499  15.982   7.950
 5038POPC   C4A11250  24.459  15.964   7.650
 5038POPC   C1B11251  24.732  16.028   8.550
 5038POPC   C2B11252  24.723  15.990   8.250
 5038POPC   C3B11253  24.686  16.052   7.950
 5038POPC   C4B11254  24.744  15.992   7.650
 5039POPC   NC311255  19.055  32.977   9.450
 5039POPC   PO411256  19.079  33.051   9.150
 5039POPC   GL111257  19.054  33.009   8.850
 5039POPC   GL211258  19.031  33.116   8.850
 5039POPC   C1A11259  19.049  32.982   8.550
 5039POPC   D2A11260  19.040  32.984   8.250
 5039POPC   C3A11261  19.009  33.072   7.950
 5039POPC   C4A11262  19.024  33.026   7.650
 5039POPC   C1B11263  19.104  33.303   8.550
 5039POPC   C2B11264  19.050  33.271   8.250
 5039POPC   C3B11265  19.074  33.321   7.950
 5039POPC   C4B11266  19.110  33.271   7.650
 5040POPC   NC311267   5.876  26.074   9.450
 5040POPC   PO411268   5.912  26.004   9.150
 5040POPC   GL111269   5.901  26.060   8.850
 5040POPC   GL211270   6.039  26.034   8.850
 5040POPC   C1A11271   5.855  26.051   8.550
 5040POPC   D2A11272   5.874  26.038   8.250
 5040POPC   C3A11273   5.905  26.016   7.950
 5040POPC   C4A11274   5.868  26.043   7.650
 5040POPC   C1B11275   6.117  25.996   8.550
 5040POPC   C2B11276   6.076  25.935   8.250
 5040POPC   C3B11277   6.152  26.015   7.950
 5040POPC   C4B11278   6.105  26.020   7.650
 5041POPC   NC311279   8.988   6.692   9.450
 5041POPC   PO411280   8.926   6.624   9.150
 5041POPC   GL111281   8.981   6.653   8.850
 5041POPC   GL211282   8.962   6.745   8.850
 5041POPC   C1A11283   9.010   6.688   8.550
 5041POPC   D2A11284   8.984   6.608   8.250
 5041POPC   C3A11285   9.005   6.692   7.950
 5041POPC   C4A11286   9.012   6.651   7.650
 5041POPC   C1B11287   8.858   6.888   8.550
 5041POPC   C2B11288   8.833   6.835   8.250
 5041POPC   C3B11289   8.860   6.890   7.950
 5041POPC   C4B11290   8.819   6.875   7.650
 5042POPC   NC311291  26.770  37.637   9.450
 5042POPC   PO411292  26.781  37.708   9.150
 5042POPC   GL111293  26.852  37.631   8.850
 5042POPC   GL211294  26.813  37.782   8.850
 5042POPC   C1A11295  26.805  37.666   8.550
 5042POPC   D2A11296  26.855  37.656   8.250
 5042POPC   C3A11297  26.817  37.634   7.950
 5042POPC   C4A11298  26.811  37.679   7.650
 5042POPC   C1B11299  26.732  37.934   8.550
 5042POPC   C2B11300  26.757  37.872   8.250
 5042POPC   C3B11301  26.716  37.866   7.950
 5042POPC   C4B11302  26.720  37.914   7.650
 5043POPC   NC311303  17.507  12.092   9.450
 5043POPC   PO411304  17.465  12.033   9.150
 5043POPC   GL111305  17.531  12.031   8.850
 5043POPC   GL211306  17.622  12.212   8.850
 5043POPC   C1A11307  17.527  12.093   8.550
 5043POPC   D2A11308  17.550  12.050   8.250
 5043POPC   C3A11309  17.514  12.090   7.950
 5043POPC   C4A11310  17.552  12.067   7.650
 5043POPC   C1B11311  17.622  12.298   8.550
 5043POPC   C2B11312  17.677  12.254   8.250
 5043POPC   C3B11313  17.666  12.268   7.950
 5043POPC   C4B11314  17.621  12.283   7.650
 5044POPC   NC311315  40.054  10.478   9.450
 5044POPC   PO411316  40.010  10.481   9.150
 5044POPC   GL111317  39.989  10.486   8.850
 5044POPC   GL211318  39.950  10.627   8.850
 5044POPC   C1A11319  39.993  10.542   8.550
 5044POPC   D2A11320  40.041  10.551   8.250
 5044POPC   C3A11321  40.038  10.495   7.950
 5044POPC   C4A11322  39.958  10.570   7.650
 5044POPC   C1B11323  39.772  10.708   8.550
 5044POPC   C2B11324  39.837  10.713   8.250
 5044POPC   C3B11325  39.831  10.697   7.950
 5044POPC   C4B11326  39.848  10.674   7.650
 5045POPC   NC311327  41.603   9.720   9.450
 5045POPC   PO411328  41.608   9.760   9.150
 5045POPC   GL111329  41.523   9.727   8.850
 5045POPC   GL211330  41.495   9.697   8.850
 5045POPC   C1A11331  41.582   9.716   8.550
 5045POPC   D2A11332  41.509   9.724   8.250
 5045POPC   C3A11333  41.589   9.730   7.950
 5045POPC   C4A11334  41.551   9.740   7.650
 5045POPC   C1B11335  41.347   9.635   8.550
 5045POPC   C2B11336  41.411   9.565   8.250
 5045POPC   C3B11337  41.345   9.592   7.950
 5045POPC   C4B11338  41.326   9.579   7.650
 5046POPC   NC311339  44.698  28.395   9.450
 5046POPC   PO411340  44.629  28.326   9.150
 5046POPC   GL111341  44.712  28.352   8.850
 5046POPC   GL211342  44.717  28.232   8.850
 5046POPC   C1A11343  44.634  28.330   8.550
 5046POPC   D2A11344  44.696  28.404   8.250
 5046POPC   C3A11345  44.694  28.363   7.950
 5046POPC   C4A11346  44.709  28.330   7.650
 5046POPC   C1B11347  44.829  28.138   8.550
 5046POPC   C2B11348  44.858  28.154   8.250
 5046POPC   C3B11349  44.769  28.195   7.950
 5046POPC   C4B11350  44.810  28.201   7.650
 5047POPC   NC311351  17.552  35.393   9.450
 5047POPC   PO411352  17.543  35.323   9.150
 5047POPC   GL111353  17.492  35.355   8.850
 5047POPC   GL211354  17.543  35.453   8.850
 5047POPC   C1A11355  17.474  35.316   8.550
 5047POPC   D2A11356  17.483  35.325   8.250
 5047POPC   C3A11357  17.463  35.340   7.950
 5047POPC   C4A11358  17.473  35.376   7.650
 5047POPC   C1B11359  17.649  35.528   8.550
 5047POPC   C2B11360  17.635  35.547   8.250
 5047POPC   C3B11361  17.640  35.549   7.950
 5047POPC   C4B11362  17.688  35.532   7.650
 5048POPC   NC311363  10.518   1.222   9.450
 5048POPC   PO411364  10.550   1.180   9.150
 5048POPC   GL111365  10.532   1.261   8.850
 5048POPC   GL211366  10.374   1.204   8.850
 5048POPC   C1A11367  10.558   1.227   8.550
 5048POPC   D2A11368  10.534   1.255   8.250
 5048POPC   C3A11369  10.540   1.239   7.950
 5048POPC   C4A11370  10.570   1.197   7.650
 5048POPC   C1B11371  10.246   1.179   8.550
 5048POPC   C2B11372  10.250   1.202   8.250
 5048POPC   C3B11373  10.300   1.222   7.950
 5048POPC   C4B11374  10.264   1.265   7.650
 5049POPC   NC311375  29.158   9.008   9.450
 5049POPC   PO411376  29.118   9.016   9.150
 5049POPC   GL111377  29.143   8.965   8.850
 5049POPC   GL211378  29.209   8.860   8.850
 5049POPC   C1A11379  29.132   8.949   8.550
 5049POPC   D2A11380  29.103   9.008   8.250
 5049POPC   C3A11381  29.189   9.020   7.950
 5049POPC   C4A11382  29.153   8.939   7.650
 5049POPC   C1B11383  29.293   8.805   8.550
 5049POPC   C2B11384  29.347   8.781   8.250
 5049POPC   C3B11385  29.361   8.753   7.950
 5049POPC   C4B11386  29.314   8.805   7.650
 5050POPC   NC311387   6.625   6.595   9.450
 5050POPC   PO411388   6.693   6.662   9.150
 5050POPC   GL111389   6.691   6.604   8.850
 5050POPC   GL211390   6.518   6.703   8.850
 5050POPC   C1A11391   6.656   6.624   8.550
 5050POPC   D2A11392   6.627   6.687   8.250
 5050POPC   C3A11393   6.662   6.691   7.950
 5050POPC   C4A11394   6.649   6.614   7.650
 5050POPC   C1B11395   6.446   6.764   8.550
 5050POPC   C2B11396   6.439   6.741   8.250
 5050POPC   C3B11397   6.391   6.797   7.950
 5050POPC   C4B11398   6.412   6.775   7.650
 5051POPC   NC311399  25.304   3.572   9.450
 5051POPC   PO411400  25.226   3.591   9.150
 5051POPC   GL111401  25.223   3.575   8.850
 5051POPC   GL211402  25.160   3.495   8.850
 5051POPC   C1A11403  25.308   3.525   8.550
 5051POPC   D2A11404  25.218   3.561   8.250
 5051POPC   C3A11405  25.231   3.534   7.950
 5051POPC   C4A11406  25.272   3.553   7.650
 5051POPC   C1B11407  25.015   3.402   8.550
 5051POPC   C2B11408  25.064   3.470   8.250
 5051POPC   C3B11409  25.017   3.471   7.950
 5051POPC   C4B11410  25.078   3.463   7.650
 5052POPC   NC311411  25.279  15.183   9.450
 5052POPC   PO411412  25.233  15.223   9.150
 5052POPC   GL111413  25.286  15.144   8.850
 5052POPC   GL211414  25.207  15.162   8.850
 5052POPC   C1A11415  25.246  15.228   8.550
 5052POPC   D2A11416  25.232  15.191   8.250
 5052POPC   C3A11417  25.290  15.164   7.950
 5052POPC   C4A11418  25.226  15.195   7.650
 5052POPC   C1B11419  25.027  15.080   8.550
 5052POPC   C2B11420  25.080  15.077   8.250
 5052POPC   C3B11421  25.084  15.051   7.950
 5052POPC   C4B11422  25.039  15.097   7.650
 5053POPC   NC311423  43.877   1.227   9.450
 5053POPC   PO411424  43.927   1.173   9.150
 5053POPC   GL111425  43.918   1.200   8.850
 5053POPC   GL211426  43.770   1.145   8.850
 5053POPC   C1A11427  43.931   1.203   8.550
 5053POPC   D2A11428  43.902   1.240   8.250
 5053POPC   C3A11429  43.881   1.196   7.950
 5053POPC   C4A11430  43.864   1.263   7.650
 5053POPC   C1B11431  43.627   1.105   8.550
 5053POPC   C2B11432  43.721   1.077   8.250
 5053POPC   C3B11433  43.629   1.039   7.950
 5053POPC   C4B11434  43.715   1.045   7.650
 5054POPC   NC311435  35.399  17.486   9.450
 5054POPC   PO411436  35.395  17.516   9.150
 5054POPC   GL111437  35.370  17.464   8.850
 5054POPC   GL211438  35.418  17.436   8.850
 5054POPC   C1A11439  35.363  17.472   8.550
 5054POPC   D2A11440  35.387  17.495   8.250
 5054POPC   C3A11441  35.304  17.512   7.950
 5054POPC   C4A11442  35.396  17.512   7.650
 5054POPC   C1B11443  35.474  17.316   8.550
 5054POPC   C2B11444  35.479  17.304   8.250
 5054POPC   C3B11445  35.429  17.265   7.950
 5054POPC   C4B11446  35.413  17.279   7.650
 5055POPC   NC311447  39.205  15.202   9.450
 5055POPC   PO411448  39.221  15.219   9.150
 5055POPC   GL111449  39.189  15.206   8.850
 5055POPC   GL211450  39.366  15.275   8.850
 5055POPC   C1A11451  39.240  15.167   8.550
 5055POPC   D2A11452  39.279  15.189   8.250
 5055POPC   C3A11453  39.183  15.183   7.950
 5055POPC   C4A11454  39.230  15.132   7.650
 5055POPC   C1B11455  39.454  15.334   8.550
 5055POPC   C2B11456  39.393  15.335   8.250
 5055POPC   C3B11457  39.454  15.278   7.950
 5055POPC   C4B11458  39.414  15.317   7.650
 5056POPC   NC311459  40.036  19.009   9.450
 5056POPC   PO411460  40.045  19.103   9.150
 5056POPC   GL111461  40.020  19.058   8.850
 5056POPC   GL211462  40.123  19.124   8.850
 5056POPC   C1A11463  40.021  19.016   8.550
 5056POPC   D2A11464  39.974  19.029   8.250
 5056POPC   C3A11465  40.008  19.093   7.950
 5056POPC   C4A11466  40.014  19.077   7.650
 5056POPC   C1B11467  40.160  19.263   8.550
 5056POPC   C2B11468  40.180  19.309   8.250
 5056POPC   C3B11469  40.125  19.246   7.950
 5056POPC   C4B11470  40.188  19.250   7.650
 5057POPC   NC311471   3.584  22.920   9.450
 5057POPC   PO411472   3.503  22.943   9.150
 5057POPC   GL111473   3.533  22.976   8.850
 5057POPC   GL211474   3.677  22.939   8.850
 5057POPC   C1A11475   3.508  22.934   8.550
 5057POPC   D2A11476   3.565  22.953   8.250
 5057POPC   C3A11477   3.590  22.889   7.950
 5057POPC   C4A11478   3.555  22.912   7.650
 5057POPC   C1B11479   3.749  22.823   8.550
 5057POPC   C2B11480   3.784  22.811   8.250
 5057POPC   C3B11481   3.768  22.868   7.950
 5057POPC   C4B11482   3.743  22.876   7.650
 5058POPC   NC311483  33.810  44.657   9.450
 5058POPC   PO411484  33.837  44.656   9.150
 5058POPC   GL111485  33.808  44.665   8.850
 5058POPC   GL211486  33.886  44.598   8.850
 5058POPC   C1A11487  33.811  44.618   8.550
 5058POPC   D2A11488  33.796  44.652   8.250
 5058POPC   C3A11489  33.802  44.648   7.950
 5058POPC   C4A11490  33.802  44.711   7.650
 5058POPC   C1B11491  34.023  44.534   8.550
 5058POPC   C2B11492  33.982  44.578   8.250
 5058POPC   C3B11493  34.041  44.569   7.950
 5058POPC   C4B11494  34.006  44.498   7.650
 5059POPC   NC311495  23.746  36.861   9.450
 5059POPC   PO411496  23.690  36.936   9.150
 5059POPC   GL111497  23.733  36.917   8.850
 5059POPC   GL211498  23.815  36.937   8.850
 5059POPC   C1A11499  23.700  36.919   8.550
 5059POPC   D2A11500  23.698  36.943   8.250
 5059POPC   C3A11501  23.681  36.899   7.950
 5059POPC   C4A11502  23.749  36.863   7.650
 5059POPC   C1B11503  23.934  36.991   8.550
 5059POPC   C2B11504  23.986  37.044   8.250
 5059POPC   C3B11505  23.936  37.017   7.950
 5059POPC   C4B11506  23.936  36.991   7.650
 5060POPC   NC311507  40.771  41.519   9.450
 5060POPC   PO411508  40.772  41.589   9.150
 5060POPC   GL111509  40.787  41.584   8.850
 5060POPC   GL211510  40.744  41.601   8.850
 5060POPC   C1A11511  40.804  41.542   8.550
 5060POPC   D2A11512  40.779  41.580   8.250
 5060POPC   C3A11513  40.811  41.537   7.950
 5060POPC   C4A11514  40.757  41.563   7.650
 5060POPC   C1B11515  40.568  41.734   8.550
 5060POPC   C2B11516  40.632  41.735   8.250
 5060POPC   C3B11517  40.561  41.729   7.950
 5060POPC   C4B11518  40.563  41.694   7.650
 5061POPC   NC311519  25.260   4.306   9.450
 5061POPC   PO411520  25.226   4.269   9.150
 5061POPC   GL111521  25.269   4.277   8.850
 5061POPC   GL211522  25.306   4.218   8.850
 5061POPC   C1A11523  25.237   4.269   8.550
 5061POPC   D2A11524  25.297   4.307   8.250
 5061POPC   C3A11525  25.255   4.315   7.950
 5061POPC   C4A11526  25.290   4.271   7.650
 5061POPC   C1B11527  25.206   4.039   8.550
 5061POPC   C2B11528  25.238   4.038   8.250
 5061POPC   C3B11529  25.201   4.118   7.950
 5061POPC   C4B11530  25.220   4.114   7.650
 5062POPC   NC311531   3.553  44.697   9.450
 5062POPC   PO411532   3.580  44.682   9.150
 5062POPC   GL111533   3.497  44.684   8.850
 5062POPC   GL211534   3.475  44.607   8.850
 5062POPC   C1A11535   3.555  44.621   8.550
 5062POPC   D2A11536   3.543  44.711   8.250
 5062POPC   C3A11537   3.590  44.650   7.950
 5062POPC   C4A11538   3.569  44.627   7.650
 5062POPC   C1B11539   3.321  44.494   8.550
 5062POPC   C2B11540   3.378  44.499   8.250
 5062POPC   C3B11541   3.322  44.491   7.950
 5062POPC   C4B11542   3.407  44.454   7.650
 5063POPC   NC311543  29.938  16.694   9.450
 5063POPC   PO411544  29.926  16.737   9.150
 5063POPC   GL111545  29.896  16.711   8.850
 5063POPC   GL211546  30.013  16.592   8.850
 5063POPC   C1A11547  29.964  16.766   8.550
 5063POPC   D2A11548  29.902  16.727   8.250
 5063POPC   C3A11549  29.876  16.780   7.950
 5063POPC   C4A11550  29.940  16.724   7.650
 5063POPC   C1B11551  30.023  16.527   8.550
 5063POPC   C2B11552  30.037  16.509   8.250
 5063POPC   C3B11553  30.077  16.473   7.950
 5063POPC   C4B11554  29.987  16.476   7.650
 5064POPC   NC311555  19.808  33.046   9.450
 5064POPC   PO411556  19.871  33.052   9.150
 5064POPC   GL111557  19.845  32.993   8.850
 5064POPC   GL211558  19.715  33.145   8.850
 5064POPC   C1A11559  19.875  32.979   8.550
 5064POPC   D2A11560  19.801  33.030   8.250
 5064POPC   C3A11561  19.837  33.057   7.950
 5064POPC   C4A11562  19.851  33.045   7.650
 5064POPC   C1B11563  19.609  33.176   8.550
 5064POPC   C2B11564  19.621  33.139   8.250
 5064POPC   C3B11565  19.666  33.158   7.950
 5064POPC   C4B11566  19.647  33.220   7.650
 5065POPC   NC311567  33.003   2.777   9.450
 5065POPC   PO411568  32.996   2.772   9.150
 5065POPC   GL111569  33.056   2.793   8.850
 5065POPC   GL211570  32.872   2.842   8.850
 5065POPC   C1A11571  33.054   2.771   8.550
 5065POPC   D2A11572  33.011   2.799   8.250
 5065POPC   C3A11573  33.030   2.805   7.950
 5065POPC   C4A11574  33.071   2.783   7.650
 5065POPC   C1B11575  32.795   2.815   8.550
 5065POPC   C2B11576  32.779   2.843   8.250
 5065POPC   C3B11577  32.740   2.803   7.950
 5065POPC   C4B11578  32.794   2.812   7.650
 5066POPC   NC311579  36.878  40.002   9.450
 5066POPC   PO411580  36.952  40.043   9.150
 5066POPC   GL111581  36.887  40.052   8.850
 5066POPC   GL211582  37.054  39.977   8.850
 5066POPC   C1A11583  36.862  39.975   8.550
 5066POPC   D2A11584  36.890  40.000   8.250
 5066POPC   C3A11585  36.913  39.990   7.950
 5066POPC   C4A11586  36.930  40.019   7.650
 5066POPC   C1B11587  37.107  39.927   8.550
 5066POPC   C2B11588  37.165  39.898   8.250
 5066POPC   C3B11589  37.184  39.987   7.950
 5066POPC   C4B11590  37.188  39.933   7.650
 5067POPC   NC311591  17.468  19.835   9.450
 5067POPC   PO411592  17.502  19.795   9.150
 5067POPC   GL111593  17.461  19.822   8.850
 5067POPC   GL211594  17.647  19.938   8.850
 5067POPC   C1A11595  17.549  19.789   8.550
 5067POPC   D2A11596  17.496  19.826   8.250
 5067POPC   C3A11597  17.537  19.883   7.950
 5067POPC   C4A11598  17.531  19.820   7.650
 5067POPC   C1B11599  17.647  19.971   8.550
 5067POPC   C2B11600  17.689  20.044   8.250
 5067POPC   C3B11601  17.743  19.981   7.950
 5067POPC   C4B11602  17.681  20.043   7.650
 5068POPC   NC311603  27.567  37.681   9.450
 5068POPC   PO411604  27.560  37.693   9.150
 5068POPC   GL111605  27.548  37.685   8.850
 5068POPC   GL211606  27.758  37.676   8.850
 5068POPC   C1A11607  27.545  37.669   8.550
 5068POPC   D2A11608  27.580  37.691   8.250
 5068POPC   C3A11609  27.544  37.647   7.950
 5068POPC   C4A11610  27.626  37.693   7.650
 5068POPC   C1B11611  27.796  37.589   8.550
 5068POPC   C2B11612  27.867  37.662   8.250
 5068POPC   C3B11613  27.885  37.589   7.950
 5068POPC   C4B11614  27.803  37.619   7.650
 5069POPC   NC311615   3.554  25.256   9.450
 5069POPC   PO411616   3.543  25.309   9.150
 5069POPC   GL111617   3.589  25.269   8.850
 5069POPC   GL211618   3.657  25.351   8.850
 5069POPC   C1A11619   3.560  25.255   8.550
 5069POPC   D2A11620   3.528  25.264   8.250
 5069POPC   C3A11621   3.536  25.273   7.950
 5069POPC   C4A11622   3.509  25.263   7.650
 5069POPC   C1B11623   3.674  25.414   8.550
 5069POPC   C2B11624   3.748  25.435   8.250
 5069POPC   C3B11625   3.726  25.407   7.950
 5069POPC   C4B11626   3.703  25.437   7.650
 5070POPC   NC311627  42.303   6.638   9.450
 5070POPC   PO411628  42.370   6.609   9.150
 5070POPC   GL111629  42.361   6.621   8.850
 5070POPC   GL211630  42.436   6.624   8.850
 5070POPC   C1A11631  42.292   6.609   8.550
 5070POPC   D2A11632  42.356   6.671   8.250
 5070POPC   C3A11633  42.374   6.610   7.950
 5070POPC   C4A11634  42.383   6.645   7.650
 5070POPC   C1B11635  42.569   6.657   8.550
 5070POPC   C2B11636  42.542   6.717   8.250
 5070POPC   C3B11637  42.592   6.737   7.950
 5070POPC   C4B11638  42.606   6.685   7.650
 5071POPC   NC311639  26.819  26.005   9.450
 5071POPC   PO411640  26.800  26.044   9.150
 5071POPC   GL111641  26.840  26.084   8.850
 5071POPC   GL211642  26.755  25.975   8.850
 5071POPC   C1A11643  26.824  26.019   8.550
 5071POPC   D2A11644  26.861  25.997   8.250
 5071POPC   C3A11645  26.801  26.006   7.950
 5071POPC   C4A11646  26.776  26.001   7.650
 5071POPC   C1B11647  26.643  25.834   8.550
 5071POPC   C2B11648  26.670  25.912   8.250
 5071POPC   C3B11649  26.600  25.853   7.950
 5071POPC   C4B11650  26.611  25.854   7.650
 5072POPC   NC311651  14.397  38.480   9.450
 5072POPC   PO411652  14.435  38.462   9.150
 5072POPC   GL111653  14.362  38.440   8.850
 5072POPC   GL211654  14.500  38.538   8.850
 5072POPC   C1A11655  14.385  38.482   8.550
 5072POPC   D2A11656  14.379  38.450   8.250
 5072POPC   C3A11657  14.428  38.499   7.950
 5072POPC   C4A11658  14.384  38.443   7.650
 5072POPC   C1B11659  14.502  38.714   8.550
 5072POPC   C2B11660  14.484  38.722   8.250
 5072POPC   C3B11661  14.494  38.688   7.950
 5072POPC   C4B11662  14.541  38.658   7.650
 5073POPC   NC311663  40.031  17.537   9.450
 5073POPC   PO411664  39.980  17.511   9.150
 5073POPC   GL111665  40.021  17.546   8.850
 5073POPC   GL211666  39.836  17.518   8.850
 5073POPC   C1A11667  40.054  17.535   8.550
 5073POPC   D2A11668  40.051  17.472   8.250
 5073POPC   C3A11669  40.035  17.507   7.950
 5073POPC   C4A11670  39.971  17.524   7.650
 5073POPC   C1B11671  39.809  17.425   8.550
 5073POPC   C2B11672  39.771  17.456   8.250
 5073POPC   C3B11673  39.794  17.430   7.950
 5073POPC   C4B11674  39.787  17.456   7.650
 5074POPC   NC311675  15.992  27.569   9.450
 5074POPC   PO411676  15.989  27.614   9.150
 5074POPC   GL111677  15.932  27.595   8.850
 5074POPC   GL211678  15.829  27.643   8.850
 5074POPC   C1A11679  15.963  27.557   8.550
 5074POPC   D2A11680  15.935  27.610   8.250
 5074POPC   C3A11681  15.973  27.641   7.950
 5074POPC   C4A11682  15.914  27.582   7.650
 5074POPC   C1B11683  15.753  27.720   8.550
 5074POPC   C2B11684  15.717  27.736   8.250
 5074POPC   C3B11685  15.714  27.761   7.950
 5074POPC   C4B11686  15.785  27.789   7.650
 5075POPC   NC311687  19.042  32.220   9.450
 5075POPC   PO411688  19.108  32.221   9.150
 5075POPC   GL111689  19.093  32.266   8.850
 5075POPC   GL211690  19.152  32.253   8.850
 5075POPC   C1A11691  19.091  32.214   8.550
 5075POPC   D2A11692  19.044  32.211   8.250
 5075POPC   C3A11693  19.064  32.262   7.950
 5075POPC   C4A11694  19.036  32.261   7.650
 5075POPC   C1B11695  19.349  32.252   8.550
 5075POPC   C2B11696  19.313  32.250   8.250
 5075POPC   C3B11697  19.316  32.228   7.950
 5075POPC   C4B11698  19.329  32.241   7.650
 5076POPC   NC311699  30.698   3.566   9.450
 5076POPC   PO411700  30.734   3.517   9.150
 5076POPC   GL111701  30.699   3.529   8.850
 5076POPC   GL211702  30.672   3.687   8.850
 5076POPC   C1A11703  30.682   3.557   8.550
 5076POPC   D2A11704  30.743   3.559   8.250
 5076POPC   C3A11705  30.730   3.519   7.950
 5076POPC   C4A11706  30.678   3.524   7.650
 5076POPC   C1B11707  30.637   3.795   8.550
 5076POPC   C2B11708  30.707   3.742   8.250
 5076POPC   C3B11709  30.614   3.770   7.950
 5076POPC   C4B11710  30.638   3.761   7.650
 5077POPC   NC311711  43.872  23.665   9.450
 5077POPC   PO411712  43.847  23.706   9.150
 5077POPC   GL111713  43.889  23.749   8.850
 5077POPC   GL211714  43.908  23.575   8.850
 5077POPC   C1A11715  43.915  23.691   8.550
 5077POPC   D2A11716  43.926  23.752   8.250
 5077POPC   C3A11717  43.902  23.679   7.950
 5077POPC   C4A11718  43.840  23.744   7.650
 5077POPC   C1B11719  43.879  23.438   8.550
 5077POPC   C2B11720  43.903  23.494   8.250
 5077POPC   C3B11721  43.874  23.478   7.950
 5077POPC   C4B11722  43.830  23.504   7.650
 5078POPC   NC311723  20.577  43.921   9.450
 5078POPC   PO411724  20.605  43.896   9.150
 5078POPC   GL111725  20.613  43.882   8.850
 5078POPC   GL211726  20.517  43.888   8.850
 5078POPC   C1A11727  20.632  43.870   8.550
 5078POPC   D2A11728  20.659  43.900   8.250
 5078POPC   C3A11729  20.573  43.885   7.950
 5078POPC   C4A11730  20.660  43.881   7.650
 5078POPC   C1B11731  20.331  43.872   8.550
 5078POPC   C2B11732  20.317  43.902   8.250
 5078POPC   C3B11733  20.399  43.868   7.950
 5078POPC   C4B11734  20.393  43.869   7.650
 5079POPC   NC311735   1.968  19.874   9.450
 5079POPC   PO411736   2.018  19.852   9.150
 5079POPC   GL111737   1.975  19.849   8.850
 5079POPC   GL211738   1.986  19.758   8.850
 5079POPC   C1A11739   2.001  19.808   8.550
 5079POPC   D2A11740   1.949  19.808   8.250
 5079POPC   C3A11741   2.035  19.878   7.950
 5079POPC   C4A11742   1.973  19.813   7.650
 5079POPC   C1B11743   1.998  19.549   8.550
 5079POPC   C2B11744   2.031  19.576   8.250
 5079POPC   C3B11745   2.011  19.590   7.950
 5079POPC   C4B11746   2.016  19.553   7.650
 5080POPC   NC311747  13.619  34.601   9.450
 5080POPC   PO411748  13.621  34.575   9.150
 5080POPC   GL111749  13.673  34.593   8.850
 5080POPC   GL211750  13.552  34.647   8.850
 5080POPC   C1A11751  13.632  34.575   8.550
 5080POPC   D2A11752  13.613  34.621   8.250
 5080POPC   C3A11753  13.622  34.546   7.950
 5080POPC   C4A11754  13.599  34.618   7.650
 5080POPC   C1B11755  13.464  34.681   8.550
 5080POPC   C2B11756  13.446  34.695   8.250
 5080POPC   C3B11757  13.401  34.671   7.950
 5080POPC   C4B11758  13.379  34.751   7.650
 5081POPC   NC311759  43.133   1.240   9.450
 5081POPC   PO411760  43.160   1.208   9.150
 5081POPC   GL111761  43.118   1.212   8.850
 5081POPC   GL211762  43.043   1.096   8.850
 5081POPC   C1A11763  43.083   1.170   8.550
 5081POPC   D2A11764  43.106   1.189   8.250
 5081POPC   C3A11765  43.081   1.193   7.950
 5081POPC   C4A11766  43.143   1.193   7.650
 5081POPC   C1B11767  42.907   1.004   8.550
 5081POPC   C2B11768  42.954   0.989   8.250
 5081POPC   C3B11769  42.925   1.064   7.950
 5081POPC   C4B11770  42.979   1.027   7.650
 5082POPC   NC311771  12.822  18.304   9.450
 5082POPC   PO411772  12.849  18.314   9.150
 5082POPC   GL111773  12.829  18.275   8.850
 5082POPC   GL211774  12.739  18.211   8.850
 5082POPC   C1A11775  12.859  18.253   8.550
 5082POPC   D2A11776  12.889  18.270   8.250
 5082POPC   C3A11777  12.854  18.251   7.950
 5082POPC   C4A11778  12.833  18.319   7.650
 5082POPC   C1B11779  12.585  18.246   8.550
 5082POPC   C2B11780  12.592  18.205   8.250
 5082POPC   C3B11781  12.650  18.170   7.950
 5082POPC   C4B11782  12.622  18.188   7.650
 5083POPC   NC311783  18.238  22.907   9.450
 5083POPC   PO411784  18.298  22.945   9.150
 5083POPC   GL111785  18.313  22.912   8.850
 5083POPC   GL211786  18.205  23.070   8.850
 5083POPC   C1A11787  18.246  22.938   8.550
 5083POPC   D2A11788  18.236  22.917   8.250
 5083POPC   C3A11789  18.240  22.942   7.950
 5083POPC   C4A11790  18.264  22.893   7.650
 5083POPC   C1B11791  18.099  23.153   8.550
 5083POPC   C2B11792  18.142  23.119   8.250
 5083POPC   C3B11793  18.164  23.107   7.950
 5083POPC   C4B11794  18.164  23.082   7.650
 5084POPC   NC311795  13.615  39.211   9.450
 5084POPC   PO411796  13.667  39.278   9.150
 5084POPC   GL111797  13.590  39.271   8.850
 5084POPC   GL211798  13.684  39.106   8.850
 5084POPC   C1A11799  13.604  39.187   8.550
 5084POPC   D2A11800  13.634  39.260   8.250
 5084POPC   C3A11801  13.587  39.211   7.950
 5084POPC   C4A11802  13.676  39.190   7.650
 5084POPC   C1B11803  13.741  39.036   8.550
 5084POPC   C2B11804  13.736  39.024   8.250
 5084POPC   C3B11805  13.755  39.038   7.950
 5084POPC   C4B11806  13.725  38.955   7.650
 5085POPC   NC311807  43.080  38.470   9.450
 5085POPC   PO411808  43.137  38.486   9.150
 5085POPC   GL111809  43.144  38.409   8.850
 5085POPC   GL211810  42.952  38.409   8.850
 5085POPC   C1A11811  43.130  38.502   8.550
 5085POPC   D2A11812  43.093  38.504   8.250
 5085POPC   C3A11813  43.153  38.452   7.950
 5085POPC   C4A11814  43.091  38.457   7.650
 5085POPC   C1B11815  42.835  38.412   8.550
 5085POPC   C2B11816  42.878  38.446   8.250
 5085POPC   C3B11817  42.911  38.467   7.950
 5085POPC   C4B11818  42.853  38.373   7.650
 5086POPC   NC311819  29.136   3.502   9.450
 5086POPC   PO411820  29.098   3.541   9.150
 5086POPC   GL111821  29.156   3.582   8.850
 5086POPC   GL211822  29.161   3.392   8.850
 5086POPC   C1A11823  29.109   3.590   8.550
 5086POPC   D2A11824  29.111   3.499   8.250
 5086POPC   C3A11825  29.183   3.588   7.950
 5086POPC   C4A11826  29.133   3.552   7.650
 5086POPC   C1B11827  29.084   3.253   8.550
 5086POPC   C2B11828  29.144   3.278   8.250
 5086POPC   C3B11829  29.087   3.257   7.950
 5086POPC   C4B11830  29.143   3.257   7.650
 5087POPC   NC311831  29.186  30.709   9.450
 5087POPC   PO411832  29.143  30.737   9.150
 5087POPC   GL111833  29.113  30.667   8.850
 5087POPC   GL211834  29.243  30.817   8.850
 5087POPC   C1A11835  29.111  30.740   8.550
 5087POPC   D2A11836  29.189  30.715   8.250
 5087POPC   C3A11837  29.136  30.663   7.950
 5087POPC   C4A11838  29.176  30.696   7.650
 5087POPC   C1B11839  29.308  30.850   8.550
 5087POPC   C2B11840  29.252  30.939   8.250
 5087POPC   C3B11841  29.339  30.859   7.950
 5087POPC   C4B11842  29.292  30.861   7.650
 5088POPC   NC311843  37.686  40.036   9.450
 5088POPC   PO411844  37.657  40.027   9.150
 5088POPC   GL111845  37.718  39.992   8.850
 5088POPC   GL211846  37.509  39.981   8.850
 5088POPC   C1A11847  37.719  40.009   8.550
 5088POPC   D2A11848  37.710  40.028   8.250
 5088POPC   C3A11849  37.710  40.029   7.950
 5088POPC   C4A11850  37.724  39.998   7.650
 5088POPC   C1B11851  37.445  39.941   8.550
 5088POPC   C2B11852  37.395  39.927   8.250
 5088POPC   C3B11853  37.406  39.988   7.950
 5088POPC   C4B11854  37.447  39.939   7.650
 5089POPC   NC311855  20.567  23.746   9.450
 5089POPC   PO411856  20.568  23.698   9.150
 5089POPC   GL111857  20.605  23.754   8.850
 5089POPC   GL211858  20.758  23.790   8.850
 5089POPC   C1A11859  20.585  23.742   8.550
 5089POPC   D2A11860  20.654  23.700   8.250
 5089POPC   C3A11861  20.640  23.725   7.950
 5089POPC   C4A11862  20.624  23.691   7.650
 5089POPC   C1B11863  20.791  23.848   8.550
 5089POPC   C2B11864  20.801  23.807   8.250
 5089POPC   C3B11865  20.857  23.861   7.950
 5089POPC   C4B11866  20.838  23.828   7.650
 5090POPC   NC311867  29.879  30.696   9.450
 5090POPC   PO411868  29.936  30.670   9.150
 5090POPC   GL111869  29.909  30.727   8.850
 5090POPC   GL211870  29.991  30.836   8.850
 5090POPC   C1A11871  29.889  30.716   8.550
 5090POPC   D2A11872  29.924  30.712   8.250
 5090POPC   C3A11873  29.888  30.707   7.950
 5090POPC   C4A11874  29.919  30.714   7.650
 5090POPC   C1B11875  29.994  30.927   8.550
 5090POPC   C2B11876  30.013  30.897   8.250
 5090POPC   C3B11877  30.007  30.927   7.950
 5090POPC   C4B11878  30.007  30.917   7.650
 5091POPC   NC311879   1.955  34.561   9.450
 5091POPC   PO411880   2.009  34.605   9.150
 5091POPC   GL111881   1.978  34.563   8.850
 5091POPC   GL211882   2.135  34.607   8.850
 5091POPC   C1A11883   2.009  34.607   8.550
 5091POPC   D2A11884   1.981  34.607   8.250
 5091POPC   C3A11885   1.952  34.556   7.950
 5091POPC   C4A11886   1.967  34.567   7.650
 5091POPC   C1B11887   2.247  34.631   8.550
 5091POPC   C2B11888   2.222  34.631   8.250
 5091POPC   C3B11889   2.214  34.647   7.950
 5091POPC   C4B11890   2.198  34.607   7.650
 5092POPC   NC311891   5.876  33.055   9.450
 5092POPC   PO411892   5.855  33.044   9.150
 5092POPC   GL111893   5.897  33.056   8.850
 5092POPC   GL211894   5.745  33.095   8.850
 5092POPC   C1A11895   5.865  33.044   8.550
 5092POPC   D2A11896   5.835  33.022   8.250
 5092POPC   C3A11897   5.854  33.044   7.950
 5092POPC   C4A11898   5.875  32.989   7.650
 5092POPC   C1B11899   5.618  33.100   8.550
 5092POPC   C2B11900   5.640  33.147   8.250
 5092POPC   C3B11901   5.661  33.172   7.950
 5092POPC   C4B11902   5.594  33.174   7.650
 5093POPC   NC311903  37.665  44.672   9.450
 5093POPC   PO411904  37.693  44.665   9.150
 5093POPC   GL111905  37.728  44.648   8.850
 5093POPC   GL211906  37.585  44.704   8.850
 5093POPC   C1A11907  37.697  44.621   8.550
 5093POPC   D2A11908  37.717  44.705   8.250
 5093POPC   C3A11909  37.709  44.657   7.950
 5093POPC   C4A11910  37.688  44.673   7.650
 5093POPC   C1B11911  37.419  44.735   8.550
 5093POPC   C2B11912  37.439  44.730   8.250
 5093POPC   C3B11913  37.434  44.761   7.950
 5093POPC   C4B11914  37.425  44.754   7.650
 5094POPC   NC311915  29.177   8.165   9.450
 5094POPC   PO411916  29.149   8.164   9.150
 5094POPC   GL111917  29.115   8.207   8.850
 5094POPC   GL211918  29.172   8.129   8.850
 5094POPC   C1A11919  29.154   8.166   8.550
 5094POPC   D2A11920  29.149   8.180   8.250
 5094POPC   C3A11921  29.152   8.157   7.950
 5094POPC   C4A11922  29.105   8.156   7.650
 5094POPC   C1B11923  29.301   7.972   8.550
 5094POPC   C2B11924  29.261   7.971   8.250
 5094POPC   C3B11925  29.310   7.970   7.950
 5094POPC   C4B11926  29.276   7.970   7.650
 5095POPC   NC311927  44.623  15.963   9.450
 5095POPC   PO411928  44.683  15.969   9.150
 5095POPC   GL111929  44.670  15.947   8.850
 5095POPC   GL211930  44.518  15.864   8.850
 5095POPC   C1A11931  44.615  15.908   8.550
 5095POPC   D2A11932  44.638  15.928   8.250
 5095POPC   C3A11933  44.623  15.997   7.950
 5095POPC   C4A11934  44.659  15.912   7.650
 5095POPC   C1B11935  44.417  15.783   8.550
 5095POPC   C2B11936  44.437  15.880   8.250
 5095POPC   C3B11937  44.437  15.859   7.950
 5095POPC   C4B11938  44.466  15.864   7.650
 5096POPC   NC311939   3.543  43.078   9.450
 5096POPC   PO411940   3.538  43.112   9.150
 5096POPC   GL111941   3.584  43.136   8.850
 5096POPC   GL211942   3.458  43.174   8.850
 5096POPC   C1A11943   3.492  43.108   8.550
 5096POPC   D2A11944   3.558  43.125   8.250
 5096POPC   C3A11945   3.580  43.124   7.950
 5096POPC   C4A11946   3.530  43.126   7.650
 5096POPC   C1B11947   3.257  43.144   8.550
 5096POPC   C2B11948   3.311  43.210   8.250
 5096POPC   C3B11949   3.285  43.148   7.950
 5096POPC   C4B11950   3.334  43.204   7.650
 5097POPC   NC311951  43.065  41.556   9.450
 5097POPC   PO411952  43.114  41.553   9.150
 5097POPC   GL111953  43.105  41.512   8.850
 5097POPC   GL211954  43.078  41.475   8.850
 5097POPC   C1A11955  43.071  41.527   8.550
 5097POPC   D2A11956  43.102  41.600   8.250
 5097POPC   C3A11957  43.122  41.542   7.950
 5097POPC   C4A11958  43.061  41.523   7.650
 5097POPC   C1B11959  42.913  41.410   8.550
 5097POPC   C2B11960  42.904  41.394   8.250
 5097POPC   C3B11961  42.970  41.370   7.950
 5097POPC   C4B11962  42.900  41.379   7.650
 5098POPC   NC311963  19.093  26.050   9.450
 5098POPC   PO411964  19.034  26.028   9.150
 5098POPC   GL111965  19.017  26.023   8.850
 5098POPC   GL211966  19.108  26.119   8.850
 5098POPC   C1A11967  19.107  26.086   8.550
 5098POPC   D2A11968  19.050  26.045   8.250
 5098POPC   C3A11969  19.057  26.003   7.950
 5098POPC   C4A11970  19.014  26.080   7.650
 5098POPC   C1B11971  19.256  26.283   8.550
 5098POPC   C2B11972  19.220  26.203   8.250
 5098POPC   C3B11973  19.217  26.250   7.950
 5098POPC   C4B11974  19.185  26.205   7.650
 5099POPC   NC311975  13.639  12.121   9.450
 5099POPC   PO411976  13.607  12.080   9.150
 5099POPC   GL111977  13.608  12.037   8.850
 5099POPC   GL211978  13.588  11.980   8.850
 5099POPC   C1A11979  13.641  12.061   8.550
 5099POPC   D2A11980  13.584  12.058   8.250
 5099POPC   C3A11981  13.662  12.124   7.950
 5099POPC   C4A11982  13.599  12.075   7.650
 5099POPC   C1B11983  13.556  11.876   8.550
 5099POPC   C2B11984  13.557  11.865   8.250
 5099POPC   C3B11985  13.575  11.876   7.950
 5099POPC   C4B11986  13.578  11.805   7.650
 5100POPC   NC311987  31.466  33.771   9.450
 5100POPC   PO411988  31.479  33.766   9.150
 5100POPC   GL111989  31.478  33.840   8.850
 5100POPC   GL211990  31.415  33.696   8.850
 5100POPC   C1A11991  31.475  33.784   8.550
 5100POPC   D2A11992  31.515  33.777   8.250
 5100POPC   C3A11993  31.511  33.843   7.950
 5100POPC   C4A11994  31.449  33.752   7.650
 5100POPC   C1B11995  31.417  33.504   8.550
 5100POPC   C2B11996  31.448  33.520   8.250
 5100POPC   C3B11997  31.405  33.562   7.950
 5100POPC   C4B11998  31.413  33.504   7.650
 5101POPC   NC311999  17.534  18.327   9.450
 5101POPC   PO412000  17.556  18.292   9.150
 5101POPC   GL112001  17.489  18.241   8.850
 5101POPC   GL212002  17.590  18.422   8.850
 5101POPC   C1A12003  17.495  18.290   8.550
 5101POPC   D2A12004  17.524  18.280   8.250
 5101POPC   C3A12005  17.461  18.235   7.950
 5101POPC   C4A12006  17.475  18.277   7.650
 5101POPC   C1B12007  17.676  18.545   8.550
 5101POPC   C2B12008  17.655  18.458   8.250
 5101POPC   C3B12009  17.661  18.540   7.950
 5101POPC   C4B12010  17.628  18.480   7.650
 5102POPC   NC312011   2.722   7.470   9.450
 5102POPC   PO412012   2.753   7.407   9.150
 5102POPC   GL112013   2.745   7.384   8.850
 5102POPC   GL212014   2.858   7.540   8.850
 5102POPC   C1A12015   2.735   7.435   8.550
 5102POPC   D2A12016   2.777   7.450   8.250
 5102POPC   C3A12017   2.734   7.428   7.950
 5102POPC   C4A12018   2.733   7.462   7.650
 5102POPC   C1B12019   2.925   7.652   8.550
 5102POPC   C2B12020   2.856   7.678   8.250
 5102POPC   C3B12021   2.834   7.603   7.950
 5102POPC   C4B12022   2.921   7.646   7.650
 5103POPC   NC312023  43.090  22.974   9.450
 5103POPC   PO412024  43.128  22.953   9.150
 5103POPC   GL112025  43.088  22.910   8.850
 5103POPC   GL212026  42.983  22.957   8.850
 5103POPC   C1A12027  43.148  22.978   8.550
 5103POPC   D2A12028  43.092  22.902   8.250
 5103POPC   C3A12029  43.121  22.959   7.950
 5103POPC   C4A12030  43.105  22.890   7.650
 5103POPC   C1B12031  42.847  23.016   8.550
 5103POPC   C2B12032  42.889  23.036   8.250
 5103POPC   C3B12033  42.880  22.951   7.950
 5103POPC   C4B12034  42.821  23.021   7.650
 5104POPC   NC312035  26.838  26.824   9.450
 5104POPC   PO412036  26.808  26.833   9.150
 5104POPC   GL112037  26.787  26.825   8.850
 5104POPC   GL212038  26.677  26.880   8.850
 5104POPC   C1A12039  26.807  26.866   8.550
 5104POPC   D2A12040  26.802  26.847   8.250
 5104POPC   C3A12041  26.847  26.814   7.950
 5104POPC   C4A12042  26.829  26.786   7.650
 5104POPC   C1B12043  26.570  26.910   8.550
 5104POPC   C2B12044  26.615  26.948   8.250
 5104POPC   C3B12045  26.561  26.909   7.950
 5104POPC   C4B12046  26.555  26.943   7.650
 5105POPC   NC312047  43.088  33.029   9.450
 5105POPC   PO412048  43.089  33.043   9.150
 5105POPC   GL112049  43.095  32.992   8.850
 5105POPC   GL212050  43.221  33.095   8.850
 5105POPC   C1A12051  43.138  33.048   8.550
 5105POPC   D2A12052  43.147  32.998   8.250
 5105POPC   C3A12053  43.151  32.987   7.950
 5105POPC   C4A12054  43.085  33.047   7.650
 5105POPC   C1B12055  43.311  33.093   8.550
 5105POPC   C2B12056  43.350  33.082   8.250
 5105POPC   C3B12057  43.343  33.064   7.950
 5105POPC   C4B12058  43.334  33.066   7.650
 5106POPC   NC312059  43.127  39.188   9.450
 5106POPC   PO412060  43.160  39.196   9.150
 5106POPC   GL112061  43.098  39.190   8.850
 5106POPC   GL212062  43.150  39.368   8.850
 5106POPC   C1A12063  43.158  39.237   8.550
 5106POPC   D2A12064  43.129  39.249   8.250
 5106POPC   C3A12065  43.151  39.209   7.950
 5106POPC   C4A12066  43.153  39.244   7.650
 5106POPC   C1B12067  43.150  39.449   8.550
 5106POPC   C2B12068  43.112  39.453   8.250
 5106POPC   C3B12069  43.148  39.432   7.950
 5106POPC   C4B12070  43.146  39.475   7.650
 5107POPC   NC312071  21.432  21.402   9.450
 5107POPC   PO412072  21.427  21.413   9.150
 5107POPC   GL112073  21.349  21.416   8.850
 5107POPC   GL212074  21.289  21.347   8.850
 5107POPC   C1A12075  21.404  21.366   8.550
 5107POPC   D2A12076  21.412  21.408   8.250
 5107POPC   C3A12077  21.409  21.379   7.950
 5107POPC   C4A12078  21.420  21.371   7.650
 5107POPC   C1B12079  21.159  21.392   8.550
 5107POPC   C2B12080  21.117  21.448   8.250
 5107POPC   C3B12081  21.149  21.360   7.950
 5107POPC   C4B12082  21.113  21.375   7.650
 5108POPC   NC312083  23.726  35.353   9.450
 5108POPC   PO412084  23.689  35.359   9.150
 5108POPC   GL112085  23.757  35.352   8.850
 5108POPC   GL212086  23.566  35.338   8.850
 5108POPC   C1A12087  23.698  35.400   8.550
 5108POPC   D2A12088  23.682  35.345   8.250
 5108POPC   C3A12089  23.673  35.380   7.950
 5108POPC   C4A12090  23.719  35.399   7.650
 5108POPC   C1B12091  23.447  35.318   8.550
 5108POPC   C2B12092  23.449  35.354   8.250
 5108POPC   C3B12093  23.431  35.354   7.950
 5108POPC   C4B12094  23.481  35.317   7.650
 5109POPC   NC312095   7.440  43.899   9.450
 5109POPC   PO412096   7.467  43.899   9.150
 5109POPC   GL112097   7.424  43.857   8.850
 5109POPC   GL212098   7.518  43.857   8.850
 5109POPC   C1A12099   7.465  43.867   8.550
 5109POPC   D2A12100   7.400  43.909   8.250
 5109POPC   C3A12101   7.372  43.915   7.950
 5109POPC   C4A12102   7.396  43.838   7.650
 5109POPC   C1B12103   7.650  43.887   8.550
 5109POPC   C2B12104   7.713  43.820   8.250
 5109POPC   C3B12105   7.677  43.793   7.950
 5109POPC   C4B12106   7.661  43.801   7.650
 5110POPC   NC312107  21.399  15.224   9.450
 5110POPC   PO412108  21.339  15.201   9.150
 5110POPC   GL112109  21.341  15.225   8.850
 5110POPC   GL212110  21.346  15.097   8.850
 5110POPC   C1A12111  21.349  15.132   8.550
 5110POPC   D2A12112  21.417  15.179   8.250
 5110POPC   C3A12113  21.402  15.191   7.950
 5110POPC   C4A12114  21.416  15.221   7.650
 5110POPC   C1B12115  21.358  14.919   8.550
 5110POPC   C2B12116  21.335  14.953   8.250
 5110POPC   C3B12117  21.320  14.933   7.950
 5110POPC   C4B12118  21.288  14.914   7.650
 5111POPC   NC312119  30.664  26.072   9.450
 5111POPC   PO412120  30.722  26.033   9.150
 5111POPC   GL112121  30.740  26.073   8.850
 5111POPC   GL212122  30.531  26.026   8.850
 5111POPC   C1A12123  30.741  26.037   8.550
 5111POPC   D2A12124  30.660  26.052   8.250
 5111POPC   C3A12125  30.648  26.036   7.950
 5111POPC   C4A12126  30.737  26.075   7.650
 5111POPC   C1B12127  30.462  25.973   8.550
 5111POPC   C2B12128  30.462  26.024   8.250
 5111POPC   C3B12129  30.410  25.978   7.950
 5111POPC   C4B12130  30.411  25.990   7.650
 5112POPC   NC312131  43.104  16.758   9.450
 5112POPC   PO412132  43.110  16.753   9.150
 5112POPC   GL112133  43.081  16.688   8.850
 5112POPC   GL212134  43.043  16.857   8.850
 5112POPC   C1A12135  43.118  16.760   8.550
 5112POPC   D2A12136  43.159  16.731   8.250
 5112POPC   C3A12137  43.063  16.740   7.950
 5112POPC   C4A12138  43.112  16.714   7.650
 5112POPC   C1B12139  42.905  16.965   8.550
 5112POPC   C2B12140  42.963  16.901   8.250
 5112POPC   C3B12141  42.984  16.902   7.950
 5112POPC   C4B12142  42.925  16.911   7.650
 5113POPC   NC312143  16.739  12.809   9.450
 5113POPC   PO412144  16.729  12.865   9.150
 5113POPC   GL112145  16.757  12.899   8.850
 5113POPC   GL212146  16.732  12.936   8.850
 5113POPC   C1A12147  16.707  12.814   8.550
 5113POPC   D2A12148  16.758  12.847   8.250
 5113POPC   C3A12149  16.776  12.868   7.950
 5113POPC   C4A12150  16.769  12.830   7.650
 5113POPC   C1B12151  16.726  13.142   8.550
 5113POPC   C2B12152  16.759  13.095   8.250
 5113POPC   C3B12153  16.710  13.071   7.950
 5113POPC   C4B12154  16.750  13.056   7.650
 5114POPC   NC312155  29.180  35.337   9.450
 5114POPC   PO412156  29.186  35.310   9.150
 5114POPC   GL112157  29.128  35.315   8.850
 5114POPC   GL212158  29.276  35.269   8.850
 5114POPC   C1A12159  29.129  35.376   8.550
 5114POPC   D2A12160  29.115  35.348   8.250
 5114POPC   C3A12161  29.148  35.352   7.950
 5114POPC   C4A12162  29.110  35.342   7.650
 5114POPC   C1B12163  29.428  35.304   8.550
 5114POPC   C2B12164  29.426  35.241   8.250
 5114POPC   C3B12165  29.405  35.249   7.950
 5114POPC   C4B12166  29.332  35.269   7.650
 5115POPC   NC312167  20.586  10.529   9.450
 5115POPC   PO412168  20.563  10.531   9.150
 5115POPC   GL112169  20.579  10.551   8.850
 5115POPC   GL212170  20.650  10.402   8.850
 5115POPC   C1A12171  20.606  10.531   8.550
 5115POPC   D2A12172  20.589  10.520   8.250
 5115POPC   C3A12173  20.621  10.545   7.950
 5115POPC   C4A12174  20.614  10.571   7.650
 5115POPC   C1B12175  20.785  10.305   8.550
 5115POPC   C2B12176  20.772  10.346   8.250
 5115POPC   C3B12177  20.773  10.377   7.950
 5115POPC   C4B12178  20.806  10.299   7.650
 5116POPC   NC312179  42.295  26.012   9.450
 5116POPC   PO412180  42.364  26.019   9.150
 5116POPC   GL112181  42.309  26.000   8.850
 5116POPC   GL212182  42.222  26.082   8.850
 5116POPC   C1A12183  42.287  26.080   8.550
 5116POPC   D2A12184  42.352  26.016   8.250
 5116POPC   C3A12185  42.312  26.088   7.950
 5116POPC   C4A12186  42.305  26.059   7.650
 5116POPC   C1B12187  42.132  26.152   8.550
 5116POPC   C2B12188  42.104  26.102   8.250
 5116POPC   C3B12189  42.065  26.186   7.950
 5116POPC   C4B12190  42.132  26.132   7.650
 5117POPC   NC312191  41.582   8.151   9.450
 5117POPC   PO412192  41.593   8.181   9.150
 5117POPC   GL112193  41.514   8.231   8.850
 5117POPC   GL212194  41.466   8.297   8.850
 5117POPC   C1A12195  41.596   8.171   8.550
 5117POPC   D2A12196  41.538   8.240   8.250
 5117POPC   C3A12197  41.607   8.211   7.950
 5117POPC   C4A12198  41.520   8.202   7.650
 5117POPC   C1B12199  41.339   8.357   8.550
 5117POPC   C2B12200  41.363   8.314   8.250
 5117POPC   C3B12201  41.316   8.347   7.950
 5117POPC   C4B12202  41.401   8.301   7.650
 5118POPC   NC312203  36.135  22.951   9.450
 5118POPC   PO412204  36.165  22.963   9.150
 5118POPC   GL112205  36.112  22.970   8.850
 5118POPC   GL212206  36.003  22.890   8.850
 5118POPC   C1A12207  36.146  22.983   8.550
 5118POPC   D2A12208  36.164  22.935   8.250
 5118POPC   C3A12209  36.128  22.935   7.950
 5118POPC   C4A12210  36.131  22.967   7.650
 5118POPC   C1B12211  35.869  22.843   8.550
 5118POPC   C2B12212  35.903  22.850   8.250
 5118POPC   C3B12213  35.952  22.805   7.950
 5118POPC   C4B12214  35.890  22.785   7.650
 5119POPC   NC312215   0.462  19.847   9.450
 5119POPC   PO412216   0.402  19.883   9.150
 5119POPC   GL112217   0.466  19.797   8.850
 5119POPC   GL212218   0.474  19.672   8.850
 5119POPC   C1A12219   0.446  19.871   8.550
 5119POPC   D2A12220   0.485  19.838   8.250
 5119POPC   C3A12221   0.433  19.808   7.950
 5119POPC   C4A12222   0.442  19.875   7.650
 5119POPC   C1B12223   0.492  19.577   8.550
 5119POPC   C2B12224   0.567  19.613   8.250
 5119POPC   C3B12225   0.583  19.614   7.950
 5119POPC   C4B12226   0.580  19.570   7.650
 5120POPC   NC312227   1.950  36.926   9.450
 5120POPC   PO412228   2.034  36.901   9.150
 5120POPC   GL112229   1.985  36.902   8.850
 5120POPC   GL212230   1.952  36.976   8.850
 5120POPC   C1A12231   2.028  36.938   8.550
 5120POPC   D2A12232   1.963  36.943   8.250
 5120POPC   C3A12233   1.950  36.907   7.950
 5120POPC   C4A12234   1.949  36.931   7.650
 5120POPC   C1B12235   1.826  37.095   8.550
 5120POPC   C2B12236   1.808  37.102   8.250
 5120POPC   C3B12237   1.874  37.095   7.950
 5120POPC   C4B12238   1.855  37.113   7.650
 5121POPC   NC312239  31.488  16.755   9.450
 5121POPC   PO412240  31.434  16.761   9.150
 5121POPC   GL112241  31.440  16.695   8.850
 5121POPC   GL212242  31.484  16.597   8.850
 5121POPC   C1A12243  31.471  16.691   8.550
 5121POPC   D2A12244  31.519  16.757   8.250
 5121POPC   C3A12245  31.477  16.744   7.950
 5121POPC   C4A12246  31.517  16.768   7.650
 5121POPC   C1B12247  31.441  16.443   8.550
 5121POPC   C2B12248  31.395  16.522   8.250
 5121POPC   C3B12249  31.469  16.518   7.950
 5121POPC   C4B12250  31.471  16.445   7.650
 5122POPC   NC312251   4.301  37.645   9.450
 5122POPC   PO412252   4.278  37.701   9.150
 5122POPC   GL112253   4.344  37.713   8.850
 5122POPC   GL212254   4.371  37.758   8.850
 5122POPC   C1A12255   4.345  37.646   8.550
 5122POPC   D2A12256   4.292  37.641   8.250
 5122POPC   C3A12257   4.344  37.682   7.950
 5122POPC   C4A12258   4.296  37.691   7.650
 5122POPC   C1B12259   4.472  37.798   8.550
 5122POPC   C2B12260   4.464  37.842   8.250
 5122POPC   C3B12261   4.504  37.801   7.950
 5122POPC   C4B12262   4.542  37.800   7.650
 5123POPC   NC312263  17.517  26.007   9.450
 5123POPC   PO412264  17.462  26.057   9.150
 5123POPC   GL112265  17.470  26.022   8.850
 5123POPC   GL212266  17.644  26.064   8.850
 5123POPC   C1A12267  17.475  26.068   8.550
 5123POPC   D2A12268  17.482  26.021   8.250
 5123POPC   C3A12269  17.544  26.062   7.950
 5123POPC   C4A12270  17.459  26.081   7.650
 5123POPC   C1B12271  17.705  26.161   8.550
 5123POPC   C2B12272  17.784  26.165   8.250
 5123POPC   C3B12273  17.697  26.157   7.950
 5123POPC   C4B12274  17.690  26.160   7.650
 5124POPC   NC312275  15.941   0.469   9.450
 5124POPC   PO412276  15.966   0.450   9.150
 5124POPC   GL112277  15.955   0.449   8.850
 5124POPC   GL212278  15.874   0.463   8.850
 5124POPC   C1A12279  15.936   0.432   8.550
 5124POPC   D2A12280  16.003   0.473   8.250
 5124POPC   C3A12281  15.951   0.390   7.950
 5124POPC   C4A12282  15.955   0.482   7.650
 5124POPC   C1B12283  15.729   0.417   8.550
 5124POPC   C2B12284  15.714   0.408   8.250
 5124POPC   C3B12285  15.755   0.453   7.950
 5124POPC   C4B12286  15.706   0.424   7.650
 5125POPC   NC312287  21.432  22.920   9.450
 5125POPC   PO412288  21.351  22.941   9.150
 5125POPC   GL112289  21.355  22.967   8.850
 5125POPC   GL212290  21.273  22.870   8.850
 5125POPC   C1A12291  21.372  22.920   8.550
 5125POPC   D2A12292  21.371  22.984   8.250
 5125POPC   C3A12293  21.373  22.985   7.950
 5125POPC   C4A12294  21.385  22.892   7.650
 5125POPC   C1B12295  21.183  22.801   8.550
 5125POPC   C2B12296  21.158  22.785   8.250
 5125POPC   C3B12297  21.187  22.747   7.950
 5125POPC   C4B12298  21.197  22.764   7.650
 5126POPC   NC312299  37.699  42.302   9.450
 5126POPC   PO412300  37.661  42.299   9.150
 5126POPC   GL112301  37.666  42.355   8.850
 5126POPC   GL212302  37.759  42.262   8.850
 5126POPC   C1A12303  37.644  42.315   8.550
 5126POPC   D2A12304  37.706  42.341   8.250
 5126POPC   C3A12305  37.677  42.338   7.950
 5126POPC   C4A12306  37.652  42.287   7.650
 5126POPC   C1B12307  37.960  42.276   8.550
 5126POPC   C2B12308  37.915  42.297   8.250
 5126POPC   C3B12309  37.940  42.283   7.950
 5126POPC   C4B12310  37.912  42.302   7.650
 5127POPC   NC312311  10.522  17.510   9.450
 5127POPC   PO412312  10.494  17.482   9.150
 5127POPC   GL112313  10.505  17.545   8.850
 5127POPC   GL212314  10.527  17.429   8.850
 5127POPC   C1A12315  10.489  17.537   8.550
 5127POPC   D2A12316  10.521  17.474   8.250
 5127POPC   C3A12317  10.528  17.483   7.950
 5127POPC   C4A12318  10.508  17.491   7.650
 5127POPC   C1B12319  10.559  17.239   8.550
 5127POPC   C2B12320  10.601  17.260   8.250
 5127POPC   C3B12321  10.538  17.295   7.950
 5127POPC   C4B12322  10.555  17.238   7.650
 5128POPC   NC312323  24.443   7.418   9.450
 5128POPC   PO412324  24.441   7.450   9.150
 5128POPC   GL112325  24.478   7.396   8.850
 5128POPC   GL212326  24.615   7.299   8.850
 5128POPC   C1A12327  24.441   7.449   8.550
 5128POPC   D2A12328  24.475   7.372   8.250
 5128POPC   C3A12329  24.497   7.406   7.950
 5128POPC   C4A12330  24.504   7.463   7.650
 5128POPC   C1B12331  24.649   7.262   8.550
 5128POPC   C2B12332  24.704   7.243   8.250
 5128POPC   C3B12333  24.690   7.280   7.950
 5128POPC   C4B12334  24.656   7.209   7.650
 5129POPC   NC312335   2.037  38.475   9.450
 5129POPC   PO412336   2.020  38.504   9.150
 5129POPC   GL112337   1.967  38.445   8.850
 5129POPC   GL212338   2.112  38.511   8.850
 5129POPC   C1A12339   1.979  38.437   8.550
 5129POPC   D2A12340   1.960  38.427   8.250
 5129POPC   C3A12341   1.985  38.493   7.950
 5129POPC   C4A12342   1.942  38.465   7.650
 5129POPC   C1B12343   2.211  38.489   8.550
 5129POPC   C2B12344   2.262  38.514   8.250
 5129POPC   C3B12345   2.246  38.546   7.950
 5129POPC   C4B12346   2.184  38.493   7.650
 5130POPC   NC312347  30.709  25.312   9.450
 5130POPC   PO412348  30.681  25.276   9.150
 5130POPC   GL112349  30.706  25.305   8.850
 5130POPC   GL212350  30.736  25.144   8.850
 5130POPC   C1A12351  30.712  25.233   8.550
 5130POPC   D2A12352  30.693  25.296   8.250
 5130POPC   C3A12353  30.702  25.315   7.950
 5130POPC   C4A12354  30.743  25.229   7.650
 5130POPC   C1B12355  30.741  25.052   8.550
 5130POPC   C2B12356  30.673  24.966   8.250
 5130POPC   C3B12357  30.699  25.023   7.950
 5130POPC   C4B12358  30.723  25.030   7.650
 5131POPC   NC312359   3.526   1.223   9.450
 5131POPC   PO412360   3.587   1.193   9.150
 5131POPC   GL112361   3.520   1.259   8.850
 5131POPC   GL212362   3.677   1.216   8.850
 5131POPC   C1A12363   3.515   1.214   8.550
 5131POPC   D2A12364   3.560   1.164   8.250
 5131POPC   C3A12365   3.590   1.247   7.950
 5131POPC   C4A12366   3.548   1.216   7.650
 5131POPC   C1B12367   3.820   1.248   8.550
 5131POPC   C2B12368   3.783   1.271   8.250
 5131POPC   C3B12369   3.752   1.310   7.950
 5131POPC   C4B12370   3.773   1.250   7.650
 5132POPC   NC312371  21.430  11.286   9.450
 5132POPC   PO412372  21.398  11.336   9.150
 5132POPC   GL112373  21.356  11.269   8.850
 5132POPC   GL212374  21.500  11.253   8.850
 5132POPC   C1A12375  21.369  11.255   8.550
 5132POPC   D2A12376  21.397  11.299   8.250
 5132POPC   C3A12377  21.393  11.326   7.950
 5132POPC   C4A12378  21.362  11.318   7.650
 5132POPC   C1B12379  21.544  11.152   8.550
 5132POPC   C2B12380  21.518  11.100   8.250
 5132POPC   C3B12381  21.592  11.136   7.950
 5132POPC   C4B12382  21.537  11.129   7.650
 5133POPC   NC312383  19.017  16.725   9.450
 5133POPC   PO412384  19.064  16.715   9.150
 5133POPC   GL112385  19.075  16.716   8.850
 5133POPC   GL212386  18.932  16.714   8.850
 5133POPC   C1A12387  19.107  16.775   8.550
 5133POPC   D2A12388  19.098  16.767   8.250
 5133POPC   C3A12389  19.103  16.735   7.950
 5133POPC   C4A12390  19.078  16.723   7.650
 5133POPC   C1B12391  18.846  16.618   8.550
 5133POPC   C2B12392  18.815  16.666   8.250
 5133POPC   C3B12393  18.795  16.588   7.950
 5133POPC   C4B12394  18.854  16.610   7.650
 5134POPC   NC312395   9.778  21.414   9.450
 5134POPC   PO412396   9.733  21.377   9.150
 5134POPC   GL112397   9.715  21.359   8.850
 5134POPC   GL212398   9.674  21.490   8.850
 5134POPC   C1A12399   9.708  21.380   8.550
 5134POPC   D2A12400   9.739  21.408   8.250
 5134POPC   C3A12401   9.769  21.348   7.950
 5134POPC   C4A12402   9.704  21.416   7.650
 5134POPC   C1B12403   9.512  21.566   8.550
 5134POPC   C2B12404   9.510  21.502   8.250
 5134POPC   C3B12405   9.549  21.479   7.950
 5134POPC   C4B12406   9.537  21.569   7.650
 5135POPC   NC312407   0.403  14.440   9.450
 5135POPC   PO412408   0.403  14.354   9.150
 5135POPC   GL112409   0.397  14.423   8.850
 5135POPC   GL212410   0.528  14.396   8.850
 5135POPC   C1A12411   0.430  14.420   8.550
 5135POPC   D2A12412   0.422  14.435   8.250
 5135POPC   C3A12413   0.465  14.402   7.950
 5135POPC   C4A12414   0.460  14.443   7.650
 5135POPC   C1B12415   0.732  14.369   8.550
 5135POPC   C2B12416   0.677  14.346   8.250
 5135POPC   C3B12417   0.701  14.395   7.950
 5135POPC   C4B12418   0.642  14.373   7.650
 5136POPC   NC312419  29.943  15.959   9.450
 5136POPC   PO412420  29.889  15.950   9.150
 5136POPC   GL112421  29.895  15.992   8.850
 5136POPC   GL212422  29.762  15.953   8.850
 5136POPC   C1A12423  29.947  15.961   8.550
 5136POPC   D2A12424  29.914  15.927   8.250
 5136POPC   C3A12425  29.915  15.945   7.950
 5136POPC   C4A12426  29.964  15.960   7.650
 5136POPC   C1B12427  29.643  15.988   8.550
 5136POPC   C2B12428  29.703  15.991   8.250
 5136POPC   C3B12429  29.687  16.004   7.950
 5136POPC   C4B12430  29.628  15.944   7.650
 5137POPC   NC312431  26.783  40.821   9.450
 5137POPC   PO412432  26.856  40.785   9.150
 5137POPC   GL112433  26.783  40.753   8.850
 5137POPC   GL212434  26.831  40.910   8.850
 5137POPC   C1A12435  26.810  40.754   8.550
 5137POPC   D2A12436  26.843  40.746   8.250
 5137POPC   C3A12437  26.775  40.772   7.950
 5137POPC   C4A12438  26.847  40.815   7.650
 5137POPC   C1B12439  26.797  41.057   8.550
 5137POPC   C2B12440  26.767  41.000   8.250
 5137POPC   C3B12441  26.818  41.024   7.950
 5137POPC   C4B12442  26.742  41.074   7.650
 5138POPC   NC312443  21.389  42.364   9.450
 5138POPC   PO412444  21.411  42.376   9.150
 5138POPC   GL112445  21.378  42.288   8.850
 5138POPC   GL212446  21.246  42.311   8.850
 5138POPC   C1A12447  21.425  42.378   8.550
 5138POPC   D2A12448  21.345  42.367   8.250
 5138POPC   C3A12449  21.366  42.331   7.950
 5138POPC   C4A12450  21.386  42.354   7.650
 5138POPC   C1B12451  21.201  42.239   8.550
 5138POPC   C2B12452  21.143  42.164   8.250
 5138POPC   C3B12453  21.149  42.191   7.950
 5138POPC   C4B12454  21.133  42.224   7.650
 5139POPC   NC312455  19.101  24.496   9.450
 5139POPC   PO412456  19.057  24.470   9.150
 5139POPC   GL112457  19.042  24.457   8.850
 5139POPC   GL212458  19.063  24.596   8.850
 5139POPC   C1A12459  19.010  24.536   8.550
 5139POPC   D2A12460  19.098  24.501   8.250
 5139POPC   C3A12461  19.040  24.452   7.950
 5139POPC   C4A12462  19.089  24.482   7.650
 5139POPC   C1B12463  19.052  24.728   8.550
 5139POPC   C2B12464  19.096  24.759   8.250
 5139POPC   C3B12465  19.036  24.743   7.950
 5139POPC   C4B12466  19.027  24.714   7.650
 5140POPC   NC312467  37.684  12.109   9.450
 5140POPC   PO412468  37.671  12.076   9.150
 5140POPC   GL112469  37.668  12.101   8.850
 5140POPC   GL212470  37.744  12.042   8.850
 5140POPC   C1A12471  37.691  12.064   8.550
 5140POPC   D2A12472  37.650  12.117   8.250
 5140POPC   C3A12473  37.727  12.068   7.950
 5140POPC   C4A12474  37.699  12.086   7.650
 5140POPC   C1B12475  37.878  11.974   8.550
 5140POPC   C2B12476  37.878  12.007   8.250
 5140POPC   C3B12477  37.896  11.982   7.950
 5140POPC   C4B12478  37.862  11.992   7.650
 5141POPC   NC312479  26.802  29.937   9.450
 5141POPC   PO412480  26.864  29.954   9.150
 5141POPC   GL112481  26.830  29.953   8.850
 5141POPC   GL212482  26.746  29.848   8.850
 5141POPC   C1A12483  26.856  29.950   8.550
 5141POPC   D2A12484  26.805  29.881   8.250
 5141POPC   C3A12485  26.833  29.943   7.950
 5141POPC   C4A12486  26.809  29.945   7.650
 5141POPC   C1B12487  26.719  29.671   8.550
 5141POPC   C2B12488  26.769  29.653   8.250
 5141POPC   C3B12489  26.741  29.665   7.950
 5141POPC   C4B12490  26.764  29.696   7.650
 5142POPC   NC312491  28.346  37.666   9.450
 5142POPC   PO412492  28.325  37.729   9.150
 5142POPC   GL112493  28.367  37.689   8.850
 5142POPC   GL212494  28.314  37.574   8.850
 5142POPC   C1A12495  28.409  37.643   8.550
 5142POPC   D2A12496  28.411  37.667   8.250
 5142POPC   C3A12497  28.343  37.677   7.950
 5142POPC   C4A12498  28.406  37.707   7.650
 5142POPC   C1B12499  28.255  37.497   8.550
 5142POPC   C2B12500  28.280  37.469   8.250
 5142POPC   C3B12501  28.265  37.469   7.950
 5142POPC   C4B12502  28.274  37.461   7.650
 5143POPC   NC312503  14.370  43.912   9.450
 5143POPC   PO412504  14.366  43.871   9.150
 5143POPC   GL112505  14.406  43.895   8.850
 5143POPC   GL212506  14.329  43.749   8.850
 5143POPC   C1A12507  14.402  43.897   8.550
 5143POPC   D2A12508  14.404  43.857   8.250
 5143POPC   C3A12509  14.365  43.865   7.950
 5143POPC   C4A12510  14.393  43.853   7.650
 5143POPC   C1B12511  14.252  43.731   8.550
 5143POPC   C2B12512  14.301  43.673   8.250
 5143POPC   C3B12513  14.285  43.643   7.950
 5143POPC   C4B12514  14.243  43.642   7.650
 5144POPC   NC312515  43.846  32.266   9.450
 5144POPC   PO412516  43.838  32.260   9.150
 5144POPC   GL112517  43.931  32.206   8.850
 5144POPC   GL212518  43.742  32.373   8.850
 5144POPC   C1A12519  43.917  32.228   8.550
 5144POPC   D2A12520  43.913  32.267   8.250
 5144POPC   C3A12521  43.871  32.244   7.950
 5144POPC   C4A12522  43.872  32.254   7.650
 5144POPC   C1B12523  43.682  32.428   8.550
 5144POPC   C2B12524  43.708  32.416   8.250
 5144POPC   C3B12525  43.655  32.401   7.950
 5144POPC   C4B12526  43.690  32.377   7.650
 5145POPC   NC312527  27.569  31.507   9.450
 5145POPC   PO412528  27.640  31.468   9.150
 5145POPC   GL112529  27.567  31.474   8.850
 5145POPC   GL212530  27.480  31.433   8.850
 5145POPC   C1A12531  27.636  31.498   8.550
 5145POPC   D2A12532  27.577  31.487   8.250
 5145POPC   C3A12533  27.560  31.463   7.950
 5145POPC   C4A12534  27.580  31.471   7.650
 5145POPC   C1B12535  27.434  31.317   8.550
 5145POPC   C2B12536  27.429  31.265   8.250
 5145POPC   C3B12537  27.360  31.261   7.950
 5145POPC   C4B12538  27.361  31.337   7.650
 5146POPC   NC312539  31.494  17.493   9.450
 5146POPC   PO412540  31.518  17.491   9.150
 5146POPC   GL112541  31.470  17.485   8.850
 5146POPC   GL212542  31.510  17.414   8.850
 5146POPC   C1A12543  31.520  17.486   8.550
 5146POPC   D2A12544  31.489  17.480   8.250
 5146POPC   C3A12545  31.465  17.468   7.950
 5146POPC   C4A12546  31.480  17.506   7.650
 5146POPC   C1B12547  31.573  17.253   8.550
 5146POPC   C2B12548  31.549  17.277   8.250
 5146POPC   C3B12549  31.564  17.269   7.950
 5146POPC   C4B12550  31.530  17.237   7.650
 5147POPC   NC312551   1.197  35.371   9.450
 5147POPC   PO412552   1.233  35.306   9.150
 5147POPC   GL112553   1.192  35.308   8.850
 5147POPC   GL212554   1.308  35.285   8.850
 5147POPC   C1A12555   1.211  35.303   8.550
 5147POPC   D2A12556   1.177  35.358   8.250
 5147POPC   C3A12557   1.211  35.376   7.950
 5147POPC   C4A12558   1.218  35.348   7.650
 5147POPC   C1B12559   1.368  35.187   8.550
 5147POPC   C2B12560   1.406  35.188   8.250
 5147POPC   C3B12561   1.353  35.111   7.950
 5147POPC   C4B12562   1.362  35.200   7.650
 5148POPC   NC312563  14.385  31.433   9.450
 5148POPC   PO412564  14.445  31.495   9.150
 5148POPC   GL112565  14.395  31.439   8.850
 5148POPC   GL212566  14.466  31.550   8.850
 5148POPC   C1A12567  14.382  31.453   8.550
 5148POPC   D2A12568  14.408  31.467   8.250
 5148POPC   C3A12569  14.357  31.463   7.950
 5148POPC   C4A12570  14.448  31.457   7.650
 5148POPC   C1B12571  14.609  31.619   8.550
 5148POPC   C2B12572  14.555  31.626   8.250
 5148POPC   C3B12573  14.552  31.609   7.950
 5148POPC   C4B12574  14.619  31.611   7.650
 5149POPC   NC312575   4.289  25.233   9.450
 5149POPC   PO412576   4.352  25.256   9.150
 5149POPC   GL112577   4.321  25.290   8.850
 5149POPC   GL212578   4.184  25.308   8.850
 5149POPC   C1A12579   4.313  25.239   8.550
 5149POPC   D2A12580   4.363  25.231   8.250
 5149POPC   C3A12581   4.290  25.283   7.950
 5149POPC   C4A12582   4.312  25.277   7.650
 5149POPC   C1B12583   4.091  25.315   8.550
 5149POPC   C2B12584   4.075  25.356   8.250
 5149POPC   C3B12585   4.037  25.346   7.950
 5149POPC   C4B12586   4.113  25.337   7.650
 5150POPC   NC312587  12.078  20.631   9.450
 5150POPC   PO412588  12.111  20.602   9.150
 5150POPC   GL112589  12.079  20.585   8.850
 5150POPC   GL212590  11.987  20.524   8.850
 5150POPC   C1A12591  12.081  20.573   8.550
 5150POPC   D2A12592  12.096  20.629   8.250
 5150POPC   C3A12593  12.041  20.564   7.950
 5150POPC   C4A12594  12.034  20.603   7.650
 5150POPC   C1B12595  11.870  20.561   8.550
 5150POPC   C2B12596  11.816  20.554   8.250
 5150POPC   C3B12597  11.813  20.488   7.950
 5150POPC   C4B12598  11.824  20.555   7.650
 5151POPC   NC312599  43.872  33.846   9.450
 5151POPC   PO412600  43.923  33.840   9.150
 5151POPC   GL112601  43.884  33.756   8.850
 5151POPC   GL212602  44.020  33.759   8.850
 5151POPC   C1A12603  43.932  33.834   8.550
 5151POPC   D2A12604  43.873  33.783   8.250
 5151POPC   C3A12605  43.880  33.835   7.950
 5151POPC   C4A12606  43.897  33.770   7.650
 5151POPC   C1B12607  44.092  33.802   8.550
 5151POPC   C2B12608  44.113  33.773   8.250
 5151POPC   C3B12609  44.100  33.825   7.950
 5151POPC   C4B12610  44.153  33.791   7.650
 5152POPC   NC312611  34.541   3.497   9.450
 5152POPC   PO412612  34.612   3.550   9.150
 5152POPC   GL112613  34.599   3.545   8.850
 5152POPC   GL212614  34.524   3.479   8.850
 5152POPC   C1A12615  34.610   3.533   8.550
 5152POPC   D2A12616  34.530   3.520   8.250
 5152POPC   C3A12617  34.591   3.501   7.950
 5152POPC   C4A12618  34.603   3.584   7.650
 5152POPC   C1B12619  34.394   3.437   8.550
 5152POPC   C2B12620  34.374   3.380   8.250
 5152POPC   C3B12621  34.421   3.427   7.950
 5152POPC   C4B12622  34.405   3.358   7.650
 5153POPC   NC312623   4.328  19.858   9.450
 5153POPC   PO412624   4.315  19.836   9.150
 5153POPC   GL112625   4.351  19.840   8.850
 5153POPC   GL212626   4.227  19.822   8.850
 5153POPC   C1A12627   4.292  19.826   8.550
 5153POPC   D2A12628   4.355  19.865   8.250
 5153POPC   C3A12629   4.347  19.883   7.950
 5153POPC   C4A12630   4.310  19.822   7.650
 5153POPC   C1B12631   4.093  19.729   8.550
 5153POPC   C2B12632   4.079  19.757   8.250
 5153POPC   C3B12633   4.063  19.779   7.950
 5153POPC   C4B12634   4.044  19.760   7.650
 5154POPC   NC312635  40.028  15.180   9.450
 5154POPC   PO412636  40.035  15.199   9.150
 5154POPC   GL112637  40.043  15.191   8.850
 5154POPC   GL212638  40.037  15.309   8.850
 5154POPC   C1A12639  39.965  15.217   8.550
 5154POPC   D2A12640  40.008  15.180   8.250
 5154POPC   C3A12641  40.046  15.140   7.950
 5154POPC   C4A12642  40.000  15.144   7.650
 5154POPC   C1B12643  40.079  15.410   8.550
 5154POPC   C2B12644  40.076  15.461   8.250
 5154POPC   C3B12645  40.105  15.407   7.950
 5154POPC   C4B12646  40.060  15.402   7.650
 5155POPC   NC312647  26.799  38.495   9.450
 5155POPC   PO412648  26.818  38.451   9.150
 5155POPC   GL112649  26.814  38.484   8.850
 5155POPC   GL212650  26.954  38.513   8.850
 5155POPC   C1A12651  26.772  38.408   8.550
 5155POPC   D2A12652  26.782  38.502   8.250
 5155POPC   C3A12653  26.788  38.415   7.950
 5155POPC   C4A12654  26.837  38.505   7.650
 5155POPC   C1B12655  27.047  38.629   8.550
 5155POPC   C2B12656  27.016  38.549   8.250
 5155POPC   C3B12657  27.058  38.565   7.950
 5155POPC   C4B12658  27.011  38.634   7.650
 5156POPC   NC312659  36.947  24.462   9.450
 5156POPC   PO412660  36.892  24.481   9.150
 5156POPC   GL112661  36.889  24.503   8.850
 5156POPC   GL212662  36.977  24.615   8.850
 5156POPC   C1A12663  36.864  24.533   8.550
 5156POPC   D2A12664  36.924  24.483   8.250
 5156POPC   C3A12665  36.894  24.529   7.950
 5156POPC   C4A12666  36.905  24.470   7.650
 5156POPC   C1B12667  37.052  24.697   8.550
 5156POPC   C2B12668  37.140  24.650   8.250
 5156POPC   C3B12669  37.087  24.669   7.950
 5156POPC   C4B12670  37.132  24.659   7.650
 5157POPC   NC312671  19.868   5.873   9.450
 5157POPC   PO412672  19.833   5.891   9.150
 5157POPC   GL112673  19.816   5.888   8.850
 5157POPC   GL212674  19.707   5.765   8.850
 5157POPC   C1A12675  19.833   5.883   8.550
 5157POPC   D2A12676  19.843   5.849   8.250
 5157POPC   C3A12677  19.807   5.856   7.950
 5157POPC   C4A12678  19.880   5.868   7.650
 5157POPC   C1B12679  19.611   5.759   8.550
 5157POPC   C2B12680  19.656   5.738   8.250
 5157POPC   C3B12681  19.634   5.772   7.950
 5157POPC   C4B12682  19.635   5.729   7.650
 5158POPC   NC312683   6.603  17.489   9.450
 5158POPC   PO412684   6.694  17.506   9.150
 5158POPC   GL112685   6.680  17.470   8.850
 5158POPC   GL212686   6.488  17.520   8.850
 5158POPC   C1A12687   6.659  17.521   8.550
 5158POPC   D2A12688   6.595  17.550   8.250
 5158POPC   C3A12689   6.634  17.504   7.950
 5158POPC   C4A12690   6.602  17.550   7.650
 5158POPC   C1B12691   6.357  17.459   8.550
 5158POPC   C2B12692   6.379  17.461   8.250
 5158POPC   C3B12693   6.397  17.486   7.950
 5158POPC   C4B12694   6.372  17.527   7.650
 5159POPC   NC312695  21.408  35.320   9.450
 5159POPC   PO412696  21.417  35.396   9.150
 5159POPC   GL112697  21.348  35.328   8.850
 5159POPC   GL212698  21.370  35.436   8.850
 5159POPC   C1A12699  21.366  35.364   8.550
 5159POPC   D2A12700  21.425  35.391   8.250
 5159POPC   C3A12701  21.367  35.359   7.950
 5159POPC   C4A12702  21.370  35.394   7.650
 5159POPC   C1B12703  21.382  35.588   8.550
 5159POPC   C2B12704  21.360  35.602   8.250
 5159POPC   C3B12705  21.383  35.632   7.950
 5159POPC   C4B12706  21.380  35.637   7.650
 5160POPC   NC312707  14.403  40.775   9.450
 5160POPC   PO412708  14.413  40.774   9.150
 5160POPC   GL112709  14.405  40.757   8.850
 5160POPC   GL212710  14.297  40.716   8.850
 5160POPC   C1A12711  14.443  40.767   8.550
 5160POPC   D2A12712  14.405  40.750   8.250
 5160POPC   C3A12713  14.393  40.821   7.950
 5160POPC   C4A12714  14.362  40.804   7.650
 5160POPC   C1B12715  14.199  40.756   8.550
 5160POPC   C2B12716  14.130  40.720   8.250
 5160POPC   C3B12717  14.110  40.776   7.950
 5160POPC   C4B12718  14.175  40.685   7.650
 5161POPC   NC312719  41.551  39.248   9.450
 5161POPC   PO412720  41.533  39.246   9.150
 5161POPC   GL112721  41.537  39.246   8.850
 5161POPC   GL212722  41.450  39.274   8.850
 5161POPC   C1A12723  41.532  39.202   8.550
 5161POPC   D2A12724  41.569  39.280   8.250
 5161POPC   C3A12725  41.514  39.214   7.950
 5161POPC   C4A12726  41.526  39.238   7.650
 5161POPC   C1B12727  41.335  39.320   8.550
 5161POPC   C2B12728  41.358  39.290   8.250
 5161POPC   C3B12729  41.287  39.276   7.950
 5161POPC   C4B12730  41.328  39.336   7.650
 5162POPC   NC312731   4.280  43.130   9.450
 5162POPC   PO412732   4.318  43.109   9.150
 5162POPC   GL112733   4.365  43.144   8.850
 5162POPC   GL212734   4.236  43.048   8.850
 5162POPC   C1A12735   4.356  43.147   8.550
 5162POPC   D2A12736   4.305  43.145   8.250
 5162POPC   C3A12737   4.313  43.097   7.950
 5162POPC   C4A12738   4.279  43.115   7.650
 5162POPC   C1B12739   4.115  42.965   8.550
 5162POPC   C2B12740   4.197  42.910   8.250
 5162POPC   C3B12741   4.106  42.892   7.950
 5162POPC   C4B12742   4.163  42.910   7.650
 5163POPC   NC312743  31.446   2.764   9.450
 5163POPC   PO412744  31.493   2.792   9.150
 5163POPC   GL112745  31.438   2.785   8.850
 5163POPC   GL212746  31.550   2.660   8.850
 5163POPC   C1A12747  31.449   2.799   8.550
 5163POPC   D2A12748  31.458   2.725   8.250
 5163POPC   C3A12749  31.438   2.753   7.950
 5163POPC   C4A12750  31.469   2.729   7.650
 5163POPC   C1B12751  31.525   2.500   8.550
 5163POPC   C2B12752  31.510   2.504   8.250
 5163POPC   C3B12753  31.536   2.565   7.950
 5163POPC   C4B12754  31.518   2.475   7.650
 5164POPC   NC312755   3.541  13.585   9.450
 5164POPC   PO412756   3.539  13.613   9.150
 5164POPC   GL112757   3.504  13.655   8.850
 5164POPC   GL212758   3.392  13.624   8.850
 5164POPC   C1A12759   3.573  13.675   8.550
 5164POPC   D2A12760   3.523  13.594   8.250
 5164POPC   C3A12761   3.584  13.580   7.950
 5164POPC   C4A12762   3.521  13.631   7.650
 5164POPC   C1B12763   3.334  13.672   8.550
 5164POPC   C2B12764   3.279  13.659   8.250
 5164POPC   C3B12765   3.323  13.686   7.950
 5164POPC   C4B12766   3.260  13.605   7.650
 5165POPC   NC312767  11.277  26.037   9.450
 5165POPC   PO412768  11.291  26.018   9.150
 5165POPC   GL112769  11.291  26.055   8.850
 5165POPC   GL212770  11.173  26.021   8.850
 5165POPC   C1A12771  11.301  25.996   8.550
 5165POPC   D2A12772  11.252  25.993   8.250
 5165POPC   C3A12773  11.280  26.059   7.950
 5165POPC   C4A12774  11.275  26.042   7.650
 5165POPC   C1B12775  11.080  25.990   8.550
 5165POPC   C2B12776  11.062  25.945   8.250
 5165POPC   C3B12777  11.034  26.008   7.950
 5165POPC   C4B12778  11.087  25.959   7.650
 5166POPC   NC312779  24.508  25.314   9.450
 5166POPC   PO412780  24.464  25.290   9.150
 5166POPC   GL112781  24.480  25.251   8.850
 5166POPC   GL212782  24.561  25.105   8.850
 5166POPC   C1A12783  24.480  25.285   8.550
 5166POPC   D2A12784  24.456  25.262   8.250
 5166POPC   C3A12785  24.480  25.219   7.950
 5166POPC   C4A12786  24.495  25.224   7.650
 5166POPC   C1B12787  24.557  25.030   8.550
 5166POPC   C2B12788  24.560  24.993   8.250
 5166POPC   C3B12789  24.577  25.016   7.950
 5166POPC   C4B12790  24.534  25.014   7.650
 5167POPC   NC312791   8.931   5.840   9.450
 5167POPC   PO412792   9.004   5.835   9.150
 5167POPC   GL112793   8.999   5.871   8.850
 5167POPC   GL212794   8.867   6.001   8.850
 5167POPC   C1A12795   8.983   5.910   8.550
 5167POPC   D2A12796   8.972   5.853   8.250
 5167POPC   C3A12797   8.961   5.908   7.950
 5167POPC   C4A12798   8.945   5.895   7.650
 5167POPC   C1B12799   8.794   6.079   8.550
 5167POPC   C2B12800   8.830   6.011   8.250
 5167POPC   C3B12801   8.778   6.025   7.950
 5167POPC   C4B12802   8.787   6.019   7.650
 5168POPC   NC312803  37.676  12.884   9.450
 5168POPC   PO412804  37.698  12.804   9.150
 5168POPC   GL112805  37.694  12.863   8.850
 5168POPC   GL212806  37.713  12.773   8.850
 5168POPC   C1A12807  37.720  12.854   8.550
 5168POPC   D2A12808  37.711  12.828   8.250
 5168POPC   C3A12809  37.665  12.894   7.950
 5168POPC   C4A12810  37.654  12.820   7.650
 5168POPC   C1B12811  37.711  12.611   8.550
 5168POPC   C2B12812  37.718  12.652   8.250
 5168POPC   C3B12813  37.714  12.584   7.950
 5168POPC   C4B12814  37.748  12.597   7.650
 5169POPC   NC312815  43.896   2.722   9.450
 5169POPC   PO412816  43.841   2.807   9.150
 5169POPC   GL112817  43.876   2.777   8.850
 5169POPC   GL212818  43.751   2.747   8.850
 5169POPC   C1A12819  43.849   2.794   8.550
 5169POPC   D2A12820  43.908   2.785   8.250
 5169POPC   C3A12821  43.915   2.795   7.950
 5169POPC   C4A12822  43.922   2.810   7.650
 5169POPC   C1B12823  43.653   2.730   8.550
 5169POPC   C2B12824  43.591   2.769   8.250
 5169POPC   C3B12825  43.655   2.804   7.950
 5169POPC   C4B12826  43.603   2.756   7.650
 5170POPC   NC312827  41.576  13.621   9.450
 5170POPC   PO412828  41.558  13.620   9.150
 5170POPC   GL112829  41.587  13.630   8.850
 5170POPC   GL212830  41.596  13.460   8.850
 5170POPC   C1A12831  41.540  13.666   8.550
 5170POPC   D2A12832  41.539  13.615   8.250
 5170POPC   C3A12833  41.547  13.602   7.950
 5170POPC   C4A12834  41.534  13.668   7.650
 5170POPC   C1B12835  41.578  13.334   8.550
 5170POPC   C2B12836  41.578  13.378   8.250
 5170POPC   C3B12837  41.597  13.353   7.950
 5170POPC   C4B12838  41.602  13.366   7.650
 5171POPC   NC312839  18.235  40.739   9.450
 5171POPC   PO412840  18.280  40.800   9.150
 5171POPC   GL112841  18.233  40.795   8.850
 5171POPC   GL212842  18.137  40.855   8.850
 5171POPC   C1A12843  18.287  40.794   8.550
 5171POPC   D2A12844  18.237  40.818   8.250
 5171POPC   C3A12845  18.284  40.735   7.950
 5171POPC   C4A12846  18.317  40.773   7.650
 5171POPC   C1B12847  18.039  40.844   8.550
 5171POPC   C2B12848  17.998  40.814   8.250
 5171POPC   C3B12849  18.022  40.818   7.950
 5171POPC   C4B12850  18.008  40.887   7.650
 5172POPC   NC312851  35.373  37.710   9.450
 5172POPC   PO412852  35.323  37.644   9.150
 5172POPC   GL112853  35.380  37.708   8.850
 5172POPC   GL212854  35.267  37.670   8.850
 5172POPC   C1A12855  35.400  37.716   8.550
 5172POPC   D2A12856  35.394  37.650   8.250
 5172POPC   C3A12857  35.355  37.663   7.950
 5172POPC   C4A12858  35.325  37.634   7.650
 5172POPC   C1B12859  35.100  37.638   8.550
 5172POPC   C2B12860  35.066  37.702   8.250
 5172POPC   C3B12861  35.130  37.655   7.950
 5172POPC   C4B12862  35.110  37.667   7.650
 5173POPC   NC312863   0.437  38.481   9.450
 5173POPC   PO412864   0.430  38.430   9.150
 5173POPC   GL112865   0.435  38.458   8.850
 5173POPC   GL212866   0.366  38.373   8.850
 5173POPC   C1A12867   0.460  38.440   8.550
 5173POPC   D2A12868   0.394  38.503   8.250
 5173POPC   C3A12869   0.487  38.481   7.950
 5173POPC   C4A12870   0.441  38.460   7.650
 5173POPC   C1B12871   0.240  38.269   8.550
 5173POPC   C2B12872   0.232  38.236   8.250
 5173POPC   C3B12873   0.229  38.288   7.950
 5173POPC   C4B12874   0.226  38.274   7.650
 5174POPC   NC312875  36.095  41.557   9.450
 5174POPC   PO412876  36.126  41.595   9.150
 5174POPC   GL112877  36.106  41.586   8.850
 5174POPC   GL212878  36.231  41.505   8.850
 5174POPC   C1A12879  36.172  41.566   8.550
 5174POPC   D2A12880  36.090  41.520   8.250
 5174POPC   C3A12881  36.154  41.546   7.950
 5174POPC   C4A12882  36.111  41.563   7.650
 5174POPC   C1B12883  36.309  41.445   8.550
 5174POPC   C2B12884  36.395  41.444   8.250
 5174POPC   C3B12885  36.379  41.413   7.950
 5174POPC   C4B12886  36.316  41.439   7.650
 5175POPC   NC312887  32.260  24.443   9.450
 5175POPC   PO412888  32.237  24.486   9.150
 5175POPC   GL112889  32.295  24.488   8.850
 5175POPC   GL212890  32.267  24.643   8.850
 5175POPC   C1A12891  32.240  24.504   8.550
 5175POPC   D2A12892  32.287  24.482   8.250
 5175POPC   C3A12893  32.222  24.519   7.950
 5175POPC   C4A12894  32.297  24.517   7.650
 5175POPC   C1B12895  32.157  24.740   8.550
 5175POPC   C2B12896  32.150  24.774   8.250
 5175POPC   C3B12897  32.192  24.760   7.950
 5175POPC   C4B12898  32.209  24.709   7.650
 5176POPC   NC312899   4.273  12.859   9.450
 5176POPC   PO412900   4.348  12.882   9.150
 5176POPC   GL112901   4.313  12.802   8.850
 5176POPC   GL212902   4.163  12.773   8.850
 5176POPC   C1A12903   4.311  12.858   8.550
 5176POPC   D2A12904   4.275  12.803   8.250
 5176POPC   C3A12905   4.291  12.802   7.950
 5176POPC   C4A12906   4.343  12.802   7.650
 5176POPC   C1B12907   4.055  12.800   8.550
 5176POPC   C2B12908   4.099  12.769   8.250
 5176POPC   C3B12909   4.097  12.741   7.950
 5176POPC   C4B12910   4.078  12.752   7.650
 5177POPC   NC312911  30.698  43.872   9.450
 5177POPC   PO412912  30.664  43.872   9.150
 5177POPC   GL112913  30.712  43.933   8.850
 5177POPC   GL212914  30.844  43.839   8.850
 5177POPC   C1A12915  30.675  43.927   8.550
 5177POPC   D2A12916  30.706  43.844   8.250
 5177POPC   C3A12917  30.696  43.841   7.950
 5177POPC   C4A12918  30.660  43.882   7.650
 5177POPC   C1B12919  30.946  43.836   8.550
 5177POPC   C2B12920  30.924  43.854   8.250
 5177POPC   C3B12921  30.957  43.854   7.950
 5177POPC   C4B12922  30.957  43.850   7.650
 5178POPC   NC312923  23.741  33.767   9.450
 5178POPC   PO412924  23.745  33.845   9.150
 5178POPC   GL112925  23.758  33.837   8.850
 5178POPC   GL212926  23.568  33.870   8.850
 5178POPC   C1A12927  23.707  33.817   8.550
 5178POPC   D2A12928  23.734  33.804   8.250
 5178POPC   C3A12929  23.669  33.750   7.950
 5178POPC   C4A12930  23.748  33.796   7.650
 5178POPC   C1B12931  23.453  33.893   8.550
 5178POPC   C2B12932  23.480  33.835   8.250
 5178POPC   C3B12933  23.438  33.887   7.950
 5178POPC   C4B12934  23.462  33.896   7.650
 5179POPC   NC312935   2.016  22.182   9.450
 5179POPC   PO412936   1.991  22.189   9.150
 5179POPC   GL112937   1.944  22.133   8.850
 5179POPC   GL212938   1.996  22.011   8.850
 5179POPC   C1A12939   2.008  22.135   8.550
 5179POPC   D2A12940   2.025  22.130   8.250
 5179POPC   C3A12941   2.013  22.140   7.950
 5179POPC   C4A12942   1.966  22.176   7.650
 5179POPC   C1B12943   2.007  21.871   8.550
 5179POPC   C2B12944   1.959  21.919   8.250
 5179POPC   C3B12945   1.977  21.874   7.950
 5179POPC   C4B12946   2.005  21.958   7.650
 5180POPC   NC312947  33.797  15.164   9.450
 5180POPC   PO412948  33.838  15.215   9.150
 5180POPC   GL112949  33.824  15.137   8.850
 5180POPC   GL212950  33.911  15.115   8.850
 5180POPC   C1A12951  33.778  15.226   8.550
 5180POPC   D2A12952  33.831  15.149   8.250
 5180POPC   C3A12953  33.803  15.138   7.950
 5180POPC   C4A12954  33.784  15.171   7.650
 5180POPC   C1B12955  34.030  15.068   8.550
 5180POPC   C2B12956  34.012  15.070   8.250
 5180POPC   C3B12957  34.005  15.039   7.950
 5180POPC   C4B12958  33.997  15.037   7.650
 5181POPC   NC312959  39.223   9.755   9.450
 5181POPC   PO412960  39.226   9.729   9.150
 5181POPC   GL112961  39.260   9.750   8.850
 5181POPC   GL212962  39.198   9.886   8.850
 5181POPC   C1A12963  39.218   9.726   8.550
 5181POPC   D2A12964  39.204   9.750   8.250
 5181POPC   C3A12965  39.281   9.750   7.950
 5181POPC   C4A12966  39.271   9.793   7.650
 5181POPC   C1B12967  39.230   9.949   8.550
 5181POPC   C2B12968  39.196   9.998   8.250
 5181POPC   C3B12969  39.174   9.958   7.950
 5181POPC   C4B12970  39.215  10.014   7.650
 5182POPC   NC312971  31.501  26.046   9.450
 5182POPC   PO412972  31.433  26.042   9.150
 5182POPC   GL112973  31.492  26.068   8.850
 5182POPC   GL212974  31.575  26.090   8.850
 5182POPC   C1A12975  31.498  25.997   8.550
 5182POPC   D2A12976  31.506  26.010   8.250
 5182POPC   C3A12977  31.469  26.025   7.950
 5182POPC   C4A12978  31.471  26.035   7.650
 5182POPC   C1B12979  31.652  26.128   8.550
 5182POPC   C2B12980  31.648  26.174   8.250
 5182POPC   C3B12981  31.731  26.207   7.950
 5182POPC   C4B12982  31.712  26.177   7.650
 5183POPC   NC312983  14.392  40.009   9.450
 5183POPC   PO412984  14.369  39.992   9.150
 5183POPC   GL112985  14.398  39.985   8.850
 5183POPC   GL212986  14.407  39.910   8.850
 5183POPC   C1A12987  14.436  40.012   8.550
 5183POPC   D2A12988  14.381  40.049   8.250
 5183POPC   C3A12989  14.392  39.997   7.950
 5183POPC   C4A12990  14.355  39.967   7.650
 5183POPC   C1B12991  14.330  39.777   8.550
 5183POPC   C2B12992  14.320  39.738   8.250
 5183POPC   C3B12993  14.333  39.760   7.950
 5183POPC   C4B12994  14.352  39.735   7.650
 5184POPC   NC312995  37.656   1.945   9.450
 5184POPC   PO412996  37.645   1.990   9.150
 5184POPC   GL112997  37.629   1.948   8.850
 5184POPC   GL212998  37.742   1.877   8.850
 5184POPC   C1A12999  37.707   1.962   8.550
 5184POPC   D2A13000  37.707   1.942   8.250
 5184POPC   C3A13001  37.666   1.952   7.950
 5184POPC   C4A13002  37.687   2.025   7.650
 5184POPC   C1B13003  37.772   1.747   8.550
 5184POPC   C2B13004  37.786   1.761   8.250
 5184POPC   C3B13005  37.781   1.709   7.950
 5184POPC   C4B13006  37.712   1.704   7.650
 5185POPC   NC313007   5.106  43.889   9.450
 5185POPC   PO413008   5.109  43.839   9.150
 5185POPC   GL113009   5.056  43.862   8.850
 5185POPC   GL213010   5.221  43.846   8.850
 5185POPC   C1A13011   5.065  43.867   8.550
 5185POPC   D2A13012   5.096  43.872   8.250
 5185POPC   C3A13013   5.057  43.856   7.950
 5185POPC   C4A13014   5.139  43.844   7.650
 5185POPC   C1B13015   5.345  43.793   8.550
 5185POPC   C2B13016   5.325  43.775   8.250
 5185POPC   C3B13017   5.305  43.869   7.950
 5185POPC   C4B13018   5.360  43.801   7.650
 5186POPC   NC313019  21.380   1.203   9.450
 5186POPC   PO413020  21.347   1.166   9.150
 5186POPC   GL113021  21.412   1.180   8.850
 5186POPC   GL213022  21.505   1.119   8.850
 5186POPC   C1A13023  21.376   1.199   8.550
 5186POPC   D2A13024  21.434   1.181   8.250
 5186POPC   C3A13025  21.383   1.255   7.950
 5186POPC   C4A13026  21.360   1.183   7.650
 5186POPC   C1B13027  21.577   1.099   8.550
 5186POPC   C2B13028  21.620   1.061   8.250
 5186POPC   C3B13029  21.627   1.112   7.950
 5186POPC   C4B13030  21.595   1.050   7.650
 5187POPC   NC313031  26.829  15.138   9.450
 5187POPC   PO413032  26.843  15.143   9.150
 5187POPC   GL113033  26.823  15.207   8.850
 5187POPC   GL213034  26.715  15.144   8.850
 5187POPC   C1A13035  26.797  15.198   8.550
 5187POPC   D2A13036  26.773  15.189   8.250
 5187POPC   C3A13037  26.834  15.168   7.950
 5187POPC   C4A13038  26.864  15.161   7.650
 5187POPC   C1B13039  26.593  15.016   8.550
 5187POPC   C2B13040  26.642  15.004   8.250
 5187POPC   C3B13041  26.623  15.069   7.950
 5187POPC   C4B13042  26.574  15.079   7.650
 5188POPC   NC313043  31.488  29.110   9.450
 5188POPC   PO413044  31.437  29.166   9.150
 5188POPC   GL113045  31.434  29.170   8.850
 5188POPC   GL213046  31.563  29.213   8.850
 5188POPC   C1A13047  31.461  29.192   8.550
 5188POPC   D2A13048  31.423  29.149   8.250
 5188POPC   C3A13049  31.454  29.127   7.950
 5188POPC   C4A13050  31.480  29.193   7.650
 5188POPC   C1B13051  31.539  29.359   8.550
 5188POPC   C2B13052  31.556  29.365   8.250
 5188POPC   C3B13053  31.617  29.382   7.950
 5188POPC   C4B13054  31.522  29.397   7.650
 5189POPC   NC313055  15.225  10.525   9.450
 5189POPC   PO413056  15.155  10.509   9.150
 5189POPC   GL113057  15.133  10.553   8.850
 5189POPC   GL213058  15.046  10.623   8.850
 5189POPC   C1A13059  15.219  10.518   8.550
 5189POPC   D2A13060  15.144  10.490   8.250
 5189POPC   C3A13061  15.194  10.482   7.950
 5189POPC   C4A13062  15.215  10.559   7.650
 5189POPC   C1B13063  14.962  10.609   8.550
 5189POPC   C2B13064  14.986  10.693   8.250
 5189POPC   C3B13065  14.948  10.656   7.950
 5189POPC   C4B13066  14.914  10.603   7.650
 5190POPC   NC313067  40.824  33.037   9.450
 5190POPC   PO413068  40.754  32.996   9.150
 5190POPC   GL113069  40.785  33.019   8.850
 5190POPC   GL213070  40.648  32.887   8.850
 5190POPC   C1A13071  40.823  33.059   8.550
 5190POPC   D2A13072  40.802  33.007   8.250
 5190POPC   C3A13073  40.787  33.062   7.950
 5190POPC   C4A13074  40.745  33.062   7.650
 5190POPC   C1B13075  40.587  32.890   8.550
 5190POPC   C2B13076  40.571  32.803   8.250
 5190POPC   C3B13077  40.610  32.820   7.950
 5190POPC   C4B13078  40.593  32.875   7.650
 5191POPC   NC313079   9.728  19.827   9.450
 5191POPC   PO413080   9.758  19.793   9.150
 5191POPC   GL113081   9.775  19.817   8.850
 5191POPC   GL213082   9.604  19.817   8.850
 5191POPC   C1A13083   9.783  19.848   8.550
 5191POPC   D2A13084   9.760  19.815   8.250
 5191POPC   C3A13085   9.796  19.804   7.950
 5191POPC   C4A13086   9.753  19.788   7.650
 5191POPC   C1B13087   9.519  19.782   8.550
 5191POPC   C2B13088   9.498  19.733   8.250
 5191POPC   C3B13089   9.485  19.730   7.950
 5191POPC   C4B13090   9.563  19.787   7.650
 5192POPC   NC313091  26.824   2.039   9.450
 5192POPC   PO413092  26.776   1.989   9.150
 5192POPC   GL113093  26.857   2.032   8.850
 5192POPC   GL213094  26.986   1.955   8.850
 5192POPC   C1A13095  26.848   1.958   8.550
 5192POPC   D2A13096  26.829   1.940   8.250
 5192POPC   C3A13097  26.844   1.991   7.950
 5192POPC   C4A13098  26.804   2.015   7.650
 5192POPC   C1B13099  27.102   1.942   8.550
 5192POPC   C2B13100  27.039   1.948   8.250
 5192POPC   C3B13101  27.021   1.950   7.950
 5192POPC   C4B13102  27.096   1.916   7.650
 5193POPC   NC313103   7.452  21.415   9.450
 5193POPC   PO413104   7.448  21.420   9.150
 5193POPC   GL113105   7.455  21.386   8.850
 5193POPC   GL213106   7.396  21.454   8.850
 5193POPC   C1A13107   7.399  21.407   8.550
 5193POPC   D2A13108   7.422  21.386   8.250
 5193POPC   C3A13109   7.371  21.404   7.950
 5193POPC   C4A13110   7.433  21.356   7.650
 5193POPC   C1B13111   7.300  21.595   8.550
 5193POPC   C2B13112   7.252  21.607   8.250
 5193POPC   C3B13113   7.316  21.556   7.950
 5193POPC   C4B13114   7.305  21.629   7.650
 5194POPC   NC313115  24.484   4.303   9.450
 5194POPC   PO413116  24.501   4.312   9.150
 5194POPC   GL113117  24.455   4.294   8.850
 5194POPC   GL213118  24.532   4.453   8.850
 5194POPC   C1A13119  24.516   4.321   8.550
 5194POPC   D2A13120  24.477   4.274   8.250
 5194POPC   C3A13121  24.538   4.351   7.950
 5194POPC   C4A13122  24.509   4.343   7.650
 5194POPC   C1B13123  24.506   4.574   8.550
 5194POPC   C2B13124  24.487   4.562   8.250
 5194POPC   C3B13125  24.570   4.594   7.950
 5194POPC   C4B13126  24.509   4.530   7.650
 5195POPC   NC313127  29.908  34.624   9.450
 5195POPC   PO413128  29.944  34.599   9.150
 5195POPC   GL113129  29.904  34.551   8.850
 5195POPC   GL213130  29.813  34.468   8.850
 5195POPC   C1A13131  29.937  34.583   8.550
 5195POPC   D2A13132  29.948  34.599   8.250
 5195POPC   C3A13133  29.942  34.527   7.950
 5195POPC   C4A13134  29.912  34.586   7.650
 5195POPC   C1B13135  29.816  34.338   8.550
 5195POPC   C2B13136  29.788  34.405   8.250
 5195POPC   C3B13137  29.768  34.373   7.950
 5195POPC   C4B13138  29.827  34.385   7.650
 5196POPC   NC313139   3.502  19.063   9.450
 5196POPC   PO413140   3.558  19.043   9.150
 5196POPC   GL113141   3.561  19.108   8.850
 5196POPC   GL213142   3.464  18.950   8.850
 5196POPC   C1A13143   3.549  19.021   8.550
 5196POPC   D2A13144   3.583  19.032   8.250
 5196POPC   C3A13145   3.552  19.041   7.950
 5196POPC   C4A13146   3.497  19.091   7.650
 5196POPC   C1B13147   3.352  18.906   8.550
 5196POPC   C2B13148   3.319  18.918   8.250
 5196POPC   C3B13149   3.300  18.912   7.950
 5196POPC   C4B13150   3.296  18.967   7.650
 5197POPC   NC313151   7.394  27.575   9.450
 5197POPC   PO413152   7.449  27.630   9.150
 5197POPC   GL113153   7.416  27.643   8.850
 5197POPC   GL213154   7.393  27.439   8.850
 5197POPC   C1A13155   7.432  27.618   8.550
 5197POPC   D2A13156   7.471  27.559   8.250
 5197POPC   C3A13157   7.453  27.631   7.950
 5197POPC   C4A13158   7.445  27.570   7.650
 5197POPC   C1B13159   7.365  27.388   8.550
 5197POPC   C2B13160   7.342  27.338   8.250
 5197POPC   C3B13161   7.309  27.376   7.950
 5197POPC   C4B13162   7.372  27.332   7.650
 5198POPC   NC313163  43.840  16.765   9.450
 5198POPC   PO413164  43.929  16.700   9.150
 5198POPC   GL113165  43.909  16.682   8.850
 5198POPC   GL213166  43.899  16.646   8.850
 5198POPC   C1A13167  43.888  16.692   8.550
 5198POPC   D2A13168  43.915  16.682   8.250
 5198POPC   C3A13169  43.888  16.720   7.950
 5198POPC   C4A13170  43.918  16.760   7.650
 5198POPC   C1B13171  43.884  16.503   8.550
 5198POPC   C2B13172  43.886  16.443   8.250
 5198POPC   C3B13173  43.852  16.507   7.950
 5198POPC   C4B13174  43.881  16.481   7.650
 5199POPC   NC313175   7.380  15.907   9.450
 5199POPC   PO413176   7.396  15.994   9.150
 5199POPC   GL113177   7.415  15.932   8.850
 5199POPC   GL213178   7.507  16.081   8.850
 5199POPC   C1A13179   7.425  15.956   8.550
 5199POPC   D2A13180   7.374  16.005   8.250
 5199POPC   C3A13181   7.390  15.983   7.950
 5199POPC   C4A13182   7.400  15.922   7.650
 5199POPC   C1B13183   7.579  16.117   8.550
 5199POPC   C2B13184   7.536  16.189   8.250
 5199POPC   C3B13185   7.531  16.136   7.950
 5199POPC   C4B13186   7.623  16.162   7.650
 5200POPC   NC313187  22.161  42.287   9.450
 5200POPC   PO413188  22.180  42.365   9.150
 5200POPC   GL113189  22.186  42.380   8.850
 5200POPC   GL213190  22.020  42.361   8.850
 5200POPC   C1A13191  22.200  42.287   8.550
 5200POPC   D2A13192  22.136  42.374   8.250
 5200POPC   C3A13193  22.139  42.315   7.950
 5200POPC   C4A13194  22.135  42.379   7.650
 5200POPC   C1B13195  21.885  42.435   8.550
 5200POPC   C2B13196  21.937  42.428   8.250
 5200POPC   C3B13197  21.950  42.393   7.950
 5200POPC   C4B13198  21.975  42.454   7.650
 5201POPC   NC313199   2.750   5.131   9.450
 5201POPC   PO413200   2.745   5.058   9.150
 5201POPC   GL113201   2.769   5.113   8.850
 5201POPC   GL213202   2.711   4.973   8.850
 5201POPC   C1A13203   2.750   5.054   8.550
 5201POPC   D2A13204   2.800   5.060   8.250
 5201POPC   C3A13205   2.801   5.070   7.950
 5201POPC   C4A13206   2.808   5.113   7.650
 5201POPC   C1B13207   2.737   4.866   8.550
 5201POPC   C2B13208   2.711   4.862   8.250
 5201POPC   C3B13209   2.719   4.864   7.950
 5201POPC   C4B13210   2.697   4.851   7.650
 5202POPC   NC313211  22.945  39.997   9.450
 5202POPC   PO413212  22.923  39.979   9.150
 5202POPC   GL113213  22.947  39.959   8.850
 5202POPC   GL213214  22.931  40.153   8.850
 5202POPC   C1A13215  22.919  40.004   8.550
 5202POPC   D2A13216  22.906  40.018   8.250
 5202POPC   C3A13217  22.943  40.035   7.950
 5202POPC   C4A13218  22.973  40.003   7.650
 5202POPC   C1B13219  23.014  40.208   8.550
 5202POPC   C2B13220  22.999  40.237   8.250
 5202POPC   C3B13221  22.935  40.283   7.950
 5202POPC   C4B13222  22.982  40.221   7.650
 5203POPC   NC313223  22.950  42.287   9.450
 5203POPC   PO413224  22.952  42.371   9.150
 5203POPC   GL113225  22.922  42.342   8.850
 5203POPC   GL213226  23.048  42.301   8.850
 5203POPC   C1A13227  22.923  42.330   8.550
 5203POPC   D2A13228  22.932  42.295   8.250
 5203POPC   C3A13229  22.944  42.363   7.950
 5203POPC   C4A13230  22.968  42.290   7.650
 5203POPC   C1B13231  23.183  42.274   8.550
 5203POPC   C2B13232  23.192  42.235   8.250
 5203POPC   C3B13233  23.148  42.297   7.950
 5203POPC   C4B13234  23.223  42.271   7.650
 5204POPC   NC313235   2.812  43.105   9.450
 5204POPC   PO413236   2.741  43.101   9.150
 5204POPC   GL113237   2.802  43.098   8.850
 5204POPC   GL213238   2.870  43.198   8.850
 5204POPC   C1A13239   2.795  43.136   8.550
 5204POPC   D2A13240   2.759  43.155   8.250
 5204POPC   C3A13241   2.767  43.153   7.950
 5204POPC   C4A13242   2.764  43.133   7.650
 5204POPC   C1B13243   2.941  43.278   8.550
 5204POPC   C2B13244   2.875  43.344   8.250
 5204POPC   C3B13245   2.910  43.305   7.950
 5204POPC   C4B13246   2.880  43.286   7.650
 5205POPC   NC313247  17.473  24.480   9.450
 5205POPC   PO413248  17.501  24.483   9.150
 5205POPC   GL113249  17.459  24.487   8.850
 5205POPC   GL213250  17.464  24.377   8.850
 5205POPC   C1A13251  17.541  24.505   8.550
 5205POPC   D2A13252  17.491  24.457   8.250
 5205POPC   C3A13253  17.471  24.501   7.950
 5205POPC   C4A13254  17.500  24.524   7.650
 5205POPC   C1B13255  17.396  24.321   8.550
 5205POPC   C2B13256  17.402  24.270   8.250
 5205POPC   C3B13257  17.331  24.308   7.950
 5205POPC   C4B13258  17.381  24.263   7.650
 5206POPC   NC313259  33.753   5.052   9.450
 5206POPC   PO413260  33.751   5.102   9.150
 5206POPC   GL113261  33.847   5.126   8.850
 5206POPC   GL213262  33.934   5.229   8.850
 5206POPC   C1A13263  33.780   5.089   8.550
 5206POPC   D2A13264  33.841   5.114   8.250
 5206POPC   C3A13265  33.791   5.108   7.950
 5206POPC   C4A13266  33.789   5.131   7.650
 5206POPC   C1B13267  33.931   5.276   8.550
 5206POPC   C2B13268  34.002   5.266   8.250
 5206POPC   C3B13269  33.951   5.265   7.950
 5206POPC   C4B13270  33.974   5.314   7.650
 5207POPC   NC313271  43.091  23.711   9.450
 5207POPC   PO413272  43.098  23.719   9.150
 5207POPC   GL113273  43.140  23.763   8.850
 5207POPC   GL213274  43.278  23.732   8.850
 5207POPC   C1A13275  43.143  23.749   8.550
 5207POPC   D2A13276  43.137  23.747   8.250
 5207POPC   C3A13277  43.064  23.741   7.950
 5207POPC   C4A13278  43.070  23.745   7.650
 5207POPC   C1B13279  43.331  23.680   8.550
 5207POPC   C2B13280  43.338  23.693   8.250
 5207POPC   C3B13281  43.335  23.711   7.950
 5207POPC   C4B13282  43.343  23.681   7.650
 5208POPC   NC313283  12.064   2.776   9.450
 5208POPC   PO413284  12.116   2.728   9.150
 5208POPC   GL113285  12.060   2.794   8.850
 5208POPC   GL213286  12.181   2.891   8.850
 5208POPC   C1A13287  12.085   2.780   8.550
 5208POPC   D2A13288  12.029   2.815   8.250
 5208POPC   C3A13289  12.047   2.812   7.950
 5208POPC   C4A13290  12.115   2.794   7.650
 5208POPC   C1B13291  12.299   2.945   8.550
 5208POPC   C2B13292  12.252   2.980   8.250
 5208POPC   C3B13293  12.291   2.963   7.950
 5208POPC   C4B13294  12.210   2.914   7.650
 5209POPC   NC313295  40.810  26.065   9.450
 5209POPC   PO413296  40.805  26.046   9.150
 5209POPC   GL113297  40.771  25.995   8.850
 5209POPC   GL213298  40.687  26.125   8.850
 5209POPC   C1A13299  40.742  26.043   8.550
 5209POPC   D2A13300  40.806  26.009   8.250
 5209POPC   C3A13301  40.824  26.037   7.950
 5209POPC   C4A13302  40.813  26.079   7.650
 5209POPC   C1B13303  40.713  26.273   8.550
 5209POPC   C2B13304  40.653  26.253   8.250
 5209POPC   C3B13305  40.698  26.262   7.950
 5209POPC   C4B13306  40.660  26.303   7.650
 5210POPC   NC313307  43.901  29.903   9.450
 5210POPC   PO413308  43.898  29.947   9.150
 5210POPC   GL113309  43.924  29.907   8.850
 5210POPC   GL213310  44.039  29.916   8.850
 5210POPC   C1A13311  43.934  29.924   8.550
 5210POPC   D2A13312  43.908  29.940   8.250
 5210POPC   C3A13313  43.910  29.963   7.950
 5210POPC   C4A13314  43.871  29.930   7.650
 5210POPC   C1B13315  44.098  29.852   8.550
 5210POPC   C2B13316  44.146  29.846   8.250
 5210POPC   C3B13317  44.114  29.906   7.950
 5210POPC   C4B13318  44.184  29.893   7.650
 5211POPC   NC313319  27.596   4.292   9.450
 5211POPC   PO413320  27.554   4.334   9.150
 5211POPC   GL113321  27.632   4.340   8.850
 5211POPC   GL213322  27.501   4.448   8.850
 5211POPC   C1A13323  27.563   4.268   8.550
 5211POPC   D2A13324  27.565   4.364   8.250
 5211POPC   C3A13325  27.623   4.280   7.950
 5211POPC   C4A13326  27.597   4.300   7.650
 5211POPC   C1B13327  27.387   4.533   8.550
 5211POPC   C2B13328  27.455   4.518   8.250
 5211POPC   C3B13329  27.444   4.530   7.950
 5211POPC   C4B13330  27.445   4.486   7.650
 5212POPC   NC313331  10.572  29.187   9.450
 5212POPC   PO413332  10.544  29.151   9.150
 5212POPC   GL113333  10.533  29.119   8.850
 5212POPC   GL213334  10.650  29.083   8.850
 5212POPC   C1A13335  10.547  29.191   8.550
 5212POPC   D2A13336  10.543  29.118   8.250
 5212POPC   C3A13337  10.493  29.132   7.950
 5212POPC   C4A13338  10.480  29.159   7.650
 5212POPC   C1B13339  10.760  29.058   8.550
 5212POPC   C2B13340  10.794  29.021   8.250
 5212POPC   C3B13341  10.786  29.045   7.950
 5212POPC   C4B13342  10.703  29.024   7.650
 5213POPC   NC313343  29.116  10.492   9.450
 5213POPC   PO413344  29.134  10.494   9.150
 5213POPC   GL113345  29.165  10.514   8.850
 5213POPC   GL213346  29.218  10.395   8.850
 5213POPC   C1A13347  29.132  10.481   8.550
 5213POPC   D2A13348  29.102  10.531   8.250
 5213POPC   C3A13349  29.111  10.535   7.950
 5213POPC   C4A13350  29.142  10.498   7.650
 5213POPC   C1B13351  29.252  10.343   8.550
 5213POPC   C2B13352  29.296  10.323   8.250
 5213POPC   C3B13353  29.268  10.324   7.950
 5213POPC   C4B13354  29.215  10.300   7.650
 5214POPC   NC313355   5.127  38.424   9.450
 5214POPC   PO413356   5.047  38.441   9.150
 5214POPC   GL113357   5.050  38.458   8.850
 5214POPC   GL213358   4.965  38.526   8.850
 5214POPC   C1A13359   5.048  38.474   8.550
 5214POPC   D2A13360   5.046  38.425   8.250
 5214POPC   C3A13361   5.065  38.416   7.950
 5214POPC   C4A13362   5.124  38.455   7.650
 5214POPC   C1B13363   4.893  38.540   8.550
 5214POPC   C2B13364   4.895  38.572   8.250
 5214POPC   C3B13365   4.900  38.528   7.950
 5214POPC   C4B13366   4.835  38.508   7.650
 5215POPC   NC313367  20.602  33.777   9.450
 5215POPC   PO413368  20.651  33.838   9.150
 5215POPC   GL113369  20.562  33.843   8.850
 5215POPC   GL213370  20.640  33.649   8.850
 5215POPC   C1A13371  20.585  33.753   8.550
 5215POPC   D2A13372  20.578  33.768   8.250
 5215POPC   C3A13373  20.599  33.782   7.950
 5215POPC   C4A13374  20.595  33.778   7.650
 5215POPC   C1B13375  20.730  33.583   8.550
 5215POPC   C2B13376  20.699  33.606   8.250
 5215POPC   C3B13377  20.695  33.539   7.950
 5215POPC   C4B13378  20.730  33.536   7.650
 5216POPC   NC313379  25.222  33.767   9.450
 5216POPC   PO413380  25.221  33.785   9.150
 5216POPC   GL113381  25.224  33.848   8.850
 5216POPC   GL213382  25.395  33.845   8.850
 5216POPC   C1A13383  25.250  33.849   8.550
 5216POPC   D2A13384  25.307  33.836   8.250
 5216POPC   C3A13385  25.275  33.807   7.950
 5216POPC   C4A13386  25.250  33.789   7.650
 5216POPC   C1B13387  25.405  33.979   8.550
 5216POPC   C2B13388  25.427  33.950   8.250
 5216POPC   C3B13389  25.406  33.981   7.950
 5216POPC   C4B13390  25.453  33.956   7.650
 5217POPC   NC313391  28.381  19.814   9.450
 5217POPC   PO413392  28.386  19.878   9.150
 5217POPC   GL113393  28.357  19.812   8.850
 5217POPC   GL213394  28.200  19.861   8.850
 5217POPC   C1A13395  28.386  19.857   8.550
 5217POPC   D2A13396  28.325  19.860   8.250
 5217POPC   C3A13397  28.355  19.873   7.950
 5217POPC   C4A13398  28.357  19.813   7.650
 5217POPC   C1B13399  28.160  19.837   8.550
 5217POPC   C2B13400  28.167  19.891   8.250
 5217POPC   C3B13401  28.073  19.880   7.950
 5217POPC   C4B13402  28.120  19.836   7.650
 5218POPC   NC313403  27.638  29.148   9.450
 5218POPC   PO413404  27.616  29.172   9.150
 5218POPC   GL113405  27.635  29.169   8.850
 5218POPC   GL213406  27.615  28.975   8.850
 5218POPC   C1A13407  27.564  29.130   8.550
 5218POPC   D2A13408  27.586  29.158   8.250
 5218POPC   C3A13409  27.601  29.188   7.950
 5218POPC   C4A13410  27.560  29.187   7.650
 5218POPC   C1B13411  27.578  28.882   8.550
 5218POPC   C2B13412  27.532  28.902   8.250
 5218POPC   C3B13413  27.536  28.898   7.950
 5218POPC   C4B13414  27.518  28.905   7.650
 5219POPC   NC313415  16.757  17.537   9.450
 5219POPC   PO413416  16.683  17.512   9.150
 5219POPC   GL113417  16.768  17.545   8.850
 5219POPC   GL213418  16.899  17.458   8.850
 5219POPC   C1A13419  16.705  17.546   8.550
 5219POPC   D2A13420  16.752  17.500   8.250
 5219POPC   C3A13421  16.697  17.469   7.950
 5219POPC   C4A13422  16.686  17.457   7.650
 5219POPC   C1B13423  16.947  17.479   8.550
 5219POPC   C2B13424  16.982  17.445   8.250
 5219POPC   C3B13425  16.936  17.498   7.950
 5219POPC   C4B13426  16.944  17.510   7.650
 5220POPC   NC313427  36.862   6.664   9.450
 5220POPC   PO413428  36.919   6.614   9.150
 5220POPC   GL113429  36.914   6.653   8.850
 5220POPC   GL213430  36.760   6.589   8.850
 5220POPC   C1A13431  36.904   6.669   8.550
 5220POPC   D2A13432  36.891   6.661   8.250
 5220POPC   C3A13433  36.940   6.677   7.950
 5220POPC   C4A13434  36.858   6.665   7.650
 5220POPC   C1B13435  36.703   6.656   8.550
 5220POPC   C2B13436  36.681   6.607   8.250
 5220POPC   C3B13437  36.688   6.649   7.950
 5220POPC   C4B13438  36.689   6.580   7.650
 5221POPC   NC313439  15.182   0.408   9.450
 5221POPC   PO413440  15.189   0.452   9.150
 5221POPC   GL113441  15.172   0.422   8.850
 5221POPC   GL213442  15.121   0.359   8.850
 5221POPC   C1A13443  15.177   0.415   8.550
 5221POPC   D2A13444  15.210   0.485   8.250
 5221POPC   C3A13445  15.133   0.404   7.950
 5221POPC   C4A13446  15.227   0.423   7.650
 5221POPC   C1B13447  14.982   0.234   8.550
 5221POPC   C2B13448  15.039   0.269   8.250
 5221POPC   C3B13449  14.963   0.282   7.950
 5221POPC   C4B13450  15.006   0.290   7.650
 5222POPC   NC313451  16.702  13.670   9.450
 5222POPC   PO413452  16.780  13.644   9.150
 5222POPC   GL113453  16.752  13.588   8.850
 5222POPC   GL213454  16.599  13.603   8.850
 5222POPC   C1A13455  16.746  13.602   8.550
 5222POPC   D2A13456  16.697  13.624   8.250
 5222POPC   C3A13457  16.742  13.604   7.950
 5222POPC   C4A13458  16.746  13.662   7.650
 5222POPC   C1B13459  16.471  13.555   8.550
 5222POPC   C2B13460  16.489  13.559   8.250
 5222POPC   C3B13461  16.477  13.542   7.950
 5222POPC   C4B13462  16.451  13.631   7.650
 5223POPC   NC313463   9.771   6.676   9.450
 5223POPC   PO413464   9.700   6.621   9.150
 5223POPC   GL113465   9.782   6.669   8.850
 5223POPC   GL213466   9.578   6.708   8.850
 5223POPC   C1A13467   9.739   6.647   8.550
 5223POPC   D2A13468   9.740   6.616   8.250
 5223POPC   C3A13469   9.788   6.609   7.950
 5223POPC   C4A13470   9.724   6.626   7.650
 5223POPC   C1B13471   9.493   6.667   8.550
 5223POPC   C2B13472   9.550   6.627   8.250
 5223POPC   C3B13473   9.476   6.686   7.950
 5223POPC   C4B13474   9.500   6.699   7.650
 5224POPC   NC313475  33.838  12.074   9.450
 5224POPC   PO413476  33.800  12.079   9.150
 5224POPC   GL113477  33.760  12.084   8.850
 5224POPC   GL213478  33.949  12.114   8.850
 5224POPC   C1A13479  33.843  12.112   8.550
 5224POPC   D2A13480  33.847  12.073   8.250
 5224POPC   C3A13481  33.847  12.075   7.950
 5224POPC   C4A13482  33.829  12.072   7.650
 5224POPC   C1B13483  34.050  12.078   8.550
 5224POPC   C2B13484  34.070  12.062   8.250
 5224POPC   C3B13485  34.065  12.006   7.950
 5224POPC   C4B13486  34.012  12.030   7.650
 5225POPC   NC313487   8.148  44.657   9.450
 5225POPC   PO413488   8.226  44.680   9.150
 5225POPC   GL113489   8.234  44.640   8.850
 5225POPC   GL213490   8.097  44.601   8.850
 5225POPC   C1A13491   8.157  44.666   8.550
 5225POPC   D2A13492   8.165  44.659   8.250
 5225POPC   C3A13493   8.193  44.665   7.950
 5225POPC   C4A13494   8.178  44.628   7.650
 5225POPC   C1B13495   8.083  44.476   8.550
 5225POPC   C2B13496   8.082  44.425   8.250
 5225POPC   C3B13497   8.097  44.407   7.950
 5225POPC   C4B13498   8.066  44.448   7.650
 5226POPC   NC313499   3.574  15.196   9.450
 5226POPC   PO413500   3.505  15.207   9.150
 5226POPC   GL113501   3.532  15.209   8.850
 5226POPC   GL213502   3.480  15.090   8.850
 5226POPC   C1A13503   3.570  15.150   8.550
 5226POPC   D2A13504   3.504  15.208   8.250
 5226POPC   C3A13505   3.508  15.182   7.950
 5226POPC   C4A13506   3.495  15.208   7.650
 5226POPC   C1B13507   3.420  14.965   8.550
 5226POPC   C2B13508   3.348  14.941   8.250
 5226POPC   C3B13509   3.425  14.985   7.950
 5226POPC   C4B13510   3.437  14.968   7.650
 5227POPC   NC313511   4.283  22.212   9.450
 5227POPC   PO413512   4.277  22.158   9.150
 5227POPC   GL113513   4.278  22.185   8.850
 5227POPC   GL213514   4.154  22.246   8.850
 5227POPC   C1A13515   4.354  22.157   8.550
 5227POPC   D2A13516   4.364  22.198   8.250
 5227POPC   C3A13517   4.318  22.171   7.950
 5227POPC   C4A13518   4.360  22.115   7.650
 5227POPC   C1B13519   4.115  22.249   8.550
 5227POPC   C2B13520   4.040  22.283   8.250
 5227POPC   C3B13521   4.133  22.314   7.950
 5227POPC   C4B13522   4.068  22.217   7.650
 5228POPC   NC313523   8.154  25.999   9.450
 5228POPC   PO413524   8.216  26.033   9.150
 5228POPC   GL113525   8.228  26.013   8.850
 5228POPC   GL213526   8.109  26.022   8.850
 5228POPC   C1A13527   8.231  26.000   8.550
 5228POPC   D2A13528   8.187  26.039   8.250
 5228POPC   C3A13529   8.194  26.075   7.950
 5228POPC   C4A13530   8.233  26.070   7.650
 5228POPC   C1B13531   7.989  26.073   8.550
 5228POPC   C2B13532   7.925  26.105   8.250
 5228POPC   C3B13533   7.994  26.101   7.950
 5228POPC   C4B13534   7.986  26.094   7.650
 5229POPC   NC313535  40.742  37.728   9.450
 5229POPC   PO413536  40.748  37.630   9.150
 5229POPC   GL113537  40.761  37.724   8.850
 5229POPC   GL213538  40.844  37.543   8.850
 5229POPC   C1A13539  40.819  37.690   8.550
 5229POPC   D2A13540  40.825  37.642   8.250
 5229POPC   C3A13541  40.764  37.633   7.950
 5229POPC   C4A13542  40.789  37.659   7.650
 5229POPC   C1B13543  40.793  37.390   8.550
 5229POPC   C2B13544  40.827  37.455   8.250
 5229POPC   C3B13545  40.859  37.428   7.950
 5229POPC   C4B13546  40.828  37.382   7.650
 5230POPC   NC313547  39.254   4.359   9.450
 5230POPC   PO413548  39.257   4.313   9.150
 5230POPC   GL113549  39.265   4.279   8.850
 5230POPC   GL213550  39.197   4.415   8.850
 5230POPC   C1A13551  39.276   4.330   8.550
 5230POPC   D2A13552  39.216   4.335   8.250
 5230POPC   C3A13553  39.240   4.327   7.950
 5230POPC   C4A13554  39.210   4.352   7.650
 5230POPC   C1B13555  39.275   4.591   8.550
 5230POPC   C2B13556  39.184   4.608   8.250
 5230POPC   C3B13557  39.254   4.537   7.950
 5230POPC   C4B13558  39.230   4.527   7.650
 5231POPC   NC313559  42.309  36.120   9.450
 5231POPC   PO413560  42.361  36.170   9.150
 5231POPC   GL113561  42.314  36.119   8.850
 5231POPC   GL213562  42.274  35.979   8.850
 5231POPC   C1A13563  42.290  36.091   8.550
 5231POPC   D2A13564  42.364  36.099   8.250
 5231POPC   C3A13565  42.298  36.086   7.950
 5231POPC   C4A13566  42.343  36.143   7.650
 5231POPC   C1B13567  42.191  35.874   8.550
 5231POPC   C2B13568  42.164  35.918   8.250
 5231POPC   C3B13569  42.198  35.950   7.950
 5231POPC   C4B13570  42.166  35.879   7.650
 5232POPC   NC313571   4.330  32.291   9.450
 5232POPC   PO413572   4.361  32.256   9.150
 5232POPC   GL113573   4.288  32.251   8.850
 5232POPC   GL213574   4.278  32.392   8.850
 5232POPC   C1A13575   4.279  32.226   8.550
 5232POPC   D2A13576   4.305  32.206   8.250
 5232POPC   C3A13577   4.300  32.272   7.950
 5232POPC   C4A13578   4.293  32.212   7.650
 5232POPC   C1B13579   4.308  32.507   8.550
 5232POPC   C2B13580   4.326  32.456   8.250
 5232POPC   C3B13581   4.336  32.540   7.950
 5232POPC   C4B13582   4.328  32.496   7.650
 5233POPC   NC313583  43.099  31.517   9.450
 5233POPC   PO413584  43.147  31.434   9.150
 5233POPC   GL113585  43.145  31.470   8.850
 5233POPC   GL213586  43.256  31.462   8.850
 5233POPC   C1A13587  43.081  31.522   8.550
 5233POPC   D2A13588  43.073  31.518   8.250
 5233POPC   C3A13589  43.105  31.521   7.950
 5233POPC   C4A13590  43.118  31.503   7.650
 5233POPC   C1B13591  43.324  31.434   8.550
 5233POPC   C2B13592  43.312  31.450   8.250
 5233POPC   C3B13593  43.310  31.385   7.950
 5233POPC   C4B13594  43.320  31.367   7.650
 5234POPC   NC313595  41.563  32.996   9.450
 5234POPC   PO413596  41.520  33.000   9.150
 5234POPC   GL113597  41.558  33.049   8.850
 5234POPC   GL213598  41.539  32.938   8.850
 5234POPC   C1A13599  41.551  33.061   8.550
 5234POPC   D2A13600  41.607  33.016   8.250
 5234POPC   C3A13601  41.528  33.018   7.950
 5234POPC   C4A13602  41.565  33.010   7.650
 5234POPC   C1B13603  41.500  32.822   8.550
 5234POPC   C2B13604  41.512  32.831   8.250
 5234POPC   C3B13605  41.428  32.750   7.950
 5234POPC   C4B13606  41.447  32.830   7.650
 5235POPC   NC313607  41.525  24.539   9.450
 5235POPC   PO413608  41.548  24.491   9.150
 5235POPC   GL113609  41.523  24.524   8.850
 5235POPC   GL213610  41.601  24.394   8.850
 5235POPC   C1A13611  41.545  24.492   8.550
 5235POPC   D2A13612  41.544  24.456   8.250
 5235POPC   C3A13613  41.519  24.482   7.950
 5235POPC   C4A13614  41.525  24.475   7.650
 5235POPC   C1B13615  41.573  24.284   8.550
 5235POPC   C2B13616  41.575  24.228   8.250
 5235POPC   C3B13617  41.567  24.280   7.950
 5235POPC   C4B13618  41.495  24.253   7.650
 5236POPC   NC313619  36.919  22.195   9.450
 5236POPC   PO413620  36.931  22.151   9.150
 5236POPC   GL113621  36.867  22.200   8.850
 5236POPC   GL213622  36.973  22.248   8.850
 5236POPC   C1A13623  36.933  22.166   8.550
 5236POPC   D2A13624  36.880  22.149   8.250
 5236POPC   C3A13625  36.877  22.173   7.950
 5236POPC   C4A13626  36.923  22.191   7.650
 5236POPC   C1B13627  37.014  22.374   8.550
 5236POPC   C2B13628  36.953  22.385   8.250
 5236POPC   C3B13629  36.971  22.374   7.950
 5236POPC   C4B13630  36.939  22.404   7.650
 5237POPC   NC313631   1.225  18.251   9.450
 5237POPC   PO413632   1.257  18.238   9.150
 5237POPC   GL113633   1.177  18.286   8.850
 5237POPC   GL213634   1.075  18.161   8.850
 5237POPC   C1A13635   1.186  18.274   8.550
 5237POPC   D2A13636   1.175  18.322   8.250
 5237POPC   C3A13637   1.181  18.318   7.950
 5237POPC   C4A13638   1.259  18.256   7.650
 5237POPC   C1B13639   0.997  18.126   8.550
 5237POPC   C2B13640   1.034  18.157   8.250
 5237POPC   C3B13641   0.982  18.115   7.950
 5237POPC   C4B13642   1.049  18.124   7.650
 5238POPC   NC313643  43.844  17.486   9.450
 5238POPC   PO413644  43.889  17.476   9.150
 5238POPC   GL113645  43.891  17.551   8.850
 5238POPC   GL213646  43.923  17.603   8.850
 5238POPC   C1A13647  43.922  17.506   8.550
 5238POPC   D2A13648  43.916  17.529   8.250
 5238POPC   C3A13649  43.891  17.476   7.950
 5238POPC   C4A13650  43.838  17.473   7.650
 5238POPC   C1B13651  44.041  17.709   8.550
 5238POPC   C2B13652  44.056  17.726   8.250
 5238POPC   C3B13653  43.993  17.709   7.950
 5238POPC   C4B13654  43.989  17.764   7.650
 5239POPC   NC313655  22.201  19.021   9.450
 5239POPC   PO413656  22.123  19.072   9.150
 5239POPC   GL113657  22.144  19.009   8.850
 5239POPC   GL213658  22.299  19.007   8.850
 5239POPC   C1A13659  22.191  19.032   8.550
 5239POPC   D2A13660  22.187  19.053   8.250
 5239POPC   C3A13661  22.206  19.037   7.950
 5239POPC   C4A13662  22.178  19.046   7.650
 5239POPC   C1B13663  22.451  19.032   8.550
 5239POPC   C2B13664  22.372  19.057   8.250
 5239POPC   C3B13665  22.375  19.025   7.950
 5239POPC   C4B13666  22.391  18.987   7.650
 5240POPC   NC313667   0.465  17.483   9.450
 5240POPC   PO413668   0.397  17.468   9.150
 5240POPC   GL113669   0.449  17.536   8.850
 5240POPC   GL213670   0.433  17.348   8.850
 5240POPC   C1A13671   0.395  17.487   8.550
 5240POPC   D2A13672   0.434  17.481   8.250
 5240POPC   C3A13673   0.446  17.477   7.950
 5240POPC   C4A13674   0.477  17.548   7.650
 5240POPC   C1B13675   0.402  17.241   8.550
 5240POPC   C2B13676   0.396  17.292   8.250
 5240POPC   C3B13677   0.372  17.221   7.950
 5240POPC   C4B13678   0.384  17.287   7.650
 5241POPC   NC313679  39.277  40.822   9.450
 5241POPC   PO413680  39.266  40.786   9.150
 5241POPC   GL113681  39.259  40.785   8.850
 5241POPC   GL213682  39.379  40.790   8.850
 5241POPC   C1A13683  39.189  40.744   8.550
 5241POPC   D2A13684  39.255  40.764   8.250
 5241POPC   C3A13685  39.270  40.756   7.950
 5241POPC   C4A13686  39.251  40.812   7.650
 5241POPC   C1B13687  39.449  40.748   8.550
 5241POPC   C2B13688  39.463  40.771   8.250
 5241POPC   C3B13689  39.500  40.813   7.950
 5241POPC   C4B13690  39.474  40.726   7.650
 5242POPC   NC313691  34.535  42.292   9.450
 5242POPC   PO413692  34.577  42.340   9.150
 5242POPC   GL113693  34.574  42.310   8.850
 5242POPC   GL213694  34.511  42.370   8.850
 5242POPC   C1A13695  34.531  42.307   8.550
 5242POPC   D2A13696  34.560  42.287   8.250
 5242POPC   C3A13697  34.579  42.380   7.950
 5242POPC   C4A13698  34.572  42.371   7.650
 5242POPC   C1B13699  34.431  42.453   8.550
 5242POPC   C2B13700  34.345  42.496   8.250
 5242POPC   C3B13701  34.358  42.468   7.950
 5242POPC   C4B13702  34.429  42.477   7.650
 5243POPC   NC313703   4.366  40.749   9.450
 5243POPC   PO413704   4.288  40.827   9.150
 5243POPC   GL113705   4.299  40.821   8.850
 5243POPC   GL213706   4.393  40.888   8.850
 5243POPC   C1A13707   4.281  40.753   8.550
 5243POPC   D2A13708   4.295  40.776   8.250
 5243POPC   C3A13709   4.295  40.770   7.950
 5243POPC   C4A13710   4.366  40.775   7.650
 5243POPC   C1B13711   4.412  41.042   8.550
 5243POPC   C2B13712   4.351  41.027   8.250
 5243POPC   C3B13713   4.351  41.068   7.950
 5243POPC   C4B13714   4.391  41.049   7.650
 5244POPC   NC313715  19.030  34.614   9.450
 5244POPC   PO413716  19.023  34.605   9.150
 5244POPC   GL113717  19.066  34.612   8.850
 5244POPC   GL213718  19.126  34.483   8.850
 5244POPC   C1A13719  19.072  34.549   8.550
 5244POPC   D2A13720  19.048  34.556   8.250
 5244POPC   C3A13721  19.050  34.532   7.950
 5244POPC   C4A13722  19.027  34.529   7.650
 5244POPC   C1B13723  19.125  34.317   8.550
 5244POPC   C2B13724  19.124  34.345   8.250
 5244POPC   C3B13725  19.145  34.308   7.950
 5244POPC   C4B13726  19.148  34.361   7.650
 5245POPC   NC313727  19.031   9.699   9.450
 5245POPC   PO413728  19.042   9.792   9.150
 5245POPC   GL113729  19.015   9.714   8.850
 5245POPC   GL213730  19.007   9.671   8.850
 5245POPC   C1A13731  19.100   9.789   8.550
 5245POPC   D2A13732  19.087   9.756   8.250
 5245POPC   C3A13733  19.085   9.706   7.950
 5245POPC   C4A13734  19.012   9.769   7.650
 5245POPC   C1B13735  18.941   9.534   8.550
 5245POPC   C2B13736  18.903   9.538   8.250
 5245POPC   C3B13737  18.943   9.491   7.950
 5245POPC   C4B13738  18.917   9.498   7.650
 5246POPC   NC313739  38.457  22.927   9.450
 5246POPC   PO413740  38.465  22.959   9.150
 5246POPC   GL113741  38.504  22.930   8.850
 5246POPC   GL213742  38.455  22.806   8.850
 5246POPC   C1A13743  38.434  22.917   8.550
 5246POPC   D2A13744  38.459  22.914   8.250
 5246POPC   C3A13745  38.443  22.979   7.950
 5246POPC   C4A13746  38.408  22.910   7.650
 5246POPC   C1B13747  38.445  22.723   8.550
 5246POPC   C2B13748  38.392  22.734   8.250
 5246POPC   C3B13749  38.455  22.659   7.950
 5246POPC   C4B13750  38.385  22.739   7.650
 5247POPC   NC313751   8.241  27.639   9.450
 5247POPC   PO413752   8.222  27.548   9.150
 5247POPC   GL113753   8.210  27.561   8.850
 5247POPC   GL213754   8.147  27.643   8.850
 5247POPC   C1A13755   8.244  27.567   8.550
 5247POPC   D2A13756   8.228  27.591   8.250
 5247POPC   C3A13757   8.223  27.584   7.950
 5247POPC   C4A13758   8.154  27.576   7.650
 5247POPC   C1B13759   7.981  27.766   8.550
 5247POPC   C2B13760   7.993  27.778   8.250
 5247POPC   C3B13761   8.003  27.765   7.950
 5247POPC   C4B13762   8.035  27.736   7.650
 5248POPC   NC313763   7.468  36.887   9.450
 5248POPC   PO413764   7.466  36.920   9.150
 5248POPC   GL113765   7.415  36.860   8.850
 5248POPC   GL213766   7.485  36.806   8.850
 5248POPC   C1A13767   7.391  36.896   8.550
 5248POPC   D2A13768   7.426  36.878   8.250
 5248POPC   C3A13769   7.465  36.879   7.950
 5248POPC   C4A13770   7.382  36.903   7.650
 5248POPC   C1B13771   7.594  36.762   8.550
 5248POPC   C2B13772   7.612  36.776   8.250
 5248POPC   C3B13773   7.660  36.816   7.950
 5248POPC   C4B13774   7.672  36.757   7.650
 5249POPC   NC313775  25.306   5.054   9.450
 5249POPC   PO413776  25.303   5.076   9.150
 5249POPC   GL113777  25.246   5.075   8.850
 5249POPC   GL213778  25.388   5.217   8.850
 5249POPC   C1A13779  25.312   5.058   8.550
 5249POPC   D2A13780  25.225   5.045   8.250
 5249POPC   C3A13781  25.228   5.132   7.950
 5249POPC   C4A13782  25.234   5.058   7.650
 5249POPC   C1B13783  25.487   5.238   8.550
 5249POPC   C2B13784  25.411   5.294   8.250
 5249POPC   C3B13785  25.455   5.239   7.950
 5249POPC   C4B13786  25.424   5.218   7.650
 5250POPC   NC313787  20.578   9.791   9.450
 5250POPC   PO413788  20.582   9.790   9.150
 5250POPC   GL113789  20.598   9.720   8.850
 5250POPC   GL213790  20.657   9.712   8.850
 5250POPC   C1A13791  20.622   9.794   8.550
 5250POPC   D2A13792  20.642   9.739   8.250
 5250POPC   C3A13793  20.585   9.787   7.950
 5250POPC   C4A13794  20.570   9.726   7.650
 5250POPC   C1B13795  20.816   9.562   8.550
 5250POPC   C2B13796  20.755   9.619   8.250
 5250POPC   C3B13797  20.811   9.586   7.950
 5250POPC   C4B13798  20.805   9.585   7.650
 5251POPC   NC313799  12.039   0.481   9.450
 5251POPC   PO413800  12.117   0.395   9.150
 5251POPC   GL113801  12.039   0.413   8.850
 5251POPC   GL213802  11.975   0.443   8.850
 5251POPC   C1A13803  12.058   0.418   8.550
 5251POPC   D2A13804  12.032   0.412   8.250
 5251POPC   C3A13805  12.091   0.392   7.950
 5251POPC   C4A13806  12.064   0.457   7.650
 5251POPC   C1B13807  11.864   0.541   8.550
 5251POPC   C2B13808  11.831   0.575   8.250
 5251POPC   C3B13809  11.890   0.517   7.950
 5251POPC   C4B13810  11.861   0.569   7.650
 5252POPC   NC313811  10.476  28.389   9.450
 5252POPC   PO413812  10.491  28.396   9.150
 5252POPC   GL113813  10.502  28.402   8.850
 5252POPC   GL213814  10.502  28.218   8.850
 5252POPC   C1A13815  10.567  28.388   8.550
 5252POPC   D2A13816  10.532  28.320   8.250
 5252POPC   C3A13817  10.480  28.339   7.950
 5252POPC   C4A13818  10.481  28.417   7.650
 5252POPC   C1B13819  10.383  28.180   8.550
 5252POPC   C2B13820  10.406  28.131   8.250
 5252POPC   C3B13821  10.408  28.163   7.950
 5252POPC   C4B13822  10.409  28.129   7.650
 5253POPC   NC313823   4.292  26.817   9.450
 5253POPC   PO413824   4.306  26.850   9.150
 5253POPC   GL113825   4.338  26.859   8.850
 5253POPC   GL213826   4.264  26.696   8.850
 5253POPC   C1A13827   4.290  26.796   8.550
 5253POPC   D2A13828   4.299  26.818   8.250
 5253POPC   C3A13829   4.326  26.819   7.950
 5253POPC   C4A13830   4.297  26.781   7.650
 5253POPC   C1B13831   4.194  26.598   8.550
 5253POPC   C2B13832   4.242  26.604   8.250
 5253POPC   C3B13833   4.204  26.544   7.950
 5253POPC   C4B13834   4.173  26.586   7.650
 5254POPC   NC313835  29.950  13.606   9.450
 5254POPC   PO413836  29.884  13.612   9.150
 5254POPC   GL113837  29.926  13.578   8.850
 5254POPC   GL213838  29.981  13.601   8.850
 5254POPC   C1A13839  29.950  13.598   8.550
 5254POPC   D2A13840  29.935  13.609   8.250
 5254POPC   C3A13841  29.915  13.663   7.950
 5254POPC   C4A13842  29.890  13.622   7.650
 5254POPC   C1B13843  30.110  13.514   8.550
 5254POPC   C2B13844  30.149  13.537   8.250
 5254POPC   C3B13845  30.160  13.484   7.950
 5254POPC   C4B13846  30.170  13.503   7.650
 5255POPC   NC313847  43.854   6.619   9.450
 5255POPC   PO413848  43.901   6.682   9.150
 5255POPC   GL113849  43.867   6.644   8.850
 5255POPC   GL213850  43.941   6.724   8.850
 5255POPC   C1A13851  43.923   6.628   8.550
 5255POPC   D2A13852  43.927   6.611   8.250
 5255POPC   C3A13853  43.936   6.613   7.950
 5255POPC   C4A13854  43.843   6.679   7.650
 5255POPC   C1B13855  43.980   6.832   8.550
 5255POPC   C2B13856  43.999   6.848   8.250
 5255POPC   C3B13857  43.979   6.913   7.950
 5255POPC   C4B13858  43.973   6.859   7.650
 5256POPC   NC313859  39.197   1.236   9.450
 5256POPC   PO413860  39.217   1.210   9.150
 5256POPC   GL113861  39.208   1.245   8.850
 5256POPC   GL213862  39.121   1.331   8.850
 5256POPC   C1A13863  39.208   1.238   8.550
 5256POPC   D2A13864  39.256   1.205   8.250
 5256POPC   C3A13865  39.206   1.221   7.950
 5256POPC   C4A13866  39.265   1.215   7.650
 5256POPC   C1B13867  39.094   1.408   8.550
 5256POPC   C2B13868  39.113   1.425   8.250
 5256POPC   C3B13869  39.120   1.417   7.950
 5256POPC   C4B13870  39.126   1.461   7.650
 5257POPC   NC313871  25.247  41.552   9.450
 5257POPC   PO413872  25.298  41.509   9.150
 5257POPC   GL113873  25.306  41.585   8.850
 5257POPC   GL213874  25.398  41.644   8.850
 5257POPC   C1A13875  25.272  41.572   8.550
 5257POPC   D2A13876  25.266  41.535   8.250
 5257POPC   C3A13877  25.232  41.597   7.950
 5257POPC   C4A13878  25.293  41.571   7.650
 5257POPC   C1B13879  25.404  41.779   8.550
 5257POPC   C2B13880  25.431  41.700   8.250
 5257POPC   C3B13881  25.392  41.727   7.950
 5257POPC   C4B13882  25.479  41.771   7.650
 5258POPC   NC313883  36.897  29.941   9.450
 5258POPC   PO413884  36.862  29.961   9.150
 5258POPC   GL113885  36.945  29.954   8.850
 5258POPC   GL213886  36.955  30.010   8.850
 5258POPC   C1A13887  36.890  29.935   8.550
 5258POPC   D2A13888  36.889  29.898   8.250
 5258POPC   C3A13889  36.929  29.880   7.950
 5258POPC   C4A13890  36.869  29.904   7.650
 5258POPC   C1B13891  37.017  30.152   8.550
 5258POPC   C2B13892  37.014  30.150   8.250
 5258POPC   C3B13893  37.041  30.145   7.950
 5258POPC   C4B13894  36.975  30.192   7.650
 5259POPC   NC313895  28.403   9.708   9.450
 5259POPC   PO413896  28.345   9.786   9.150
 5259POPC   GL113897  28.408   9.702   8.850
 5259POPC   GL213898  28.338   9.635   8.850
 5259POPC   C1A13899  28.354   9.753   8.550
 5259POPC   D2A13900  28.332   9.727   8.250
 5259POPC   C3A13901  28.400   9.700   7.950
 5259POPC   C4A13902  28.384   9.702   7.650
 5259POPC   C1B13903  28.298   9.498   8.550
 5259POPC   C2B13904  28.295   9.545   8.250
 5259POPC   C3B13905  28.245   9.498   7.950
 5259POPC   C4B13906  28.209   9.560   7.650
 5260POPC   NC313907   3.576   3.529   9.450
 5260POPC   PO413908   3.510   3.507   9.150
 5260POPC   GL113909   3.581   3.563   8.850
 5260POPC   GL213910   3.609   3.570   8.850
 5260POPC   C1A13911   3.523   3.579   8.550
 5260POPC   D2A13912   3.537   3.515   8.250
 5260POPC   C3A13913   3.591   3.525   7.950
 5260POPC   C4A13914   3.554   3.498   7.650
 5260POPC   C1B13915   3.697   3.649   8.550
 5260POPC   C2B13916   3.777   3.705   8.250
 5260POPC   C3B13917   3.711   3.682   7.950
 5260POPC   C4B13918   3.783   3.726   7.650
 5261POPC   NC313919  10.479  44.685   9.450
 5261POPC   PO413920  10.535  44.681   9.150
 5261POPC   GL113921  10.533  44.626   8.850
 5261POPC   GL213922  10.597  44.548   8.850
 5261POPC   C1A13923  10.559  44.682   8.550
 5261POPC   D2A13924  10.551  44.635   8.250
 5261POPC   C3A13925  10.500  44.631   7.950
 5261POPC   C4A13926  10.556  44.659   7.650
 5261POPC   C1B13927  10.702  44.471   8.550
 5261POPC   C2B13928  10.654  44.435   8.250
 5261POPC   C3B13929  10.726  44.459   7.950
 5261POPC   C4B13930  10.707  44.472   7.650
 5262POPC   NC313931  33.806   1.173   9.450
 5262POPC   PO413932  33.818   1.178   9.150
 5262POPC   GL113933  33.843   1.171   8.850
 5262POPC   GL213934  33.926   1.309   8.850
 5262POPC   C1A13935  33.847   1.197   8.550
 5262POPC   D2A13936  33.761   1.257   8.250
 5262POPC   C3A13937  33.846   1.243   7.950
 5262POPC   C4A13938  33.814   1.209   7.650
 5262POPC   C1B13939  34.001   1.395   8.550
 5262POPC   C2B13940  33.943   1.435   8.250
 5262POPC   C3B13941  34.015   1.402   7.950
 5262POPC   C4B13942  33.924   1.409   7.650
 5263POPC   NC313943  32.974  43.846   9.450
 5263POPC   PO413944  32.976  43.901   9.150
 5263POPC   GL113945  33.067  43.856   8.850
 5263POPC   GL213946  32.896  43.920   8.850
 5263POPC   C1A13947  32.977  43.864   8.550
 5263POPC   D2A13948  33.067  43.922   8.250
 5263POPC   C3A13949  32.980  43.910   7.950
 5263POPC   C4A13950  32.983  43.858   7.650
 5263POPC   C1B13951  32.840  43.973   8.550
 5263POPC   C2B13952  32.757  43.962   8.250
 5263POPC   C3B13953  32.810  44.023   7.950
 5263POPC   C4B13954  32.756  43.987   7.650
 5264POPC   NC313955   2.738  23.664   9.450
 5264POPC   PO413956   2.734  23.738   9.150
 5264POPC   GL113957   2.802  23.741   8.850
 5264POPC   GL213958   2.731  23.864   8.850
 5264POPC   C1A13959   2.729  23.680   8.550
 5264POPC   D2A13960   2.735  23.755   8.250
 5264POPC   C3A13961   2.758  23.756   7.950
 5264POPC   C4A13962   2.723  23.725   7.650
 5264POPC   C1B13963   2.735  23.951   8.550
 5264POPC   C2B13964   2.779  23.946   8.250
 5264POPC   C3B13965   2.717  24.010   7.950
 5264POPC   C4B13966   2.759  23.942   7.650
 5265POPC   NC313967  34.546  19.041   9.450
 5265POPC   PO413968  34.549  19.063   9.150
 5265POPC   GL113969  34.553  19.086   8.850
 5265POPC   GL213970  34.650  19.165   8.850
 5265POPC   C1A13971  34.605  19.075   8.550
 5265POPC   D2A13972  34.620  19.060   8.250
 5265POPC   C3A13973  34.602  19.078   7.950
 5265POPC   C4A13974  34.615  19.103   7.650
 5265POPC   C1B13975  34.751  19.177   8.550
 5265POPC   C2B13976  34.812  19.155   8.250
 5265POPC   C3B13977  34.829  19.134   7.950
 5265POPC   C4B13978  34.768  19.136   7.650
 5266POPC   NC313979  38.477  43.143   9.450
 5266POPC   PO413980  38.434  43.092   9.150
 5266POPC   GL113981  38.436  43.095   8.850
 5266POPC   GL213982  38.528  43.182   8.850
 5266POPC   C1A13983  38.461  43.133   8.550
 5266POPC   D2A13984  38.490  43.155   8.250
 5266POPC   C3A13985  38.445  43.142   7.950
 5266POPC   C4A13986  38.495  43.149   7.650
 5266POPC   C1B13987  38.560  43.327   8.550
 5266POPC   C2B13988  38.549  43.307   8.250
 5266POPC   C3B13989  38.572  43.354   7.950
 5266POPC   C4B13990  38.512  43.322   7.650
 5267POPC   NC313991  30.735  15.205   9.450
 5267POPC   PO413992  30.708  15.137   9.150
 5267POPC   GL113993  30.674  15.151   8.850
 5267POPC   GL213994  30.649  15.324   8.850
 5267POPC   C1A13995  30.714  15.152   8.550
 5267POPC   D2A13996  30.734  15.155   8.250
 5267POPC   C3A13997  30.745  15.142   7.950
 5267POPC   C4A13998  30.674  15.135   7.650
 5267POPC   C1B13999  30.568  15.399   8.550
 5267POPC   C2B14000  30.566  15.393   8.250
 5267POPC   C3B14001  30.639  15.401   7.950
 5267POPC   C4B14002  30.590  15.420   7.650
 5268POPC   NC314003   1.949   5.915   9.450
 5268POPC   PO414004   2.036   5.829   9.150
 5268POPC   GL114005   1.963   5.844   8.850
 5268POPC   GL214006   2.011   5.773   8.850
 5268POPC   C1A14007   1.951   5.839   8.550
 5268POPC   D2A14008   1.991   5.844   8.250
 5268POPC   C3A14009   2.026   5.860   7.950
 5268POPC   C4A14010   1.976   5.842   7.650
 5268POPC   C1B14011   2.082   5.652   8.550
 5268POPC   C2B14012   2.073   5.588   8.250
 5268POPC   C3B14013   2.012   5.657   7.950
 5268POPC   C4B14014   2.061   5.606   7.650
 5269POPC   NC314015   3.558  41.562   9.450
 5269POPC   PO414016   3.529  41.539   9.150
 5269POPC   GL114017   3.524  41.575   8.850
 5269POPC   GL214018   3.579  41.627   8.850
 5269POPC   C1A14019   3.578  41.578   8.550
 5269POPC   D2A14020   3.584  41.509   8.250
 5269POPC   C3A14021   3.496  41.520   7.950
 5269POPC   C4A14022   3.586  41.523   7.650
 5269POPC   C1B14023   3.692  41.786   8.550
 5269POPC   C2B14024   3.626  41.824   8.250
 5269POPC   C3B14025   3.616  41.819   7.950
 5269POPC   C4B14026   3.679  41.768   7.650
 5270POPC   NC314027  15.164  18.307   9.450
 5270POPC   PO414028  15.133  18.319   9.150
 5270POPC   GL114029  15.186  18.267   8.850
 5270POPC   GL214030  15.097  18.366   8.850
 5270POPC   C1A14031  15.214  18.322   8.550
 5270POPC   D2A14032  15.191  18.332   8.250
 5270POPC   C3A14033  15.130  18.330   7.950
 5270POPC   C4A14034  15.184  18.276   7.650
 5270POPC   C1B14035  15.074  18.440   8.550
 5270POPC   C2B14036  14.992  18.512   8.250
 5270POPC   C3B14037  15.060  18.495   7.950
 5270POPC   C4B14038  14.994  18.464   7.650
 5271POPC   NC314039  29.957  25.314   9.450
 5271POPC   PO414040  29.928  25.245   9.150
 5271POPC   GL114041  29.968  25.248   8.850
 5271POPC   GL214042  29.793  25.221   8.850
 5271POPC   C1A14043  29.946  25.264   8.550
 5271POPC   D2A14044  29.885  25.221   8.250
 5271POPC   C3A14045  29.946  25.246   7.950
 5271POPC   C4A14046  29.882  25.258   7.650
 5271POPC   C1B14047  29.635  25.266   8.550
 5271POPC   C2B14048  29.672  25.223   8.250
 5271POPC   C3B14049  29.715  25.297   7.950
 5271POPC   C4B14050  29.687  25.211   7.650
 5272POPC   NC314051  25.283  29.124   9.450
 5272POPC   PO414052  25.285  29.186   9.150
 5272POPC   GL114053  25.267  29.096   8.850
 5272POPC   GL214054  25.358  29.269   8.850
 5272POPC   C1A14055  25.216  29.102   8.550
 5272POPC   D2A14056  25.273  29.098   8.250
 5272POPC   C3A14057  25.220  29.110   7.950
 5272POPC   C4A14058  25.276  29.126   7.650
 5272POPC   C1B14059  25.415  29.308   8.550
 5272POPC   C2B14060  25.457  29.319   8.250
 5272POPC   C3B14061  25.413  29.387   7.950
 5272POPC   C4B14062  25.459  29.359   7.650
 5273POPC   NC314063  36.924   4.304   9.450
 5273POPC   PO414064  36.873   4.276   9.150
 5273POPC   GL114065  36.883   4.350   8.850
 5273POPC   GL214066  36.923   4.227   8.850
 5273POPC   C1A14067  36.940   4.360   8.550
 5273POPC   D2A14068  36.937   4.278   8.250
 5273POPC   C3A14069  36.919   4.308   7.950
 5273POPC   C4A14070  36.872   4.364   7.650
 5273POPC   C1B14071  36.986   4.098   8.550
 5273POPC   C2B14072  36.947   4.120   8.250
 5273POPC   C3B14073  36.956   4.068   7.950
 5273POPC   C4B14074  37.004   4.116   7.650
 5274POPC   NC314075  26.768  39.239   9.450
 5274POPC   PO414076  26.850  39.190   9.150
 5274POPC   GL114077  26.862  39.244   8.850
 5274POPC   GL214078  26.830  39.316   8.850
 5274POPC   C1A14079  26.782  39.205   8.550
 5274POPC   D2A14080  26.819  39.259   8.250
 5274POPC   C3A14081  26.865  39.251   7.950
 5274POPC   C4A14082  26.783  39.255   7.650
 5274POPC   C1B14083  26.862  39.481   8.550
 5274POPC   C2B14084  26.847  39.508   8.250
 5274POPC   C3B14085  26.846  39.476   7.950
 5274POPC   C4B14086  26.774  39.473   7.650
 5275POPC   NC314087   5.850  36.938   9.450
 5275POPC   PO414088   5.845  36.909   9.150
 5275POPC   GL114089   5.847  36.859   8.850
 5275POPC   GL214090   6.002  36.806   8.850
 5275POPC   C1A14091   5.856  36.883   8.550
 5275POPC   D2A14092   5.875  36.875   8.250
 5275POPC   C3A14093   5.821  36.919   7.950
 5275POPC   C4A14094   5.867  36.883   7.650
 5275POPC   C1B14095   6.074  36.842   8.550
 5275POPC   C2B14096   6.134  36.760   8.250
 5275POPC   C3B14097   6.111  36.822   7.950
 5275POPC   C4B14098   6.054  36.811   7.650
 5276POPC   NC314099  42.306  28.407   9.450
 5276POPC   PO414100  42.292  28.357   9.150
 5276POPC   GL114101  42.327  28.353   8.850
 5276POPC   GL214102  42.234  28.307   8.850
 5276POPC   C1A14103  42.347  28.357   8.550
 5276POPC   D2A14104  42.375  28.396   8.250
 5276POPC   C3A14105  42.307  28.357   7.950
 5276POPC   C4A14106  42.329  28.364   7.650
 5276POPC   C1B14107  42.178  28.147   8.550
 5276POPC   C2B14108  42.193  28.162   8.250
 5276POPC   C3B14109  42.217  28.159   7.950
 5276POPC   C4B14110  42.213  28.171   7.650
 5277POPC   NC314111  27.631  34.605   9.450
 5277POPC   PO414112  27.606  34.603   9.150
 5277POPC   GL114113  27.561  34.534   8.850
 5277POPC   GL214114  27.531  34.479   8.850
 5277POPC   C1A14115  27.606  34.608   8.550
 5277POPC   D2A14116  27.549  34.589   8.250
 5277POPC   C3A14117  27.557  34.574   7.950
 5277POPC   C4A14118  27.605  34.529   7.650
 5277POPC   C1B14119  27.525  34.366   8.550
 5277POPC   C2B14120  27.566  34.352   8.250
 5277POPC   C3B14121  27.556  34.293   7.950
 5277POPC   C4B14122  27.544  34.371   7.650
 5278POPC   NC314123  31.502  43.121   9.450
 5278POPC   PO414124  31.491  43.064   9.150
 5278POPC   GL114125  31.495  43.101   8.850
 5278POPC   GL214126  31.428  43.021   8.850
 5278POPC   C1A14127  31.505  43.121   8.550
 5278POPC   D2A14128  31.437  43.135   8.250
 5278POPC   C3A14129  31.514  43.157   7.950
 5278POPC   C4A14130  31.423  43.139   7.650
 5278POPC   C1B14131  31.444  42.823   8.550
 5278POPC   C2B14132  31.366  42.896   8.250
 5278POPC   C3B14133  31.368  42.916   7.950
 5278POPC   C4B14134  31.368  42.886   7.650
 5279POPC   NC314135  19.863  44.688   9.450
 5279POPC   PO414136  19.871  44.635   9.150
 5279POPC   GL114137  19.879  44.702   8.850
 5279POPC   GL214138  19.765  44.580   8.850
 5279POPC   C1A14139  19.834  44.640   8.550
 5279POPC   D2A14140  19.792  44.663   8.250
 5279POPC   C3A14141  19.860  44.671   7.950
 5279POPC   C4A14142  19.789  44.701   7.650
 5279POPC   C1B14143  19.635  44.552   8.550
 5279POPC   C2B14144  19.620  44.557   8.250
 5279POPC   C3B14145  19.600  44.526   7.950
 5279POPC   C4B14146  19.627  44.604   7.650
 5280POPC   NC314147  29.891   2.767   9.450
 5280POPC   PO414148  29.893   2.803   9.150
 5280POPC   GL114149  29.933   2.759   8.850
 5280POPC   GL214150  29.788   2.784   8.850
 5280POPC   C1A14151  29.935   2.775   8.550
 5280POPC   D2A14152  29.963   2.787   8.250
 5280POPC   C3A14153  29.935   2.749   7.950
 5280POPC   C4A14154  29.946   2.767   7.650
 5280POPC   C1B14155  29.691   2.818   8.550
 5280POPC   C2B14156  29.660   2.762   8.250
 5280POPC   C3B14157  29.629   2.748   7.950
 5280POPC   C4B14158  29.717   2.735   7.650
 5281POPC   NC314159  41.526   5.115   9.450
 5281POPC   PO414160  41.534   5.103   9.150
 5281POPC   GL114161  41.598   5.141   8.850
 5281POPC   GL214162  41.466   4.940   8.850
 5281POPC   C1A14163  41.530   5.061   8.550
 5281POPC   D2A14164  41.545   5.137   8.250
 5281POPC   C3A14165  41.600   5.050   7.950
 5281POPC   C4A14166  41.571   5.122   7.650
 5281POPC   C1B14167  41.446   4.827   8.550
 5281POPC   C2B14168  41.435   4.866   8.250
 5281POPC   C3B14169  41.463   4.907   7.950
 5281POPC   C4B14170  41.479   4.846   7.650
 5282POPC   NC314171  11.346  39.979   9.450
 5282POPC   PO414172  11.292  39.983   9.150
 5282POPC   GL114173  11.272  40.012   8.850
 5282POPC   GL214174  11.306  40.140   8.850
 5282POPC   C1A14175  11.319  40.010   8.550
 5282POPC   D2A14176  11.322  39.968   8.250
 5282POPC   C3A14177  11.267  40.016   7.950
 5282POPC   C4A14178  11.276  40.053   7.650
 5282POPC   C1B14179  11.415  40.215   8.550
 5282POPC   C2B14180  11.403  40.190   8.250
 5282POPC   C3B14181  11.377  40.277   7.950
 5282POPC   C4B14182  11.394  40.271   7.650
 5283POPC   NC314183  16.775  30.648   9.450
 5283POPC   PO414184  16.774  30.647   9.150
 5283POPC   GL114185  16.781  30.685   8.850
 5283POPC   GL214186  16.727  30.622   8.850
 5283POPC   C1A14187  16.700  30.704   8.550
 5283POPC   D2A14188  16.726  30.722   8.250
 5283POPC   C3A14189  16.732  30.741   7.950
 5283POPC   C4A14190  16.692  30.710   7.650
 5283POPC   C1B14191  16.688  30.485   8.550
 5283POPC   C2B14192  16.722  30.453   8.250
 5283POPC   C3B14193  16.750  30.448   7.950
 5283POPC   C4B14194  16.698  30.482   7.650
 5284POPC   NC314195  11.260  10.488   9.450
 5284POPC   PO414196  11.285  10.543   9.150
 5284POPC   GL114197  11.321  10.553   8.850
 5284POPC   GL214198  11.335  10.428   8.850
 5284POPC   C1A14199  11.344  10.478   8.550
 5284POPC   D2A14200  11.279  10.498   8.250
 5284POPC   C3A14201  11.270  10.515   7.950
 5284POPC   C4A14202  11.308  10.569   7.650
 5284POPC   C1B14203  11.373  10.280   8.550
 5284POPC   C2B14204  11.399  10.350   8.250
 5284POPC   C3B14205  11.456  10.285   7.950
 5284POPC   C4B14206  11.371  10.345   7.650
 5285POPC   NC314207  15.139  20.580   9.450
 5285POPC   PO414208  15.149  20.591   9.150
 5285POPC   GL114209  15.205  20.629   8.850
 5285POPC   GL214210  15.260  20.661   8.850
 5285POPC   C1A14211  15.228  20.602   8.550
 5285POPC   D2A14212  15.200  20.573   8.250
 5285POPC   C3A14213  15.150  20.590   7.950
 5285POPC   C4A14214  15.164  20.620   7.650
 5285POPC   C1B14215  15.290  20.817   8.550
 5285POPC   C2B14216  15.336  20.806   8.250
 5285POPC   C3B14217  15.329  20.790   7.950
 5285POPC   C4B14218  15.337  20.797   7.650
 5286POPC   NC314219  43.912  40.050   9.450
 5286POPC   PO414220  43.927  40.041   9.150
 5286POPC   GL114221  43.922  40.007   8.850
 5286POPC   GL214222  43.931  39.939   8.850
 5286POPC   C1A14223  43.905  40.017   8.550
 5286POPC   D2A14224  43.848  40.009   8.250
 5286POPC   C3A14225  43.923  39.983   7.950
 5286POPC   C4A14226  43.846  40.024   7.650
 5286POPC   C1B14227  44.008  39.787   8.550
 5286POPC   C2B14228  43.945  39.792   8.250
 5286POPC   C3B14229  43.950  39.763   7.950
 5286POPC   C4B14230  44.014  39.756   7.650
 5287POPC   NC314231  33.805  29.943   9.450
 5287POPC   PO414232  33.778  29.872   9.150
 5287POPC   GL114233  33.841  29.910   8.850
 5287POPC   GL214234  33.760  29.844   8.850
 5287POPC   C1A14235  33.754  29.882   8.550
 5287POPC   D2A14236  33.828  29.969   8.250
 5287POPC   C3A14237  33.770  29.918   7.950
 5287POPC   C4A14238  33.806  29.887   7.650
 5287POPC   C1B14239  33.678  29.648   8.550
 5287POPC   C2B14240  33.656  29.693   8.250
 5287POPC   C3B14241  33.672  29.693   7.950
 5287POPC   C4B14242  33.674  29.658   7.650
 5288POPC   NC314243  40.794  36.911   9.450
 5288POPC   PO414244  40.791  36.925   9.150
 5288POPC   GL114245  40.803  36.877   8.850
 5288POPC   GL214246  40.899  36.981   8.850
 5288POPC   C1A14247  40.811  36.854   8.550
 5288POPC   D2A14248  40.827  36.886   8.250
 5288POPC   C3A14249  40.745  36.936   7.950
 5288POPC   C4A14250  40.786  36.902   7.650
 5288POPC   C1B14251  40.966  37.048   8.550
 5288POPC   C2B14252  40.904  37.110   8.250
 5288POPC   C3B14253  40.914  37.133   7.950
 5288POPC   C4B14254  40.932  37.117   7.650
 5289POPC   NC314255  15.222  34.542   9.450
 5289POPC   PO414256  15.211  34.544   9.150
 5289POPC   GL114257  15.151  34.584   8.850
 5289POPC   GL214258  15.183  34.657   8.850
 5289POPC   C1A14259  15.177  34.534   8.550
 5289POPC   D2A14260  15.151  34.600   8.250
 5289POPC   C3A14261  15.154  34.608   7.950
 5289POPC   C4A14262  15.206  34.613   7.650
 5289POPC   C1B14263  15.120  34.773   8.550
 5289POPC   C2B14264  15.149  34.825   8.250
 5289POPC   C3B14265  15.187  34.873   7.950
 5289POPC   C4B14266  15.123  34.785   7.650
 5290POPC   NC314267  31.499  35.321   9.450
 5290POPC   PO414268  31.463  35.318   9.150
 5290POPC   GL114269  31.515  35.335   8.850
 5290POPC   GL214270  31.607  35.372   8.850
 5290POPC   C1A14271  31.493  35.376   8.550
 5290POPC   D2A14272  31.433  35.325   8.250
 5290POPC   C3A14273  31.439  35.378   7.950
 5290POPC   C4A14274  31.494  35.389   7.650
 5290POPC   C1B14275  31.726  35.304   8.550
 5290POPC   C2B14276  31.674  35.361   8.250
 5290POPC   C3B14277  31.711  35.329   7.950
 5290POPC   C4B14278  31.672  35.366   7.650
 5291POPC   NC314279  17.541  29.167   9.450
 5291POPC   PO414280  17.501  29.106   9.150
 5291POPC   GL114281  17.468  29.188   8.850
 5291POPC   GL214282  17.412  29.148   8.850
 5291POPC   C1A14283  17.489  29.149   8.550
 5291POPC   D2A14284  17.468  29.122   8.250
 5291POPC   C3A14285  17.539  29.186   7.950
 5291POPC   C4A14286  17.534  29.112   7.650
 5291POPC   C1B14287  17.239  29.101   8.550
 5291POPC   C2B14288  17.236  29.063   8.250
 5291POPC   C3B14289  17.221  29.113   7.950
 5291POPC   C4B14290  17.264  29.032   7.650
 5292POPC   NC314291  27.610   6.644   9.450
 5292POPC   PO414292  27.564   6.622   9.150
 5292POPC   GL114293  27.583   6.613   8.850
 5292POPC   GL214294  27.746   6.735   8.850
 5292POPC   C1A14295  27.552   6.623   8.550
 5292POPC   D2A14296  27.604   6.685   8.250
 5292POPC   C3A14297  27.622   6.684   7.950
 5292POPC   C4A14298  27.609   6.664   7.650
 5292POPC   C1B14299  27.803   6.728   8.550
 5292POPC   C2B14300  27.818   6.728   8.250
 5292POPC   C3B14301  27.830   6.742   7.950
 5292POPC   C4B14302  27.816   6.784   7.650
 5293POPC   NC314303   8.994  27.634   9.450
 5293POPC   PO414304   9.013  27.588   9.150
 5293POPC   GL114305   8.938  27.583   8.850
 5293POPC   GL214306   9.100  27.568   8.850
 5293POPC   C1A14307   8.996  27.631   8.550
 5293POPC   D2A14308   8.968  27.561   8.250
 5293POPC   C3A14309   8.948  27.585   7.950
 5293POPC   C4A14310   8.989  27.596   7.650
 5293POPC   C1B14311   9.253  27.565   8.550
 5293POPC   C2B14312   9.206  27.499   8.250
 5293POPC   C3B14313   9.261  27.477   7.950
 5293POPC   C4B14314   9.184  27.558   7.650
 5294POPC   NC314315  40.796  15.184   9.450
 5294POPC   PO414316  40.798  15.164   9.150
 5294POPC   GL114317  40.822  15.209   8.850
 5294POPC   GL214318  40.713  15.269   8.850
 5294POPC   C1A14319  40.799  15.221   8.550
 5294POPC   D2A14320  40.808  15.190   8.250
 5294POPC   C3A14321  40.820  15.156   7.950
 5294POPC   C4A14322  40.794  15.163   7.650
 5294POPC   C1B14323  40.551  15.311   8.550
 5294POPC   C2B14324  40.541  15.332   8.250
 5294POPC   C3B14325  40.562  15.276   7.950
 5294POPC   C4B14326  40.538  15.346   7.650
 5295POPC   NC314327  35.303  44.658   9.450
 5295POPC   PO414328  35.392  44.615   9.150
 5295POPC   GL114329  35.374  44.654   8.850
 5295POPC   GL214330  35.276  44.791   8.850
 5295POPC   C1A14331  35.327  44.638   8.550
 5295POPC   D2A14332  35.351  44.623   8.250
 5295POPC   C3A14333  35.357  44.652   7.950
 5295POPC   C4A14334  35.364  44.619   7.650
 5295POPC   C1B14335  35.180  44.851   8.550
 5295POPC   C2B14336  35.185  44.853   8.250
 5295POPC   C3B14337  35.249  44.919   7.950
 5295POPC   C4B14338  35.267  44.895   7.650
 5296POPC   NC314339  40.037  24.497   9.450
 5296POPC   PO414340  39.965  24.499   9.150
 5296POPC   GL114341  39.978  24.440   8.850
 5296POPC   GL214342  39.944  24.430   8.850
 5296POPC   C1A14343  39.978  24.458   8.550
 5296POPC   D2A14344  40.012  24.538   8.250
 5296POPC   C3A14345  39.994  24.442   7.950
 5296POPC   C4A14346  40.027  24.460   7.650
 5296POPC   C1B14347  39.840  24.314   8.550
 5296POPC   C2B14348  39.871  24.277   8.250
 5296POPC   C3B14349  39.870  24.280   7.950
 5296POPC   C4B14350  39.814  24.288   7.650
 5297POPC   NC314351   5.135  18.258   9.450
 5297POPC   PO414352   5.071  18.323   9.150
 5297POPC   GL114353   5.060  18.333   8.850
 5297POPC   GL214354   5.224  18.275   8.850
 5297POPC   C1A14355   5.049  18.290   8.550
 5297POPC   D2A14356   5.047  18.325   8.250
 5297POPC   C3A14357   5.062  18.304   7.950
 5297POPC   C4A14358   5.137  18.257   7.650
 5297POPC   C1B14359   5.391  18.258   8.550
 5297POPC   C2B14360   5.344  18.258   8.250
 5297POPC   C3B14361   5.316  18.291   7.950
 5297POPC   C4B14362   5.320  18.258   7.650
 5298POPC   NC314363  39.990  25.313   9.450
 5298POPC   PO414364  40.009  25.261   9.150
 5298POPC   GL114365  39.965  25.304   8.850
 5298POPC   GL214366  39.981  25.411   8.850
 5298POPC   C1A14367  39.987  25.241   8.550
 5298POPC   D2A14368  40.015  25.315   8.250
 5298POPC   C3A14369  40.050  25.289   7.950
 5298POPC   C4A14370  40.013  25.222   7.650
 5298POPC   C1B14371  40.037  25.518   8.550
 5298POPC   C2B14372  40.077  25.539   8.250
 5298POPC   C3B14373  40.022  25.462   7.950
 5298POPC   C4B14374  40.007  25.530   7.650
 5299POPC   NC314375  33.828  42.362   9.450
 5299POPC   PO414376  33.823  42.331   9.150
 5299POPC   GL114377  33.813  42.335   8.850
 5299POPC   GL214378  33.833  42.487   8.850
 5299POPC   C1A14379  33.793  42.368   8.550
 5299POPC   D2A14380  33.800  42.372   8.250
 5299POPC   C3A14381  33.786  42.319   7.950
 5299POPC   C4A14382  33.821  42.311   7.650
 5299POPC   C1B14383  33.930  42.597   8.550
 5299POPC   C2B14384  33.907  42.508   8.250
 5299POPC   C3B14385  33.884  42.572   7.950
 5299POPC   C4B14386  33.912  42.538   7.650
 5300POPC   NC314387   6.677  15.923   9.450
 5300POPC   PO414388   6.616  15.965   9.150
 5300POPC   GL114389   6.681  15.935   8.850
 5300POPC   GL214390   6.777  16.019   8.850
 5300POPC   C1A14391   6.630  15.950   8.550
 5300POPC   D2A14392   6.637  15.988   8.250
 5300POPC   C3A14393   6.662  15.976   7.950
 5300POPC   C4A14394   6.602  15.915   7.650
 5300POPC   C1B14395   6.831  16.104   8.550
 5300POPC   C2B14396   6.782  16.093   8.250
 5300POPC   C3B14397   6.846  16.100   7.950
 5300POPC   C4B14398   6.848  16.178   7.650
 5301POPC   NC314399  15.955  19.826   9.450
 5301POPC   PO414400  15.955  19.799   9.150
 5301POPC   GL114401  15.963  19.808   8.850
 5301POPC   GL214402  15.979  19.980   8.850
 5301POPC   C1A14403  15.963  19.859   8.550
 5301POPC   D2A14404  15.982  19.800   8.250
 5301POPC   C3A14405  15.970  19.833   7.950
 5301POPC   C4A14406  15.916  19.871   7.650
 5301POPC   C1B14407  15.963  20.043   8.550
 5301POPC   C2B14408  15.958  20.103   8.250
 5301POPC   C3B14409  15.917  20.049   7.950
 5301POPC   C4B14410  15.887  20.129   7.650
 5302POPC   NC314411   1.239  25.251   9.450
 5302POPC   PO414412   1.213  25.273   9.150
 5302POPC   GL114413   1.222  25.251   8.850
 5302POPC   GL214414   1.136  25.316   8.850
 5302POPC   C1A14415   1.263  25.241   8.550
 5302POPC   D2A14416   1.260  25.245   8.250
 5302POPC   C3A14417   1.249  25.271   7.950
 5302POPC   C4A14418   1.175  25.244   7.650
 5302POPC   C1B14419   0.976  25.288   8.550
 5302POPC   C2B14420   0.958  25.330   8.250
 5302POPC   C3B14421   0.932  25.297   7.950
 5302POPC   C4B14422   1.001  25.318   7.650
 5303POPC   NC314423  43.159  21.382   9.450
 5303POPC   PO414424  43.147  21.396   9.150
 5303POPC   GL114425  43.121  21.383   8.850
 5303POPC   GL214426  43.149  21.457   8.850
 5303POPC   C1A14427  43.099  21.396   8.550
 5303POPC   D2A14428  43.151  21.375   8.250
 5303POPC   C3A14429  43.070  21.364   7.950
 5303POPC   C4A14430  43.086  21.396   7.650
 5303POPC   C1B14431  43.198  21.581   8.550
 5303POPC   C2B14432  43.224  21.674   8.250
 5303POPC   C3B14433  43.191  21.637   7.950
 5303POPC   C4B14434  43.178  21.638   7.650
 5304POPC   NC314435  18.325  32.262   9.450
 5304POPC   PO414436  18.278  32.220   9.150
 5304POPC   GL114437  18.319  32.232   8.850
 5304POPC   GL214438  18.288  32.162   8.850
 5304POPC   C1A14439  18.242  32.235   8.550
 5304POPC   D2A14440  18.328  32.236   8.250
 5304POPC   C3A14441  18.266  32.272   7.950
 5304POPC   C4A14442  18.327  32.228   7.650
 5304POPC   C1B14443  18.222  31.982   8.550
 5304POPC   C2B14444  18.217  31.971   8.250
 5304POPC   C3B14445  18.285  32.005   7.950
 5304POPC   C4B14446  18.284  31.963   7.650
 5305POPC   NC314447   8.209  43.883   9.450
 5305POPC   PO414448   8.210  43.887   9.150
 5305POPC   GL114449   8.179  43.843   8.850
 5305POPC   GL214450   8.267  44.011   8.850
 5305POPC   C1A14451   8.205  43.844   8.550
 5305POPC   D2A14452   8.195  43.889   8.250
 5305POPC   C3A14453   8.189  43.860   7.950
 5305POPC   C4A14454   8.190  43.932   7.650
 5305POPC   C1B14455   8.335  44.116   8.550
 5305POPC   C2B14456   8.403  44.024   8.250
 5305POPC   C3B14457   8.404  44.044   7.950
 5305POPC   C4B14458   8.358  44.099   7.650
 5306POPC   NC314459  36.164  40.793   9.450
 5306POPC   PO414460  36.109  40.808   9.150
 5306POPC   GL114461  36.123  40.810   8.850
 5306POPC   GL214462  36.022  40.853   8.850
 5306POPC   C1A14463  36.174  40.805   8.550
 5306POPC   D2A14464  36.137  40.747   8.250
 5306POPC   C3A14465  36.090  40.747   7.950
 5306POPC   C4A14466  36.134  40.817   7.650
 5306POPC   C1B14467  35.947  40.933   8.550
 5306POPC   C2B14468  35.996  40.927   8.250
 5306POPC   C3B14469  35.941  40.943   7.950
 5306POPC   C4B14470  35.967  40.957   7.650
 5307POPC   NC314471   5.061  22.986   9.450
 5307POPC   PO414472   5.124  22.890   9.150
 5307POPC   GL114473   5.074  22.967   8.850
 5307POPC   GL214474   5.120  22.825   8.850
 5307POPC   C1A14475   5.108  22.969   8.550
 5307POPC   D2A14476   5.095  22.951   8.250
 5307POPC   C3A14477   5.098  22.916   7.950
 5307POPC   C4A14478   5.054  22.974   7.650
 5307POPC   C1B14479   5.178  22.705   8.550
 5307POPC   C2B14480   5.253  22.707   8.250
 5307POPC   C3B14481   5.177  22.724   7.950
 5307POPC   C4B14482   5.231  22.747   7.650
 5308POPC   NC314483  25.223  36.126   9.450
 5308POPC   PO414484  25.216  36.092   9.150
 5308POPC   GL114485  25.255  36.165   8.850
 5308POPC   GL214486  25.139  36.124   8.850
 5308POPC   C1A14487  25.302  36.121   8.550
 5308POPC   D2A14488  25.221  36.114   8.250
 5308POPC   C3A14489  25.231  36.163   7.950
 5308POPC   C4A14490  25.251  36.165   7.650
 5308POPC   C1B14491  24.985  36.101   8.550
 5308POPC   C2B14492  25.059  36.081   8.250
 5308POPC   C3B14493  24.996  36.054   7.950
 5308POPC   C4B14494  25.041  36.126   7.650
 5309POPC   NC314495  29.122  40.762   9.450
 5309POPC   PO414496  29.194  40.804   9.150
 5309POPC   GL114497  29.175  40.802   8.850
 5309POPC   GL214498  29.097  40.844   8.850
 5309POPC   C1A14499  29.151  40.763   8.550
 5309POPC   D2A14500  29.117  40.745   8.250
 5309POPC   C3A14501  29.104  40.769   7.950
 5309POPC   C4A14502  29.157  40.748   7.650
 5309POPC   C1B14503  29.042  40.973   8.550
 5309POPC   C2B14504  28.987  41.024   8.250
 5309POPC   C3B14505  29.051  41.000   7.950
 5309POPC   C4B14506  29.020  40.976   7.650
 5310POPC   NC314507  37.685  39.225   9.450
 5310POPC   PO414508  37.635  39.219   9.150
 5310POPC   GL114509  37.670  39.202   8.850
 5310POPC   GL214510  37.777  39.342   8.850
 5310POPC   C1A14511  37.694  39.198   8.550
 5310POPC   D2A14512  37.689  39.196   8.250
 5310POPC   C3A14513  37.713  39.253   7.950
 5310POPC   C4A14514  37.677  39.255   7.650
 5310POPC   C1B14515  37.863  39.381   8.550
 5310POPC   C2B14516  37.827  39.436   8.250
 5310POPC   C3B14517  37.840  39.423   7.950
 5310POPC   C4B14518  37.854  39.411   7.650
 5311POPC   NC314519  44.681  17.457   9.450
 5311POPC   PO414520  44.617  17.486   9.150
 5311POPC   GL114521  44.677  17.556   8.850
 5311POPC   GL214522  44.665  17.599   8.850
 5311POPC   C1A14523  44.646  17.511   8.550
 5311POPC   D2A14524  44.668  17.476   8.250
 5311POPC   C3A14525  44.665  17.545   7.950
 5311POPC   C4A14526  44.622  17.471   7.650
 5311POPC   C1B14527  44.682  17.741   8.550
 5311POPC   C2B14528  44.703  17.745   8.250
 5311POPC   C3B14529  44.700  17.721   7.950
 5311POPC   C4B14530  44.655  17.766   7.650
 5312POPC   NC314531  34.608   1.247   9.450
 5312POPC   PO414532  34.545   1.205   9.150
 5312POPC   GL114533  34.567   1.166   8.850
 5312POPC   GL214534  34.643   1.282   8.850
 5312POPC   C1A14535  34.540   1.208   8.550
 5312POPC   D2A14536  34.622   1.238   8.250
 5312POPC   C3A14537  34.567   1.166   7.950
 5312POPC   C4A14538  34.536   1.253   7.650
 5312POPC   C1B14539  34.665   1.426   8.550
 5312POPC   C2B14540  34.693   1.421   8.250
 5312POPC   C3B14541  34.747   1.447   7.950
 5312POPC   C4B14542  34.714   1.405   7.650
 5313POPC   NC314543  32.994   1.956   9.450
 5313POPC   PO414544  33.069   1.984   9.150
 5313POPC   GL114545  33.036   2.011   8.850
 5313POPC   GL214546  33.010   2.126   8.850
 5313POPC   C1A14547  33.057   1.957   8.550
 5313POPC   D2A14548  33.061   1.985   8.250
 5313POPC   C3A14549  33.034   1.997   7.950
 5313POPC   C4A14550  32.991   2.006   7.650
 5313POPC   C1B14551  33.014   2.278   8.550
 5313POPC   C2B14552  33.035   2.223   8.250
 5313POPC   C3B14553  32.985   2.245   7.950
 5313POPC   C4B14554  32.993   2.234   7.650
 5314POPC   NC314555  43.879  14.397   9.450
 5314POPC   PO414556  43.907  14.369   9.150
 5314POPC   GL114557  43.923  14.364   8.850
 5314POPC   GL214558  43.784  14.482   8.850
 5314POPC   C1A14559  43.862  14.428   8.550
 5314POPC   D2A14560  43.848  14.374   8.250
 5314POPC   C3A14561  43.861  14.437   7.950
 5314POPC   C4A14562  43.882  14.359   7.650
 5314POPC   C1B14563  43.738  14.637   8.550
 5314POPC   C2B14564  43.778  14.668   8.250
 5314POPC   C3B14565  43.758  14.597   7.950
 5314POPC   C4B14566  43.753  14.659   7.650
 5315POPC   NC314567  30.666  19.028   9.450
 5315POPC   PO414568  30.727  19.053   9.150
 5315POPC   GL114569  30.674  19.032   8.850
 5315POPC   GL214570  30.705  19.133   8.850
 5315POPC   C1A14571  30.702  19.102   8.550
 5315POPC   D2A14572  30.743  19.062   8.250
 5315POPC   C3A14573  30.720  19.072   7.950
 5315POPC   C4A14574  30.690  19.017   7.650
 5315POPC   C1B14575  30.663  19.313   8.550
 5315POPC   C2B14576  30.613  19.342   8.250
 5315POPC   C3B14577  30.610  19.328   7.950
 5315POPC   C4B14578  30.608  19.291   7.650
 5316POPC   NC314579  29.115  22.200   9.450
 5316POPC   PO414580  29.102  22.131   9.150
 5316POPC   GL114581  29.115  22.112   8.850
 5316POPC   GL214582  29.067  22.071   8.850
 5316POPC   C1A14583  29.178  22.177   8.550
 5316POPC   D2A14584  29.145  22.197   8.250
 5316POPC   C3A14585  29.155  22.208   7.950
 5316POPC   C4A14586  29.145  22.206   7.650
 5316POPC   C1B14587  28.963  21.993   8.550
 5316POPC   C2B14588  28.922  21.987   8.250
 5316POPC   C3B14589  28.927  21.973   7.950
 5316POPC   C4B14590  28.978  22.029   7.650
 5317POPC   NC314591  44.627   5.112   9.450
 5317POPC   PO414592  44.675   5.090   9.150
 5317POPC   GL114593  44.675   5.065   8.850
 5317POPC   GL214594  44.564   5.088   8.850
 5317POPC   C1A14595  44.644   5.095   8.550
 5317POPC   D2A14596  44.664   5.089   8.250
 5317POPC   C3A14597  44.634   5.047   7.950
 5317POPC   C4A14598  44.666   5.062   7.650
 5317POPC   C1B14599  44.391   4.989   8.550
 5317POPC   C2B14600  44.431   5.029   8.250
 5317POPC   C3B14601  44.463   5.034   7.950
 5317POPC   C4B14602  44.447   5.009   7.650
 5318POPC   NC314603  44.636   1.194   9.450
 5318POPC   PO414604  44.621   1.165   9.150
 5318POPC   GL114605  44.671   1.198   8.850
 5318POPC   GL214606  44.717   1.289   8.850
 5318POPC   C1A14607  44.690   1.191   8.550
 5318POPC   D2A14608  44.695   1.230   8.250
 5318POPC   C3A14609  44.680   1.164   7.950
 5318POPC   C4A14610  44.644   1.171   7.650
 5318POPC   C1B14611  44.782   1.437   8.550
 5318POPC   C2B14612  44.777   1.426   8.250
 5318POPC   C3B14613  44.758   1.484   7.950
 5318POPC   C4B14614  44.747   1.449   7.650
 5319POPC   NC314615  36.152  23.666   9.450
 5319POPC   PO414616  36.169  23.681   9.150
 5319POPC   GL114617  36.173  23.708   8.850
 5319POPC   GL214618  36.217  23.697   8.850
 5319POPC   C1A14619  36.113  23.720   8.550
 5319POPC   D2A14620  36.084  23.716   8.250
 5319POPC   C3A14621  36.098  23.734   7.950
 5319POPC   C4A14622  36.149  23.685   7.650
 5319POPC   C1B14623  36.381  23.680   8.550
 5319POPC   C2B14624  36.403  23.734   8.250
 5319POPC   C3B14625  36.337  23.712   7.950
 5319POPC   C4B14626  36.422  23.686   7.650
 5320POPC   NC314627  22.178   3.531   9.450
 5320POPC   PO414628  22.122   3.551   9.150
 5320POPC   GL114629  22.169   3.539   8.850
 5320POPC   GL214630  22.063   3.466   8.850
 5320POPC   C1A14631  22.143   3.528   8.550
 5320POPC   D2A14632  22.155   3.569   8.250
 5320POPC   C3A14633  22.168   3.504   7.950
 5320POPC   C4A14634  22.182   3.522   7.650
 5320POPC   C1B14635  22.023   3.323   8.550
 5320POPC   C2B14636  22.013   3.368   8.250
 5320POPC   C3B14637  22.054   3.323   7.950
 5320POPC   C4B14638  22.009   3.320   7.650
 5321POPC   NC314639  43.923  43.927   9.450
 5321POPC   PO414640  43.882  43.878   9.150
 5321POPC   GL114641  43.919  43.930   8.850
 5321POPC   GL214642  43.794  43.968   8.850
 5321POPC   C1A14643  43.894  43.913   8.550
 5321POPC   D2A14644  43.863  43.886   8.250
 5321POPC   C3A14645  43.890  43.914   7.950
 5321POPC   C4A14646  43.918  43.873   7.650
 5321POPC   C1B14647  43.674  44.000   8.550
 5321POPC   C2B14648  43.659  43.994   8.250
 5321POPC   C3B14649  43.663  44.006   7.950
 5321POPC   C4B14650  43.692  44.019   7.650
 5322POPC   NC314651  25.230  33.028   9.450
 5322POPC   PO414652  25.275  33.059   9.150
 5322POPC   GL114653  25.245  33.003   8.850
 5322POPC   GL214654  25.278  32.939   8.850
 5322POPC   C1A14655  25.240  33.032   8.550
 5322POPC   D2A14656  25.271  32.995   8.250
 5322POPC   C3A14657  25.292  33.005   7.950
 5322POPC   C4A14658  25.279  33.035   7.650
 5322POPC   C1B14659  25.261  32.821   8.550
 5322POPC   C2B14660  25.235  32.806   8.250
 5322POPC   C3B14661  25.237  32.818   7.950
 5322POPC   C4B14662  25.261  32.819   7.650
 5323POPC   NC314663  12.803  12.040   9.450
 5323POPC   PO414664  12.884  12.116   9.150
 5323POPC   GL114665  12.886  12.046   8.850
 5323POPC   GL214666  12.877  11.989   8.850
 5323POPC   C1A14667  12.812  12.062   8.550
 5323POPC   D2A14668  12.813  12.115   8.250
 5323POPC   C3A14669  12.901  12.096   7.950
 5323POPC   C4A14670  12.802  12.030   7.650
 5323POPC   C1B14671  12.859  11.816   8.550
 5323POPC   C2B14672  12.794  11.809   8.250
 5323POPC   C3B14673  12.818  11.832   7.950
 5323POPC   C4B14674  12.871  11.802   7.650
 5324POPC   NC314675  20.593   6.689   9.450
 5324POPC   PO414676  20.657   6.675   9.150
 5324POPC   GL114677  20.632   6.602   8.850
 5324POPC   GL214678  20.582   6.797   8.850
 5324POPC   C1A14679  20.573   6.691   8.550
 5324POPC   D2A14680  20.573   6.631   8.250
 5324POPC   C3A14681  20.656   6.638   7.950
 5324POPC   C4A14682  20.618   6.663   7.650
 5324POPC   C1B14683  20.608   6.931   8.550
 5324POPC   C2B14684  20.525   6.856   8.250
 5324POPC   C3B14685  20.546   6.878   7.950
 5324POPC   C4B14686  20.529   6.902   7.650
 5325POPC   NC314687  39.988  29.937   9.450
 5325POPC   PO414688  40.040  29.945   9.150
 5325POPC   GL114689  40.034  29.886   8.850
 5325POPC   GL214690  39.962  30.071   8.850
 5325POPC   C1A14691  40.047  29.888   8.550
 5325POPC   D2A14692  39.970  29.957   8.250
 5325POPC   C3A14693  39.983  29.946   7.950
 5325POPC   C4A14694  40.013  29.926   7.650
 5325POPC   C1B14695  39.942  30.193   8.550
 5325POPC   C2B14696  39.983  30.187   8.250
 5325POPC   C3B14697  39.916  30.147   7.950
 5325POPC   C4B14698  39.948  30.121   7.650
 5326POPC   NC314699  35.379  38.500   9.450
 5326POPC   PO414700  35.391  38.438   9.150
 5326POPC   GL114701  35.345  38.476   8.850
 5326POPC   GL214702  35.479  38.498   8.850
 5326POPC   C1A14703  35.380  38.477   8.550
 5326POPC   D2A14704  35.304  38.421   8.250
 5326POPC   C3A14705  35.337  38.470   7.950
 5326POPC   C4A14706  35.322  38.457   7.650
 5326POPC   C1B14707  35.634  38.548   8.550
 5326POPC   C2B14708  35.597  38.552   8.250
 5326POPC   C3B14709  35.587  38.524   7.950
 5326POPC   C4B14710  35.604  38.516   7.650
 5327POPC   NC314711  20.644  34.578   9.450
 5327POPC   PO414712  20.575  34.621   9.150
 5327POPC   GL114713  20.599  34.614   8.850
 5327POPC   GL214714  20.571  34.443   8.850
 5327POPC   C1A14715  20.629  34.539   8.550
 5327POPC   D2A14716  20.609  34.578   8.250
 5327POPC   C3A14717  20.622  34.543   7.950
 5327POPC   C4A14718  20.618  34.540   7.650
 5327POPC   C1B14719  20.566  34.354   8.550
 5327POPC   C2B14720  20.555  34.330   8.250
 5327POPC   C3B14721  20.576  34.324   7.950
 5327POPC   C4B14722  20.534  34.333   7.650
 5328POPC   NC314723  31.521   7.375   9.450
 5328POPC   PO414724  31.455   7.424   9.150
 5328POPC   GL114725  31.428   7.449   8.850
 5328POPC   GL214726  31.641   7.456   8.850
 5328POPC   C1A14727  31.457   7.415   8.550
 5328POPC   D2A14728  31.491   7.467   8.250
 5328POPC   C3A14729  31.466   7.414   7.950
 5328POPC   C4A14730  31.423   7.466   7.650
 5328POPC   C1B14731  31.764   7.514   8.550
 5328POPC   C2B14732  31.679   7.455   8.250
 5328POPC   C3B14733  31.740   7.445   7.950
 5328POPC   C4B14734  31.707   7.502   7.650
 5329POPC   NC314735  40.044  19.820   9.450
 5329POPC   PO414736  39.998  19.788   9.150
 5329POPC   GL114737  39.970  19.883   8.850
 5329POPC   GL214738  39.908  19.761   8.850
 5329POPC   C1A14739  40.014  19.859   8.550
 5329POPC   D2A14740  40.013  19.804   8.250
 5329POPC   C3A14741  39.989  19.813   7.950
 5329POPC   C4A14742  39.983  19.818   7.650
 5329POPC   C1B14743  39.887  19.630   8.550
 5329POPC   C2B14744  39.913  19.619   8.250
 5329POPC   C3B14745  39.910  19.625   7.950
 5329POPC   C4B14746  39.841  19.645   7.650
 5330POPC   NC314747   8.171  22.119   9.450
 5330POPC   PO414748   8.220  22.193   9.150
 5330POPC   GL114749   8.151  22.171   8.850
 5330POPC   GL214750   8.103  22.086   8.850
 5330POPC   C1A14751   8.212  22.147   8.550
 5330POPC   D2A14752   8.154  22.193   8.250
 5330POPC   C3A14753   8.195  22.169   7.950
 5330POPC   C4A14754   8.206  22.156   7.650
 5330POPC   C1B14755   7.974  21.972   8.550
 5330POPC   C2B14756   8.067  21.983   8.250
 5330POPC   C3B14757   7.997  21.939   7.950
 5330POPC   C4B14758   7.988  21.975   7.650
 5331POPC   NC314759  18.282  35.339   9.450
 5331POPC   PO414760  18.314  35.318   9.150
 5331POPC   GL114761  18.329  35.391   8.850
 5331POPC   GL214762  18.246  35.197   8.850
 5331POPC   C1A14763  18.285  35.362   8.550
 5331POPC   D2A14764  18.282  35.348   8.250
 5331POPC   C3A14765  18.327  35.362   7.950
 5331POPC   C4A14766  18.321  35.361   7.650
 5331POPC   C1B14767  18.114  35.101   8.550
 5331POPC   C2B14768  18.204  35.107   8.250
 5331POPC   C3B14769  18.119  35.117   7.950
 5331POPC   C4B14770  18.170  35.128   7.650
 5332POPC   NC314771  37.682  15.995   9.450
 5332POPC   PO414772  37.639  15.921   9.150
 5332POPC   GL114773  37.694  15.959   8.850
 5332POPC   GL214774  37.583  15.918   8.850
 5332POPC   C1A14775  37.630  15.964   8.550
 5332POPC   D2A14776  37.647  15.955   8.250
 5332POPC   C3A14777  37.670  16.000   7.950
 5332POPC   C4A14778  37.720  16.001   7.650
 5332POPC   C1B14779  37.380  15.913   8.550
 5332POPC   C2B14780  37.467  15.954   8.250
 5332POPC   C3B14781  37.478  15.972   7.950
 5332POPC   C4B14782  37.468  15.993   7.650
 5333POPC   NC314783  19.801  22.933   9.450
 5333POPC   PO414784  19.846  22.978   9.150
 5333POPC   GL114785  19.868  22.895   8.850
 5333POPC   GL214786  19.790  22.853   8.850
 5333POPC   C1A14787  19.795  22.928   8.550
 5333POPC   D2A14788  19.822  22.933   8.250
 5333POPC   C3A14789  19.824  22.901   7.950
 5333POPC   C4A14790  19.802  22.939   7.650
 5333POPC   C1B14791  19.766  22.677   8.550
 5333POPC   C2B14792  19.750  22.659   8.250
 5333POPC   C3B14793  19.819  22.656   7.950
 5333POPC   C4B14794  19.766  22.734   7.650
 5334POPC   NC314795  11.256   2.761   9.450
 5334POPC   PO414796  11.345   2.717   9.150
 5334POPC   GL114797  11.258   2.805   8.850
 5334POPC   GL214798  11.398   2.726   8.850
 5334POPC   C1A14799  11.255   2.730   8.550
 5334POPC   D2A14800  11.327   2.720   8.250
 5334POPC   C3A14801  11.294   2.791   7.950
 5334POPC   C4A14802  11.280   2.725   7.650
 5334POPC   C1B14803  11.547   2.696   8.550
 5334POPC   C2B14804  11.552   2.714   8.250
 5334POPC   C3B14805  11.523   2.682   7.950
 5334POPC   C4B14806  11.582   2.715   7.650
 5335POPC   NC314807  34.531  31.447   9.450
 5335POPC   PO414808  34.591  31.483   9.150
 5335POPC   GL114809  34.620  31.494   8.850
 5335POPC   GL214810  34.563  31.640   8.850
 5335POPC   C1A14811  34.578  31.457   8.550
 5335POPC   D2A14812  34.621  31.483   8.250
 5335POPC   C3A14813  34.596  31.455   7.950
 5335POPC   C4A14814  34.555  31.511   7.650
 5335POPC   C1B14815  34.646  31.710   8.550
 5335POPC   C2B14816  34.617  31.676   8.250
 5335POPC   C3B14817  34.667  31.716   7.950
 5335POPC   C4B14818  34.629  31.681   7.650
 5336POPC   NC314819  38.472   0.451   9.450
 5336POPC   PO414820  38.406   0.388   9.150
 5336POPC   GL114821  38.459   0.423   8.850
 5336POPC   GL214822  38.282   0.448   8.850
 5336POPC   C1A14823  38.502   0.390   8.550
 5336POPC   D2A14824  38.471   0.397   8.250
 5336POPC   C3A14825  38.424   0.451   7.950
 5336POPC   C4A14826  38.413   0.462   7.650
 5336POPC   C1B14827  38.250   0.466   8.550
 5336POPC   C2B14828  38.214   0.421   8.250
 5336POPC   C3B14829  38.205   0.488   7.950
 5336POPC   C4B14830  38.182   0.441   7.650
 5337POPC   NC314831  10.530   0.456   9.450
 5337POPC   PO414832  10.572   0.467   9.150
 5337POPC   GL114833  10.542   0.462   8.850
 5337POPC   GL214834  10.471   0.610   8.850
 5337POPC   C1A14835  10.547   0.436   8.550
 5337POPC   D2A14836  10.550   0.450   8.250
 5337POPC   C3A14837  10.558   0.389   7.950
 5337POPC   C4A14838  10.543   0.423   7.650
 5337POPC   C1B14839  10.515   0.673   8.550
 5337POPC   C2B14840  10.425   0.641   8.250
 5337POPC   C3B14841  10.497   0.667   7.950
 5337POPC   C4B14842  10.477   0.661   7.650
 5338POPC   NC314843  19.876  10.561   9.450
 5338POPC   PO414844  19.881  10.530   9.150
 5338POPC   GL114845  19.874  10.557   8.850
 5338POPC   GL214846  19.946  10.553   8.850
 5338POPC   C1A14847  19.827  10.475   8.550
 5338POPC   D2A14848  19.849  10.493   8.250
 5338POPC   C3A14849  19.845  10.519   7.950
 5338POPC   C4A14850  19.843  10.509   7.650
 5338POPC   C1B14851  20.052  10.499   8.550
 5338POPC   C2B14852  20.074  10.513   8.250
 5338POPC   C3B14853  20.075  10.505   7.950
 5338POPC   C4B14854  20.122  10.511   7.650
 5339POPC   NC314855  38.451  15.161   9.450
 5339POPC   PO414856  38.415  15.204   9.150
 5339POPC   GL114857  38.431  15.153   8.850
 5339POPC   GL214858  38.493  15.319   8.850
 5339POPC   C1A14859  38.447  15.180   8.550
 5339POPC   D2A14860  38.468  15.187   8.250
 5339POPC   C3A14861  38.438  15.197   7.950
 5339POPC   C4A14862  38.503  15.156   7.650
 5339POPC   C1B14863  38.519  15.418   8.550
 5339POPC   C2B14864  38.504  15.473   8.250
 5339POPC   C3B14865  38.507  15.377   7.950
 5339POPC   C4B14866  38.474  15.429   7.650
 5340POPC   NC314867   3.580  24.532   9.450
 5340POPC   PO414868   3.504  24.529   9.150
 5340POPC   GL114869   3.509  24.451   8.850
 5340POPC   GL214870   3.564  24.607   8.850
 5340POPC   C1A14871   3.586  24.499   8.550
 5340POPC   D2A14872   3.561  24.511   8.250
 5340POPC   C3A14873   3.584  24.444   7.950
 5340POPC   C4A14874   3.583  24.463   7.650
 5340POPC   C1B14875   3.518  24.737   8.550
 5340POPC   C2B14876   3.494  24.776   8.250
 5340POPC   C3B14877   3.524  24.767   7.950
 5340POPC   C4B14878   3.501  24.788   7.650
 5341POPC   NC314879   9.786   9.014   9.450
 5341POPC   PO414880   9.789   8.960   9.150
 5341POPC   GL114881   9.744   8.929   8.850
 5341POPC   GL214882   9.679   8.868   8.850
 5341POPC   C1A14883   9.757   8.981   8.550
 5341POPC   D2A14884   9.759   8.995   8.250
 5341POPC   C3A14885   9.722   8.982   7.950
 5341POPC   C4A14886   9.795   8.971   7.650
 5341POPC   C1B14887   9.669   8.777   8.550
 5341POPC   C2B14888   9.695   8.776   8.250
 5341POPC   C3B14889   9.625   8.769   7.950
 5341POPC   C4B14890   9.633   8.731   7.650
 5342POPC   NC314891  21.424  12.836   9.450
 5342POPC   PO414892  21.436  12.826   9.150
 5342POPC   GL114893  21.373  12.867   8.850
 5342POPC   GL214894  21.431  13.017   8.850
 5342POPC   C1A14895  21.366  12.822   8.550
 5342POPC   D2A14896  21.380  12.808   8.250
 5342POPC   C3A14897  21.422  12.897   7.950
 5342POPC   C4A14898  21.414  12.866   7.650
 5342POPC   C1B14899  21.377  13.091   8.550
 5342POPC   C2B14900  21.434  13.060   8.250
 5342POPC   C3B14901  21.406  13.117   7.950
 5342POPC   C4B14902  21.396  13.113   7.650
 5343POPC   NC314903  19.052  22.201   9.450
 5343POPC   PO414904  19.011  22.150   9.150
 5343POPC   GL114905  19.033  22.210   8.850
 5343POPC   GL214906  19.159  22.184   8.850
 5343POPC   C1A14907  19.098  22.173   8.550
 5343POPC   D2A14908  19.075  22.161   8.250
 5343POPC   C3A14909  19.067  22.138   7.950
 5343POPC   C4A14910  19.087  22.208   7.650
 5343POPC   C1B14911  19.294  22.251   8.550
 5343POPC   C2B14912  19.310  22.263   8.250
 5343POPC   C3B14913  19.242  22.296   7.950
 5343POPC   C4B14914  19.290  22.256   7.650
 5344POPC   NC314915  16.699   2.790   9.450
 5344POPC   PO414916  16.683   2.798   9.150
 5344POPC   GL114917  16.752   2.773   8.850
 5344POPC   GL214918  16.818   2.843   8.850
 5344POPC   C1A14919  16.723   2.751   8.550
 5344POPC   D2A14920  16.761   2.731   8.250
 5344POPC   C3A14921  16.751   2.730   7.950
 5344POPC   C4A14922  16.746   2.749   7.650
 5344POPC   C1B14923  16.872   2.995   8.550
 5344POPC   C2B14924  16.791   2.954   8.250
 5344POPC   C3B14925  16.781   2.965   7.950
 5344POPC   C4B14926  16.857   3.006   7.650
 5345POPC   NC314927  33.051  36.124   9.450
 5345POPC   PO414928  33.054  36.099   9.150
 5345POPC   GL114929  33.068  36.122   8.850
 5345POPC   GL214930  33.095  36.080   8.850
 5345POPC   C1A14931  33.055  36.112   8.550
 5345POPC   D2A14932  33.036  36.174   8.250
 5345POPC   C3A14933  33.042  36.169   7.950
 5345POPC   C4A14934  33.052  36.165   7.650
 5345POPC   C1B14935  33.186  35.911   8.550
 5345POPC   C2B14936  33.152  35.892   8.250
 5345POPC   C3B14937  33.213  35.931   7.950
 5345POPC   C4B14938  33.197  35.932   7.650
 5346POPC   NC314939   8.999  29.166   9.450
 5346POPC   PO414940   9.016  29.158   9.150
 5346POPC   GL114941   8.962  29.097   8.850
 5346POPC   GL214942   8.810  29.141   8.850
 5346POPC   C1A14943   8.949  29.170   8.550
 5346POPC   D2A14944   8.995  29.157   8.250
 5346POPC   C3A14945   8.944  29.136   7.950
 5346POPC   C4A14946   8.981  29.167   7.650
 5346POPC   C1B14947   8.752  29.128   8.550
 5346POPC   C2B14948   8.753  29.222   8.250
 5346POPC   C3B14949   8.759  29.157   7.950
 5346POPC   C4B14950   8.741  29.130   7.650
 5347POPC   NC314951   3.515  28.331   9.450
 5347POPC   PO414952   3.577  28.374   9.150
 5347POPC   GL114953   3.516  28.358   8.850
 5347POPC   GL214954   3.469  28.274   8.850
 5347POPC   C1A14955   3.546  28.419   8.550
 5347POPC   D2A14956   3.535  28.356   8.250
 5347POPC   C3A14957   3.539  28.333   7.950
 5347POPC   C4A14958   3.563  28.329   7.650
 5347POPC   C1B14959   3.406  28.131   8.550
 5347POPC   C2B14960   3.469  28.096   8.250
 5347POPC   C3B14961   3.456  28.089   7.950
 5347POPC   C4B14962   3.414  28.133   7.650
 5348POPC   NC314963  42.312  35.330   9.450
 5348POPC   PO414964  42.381  35.315   9.150
 5348POPC   GL114965  42.371  35.305   8.850
 5348POPC   GL214966  42.240  35.438   8.850
 5348POPC   C1A14967  42.324  35.351   8.550
 5348POPC   D2A14968  42.339  35.319   8.250
 5348POPC   C3A14969  42.332  35.341   7.950
 5348POPC   C4A14970  42.368  35.337   7.650
 5348POPC   C1B14971  42.181  35.589   8.550
 5348POPC   C2B14972  42.221  35.530   8.250
 5348POPC   C3B14973  42.172  35.570   7.950
 5348POPC   C4B14974  42.172  35.527   7.650
 5349POPC   NC314975  41.545  21.393   9.450
 5349POPC   PO414976  41.581  21.379   9.150
 5349POPC   GL114977  41.592  21.435   8.850
 5349POPC   GL214978  41.657  21.460   8.850
 5349POPC   C1A14979  41.577  21.356   8.550
 5349POPC   D2A14980  41.574  21.392   8.250
 5349POPC   C3A14981  41.541  21.380   7.950
 5349POPC   C4A14982  41.538  21.404   7.650
 5349POPC   C1B14983  41.740  21.613   8.550
 5349POPC   C2B14984  41.716  21.550   8.250
 5349POPC   C3B14985  41.748  21.633   7.950
 5349POPC   C4B14986  41.726  21.581   7.650
 5350POPC   NC314987   0.407  23.680   9.450
 5350POPC   PO414988   0.404  23.736   9.150
 5350POPC   GL114989   0.467  23.681   8.850
 5350POPC   GL214990   0.422  23.848   8.850
 5350POPC   C1A14991   0.444  23.720   8.550
 5350POPC   D2A14992   0.426  23.738   8.250
 5350POPC   C3A14993   0.473  23.719   7.950
 5350POPC   C4A14994   0.420  23.740   7.650
 5350POPC   C1B14995   0.319  23.925   8.550
 5350POPC   C2B14996   0.402  23.978   8.250
 5350POPC   C3B14997   0.411  23.905   7.950
 5350POPC   C4B14998   0.375  23.908   7.650
 5351POPC   NC314999  10.563  11.253   9.450
 5351POPC   PO415000  10.518  11.337   9.150
 5351POPC   GL115001  10.477  11.303   8.850
 5351POPC   GL215002  10.641  11.225   8.850
 5351POPC   C1A15003  10.510  11.266   8.550
 5351POPC   D2A15004  10.501  11.350   8.250
 5351POPC   C3A15005  10.554  11.346   7.950
 5351POPC   C4A15006  10.543  11.342   7.650
 5351POPC   C1B15007  10.628  11.068   8.550
 5351POPC   C2B15008  10.656  11.090   8.250
 5351POPC   C3B15009  10.647  11.092   7.950
 5351POPC   C4B15010  10.628  11.105   7.650
 5352POPC   NC315011  15.204  31.451   9.450
 5352POPC   PO415012  15.172  31.459   9.150
 5352POPC   GL115013  15.133  31.476   8.850
 5352POPC   GL215014  15.333  31.545   8.850
 5352POPC   C1A15015  15.137  31.478   8.550
 5352POPC   D2A15016  15.190  31.429   8.250
 5352POPC   C3A15017  15.202  31.446   7.950
 5352POPC   C4A15018  15.215  31.512   7.650
 5352POPC   C1B15019  15.440  31.558   8.550
 5352POPC   C2B15020  15.368  31.550   8.250
 5352POPC   C3B15021  15.415  31.546   7.950
 5352POPC   C4B15022  15.396  31.515   7.650
 5353POPC   NC315023   8.179  41.549   9.450
 5353POPC   PO415024   8.187  41.540   9.150
 5353POPC   GL115025   8.154  41.563   8.850
 5353POPC   GL215026   8.236  41.459   8.850
 5353POPC   C1A15027   8.213  41.546   8.550
 5353POPC   D2A15028   8.166  41.585   8.250
 5353POPC   C3A15029   8.193  41.602   7.950
 5353POPC   C4A15030   8.180  41.595   7.650
 5353POPC   C1B15031   8.238  41.272   8.550
 5353POPC   C2B15032   8.247  41.288   8.250
 5353POPC   C3B15033   8.275  41.302   7.950
 5353POPC   C4B15034   8.275  41.300   7.650
 5354POPC   NC315035   2.787  16.684   9.450
 5354POPC   PO415036   2.798  16.778   9.150
 5354POPC   GL115037   2.800  16.763   8.850
 5354POPC   GL215038   2.854  16.748   8.850
 5354POPC   C1A15039   2.766  16.766   8.550
 5354POPC   D2A15040   2.748  16.707   8.250
 5354POPC   C3A15041   2.740  16.734   7.950
 5354POPC   C4A15042   2.742  16.748   7.650
 5354POPC   C1B15043   3.007  16.711   8.550
 5354POPC   C2B15044   2.968  16.747   8.250
 5354POPC   C3B15045   3.008  16.775   7.950
 5354POPC   C4B15046   3.050  16.725   7.650
 5355POPC   NC315047   8.958   1.170   9.450
 5355POPC   PO415048   9.017   1.175   9.150
 5355POPC   GL115049   8.923   1.260   8.850
 5355POPC   GL215050   9.080   1.265   8.850
 5355POPC   C1A15051   8.975   1.194   8.550
 5355POPC   D2A15052   8.957   1.219   8.250
 5355POPC   C3A15053   9.002   1.199   7.950
 5355POPC   C4A15054   8.990   1.229   7.650
 5355POPC   C1B15055   9.200   1.302   8.550
 5355POPC   C2B15056   9.185   1.362   8.250
 5355POPC   C3B15057   9.193   1.340   7.950
 5355POPC   C4B15058   9.187   1.327   7.650
 5356POPC   NC315059  36.125  19.018   9.450
 5356POPC   PO415060  36.176  19.088   9.150
 5356POPC   GL115061  36.135  19.075   8.850
 5356POPC   GL215062  36.026  19.041   8.850
 5356POPC   C1A15063  36.080  19.108   8.550
 5356POPC   D2A15064  36.113  19.024   8.250
 5356POPC   C3A15065  36.093  19.092   7.950
 5356POPC   C4A15066  36.084  19.029   7.650
 5356POPC   C1B15067  35.911  19.021   8.550
 5356POPC   C2B15068  35.895  19.052   8.250
 5356POPC   C3B15069  35.891  19.072   7.950
 5356POPC   C4B15070  35.843  18.997   7.650
 5357POPC   NC315071  28.390  43.868   9.450
 5357POPC   PO415072  28.406  43.889   9.150
 5357POPC   GL115073  28.384  43.842   8.850
 5357POPC   GL215074  28.244  43.903   8.850
 5357POPC   C1A15075  28.345  43.913   8.550
 5357POPC   D2A15076  28.339  43.932   8.250
 5357POPC   C3A15077  28.408  43.859   7.950
 5357POPC   C4A15078  28.372  43.839   7.650
 5357POPC   C1B15079  28.105  43.965   8.550
 5357POPC   C2B15080  28.180  43.946   8.250
 5357POPC   C3B15081  28.125  44.010   7.950
 5357POPC   C4B15082  28.133  43.961   7.650
 5358POPC   NC315083   6.599  16.771   9.450
 5358POPC   PO415084   6.616  16.711   9.150
 5358POPC   GL115085   6.671  16.735   8.850
 5358POPC   GL215086   6.548  16.781   8.850
 5358POPC   C1A15087   6.671  16.779   8.550
 5358POPC   D2A15088   6.676  16.681   8.250
 5358POPC   C3A15089   6.655  16.742   7.950
 5358POPC   C4A15090   6.612  16.776   7.650
 5358POPC   C1B15091   6.498  16.958   8.550
 5358POPC   C2B15092   6.455  16.885   8.250
 5358POPC   C3B15093   6.533  16.904   7.950
 5358POPC   C4B15094   6.535  16.969   7.650
 5359POPC   NC315095  34.586  27.590   9.450
 5359POPC   PO415096  34.623  27.578   9.150
 5359POPC   GL115097  34.576  27.629   8.850
 5359POPC   GL215098  34.545  27.484   8.850
 5359POPC   C1A15099  34.587  27.620   8.550
 5359POPC   D2A15100  34.551  27.591   8.250
 5359POPC   C3A15101  34.592  27.641   7.950
 5359POPC   C4A15102  34.551  27.603   7.650
 5359POPC   C1B15103  34.503  27.352   8.550
 5359POPC   C2B15104  34.459  27.341   8.250
 5359POPC   C3B15105  34.489  27.358   7.950
 5359POPC   C4B15106  34.508  27.405   7.650
 5360POPC   NC315107  25.240  38.432   9.450
 5360POPC   PO415108  25.287  38.453   9.150
 5360POPC   GL115109  25.216  38.457   8.850
 5360POPC   GL215110  25.165  38.519   8.850
 5360POPC   C1A15111  25.241  38.493   8.550
 5360POPC   D2A15112  25.252  38.429   8.250
 5360POPC   C3A15113  25.301  38.457   7.950
 5360POPC   C4A15114  25.230  38.408   7.650
 5360POPC   C1B15115  25.163  38.719   8.550
 5360POPC   C2B15116  25.151  38.701   8.250
 5360POPC   C3B15117  25.156  38.687   7.950
 5360POPC   C4B15118  25.109  38.660   7.650
 5361POPC   NC315119  25.270  19.094   9.450
 5361POPC   PO415120  25.223  19.009   9.150
 5361POPC   GL115121  25.250  19.056   8.850
 5361POPC   GL215122  25.146  19.049   8.850
 5361POPC   C1A15123  25.295  19.025   8.550
 5361POPC   D2A15124  25.254  19.045   8.250
 5361POPC   C3A15125  25.292  19.035   7.950
 5361POPC   C4A15126  25.314  19.012   7.650
 5361POPC   C1B15127  24.967  19.011   8.550
 5361POPC   C2B15128  24.994  18.993   8.250
 5361POPC   C3B15129  24.998  19.037   7.950
 5361POPC   C4B15130  24.979  19.077   7.650
 5362POPC   NC315131  22.932   5.059   9.450
 5362POPC   PO415132  22.945   5.076   9.150
 5362POPC   GL115133  22.962   5.105   8.850
 5362POPC   GL215134  23.058   5.196   8.850
 5362POPC   C1A15135  22.901   5.138   8.550
 5362POPC   D2A15136  22.959   5.139   8.250
 5362POPC   C3A15137  22.936   5.043   7.950
 5362POPC   C4A15138  22.931   5.118   7.650
 5362POPC   C1B15139  23.066   5.310   8.550
 5362POPC   C2B15140  23.108   5.238   8.250
 5362POPC   C3B15141  23.103   5.250   7.950
 5362POPC   C4B15142  23.122   5.263   7.650
 5363POPC   NC315143   5.110   6.680   9.450
 5363POPC   PO415144   5.062   6.620   9.150
 5363POPC   GL115145   5.045   6.672   8.850
 5363POPC   GL215146   5.058   6.744   8.850
 5363POPC   C1A15147   5.043   6.689   8.550
 5363POPC   D2A15148   5.066   6.684   8.250
 5363POPC   C3A15149   5.076   6.602   7.950
 5363POPC   C4A15150   5.064   6.673   7.650
 5363POPC   C1B15151   5.013   6.923   8.550
 5363POPC   C2B15152   5.020   6.887   8.250
 5363POPC   C3B15153   5.059   6.870   7.950
 5363POPC   C4B15154   5.058   6.841   7.650
 5364POPC   NC315155  29.913  14.396   9.450
 5364POPC   PO415156  29.941  14.414   9.150
 5364POPC   GL115157  29.909  14.439   8.850
 5364POPC   GL215158  29.774  14.344   8.850
 5364POPC   C1A15159  29.934  14.404   8.550
 5364POPC   D2A15160  29.964  14.360   8.250
 5364POPC   C3A15161  29.914  14.366   7.950
 5364POPC   C4A15162  29.947  14.388   7.650
 5364POPC   C1B15163  29.719  14.337   8.550
 5364POPC   C2B15164  29.717  14.357   8.250
 5364POPC   C3B15165  29.663  14.398   7.950
 5364POPC   C4B15166  29.675  14.379   7.650
 5365POPC   NC315167   5.054  19.081   9.450
 5365POPC   PO415168   5.049  19.019   9.150
 5365POPC   GL115169   5.044  19.013   8.850
 5365POPC   GL215170   5.164  19.157   8.850
 5365POPC   C1A15171   5.066  19.014   8.550
 5365POPC   D2A15172   5.102  19.086   8.250
 5365POPC   C3A15173   5.124  19.073   7.950
 5365POPC   C4A15174   5.058  19.045   7.650
 5365POPC   C1B15175   5.173  19.263   8.550
 5365POPC   C2B15176   5.124  19.302   8.250
 5365POPC   C3B15177   5.192  19.314   7.950
 5365POPC   C4B15178   5.140  19.271   7.650
 5366POPC   NC315179  19.847   2.781   9.450
 5366POPC   PO415180  19.822   2.801   9.150
 5366POPC   GL115181  19.867   2.798   8.850
 5366POPC   GL215182  19.797   2.852   8.850
 5366POPC   C1A15183  19.867   2.721   8.550
 5366POPC   D2A15184  19.850   2.723   8.250
 5366POPC   C3A15185  19.855   2.726   7.950
 5366POPC   C4A15186  19.861   2.763   7.650
 5366POPC   C1B15187  19.732   2.989   8.550
 5366POPC   C2B15188  19.779   2.948   8.250
 5366POPC   C3B15189  19.777   2.987   7.950
 5366POPC   C4B15190  19.754   3.023   7.650
 5367POPC   NC315191  42.338  19.828   9.450
 5367POPC   PO415192  42.369  19.790   9.150
 5367POPC   GL115193  42.356  19.860   8.850
 5367POPC   GL215194  42.254  19.835   8.850
 5367POPC   C1A15195  42.382  19.820   8.550
 5367POPC   D2A15196  42.380  19.854   8.250
 5367POPC   C3A15197  42.292  19.826   7.950
 5367POPC   C4A15198  42.345  19.853   7.650
 5367POPC   C1B15199  42.103  19.890   8.550
 5367POPC   C2B15200  42.041  19.826   8.250
 5367POPC   C3B15201  42.132  19.871   7.950
 5367POPC   C4B15202  42.087  19.855   7.650
 5368POPC   NC315203   1.999  27.616   9.450
 5368POPC   PO415204   1.941  27.568   9.150
 5368POPC   GL115205   2.034  27.567   8.850
 5368POPC   GL215206   2.159  27.621   8.850
 5368POPC   C1A15207   2.020  27.609   8.550
 5368POPC   D2A15208   1.993  27.566   8.250
 5368POPC   C3A15209   1.958  27.633   7.950
 5368POPC   C4A15210   1.995  27.546   7.650
 5368POPC   C1B15211   2.239  27.607   8.550
 5368POPC   C2B15212   2.219  27.573   8.250
 5368POPC   C3B15213   2.208  27.534   7.950
 5368POPC   C4B15214   2.225  27.526   7.650
 5369POPC   NC315215  33.062  15.921   9.450
 5369POPC   PO415216  33.033  15.906   9.150
 5369POPC   GL115217  32.983  15.941   8.850
 5369POPC   GL215218  33.142  15.926   8.850
 5369POPC   C1A15219  33.028  15.942   8.550
 5369POPC   D2A15220  33.037  15.999   8.250
 5369POPC   C3A15221  33.055  15.942   7.950
 5369POPC   C4A15222  33.015  15.968   7.650
 5369POPC   C1B15223  33.235  15.858   8.550
 5369POPC   C2B15224  33.211  15.815   8.250
 5369POPC   C3B15225  33.219  15.855   7.950
 5369POPC   C4B15226  33.197  15.828   7.650
 5370POPC   NC315227   3.524   4.270   9.450
 5370POPC   PO415228   3.530   4.282   9.150
 5370POPC   GL115229   3.514   4.336   8.850
 5370POPC   GL215230   3.464   4.207   8.850
 5370POPC   C1A15231   3.579   4.331   8.550
 5370POPC   D2A15232   3.492   4.318   8.250
 5370POPC   C3A15233   3.569   4.300   7.950
 5370POPC   C4A15234   3.520   4.343   7.650
 5370POPC   C1B15235   3.392   4.073   8.550
 5370POPC   C2B15236   3.359   4.108   8.250
 5370POPC   C3B15237   3.355   4.119   7.950
 5370POPC   C4B15238   3.393   4.117   7.650
 5371POPC   NC315239  22.889  20.594   9.450
 5371POPC   PO415240  22.939  20.623   9.150
 5371POPC   GL115241  22.948  20.648   8.850
 5371POPC   GL215242  22.948  20.696   8.850
 5371POPC   C1A15243  22.931  20.647   8.550
 5371POPC   D2A15244  22.940  20.570   8.250
 5371POPC   C3A15245  22.944  20.636   7.950
 5371POPC   C4A15246  22.920  20.646   7.650
 5371POPC   C1B15247  22.993  20.895   8.550
 5371POPC   C2B15248  23.015  20.840   8.250
 5371POPC   C3B15249  22.951  20.815   7.950
 5371POPC   C4B15250  23.021  20.831   7.650
 5372POPC   NC315251   8.972  31.511   9.450
 5372POPC   PO415252   8.958  31.520   9.150
 5372POPC   GL115253   8.995  31.492   8.850
 5372POPC   GL215254   9.104  31.529   8.850
 5372POPC   C1A15255   8.996  31.518   8.550
 5372POPC   D2A15256   8.962  31.494   8.250
 5372POPC   C3A15257   8.972  31.459   7.950
 5372POPC   C4A15258   8.932  31.432   7.650
 5372POPC   C1B15259   9.185  31.639   8.550
 5372POPC   C2B15260   9.147  31.615   8.250
 5372POPC   C3B15261   9.161  31.617   7.950
 5372POPC   C4B15262   9.119  31.633   7.650
 5373POPC   NC315263   9.009  26.060   9.450
 5373POPC   PO415264   8.935  26.069   9.150
 5373POPC   GL115265   8.977  26.080   8.850
 5373POPC   GL215266   8.887  26.076   8.850
 5373POPC   C1A15267   8.936  26.050   8.550
 5373POPC   D2A15268   8.975  26.077   8.250
 5373POPC   C3A15269   9.011  26.029   7.950
 5373POPC   C4A15270   9.020  26.001   7.650
 5373POPC   C1B15271   8.725  26.143   8.550
 5373POPC   C2B15272   8.737  26.170   8.250
 5373POPC   C3B15273   8.799  26.185   7.950
 5373POPC   C4B15274   8.762  26.149   7.650
 5374POPC   NC315275  39.184  39.961   9.450
 5374POPC   PO415276  39.264  39.968   9.150
 5374POPC   GL115277  39.262  39.968   8.850
 5374POPC   GL215278  39.176  39.880   8.850
 5374POPC   C1A15279  39.264  40.033   8.550
 5374POPC   D2A15280  39.236  39.995   8.250
 5374POPC   C3A15281  39.200  39.995   7.950
 5374POPC   C4A15282  39.272  40.013   7.650
 5374POPC   C1B15283  39.028  39.844   8.550
 5374POPC   C2B15284  39.073  39.851   8.250
 5374POPC   C3B15285  39.056  39.801   7.950
 5374POPC   C4B15286  39.082  39.837   7.650
 5375POPC   NC315287  32.287  27.555   9.450
 5375POPC   PO415288  32.281  27.586   9.150
 5375POPC   GL115289  32.200  27.554   8.850
 5375POPC   GL215290  32.172  27.637   8.850
 5375POPC   C1A15291  32.292  27.608   8.550
 5375POPC   D2A15292  32.226  27.570   8.250
 5375POPC   C3A15293  32.204  27.640   7.950
 5375POPC   C4A15294  32.200  27.597   7.650
 5375POPC   C1B15295  32.042  27.782   8.550
 5375POPC   C2B15296  32.052  27.707   8.250
 5375POPC   C3B15297  32.031  27.719   7.950
 5375POPC   C4B15298  32.066  27.755   7.650
 5376POPC   NC315299  21.377  10.490   9.450
 5376POPC   PO415300  21.377  10.485   9.150
 5376POPC   GL115301  21.345  10.480   8.850
 5376POPC   GL215302  21.331  10.420   8.850
 5376POPC   C1A15303  21.389  10.508   8.550
 5376POPC   D2A15304  21.371  10.496   8.250
 5376POPC   C3A15305  21.373  10.495   7.950
 5376POPC   C4A15306  21.337  10.571   7.650
 5376POPC   C1B15307  21.197  10.346   8.550
 5376POPC   C2B15308  21.222  10.318   8.250
 5376POPC   C3B15309  21.176  10.356   7.950
 5376POPC   C4B15310  21.167  10.393   7.650
 5377POPC   NC315311  17.499  38.495   9.450
 5377POPC   PO415312  17.500  38.474   9.150
 5377POPC   GL115313  17.522  38.429   8.850
 5377POPC   GL215314  17.424  38.395   8.850
 5377POPC   C1A15315  17.553  38.498   8.550
 5377POPC   D2A15316  17.479  38.453   8.250
 5377POPC   C3A15317  17.482  38.471   7.950
 5377POPC   C4A15318  17.541  38.490   7.650
 5377POPC   C1B15319  17.320  38.283   8.550
 5377POPC   C2B15320  17.360  38.281   8.250
 5377POPC   C3B15321  17.352  38.301   7.950
 5377POPC   C4B15322  17.350  38.288   7.650
 5378POPC   NC315323  18.318  15.154   9.450
 5378POPC   PO415324  18.249  15.183   9.150
 5378POPC   GL115325  18.267  15.208   8.850
 5378POPC   GL215326  18.372  15.123   8.850
 5378POPC   C1A15327  18.319  15.136   8.550
 5378POPC   D2A15328  18.285  15.225   8.250
 5378POPC   C3A15329  18.275  15.183   7.950
 5378POPC   C4A15330  18.310  15.201   7.650
 5378POPC   C1B15331  18.528  15.149   8.550
 5378POPC   C2B15332  18.530  15.167   8.250
 5378POPC   C3B15333  18.502  15.103   7.950
 5378POPC   C4B15334  18.572  15.096   7.650
 5379POPC   NC315335  11.348   5.115   9.450
 5379POPC   PO415336  11.284   5.130   9.150
 5379POPC   GL115337  11.332   5.141   8.850
 5379POPC   GL215338  11.337   4.959   8.850
 5379POPC   C1A15339  11.260   5.094   8.550
 5379POPC   D2A15340  11.257   5.125   8.250
 5379POPC   C3A15341  11.332   5.054   7.950
 5379POPC   C4A15342  11.313   5.058   7.650
 5379POPC   C1B15343  11.370   4.831   8.550
 5379POPC   C2B15344  11.389   4.883   8.250
 5379POPC   C3B15345  11.388   4.803   7.950
 5379POPC   C4B15346  11.377   4.885   7.650
 5380POPC   NC315347   9.742  23.724   9.450
 5380POPC   PO415348   9.704  23.701   9.150
 5380POPC   GL115349   9.796  23.739   8.850
 5380POPC   GL215350   9.741  23.635   8.850
 5380POPC   C1A15351   9.698  23.704   8.550
 5380POPC   D2A15352   9.755  23.709   8.250
 5380POPC   C3A15353   9.766  23.742   7.950
 5380POPC   C4A15354   9.794  23.671   7.650
 5380POPC   C1B15355   9.690  23.422   8.550
 5380POPC   C2B15356   9.676  23.476   8.250
 5380POPC   C3B15357   9.759  23.474   7.950
 5380POPC   C4B15358   9.683  23.450   7.650
 5381POPC   NC315359   3.571   5.867   9.450
 5381POPC   PO415360   3.496   5.864   9.150
 5381POPC   GL115361   3.541   5.848   8.850
 5381POPC   GL215362   3.507   5.765   8.850
 5381POPC   C1A15363   3.549   5.896   8.550
 5381POPC   D2A15364   3.586   5.844   8.250
 5381POPC   C3A15365   3.532   5.852   7.950
 5381POPC   C4A15366   3.575   5.847   7.650
 5381POPC   C1B15367   3.394   5.627   8.550
 5381POPC   C2B15368   3.438   5.614   8.250
 5381POPC   C3B15369   3.386   5.662   7.950
 5381POPC   C4B15370   3.405   5.610   7.650
 5382POPC   NC315371  33.765  26.067   9.450
 5382POPC   PO415372  33.808  26.082   9.150
 5382POPC   GL115373  33.773  26.048   8.850
 5382POPC   GL215374  33.738  25.914   8.850
 5382POPC   C1A15375  33.794  25.997   8.550
 5382POPC   D2A15376  33.785  26.066   8.250
 5382POPC   C3A15377  33.810  26.017   7.950
 5382POPC   C4A15378  33.816  26.042   7.650
 5382POPC   C1B15379  33.704  25.784   8.550
 5382POPC   C2B15380  33.720  25.756   8.250
 5382POPC   C3B15381  33.724  25.798   7.950
 5382POPC   C4B15382  33.692  25.793   7.650
 5383POPC   NC315383  34.590  37.687   9.450
 5383POPC   PO415384  34.604  37.672   9.150
 5383POPC   GL115385  34.549  37.688   8.850
 5383POPC   GL215386  34.500  37.768   8.850
 5383POPC   C1A15387  34.550  37.725   8.550
 5383POPC   D2A15388  34.526  37.693   8.250
 5383POPC   C3A15389  34.616  37.640   7.950
 5383POPC   C4A15390  34.533  37.648   7.650
 5383POPC   C1B15391  34.436  37.841   8.550
 5383POPC   C2B15392  34.385  37.921   8.250
 5383POPC   C3B15393  34.424  37.831   7.950
 5383POPC   C4B15394  34.399  37.829   7.650
 5384POPC   NC315395  21.389  19.034   9.450
 5384POPC   PO415396  21.385  19.029   9.150
 5384POPC   GL115397  21.357  19.028   8.850
 5384POPC   GL215398  21.299  19.215   8.850
 5384POPC   C1A15399  21.427  19.033   8.550
 5384POPC   D2A15400  21.390  19.017   8.250
 5384POPC   C3A15401  21.365  19.051   7.950
 5384POPC   C4A15402  21.429  19.022   7.650
 5384POPC   C1B15403  21.261  19.274   8.550
 5384POPC   C2B15404  21.262  19.291   8.250
 5384POPC   C3B15405  21.279  19.322   7.950
 5384POPC   C4B15406  21.271  19.264   7.650
 5385POPC   NC315407   7.427  43.157   9.450
 5385POPC   PO415408   7.379  43.064   9.150
 5385POPC   GL115409   7.460  43.090   8.850
 5385POPC   GL215410   7.545  43.216   8.850
 5385POPC   C1A15411   7.445  43.093   8.550
 5385POPC   D2A15412   7.449  43.117   8.250
 5385POPC   C3A15413   7.440  43.099   7.950
 5385POPC   C4A15414   7.430  43.075   7.650
 5385POPC   C1B15415   7.593  43.243   8.550
 5385POPC   C2B15416   7.664  43.246   8.250
 5385POPC   C3B15417   7.597  43.244   7.950
 5385POPC   C4B15418   7.570  43.225   7.650
 5386POPC   NC315419  17.528   9.740   9.450
 5386POPC   PO415420  17.522   9.782   9.150
 5386POPC   GL115421  17.487   9.765   8.850
 5386POPC   GL215422  17.347   9.669   8.850
 5386POPC   C1A15423  17.523   9.755   8.550
 5386POPC   D2A15424  17.482   9.710   8.250
 5386POPC   C3A15425  17.533   9.754   7.950
 5386POPC   C4A15426  17.516   9.740   7.650
 5386POPC   C1B15427  17.311   9.609   8.550
 5386POPC   C2B15428  17.258   9.687   8.250
 5386POPC   C3B15429  17.283   9.651   7.950
 5386POPC   C4B15430  17.246   9.672   7.650
 5387POPC   NC315431  34.616  44.649   9.450
 5387POPC   PO415432  34.599  44.639   9.150
 5387POPC   GL115433  34.544  44.691   8.850
 5387POPC   GL215434  34.488  44.772   8.850
 5387POPC   C1A15435  34.531  44.691   8.550
 5387POPC   D2A15436  34.559  44.619   8.250
 5387POPC   C3A15437  34.539  44.684   7.950
 5387POPC   C4A15438  34.603  44.672   7.650
 5387POPC   C1B15439  34.377  44.898   8.550
 5387POPC   C2B15440  34.414  44.816   8.250
 5387POPC   C3B15441  34.408  44.834   7.950
 5387POPC   C4B15442  34.461  44.874   7.650
 5388POPC   NC315443  29.102   7.418   9.450
 5388POPC   PO415444  29.193   7.397   9.150
 5388POPC   GL115445  29.114   7.436   8.850
 5388POPC   GL215446  29.197   7.587   8.850
 5388POPC   C1A15447  29.194   7.412   8.550
 5388POPC   D2A15448  29.117   7.408   8.250
 5388POPC   C3A15449  29.097   7.417   7.950
 5388POPC   C4A15450  29.118   7.381   7.650
 5388POPC   C1B15451  29.235   7.637   8.550
 5388POPC   C2B15452  29.171   7.694   8.250
 5388POPC   C3B15453  29.238   7.614   7.950
 5388POPC   C4B15454  29.247   7.692   7.650
 5389POPC   NC315455  15.970  36.946   9.450
 5389POPC   PO415456  15.944  36.864   9.150
 5389POPC   GL115457  15.990  36.876   8.850
 5389POPC   GL215458  16.015  36.814   8.850
 5389POPC   C1A15459  15.964  36.911   8.550
 5389POPC   D2A15460  16.003  36.920   8.250
 5389POPC   C3A15461  15.910  36.887   7.950
 5389POPC   C4A15462  15.938  36.882   7.650
 5389POPC   C1B15463  16.008  36.684   8.550
 5389POPC   C2B15464  15.967  36.678   8.250
 5389POPC   C3B15465  15.956  36.688   7.950
 5389POPC   C4B15466  15.971  36.702   7.650
 5390POPC   NC315467  34.585  33.041   9.450
 5390POPC   PO415468  34.564  32.991   9.150
 5390POPC   GL115469  34.617  32.981   8.850
 5390POPC   GL215470  34.523  33.085   8.850
 5390POPC   C1A15471  34.545  33.041   8.550
 5390POPC   D2A15472  34.577  33.061   8.250
 5390POPC   C3A15473  34.598  33.065   7.950
 5390POPC   C4A15474  34.538  32.979   7.650
 5390POPC   C1B15475  34.347  33.229   8.550
 5390POPC   C2B15476  34.387  33.235   8.250
 5390POPC   C3B15477  34.403  33.197   7.950
 5390POPC   C4B15478  34.411  33.153   7.650
 5391POPC   NC315479  20.588  13.660   9.450
 5391POPC   PO415480  20.576  13.631   9.150
 5391POPC   GL115481  20.591  13.579   8.850
 5391POPC   GL215482  20.697  13.702   8.850
 5391POPC   C1A15483  20.614  13.663   8.550
 5391POPC   D2A15484  20.623  13.670   8.250
 5391POPC   C3A15485  20.566  13.606   7.950
 5391POPC   C4A15486  20.596  13.618   7.650
 5391POPC   C1B15487  20.738  13.811   8.550
 5391POPC   C2B15488  20.683  13.896   8.250
 5391POPC   C3B15489  20.755  13.824   7.950
 5391POPC   C4B15490  20.720  13.842   7.650
 5392POPC   NC315491   2.748  30.691   9.450
 5392POPC   PO415492   2.776  30.696   9.150
 5392POPC   GL115493   2.742  30.682   8.850
 5392POPC   GL215494   2.650  30.739   8.850
 5392POPC   C1A15495   2.770  30.663   8.550
 5392POPC   D2A15496   2.723  30.652   8.250
 5392POPC   C3A15497   2.798  30.695   7.950
 5392POPC   C4A15498   2.769  30.711   7.650
 5392POPC   C1B15499   2.493  30.824   8.550
 5392POPC   C2B15500   2.551  30.753   8.250
 5392POPC   C3B15501   2.546  30.798   7.950
 5392POPC   C4B15502   2.490  30.751   7.650
 5393POPC   NC315503  43.857  21.383   9.450
 5393POPC   PO415504  43.911  21.376   9.150
 5393POPC   GL115505  43.837  21.369   8.850
 5393POPC   GL215506  43.930  21.543   8.850
 5393POPC   C1A15507  43.925  21.392   8.550
 5393POPC   D2A15508  43.846  21.352   8.250
 5393POPC   C3A15509  43.912  21.386   7.950
 5393POPC   C4A15510  43.932  21.342   7.650
 5393POPC   C1B15511  43.894  21.672   8.550
 5393POPC   C2B15512  43.921  21.682   8.250
 5393POPC   C3B15513  43.884  21.635   7.950
 5393POPC   C4B15514  43.891  21.673   7.650
 5394POPC   NC315515  15.158  29.096   9.450
 5394POPC   PO415516  15.224  29.181   9.150
 5394POPC   GL115517  15.147  29.176   8.850
 5394POPC   GL215518  15.166  28.978   8.850
 5394POPC   C1A15519  15.188  29.123   8.550
 5394POPC   D2A15520  15.192  29.138   8.250
 5394POPC   C3A15521  15.140  29.100   7.950
 5394POPC   C4A15522  15.159  29.189   7.650
 5394POPC   C1B15523  15.088  28.891   8.550
 5394POPC   C2B15524  15.160  28.899   8.250
 5394POPC   C3B15525  15.166  28.893   7.950
 5394POPC   C4B15526  15.146  28.939   7.650
 5395POPC   NC315527  26.058  43.857   9.450
 5395POPC   PO415528  26.004  43.860   9.150
 5395POPC   GL115529  25.992  43.865   8.850
 5395POPC   GL215530  25.932  43.989   8.850
 5395POPC   C1A15531  26.013  43.864   8.550
 5395POPC   D2A15532  26.026  43.859   8.250
 5395POPC   C3A15533  26.085  43.884   7.950
 5395POPC   C4A15534  26.063  43.868   7.650
 5395POPC   C1B15535  25.923  44.069   8.550
 5395POPC   C2B15536  25.934  44.077   8.250
 5395POPC   C3B15537  25.922  44.100   7.950
 5395POPC   C4B15538  25.876  44.056   7.650
 5396POPC   NC315539   1.254  29.137   9.450
 5396POPC   PO415540   1.250  29.097   9.150
 5396POPC   GL115541   1.197  29.166   8.850
 5396POPC   GL215542   1.166  29.004   8.850
 5396POPC   C1A15543   1.221  29.121   8.550
 5396POPC   D2A15544   1.172  29.136   8.250
 5396POPC   C3A15545   1.232  29.188   7.950
 5396POPC   C4A15546   1.234  29.098   7.650
 5396POPC   C1B15547   1.101  28.907   8.550
 5396POPC   C2B15548   1.096  28.940   8.250
 5396POPC   C3B15549   1.051  28.910   7.950
 5396POPC   C4B15550   1.135  28.962   7.650
 5397POPC   NC315551  42.309  39.277   9.450
 5397POPC   PO415552  42.335  39.212   9.150
 5397POPC   GL115553  42.340  39.239   8.850
 5397POPC   GL215554  42.411  39.310   8.850
 5397POPC   C1A15555  42.326  39.262   8.550
 5397POPC   D2A15556  42.375  39.251   8.250
 5397POPC   C3A15557  42.347  39.187   7.950
 5397POPC   C4A15558  42.363  39.274   7.650
 5397POPC   C1B15559  42.504  39.376   8.550
 5397POPC   C2B15560  42.533  39.363   8.250
 5397POPC   C3B15561  42.542  39.443   7.950
 5397POPC   C4B15562  42.528  39.408   7.650
 5398POPC   NC315563  41.528  19.051   9.450
 5398POPC   PO415564  41.510  19.103   9.150
 5398POPC   GL115565  41.546  19.088   8.850
 5398POPC   GL215566  41.553  19.211   8.850
 5398POPC   C1A15567  41.582  19.048   8.550
 5398POPC   D2A15568  41.566  19.070   8.250
 5398POPC   C3A15569  41.569  19.015   7.950
 5398POPC   C4A15570  41.571  19.107   7.650
 5398POPC   C1B15571  41.506  19.348   8.550
 5398POPC   C2B15572  41.556  19.295   8.250
 5398POPC   C3B15573  41.529  19.285   7.950
 5398POPC   C4B15574  41.522  19.274   7.650
 5399POPC   NC315575  26.865  36.871   9.450
 5399POPC   PO415576  26.815  36.895   9.150
 5399POPC   GL115577  26.814  36.868   8.850
 5399POPC   GL215578  26.951  36.942   8.850
 5399POPC   C1A15579  26.858  36.854   8.550
 5399POPC   D2A15580  26.812  36.938   8.250
 5399POPC   C3A15581  26.800  36.936   7.950
 5399POPC   C4A15582  26.862  36.937   7.650
 5399POPC   C1B15583  27.096  36.947   8.550
 5399POPC   C2B15584  27.040  36.936   8.250
 5399POPC   C3B15585  27.047  36.921   7.950
 5399POPC   C4B15586  27.095  36.908   7.650
 5400POPC   NC315587  43.913  11.304   9.450
 5400POPC   PO415588  43.932  11.316   9.150
 5400POPC   GL115589  43.916  11.296   8.850
 5400POPC   GL215590  43.747  11.240   8.850
 5400POPC   C1A15591  43.881  11.322   8.550
 5400POPC   D2A15592  43.838  11.325   8.250
 5400POPC   C3A15593  43.935  11.269   7.950
 5400POPC   C4A15594  43.874  11.265   7.650
 5400POPC   C1B15595  43.746  11.160   8.550
 5400POPC   C2B15596  43.665  11.110   8.250
 5400POPC   C3B15597  43.678  11.149   7.950
 5400POPC   C4B15598  43.673  11.148   7.650
 5401POPC   NC315599  39.982  43.084   9.450
 5401POPC   PO415600  40.003  43.135   9.150
 5401POPC   GL115601  39.958  43.127   8.850
 5401POPC   GL215602  39.877  43.177   8.850
 5401POPC   C1A15603  40.036  43.061   8.550
 5401POPC   D2A15604  39.964  43.096   8.250
 5401POPC   C3A15605  40.043  43.157   7.950
 5401POPC   C4A15606  39.986  43.154   7.650
 5401POPC   C1B15607  39.822  43.294   8.550
 5401POPC   C2B15608  39.854  43.279   8.250
 5401POPC   C3B15609  39.827  43.253   7.950
 5401POPC   C4B15610  39.844  43.279   7.650
 5402POPC   NC315611   5.856  27.630   9.450
 5402POPC   PO415612   5.880  27.586   9.150
 5402POPC   GL115613   5.855  27.590   8.850
 5402POPC   GL215614   5.710  27.536   8.850
 5402POPC   C1A15615   5.854  27.627   8.550
 5402POPC   D2A15616   5.844  27.594   8.250
 5402POPC   C3A15617   5.896  27.585   7.950
 5402POPC   C4A15618   5.844  27.635   7.650
 5402POPC   C1B15619   5.635  27.547   8.550
 5402POPC   C2B15620   5.611  27.502   8.250
 5402POPC   C3B15621   5.628  27.518   7.950
 5402POPC   C4B15622   5.611  27.515   7.650
 5403POPC   NC315623  27.606  44.618   9.450
 5403POPC   PO415624  27.611  44.645   9.150
 5403POPC   GL115625  27.599  44.691   8.850
 5403POPC   GL215626  27.715  44.743   8.850
 5403POPC   C1A15627  27.579  44.652   8.550
 5403POPC   D2A15628  27.600  44.696   8.250
 5403POPC   C3A15629  27.577  44.633   7.950
 5403POPC   C4A15630  27.572  44.652   7.650
 5403POPC   C1B15631  27.802  44.770   8.550
 5403POPC   C2B15632  27.879  44.703   8.250
 5403POPC   C3B15633  27.857  44.713   7.950
 5403POPC   C4B15634  27.842  44.760   7.650
 5404POPC   NC315635   5.900  23.730   9.450
 5404POPC   PO415636   5.820  23.718   9.150
 5404POPC   GL115637   5.897  23.688   8.850
 5404POPC   GL215638   5.791  23.637   8.850
 5404POPC   C1A15639   5.872  23.731   8.550
 5404POPC   D2A15640   5.837  23.737   8.250
 5404POPC   C3A15641   5.840  23.753   7.950
 5404POPC   C4A15642   5.879  23.687   7.650
 5404POPC   C1B15643   5.667  23.552   8.550
 5404POPC   C2B15644   5.671  23.525   8.250
 5404POPC   C3B15645   5.690  23.561   7.950
 5404POPC   C4B15646   5.654  23.557   7.650
 5405POPC   NC315647  21.426   7.393   9.450
 5405POPC   PO415648  21.401   7.469   9.150
 5405POPC   GL115649  21.352   7.457   8.850
 5405POPC   GL215650  21.351   7.499   8.850
 5405POPC   C1A15651  21.376   7.445   8.550
 5405POPC   D2A15652  21.428   7.401   8.250
 5405POPC   C3A15653  21.392   7.455   7.950
 5405POPC   C4A15654  21.353   7.400   7.650
 5405POPC   C1B15655  21.304   7.627   8.550
 5405POPC   C2B15656  21.266   7.654   8.250
 5405POPC   C3B15657  21.255   7.641   7.950
 5405POPC   C4B15658  21.282   7.681   7.650
 5406POPC   NC315659  24.467  35.367   9.450
 5406POPC   PO415660  24.445  35.390   9.150
 5406POPC   GL115661  24.492  35.351   8.850
 5406POPC   GL215662  24.404  35.437   8.850
 5406POPC   C1A15663  24.468  35.327   8.550
 5406POPC   D2A15664  24.454  35.332   8.250
 5406POPC   C3A15665  24.508  35.378   7.950
 5406POPC   C4A15666  24.482  35.366   7.650
 5406POPC   C1B15667  24.349  35.586   8.550
 5406POPC   C2B15668  24.333  35.539   8.250
 5406POPC   C3B15669  24.322  35.595   7.950
 5406POPC   C4B15670  24.313  35.518   7.650
 5407POPC   NC315671  35.348  22.903   9.450
 5407POPC   PO415672  35.381  22.897   9.150
 5407POPC   GL115673  35.366  22.976   8.850
 5407POPC   GL215674  35.263  22.871   8.850
 5407POPC   C1A15675  35.347  22.950   8.550
 5407POPC   D2A15676  35.373  22.930   8.250
 5407POPC   C3A15677  35.369  22.894   7.950
 5407POPC   C4A15678  35.336  22.908   7.650
 5407POPC   C1B15679  35.125  22.803   8.550
 5407POPC   C2B15680  35.116  22.758   8.250
 5407POPC   C3B15681  35.158  22.750   7.950
 5407POPC   C4B15682  35.147  22.810   7.650
 5408POPC   NC315683  26.003  39.207   9.450
 5408POPC   PO415684  26.026  39.213   9.150
 5408POPC   GL115685  26.087  39.243   8.850
 5408POPC   GL215686  26.209  39.279   8.850
 5408POPC   C1A15687  26.085  39.245   8.550
 5408POPC   D2A15688  26.037  39.267   8.250
 5408POPC   C3A15689  26.006  39.254   7.950
 5408POPC   C4A15690  26.015  39.237   7.650
 5408POPC   C1B15691  26.322  39.295   8.550
 5408POPC   C2B15692  26.328  39.248   8.250
 5408POPC   C3B15693  26.262  39.300   7.950
 5408POPC   C4B15694  26.326  39.284   7.650
 5409POPC   NC315695  43.903  30.700   9.450
 5409POPC   PO415696  43.883  30.696   9.150
 5409POPC   GL115697  43.844  30.657   8.850
 5409POPC   GL215698  43.889  30.561   8.850
 5409POPC   C1A15699  43.860  30.695   8.550
 5409POPC   D2A15700  43.884  30.709   8.250
 5409POPC   C3A15701  43.838  30.725   7.950
 5409POPC   C4A15702  43.925  30.703   7.650
 5409POPC   C1B15703  43.864  30.421   8.550
 5409POPC   C2B15704  43.851  30.498   8.250
 5409POPC   C3B15705  43.862  30.448   7.950
 5409POPC   C4B15706  43.833  30.434   7.650
 5410POPC   NC315707  38.475  43.904   9.450
 5410POPC   PO415708  38.466  43.852   9.150
 5410POPC   GL115709  38.493  43.849   8.850
 5410POPC   GL215710  38.323  43.927   8.850
 5410POPC   C1A15711  38.485  43.839   8.550
 5410POPC   D2A15712  38.426  43.896   8.250
 5410POPC   C3A15713  38.456  43.883   7.950
 5410POPC   C4A15714  38.444  43.899   7.650
 5410POPC   C1B15715  38.270  44.054   8.550
 5410POPC   C2B15716  38.192  44.045   8.250
 5410POPC   C3B15717  38.264  43.965   7.950
 5410POPC   C4B15718  38.248  44.026   7.650
 5411POPC   NC315719   7.379  26.089   9.450
 5411POPC   PO415720   7.449  26.001   9.150
 5411POPC   GL115721   7.411  26.021   8.850
 5411POPC   GL215722   7.339  26.048   8.850
 5411POPC   C1A15723   7.431  26.015   8.550
 5411POPC   D2A15724   7.454  26.071   8.250
 5411POPC   C3A15725   7.421  26.019   7.950
 5411POPC   C4A15726   7.467  26.032   7.650
 5411POPC   C1B15727   7.201  26.002   8.550
 5411POPC   C2B15728   7.192  26.002   8.250
 5411POPC   C3B15729   7.177  26.002   7.950
 5411POPC   C4B15730   7.133  25.987   7.650
 5412POPC   NC315731  13.624  27.623   9.450
 5412POPC   PO415732  13.648  27.556   9.150
 5412POPC   GL115733  13.585  27.552   8.850
 5412POPC   GL215734  13.627  27.453   8.850
 5412POPC   C1A15735  13.676  27.580   8.550
 5412POPC   D2A15736  13.619  27.631   8.250
 5412POPC   C3A15737  13.584  27.616   7.950
 5412POPC   C4A15738  13.594  27.581   7.650
 5412POPC   C1B15739  13.659  27.368   8.550
 5412POPC   C2B15740  13.617  27.332   8.250
 5412POPC   C3B15741  13.659  27.309   7.950
 5412POPC   C4B15742  13.627  27.303   7.650
 5413POPC   NC315743  12.814  29.909   9.450
 5413POPC   PO415744  12.887  29.919   9.150
 5413POPC   GL115745  12.878  29.942   8.850
 5413POPC   GL215746  12.761  29.993   8.850
 5413POPC   C1A15747  12.803  29.916   8.550
 5413POPC   D2A15748  12.827  29.883   8.250
 5413POPC   C3A15749  12.897  29.920   7.950
 5413POPC   C4A15750  12.874  29.950   7.650
 5413POPC   C1B15751  12.577  29.993   8.550
 5413POPC   C2B15752  12.616  30.002   8.250
 5413POPC   C3B15753  12.605  29.942   7.950
 5413POPC   C4B15754  12.623  30.018   7.650
 5414POPC   NC315755  19.881  40.781   9.450
 5414POPC   PO415756  19.785  40.833   9.150
 5414POPC   GL115757  19.848  40.823   8.850
 5414POPC   GL215758  19.735  40.788   8.850
 5414POPC   C1A15759  19.868  40.802   8.550
 5414POPC   D2A15760  19.831  40.753   8.250
 5414POPC   C3A15761  19.827  40.812   7.950
 5414POPC   C4A15762  19.818  40.782   7.650
 5414POPC   C1B15763  19.551  40.702   8.550
 5414POPC   C2B15764  19.559  40.783   8.250
 5414POPC   C3B15765  19.588  40.721   7.950
 5414POPC   C4B15766  19.577  40.714   7.650
 5415POPC   NC315767  43.880   3.520   9.450
 5415POPC   PO415768  43.878   3.561   9.150
 5415POPC   GL115769  43.869   3.562   8.850
 5415POPC   GL215770  43.823   3.657   8.850
 5415POPC   C1A15771  43.849   3.508   8.550
 5415POPC   D2A15772  43.847   3.518   8.250
 5415POPC   C3A15773  43.853   3.562   7.950
 5415POPC   C4A15774  43.889   3.558   7.650
 5415POPC   C1B15775  43.669   3.710   8.550
 5415POPC   C2B15776  43.709   3.696   8.250
 5415POPC   C3B15777  43.727   3.714   7.950
 5415POPC   C4B15778  43.685   3.758   7.650
 5416POPC   NC315779  33.788  22.134   9.450
 5416POPC   PO415780  33.760  22.192   9.150
 5416POPC   GL115781  33.810  22.173   8.850
 5416POPC   GL215782  33.734  22.109   8.850
 5416POPC   C1A15783  33.846  22.159   8.550
 5416POPC   D2A15784  33.798  22.186   8.250
 5416POPC   C3A15785  33.813  22.116   7.950
 5416POPC   C4A15786  33.823  22.186   7.650
 5416POPC   C1B15787  33.678  21.939   8.550
 5416POPC   C2B15788  33.665  21.986   8.250
 5416POPC   C3B15789  33.593  21.932   7.950
 5416POPC   C4B15790  33.669  21.990   7.650
 5417POPC   NC315791   9.744  29.962   9.450
 5417POPC   PO415792   9.795  29.956   9.150
 5417POPC   GL115793   9.704  29.886   8.850
 5417POPC   GL215794   9.899  29.937   8.850
 5417POPC   C1A15795   9.701  29.906   8.550
 5417POPC   D2A15796   9.734  29.945   8.250
 5417POPC   C3A15797   9.734  29.936   7.950
 5417POPC   C4A15798   9.747  29.962   7.650
 5417POPC   C1B15799   9.940  30.014   8.550
 5417POPC   C2B15800   9.943  30.055   8.250
 5417POPC   C3B15801   9.967  30.033   7.950
 5417POPC   C4B15802   9.993  30.051   7.650
 5418POPC   NC315803  12.063  41.563   9.450
 5418POPC   PO415804  12.050  41.601   9.150
 5418POPC   GL115805  12.116  41.576   8.850
 5418POPC   GL215806  12.082  41.697   8.850
 5418POPC   C1A15807  12.069  41.579   8.550
 5418POPC   D2A15808  12.123  41.577   8.250
 5418POPC   C3A15809  12.035  41.522   7.950
 5418POPC   C4A15810  12.094  41.552   7.650
 5418POPC   C1B15811  12.141  41.747   8.550
 5418POPC   C2B15812  12.140  41.800   8.250
 5418POPC   C3B15813  12.165  41.816   7.950
 5418POPC   C4B15814  12.208  41.749   7.650
 5419POPC   NC315815   7.453  33.760   9.450
 5419POPC   PO415816   7.455  33.773   9.150
 5419POPC   GL115817   7.389  33.762   8.850
 5419POPC   GL215818   7.434  33.658   8.850
 5419POPC   C1A15819   7.380  33.821   8.550
 5419POPC   D2A15820   7.429  33.815   8.250
 5419POPC   C3A15821   7.378  33.776   7.950
 5419POPC   C4A15822   7.421  33.752   7.650
 5419POPC   C1B15823   7.396  33.519   8.550
 5419POPC   C2B15824   7.313  33.545   8.250
 5419POPC   C3B15825   7.391  33.558   7.950
 5419POPC   C4B15826   7.324  33.549   7.650
 5420POPC   NC315827  28.339   6.622   9.450
 5420POPC   PO415828  28.399   6.687   9.150
 5420POPC   GL115829  28.374   6.654   8.850
 5420POPC   GL215830  28.404   6.539   8.850
 5420POPC   C1A15831  28.415   6.657   8.550
 5420POPC   D2A15832  28.329   6.682   8.250
 5420POPC   C3A15833  28.352   6.597   7.950
 5420POPC   C4A15834  28.376   6.607   7.650
 5420POPC   C1B15835  28.366   6.371   8.550
 5420POPC   C2B15836  28.342   6.390   8.250
 5420POPC   C3B15837  28.352   6.437   7.950
 5420POPC   C4B15838  28.391   6.362   7.650
 5421POPC   NC315839  42.308  37.637   9.450
 5421POPC   PO415840  42.327  37.648   9.150
 5421POPC   GL115841  42.315  37.661   8.850
 5421POPC   GL215842  42.336  37.805   8.850
 5421POPC   C1A15843  42.325  37.677   8.550
 5421POPC   D2A15844  42.376  37.671   8.250
 5421POPC   C3A15845  42.292  37.674   7.950
 5421POPC   C4A15846  42.351  37.639   7.650
 5421POPC   C1B15847  42.394  37.881   8.550
 5421POPC   C2B15848  42.452  37.942   8.250
 5421POPC   C3B15849  42.369  37.938   7.950
 5421POPC   C4B15850  42.423  37.873   7.650
 5422POPC   NC315851  41.579   3.544   9.450
 5422POPC   PO415852  41.573   3.575   9.150
 5422POPC   GL115853  41.555   3.543   8.850
 5422POPC   GL215854  41.563   3.405   8.850
 5422POPC   C1A15855  41.603   3.548   8.550
 5422POPC   D2A15856  41.589   3.495   8.250
 5422POPC   C3A15857  41.544   3.578   7.950
 5422POPC   C4A15858  41.600   3.516   7.650
 5422POPC   C1B15859  41.493   3.307   8.550
 5422POPC   C2B15860  41.481   3.332   8.250
 5422POPC   C3B15861  41.493   3.301   7.950
 5422POPC   C4B15862  41.479   3.333   7.650
 5423POPC   NC315863  22.960  41.577   9.450
 5423POPC   PO415864  22.978  41.600   9.150
 5423POPC   GL115865  22.941  41.577   8.850
 5423POPC   GL215866  23.041  41.598   8.850
 5423POPC   C1A15867  22.904  41.556   8.550
 5423POPC   D2A15868  22.978  41.561   8.250
 5423POPC   C3A15869  22.948  41.551   7.950
 5423POPC   C4A15870  22.929  41.599   7.650
 5423POPC   C1B15871  23.141  41.677   8.550
 5423POPC   C2B15872  23.171  41.724   8.250
 5423POPC   C3B15873  23.194  41.634   7.950
 5423POPC   C4B15874  23.162  41.641   7.650
 5424POPC   NC315875   0.418  42.345   9.450
 5424POPC   PO415876   0.486  42.289   9.150
 5424POPC   GL115877   0.421  42.377   8.850
 5424POPC   GL215878   0.374  42.212   8.850
 5424POPC   C1A15879   0.448  42.354   8.550
 5424POPC   D2A15880   0.404  42.299   8.250
 5424POPC   C3A15881   0.476  42.357   7.950
 5424POPC   C4A15882   0.418  42.339   7.650
 5424POPC   C1B15883   0.306  42.151   8.550
 5424POPC   C2B15884   0.313  42.089   8.250
 5424POPC   C3B15885   0.356  42.155   7.950
 5424POPC   C4B15886   0.353  42.128   7.650
 5425POPC   NC315887   3.556  14.367   9.450
 5425POPC   PO415888   3.573  14.440   9.150
 5425POPC   GL115889   3.583  14.426   8.850
 5425POPC   GL215890   3.631  14.355   8.850
 5425POPC   C1A15891   3.523  14.384   8.550
 5425POPC   D2A15892   3.510  14.440   8.250
 5425POPC   C3A15893   3.579  14.430   7.950
 5425POPC   C4A15894   3.514  14.374   7.650
 5425POPC   C1B15895   3.800  14.318   8.550
 5425POPC   C2B15896   3.783  14.334   8.250
 5425POPC   C3B15897   3.744  14.261   7.950
 5425POPC   C4B15898   3.741  14.257   7.650
 5426POPC   NC315899   5.827  29.890   9.450
 5426POPC   PO415900   5.841  29.948   9.150
 5426POPC   GL115901   5.898  29.959   8.850
 5426POPC   GL215902   6.000  29.829   8.850
 5426POPC   C1A15903   5.894  29.899   8.550
 5426POPC   D2A15904   5.907  29.912   8.250
 5426POPC   C3A15905   5.873  29.902   7.950
 5426POPC   C4A15906   5.874  29.968   7.650
 5426POPC   C1B15907   6.071  29.791   8.550
 5426POPC   C2B15908   6.027  29.797   8.250
 5426POPC   C3B15909   6.004  29.765   7.950
 5426POPC   C4B15910   6.052  29.737   7.650
 5427POPC   NC315911  43.866  19.029   9.450
 5427POPC   PO415912  43.879  19.056   9.150
 5427POPC   GL115913  43.836  19.051   8.850
 5427POPC   GL215914  43.910  19.154   8.850
 5427POPC   C1A15915  43.845  19.082   8.550
 5427POPC   D2A15916  43.844  19.048   8.250
 5427POPC   C3A15917  43.842  19.077   7.950
 5427POPC   C4A15918  43.909  19.059   7.650
 5427POPC   C1B15919  43.885  19.319   8.550
 5427POPC   C2B15920  43.888  19.353   8.250
 5427POPC   C3B15921  43.904  19.318   7.950
 5427POPC   C4B15922  43.908  19.271   7.650
 5428POPC   NC315923  29.121  24.503   9.450
 5428POPC   PO415924  29.183  24.518   9.150
 5428POPC   GL115925  29.145  24.449   8.850
 5428POPC   GL215926  29.085  24.384   8.850
 5428POPC   C1A15927  29.178  24.514   8.550
 5428POPC   D2A15928  29.144  24.496   8.250
 5428POPC   C3A15929  29.175  24.457   7.950
 5428POPC   C4A15930  29.148  24.488   7.650
 5428POPC   C1B15931  29.103  24.205   8.550
 5428POPC   C2B15932  29.038  24.253   8.250
 5428POPC   C3B15933  29.090  24.223   7.950
 5428POPC   C4B15934  29.066  24.242   7.650
 5429POPC   NC315935  18.302   4.344   9.450
 5429POPC   PO415936  18.313   4.316   9.150
 5429POPC   GL115937  18.260   4.345   8.850
 5429POPC   GL215938  18.149   4.406   8.850
 5429POPC   C1A15939  18.253   4.359   8.550
 5429POPC   D2A15940  18.238   4.360   8.250
 5429POPC   C3A15941  18.287   4.364   7.950
 5429POPC   C4A15942  18.299   4.307   7.650
 5429POPC   C1B15943  18.046   4.463   8.550
 5429POPC   C2B15944  18.069   4.453   8.250
 5429POPC   C3B15945  18.076   4.406   7.950
 5429POPC   C4B15946  18.075   4.403   7.650
 5430POPC   NC315947   2.018  10.529   9.450
 5430POPC   PO415948   1.996  10.527   9.150
 5430POPC   GL115949   2.017  10.500   8.850
 5430POPC   GL215950   2.140  10.619   8.850
 5430POPC   C1A15951   1.983  10.478   8.550
 5430POPC   D2A15952   2.031  10.540   8.250
 5430POPC   C3A15953   1.983  10.528   7.950
 5430POPC   C4A15954   2.021  10.482   7.650
 5430POPC   C1B15955   2.223  10.607   8.550
 5430POPC   C2B15956   2.155  10.703   8.250
 5430POPC   C3B15957   2.246  10.613   7.950
 5430POPC   C4B15958   2.249  10.654   7.650
 5431POPC   NC315959  32.231   1.214   9.450
 5431POPC   PO415960  32.287   1.175   9.150
 5431POPC   GL115961  32.248   1.171   8.850
 5431POPC   GL215962  32.375   1.091   8.850
 5431POPC   C1A15963  32.251   1.246   8.550
 5431POPC   D2A15964  32.201   1.203   8.250
 5431POPC   C3A15965  32.293   1.220   7.950
 5431POPC   C4A15966  32.222   1.197   7.650
 5431POPC   C1B15967  32.460   1.066   8.550
 5431POPC   C2B15968  32.409   1.093   8.250
 5431POPC   C3B15969  32.458   1.008   7.950
 5431POPC   C4B15970  32.489   1.100   7.650
 5432POPC   NC315971   0.395  20.654   9.450
 5432POPC   PO415972   0.455  20.646   9.150
 5432POPC   GL115973   0.402  20.561   8.850
 5432POPC   GL215974   0.570  20.567   8.850
 5432POPC   C1A15975   0.461  20.659   8.550
 5432POPC   D2A15976   0.400  20.647   8.250
 5432POPC   C3A15977   0.444  20.568   7.950
 5432POPC   C4A15978   0.417  20.599   7.650
 5432POPC   C1B15979   0.675  20.568   8.550
 5432POPC   C2B15980   0.641  20.500   8.250
 5432POPC   C3B15981   0.717  20.562   7.950
 5432POPC   C4B15982   0.650  20.509   7.650
 5433POPC   NC315983   3.571  11.342   9.450
 5433POPC   PO415984   3.545  11.339   9.150
 5433POPC   GL115985   3.496  11.273   8.850
 5433POPC   GL215986   3.437  11.318   8.850
 5433POPC   C1A15987   3.559  11.281   8.550
 5433POPC   D2A15988   3.537  11.345   8.250
 5433POPC   C3A15989   3.583  11.333   7.950
 5433POPC   C4A15990   3.543  11.266   7.650
 5433POPC   C1B15991   3.314  11.287   8.550
 5433POPC   C2B15992   3.313  11.306   8.250
 5433POPC   C3B15993   3.305  11.333   7.950
 5433POPC   C4B15994   3.274  11.292   7.650
 5434POPC   NC315995  11.280  17.515   9.450
 5434POPC   PO415996  11.285  17.540   9.150
 5434POPC   GL115997  11.334  17.491   8.850
 5434POPC   GL215998  11.258  17.597   8.850
 5434POPC   C1A15999  11.291  17.527   8.550
 5434POPC   D2A16000  11.255  17.534   8.250
 5434POPC   C3A16001  11.276  17.516   7.950
 5434POPC   C4A16002  11.261  17.552   7.650
 5434POPC   C1B16003  11.147  17.730   8.550
 5434POPC   C2B16004  11.144  17.750   8.250
 5434POPC   C3B16005  11.187  17.712   7.950
 5434POPC   C4B16006  11.197  17.710   7.650
 5435POPC   NC316007  23.712   5.833   9.450
 5435POPC   PO416008  23.705   5.821   9.150
 5435POPC   GL116009  23.667   5.907   8.850
 5435POPC   GL216010  23.612   6.001   8.850
 5435POPC   C1A16011  23.725   5.822   8.550
 5435POPC   D2A16012  23.764   5.826   8.250
 5435POPC   C3A16013  23.703   5.819   7.950
 5435POPC   C4A16014  23.741   5.854   7.650
 5435POPC   C1B16015  23.603   6.065   8.550
 5435POPC   C2B16016  23.578   6.082   8.250
 5435POPC   C3B16017  23.546   6.038   7.950
 5435POPC   C4B16018  23.548   6.064   7.650
 5436POPC   NC316019   2.731  44.687   9.450
 5436POPC   PO416020   2.740  44.679   9.150
 5436POPC   GL116021   2.746  44.699   8.850
 5436POPC   GL216022   2.669  44.754   8.850
 5436POPC   C1A16023   2.757  44.626   8.550
 5436POPC   D2A16024   2.787  44.683   8.250
 5436POPC   C3A16025   2.779  44.688   7.950
 5436POPC   C4A16026   2.811  44.657   7.650
 5436POPC   C1B16027   2.583  44.827   8.550
 5436POPC   C2B16028   2.602  44.867   8.250
 5436POPC   C3B16029   2.576  44.831   7.950
 5436POPC   C4B16030   2.614  44.897   7.650
 5437POPC   NC316031   2.022  33.003   9.450
 5437POPC   PO416032   2.034  33.007   9.150
 5437POPC   GL116033   2.034  33.012   8.850
 5437POPC   GL216034   2.023  33.139   8.850
 5437POPC   C1A16035   1.941  33.065   8.550
 5437POPC   D2A16036   1.978  33.024   8.250
 5437POPC   C3A16037   2.030  33.000   7.950
 5437POPC   C4A16038   2.028  33.053   7.650
 5437POPC   C1B16039   2.066  33.246   8.550
 5437POPC   C2B16040   2.151  33.252   8.250
 5437POPC   C3B16041   2.104  33.192   7.950
 5437POPC   C4B16042   2.088  33.242   7.650
 5438POPC   NC316043  19.069  19.842   9.450
 5438POPC   PO416044  19.088  19.819   9.150
 5438POPC   GL116045  19.022  19.863   8.850
 5438POPC   GL216046  19.118  19.923   8.850
 5438POPC   C1A16047  19.086  19.859   8.550
 5438POPC   D2A16048  19.085  19.807   8.250
 5438POPC   C3A16049  19.094  19.820   7.950
 5438POPC   C4A16050  19.027  19.870   7.650
 5438POPC   C1B16051  19.146  20.078   8.550
 5438POPC   C2B16052  19.126  20.065   8.250
 5438POPC   C3B16053  19.160  20.054   7.950
 5438POPC   C4B16054  19.148  20.045   7.650
 5439POPC   NC316055   0.391   1.985   9.450
 5439POPC   PO416056   0.407   1.977   9.150
 5439POPC   GL116057   0.464   2.013   8.850
 5439POPC   GL216058   0.438   1.848   8.850
 5439POPC   C1A16059   0.478   1.976   8.550
 5439POPC   D2A16060   0.425   1.946   8.250
 5439POPC   C3A16061   0.403   2.018   7.950
 5439POPC   C4A16062   0.460   1.965   7.650
 5439POPC   C1B16063   0.359   1.733   8.550
 5439POPC   C2B16064   0.328   1.791   8.250
 5439POPC   C3B16065   0.364   1.782   7.950
 5439POPC   C4B16066   0.335   1.736   7.650
 5440POPC   NC316067  18.278   7.432   9.450
 5440POPC   PO416068  18.316   7.424   9.150
 5440POPC   GL116069  18.283   7.397   8.850
 5440POPC   GL216070  18.416   7.421   8.850
 5440POPC   C1A16071  18.276   7.436   8.550
 5440POPC   D2A16072  18.275   7.465   8.250
 5440POPC   C3A16073  18.234   7.389   7.950
 5440POPC   C4A16074  18.315   7.392   7.650
 5440POPC   C1B16075  18.543   7.366   8.550
 5440POPC   C2B16076  18.499   7.343   8.250
 5440POPC   C3B16077  18.513   7.363   7.950
 5440POPC   C4B16078  18.564   7.352   7.650
 5441POPC   NC316079  16.733  28.334   9.450
 5441POPC   PO416080  16.692  28.417   9.150
 5441POPC   GL116081  16.697  28.403   8.850
 5441POPC   GL216082  16.799  28.442   8.850
 5441POPC   C1A16083  16.729  28.417   8.550
 5441POPC   D2A16084  16.768  28.396   8.250
 5441POPC   C3A16085  16.735  28.369   7.950
 5441POPC   C4A16086  16.700  28.405   7.650
 5441POPC   C1B16087  16.927  28.499   8.550
 5441POPC   C2B16088  16.929  28.573   8.250
 5441POPC   C3B16089  16.874  28.523   7.950
 5441POPC   C4B16090  16.930  28.515   7.650
 5442POPC   NC316091  31.450  23.710   9.450
 5442POPC   PO416092  31.509  23.728   9.150
 5442POPC   GL116093  31.440  23.675   8.850
 5442POPC   GL216094  31.458  23.642   8.850
 5442POPC   C1A16095  31.431  23.724   8.550
 5442POPC   D2A16096  31.508  23.750   8.250
 5442POPC   C3A16097  31.426  23.754   7.950
 5442POPC   C4A16098  31.426  23.763   7.650
 5442POPC   C1B16099  31.555  23.471   8.550
 5442POPC   C2B16100  31.566  23.475   8.250
 5442POPC   C3B16101  31.546  23.421   7.950
 5442POPC   C4B16102  31.481  23.485   7.650
 5443POPC   NC316103  42.360  22.984   9.450
 5443POPC   PO416104  42.329  22.957   9.150
 5443POPC   GL116105  42.365  22.950   8.850
 5443POPC   GL216106  42.245  22.809   8.850
 5443POPC   C1A16107  42.313  22.981   8.550
 5443POPC   D2A16108  42.359  22.971   8.250
 5443POPC   C3A16109  42.330  22.895   7.950
 5443POPC   C4A16110  42.376  22.974   7.650
 5443POPC   C1B16111  42.111  22.800   8.550
 5443POPC   C2B16112  42.133  22.776   8.250
 5443POPC   C3B16113  42.109  22.712   7.950
 5443POPC   C4B16114  42.170  22.798   7.650
 5444POPC   NC316115  22.116  23.764   9.450
 5444POPC   PO416116  22.162  23.712   9.150
 5444POPC   GL116117  22.174  23.703   8.850
 5444POPC   GL216118  22.022  23.671   8.850
 5444POPC   C1A16119  22.194  23.691   8.550
 5444POPC   D2A16120  22.126  23.695   8.250
 5444POPC   C3A16121  22.156  23.690   7.950
 5444POPC   C4A16122  22.183  23.756   7.650
 5444POPC   C1B16123  21.916  23.653   8.550
 5444POPC   C2B16124  21.925  23.651   8.250
 5444POPC   C3B16125  21.940  23.571   7.950
 5444POPC   C4B16126  21.887  23.625   7.650
 5445POPC   NC316127   5.862   9.009   9.450
 5445POPC   PO416128   5.870   8.925   9.150
 5445POPC   GL116129   5.840   8.955   8.850
 5445POPC   GL216130   5.878   8.867   8.850
 5445POPC   C1A16131   5.904   9.000   8.550
 5445POPC   D2A16132   5.882   8.990   8.250
 5445POPC   C3A16133   5.887   9.007   7.950
 5445POPC   C4A16134   5.852   8.934   7.650
 5445POPC   C1B16135   5.896   8.738   8.550
 5445POPC   C2B16136   5.913   8.773   8.250
 5445POPC   C3B16137   5.859   8.771   7.950
 5445POPC   C4B16138   5.909   8.706   7.650
 5446POPC   NC316139  33.034  19.064   9.450
 5446POPC   PO416140  33.065  19.014   9.150
 5446POPC   GL116141  32.992  19.021   8.850
 5446POPC   GL216142  33.084  18.934   8.850
 5446POPC   C1A16143  33.029  19.044   8.550
 5446POPC   D2A16144  33.008  19.062   8.250
 5446POPC   C3A16145  33.042  19.019   7.950
 5446POPC   C4A16146  33.062  19.092   7.650
 5446POPC   C1B16147  33.187  18.835   8.550
 5446POPC   C2B16148  33.189  18.898   8.250
 5446POPC   C3B16149  33.158  18.876   7.950
 5446POPC   C4B16150  33.219  18.834   7.650
 5447POPC   NC316151  34.529  13.607   9.450
 5447POPC   PO416152  34.548  13.584   9.150
 5447POPC   GL116153  34.572  13.591   8.850
 5447POPC   GL216154  34.453  13.568   8.850
 5447POPC   C1A16155  34.543  13.633   8.550
 5447POPC   D2A16156  34.606  13.652   8.250
 5447POPC   C3A16157  34.607  13.613   7.950
 5447POPC   C4A16158  34.568  13.591   7.650
 5447POPC   C1B16159  34.406  13.497   8.550
 5447POPC   C2B16160  34.447  13.498   8.250
 5447POPC   C3B16161  34.360  13.407   7.950
 5447POPC   C4B16162  34.421  13.463   7.650
 5448POPC   NC316163   9.781  30.657   9.450
 5448POPC   PO416164   9.718  30.716   9.150
 5448POPC   GL116165   9.717  30.729   8.850
 5448POPC   GL216166   9.677  30.640   8.850
 5448POPC   C1A16167   9.709  30.662   8.550
 5448POPC   D2A16168   9.714  30.662   8.250
 5448POPC   C3A16169   9.780  30.739   7.950
 5448POPC   C4A16170   9.711  30.716   7.650
 5448POPC   C1B16171   9.577  30.504   8.550
 5448POPC   C2B16172   9.531  30.569   8.250
 5448POPC   C3B16173   9.551  30.553   7.950
 5448POPC   C4B16174   9.546  30.527   7.650
 5449POPC   NC316175  41.554  43.908   9.450
 5449POPC   PO416176  41.560  43.845   9.150
 5449POPC   GL116177  41.581  43.880   8.850
 5449POPC   GL216178  41.634  43.885   8.850
 5449POPC   C1A16179  41.513  43.896   8.550
 5449POPC   D2A16180  41.566  43.920   8.250
 5449POPC   C3A16181  41.576  43.858   7.950
 5449POPC   C4A16182  41.527  43.900   7.650
 5449POPC   C1B16183  41.832  43.932   8.550
 5449POPC   C2B16184  41.818  43.944   8.250
 5449POPC   C3B16185  41.835  43.969   7.950
 5449POPC   C4B16186  41.791  43.961   7.650
 5450POPC   NC316187  17.511  16.714   9.450
 5450POPC   PO416188  17.512  16.727   9.150
 5450POPC   GL116189  17.543  16.729   8.850
 5450POPC   GL216190  17.556  16.682   8.850
 5450POPC   C1A16191  17.519  16.742   8.550
 5450POPC   D2A16192  17.458  16.703   8.250
 5450POPC   C3A16193  17.533  16.763   7.950
 5450POPC   C4A16194  17.514  16.768   7.650
 5450POPC   C1B16195  17.677  16.559   8.550
 5450POPC   C2B16196  17.729  16.610   8.250
 5450POPC   C3B16197  17.748  16.535   7.950
 5450POPC   C4B16198  17.663  16.591   7.650
 5451POPC   NC316199  40.053  13.582   9.450
 5451POPC   PO416200  40.051  13.605   9.150
 5451POPC   GL116201  40.020  13.614   8.850
 5451POPC   GL216202  39.917  13.661   8.850
 5451POPC   C1A16203  40.052  13.667   8.550
 5451POPC   D2A16204  40.054  13.600   8.250
 5451POPC   C3A16205  39.992  13.579   7.950
 5451POPC   C4A16206  39.999  13.623   7.650
 5451POPC   C1B16207  39.761  13.724   8.550
 5451POPC   C2B16208  39.746  13.670   8.250
 5451POPC   C3B16209  39.788  13.746   7.950
 5451POPC   C4B16210  39.779  13.664   7.650
 5452POPC   NC316211  20.571  36.135   9.450
 5452POPC   PO416212  20.651  36.171   9.150
 5452POPC   GL116213  20.569  36.125   8.850
 5452POPC   GL216214  20.518  36.246   8.850
 5452POPC   C1A16215  20.636  36.137   8.550
 5452POPC   D2A16216  20.562  36.129   8.250
 5452POPC   C3A16217  20.629  36.101   7.950
 5452POPC   C4A16218  20.610  36.105   7.650
 5452POPC   C1B16219  20.458  36.246   8.550
 5452POPC   C2B16220  20.452  36.253   8.250
 5452POPC   C3B16221  20.443  36.311   7.950
 5452POPC   C4B16222  20.462  36.309   7.650
 5453POPC   NC316223  44.672   2.019   9.450
 5453POPC   PO416224  44.628   2.014   9.150
 5453POPC   GL116225  44.690   2.034   8.850
 5453POPC   GL216226  44.737   2.026   8.850
 5453POPC   C1A16227  44.693   2.009   8.550
 5453POPC   D2A16228  44.677   1.959   8.250
 5453POPC   C3A16229  44.700   1.976   7.950
 5453POPC   C4A16230  44.631   1.997   7.650
 5453POPC   C1B16231  44.879   2.187   8.550
 5453POPC   C2B16232  44.853   2.153   8.250
 5453POPC   C3B16233  44.854   2.096   7.950
 5453POPC   C4B16234  44.853   2.142   7.650
 5454POPC   NC316235  42.373  39.975   9.450
 5454POPC   PO416236  42.299  40.053   9.150
 5454POPC   GL116237  42.290  39.968   8.850
 5454POPC   GL216238  42.425  39.916   8.850
 5454POPC   C1A16239  42.355  39.986   8.550
 5454POPC   D2A16240  42.337  39.977   8.250
 5454POPC   C3A16241  42.328  39.962   7.950
 5454POPC   C4A16242  42.293  40.000   7.650
 5454POPC   C1B16243  42.423  39.761   8.550
 5454POPC   C2B16244  42.458  39.743   8.250
 5454POPC   C3B16245  42.424  39.732   7.950
 5454POPC   C4B16246  42.466  39.796   7.650
 5455POPC   NC316247  19.851  41.592   9.450
 5455POPC   PO416248  19.798  41.514   9.150
 5455POPC   GL116249  19.877  41.532   8.850
 5455POPC   GL216250  19.921  41.471   8.850
 5455POPC   C1A16251  19.804  41.528   8.550
 5455POPC   D2A16252  19.854  41.520   8.250
 5455POPC   C3A16253  19.799  41.554   7.950
 5455POPC   C4A16254  19.874  41.513   7.650
 5455POPC   C1B16255  20.046  41.386   8.550
 5455POPC   C2B16256  19.991  41.383   8.250
 5455POPC   C3B16257  20.041  41.449   7.950
 5455POPC   C4B16258  20.036  41.417   7.650
 5456POPC   NC316259  35.333  43.902   9.450
 5456POPC   PO416260  35.343  43.908   9.150
 5456POPC   GL116261  35.388  43.869   8.850
 5456POPC   GL216262  35.383  43.742   8.850
 5456POPC   C1A16263  35.331  43.860   8.550
 5456POPC   D2A16264  35.371  43.915   8.250
 5456POPC   C3A16265  35.351  43.868   7.950
 5456POPC   C4A16266  35.346  43.898   7.650
 5456POPC   C1B16267  35.439  43.592   8.550
 5456POPC   C2B16268  35.380  43.606   8.250
 5456POPC   C3B16269  35.415  43.680   7.950
 5456POPC   C4B16270  35.403  43.619   7.650
 5457POPC   NC316271   4.290  13.602   9.450
 5457POPC   PO416272   4.274  13.620   9.150
 5457POPC   GL116273   4.293  13.676   8.850
 5457POPC   GL216274   4.247  13.495   8.850
 5457POPC   C1A16275   4.335  13.624   8.550
 5457POPC   D2A16276   4.339  13.641   8.250
 5457POPC   C3A16277   4.310  13.667   7.950
 5457POPC   C4A16278   4.328  13.578   7.650
 5457POPC   C1B16279   4.260  13.348   8.550
 5457POPC   C2B16280   4.260  13.406   8.250
 5457POPC   C3B16281   4.206  13.437   7.950
 5457POPC   C4B16282   4.222  13.391   7.650
 5458POPC   NC316283  20.601  22.980   9.450
 5458POPC   PO416284  20.655  22.953   9.150
 5458POPC   GL116285  20.641  22.916   8.850
 5458POPC   GL216286  20.534  22.869   8.850
 5458POPC   C1A16287  20.632  22.949   8.550
 5458POPC   D2A16288  20.574  22.955   8.250
 5458POPC   C3A16289  20.590  22.951   7.950
 5458POPC   C4A16290  20.632  22.947   7.650
 5458POPC   C1B16291  20.436  22.795   8.550
 5458POPC   C2B16292  20.480  22.793   8.250
 5458POPC   C3B16293  20.390  22.745   7.950
 5458POPC   C4B16294  20.479  22.794   7.650
 5459POPC   NC316295  35.355   5.100   9.450
 5459POPC   PO416296  35.347   5.098   9.150
 5459POPC   GL116297  35.387   5.052   8.850
 5459POPC   GL216298  35.219   5.059   8.850
 5459POPC   C1A16299  35.356   5.069   8.550
 5459POPC   D2A16300  35.363   5.112   8.250
 5459POPC   C3A16301  35.381   5.136   7.950
 5459POPC   C4A16302  35.308   5.112   7.650
 5459POPC   C1B16303  35.090   4.997   8.550
 5459POPC   C2B16304  35.169   4.955   8.250
 5459POPC   C3B16305  35.158   4.948   7.950
 5459POPC   C4B16306  35.136   4.982   7.650
 5460POPC   NC316307  30.725  36.108   9.450
 5460POPC   PO416308  30.700  36.113   9.150
 5460POPC   GL116309  30.652  36.156   8.850
 5460POPC   GL216310  30.786  36.107   8.850
 5460POPC   C1A16311  30.654  36.125   8.550
 5460POPC   D2A16312  30.680  36.114   8.250
 5460POPC   C3A16313  30.723  36.119   7.950
 5460POPC   C4A16314  30.734  36.139   7.650
 5460POPC   C1B16315  30.977  36.063   8.550
 5460POPC   C2B16316  30.894  36.029   8.250
 5460POPC   C3B16317  30.939  36.076   7.950
 5460POPC   C4B16318  30.941  36.033   7.650
 5461POPC   NC316319  36.110   0.410   9.450
 5461POPC   PO416320  36.080   0.487   9.150
 5461POPC   GL116321  36.103   0.441   8.850
 5461POPC   GL216322  36.087   0.327   8.850
 5461POPC   C1A16323  36.158   0.463   8.550
 5461POPC   D2A16324  36.135   0.437   8.250
 5461POPC   C3A16325  36.087   0.409   7.950
 5461POPC   C4A16326  36.143   0.477   7.650
 5461POPC   C1B16327  36.090   0.178   8.550
 5461POPC   C2B16328  36.136   0.142   8.250
 5461POPC   C3B16329  36.183   0.211   7.950
 5461POPC   C4B16330  36.179   0.186   7.650
 5462POPC   NC316331  41.599   6.656   9.450
 5462POPC   PO416332  41.514   6.666   9.150
 5462POPC   GL116333  41.596   6.662   8.850
 5462POPC   GL216334  41.612   6.523   8.850
 5462POPC   C1A16335  41.579   6.621   8.550
 5462POPC   D2A16336  41.589   6.647   8.250
 5462POPC   C3A16337  41.595   6.612   7.950
 5462POPC   C4A16338  41.578   6.645   7.650
 5462POPC   C1B16339  41.671   6.437   8.550
 5462POPC   C2B16340  41.668   6.440   8.250
 5462POPC   C3B16341  41.696   6.435   7.950
 5462POPC   C4B16342  41.689   6.474   7.650
 5463POPC   NC316343  28.395   7.399   9.450
 5463POPC   PO416344  28.333   7.436   9.150
 5463POPC   GL116345  28.370   7.449   8.850
 5463POPC   GL216346  28.456   7.385   8.850
 5463POPC   C1A16347  28.365   7.439   8.550
 5463POPC   D2A16348  28.331   7.422   8.250
 5463POPC   C3A16349  28.401   7.396   7.950
 5463POPC   C4A16350  28.321   7.372   7.650
 5463POPC   C1B16351  28.568   7.224   8.550
 5463POPC   C2B16352  28.553   7.279   8.250
 5463POPC   C3B16353  28.537   7.249   7.950
 5463POPC   C4B16354  28.600   7.234   7.650
 5464POPC   NC316355   8.966  36.860   9.450
 5464POPC   PO416356   8.984  36.934   9.150
 5464POPC   GL116357   8.953  36.937   8.850
 5464POPC   GL216358   8.807  36.864   8.850
 5464POPC   C1A16359   8.949  36.945   8.550
 5464POPC   D2A16360   9.007  36.890   8.250
 5464POPC   C3A16361   8.983  36.864   7.950
 5464POPC   C4A16362   8.932  36.870   7.650
 5464POPC   C1B16363   8.735  36.902   8.550
 5464POPC   C2B16364   8.698  36.937   8.250
 5464POPC   C3B16365   8.675  36.906   7.950
 5464POPC   C4B16366   8.679  36.894   7.650
 5465POPC   NC316367  31.477   5.076   9.450
 5465POPC   PO416368  31.442   5.079   9.150
 5465POPC   GL116369  31.484   5.073   8.850
 5465POPC   GL216370  31.546   5.092   8.850
 5465POPC   C1A16371  31.436   5.092   8.550
 5465POPC   D2A16372  31.521   5.121   8.250
 5465POPC   C3A16373  31.449   5.134   7.950
 5465POPC   C4A16374  31.472   5.112   7.650
 5465POPC   C1B16375  31.695   4.986   8.550
 5465POPC   C2B16376  31.742   4.961   8.250
 5465POPC   C3B16377  31.733   4.993   7.950
 5465POPC   C4B16378  31.754   5.020   7.650
 5466POPC   NC316379  20.655   3.552   9.450
 5466POPC   PO416380  20.641   3.529   9.150
 5466POPC   GL116381  20.605   3.541   8.850
 5466POPC   GL216382  20.552   3.468   8.850
 5466POPC   C1A16383  20.647   3.582   8.550
 5466POPC   D2A16384  20.643   3.518   8.250
 5466POPC   C3A16385  20.601   3.586   7.950
 5466POPC   C4A16386  20.625   3.553   7.650
 5466POPC   C1B16387  20.408   3.367   8.550
 5466POPC   C2B16388  20.404   3.438   8.250
 5466POPC   C3B16389  20.405   3.354   7.950
 5466POPC   C4B16390  20.445   3.434   7.650
 5467POPC   NC316391   8.185   4.313   9.450
 5467POPC   PO416392   8.213   4.302   9.150
 5467POPC   GL116393   8.161   4.284   8.850
 5467POPC   GL216394   8.271   4.470   8.850
 5467POPC   C1A16395   8.227   4.278   8.550
 5467POPC   D2A16396   8.198   4.304   8.250
 5467POPC   C3A16397   8.157   4.318   7.950
 5467POPC   C4A16398   8.189   4.327   7.650
 5467POPC   C1B16399   8.330   4.597   8.550
 5467POPC   C2B16400   8.317   4.507   8.250
 5467POPC   C3B16401   8.267   4.572   7.950
 5467POPC   C4B16402   8.265   4.536   7.650
 5468POPC   NC316403  36.150  39.228   9.450
 5468POPC   PO416404  36.153  39.218   9.150
 5468POPC   GL116405  36.168  39.236   8.850
 5468POPC   GL216406  36.232  39.162   8.850
 5468POPC   C1A16407  36.102  39.236   8.550
 5468POPC   D2A16408  36.101  39.250   8.250
 5468POPC   C3A16409  36.168  39.224   7.950
 5468POPC   C4A16410  36.092  39.238   7.650
 5468POPC   C1B16411  36.239  39.060   8.550
 5468POPC   C2B16412  36.250  39.046   8.250
 5468POPC   C3B16413  36.327  39.021   7.950
 5468POPC   C4B16414  36.298  39.068   7.650
 5469POPC   NC316415   9.714  29.127   9.450
 5469POPC   PO416416   9.720  29.152   9.150
 5469POPC   GL116417   9.761  29.142   8.850
 5469POPC   GL216418   9.691  29.023   8.850
 5469POPC   C1A16419   9.711  29.107   8.550
 5469POPC   D2A16420   9.699  29.112   8.250
 5469POPC   C3A16421   9.779  29.114   7.950
 5469POPC   C4A16422   9.710  29.159   7.650
 5469POPC   C1B16423   9.664  28.869   8.550
 5469POPC   C2B16424   9.623  28.944   8.250
 5469POPC   C3B16425   9.703  28.867   7.950
 5469POPC   C4B16426   9.687  28.944   7.650
 5470POPC   NC316427  27.602  10.506   9.450
 5470POPC   PO416428  27.594  10.480   9.150
 5470POPC   GL116429  27.560  10.515   8.850
 5470POPC   GL216430  27.477  10.482   8.850
 5470POPC   C1A16431  27.596  10.503   8.550
 5470POPC   D2A16432  27.581  10.520   8.250
 5470POPC   C3A16433  27.594  10.487   7.950
 5470POPC   C4A16434  27.639  10.553   7.650
 5470POPC   C1B16435  27.368  10.406   8.550
 5470POPC   C2B16436  27.366  10.462   8.250
 5470POPC   C3B16437  27.345  10.460   7.950
 5470POPC   C4B16438  27.346  10.416   7.650
 5471POPC   NC316439  17.544  36.161   9.450
 5471POPC   PO416440  17.550  36.154   9.150
 5471POPC   GL116441  17.490  36.122   8.850
 5471POPC   GL216442  17.342  36.163   8.850
 5471POPC   C1A16443  17.524  36.092   8.550
 5471POPC   D2A16444  17.465  36.115   8.250
 5471POPC   C3A16445  17.462  36.090   7.950
 5471POPC   C4A16446  17.494  36.085   7.650
 5471POPC   C1B16447  17.314  36.229   8.550
 5471POPC   C2B16448  17.311  36.156   8.250
 5471POPC   C3B16449  17.294  36.147   7.950
 5471POPC   C4B16450  17.247  36.184   7.650
 5472POPC   NC316451  36.164   3.514   9.450
 5472POPC   PO416452  36.157   3.562   9.150
 5472POPC   GL116453  36.141   3.573   8.850
 5472POPC   GL216454  35.987   3.435   8.850
 5472POPC   C1A16455  36.127   3.539   8.550
 5472POPC   D2A16456  36.101   3.524   8.250
 5472POPC   C3A16457  36.131   3.559   7.950
 5472POPC   C4A16458  36.128   3.540   7.650
 5472POPC   C1B16459  35.983   3.422   8.550
 5472POPC   C2B16460  35.959   3.375   8.250
 5472POPC   C3B16461  35.890   3.426   7.950
 5472POPC   C4B16462  35.981   3.348   7.650
 5473POPC   NC316463  35.349  30.714   9.450
 5473POPC   PO416464  35.313  30.681   9.150
 5473POPC   GL116465  35.351  30.711   8.850
 5473POPC   GL216466  35.314  30.827   8.850
 5473POPC   C1A16467  35.346  30.730   8.550
 5473POPC   D2A16468  35.342  30.735   8.250
 5473POPC   C3A16469  35.303  30.701   7.950
 5473POPC   C4A16470  35.335  30.686   7.650
 5473POPC   C1B16471  35.288  30.949   8.550
 5473POPC   C2B16472  35.290  30.955   8.250
 5473POPC   C3B16473  35.284  30.973   7.950
 5473POPC   C4B16474  35.235  30.982   7.650
 5474POPC   NC316475  11.330  15.994   9.450
 5474POPC   PO416476  11.325  15.921   9.150
 5474POPC   GL116477  11.296  15.940   8.850
 5474POPC   GL216478  11.401  15.933   8.850
 5474POPC   C1A16479  11.335  15.995   8.550
 5474POPC   D2A16480  11.320  15.983   8.250
 5474POPC   C3A16481  11.323  15.946   7.950
 5474POPC   C4A16482  11.254  15.960   7.650
 5474POPC   C1B16483  11.580  15.922   8.550
 5474POPC   C2B16484  11.571  15.889   8.250
 5474POPC   C3B16485  11.579  15.897   7.950
 5474POPC   C4B16486  11.536  15.834   7.650
 5475POPC   NC316487  18.323  11.302   9.450
 5475POPC   PO416488  18.245  11.336   9.150
 5475POPC   GL116489  18.291  11.279   8.850
 5475POPC   GL216490  18.343  11.434   8.850
 5475POPC   C1A16491  18.297  11.283   8.550
 5475POPC   D2A16492  18.254  11.252   8.250
 5475POPC   C3A16493  18.313  11.260   7.950
 5475POPC   C4A16494  18.234  11.264   7.650
 5475POPC   C1B16495  18.388  11.474   8.550
 5475POPC   C2B16496  18.399  11.495   8.250
 5475POPC   C3B16497  18.396  11.481   7.950
 5475POPC   C4B16498  18.423  11.527   7.650
 5476POPC   NC316499  43.914  33.072   9.450
 5476POPC   PO416500  43.850  33.004   9.150
 5476POPC   GL116501  43.840  32.985   8.850
 5476POPC   GL216502  44.005  32.955   8.850
 5476POPC   C1A16503  43.899  32.981   8.550
 5476POPC   D2A16504  43.851  32.981   8.250
 5476POPC   C3A16505  43.879  33.013   7.950
 5476POPC   C4A16506  43.838  33.054   7.650
 5476POPC   C1B16507  44.125  32.889   8.550
 5476POPC   C2B16508  44.075  32.833   8.250
 5476POPC   C3B16509  44.059  32.907   7.950
 5476POPC   C4B16510  44.046  32.843   7.650
 5477POPC   NC316511  23.714  17.528   9.450
 5477POPC   PO416512  23.732  17.503   9.150
 5477POPC   GL116513  23.721  17.466   8.850
 5477POPC   GL216514  23.777  17.378   8.850
 5477POPC   C1A16515  23.700  17.548   8.550
 5477POPC   D2A16516  23.671  17.520   8.250
 5477POPC   C3A16517  23.709  17.525   7.950
 5477POPC   C4A16518  23.759  17.478   7.650
 5477POPC   C1B16519  23.848  17.261   8.550
 5477POPC   C2B16520  23.851  17.331   8.250
 5477POPC   C3B16521  23.809  17.280   7.950
 5477POPC   C4B16522  23.869  17.282   7.650
 5478POPC   NC316523  39.222  37.668   9.450
 5478POPC   PO416524  39.189  37.664   9.150
 5478POPC   GL116525  39.251  37.713   8.850
 5478POPC   GL216526  39.216  37.775   8.850
 5478POPC   C1A16527  39.223  37.651   8.550
 5478POPC   D2A16528  39.188  37.666   8.250
 5478POPC   C3A16529  39.250  37.692   7.950
 5478POPC   C4A16530  39.195  37.691   7.650
 5478POPC   C1B16531  39.248  37.936   8.550
 5478POPC   C2B16532  39.227  37.929   8.250
 5478POPC   C3B16533  39.279  37.957   7.950
 5478POPC   C4B16534  39.303  37.963   7.650
 5479POPC   NC316535  17.480  19.107   9.450
 5479POPC   PO416536  17.550  19.089   9.150
 5479POPC   GL116537  17.471  19.030   8.850
 5479POPC   GL216538  17.398  19.002   8.850
 5479POPC   C1A16539  17.539  19.078   8.550
 5479POPC   D2A16540  17.479  19.091   8.250
 5479POPC   C3A16541  17.468  19.062   7.950
 5479POPC   C4A16542  17.554  19.085   7.650
 5479POPC   C1B16543  17.301  18.944   8.550
 5479POPC   C2B16544  17.317  18.908   8.250
 5479POPC   C3B16545  17.265  18.938   7.950
 5479POPC   C4B16546  17.321  18.895   7.650
 5480POPC   NC316547  12.067   1.253   9.450
 5480POPC   PO416548  12.049   1.182   9.150
 5480POPC   GL116549  12.114   1.252   8.850
 5480POPC   GL216550  12.011   1.321   8.850
 5480POPC   C1A16551  12.107   1.264   8.550
 5480POPC   D2A16552  12.067   1.221   8.250
 5480POPC   C3A16553  12.048   1.255   7.950
 5480POPC   C4A16554  12.053   1.239   7.650
 5480POPC   C1B16555  11.931   1.405   8.550
 5480POPC   C2B16556  11.917   1.389   8.250
 5480POPC   C3B16557  11.946   1.423   7.950
 5480POPC   C4B16558  11.885   1.384   7.650
 5481POPC   NC316559  21.363   5.140   9.450
 5481POPC   PO416560  21.427   5.116   9.150
 5481POPC   GL116561  21.355   5.064   8.850
 5481POPC   GL216562  21.251   5.187   8.850
 5481POPC   C1A16563  21.410   5.125   8.550
 5481POPC   D2A16564  21.425   5.126   8.250
 5481POPC   C3A16565  21.352   5.051   7.950
 5481POPC   C4A16566  21.397   5.090   7.650
 5481POPC   C1B16567  21.156   5.238   8.550
 5481POPC   C2B16568  21.189   5.271   8.250
 5481POPC   C3B16569  21.194   5.189   7.950
 5481POPC   C4B16570  21.195   5.188   7.650
 5482POPC   NC316571  10.572  25.300   9.450
 5482POPC   PO416572  10.566  25.274   9.150
 5482POPC   GL116573  10.494  25.292   8.850
 5482POPC   GL216574  10.443  25.408   8.850
 5482POPC   C1A16575  10.481  25.257   8.550
 5482POPC   D2A16576  10.511  25.289   8.250
 5482POPC   C3A16577  10.513  25.289   7.950
 5482POPC   C4A16578  10.566  25.263   7.650
 5482POPC   C1B16579  10.434  25.452   8.550
 5482POPC   C2B16580  10.427  25.459   8.250
 5482POPC   C3B16581  10.370  25.509   7.950
 5482POPC   C4B16582  10.396  25.483   7.650
 5483POPC   NC316583  29.947  33.000   9.450
 5483POPC   PO416584  29.911  33.045   9.150
 5483POPC   GL116585  29.926  33.065   8.850
 5483POPC   GL216586  29.974  32.889   8.850
 5483POPC   C1A16587  29.881  33.026   8.550
 5483POPC   D2A16588  29.933  33.073   8.250
 5483POPC   C3A16589  29.878  32.979   7.950
 5483POPC   C4A16590  29.916  33.060   7.650
 5483POPC   C1B16591  30.036  32.824   8.550
 5483POPC   C2B16592  30.007  32.832   8.250
 5483POPC   C3B16593  30.053  32.763   7.950
 5483POPC   C4B16594  29.986  32.747   7.650
 5484POPC   NC316595  31.450   8.228   9.450
 5484POPC   PO416596  31.521   8.154   9.150
 5484POPC   GL116597  31.493   8.231   8.850
 5484POPC   GL216598  31.475   8.308   8.850
 5484POPC   C1A16599  31.484   8.227   8.550
 5484POPC   D2A16600  31.513   8.209   8.250
 5484POPC   C3A16601  31.457   8.176   7.950
 5484POPC   C4A16602  31.520   8.183   7.650
 5484POPC   C1B16603  31.438   8.477   8.550
 5484POPC   C2B16604  31.404   8.487   8.250
 5484POPC   C3B16605  31.388   8.476   7.950
 5484POPC   C4B16606  31.443   8.464   7.650
 5485POPC   NC316607  40.769  36.094   9.450
 5485POPC   PO416608  40.751  36.102   9.150
 5485POPC   GL116609  40.797  36.109   8.850
 5485POPC   GL216610  40.837  36.026   8.850
 5485POPC   C1A16611  40.751  36.154   8.550
 5485POPC   D2A16612  40.771  36.109   8.250
 5485POPC   C3A16613  40.769  36.083   7.950
 5485POPC   C4A16614  40.824  36.141   7.650
 5485POPC   C1B16615  41.020  35.990   8.550
 5485POPC   C2B16616  40.935  36.012   8.250
 5485POPC   C3B16617  40.980  35.947   7.950
 5485POPC   C4B16618  40.998  36.006   7.650
 5486POPC   NC316619  29.955   0.407   9.450
 5486POPC   PO416620  29.968   0.480   9.150
 5486POPC   GL116621  29.901   0.457   8.850
 5486POPC   GL216622  29.810   0.547   8.850
 5486POPC   C1A16623  29.969   0.389   8.550
 5486POPC   D2A16624  29.969   0.395   8.250
 5486POPC   C3A16625  29.968   0.484   7.950
 5486POPC   C4A16626  29.893   0.399   7.650
 5486POPC   C1B16627  29.734   0.632   8.550
 5486POPC   C2B16628  29.704   0.619   8.250
 5486POPC   C3B16629  29.783   0.591   7.950
 5486POPC   C4B16630  29.780   0.566   7.650
 5487POPC   NC316631  22.889  17.474   9.450
 5487POPC   PO416632  22.973  17.524   9.150
 5487POPC   GL116633  22.962  17.557   8.850
 5487POPC   GL216634  23.052  17.476   8.850
 5487POPC   C1A16635  22.922  17.461   8.550
 5487POPC   D2A16636  22.956  17.537   8.250
 5487POPC   C3A16637  22.970  17.481   7.950
 5487POPC   C4A16638  22.954  17.512   7.650
 5487POPC   C1B16639  23.174  17.403   8.550
 5487POPC   C2B16640  23.217  17.461   8.250
 5487POPC   C3B16641  23.146  17.389   7.950
 5487POPC   C4B16642  23.129  17.441   7.650
 5488POPC   NC316643  23.667   4.336   9.450
 5488POPC   PO416644  23.705   4.290   9.150
 5488POPC   GL116645  23.711   4.277   8.850
 5488POPC   GL216646  23.828   4.346   8.850
 5488POPC   C1A16647  23.741   4.278   8.550
 5488POPC   D2A16648  23.691   4.281   8.250
 5488POPC   C3A16649  23.694   4.314   7.950
 5488POPC   C4A16650  23.745   4.350   7.650
 5488POPC   C1B16651  24.006   4.289   8.550
 5488POPC   C2B16652  23.953   4.238   8.250
 5488POPC   C3B16653  23.986   4.293   7.950
 5488POPC   C4B16654  23.977   4.232   7.650
 5489POPC   NC316655  39.207  19.860   9.450
 5489POPC   PO416656  39.190  19.877   9.150
 5489POPC   GL116657  39.260  19.864   8.850
 5489POPC   GL216658  39.117  19.821   8.850
 5489POPC   C1A16659  39.197  19.865   8.550
 5489POPC   D2A16660  39.207  19.810   8.250
 5489POPC   C3A16661  39.214  19.805   7.950
 5489POPC   C4A16662  39.245  19.876   7.650
 5489POPC   C1B16663  38.992  19.925   8.550
 5489POPC   C2B16664  38.968  19.869   8.250
 5489POPC   C3B16665  38.950  19.884   7.950
 5489POPC   C4B16666  38.973  19.861   7.650
 5490POPC   NC316667  40.036   6.615   9.450
 5490POPC   PO416668  40.011   6.633   9.150
 5490POPC   GL116669  40.022   6.622   8.850
 5490POPC   GL216670  40.055   6.733   8.850
 5490POPC   C1A16671  39.993   6.617   8.550
 5490POPC   D2A16672  40.049   6.602   8.250
 5490POPC   C3A16673  40.025   6.661   7.950
 5490POPC   C4A16674  40.009   6.596   7.650
 5490POPC   C1B16675  40.186   6.828   8.550
 5490POPC   C2B16676  40.157   6.837   8.250
 5490POPC   C3B16677  40.192   6.813   7.950
 5490POPC   C4B16678  40.193   6.818   7.650
 5491POPC   NC316679  23.733  22.935   9.450
 5491POPC   PO416680  23.708  22.893   9.150
 5491POPC   GL116681  23.664  22.905   8.850
 5491POPC   GL216682  23.616  22.974   8.850
 5491POPC   C1A16683  23.728  22.912   8.550
 5491POPC   D2A16684  23.719  22.931   8.250
 5491POPC   C3A16685  23.725  22.910   7.950
 5491POPC   C4A16686  23.676  22.902   7.650
 5491POPC   C1B16687  23.479  22.992   8.550
 5491POPC   C2B16688  23.519  23.007   8.250
 5491POPC   C3B16689  23.483  23.007   7.950
 5491POPC   C4B16690  23.489  23.025   7.650
 5492POPC   NC316691  33.005   3.547   9.450
 5492POPC   PO416692  32.979   3.502   9.150
 5492POPC   GL116693  33.072   3.552   8.850
 5492POPC   GL216694  32.888   3.564   8.850
 5492POPC   C1A16695  32.993   3.495   8.550
 5492POPC   D2A16696  32.994   3.561   8.250
 5492POPC   C3A16697  33.019   3.534   7.950
 5492POPC   C4A16698  33.050   3.564   7.650
 5492POPC   C1B16699  32.816   3.594   8.550
 5492POPC   C2B16700  32.763   3.647   8.250
 5492POPC   C3B16701  32.821   3.650   7.950
 5492POPC   C4B16702  32.773   3.588   7.650
 5493POPC   NC316703  30.735   9.015   9.450
 5493POPC   PO416704  30.670   9.012   9.150
 5493POPC   GL116705  30.708   8.939   8.850
 5493POPC   GL216706  30.706   9.086   8.850
 5493POPC   C1A16707  30.721   8.940   8.550
 5493POPC   D2A16708  30.702   8.928   8.250
 5493POPC   C3A16709  30.691   9.000   7.950
 5493POPC   C4A16710  30.726   9.020   7.650
 5493POPC   C1B16711  30.806   9.156   8.550
 5493POPC   C2B16712  30.854   9.208   8.250
 5493POPC   C3B16713  30.831   9.150   7.950
 5493POPC   C4B16714  30.820   9.168   7.650
 5494POPC   NC316715  36.118  36.873   9.450
 5494POPC   PO416716  36.099  36.947   9.150
 5494POPC   GL116717  36.167  36.855   8.850
 5494POPC   GL216718  36.027  36.989   8.850
 5494POPC   C1A16719  36.152  36.899   8.550
 5494POPC   D2A16720  36.128  36.884   8.250
 5494POPC   C3A16721  36.152  36.873   7.950
 5494POPC   C4A16722  36.169  36.856   7.650
 5494POPC   C1B16723  36.032  37.145   8.550
 5494POPC   C2B16724  36.000  37.160   8.250
 5494POPC   C3B16725  36.050  37.113   7.950
 5494POPC   C4B16726  35.985  37.125   7.650
 5495POPC   NC316727   8.964  18.305   9.450
 5495POPC   PO416728   9.014  18.233   9.150
 5495POPC   GL116729   8.936  18.266   8.850
 5495POPC   GL216730   8.914  18.371   8.850
 5495POPC   C1A16731   9.009  18.331   8.550
 5495POPC   D2A16732   8.973  18.303   8.250
 5495POPC   C3A16733   9.007  18.333   7.950
 5495POPC   C4A16734   8.939  18.250   7.650
 5495POPC   C1B16735   8.900  18.531   8.550
 5495POPC   C2B16736   8.905  18.546   8.250
 5495POPC   C3B16737   8.891  18.477   7.950
 5495POPC   C4B16738   8.885  18.534   7.650
 5496POPC   NC316739  18.326  33.059   9.450
 5496POPC   PO416740  18.285  33.003   9.150
 5496POPC   GL116741  18.282  32.978   8.850
 5496POPC   GL216742  18.408  32.951   8.850
 5496POPC   C1A16743  18.332  33.056   8.550
 5496POPC   D2A16744  18.326  33.009   8.250
 5496POPC   C3A16745  18.307  33.060   7.950
 5496POPC   C4A16746  18.292  32.976   7.650
 5496POPC   C1B16747  18.424  32.881   8.550
 5496POPC   C2B16748  18.453  32.866   8.250
 5496POPC   C3B16749  18.466  32.874   7.950
 5496POPC   C4B16750  18.481  32.820   7.650
 5497POPC   NC316751  40.794  23.693   9.450
 5497POPC   PO416752  40.741  23.729   9.150
 5497POPC   GL116753  40.739  23.743   8.850
 5497POPC   GL216754  40.777  23.822   8.850
 5497POPC   C1A16755  40.751  23.691   8.550
 5497POPC   D2A16756  40.809  23.713   8.250
 5497POPC   C3A16757  40.815  23.668   7.950
 5497POPC   C4A16758  40.774  23.736   7.650
 5497POPC   C1B16759  40.667  23.926   8.550
 5497POPC   C2B16760  40.680  23.967   8.250
 5497POPC   C3B16761  40.669  23.934   7.950
 5497POPC   C4B16762  40.739  23.964   7.650
 5498POPC   NC316763  33.767  27.596   9.450
 5498POPC   PO416764  33.830  27.612   9.150
 5498POPC   GL116765  33.792  27.564   8.850
 5498POPC   GL216766  33.748  27.756   8.850
 5498POPC   C1A16767  33.839  27.603   8.550
 5498POPC   D2A16768  33.805  27.623   8.250
 5498POPC   C3A16769  33.758  27.580   7.950
 5498POPC   C4A16770  33.767  27.627   7.650
 5498POPC   C1B16771  33.750  27.889   8.550
 5498POPC   C2B16772  33.782  27.847   8.250
 5498POPC   C3B16773  33.787  27.808   7.950
 5498POPC   C4B16774  33.808  27.804   7.650
 5499POPC   NC316775  43.878  28.399   9.450
 5499POPC   PO416776  43.847  28.403   9.150
 5499POPC   GL116777  43.876  28.366   8.850
 5499POPC   GL216778  43.909  28.240   8.850
 5499POPC   C1A16779  43.859  28.414   8.550
 5499POPC   D2A16780  43.892  28.413   8.250
 5499POPC   C3A16781  43.864  28.382   7.950
 5499POPC   C4A16782  43.909  28.327   7.650
 5499POPC   C1B16783  43.981  28.177   8.550
 5499POPC   C2B16784  44.066  28.172   8.250
 5499POPC   C3B16785  43.987  28.124   7.950
 5499POPC   C4B16786  43.984  28.187   7.650
 5500POPC   NC316787  29.189  26.781   9.450
 5500POPC   PO416788  29.141  26.813   9.150
 5500POPC   GL116789  29.114  26.833   8.850
 5500POPC   GL216790  29.197  26.860   8.850
 5500POPC   C1A16791  29.192  26.790   8.550
 5500POPC   D2A16792  29.185  26.799   8.250
 5500POPC   C3A16793  29.102  26.853   7.950
 5500POPC   C4A16794  29.122  26.810   7.650
 5500POPC   C1B16795  29.344  26.948   8.550
 5500POPC   C2B16796  29.365  26.949   8.250
 5500POPC   C3B16797  29.374  26.964   7.950
 5500POPC   C4B16798  29.294  26.949   7.650
 5501POPC   NC316799  15.196  44.706   9.450
 5501POPC   PO416800  15.140  44.704   9.150
 5501POPC   GL116801  15.214  44.667   8.850
 5501POPC   GL216802  15.329  44.598   8.850
 5501POPC   C1A16803  15.180  44.629   8.550
 5501POPC   D2A16804  15.184  44.633   8.250
 5501POPC   C3A16805  15.134  44.661   7.950
 5501POPC   C4A16806  15.215  44.668   7.650
 5501POPC   C1B16807  15.335  44.561   8.550
 5501POPC   C2B16808  15.339  44.523   8.250
 5501POPC   C3B16809  15.338  44.494   7.950
 5501POPC   C4B16810  15.365  44.531   7.650
 5502POPC   NC316811  27.578  32.203   9.450
 5502POPC   PO416812  27.581  32.255   9.150
 5502POPC   GL116813  27.618  32.251   8.850
 5502POPC   GL216814  27.715  32.359   8.850
 5502POPC   C1A16815  27.600  32.210   8.550
 5502POPC   D2A16816  27.642  32.233   8.250
 5502POPC   C3A16817  27.637  32.255   7.950
 5502POPC   C4A16818  27.561  32.264   7.650
 5502POPC   C1B16819  27.760  32.467   8.550
 5502POPC   C2B16820  27.752  32.422   8.250
 5502POPC   C3B16821  27.713  32.435   7.950
 5502POPC   C4B16822  27.742  32.499   7.650
 5503POPC   NC316823  11.331  21.436   9.450
 5503POPC   PO416824  11.260  21.336   9.150
 5503POPC   GL116825  11.317  21.377   8.850
 5503POPC   GL216826  11.198  21.328   8.850
 5503POPC   C1A16827  11.289  21.429   8.550
 5503POPC   D2A16828  11.264  21.379   8.250
 5503POPC   C3A16829  11.330  21.362   7.950
 5503POPC   C4A16830  11.347  21.339   7.650
 5503POPC   C1B16831  11.137  21.178   8.550
 5503POPC   C2B16832  11.153  21.210   8.250
 5503POPC   C3B16833  11.131  21.231   7.950
 5503POPC   C4B16834  11.157  21.192   7.650
 5504POPC   NC316835   1.254  22.929   9.450
 5504POPC   PO416836   1.223  22.910   9.150
 5504POPC   GL116837   1.197  22.943   8.850
 5504POPC   GL216838   1.203  23.050   8.850
 5504POPC   C1A16839   1.172  22.967   8.550
 5504POPC   D2A16840   1.229  22.960   8.250
 5504POPC   C3A16841   1.169  22.947   7.950
 5504POPC   C4A16842   1.242  22.922   7.650
 5504POPC   C1B16843   1.132  23.157   8.550
 5504POPC   C2B16844   1.122  23.208   8.250
 5504POPC   C3B16845   1.132  23.197   7.950
 5504POPC   C4B16846   1.130  23.175   7.650
 5505POPC   NC316847  13.655  30.739   9.450
 5505POPC   PO416848  13.649  30.692   9.150
 5505POPC   GL116849  13.671  30.713   8.850
 5505POPC   GL216850  13.753  30.774   8.850
 5505POPC   C1A16851  13.605  30.738   8.550
 5505POPC   D2A16852  13.635  30.680   8.250
 5505POPC   C3A16853  13.673  30.706   7.950
 5505POPC   C4A16854  13.656  30.673   7.650
 5505POPC   C1B16855  13.840  30.819   8.550
 5505POPC   C2B16856  13.803  30.853   8.250
 5505POPC   C3B16857  13.802  30.819   7.950
 5505POPC   C4B16858  13.889  30.816   7.650
 5506POPC   NC316859  19.858  23.739   9.450
 5506POPC   PO416860  19.813  23.699   9.150
 5506POPC   GL116861  19.787  23.762   8.850
 5506POPC   GL216862  19.921  23.623   8.850
 5506POPC   C1A16863  19.785  23.720   8.550
 5506POPC   D2A16864  19.852  23.722   8.250
 5506POPC   C3A16865  19.842  23.720   7.950
 5506POPC   C4A16866  19.868  23.715   7.650
 5506POPC   C1B16867  19.963  23.459   8.550
 5506POPC   C2B16868  19.949  23.485   8.250
 5506POPC   C3B16869  19.973  23.454   7.950
 5506POPC   C4B16870  19.948  23.482   7.650
 5507POPC   NC316871  24.536  36.106   9.450
 5507POPC   PO416872  24.493  36.092   9.150
 5507POPC   GL116873  24.471  36.092   8.850
 5507POPC   GL216874  24.615  36.253   8.850
 5507POPC   C1A16875  24.445  36.155   8.550
 5507POPC   D2A16876  24.514  36.108   8.250
 5507POPC   C3A16877  24.535  36.164   7.950
 5507POPC   C4A16878  24.487  36.154   7.650
 5507POPC   C1B16879  24.648  36.295   8.550
 5507POPC   C2B16880  24.707  36.308   8.250
 5507POPC   C3B16881  24.660  36.288   7.950
 5507POPC   C4B16882  24.659  36.276   7.650
 5508POPC   NC316883  15.226  14.357   9.450
 5508POPC   PO416884  15.212  14.446   9.150
 5508POPC   GL116885  15.170  14.361   8.850
 5508POPC   GL216886  15.228  14.556   8.850
 5508POPC   C1A16887  15.187  14.440   8.550
 5508POPC   D2A16888  15.175  14.417   8.250
 5508POPC   C3A16889  15.177  14.369   7.950
 5508POPC   C4A16890  15.172  14.398   7.650
 5508POPC   C1B16891  15.259  14.600   8.550
 5508POPC   C2B16892  15.329  14.667   8.250
 5508POPC   C3B16893  15.259  14.591   7.950
 5508POPC   C4B16894  15.350  14.622   7.650
 5509POPC   NC316895  33.766  19.816   9.450
 5509POPC   PO416896  33.840  19.794   9.150
 5509POPC   GL116897  33.789  19.807   8.850
 5509POPC   GL216898  33.718  19.873   8.850
 5509POPC   C1A16899  33.751  19.792   8.550
 5509POPC   D2A16900  33.823  19.837   8.250
 5509POPC   C3A16901  33.764  19.806   7.950
 5509POPC   C4A16902  33.829  19.836   7.650
 5509POPC   C1B16903  33.649  19.984   8.550
 5509POPC   C2B16904  33.605  20.019   8.250
 5509POPC   C3B16905  33.647  20.048   7.950
 5509POPC   C4B16906  33.573  19.992   7.650
 5510POPC   NC316907  37.728   8.158   9.450
 5510POPC   PO416908  37.711   8.238   9.150
 5510POPC   GL116909  37.673   8.162   8.850
 5510POPC   GL216910  37.767   8.150   8.850
 5510POPC   C1A16911  37.684   8.222   8.550
 5510POPC   D2A16912  37.669   8.177   8.250
 5510POPC   C3A16913  37.649   8.161   7.950
 5510POPC   C4A16914  37.719   8.213   7.650
 5510POPC   C1B16915  37.969   8.167   8.550
 5510POPC   C2B16916  37.909   8.135   8.250
 5510POPC   C3B16917  37.881   8.138   7.950
 5510POPC   C4B16918  37.934   8.151   7.650
 5511POPC   NC316919   8.194   7.452   9.450
 5511POPC   PO416920   8.220   7.438   9.150
 5511POPC   GL116921   8.223   7.382   8.850
 5511POPC   GL216922   8.103   7.439   8.850
 5511POPC   C1A16923   8.216   7.465   8.550
 5511POPC   D2A16924   8.161   7.420   8.250
 5511POPC   C3A16925   8.228   7.391   7.950
 5511POPC   C4A16926   8.151   7.469   7.650
 5511POPC   C1B16927   7.985   7.523   8.550
 5511POPC   C2B16928   7.989   7.493   8.250
 5511POPC   C3B16929   7.932   7.516   7.950
 5511POPC   C4B16930   7.963   7.479   7.650
 5512POPC   NC316931  38.468   5.056   9.450
 5512POPC   PO416932  38.432   5.113   9.150
 5512POPC   GL116933  38.451   5.046   8.850
 5512POPC   GL216934  38.302   5.081   8.850
 5512POPC   C1A16935  38.423   5.109   8.550
 5512POPC   D2A16936  38.481   5.133   8.250
 5512POPC   C3A16937  38.443   5.124   7.950
 5512POPC   C4A16938  38.460   5.117   7.650
 5512POPC   C1B16939  38.197   5.097   8.550
 5512POPC   C2B16940  38.234   5.102   8.250
 5512POPC   C3B16941  38.213   5.097   7.950
 5512POPC   C4B16942  38.172   5.078   7.650
 5513POPC   NC316943  22.132   7.451   9.450
 5513POPC   PO416944  22.202   7.397   9.150
 5513POPC   GL116945  22.181   7.467   8.850
 5513POPC   GL216946  22.088   7.529   8.850
 5513POPC   C1A16947  22.124   7.446   8.550
 5513POPC   D2A16948  22.197   7.388   8.250
 5513POPC   C3A16949  22.188   7.462   7.950
 5513POPC   C4A16950  22.123   7.420   7.650
 5513POPC   C1B16951  22.107   7.698   8.550
 5513POPC   C2B16952  22.083   7.647   8.250
 5513POPC   C3B16953  22.049   7.652   7.950
 5513POPC   C4B16954  22.068   7.671   7.650
 5514POPC   NC316955  41.522  40.826   9.450
 5514POPC   PO416956  41.529  40.808   9.150
 5514POPC   GL116957  41.562  40.788   8.850
 5514POPC   GL216958  41.470  40.812   8.850
 5514POPC   C1A16959  41.513  40.769   8.550
 5514POPC   D2A16960  41.509  40.748   8.250
 5514POPC   C3A16961  41.596  40.735   7.950
 5514POPC   C4A16962  41.528  40.777   7.650
 5514POPC   C1B16963  41.314  40.787   8.550
 5514POPC   C2B16964  41.312  40.757   8.250
 5514POPC   C3B16965  41.335  40.771   7.950
 5514POPC   C4B16966  41.347  40.758   7.650
 5515POPC   NC316967  24.469  39.241   9.450
 5515POPC   PO416968  24.531  39.244   9.150
 5515POPC   GL116969  24.512  39.260   8.850
 5515POPC   GL216970  24.538  39.121   8.850
 5515POPC   C1A16971  24.524  39.269   8.550
 5515POPC   D2A16972  24.516  39.272   8.250
 5515POPC   C3A16973  24.482  39.235   7.950
 5515POPC   C4A16974  24.512  39.247   7.650
 5515POPC   C1B16975  24.660  39.015   8.550
 5515POPC   C2B16976  24.600  39.068   8.250
 5515POPC   C3B16977  24.627  39.010   7.950
 5515POPC   C4B16978  24.648  39.031   7.650
 5516POPC   NC316979  12.038  19.850   9.450
 5516POPC   PO416980  12.071  19.791   9.150
 5516POPC   GL116981  12.059  19.811   8.850
 5516POPC   GL216982  11.968  19.909   8.850
 5516POPC   C1A16983  12.118  19.813   8.550
 5516POPC   D2A16984  12.077  19.830   8.250
 5516POPC   C3A16985  12.088  19.820   7.950
 5516POPC   C4A16986  12.062  19.813   7.650
 5516POPC   C1B16987  11.841  19.973   8.550
 5516POPC   C2B16988  11.879  19.979   8.250
 5516POPC   C3B16989  11.823  19.930   7.950
 5516POPC   C4B16990  11.822  19.929   7.650
 5517POPC   NC316991  13.583  41.524   9.450
 5517POPC   PO416992  13.639  41.600   9.150
 5517POPC   GL116993  13.677  41.534   8.850
 5517POPC   GL216994  13.534  41.612   8.850
 5517POPC   C1A16995  13.645  41.574   8.550
 5517POPC   D2A16996  13.629  41.509   8.250
 5517POPC   C3A16997  13.631  41.591   7.950
 5517POPC   C4A16998  13.598  41.516   7.650
 5517POPC   C1B16999  13.395  41.605   8.550
 5517POPC   C2B17000  13.402  41.626   8.250
 5517POPC   C3B17001  13.348  41.633   7.950
 5517POPC   C4B17002  13.375  41.646   7.650
 5518POPC   NC317003  12.877  16.763   9.450
 5518POPC   PO417004  12.814  16.736   9.150
 5518POPC   GL117005  12.832  16.708   8.850
 5518POPC   GL217006  12.861  16.877   8.850
 5518POPC   C1A17007  12.832  16.767   8.550
 5518POPC   D2A17008  12.856  16.685   8.250
 5518POPC   C3A17009  12.816  16.772   7.950
 5518POPC   C4A17010  12.851  16.713   7.650
 5518POPC   C1B17011  12.932  16.988   8.550
 5518POPC   C2B17012  12.916  17.010   8.250
 5518POPC   C3B17013  12.927  16.919   7.950
 5518POPC   C4B17014  12.931  16.982   7.650
 5519POPC   NC317015  17.525  15.141   9.450
 5519POPC   PO417016  17.534  15.217   9.150
 5519POPC   GL117017  17.495  15.142   8.850
 5519POPC   GL217018  17.564  15.113   8.850
 5519POPC   C1A17019  17.513  15.146   8.550
 5519POPC   D2A17020  17.515  15.207   8.250
 5519POPC   C3A17021  17.472  15.193   7.950
 5519POPC   C4A17022  17.532  15.220   7.650
 5519POPC   C1B17023  17.725  15.069   8.550
 5519POPC   C2B17024  17.700  15.076   8.250
 5519POPC   C3B17025  17.733  14.995   7.950
 5519POPC   C4B17026  17.756  15.080   7.650
 5520POPC   NC317027   8.242  16.705   9.450
 5520POPC   PO417028   8.168  16.690   9.150
 5520POPC   GL117029   8.170  16.781   8.850
 5520POPC   GL217030   8.350  16.646   8.850
 5520POPC   C1A17031   8.151  16.753   8.550
 5520POPC   D2A17032   8.234  16.775   8.250
 5520POPC   C3A17033   8.238  16.755   7.950
 5520POPC   C4A17034   8.200  16.738   7.650
 5520POPC   C1B17035   8.405  16.595   8.550
 5520POPC   C2B17036   8.414  16.621   8.250
 5520POPC   C3B17037   8.437  16.651   7.950
 5520POPC   C4B17038   8.446  16.585   7.650
 5521POPC   NC317039  12.901   1.987   9.450
 5521POPC   PO417040  12.860   2.010   9.150
 5521POPC   GL117041  12.897   1.961   8.850
 5521POPC   GL217042  12.980   2.018   8.850
 5521POPC   C1A17043  12.887   1.969   8.550
 5521POPC   D2A17044  12.896   2.011   8.250
 5521POPC   C3A17045  12.881   1.967   7.950
 5521POPC   C4A17046  12.867   1.945   7.650
 5521POPC   C1B17047  13.099   1.979   8.550
 5521POPC   C2B17048  13.068   1.978   8.250
 5521POPC   C3B17049  13.126   1.998   7.950
 5521POPC   C4B17050  13.082   2.040   7.650
 5522POPC   NC317051  41.550  14.357   9.450
 5522POPC   PO417052  41.603  14.354   9.150
 5522POPC   GL117053  41.606  14.360   8.850
 5522POPC   GL217054  41.693  14.434   8.850
 5522POPC   C1A17055  41.595  14.357   8.550
 5522POPC   D2A17056  41.608  14.444   8.250
 5522POPC   C3A17057  41.576  14.378   7.950
 5522POPC   C4A17058  41.530  14.428   7.650
 5522POPC   C1B17059  41.844  14.428   8.550
 5522POPC   C2B17060  41.837  14.338   8.250
 5522POPC   C3B17061  41.834  14.356   7.950
 5522POPC   C4B17062  41.836  14.395   7.650
 5523POPC   NC317063  32.260  19.031   9.450
 5523POPC   PO417064  32.265  19.089   9.150
 5523POPC   GL117065  32.253  19.020   8.850
 5523POPC   GL217066  32.161  18.988   8.850
 5523POPC   C1A17067  32.287  19.090   8.550
 5523POPC   D2A17068  32.262  19.100   8.250
 5523POPC   C3A17069  32.263  19.069   7.950
 5523POPC   C4A17070  32.287  19.043   7.650
 5523POPC   C1B17071  32.037  18.823   8.550
 5523POPC   C2B17072  32.070  18.863   8.250
 5523POPC   C3B17073  32.104  18.866   7.950
 5523POPC   C4B17074  32.035  18.824   7.650
 5524POPC   NC317075   6.656   4.298   9.450
 5524POPC   PO417076   6.609   4.280   9.150
 5524POPC   GL117077   6.632   4.305   8.850
 5524POPC   GL217078   6.500   4.199   8.850
 5524POPC   C1A17079   6.628   4.330   8.550
 5524POPC   D2A17080   6.606   4.365   8.250
 5524POPC   C3A17081   6.684   4.330   7.950
 5524POPC   C4A17082   6.610   4.303   7.650
 5524POPC   C1B17083   6.411   4.153   8.550
 5524POPC   C2B17084   6.418   4.152   8.250
 5524POPC   C3B17085   6.404   4.151   7.950
 5524POPC   C4B17086   6.413   4.211   7.650
 5525POPC   NC317087  33.849   2.716   9.450
 5525POPC   PO417088  33.794   2.777   9.150
 5525POPC   GL117089  33.825   2.763   8.850
 5525POPC   GL217090  33.844   2.639   8.850
 5525POPC   C1A17091  33.804   2.769   8.550
 5525POPC   D2A17092  33.825   2.738   8.250
 5525POPC   C3A17093  33.797   2.736   7.950
 5525POPC   C4A17094  33.771   2.735   7.650
 5525POPC   C1B17095  33.754   2.558   8.550
 5525POPC   C2B17096  33.767   2.468   8.250
 5525POPC   C3B17097  33.817   2.530   7.950
 5525POPC   C4B17098  33.815   2.476   7.650
 5526POPC   NC317099  26.059  30.687   9.450
 5526POPC   PO417100  26.064  30.667   9.150
 5526POPC   GL117101  26.088  30.707   8.850
 5526POPC   GL217102  26.011  30.795   8.850
 5526POPC   C1A17103  25.999  30.693   8.550
 5526POPC   D2A17104  26.059  30.660   8.250
 5526POPC   C3A17105  26.004  30.743   7.950
 5526POPC   C4A17106  26.084  30.724   7.650
 5526POPC   C1B17107  25.953  30.947   8.550
 5526POPC   C2B17108  25.961  30.880   8.250
 5526POPC   C3B17109  25.951  30.894   7.950
 5526POPC   C4B17110  25.924  30.932   7.650
 5527POPC   NC317111  19.799   8.221   9.450
 5527POPC   PO417112  19.797   8.234   9.150
 5527POPC   GL117113  19.829   8.169   8.850
 5527POPC   GL217114  19.867   8.344   8.850
 5527POPC   C1A17115  19.833   8.164   8.550
 5527POPC   D2A17116  19.814   8.239   8.250
 5527POPC   C3A17117  19.867   8.159   7.950
 5527POPC   C4A17118  19.871   8.229   7.650
 5527POPC   C1B17119  19.803   8.496   8.550
 5527POPC   C2B17120  19.890   8.430   8.250
 5527POPC   C3B17121  19.813   8.479   7.950
 5527POPC   C4B17122  19.853   8.463   7.650
 5528POPC   NC317123  31.455  15.222   9.450
 5528POPC   PO417124  31.478  15.146   9.150
 5528POPC   GL117125  31.516  15.181   8.850
 5528POPC   GL217126  31.482  15.294   8.850
 5528POPC   C1A17127  31.461  15.171   8.550
 5528POPC   D2A17128  31.427  15.184   8.250
 5528POPC   C3A17129  31.426  15.221   7.950
 5528POPC   C4A17130  31.521  15.204   7.650
 5528POPC   C1B17131  31.599  15.451   8.550
 5528POPC   C2B17132  31.623  15.393   8.250
 5528POPC   C3B17133  31.561  15.363   7.950
 5528POPC   C4B17134  31.600  15.387   7.650
 5529POPC   NC317135  14.392  39.228   9.450
 5529POPC   PO417136  14.391  39.262   9.150
 5529POPC   GL117137  14.376  39.229   8.850
 5529POPC   GL217138  14.237  39.286   8.850
 5529POPC   C1A17139  14.363  39.220   8.550
 5529POPC   D2A17140  14.429  39.273   8.250
 5529POPC   C3A17141  14.370  39.251   7.950
 5529POPC   C4A17142  14.363  39.204   7.650
 5529POPC   C1B17143  14.115  39.258   8.550
 5529POPC   C2B17144  14.194  39.290   8.250
 5529POPC   C3B17145  14.187  39.272   7.950
 5529POPC   C4B17146  14.186  39.324   7.650
 5530POPC   NC317147  26.855  40.011   9.450
 5530POPC   PO417148  26.857  40.045   9.150
 5530POPC   GL117149  26.787  40.013   8.850
 5530POPC   GL217150  26.782  40.119   8.850
 5530POPC   C1A17151  26.853  39.960   8.550
 5530POPC   D2A17152  26.812  39.959   8.250
 5530POPC   C3A17153  26.859  40.011   7.950
 5530POPC   C4A17154  26.850  40.003   7.650
 5530POPC   C1B17155  26.617  40.223   8.550
 5530POPC   C2B17156  26.637  40.226   8.250
 5530POPC   C3B17157  26.632  40.162   7.950
 5530POPC   C4B17158  26.692  40.199   7.650
 5531POPC   NC317159  43.084  30.677   9.450
 5531POPC   PO417160  43.114  30.728   9.150
 5531POPC   GL117161  43.074  30.671   8.850
 5531POPC   GL217162  43.120  30.577   8.850
 5531POPC   C1A17163  43.067  30.651   8.550
 5531POPC   D2A17164  43.138  30.672   8.250
 5531POPC   C3A17165  43.117  30.734   7.950
 5531POPC   C4A17166  43.136  30.667   7.650
 5531POPC   C1B17167  43.051  30.409   8.550
 5531POPC   C2B17168  43.048  30.497   8.250
 5531POPC   C3B17169  43.125  30.433   7.950
 5531POPC   C4B17170  43.127  30.414   7.650
 5532POPC   NC317171  33.841  15.937   9.450
 5532POPC   PO417172  33.754  15.952   9.150
 5532POPC   GL117173  33.819  15.951   8.850
 5532POPC   GL217174  33.962  15.923   8.850
 5532POPC   C1A17175  33.847  15.912   8.550
 5532POPC   D2A17176  33.780  15.938   8.250
 5532POPC   C3A17177  33.799  15.929   7.950
 5532POPC   C4A17178  33.818  15.983   7.650
 5532POPC   C1B17179  34.064  15.970   8.550
 5532POPC   C2B17180  34.032  15.907   8.250
 5532POPC   C3B17181  34.025  15.956   7.950
 5532POPC   C4B17182  34.011  15.904   7.650
 5533POPC   NC317183  37.629   3.518   9.450
 5533POPC   PO417184  37.644   3.525   9.150
 5533POPC   GL117185  37.680   3.583   8.850
 5533POPC   GL217186  37.733   3.460   8.850
 5533POPC   C1A17187  37.645   3.547   8.550
 5533POPC   D2A17188  37.634   3.571   8.250
 5533POPC   C3A17189  37.728   3.589   7.950
 5533POPC   C4A17190  37.649   3.501   7.650
 5533POPC   C1B17191  37.887   3.360   8.550
 5533POPC   C2B17192  37.857   3.426   8.250
 5533POPC   C3B17193  37.821   3.368   7.950
 5533POPC   C4B17194  37.903   3.377   7.650
 5534POPC   NC317195   5.132  30.726   9.450
 5534POPC   PO417196   5.118  30.654   9.150
 5534POPC   GL117197   5.081  30.716   8.850
 5534POPC   GL217198   5.007  30.608   8.850
 5534POPC   C1A17199   5.100  30.723   8.550
 5534POPC   D2A17200   5.088  30.708   8.250
 5534POPC   C3A17201   5.080  30.711   7.950
 5534POPC   C4A17202   5.113  30.679   7.650
 5534POPC   C1B17203   4.925  30.497   8.550
 5534POPC   C2B17204   4.902  30.518   8.250
 5534POPC   C3B17205   4.956  30.549   7.950
 5534POPC   C4B17206   4.880  30.464   7.650
 5535POPC   NC317207  15.962   5.086   9.450
 5535POPC   PO417208  15.921   5.125   9.150
 5535POPC   GL117209  15.933   5.070   8.850
 5535POPC   GL217210  16.093   5.148   8.850
 5535POPC   C1A17211  15.921   5.082   8.550
 5535POPC   D2A17212  15.939   5.053   8.250
 5535POPC   C3A17213  16.001   5.137   7.950
 5535POPC   C4A17214  16.000   5.089   7.650
 5535POPC   C1B17215  16.203   5.151   8.550
 5535POPC   C2B17216  16.215   5.100   8.250
 5535POPC   C3B17217  16.209   5.122   7.950
 5535POPC   C4B17218  16.232   5.126   7.650
 5536POPC   NC317219  39.194  38.424   9.450
 5536POPC   PO417220  39.231  38.419   9.150
 5536POPC   GL117221  39.270  38.494   8.850
 5536POPC   GL217222  39.260  38.356   8.850
 5536POPC   C1A17223  39.207  38.473   8.550
 5536POPC   D2A17224  39.193  38.466   8.250
 5536POPC   C3A17225  39.276  38.414   7.950
 5536POPC   C4A17226  39.215  38.434   7.650
 5536POPC   C1B17227  39.246  38.237   8.550
 5536POPC   C2B17228  39.234  38.212   8.250
 5536POPC   C3B17229  39.261  38.162   7.950
 5536POPC   C4B17230  39.229  38.173   7.650
 5537POPC   NC317231  37.672  43.921   9.450
 5537POPC   PO417232  37.694  43.847   9.150
 5537POPC   GL117233  37.699  43.926   8.850
 5537POPC   GL217234  37.556  43.839   8.850
 5537POPC   C1A17235  37.649  43.922   8.550
 5537POPC   D2A17236  37.659  43.854   8.250
 5537POPC   C3A17237  37.712  43.860   7.950
 5537POPC   C4A17238  37.639  43.875   7.650
 5537POPC   C1B17239  37.460  43.801   8.550
 5537POPC   C2B17240  37.454  43.860   8.250
 5537POPC   C3B17241  37.441  43.801   7.950
 5537POPC   C4B17242  37.422  43.799   7.650
 5538POPC   NC317243  23.675  40.789   9.450
 5538POPC   PO417244  23.723  40.779   9.150
 5538POPC   GL117245  23.699  40.762   8.850
 5538POPC   GL217246  23.605  40.720   8.850
 5538POPC   C1A17247  23.745  40.782   8.550
 5538POPC   D2A17248  23.747  40.782   8.250
 5538POPC   C3A17249  23.751  40.832   7.950
 5538POPC   C4A17250  23.732  40.779   7.650
 5538POPC   C1B17251  23.527  40.686   8.550
 5538POPC   C2B17252  23.466  40.733   8.250
 5538POPC   C3B17253  23.477  40.704   7.950
 5538POPC   C4B17254  23.520  40.733   7.650
 5539POPC   NC317255  33.821  30.726   9.450
 5539POPC   PO417256  33.797  30.704   9.150
 5539POPC   GL117257  33.832  30.742   8.850
 5539POPC   GL217258  33.919  30.668   8.850
 5539POPC   C1A17259  33.814  30.649   8.550
 5539POPC   D2A17260  33.809  30.723   8.250
 5539POPC   C3A17261  33.814  30.661   7.950
 5539POPC   C4A17262  33.815  30.746   7.650
 5539POPC   C1B17263  33.985  30.592   8.550
 5539POPC   C2B17264  33.993  30.572   8.250
 5539POPC   C3B17265  34.010  30.554   7.950
 5539POPC   C4B17266  34.051  30.570   7.650
 5540POPC   NC317267  18.312   5.848   9.450
 5540POPC   PO417268  18.307   5.905   9.150
 5540POPC   GL117269  18.328   5.895   8.850
 5540POPC   GL217270  18.322   5.763   8.850
 5540POPC   C1A17271  18.291   5.880   8.550
 5540POPC   D2A17272  18.258   5.885   8.250
 5540POPC   C3A17273  18.308   5.884   7.950
 5540POPC   C4A17274  18.285   5.864   7.650
 5540POPC   C1B17275  18.424   5.642   8.550
 5540POPC   C2B17276  18.411   5.615   8.250
 5540POPC   C3B17277  18.428   5.670   7.950
 5540POPC   C4B17278  18.360   5.601   7.650
 5541POPC   NC317279  32.292  33.761   9.450
 5541POPC   PO417280  32.267  33.829   9.150
 5541POPC   GL117281  32.287  33.770   8.850
 5541POPC   GL217282  32.382  33.784   8.850
 5541POPC   C1A17283  32.205  33.794   8.550
 5541POPC   D2A17284  32.240  33.797   8.250
 5541POPC   C3A17285  32.202  33.799   7.950
 5541POPC   C4A17286  32.282  33.760   7.650
 5541POPC   C1B17287  32.432  33.700   8.550
 5541POPC   C2B17288  32.437  33.628   8.250
 5541POPC   C3B17289  32.429  33.651   7.950
 5541POPC   C4B17290  32.462  33.691   7.650
 5542POPC   NC317291  43.914  40.779   9.450
 5542POPC   PO417292  43.916  40.828   9.150
 5542POPC   GL117293  43.867  40.805   8.850
 5542POPC   GL217294  43.887  40.615   8.850
 5542POPC   C1A17295  43.887  40.824   8.550
 5542POPC   D2A17296  43.873  40.749   8.250
 5542POPC   C3A17297  43.838  40.811   7.950
 5542POPC   C4A17298  43.862  40.820   7.650
 5542POPC   C1B17299  43.901  40.534   8.550
 5542POPC   C2B17300  43.878  40.544   8.250
 5542POPC   C3B17301  43.915  40.583   7.950
 5542POPC   C4B17302  43.919  40.494   7.650
 5543POPC   NC317303  29.147  36.919   9.450
 5543POPC   PO417304  29.142  36.888   9.150
 5543POPC   GL117305  29.172  36.883   8.850
 5543POPC   GL217306  29.046  36.853   8.850
 5543POPC   C1A17307  29.144  36.917   8.550
 5543POPC   D2A17308  29.125  36.880   8.250
 5543POPC   C3A17309  29.174  36.860   7.950
 5543POPC   C4A17310  29.155  36.892   7.650
 5543POPC   C1B17311  28.938  36.743   8.550
 5543POPC   C2B17312  28.981  36.790   8.250
 5543POPC   C3B17313  28.895  36.762   7.950
 5543POPC   C4B17314  28.978  36.742   7.650
 5544POPC   NC317315  37.710   0.471   9.450
 5544POPC   PO417316  37.646   0.419   9.150
 5544POPC   GL117317  37.637   0.391   8.850
 5544POPC   GL217318  37.745   0.558   8.850
 5544POPC   C1A17319  37.664   0.413   8.550
 5544POPC   D2A17320  37.665   0.411   8.250
 5544POPC   C3A17321  37.637   0.466   7.950
 5544POPC   C4A17322  37.675   0.407   7.650
 5544POPC   C1B17323  37.743   0.630   8.550
 5544POPC   C2B17324  37.803   0.671   8.250
 5544POPC   C3B17325  37.786   0.632   7.950
 5544POPC   C4B17326  37.727   0.673   7.650
 5545POPC   NC317327  28.352  42.323   9.450
 5545POPC   PO417328  28.322  42.295   9.150
 5545POPC   GL117329  28.418  42.334   8.850
 5545POPC   GL217330  28.442  42.328   8.850
 5545POPC   C1A17331  28.410  42.343   8.550
 5545POPC   D2A17332  28.339  42.285   8.250
 5545POPC   C3A17333  28.391  42.334   7.950
 5545POPC   C4A17334  28.415  42.307   7.650
 5545POPC   C1B17335  28.560  42.218   8.550
 5545POPC   C2B17336  28.573  42.294   8.250
 5545POPC   C3B17337  28.608  42.279   7.950
 5545POPC   C4B17338  28.649  42.302   7.650
 5546POPC   NC317339   2.780  11.282   9.450
 5546POPC   PO417340   2.768  11.263   9.150
 5546POPC   GL117341   2.799  11.306   8.850
 5546POPC   GL217342   2.751  11.446   8.850
 5546POPC   C1A17343   2.735  11.314   8.550
 5546POPC   D2A17344   2.755  11.334   8.250
 5546POPC   C3A17345   2.734  11.329   7.950
 5546POPC   C4A17346   2.807  11.302   7.650
 5546POPC   C1B17347   2.712  11.561   8.550
 5546POPC   C2B17348   2.707  11.531   8.250
 5546POPC   C3B17349   2.674  11.514   7.950
 5546POPC   C4B17350   2.665  11.505   7.650
 5547POPC   NC317351  10.570  38.458   9.450
 5547POPC   PO417352  10.560  38.494   9.150
 5547POPC   GL117353  10.523  38.493   8.850
 5547POPC   GL217354  10.618  38.350   8.850
 5547POPC   C1A17355  10.568  38.473   8.550
 5547POPC   D2A17356  10.572  38.422   8.250
 5547POPC   C3A17357  10.493  38.478   7.950
 5547POPC   C4A17358  10.570  38.436   7.650
 5547POPC   C1B17359  10.749  38.293   8.550
 5547POPC   C2B17360  10.708  38.341   8.250
 5547POPC   C3B17361  10.745  38.348   7.950
 5547POPC   C4B17362  10.704  38.303   7.650
 5548POPC   NC317363   6.670   7.434   9.450
 5548POPC   PO417364   6.660   7.386   9.150
 5548POPC   GL117365   6.602   7.461   8.850
 5548POPC   GL217366   6.708   7.255   8.850
 5548POPC   C1A17367   6.657   7.379   8.550
 5548POPC   D2A17368   6.618   7.376   8.250
 5548POPC   C3A17369   6.677   7.467   7.950
 5548POPC   C4A17370   6.657   7.455   7.650
 5548POPC   C1B17371   6.739   7.195   8.550
 5548POPC   C2B17372   6.695   7.187   8.250
 5548POPC   C3B17373   6.744   7.155   7.950
 5548POPC   C4B17374   6.675   7.211   7.650
 5549POPC   NC317375  19.054  20.588   9.450
 5549POPC   PO417376  19.108  20.618   9.150
 5549POPC   GL117377  19.057  20.611   8.850
 5549POPC   GL217378  18.974  20.716   8.850
 5549POPC   C1A17379  19.046  20.592   8.550
 5549POPC   D2A17380  19.099  20.561   8.250
 5549POPC   C3A17381  19.023  20.637   7.950
 5549POPC   C4A17382  19.043  20.621   7.650
 5549POPC   C1B17383  18.910  20.780   8.550
 5549POPC   C2B17384  18.945  20.843   8.250
 5549POPC   C3B17385  18.897  20.786   7.950
 5549POPC   C4B17386  18.890  20.844   7.650
 5550POPC   NC317387  42.291  31.440   9.450
 5550POPC   PO417388  42.345  31.490   9.150
 5550POPC   GL117389  42.346  31.490   8.850
 5550POPC   GL217390  42.243  31.377   8.850
 5550POPC   C1A17391  42.341  31.521   8.550
 5550POPC   D2A17392  42.382  31.475   8.250
 5550POPC   C3A17393  42.369  31.459   7.950
 5550POPC   C4A17394  42.308  31.510   7.650
 5550POPC   C1B17395  42.161  31.316   8.550
 5550POPC   C2B17396  42.103  31.314   8.250
 5550POPC   C3B17397  42.113  31.399   7.950
 5550POPC   C4B17398  42.110  31.394   7.650
 5551POPC   NC317399  43.934  22.925   9.450
 5551POPC   PO417400  43.848  22.913   9.150
 5551POPC   GL117401  43.856  22.910   8.850
 5551POPC   GL217402  43.748  23.045   8.850
 5551POPC   C1A17403  43.929  22.888   8.550
 5551POPC   D2A17404  43.868  22.927   8.250
 5551POPC   C3A17405  43.855  22.904   7.950
 5551POPC   C4A17406  43.852  22.957   7.650
 5551POPC   C1B17407  43.689  23.025   8.550
 5551POPC   C2B17408  43.673  23.100   8.250
 5551POPC   C3B17409  43.627  23.085   7.950
 5551POPC   C4B17410  43.699  23.019   7.650
 5552POPC   NC317411  23.734  14.425   9.450
 5552POPC   PO417412  23.709  14.379   9.150
 5552POPC   GL117413  23.745  14.420   8.850
 5552POPC   GL217414  23.544  14.378   8.850
 5552POPC   C1A17415  23.707  14.362   8.550
 5552POPC   D2A17416  23.692  14.358   8.250
 5552POPC   C3A17417  23.730  14.373   7.950
 5552POPC   C4A17418  23.676  14.413   7.650
 5552POPC   C1B17419  23.470  14.423   8.550
 5552POPC   C2B17420  23.468  14.468   8.250
 5552POPC   C3B17421  23.449  14.469   7.950
 5552POPC   C4B17422  23.483  14.436   7.650
 5553POPC   NC317423  42.297   2.794   9.450
 5553POPC   PO417424  42.301   2.716   9.150
 5553POPC   GL117425  42.378   2.753   8.850
 5553POPC   GL217426  42.215   2.783   8.850
 5553POPC   C1A17427  42.348   2.738   8.550
 5553POPC   D2A17428  42.312   2.735   8.250
 5553POPC   C3A17429  42.359   2.748   7.950
 5553POPC   C4A17430  42.288   2.722   7.650
 5553POPC   C1B17431  42.149   2.893   8.550
 5553POPC   C2B17432  42.136   2.825   8.250
 5553POPC   C3B17433  42.110   2.836   7.950
 5553POPC   C4B17434  42.088   2.829   7.650
 5554POPC   NC317435  22.897  35.371   9.450
 5554POPC   PO417436  22.975  35.308   9.150
 5554POPC   GL117437  22.945  35.330   8.850
 5554POPC   GL217438  22.831  35.306   8.850
 5554POPC   C1A17439  22.916  35.308   8.550
 5554POPC   D2A17440  22.926  35.389   8.250
 5554POPC   C3A17441  22.906  35.373   7.950
 5554POPC   C4A17442  22.921  35.340   7.650
 5554POPC   C1B17443  22.659  35.319   8.550
 5554POPC   C2B17444  22.701  35.332   8.250
 5554POPC   C3B17445  22.686  35.315   7.950
 5554POPC   C4B17446  22.651  35.342   7.650
 5555POPC   NC317447   5.825   1.995   9.450
 5555POPC   PO417448   5.827   1.968   9.150
 5555POPC   GL117449   5.877   1.990   8.850
 5555POPC   GL217450   5.813   2.072   8.850
 5555POPC   C1A17451   5.822   1.984   8.550
 5555POPC   D2A17452   5.853   2.019   8.250
 5555POPC   C3A17453   5.874   1.950   7.950
 5555POPC   C4A17454   5.843   1.952   7.650
 5555POPC   C1B17455   5.731   2.126   8.550
 5555POPC   C2B17456   5.698   2.139   8.250
 5555POPC   C3B17457   5.692   2.124   7.950
 5555POPC   C4B17458   5.651   2.149   7.650
 5556POPC   NC317459   4.341  20.606   9.450
 5556POPC   PO417460   4.295  20.623   9.150
 5556POPC   GL117461   4.298  20.624   8.850
 5556POPC   GL217462   4.315  20.730   8.850
 5556POPC   C1A17463   4.335  20.660   8.550
 5556POPC   D2A17464   4.333  20.586   8.250
 5556POPC   C3A17465   4.289  20.564   7.950
 5556POPC   C4A17466   4.272  20.619   7.650
 5556POPC   C1B17467   4.415  20.901   8.550
 5556POPC   C2B17468   4.396  20.806   8.250
 5556POPC   C3B17469   4.363  20.814   7.950
 5556POPC   C4B17470   4.350  20.893   7.650
 5557POPC   NC317471   6.679  43.868   9.450
 5557POPC   PO417472   6.603  43.854   9.150
 5557POPC   GL117473   6.673  43.895   8.850
 5557POPC   GL217474   6.688  43.771   8.850
 5557POPC   C1A17475   6.625  43.934   8.550
 5557POPC   D2A17476   6.623  43.892   8.250
 5557POPC   C3A17477   6.690  43.926   7.950
 5557POPC   C4A17478   6.615  43.857   7.650
 5557POPC   C1B17479   6.813  43.708   8.550
 5557POPC   C2B17480   6.778  43.675   8.250
 5557POPC   C3B17481   6.783  43.712   7.950
 5557POPC   C4B17482   6.753  43.693   7.650
 5558POPC   NC317483  29.128   0.486   9.450
 5558POPC   PO417484  29.136   0.468   9.150
 5558POPC   GL117485  29.164   0.447   8.850
 5558POPC   GL217486  29.122   0.276   8.850
 5558POPC   C1A17487  29.161   0.427   8.550
 5558POPC   D2A17488  29.155   0.415   8.250
 5558POPC   C3A17489  29.140   0.430   7.950
 5558POPC   C4A17490  29.133   0.459   7.650
 5558POPC   C1B17491  28.998   0.225   8.550
 5558POPC   C2B17492  29.084   0.240   8.250
 5558POPC   C3B17493  29.077   0.224   7.950
 5558POPC   C4B17494  29.065   0.236   7.650
 5559POPC   NC317495  10.547  19.034   9.450
 5559POPC   PO417496  10.547  19.098   9.150
 5559POPC   GL117497  10.485  19.021   8.850
 5559POPC   GL217498  10.542  18.929   8.850
 5559POPC   C1A17499  10.487  19.037   8.550
 5559POPC   D2A17500  10.483  19.027   8.250
 5559POPC   C3A17501  10.505  19.104   7.950
 5559POPC   C4A17502  10.483  19.023   7.650
 5559POPC   C1B17503  10.513  18.841   8.550
 5559POPC   C2B17504  10.586  18.820   8.250
 5559POPC   C3B17505  10.546  18.856   7.950
 5559POPC   C4B17506  10.542  18.849   7.650
 5560POPC   NC317507  40.767   3.511   9.450
 5560POPC   PO417508  40.774   3.590   9.150
 5560POPC   GL117509  40.830   3.502   8.850
 5560POPC   GL217510  40.704   3.588   8.850
 5560POPC   C1A17511  40.766   3.562   8.550
 5560POPC   D2A17512  40.829   3.529   8.250
 5560POPC   C3A17513  40.734   3.535   7.950
 5560POPC   C4A17514  40.762   3.537   7.650
 5560POPC   C1B17515  40.610   3.716   8.550
 5560POPC   C2B17516  40.620   3.652   8.250
 5560POPC   C3B17517  40.545   3.637   7.950
 5560POPC   C4B17518  40.583   3.718   7.650
 5561POPC   NC317519  40.788  12.110   9.450
 5561POPC   PO417520  40.817  12.032   9.150
 5561POPC   GL117521  40.828  12.087   8.850
 5561POPC   GL217522  40.918  12.203   8.850
 5561POPC   C1A17523  40.791  12.078   8.550
 5561POPC   D2A17524  40.771  12.123   8.250
 5561POPC   C3A17525  40.832  12.040   7.950
 5561POPC   C4A17526  40.780  12.031   7.650
 5561POPC   C1B17527  40.978  12.271   8.550
 5561POPC   C2B17528  40.950  12.217   8.250
 5561POPC   C3B17529  40.913  12.267   7.950
 5561POPC   C4B17530  40.984  12.218   7.650
 5562POPC   NC317531   6.632  39.184   9.450
 5562POPC   PO417532   6.657  39.189   9.150
 5562POPC   GL117533   6.689  39.182   8.850
 5562POPC   GL217534   6.480  39.269   8.850
 5562POPC   C1A17535   6.643  39.184   8.550
 5562POPC   D2A17536   6.603  39.196   8.250
 5562POPC   C3A17537   6.670  39.209   7.950
 5562POPC   C4A17538   6.607  39.219   7.650
 5562POPC   C1B17539   6.393  39.267   8.550
 5562POPC   C2B17540   6.427  39.227   8.250
 5562POPC   C3B17541   6.388  39.231   7.950
 5562POPC   C4B17542   6.346  39.224   7.650
 5563POPC   NC317543   0.461  16.751   9.450
 5563POPC   PO417544   0.426  16.751   9.150
 5563POPC   GL117545   0.468  16.748   8.850
 5563POPC   GL217546   0.586  16.677   8.850
 5563POPC   C1A17547   0.430  16.778   8.550
 5563POPC   D2A17548   0.434  16.704   8.250
 5563POPC   C3A17549   0.435  16.763   7.950
 5563POPC   C4A17550   0.427  16.700   7.650
 5563POPC   C1B17551   0.634  16.565   8.550
 5563POPC   C2B17552   0.683  16.619   8.250
 5563POPC   C3B17553   0.625  16.557   7.950
 5563POPC   C4B17554   0.667  16.584   7.650
 5564POPC   NC317555  39.228  21.395   9.450
 5564POPC   PO417556  39.271  21.377   9.150
 5564POPC   GL117557  39.243  21.372   8.850
 5564POPC   GL217558  39.296  21.411   8.850
 5564POPC   C1A17559  39.274  21.365   8.550
 5564POPC   D2A17560  39.218  21.390   8.250
 5564POPC   C3A17561  39.255  21.378   7.950
 5564POPC   C4A17562  39.199  21.436   7.650
 5564POPC   C1B17563  39.436  21.499   8.550
 5564POPC   C2B17564  39.418  21.506   8.250
 5564POPC   C3B17565  39.456  21.459   7.950
 5564POPC   C4B17566  39.472  21.493   7.650
 5565POPC   NC317567   0.427  41.523   9.450
 5565POPC   PO417568   0.485  41.578   9.150
 5565POPC   GL117569   0.460  41.587   8.850
 5565POPC   GL217570   0.554  41.557   8.850
 5565POPC   C1A17571   0.410  41.560   8.550
 5565POPC   D2A17572   0.442  41.567   8.250
 5565POPC   C3A17573   0.476  41.559   7.950
 5565POPC   C4A17574   0.429  41.539   7.650
 5565POPC   C1B17575   0.658  41.683   8.550
 5565POPC   C2B17576   0.710  41.666   8.250
 5565POPC   C3B17577   0.676  41.609   7.950
 5565POPC   C4B17578   0.655  41.642   7.650
 5566POPC   NC317579  12.049  29.138   9.450
 5566POPC   PO417580  12.044  29.170   9.150
 5566POPC   GL117581  12.032  29.161   8.850
 5566POPC   GL217582  12.044  29.274   8.850
 5566POPC   C1A17583  12.099  29.095   8.550
 5566POPC   D2A17584  12.084  29.179   8.250
 5566POPC   C3A17585  12.032  29.117   7.950
 5566POPC   C4A17586  12.123  29.186   7.650
 5566POPC   C1B17587  12.033  29.350   8.550
 5566POPC   C2B17588  12.075  29.396   8.250
 5566POPC   C3B17589  12.053  29.371   7.950
 5566POPC   C4B17590  12.113  29.404   7.650
 5567POPC   NC317591  26.056  31.438   9.450
 5567POPC   PO417592  26.004  31.456   9.150
 5567POPC   GL117593  26.080  31.508   8.850
 5567POPC   GL217594  26.069  31.344   8.850
 5567POPC   C1A17595  26.031  31.451   8.550
 5567POPC   D2A17596  26.025  31.511   8.250
 5567POPC   C3A17597  26.040  31.504   7.950
 5567POPC   C4A17598  26.058  31.500   7.650
 5567POPC   C1B17599  26.199  31.248   8.550
 5567POPC   C2B17600  26.163  31.304   8.250
 5567POPC   C3B17601  26.152  31.284   7.950
 5567POPC   C4B17602  26.140  31.236   7.650
 5568POPC   NC317603  36.926  19.086   9.450
 5568POPC   PO417604  36.940  19.056   9.150
 5568POPC   GL117605  36.914  19.064   8.850
 5568POPC   GL217606  37.029  19.008   8.850
 5568POPC   C1A17607  36.937  19.041   8.550
 5568POPC   D2A17608  36.871  19.034   8.250
 5568POPC   C3A17609  36.860  19.077   7.950
 5568POPC   C4A17610  36.884  19.087   7.650
 5568POPC   C1B17611  37.177  18.990   8.550
 5568POPC   C2B17612  37.139  18.934   8.250
 5568POPC   C3B17613  37.156  19.008   7.950
 5568POPC   C4B17614  37.092  18.934   7.650
 5569POPC   NC317615  11.255  44.684   9.450
 5569POPC   PO417616  11.314  44.688   9.150
 5569POPC   GL117617  11.334  44.656   8.850
 5569POPC   GL217618  11.211  44.729   8.850
 5569POPC   C1A17619  11.256  44.624   8.550
 5569POPC   D2A17620  11.323  44.634   8.250
 5569POPC   C3A17621  11.346  44.682   7.950
 5569POPC   C4A17622  11.349  44.664   7.650
 5569POPC   C1B17623  11.256  44.877   8.550
 5569POPC   C2B17624  11.251  44.922   8.250
 5569POPC   C3B17625  11.260  44.846   7.950
 5569POPC   C4B17626  11.198  44.883   7.650
 5570POPC   NC317627  19.074  11.259   9.450
 5570POPC   PO417628  19.036  11.346   9.150
 5570POPC   GL117629  19.106  11.338   8.850
 5570POPC   GL217630  19.133  11.148   8.850
 5570POPC   C1A17631  19.068  11.302   8.550
 5570POPC   D2A17632  19.043  11.297   8.250
 5570POPC   C3A17633  19.086  11.271   7.950
 5570POPC   C4A17634  19.042  11.332   7.650
 5570POPC   C1B17635  19.174  11.123   8.550
 5570POPC   C2B17636  19.132  11.070   8.250
 5570POPC   C3B17637  19.154  11.045   7.950
 5570POPC   C4B17638  19.136  11.081   7.650
 5571POPC   NC317639   5.884  28.336   9.450
 5571POPC   PO417640   5.876  28.324   9.150
 5571POPC   GL117641   5.842  28.329   8.850
 5571POPC   GL217642   5.829  28.247   8.850
 5571POPC   C1A17643   5.866  28.410   8.550
 5571POPC   D2A17644   5.832  28.347   8.250
 5571POPC   C3A17645   5.848  28.357   7.950
 5571POPC   C4A17646   5.905  28.351   7.650
 5571POPC   C1B17647   5.684  28.178   8.550
 5571POPC   C2B17648   5.678  28.134   8.250
 5571POPC   C3B17649   5.758  28.159   7.950
 5571POPC   C4B17650   5.730  28.153   7.650
 5572POPC   NC317651  39.983   8.943   9.450
 5572POPC   PO417652  39.971   8.978   9.150
 5572POPC   GL117653  40.016   8.960   8.850
 5572POPC   GL217654  39.910   8.951   8.850
 5572POPC   C1A17655  40.027   8.950   8.550
 5572POPC   D2A17656  40.032   8.955   8.250
 5572POPC   C3A17657  40.016   8.976   7.950
 5572POPC   C4A17658  39.986   8.953   7.650
 5572POPC   C1B17659  39.785   9.038   8.550
 5572POPC   C2B17660  39.795   8.974   8.250
 5572POPC   C3B17661  39.776   8.984   7.950
 5572POPC   C4B17662  39.772   9.070   7.650
 5573POPC   NC317663  10.479   4.361   9.450
 5573POPC   PO417664  10.523   4.268   9.150
 5573POPC   GL117665  10.534   4.309   8.850
 5573POPC   GL217666  10.406   4.383   8.850
 5573POPC   C1A17667  10.480   4.290   8.550
 5573POPC   D2A17668  10.562   4.326   8.250
 5573POPC   C3A17669  10.486   4.272   7.950
 5573POPC   C4A17670  10.529   4.317   7.650
 5573POPC   C1B17671  10.340   4.432   8.550
 5573POPC   C2B17672  10.351   4.471   8.250
 5573POPC   C3B17673  10.259   4.462   7.950
 5573POPC   C4B17674  10.291   4.427   7.650
 5574POPC   NC317675  27.545  12.060   9.450
 5574POPC   PO417676  27.639  12.063   9.150
 5574POPC   GL117677  27.601  12.034   8.850
 5574POPC   GL217678  27.663  12.150   8.850
 5574POPC   C1A17679  27.627  12.123   8.550
 5574POPC   D2A17680  27.565  12.118   8.250
 5574POPC   C3A17681  27.580  12.073   7.950
 5574POPC   C4A17682  27.582  12.094   7.650
 5574POPC   C1B17683  27.793  12.261   8.550
 5574POPC   C2B17684  27.802  12.229   8.250
 5574POPC   C3B17685  27.798  12.255   7.950
 5574POPC   C4B17686  27.734  12.229   7.650
 5575POPC   NC317687  34.561  43.125   9.450
 5575POPC   PO417688  34.624  43.079   9.150
 5575POPC   GL117689  34.608  43.153   8.850
 5575POPC   GL217690  34.519  43.008   8.850
 5575POPC   C1A17691  34.561  43.104   8.550
 5575POPC   D2A17692  34.597  43.124   8.250
 5575POPC   C3A17693  34.570  43.144   7.950
 5575POPC   C4A17694  34.608  43.128   7.650
 5575POPC   C1B17695  34.397  42.984   8.550
 5575POPC   C2B17696  34.363  42.957   8.250
 5575POPC   C3B17697  34.424  42.963   7.950
 5575POPC   C4B17698  34.416  42.951   7.650
 5576POPC   NC317699  30.733  24.509   9.450
 5576POPC   PO417700  30.661  24.513   9.150
 5576POPC   GL117701  30.696  24.480   8.850
 5576POPC   GL217702  30.727  24.382   8.850
 5576POPC   C1A17703  30.660  24.454   8.550
 5576POPC   D2A17704  30.702  24.504   8.250
 5576POPC   C3A17705  30.719  24.486   7.950
 5576POPC   C4A17706  30.725  24.500   7.650
 5576POPC   C1B17707  30.748  24.294   8.550
 5576POPC   C2B17708  30.743  24.254   8.250
 5576POPC   C3B17709  30.758  24.230   7.950
 5576POPC   C4B17710  30.725  24.281   7.650
 5577POPC   NC317711  26.776   1.261   9.450
 5577POPC   PO417712  26.825   1.190   9.150
 5577POPC   GL117713  26.775   1.166   8.850
 5577POPC   GL217714  26.899   1.113   8.850
 5577POPC   C1A17715  26.850   1.193   8.550
 5577POPC   D2A17716  26.833   1.199   8.250
 5577POPC   C3A17717  26.866   1.233   7.950
 5577POPC   C4A17718  26.853   1.247   7.650
 5577POPC   C1B17719  27.041   1.113   8.550
 5577POPC   C2B17720  27.081   1.144   8.250
 5577POPC   C3B17721  27.054   1.061   7.950
 5577POPC   C4B17722  27.051   1.099   7.650
 5578POPC   NC317723  10.499   8.220   9.450
 5578POPC   PO417724  10.491   8.172   9.150
 5578POPC   GL117725  10.516   8.244   8.850
 5578POPC   GL217726  10.368   8.187   8.850
 5578POPC   C1A17727  10.500   8.223   8.550
 5578POPC   D2A17728  10.564   8.230   8.250
 5578POPC   C3A17729  10.497   8.189   7.950
 5578POPC   C4A17730  10.540   8.236   7.650
 5578POPC   C1B17731  10.229   8.192   8.550
 5578POPC   C2B17732  10.285   8.200   8.250
 5578POPC   C3B17733  10.288   8.158   7.950
 5578POPC   C4B17734  10.288   8.224   7.650
 5579POPC   NC317735   3.580  27.625   9.450
 5579POPC   PO417736   3.590  27.642   9.150
 5579POPC   GL117737   3.588  27.593   8.850
 5579POPC   GL217738   3.597  27.551   8.850
 5579POPC   C1A17739   3.516  27.603   8.550
 5579POPC   D2A17740   3.582  27.624   8.250
 5579POPC   C3A17741   3.519  27.637   7.950
 5579POPC   C4A17742   3.523  27.603   7.650
 5579POPC   C1B17743   3.708  27.463   8.550
 5579POPC   C2B17744   3.768  27.440   8.250
 5579POPC   C3B17745   3.701  27.425   7.950
 5579POPC   C4B17746   3.763  27.461   7.650
 5580POPC   NC317747   4.311   5.894   9.450
 5580POPC   PO417748   4.339   5.901   9.150
 5580POPC   GL117749   4.337   5.899   8.850
 5580POPC   GL217750   4.295   5.720   8.850
 5580POPC   C1A17751   4.349   5.862   8.550
 5580POPC   D2A17752   4.308   5.899   8.250
 5580POPC   C3A17753   4.348   5.821   7.950
 5580POPC   C4A17754   4.365   5.906   7.650
 5580POPC   C1B17755   4.369   5.571   8.550
 5580POPC   C2B17756   4.370   5.633   8.250
 5580POPC   C3B17757   4.318   5.614   7.950
 5580POPC   C4B17758   4.361   5.574   7.650
 5581POPC   NC317759   7.414  22.973   9.450
 5581POPC   PO417760   7.390  22.892   9.150
 5581POPC   GL117761   7.440  22.899   8.850
 5581POPC   GL217762   7.429  23.046   8.850
 5581POPC   C1A17763   7.412  22.900   8.550
 5581POPC   D2A17764   7.415  22.984   8.250
 5581POPC   C3A17765   7.423  22.940   7.950
 5581POPC   C4A17766   7.464  22.931   7.650
 5581POPC   C1B17767   7.389  23.167   8.550
 5581POPC   C2B17768   7.399  23.192   8.250
 5581POPC   C3B17769   7.307  23.227   7.950
 5581POPC   C4B17770   7.397  23.209   7.650
 5582POPC   NC317771  30.725  29.161   9.450
 5582POPC   PO417772  30.703  29.174   9.150
 5582POPC   GL117773  30.738  29.108   8.850
 5582POPC   GL217774  30.684  29.041   8.850
 5582POPC   C1A17775  30.721  29.152   8.550
 5582POPC   D2A17776  30.682  29.168   8.250
 5582POPC   C3A17777  30.648  29.188   7.950
 5582POPC   C4A17778  30.668  29.145   7.650
 5582POPC   C1B17779  30.710  28.938   8.550
 5582POPC   C2B17780  30.737  28.869   8.250
 5582POPC   C3B17781  30.697  28.892   7.950
 5582POPC   C4B17782  30.734  28.911   7.650
 5583POPC   NC317783  36.163  30.743   9.450
 5583POPC   PO417784  36.157  30.726   9.150
 5583POPC   GL117785  36.135  30.687   8.850
 5583POPC   GL217786  36.220  30.824   8.850
 5583POPC   C1A17787  36.089  30.744   8.550
 5583POPC   D2A17788  36.140  30.703   8.250
 5583POPC   C3A17789  36.154  30.713   7.950
 5583POPC   C4A17790  36.142  30.699   7.650
 5583POPC   C1B17791  36.276  30.900   8.550
 5583POPC   C2B17792  36.317  30.885   8.250
 5583POPC   C3B17793  36.310  30.900   7.950
 5583POPC   C4B17794  36.259  30.873   7.650
 5584POPC   NC317795  44.665   3.545   9.450
 5584POPC   PO417796  44.666   3.531   9.150
 5584POPC   GL117797  44.633   3.495   8.850
 5584POPC   GL217798  44.579   3.407   8.850
 5584POPC   C1A17799  44.649   3.497   8.550
 5584POPC   D2A17800  44.703   3.537   8.250
 5584POPC   C3A17801  44.702   3.520   7.950
 5584POPC   C4A17802  44.686   3.518   7.650
 5584POPC   C1B17803  44.565   3.274   8.550
 5584POPC   C2B17804  44.556   3.289   8.250
 5584POPC   C3B17805  44.583   3.294   7.950
 5584POPC   C4B17806  44.575   3.345   7.650
 5585POPC   NC317807   4.331  40.024   9.450
 5585POPC   PO417808   4.294  40.044   9.150
 5585POPC   GL117809   4.340  40.045   8.850
 5585POPC   GL217810   4.301  39.888   8.850
 5585POPC   C1A17811   4.333  39.971   8.550
 5585POPC   D2A17812   4.355  40.000   8.250
 5585POPC   C3A17813   4.305  39.996   7.950
 5585POPC   C4A17814   4.289  39.980   7.650
 5585POPC   C1B17815   4.278  39.773   8.550
 5585POPC   C2B17816   4.231  39.814   8.250
 5585POPC   C3B17817   4.235  39.722   7.950
 5585POPC   C4B17818   4.223  39.797   7.650
 5586POPC   NC317819  36.923  14.440   9.450
 5586POPC   PO417820  36.909  14.416   9.150
 5586POPC   GL117821  36.925  14.402   8.850
 5586POPC   GL217822  36.917  14.507   8.850
 5586POPC   C1A17823  36.926  14.354   8.550
 5586POPC   D2A17824  36.877  14.401   8.250
 5586POPC   C3A17825  36.923  14.420   7.950
 5586POPC   C4A17826  36.879  14.451   7.650
 5586POPC   C1B17827  36.981  14.635   8.550
 5586POPC   C2B17828  36.989  14.676   8.250
 5586POPC   C3B17829  36.955  14.678   7.950
 5586POPC   C4B17830  36.968  14.692   7.650
 5587POPC   NC317831  19.087  17.476   9.450
 5587POPC   PO417832  19.048  17.515   9.150
 5587POPC   GL117833  19.108  17.532   8.850
 5587POPC   GL217834  18.942  17.590   8.850
 5587POPC   C1A17835  19.041  17.536   8.550
 5587POPC   D2A17836  19.096  17.465   8.250
 5587POPC   C3A17837  19.077  17.519   7.950
 5587POPC   C4A17838  19.061  17.490   7.650
 5587POPC   C1B17839  18.812  17.669   8.550
 5587POPC   C2B17840  18.878  17.691   8.250
 5587POPC   C3B17841  18.894  17.623   7.950
 5587POPC   C4B17842  18.817  17.687   7.650
 5588POPC   NC317843  35.387  24.515   9.450
 5588POPC   PO417844  35.336  24.480   9.150
 5588POPC   GL117845  35.357  24.539   8.850
 5588POPC   GL217846  35.266  24.429   8.850
 5588POPC   C1A17847  35.343  24.525   8.550
 5588POPC   D2A17848  35.339  24.445   8.250
 5588POPC   C3A17849  35.397  24.513   7.950
 5588POPC   C4A17850  35.337  24.521   7.650
 5588POPC   C1B17851  35.194  24.353   8.550
 5588POPC   C2B17852  35.198  24.316   8.250
 5588POPC   C3B17853  35.183  24.305   7.950
 5588POPC   C4B17854  35.175  24.287   7.650
 5589POPC   NC317855   5.110   5.862   9.450
 5589POPC   PO417856   5.062   5.880   9.150
 5589POPC   GL117857   5.142   5.873   8.850
 5589POPC   GL217858   5.007   5.985   8.850
 5589POPC   C1A17859   5.127   5.881   8.550
 5589POPC   D2A17860   5.081   5.848   8.250
 5589POPC   C3A17861   5.091   5.859   7.950
 5589POPC   C4A17862   5.120   5.892   7.650
 5589POPC   C1B17863   4.930   5.962   8.550
 5589POPC   C2B17864   4.871   5.972   8.250
 5589POPC   C3B17865   4.848   6.045   7.950
 5589POPC   C4B17866   4.925   6.014   7.650
 5590POPC   NC317867  33.841  17.523   9.450
 5590POPC   PO417868  33.808  17.548   9.150
 5590POPC   GL117869  33.818  17.512   8.850
 5590POPC   GL217870  33.895  17.540   8.850
 5590POPC   C1A17871  33.825  17.478   8.550
 5590POPC   D2A17872  33.779  17.525   8.250
 5590POPC   C3A17873  33.765  17.495   7.950
 5590POPC   C4A17874  33.776  17.464   7.650
 5590POPC   C1B17875  34.015  17.473   8.550
 5590POPC   C2B17876  34.086  17.430   8.250
 5590POPC   C3B17877  34.009  17.452   7.950
 5590POPC   C4B17878  34.036  17.483   7.650
 5591POPC   NC317879   8.999  15.921   9.450
 5591POPC   PO417880   8.958  15.941   9.150
 5591POPC   GL117881   8.923  15.979   8.850
 5591POPC   GL217882   9.069  15.940   8.850
 5591POPC   C1A17883   8.992  15.944   8.550
 5591POPC   D2A17884   8.964  15.982   8.250
 5591POPC   C3A17885   9.008  15.923   7.950
 5591POPC   C4A17886   8.980  15.914   7.650
 5591POPC   C1B17887   9.262  15.900   8.550
 5591POPC   C2B17888   9.194  15.859   8.250
 5591POPC   C3B17889   9.252  15.864   7.950
 5591POPC   C4B17890   9.181  15.922   7.650
 5592POPC   NC317891  37.681  37.664   9.450
 5592POPC   PO417892  37.691  37.708   9.150
 5592POPC   GL117893  37.713  37.682   8.850
 5592POPC   GL217894  37.584  37.819   8.850
 5592POPC   C1A17895  37.699  37.638   8.550
 5592POPC   D2A17896  37.643  37.647   8.250
 5592POPC   C3A17897  37.676  37.674   7.950
 5592POPC   C4A17898  37.700  37.631   7.650
 5592POPC   C1B17899  37.509  37.878   8.550
 5592POPC   C2B17900  37.513  37.860   8.250
 5592POPC   C3B17901  37.589  37.854   7.950
 5592POPC   C4B17902  37.568  37.886   7.650
 5593POPC   NC317903  31.479   9.745   9.450
 5593POPC   PO417904  31.466   9.771   9.150
 5593POPC   GL117905  31.497   9.737   8.850
 5593POPC   GL217906  31.445   9.660   8.850
 5593POPC   C1A17907  31.469   9.707   8.550
 5593POPC   D2A17908  31.508   9.789   8.250
 5593POPC   C3A17909  31.448   9.716   7.950
 5593POPC   C4A17910  31.492   9.745   7.650
 5593POPC   C1B17911  31.368   9.518   8.550
 5593POPC   C2B17912  31.349   9.582   8.250
 5593POPC   C3B17913  31.369   9.538   7.950
 5593POPC   C4B17914  31.341   9.591   7.650
 5594POPC   NC317915  25.235  37.660   9.450
 5594POPC   PO417916  25.291  37.691   9.150
 5594POPC   GL117917  25.299  37.667   8.850
 5594POPC   GL217918  25.168  37.777   8.850
 5594POPC   C1A17919  25.235  37.651   8.550
 5594POPC   D2A17920  25.298  37.683   8.250
 5594POPC   C3A17921  25.248  37.697   7.950
 5594POPC   C4A17922  25.278  37.654   7.650
 5594POPC   C1B17923  25.138  37.846   8.550
 5594POPC   C2B17924  25.051  37.837   8.250
 5594POPC   C3B17925  25.097  37.823   7.950
 5594POPC   C4B17926  25.111  37.846   7.650
 5595POPC   NC317927   7.464  37.686   9.450
 5595POPC   PO417928   7.404  37.708   9.150
 5595POPC   GL117929   7.394  37.669   8.850
 5595POPC   GL217930   7.582  37.629   8.850
 5595POPC   C1A17931   7.458  37.728   8.550
 5595POPC   D2A17932   7.451  37.709   8.250
 5595POPC   C3A17933   7.391  37.727   7.950
 5595POPC   C4A17934   7.455  37.646   7.650
 5595POPC   C1B17935   7.640  37.550   8.550
 5595POPC   C2B17936   7.688  37.584   8.250
 5595POPC   C3B17937   7.622  37.622   7.950
 5595POPC   C4B17938   7.604  37.565   7.650
 5596POPC   NC317939   8.153  26.822   9.450
 5596POPC   PO417940   8.235  26.770   9.150
 5596POPC   GL117941   8.182  26.804   8.850
 5596POPC   GL217942   8.249  26.702   8.850
 5596POPC   C1A17943   8.184  26.780   8.550
 5596POPC   D2A17944   8.171  26.777   8.250
 5596POPC   C3A17945   8.153  26.783   7.950
 5596POPC   C4A17946   8.162  26.770   7.650
 5596POPC   C1B17947   8.384  26.670   8.550
 5596POPC   C2B17948   8.391  26.676   8.250
 5596POPC   C3B17949   8.350  26.647   7.950
 5596POPC   C4B17950   8.384  26.611   7.650
 5597POPC   NC317951  12.863  43.855   9.450
 5597POPC   PO417952  12.889  43.895   9.150
 5597POPC   GL117953  12.834  43.910   8.850
 5597POPC   GL217954  12.893  43.966   8.850
 5597POPC   C1A17955  12.811  43.860   8.550
 5597POPC   D2A17956  12.827  43.888   8.250
 5597POPC   C3A17957  12.814  43.933   7.950
 5597POPC   C4A17958  12.809  43.878   7.650
 5597POPC   C1B17959  12.958  44.126   8.550
 5597POPC   C2B17960  12.969  44.080   8.250
 5597POPC   C3B17961  12.944  44.158   7.950
 5597POPC   C4B17962  12.942  44.085   7.650
 5598POPC   NC317963  22.890  37.718   9.450
 5598POPC   PO417964  22.888  37.642   9.150
 5598POPC   GL117965  22.891  37.662   8.850
 5598POPC   GL217966  23.049  37.573   8.850
 5598POPC   C1A17967  22.917  37.648   8.550
 5598POPC   D2A17968  22.931  37.689   8.250
 5598POPC   C3A17969  22.894  37.694   7.950
 5598POPC   C4A17970  22.913  37.650   7.650
 5598POPC   C1B17971  23.112  37.537   8.550
 5598POPC   C2B17972  23.155  37.460   8.250
 5598POPC   C3B17973  23.152  37.521   7.950
 5598POPC   C4B17974  23.067  37.497   7.650
 5599POPC   NC317975  43.102  29.188   9.450
 5599POPC   PO417976  43.153  29.148   9.150
 5599POPC   GL117977  43.160  29.158   8.850
 5599POPC   GL217978  43.240  29.191   8.850
 5599POPC   C1A17979  43.101  29.152   8.550
 5599POPC   D2A17980  43.132  29.145   8.250
 5599POPC   C3A17981  43.061  29.110   7.950
 5599POPC   C4A17982  43.089  29.134   7.650
 5599POPC   C1B17983  43.339  29.316   8.550
 5599POPC   C2B17984  43.249  29.320   8.250
 5599POPC   C3B17985  43.302  29.333   7.950
 5599POPC   C4B17986  43.309  29.326   7.650
 5600POPC   NC317987  27.557  29.908   9.450
 5600POPC   PO417988  27.568  29.895   9.150
 5600POPC   GL117989  27.568  29.900   8.850
 5600POPC   GL217990  27.492  29.980   8.850
 5600POPC   C1A17991  27.590  29.896   8.550
 5600POPC   D2A17992  27.555  29.941   8.250
 5600POPC   C3A17993  27.559  29.920   7.950
 5600POPC   C4A17994  27.625  29.873   7.650
 5600POPC   C1B17995  27.398  30.038   8.550
 5600POPC   C2B17996  27.402  30.077   8.250
 5600POPC   C3B17997  27.405  30.132   7.950
 5600POPC   C4B17998  27.399  30.114   7.650
 5601POPC   NC317999   3.524  40.734   9.450
 5601POPC   PO418000   3.531  40.829   9.150
 5601POPC   GL118001   3.521  40.799   8.850
 5601POPC   GL218002   3.412  40.690   8.850
 5601POPC   C1A18003   3.578  40.791   8.550
 5601POPC   D2A18004   3.532  40.784   8.250
 5601POPC   C3A18005   3.525  40.739   7.950
 5601POPC   C4A18006   3.557  40.740   7.650
 5601POPC   C1B18007   3.352  40.662   8.550
 5601POPC   C2B18008   3.328  40.647   8.250
 5601POPC   C3B18009   3.347  40.689   7.950
 5601POPC   C4B18010   3.381  40.612   7.650
 5602POPC   NC318011   5.119  43.159   9.450
 5602POPC   PO418012   5.050  43.074   9.150
 5602POPC   GL118013   5.091  43.134   8.850
 5602POPC   GL218014   5.019  43.193   8.850
 5602POPC   C1A18015   5.102  43.064   8.550
 5602POPC   D2A18016   5.100  43.078   8.250
 5602POPC   C3A18017   5.055  43.119   7.950
 5602POPC   C4A18018   5.143  43.087   7.650
 5602POPC   C1B18019   4.908  43.279   8.550
 5602POPC   C2B18020   4.888  43.295   8.250
 5602POPC   C3B18021   4.839  43.199   7.950
 5602POPC   C4B18022   4.912  43.209   7.650
 5603POPC   NC318023  44.687  43.102   9.450
 5603POPC   PO418024  44.685  43.137   9.150
 5603POPC   GL118025  44.689  43.083   8.850
 5603POPC   GL218026  44.671  42.963   8.850
 5603POPC   C1A18027  44.691  43.092   8.550
 5603POPC   D2A18028  44.638  43.114   8.250
 5603POPC   C3A18029  44.678  43.070   7.950
 5603POPC   C4A18030  44.613  43.116   7.650
 5603POPC   C1B18031  44.697  42.829   8.550
 5603POPC   C2B18032  44.723  42.883   8.250
 5603POPC   C3B18033  44.652  42.839   7.950
 5603POPC   C4B18034  44.726  42.828   7.650
 5604POPC   NC318035  22.890  22.144   9.450
 5604POPC   PO418036  22.988  22.127   9.150
 5604POPC   GL118037  22.895  22.142   8.850
 5604POPC   GL218038  22.785  22.093   8.850
 5604POPC   C1A18039  22.916  22.118   8.550
 5604POPC   D2A18040  22.926  22.186   8.250
 5604POPC   C3A18041  22.945  22.176   7.950
 5604POPC   C4A18042  22.970  22.167   7.650
 5604POPC   C1B18043  22.689  22.114   8.550
 5604POPC   C2B18044  22.679  22.098   8.250
 5604POPC   C3B18045  22.667  22.118   7.950
 5604POPC   C4B18046  22.735  22.094   7.650
 5605POPC   NC318047  35.379  40.739   9.450
 5605POPC   PO418048  35.360  40.804   9.150
 5605POPC   GL118049  35.311  40.798   8.850
 5605POPC   GL218050  35.244  40.789   8.850
 5605POPC   C1A18051  35.349  40.751   8.550
 5605POPC   D2A18052  35.340  40.811   8.250
 5605POPC   C3A18053  35.329  40.828   7.950
 5605POPC   C4A18054  35.317  40.756   7.650
 5605POPC   C1B18055  35.092  40.865   8.550
 5605POPC   C2B18056  35.158  40.883   8.250
 5605POPC   C3B18057  35.145  40.853   7.950
 5605POPC   C4B18058  35.062  40.859   7.650
 5606POPC   NC318059   4.302  17.523   9.450
 5606POPC   PO418060   4.362  17.534   9.150
 5606POPC   GL118061   4.350  17.488   8.850
 5606POPC   GL218062   4.440  17.579   8.850
 5606POPC   C1A18063   4.327  17.476   8.550
 5606POPC   D2A18064   4.304  17.520   8.250
 5606POPC   C3A18065   4.296  17.463   7.950
 5606POPC   C4A18066   4.299  17.500   7.650
 5606POPC   C1B18067   4.538  17.680   8.550
 5606POPC   C2B18068   4.539  17.712   8.250
 5606POPC   C3B18069   4.455  17.637   7.950
 5606POPC   C4B18070   4.522  17.657   7.650
 5607POPC   NC318071  16.698  31.509   9.450
 5607POPC   PO418072  16.752  31.487   9.150
 5607POPC   GL118073  16.699  31.483   8.850
 5607POPC   GL218074  16.598  31.449   8.850
 5607POPC   C1A18075  16.717  31.471   8.550
 5607POPC   D2A18076  16.719  31.472   8.250
 5607POPC   C3A18077  16.719  31.453   7.950
 5607POPC   C4A18078  16.751  31.467   7.650
 5607POPC   C1B18079  16.504  31.356   8.550
 5607POPC   C2B18080  16.472  31.408   8.250
 5607POPC   C3B18081  16.505  31.376   7.950
 5607POPC   C4B18082  16.533  31.335   7.650
 5608POPC   NC318083  28.326  26.038   9.450
 5608POPC   PO418084  28.323  26.070   9.150
 5608POPC   GL118085  28.419  26.024   8.850
 5608POPC   GL218086  28.436  26.174   8.850
 5608POPC   C1A18087  28.370  26.042   8.550
 5608POPC   D2A18088  28.398  25.997   8.250
 5608POPC   C3A18089  28.397  26.087   7.950
 5608POPC   C4A18090  28.324  25.995   7.650
 5608POPC   C1B18091  28.477  26.286   8.550
 5608POPC   C2B18092  28.506  26.251   8.250
 5608POPC   C3B18093  28.561  26.191   7.950
 5608POPC   C4B18094  28.515  26.248   7.650
 5609POPC   NC318095   8.149  31.496   9.450
 5609POPC   PO418096   8.218  31.465   9.150
 5609POPC   GL118097   8.206  31.500   8.850
 5609POPC   GL218098   8.054  31.580   8.850
 5609POPC   C1A18099   8.207  31.452   8.550
 5609POPC   D2A18100   8.223  31.467   8.250
 5609POPC   C3A18101   8.171  31.471   7.950
 5609POPC   C4A18102   8.180  31.474   7.650
 5609POPC   C1B18103   8.014  31.602   8.550
 5609POPC   C2B18104   7.998  31.641   8.250
 5609POPC   C3B18105   7.955  31.625   7.950
 5609POPC   C4B18106   8.018  31.581   7.650
 5610POPC   NC318107  44.663  34.570   9.450
 5610POPC   PO418108  44.619  34.594   9.150
 5610POPC   GL118109  44.682  34.548   8.850
 5610POPC   GL218110  44.601  34.680   8.850
 5610POPC   C1A18111  44.613  34.569   8.550
 5610POPC   D2A18112  44.680  34.607   8.250
 5610POPC   C3A18113  44.687  34.578   7.950
 5610POPC   C4A18114  44.661  34.559   7.650
 5610POPC   C1B18115  44.484  34.701   8.550
 5610POPC   C2B18116  44.463  34.722   8.250
 5610POPC   C3B18117  44.485  34.738   7.950
 5610POPC   C4B18118  44.484  34.710   7.650
 5611POPC   NC318119  19.104   7.394   9.450
 5611POPC   PO418120  19.011   7.434   9.150
 5611POPC   GL118121  19.087   7.444   8.850
 5611POPC   GL218122  19.060   7.586   8.850
 5611POPC   C1A18123  19.022   7.406   8.550
 5611POPC   D2A18124  19.070   7.386   8.250
 5611POPC   C3A18125  19.035   7.371   7.950
 5611POPC   C4A18126  19.021   7.432   7.650
 5611POPC   C1B18127  19.105   7.646   8.550
 5611POPC   C2B18128  19.089   7.719   8.250
 5611POPC   C3B18129  19.114   7.629   7.950
 5611POPC   C4B18130  19.077   7.639   7.650
 5612POPC   NC318131   7.380   1.178   9.450
 5612POPC   PO418132   7.371   1.196   9.150
 5612POPC   GL118133   7.404   1.259   8.850
 5612POPC   GL218134   7.561   1.256   8.850
 5612POPC   C1A18135   7.412   1.258   8.550
 5612POPC   D2A18136   7.390   1.215   8.250
 5612POPC   C3A18137   7.408   1.166   7.950
 5612POPC   C4A18138   7.426   1.252   7.650
 5612POPC   C1B18139   7.646   1.289   8.550
 5612POPC   C2B18140   7.651   1.371   8.250
 5612POPC   C3B18141   7.614   1.342   7.950
 5612POPC   C4B18142   7.608   1.342   7.650
 5613POPC   NC318143   0.407   9.020   9.450
 5613POPC   PO418144   0.451   8.948   9.150
 5613POPC   GL118145   0.475   8.983   8.850
 5613POPC   GL218146   0.499   9.049   8.850
 5613POPC   C1A18147   0.472   8.980   8.550
 5613POPC   D2A18148   0.471   8.991   8.250
 5613POPC   C3A18149   0.395   8.983   7.950
 5613POPC   C4A18150   0.469   8.938   7.650
 5613POPC   C1B18151   0.520   9.185   8.550
 5613POPC   C2B18152   0.586   9.218   8.250
 5613POPC   C3B18153   0.530   9.233   7.950
 5613POPC   C4B18154   0.602   9.163   7.650
 5614POPC   NC318155  36.151  16.695   9.450
 5614POPC   PO418156  36.094  16.759   9.150
 5614POPC   GL118157  36.160  16.764   8.850
 5614POPC   GL218158  36.231  16.596   8.850
 5614POPC   C1A18159  36.142  16.765   8.550
 5614POPC   D2A18160  36.124  16.733   8.250
 5614POPC   C3A18161  36.087  16.728   7.950
 5614POPC   C4A18162  36.102  16.725   7.650
 5614POPC   C1B18163  36.241  16.519   8.550
 5614POPC   C2B18164  36.286  16.520   8.250
 5614POPC   C3B18165  36.249  16.542   7.950
 5614POPC   C4B18166  36.248  16.537   7.650
 5615POPC   NC318167   6.618  11.319   9.450
 5615POPC   PO418168   6.620  11.348   9.150
 5615POPC   GL118169   6.602  11.307   8.850
 5615POPC   GL218170   6.653  11.141   8.850
 5615POPC   C1A18171   6.691  11.313   8.550
 5615POPC   D2A18172   6.614  11.272   8.250
 5615POPC   C3A18173   6.622  11.327   7.950
 5615POPC   C4A18174   6.659  11.332   7.650
 5615POPC   C1B18175   6.614  11.001   8.550
 5615POPC   C2B18176   6.650  11.015   8.250
 5615POPC   C3B18177   6.681  11.058   7.950
 5615POPC   C4B18178   6.608  11.080   7.650
 5616POPC   NC318179  33.793   4.316   9.450
 5616POPC   PO418180  33.848   4.357   9.150
 5616POPC   GL118181  33.756   4.317   8.850
 5616POPC   GL218182  33.950   4.432   8.850
 5616POPC   C1A18183  33.806   4.277   8.550
 5616POPC   D2A18184  33.767   4.289   8.250
 5616POPC   C3A18185  33.835   4.292   7.950
 5616POPC   C4A18186  33.848   4.323   7.650
 5616POPC   C1B18187  33.954   4.490   8.550
 5616POPC   C2B18188  34.044   4.503   8.250
 5616POPC   C3B18189  34.031   4.481   7.950
 5616POPC   C4B18190  34.021   4.491   7.650
 5617POPC   NC318191  17.487  31.437   9.450
 5617POPC   PO418192  17.523  31.521   9.150
 5617POPC   GL118193  17.480  31.441   8.850
 5617POPC   GL218194  17.390  31.523   8.850
 5617POPC   C1A18195  17.519  31.511   8.550
 5617POPC   D2A18196  17.494  31.454   8.250
 5617POPC   C3A18197  17.485  31.463   7.950
 5617POPC   C4A18198  17.506  31.488   7.650
 5617POPC   C1B18199  17.271  31.633   8.550
 5617POPC   C2B18200  17.341  31.638   8.250
 5617POPC   C3B18201  17.312  31.563   7.950
 5617POPC   C4B18202  17.305  31.571   7.650
 5618POPC   NC318203  19.856  42.383   9.450
 5618POPC   PO418204  19.805  42.285   9.150
 5618POPC   GL118205  19.840  42.376   8.850
 5618POPC   GL218206  19.996  42.312   8.850
 5618POPC   C1A18207  19.798  42.335   8.550
 5618POPC   D2A18208  19.856  42.340   8.250
 5618POPC   C3A18209  19.854  42.384   7.950
 5618POPC   C4A18210  19.820  42.348   7.650
 5618POPC   C1B18211  20.130  42.347   8.550
 5618POPC   C2B18212  20.095  42.339   8.250
 5618POPC   C3B18213  20.119  42.385   7.950
 5618POPC   C4B18214  20.057  42.388   7.650
 5619POPC   NC318215  24.461  14.386   9.450
 5619POPC   PO418216  24.447  14.429   9.150
 5619POPC   GL118217  24.456  14.395   8.850
 5619POPC   GL218218  24.535  14.266   8.850
 5619POPC   C1A18219  24.533  14.445   8.550
 5619POPC   D2A18220  24.504  14.404   8.250
 5619POPC   C3A18221  24.459  14.382   7.950
 5619POPC   C4A18222  24.453  14.423   7.650
 5619POPC   C1B18223  24.557  14.168   8.550
 5619POPC   C2B18224  24.524  14.154   8.250
 5619POPC   C3B18225  24.557  14.187   7.950
 5619POPC   C4B18226  24.573  14.147   7.650
 5620POPC   NC318227  34.539  26.066   9.450
 5620POPC   PO418228  34.559  26.081   9.150
 5620POPC   GL118229  34.599  26.021   8.850
 5620POPC   GL218230  34.520  26.136   8.850
 5620POPC   C1A18231  34.599  26.047   8.550
 5620POPC   D2A18232  34.556  26.053   8.250
 5620POPC   C3A18233  34.531  26.083   7.950
 5620POPC   C4A18234  34.556  26.033   7.650
 5620POPC   C1B18235  34.447  26.232   8.550
 5620POPC   C2B18236  34.403  26.196   8.250
 5620POPC   C3B18237  34.439  26.195   7.950
 5620POPC   C4B18238  34.400  26.204   7.650
 5621POPC   NC318239  41.593  30.656   9.450
 5621POPC   PO418240  41.537  30.672   9.150
 5621POPC   GL118241  41.559  30.683   8.850
 5621POPC   GL218242  41.488  30.592   8.850
 5621POPC   C1A18243  41.571  30.712   8.550
 5621POPC   D2A18244  41.601  30.682   8.250
 5621POPC   C3A18245  41.532  30.670   7.950
 5621POPC   C4A18246  41.530  30.699   7.650
 5621POPC   C1B18247  41.387  30.498   8.550
 5621POPC   C2B18248  41.442  30.466   8.250
 5621POPC   C3B18249  41.418  30.480   7.950
 5621POPC   C4B18250  41.385  30.478   7.650
 5622POPC   NC318251  29.164  44.620   9.450
 5622POPC   PO418252  29.114  44.628   9.150
 5622POPC   GL118253  29.185  44.631   8.850
 5622POPC   GL218254  29.055  44.754   8.850
 5622POPC   C1A18255  29.118  44.689   8.550
 5622POPC   D2A18256  29.126  44.655   8.250
 5622POPC   C3A18257  29.135  44.686   7.950
 5622POPC   C4A18258  29.113  44.636   7.650
 5622POPC   C1B18259  29.065  44.900   8.550
 5622POPC   C2B18260  29.016  44.878   8.250
 5622POPC   C3B18261  29.053  44.891   7.950
 5622POPC   C4B18262  29.018  44.897   7.650
 5623POPC   NC318263  37.676  38.415   9.450
 5623POPC   PO418264  37.669  38.420   9.150
 5623POPC   GL118265  37.672  38.457   8.850
 5623POPC   GL218266  37.756  38.515   8.850
 5623POPC   C1A18267  37.707  38.441   8.550
 5623POPC   D2A18268  37.667  38.487   8.250
 5623POPC   C3A18269  37.727  38.441   7.950
 5623POPC   C4A18270  37.655  38.469   7.650
 5623POPC   C1B18271  37.891  38.596   8.550
 5623POPC   C2B18272  37.873  38.570   8.250
 5623POPC   C3B18273  37.901  38.542   7.950
 5623POPC   C4B18274  37.871  38.542   7.650
 5624POPC   NC318275   4.361  15.144   9.450
 5624POPC   PO418276   4.310  15.218   9.150
 5624POPC   GL118277   4.310  15.154   8.850
 5624POPC   GL218278   4.210  15.185   8.850
 5624POPC   C1A18279   4.315  15.176   8.550
 5624POPC   D2A18280   4.287  15.178   8.250
 5624POPC   C3A18281   4.284  15.199   7.950
 5624POPC   C4A18282   4.290  15.154   7.650
 5624POPC   C1B18283   4.052  15.225   8.550
 5624POPC   C2B18284   4.119  15.253   8.250
 5624POPC   C3B18285   4.120  15.249   7.950
 5624POPC   C4B18286   4.093  15.263   7.650
 5625POPC   NC318287  32.990  27.585   9.450
 5625POPC   PO418288  32.979  27.549   9.150
 5625POPC   GL118289  33.029  27.628   8.850
 5625POPC   GL218290  32.962  27.437   8.850
 5625POPC   C1A18291  33.025  27.595   8.550
 5625POPC   D2A18292  33.041  27.598   8.250
 5625POPC   C3A18293  33.050  27.577   7.950
 5625POPC   C4A18294  33.018  27.614   7.650
 5625POPC   C1B18295  32.945  27.382   8.550
 5625POPC   C2B18296  32.933  27.364   8.250
 5625POPC   C3B18297  32.952  27.301   7.950
 5625POPC   C4B18298  32.920  27.346   7.650
 5626POPC   NC318299  23.737  19.847   9.450
 5626POPC   PO418300  23.742  19.835   9.150
 5626POPC   GL118301  23.696  19.821   8.850
 5626POPC   GL218302  23.733  19.984   8.850
 5626POPC   C1A18303  23.667  19.842   8.550
 5626POPC   D2A18304  23.697  19.856   8.250
 5626POPC   C3A18305  23.700  19.856   7.950
 5626POPC   C4A18306  23.753  19.812   7.650
 5626POPC   C1B18307  23.812  20.108   8.550
 5626POPC   C2B18308  23.800  20.077   8.250
 5626POPC   C3B18309  23.744  20.116   7.950
 5626POPC   C4B18310  23.800  20.118   7.650
 5627POPC   NC318311  17.486  25.242   9.450
 5627POPC   PO418312  17.505  25.299   9.150
 5627POPC   GL118313  17.523  25.286   8.850
 5627POPC   GL218314  17.499  25.117   8.850
 5627POPC   C1A18315  17.550  25.234   8.550
 5627POPC   D2A18316  17.536  25.223   8.250
 5627POPC   C3A18317  17.465  25.289   7.950
 5627POPC   C4A18318  17.459  25.306   7.650
 5627POPC   C1B18319  17.518  25.015   8.550
 5627POPC   C2B18320  17.520  24.995   8.250
 5627POPC   C3B18321  17.437  24.995   7.950
 5627POPC   C4B18322  17.503  25.009   7.650
 5628POPC   NC318323  27.555  43.076   9.450
 5628POPC   PO418324  27.600  43.157   9.150
 5628POPC   GL118325  27.622  43.122   8.850
 5628POPC   GL218326  27.464  43.122   8.850
 5628POPC   C1A18327  27.614  43.142   8.550
 5628POPC   D2A18328  27.586  43.126   8.250
 5628POPC   C3A18329  27.576  43.066   7.950
 5628POPC   C4A18330  27.589  43.099   7.650
 5628POPC   C1B18331  27.333  43.268   8.550
 5628POPC   C2B18332  27.408  43.275   8.250
 5628POPC   C3B18333  27.419  43.249   7.950
 5628POPC   C4B18334  27.325  43.202   7.650
 5629POPC   NC318335  23.683  24.498   9.450
 5629POPC   PO418336  23.678  24.462   9.150
 5629POPC   GL118337  23.736  24.508   8.850
 5629POPC   GL218338  23.788  24.380   8.850
 5629POPC   C1A18339  23.746  24.507   8.550
 5629POPC   D2A18340  23.691  24.483   8.250
 5629POPC   C3A18341  23.753  24.533   7.950
 5629POPC   C4A18342  23.674  24.480   7.650
 5629POPC   C1B18343  23.789  24.300   8.550
 5629POPC   C2B18344  23.804  24.245   8.250
 5629POPC   C3B18345  23.840  24.230   7.950
 5629POPC   C4B18346  23.838  24.253   7.650
 5630POPC   NC318347  33.074  14.398   9.450
 5630POPC   PO418348  33.047  14.419   9.150
 5630POPC   GL118349  33.056  14.444   8.850
 5630POPC   GL218350  32.921  14.460   8.850
 5630POPC   C1A18351  32.992  14.375   8.550
 5630POPC   D2A18352  33.054  14.397   8.250
 5630POPC   C3A18353  32.986  14.366   7.950
 5630POPC   C4A18354  33.057  14.420   7.650
 5630POPC   C1B18355  32.797  14.549   8.550
 5630POPC   C2B18356  32.837  14.512   8.250
 5630POPC   C3B18357  32.803  14.509   7.950
 5630POPC   C4B18358  32.782  14.508   7.650
 5631POPC   NC318359  39.222  22.141   9.450
 5631POPC   PO418360  39.199  22.193   9.150
 5631POPC   GL118361  39.218  22.209   8.850
 5631POPC   GL218362  39.085  22.259   8.850
 5631POPC   C1A18363  39.273  22.185   8.550
 5631POPC   D2A18364  39.204  22.200   8.250
 5631POPC   C3A18365  39.246  22.142   7.950
 5631POPC   C4A18366  39.201  22.144   7.650
 5631POPC   C1B18367  39.063  22.306   8.550
 5631POPC   C2B18368  39.049  22.284   8.250
 5631POPC   C3B18369  38.986  22.350   7.950
 5631POPC   C4B18370  39.054  22.267   7.650
 5632POPC   NC318371   0.412   9.741   9.450
 5632POPC   PO418372   0.446   9.762   9.150
 5632POPC   GL118373   0.467   9.765   8.850
 5632POPC   GL218374   0.355   9.821   8.850
 5632POPC   C1A18375   0.476   9.779   8.550
 5632POPC   D2A18376   0.399   9.706   8.250
 5632POPC   C3A18377   0.417   9.707   7.950
 5632POPC   C4A18378   0.485   9.782   7.650
 5632POPC   C1B18379   0.162   9.847   8.550
 5632POPC   C2B18380   0.223   9.834   8.250
 5632POPC   C3B18381   0.157   9.825   7.950
 5632POPC   C4B18382   0.212   9.831   7.650
 5633POPC   NC318383  27.544  36.895   9.450
 5633POPC   PO418384  27.582  36.900   9.150
 5633POPC   GL118385  27.554  36.928   8.850
 5633POPC   GL218386  27.691  36.938   8.850
 5633POPC   C1A18387  27.592  36.892   8.550
 5633POPC   D2A18388  27.583  36.863   8.250
 5633POPC   C3A18389  27.598  36.878   7.950
 5633POPC   C4A18390  27.554  36.897   7.650
 5633POPC   C1B18391  27.822  36.929   8.550
 5633POPC   C2B18392  27.862  36.934   8.250
 5633POPC   C3B18393  27.823  36.992   7.950
 5633POPC   C4B18394  27.838  36.956   7.650
 5634POPC   NC318395  42.384   9.709   9.450
 5634POPC   PO418396  42.366   9.703   9.150
 5634POPC   GL118397  42.286   9.727   8.850
 5634POPC   GL218398  42.216   9.757   8.850
 5634POPC   C1A18399  42.380   9.732   8.550
 5634POPC   D2A18400  42.317   9.738   8.250
 5634POPC   C3A18401  42.372   9.740   7.950
 5634POPC   C4A18402  42.378   9.769   7.650
 5634POPC   C1B18403  42.054   9.733   8.550
 5634POPC   C2B18404  42.083   9.718   8.250
 5634POPC   C3B18405  42.093   9.650   7.950
 5634POPC   C4B18406  42.058   9.694   7.650
 5635POPC   NC318407   4.293  31.468   9.450
 5635POPC   PO418408   4.360  31.480   9.150
 5635POPC   GL118409   4.315  31.494   8.850
 5635POPC   GL218410   4.362  31.390   8.850
 5635POPC   C1A18411   4.281  31.485   8.550
 5635POPC   D2A18412   4.269  31.426   8.250
 5635POPC   C3A18413   4.276  31.466   7.950
 5635POPC   C4A18414   4.341  31.487   7.650
 5635POPC   C1B18415   4.405  31.264   8.550
 5635POPC   C2B18416   4.378  31.279   8.250
 5635POPC   C3B18417   4.395  31.183   7.950
 5635POPC   C4B18418   4.384  31.273   7.650
 5636POPC   NC318419   5.052  32.213   9.450
 5636POPC   PO418420   5.090  32.217   9.150
 5636POPC   GL118421   5.105  32.230   8.850
 5636POPC   GL218422   5.032  32.383   8.850
 5636POPC   C1A18423   5.081  32.256   8.550
 5636POPC   D2A18424   5.044  32.277   8.250
 5636POPC   C3A18425   5.130  32.221   7.950
 5636POPC   C4A18426   5.103  32.199   7.650
 5636POPC   C1B18427   5.028  32.527   8.550
 5636POPC   C2B18428   5.099  32.531   8.250
 5636POPC   C3B18429   5.101  32.492   7.950
 5636POPC   C4B18430   5.064  32.495   7.650
 5637POPC   NC318431  14.419  36.893   9.450
 5637POPC   PO418432  14.377  36.937   9.150
 5637POPC   GL118433  14.403  36.883   8.850
 5637POPC   GL218434  14.489  37.023   8.850
 5637POPC   C1A18435  14.398  36.891   8.550
 5637POPC   D2A18436  14.420  36.873   8.250
 5637POPC   C3A18437  14.429  36.931   7.950
 5637POPC   C4A18438  14.369  36.862   7.650
 5637POPC   C1B18439  14.545  37.066   8.550
 5637POPC   C2B18440  14.572  37.110   8.250
 5637POPC   C3B18441  14.622  37.079   7.950
 5637POPC   C4B18442  14.601  37.047   7.650
 5638POPC   NC318443  30.689  32.240   9.450
 5638POPC   PO418444  30.647  32.288   9.150
 5638POPC   GL118445  30.669  32.295   8.850
 5638POPC   GL218446  30.758  32.356   8.850
 5638POPC   C1A18447  30.729  32.246   8.550
 5638POPC   D2A18448  30.705  32.202   8.250
 5638POPC   C3A18449  30.681  32.241   7.950
 5638POPC   C4A18450  30.737  32.226   7.650
 5638POPC   C1B18451  30.876  32.430   8.550
 5638POPC   C2B18452  30.848  32.385   8.250
 5638POPC   C3B18453  30.867  32.405   7.950
 5638POPC   C4B18454  30.918  32.406   7.650
 5639POPC   NC318455  25.241  34.556   9.450
 5639POPC   PO418456  25.275  34.603   9.150
 5639POPC   GL118457  25.307  34.626   8.850
 5639POPC   GL218458  25.304  34.654   8.850
 5639POPC   C1A18459  25.273  34.598   8.550
 5639POPC   D2A18460  25.303  34.549   8.250
 5639POPC   C3A18461  25.219  34.586   7.950
 5639POPC   C4A18462  25.244  34.591   7.650
 5639POPC   C1B18463  25.476  34.753   8.550
 5639POPC   C2B18464  25.403  34.765   8.250
 5639POPC   C3B18465  25.414  34.716   7.950
 5639POPC   C4B18466  25.438  34.736   7.650
 5640POPC   NC318467  36.088  28.359   9.450
 5640POPC   PO418468  36.160  28.342   9.150
 5640POPC   GL118469  36.164  28.344   8.850
 5640POPC   GL218470  36.165  28.222   8.850
 5640POPC   C1A18471  36.138  28.335   8.550
 5640POPC   D2A18472  36.161  28.333   8.250
 5640POPC   C3A18473  36.121  28.415   7.950
 5640POPC   C4A18474  36.118  28.350   7.650
 5640POPC   C1B18475  36.257  28.217   8.550
 5640POPC   C2B18476  36.237  28.144   8.250
 5640POPC   C3B18477  36.288  28.142   7.950
 5640POPC   C4B18478  36.262  28.130   7.650
 5641POPC   NC318479  28.380  28.380   9.450
 5641POPC   PO418480  28.320  28.335   9.150
 5641POPC   GL118481  28.347  28.369   8.850
 5641POPC   GL218482  28.520  28.325   8.850
 5641POPC   C1A18483  28.371  28.404   8.550
 5641POPC   D2A18484  28.360  28.382   8.250
 5641POPC   C3A18485  28.366  28.385   7.950
 5641POPC   C4A18486  28.356  28.341   7.650
 5641POPC   C1B18487  28.579  28.223   8.550
 5641POPC   C2B18488  28.593  28.252   8.250
 5641POPC   C3B18489  28.580  28.226   7.950
 5641POPC   C4B18490  28.573  28.275   7.650
 5642POPC   NC318491   1.176  12.884   9.450
 5642POPC   PO418492   1.236  12.883   9.150
 5642POPC   GL118493   1.239  12.851   8.850
 5642POPC   GL218494   1.218  12.723   8.850
 5642POPC   C1A18495   1.223  12.841   8.550
 5642POPC   D2A18496   1.175  12.816   8.250
 5642POPC   C3A18497   1.238  12.836   7.950
 5642POPC   C4A18498   1.231  12.899   7.650
 5642POPC   C1B18499   1.219  12.650   8.550
 5642POPC   C2B18500   1.241  12.559   8.250
 5642POPC   C3B18501   1.252  12.654   7.950
 5642POPC   C4B18502   1.279  12.582   7.650
 5643POPC   NC318503   4.363   7.457   9.450
 5643POPC   PO418504   4.301   7.470   9.150
 5643POPC   GL118505   4.293   7.388   8.850
 5643POPC   GL218506   4.482   7.452   8.850
 5643POPC   C1A18507   4.315   7.447   8.550
 5643POPC   D2A18508   4.351   7.440   8.250
 5643POPC   C3A18509   4.274   7.436   7.950
 5643POPC   C4A18510   4.307   7.445   7.650
 5643POPC   C1B18511   4.605   7.434   8.550
 5643POPC   C2B18512   4.528   7.420   8.250
 5643POPC   C3B18513   4.592   7.392   7.950
 5643POPC   C4B18514   4.600   7.401   7.650
 5644POPC   NC318515  36.896  20.615   9.450
 5644POPC   PO418516  36.883  20.660   9.150
 5644POPC   GL118517  36.890  20.660   8.850
 5644POPC   GL218518  37.059  20.585   8.850
 5644POPC   C1A18519  36.945  20.639   8.550
 5644POPC   D2A18520  36.875  20.596   8.250
 5644POPC   C3A18521  36.931  20.599   7.950
 5644POPC   C4A18522  36.855  20.602   7.650
 5644POPC   C1B18523  37.157  20.524   8.550
 5644POPC   C2B18524  37.110  20.515   8.250
 5644POPC   C3B18525  37.111  20.545   7.950
 5644POPC   C4B18526  37.099  20.586   7.650
 5645POPC   NC318527   8.148  25.250   9.450
 5645POPC   PO418528   8.195  25.268   9.150
 5645POPC   GL118529   8.215  25.245   8.850
 5645POPC   GL218530   8.269  25.167   8.850
 5645POPC   C1A18531   8.149  25.279   8.550
 5645POPC   D2A18532   8.220  25.251   8.250
 5645POPC   C3A18533   8.225  25.281   7.950
 5645POPC   C4A18534   8.176  25.265   7.650
 5645POPC   C1B18535   8.389  25.115   8.550
 5645POPC   C2B18536   8.389  25.074   8.250
 5645POPC   C3B18537   8.376  25.063   7.950
 5645POPC   C4B18538   8.414  25.065   7.650
 5646POPC   NC318539   2.724  14.402   9.450
 5646POPC   PO418540   2.811  14.401   9.150
 5646POPC   GL118541   2.783  14.409   8.850
 5646POPC   GL218542   2.692  14.278   8.850
 5646POPC   C1A18543   2.760  14.399   8.550
 5646POPC   D2A18544   2.784  14.383   8.250
 5646POPC   C3A18545   2.802  14.422   7.950
 5646POPC   C4A18546   2.780  14.420   7.650
 5646POPC   C1B18547   2.650  14.155   8.550
 5646POPC   C2B18548   2.617  14.148   8.250
 5646POPC   C3B18549   2.622  14.193   7.950
 5646POPC   C4B18550   2.682  14.175   7.650
 5647POPC   NC318551  19.878  19.090   9.450
 5647POPC   PO418552  19.829  19.045   9.150
 5647POPC   GL118553  19.851  19.011   8.850
 5647POPC   GL218554  19.825  19.199   8.850
 5647POPC   C1A18555  19.820  19.079   8.550
 5647POPC   D2A18556  19.848  19.064   8.250
 5647POPC   C3A18557  19.862  19.035   7.950
 5647POPC   C4A18558  19.835  19.084   7.650
 5647POPC   C1B18559  19.882  19.291   8.550
 5647POPC   C2B18560  19.834  19.344   8.250
 5647POPC   C3B18561  19.827  19.339   7.950
 5647POPC   C4B18562  19.829  19.266   7.650
 5648POPC   NC318563  33.061  36.897   9.450
 5648POPC   PO418564  33.036  36.925   9.150
 5648POPC   GL118565  33.020  36.949   8.850
 5648POPC   GL218566  32.940  36.895   8.850
 5648POPC   C1A18567  32.995  36.905   8.550
 5648POPC   D2A18568  33.023  36.908   8.250
 5648POPC   C3A18569  33.033  36.946   7.950
 5648POPC   C4A18570  33.027  36.870   7.650
 5648POPC   C1B18571  32.734  36.868   8.550
 5648POPC   C2B18572  32.758  36.833   8.250
 5648POPC   C3B18573  32.780  36.849   7.950
 5648POPC   C4B18574  32.830  36.821   7.650
 5649POPC   NC318575  35.365  13.594   9.450
 5649POPC   PO418576  35.394  13.668   9.150
 5649POPC   GL118577  35.361  13.618   8.850
 5649POPC   GL218578  35.331  13.509   8.850
 5649POPC   C1A18579  35.399  13.662   8.550
 5649POPC   D2A18580  35.314  13.634   8.250
 5649POPC   C3A18581  35.387  13.661   7.950
 5649POPC   C4A18582  35.320  13.676   7.650
 5649POPC   C1B18583  35.317  13.354   8.550
 5649POPC   C2B18584  35.350  13.376   8.250
 5649POPC   C3B18585  35.325  13.341   7.950
 5649POPC   C4B18586  35.318  13.346   7.650
 5650POPC   NC318587   7.423  11.335   9.450
 5650POPC   PO418588   7.423  11.270   9.150
 5650POPC   GL118589   7.405  11.275   8.850
 5650POPC   GL218590   7.252  11.307   8.850
 5650POPC   C1A18591   7.468  11.300   8.550
 5650POPC   D2A18592   7.469  11.300   8.250
 5650POPC   C3A18593   7.446  11.337   7.950
 5650POPC   C4A18594   7.424  11.293   7.650
 5650POPC   C1B18595   7.135  11.306   8.550
 5650POPC   C2B18596   7.166  11.298   8.250
 5650POPC   C3B18597   7.148  11.386   7.950
 5650POPC   C4B18598   7.220  11.397   7.650
 5651POPC   NC318599   3.541  33.776   9.450
 5651POPC   PO418600   3.559  33.835   9.150
 5651POPC   GL118601   3.591  33.765   8.850
 5651POPC   GL218602   3.617  33.916   8.850
 5651POPC   C1A18603   3.575  33.848   8.550
 5651POPC   D2A18604   3.545  33.777   8.250
 5651POPC   C3A18605   3.559  33.782   7.950
 5651POPC   C4A18606   3.566  33.804   7.650
 5651POPC   C1B18607   3.689  33.928   8.550
 5651POPC   C2B18608   3.691  33.930   8.250
 5651POPC   C3B18609   3.745  33.934   7.950
 5651POPC   C4B18610   3.758  33.979   7.650
 5652POPC   NC318611  20.594   1.976   9.450
 5652POPC   PO418612  20.635   1.963   9.150
 5652POPC   GL118613  20.596   1.942   8.850
 5652POPC   GL218614  20.488   1.934   8.850
 5652POPC   C1A18615  20.644   1.944   8.550
 5652POPC   D2A18616  20.641   2.008   8.250
 5652POPC   C3A18617  20.569   1.978   7.950
 5652POPC   C4A18618  20.655   1.958   7.650
 5652POPC   C1B18619  20.417   1.803   8.550
 5652POPC   C2B18620  20.384   1.877   8.250
 5652POPC   C3B18621  20.440   1.879   7.950
 5652POPC   C4B18622  20.403   1.865   7.650
 5653POPC   NC318623   1.209  30.739   9.450
 5653POPC   PO418624   1.175  30.734   9.150
 5653POPC   GL118625   1.168  30.695   8.850
 5653POPC   GL218626   1.321  30.691   8.850
 5653POPC   C1A18627   1.247  30.721   8.550
 5653POPC   D2A18628   1.168  30.666   8.250
 5653POPC   C3A18629   1.202  30.669   7.950
 5653POPC   C4A18630   1.178  30.648   7.650
 5653POPC   C1B18631   1.429  30.646   8.550
 5653POPC   C2B18632   1.410  30.656   8.250
 5653POPC   C3B18633   1.413  30.595   7.950
 5653POPC   C4B18634   1.498  30.635   7.650
 5654POPC   NC318635  21.389  17.490   9.450
 5654POPC   PO418636  21.388  17.472   9.150
 5654POPC   GL118637  21.374  17.529   8.850
 5654POPC   GL218638  21.324  17.631   8.850
 5654POPC   C1A18639  21.378  17.533   8.550
 5654POPC   D2A18640  21.366  17.544   8.250
 5654POPC   C3A18641  21.427  17.525   7.950
 5654POPC   C4A18642  21.348  17.546   7.650
 5654POPC   C1B18643  21.247  17.702   8.550
 5654POPC   C2B18644  21.211  17.692   8.250
 5654POPC   C3B18645  21.210  17.708   7.950
 5654POPC   C4B18646  21.222  17.688   7.650
 5655POPC   NC318647  38.429   6.612   9.450
 5655POPC   PO418648  38.463   6.607   9.150
 5655POPC   GL118649  38.406   6.677   8.850
 5655POPC   GL218650  38.448   6.521   8.850
 5655POPC   C1A18651  38.446   6.625   8.550
 5655POPC   D2A18652  38.413   6.622   8.250
 5655POPC   C3A18653  38.461   6.692   7.950
 5655POPC   C4A18654  38.433   6.614   7.650
 5655POPC   C1B18655  38.535   6.437   8.550
 5655POPC   C2B18656  38.516   6.376   8.250
 5655POPC   C3B18657  38.481   6.379   7.950
 5655POPC   C4B18658  38.543   6.366   7.650
 5656POPC   NC318659  36.936  35.398   9.450
 5656POPC   PO418660  36.855  35.396   9.150
 5656POPC   GL118661  36.918  35.376   8.850
 5656POPC   GL218662  36.785  35.279   8.850
 5656POPC   C1A18663  36.903  35.394   8.550
 5656POPC   D2A18664  36.944  35.303   8.250
 5656POPC   C3A18665  36.859  35.388   7.950
 5656POPC   C4A18666  36.869  35.306   7.650
 5656POPC   C1B18667  36.735  35.111   8.550
 5656POPC   C2B18668  36.783  35.177   8.250
 5656POPC   C3B18669  36.728  35.164   7.950
 5656POPC   C4B18670  36.727  35.108   7.650
 5657POPC   NC318671  16.732  23.693   9.450
 5657POPC   PO418672  16.692  23.676   9.150
 5657POPC   GL118673  16.705  23.688   8.850
 5657POPC   GL218674  16.896  23.704   8.850
 5657POPC   C1A18675  16.710  23.695   8.550
 5657POPC   D2A18676  16.744  23.671   8.250
 5657POPC   C3A18677  16.729  23.706   7.950
 5657POPC   C4A18678  16.717  23.728   7.650
 5657POPC   C1B18679  16.947  23.735   8.550
 5657POPC   C2B18680  16.998  23.755   8.250
 5657POPC   C3B18681  16.935  23.752   7.950
 5657POPC   C4B18682  17.006  23.754   7.650
 5658POPC   NC318683   3.573  22.156   9.450
 5658POPC   PO418684   3.514  22.141   9.150
 5658POPC   GL118685   3.558  22.137   8.850
 5658POPC   GL218686   3.558  22.297   8.850
 5658POPC   C1A18687   3.569  22.150   8.550
 5658POPC   D2A18688   3.525  22.168   8.250
 5658POPC   C3A18689   3.546  22.194   7.950
 5658POPC   C4A18690   3.542  22.120   7.650
 5658POPC   C1B18691   3.582  22.378   8.550
 5658POPC   C2B18692   3.564  22.379   8.250
 5658POPC   C3B18693   3.517  22.366   7.950
 5658POPC   C4B18694   3.505  22.370   7.650
 5659POPC   NC318695  17.479  36.881   9.450
 5659POPC   PO418696  17.550  36.858   9.150
 5659POPC   GL118697  17.527  36.945   8.850
 5659POPC   GL218698  17.495  36.973   8.850
 5659POPC   C1A18699  17.515  36.883   8.550
 5659POPC   D2A18700  17.546  36.881   8.250
 5659POPC   C3A18701  17.484  36.939   7.950
 5659POPC   C4A18702  17.500  36.935   7.650
 5659POPC   C1B18703  17.402  37.086   8.550
 5659POPC   C2B18704  17.407  37.160   8.250
 5659POPC   C3B18705  17.370  37.157   7.950
 5659POPC   C4B18706  17.390  37.111   7.650
 5660POPC   NC318707  23.719  41.547   9.450
 5660POPC   PO418708  23.759  41.573   9.150
 5660POPC   GL118709  23.744  41.589   8.850
 5660POPC   GL218710  23.595  41.554   8.850
 5660POPC   C1A18711  23.733  41.550   8.550
 5660POPC   D2A18712  23.724  41.590   8.250
 5660POPC   C3A18713  23.751  41.596   7.950
 5660POPC   C4A18714  23.682  41.593   7.650
 5660POPC   C1B18715  23.453  41.568   8.550
 5660POPC   C2B18716  23.446  41.638   8.250
 5660POPC   C3B18717  23.475  41.566   7.950
 5660POPC   C4B18718  23.474  41.625   7.650
 5661POPC   NC318719   4.277   5.094   9.450
 5661POPC   PO418720   4.309   5.055   9.150
 5661POPC   GL118721   4.317   5.094   8.850
 5661POPC   GL218722   4.429   5.188   8.850
 5661POPC   C1A18723   4.340   5.057   8.550
 5661POPC   D2A18724   4.351   5.133   8.250
 5661POPC   C3A18725   4.330   5.089   7.950
 5661POPC   C4A18726   4.328   5.084   7.650
 5661POPC   C1B18727   4.550   5.177   8.550
 5661POPC   C2B18728   4.585   5.237   8.250
 5661POPC   C3B18729   4.504   5.159   7.950
 5661POPC   C4B18730   4.541   5.190   7.650
 5662POPC   NC318731  43.129  43.132   9.450
 5662POPC   PO418732  43.135  43.160   9.150
 5662POPC   GL118733  43.096  43.077   8.850
 5662POPC   GL218734  43.234  43.023   8.850
 5662POPC   C1A18735  43.072  43.078   8.550
 5662POPC   D2A18736  43.074  43.098   8.250
 5662POPC   C3A18737  43.146  43.088   7.950
 5662POPC   C4A18738  43.105  43.146   7.650
 5662POPC   C1B18739  43.347  43.000   8.550
 5662POPC   C2B18740  43.339  42.983   8.250
 5662POPC   C3B18741  43.339  43.047   7.950
 5662POPC   C4B18742  43.315  43.029   7.650
 5663POPC   NC318743  18.284   9.705   9.450
 5663POPC   PO418744  18.271   9.708   9.150
 5663POPC   GL118745  18.246   9.736   8.850
 5663POPC   GL218746  18.261   9.639   8.850
 5663POPC   C1A18747  18.287   9.791   8.550
 5663POPC   D2A18748  18.314   9.728   8.250
 5663POPC   C3A18749  18.297   9.748   7.950
 5663POPC   C4A18750  18.251   9.772   7.650
 5663POPC   C1B18751  18.255   9.476   8.550
 5663POPC   C2B18752  18.320   9.471   8.250
 5663POPC   C3B18753  18.247   9.461   7.950
 5663POPC   C4B18754  18.256   9.526   7.650
 5664POPC   NC318755  40.774  13.637   9.450
 5664POPC   PO418756  40.815  13.627   9.150
 5664POPC   GL118757  40.823  13.603   8.850
 5664POPC   GL218758  40.633  13.604   8.850
 5664POPC   C1A18759  40.809  13.639   8.550
 5664POPC   D2A18760  40.787  13.607   8.250
 5664POPC   C3A18761  40.746  13.592   7.950
 5664POPC   C4A18762  40.757  13.609   7.650
 5664POPC   C1B18763  40.512  13.675   8.550
 5664POPC   C2B18764  40.553  13.629   8.250
 5664POPC   C3B18765  40.502  13.683   7.950
 5664POPC   C4B18766  40.500  13.671   7.650
 5665POPC   NC318767  36.085  21.379   9.450
 5665POPC   PO418768  36.110  21.361   9.150
 5665POPC   GL118769  36.089  21.385   8.850
 5665POPC   GL218770  36.301  21.418   8.850
 5665POPC   C1A18771  36.109  21.368   8.550
 5665POPC   D2A18772  36.093  21.387   8.250
 5665POPC   C3A18773  36.121  21.383   7.950
 5665POPC   C4A18774  36.098  21.397   7.650
 5665POPC   C1B18775  36.420  21.414   8.550
 5665POPC   C2B18776  36.352  21.424   8.250
 5665POPC   C3B18777  36.359  21.387   7.950
 5665POPC   C4B18778  36.328  21.409   7.650
 5666POPC   NC318779   7.402  29.181   9.450
 5666POPC   PO418780   7.433  29.160   9.150
 5666POPC   GL118781   7.431  29.161   8.850
 5666POPC   GL218782   7.570  29.201   8.850
 5666POPC   C1A18783   7.434  29.136   8.550
 5666POPC   D2A18784   7.375  29.191   8.250
 5666POPC   C3A18785   7.386  29.173   7.950
 5666POPC   C4A18786   7.414  29.123   7.650
 5666POPC   C1B18787   7.647  29.264   8.550
 5666POPC   C2B18788   7.628  29.246   8.250
 5666POPC   C3B18789   7.636  29.268   7.950
 5666POPC   C4B18790   7.677  29.217   7.650
 5667POPC   NC318791  38.445  26.781   9.450
 5667POPC   PO418792  38.435  26.814   9.150
 5667POPC   GL118793  38.465  26.791   8.850
 5667POPC   GL218794  38.482  26.903   8.850
 5667POPC   C1A18795  38.449  26.810   8.550
 5667POPC   D2A18796  38.444  26.775   8.250
 5667POPC   C3A18797  38.465  26.794   7.950
 5667POPC   C4A18798  38.501  26.834   7.650
 5667POPC   C1B18799  38.577  27.068   8.550
 5667POPC   C2B18800  38.640  27.017   8.250
 5667POPC   C3B18801  38.635  26.996   7.950
 5667POPC   C4B18802  38.630  27.014   7.650
 5668POPC   NC318803   8.990  22.205   9.450
 5668POPC   PO418804   8.947  22.192   9.150
 5668POPC   GL118805   8.991  22.154   8.850
 5668POPC   GL218806   9.034  22.058   8.850
 5668POPC   C1A18807   8.962  22.165   8.550
 5668POPC   D2A18808   8.970  22.114   8.250
 5668POPC   C3A18809   8.942  22.201   7.950
 5668POPC   C4A18810   8.990  22.208   7.650
 5668POPC   C1B18811   9.021  21.935   8.550
 5668POPC   C2B18812   9.063  21.911   8.250
 5668POPC   C3B18813   9.039  21.936   7.950
 5668POPC   C4B18814   8.989  21.937   7.650
 5669POPC   NC318815  21.381  22.168   9.450
 5669POPC   PO418816  21.414  22.184   9.150
 5669POPC   GL118817  21.348  22.184   8.850
 5669POPC   GL218818  21.485  22.262   8.850
 5669POPC   C1A18819  21.379  22.183   8.550
 5669POPC   D2A18820  21.361  22.127   8.250
 5669POPC   C3A18821  21.375  22.124   7.950
 5669POPC   C4A18822  21.410  22.137   7.650
 5669POPC   C1B18823  21.538  22.390   8.550
 5669POPC   C2B18824  21.477  22.379   8.250
 5669POPC   C3B18825  21.528  22.430   7.950
 5669POPC   C4B18826  21.455  22.346   7.650
 5670POPC   NC318827  38.410  23.753   9.450
 5670POPC   PO418828  38.426  23.741   9.150
 5670POPC   GL118829  38.443  23.718   8.850
 5670POPC   GL218830  38.462  23.546   8.850
 5670POPC   C1A18831  38.449  23.743   8.550
 5670POPC   D2A18832  38.492  23.763   8.250
 5670POPC   C3A18833  38.445  23.752   7.950
 5670POPC   C4A18834  38.464  23.677   7.650
 5670POPC   C1B18835  38.436  23.417   8.550
 5670POPC   C2B18836  38.389  23.437   8.250
 5670POPC   C3B18837  38.465  23.511   7.950
 5670POPC   C4B18838  38.425  23.417   7.650
 5671POPC   NC318839  42.305   8.152   9.450
 5671POPC   PO418840  42.383   8.227   9.150
 5671POPC   GL118841  42.357   8.159   8.850
 5671POPC   GL218842  42.496   8.232   8.850
 5671POPC   C1A18843  42.332   8.172   8.550
 5671POPC   D2A18844  42.312   8.160   8.250
 5671POPC   C3A18845  42.286   8.232   7.950
 5671POPC   C4A18846  42.307   8.155   7.650
 5671POPC   C1B18847  42.601   8.263   8.550
 5671POPC   C2B18848  42.622   8.282   8.250
 5671POPC   C3B18849  42.544   8.261   7.950
 5671POPC   C4B18850  42.543   8.252   7.650
 5672POPC   NC318851  16.773  34.617   9.450
 5672POPC   PO418852  16.695  34.585   9.150
 5672POPC   GL118853  16.731  34.622   8.850
 5672POPC   GL218854  16.715  34.668   8.850
 5672POPC   C1A18855  16.726  34.533   8.550
 5672POPC   D2A18856  16.770  34.625   8.250
 5672POPC   C3A18857  16.711  34.552   7.950
 5672POPC   C4A18858  16.762  34.568   7.650
 5672POPC   C1B18859  16.724  34.863   8.550
 5672POPC   C2B18860  16.787  34.806   8.250
 5672POPC   C3B18861  16.717  34.833   7.950
 5672POPC   C4B18862  16.761  34.778   7.650
 5673POPC   NC318863  26.783  15.988   9.450
 5673POPC   PO418864  26.786  15.933   9.150
 5673POPC   GL118865  26.842  15.927   8.850
 5673POPC   GL218866  26.802  16.093   8.850
 5673POPC   C1A18867  26.860  15.987   8.550
 5673POPC   D2A18868  26.836  15.939   8.250
 5673POPC   C3A18869  26.824  15.925   7.950
 5673POPC   C4A18870  26.807  15.956   7.650
 5673POPC   C1B18871  26.752  16.230   8.550
 5673POPC   C2B18872  26.797  16.243   8.250
 5673POPC   C3B18873  26.747  16.230   7.950
 5673POPC   C4B18874  26.819  16.194   7.650
 5674POPC   NC318875  40.766   9.712   9.450
 5674POPC   PO418876  40.803   9.782   9.150
 5674POPC   GL118877  40.745   9.785   8.850
 5674POPC   GL218878  40.777   9.611   8.850
 5674POPC   C1A18879  40.830   9.762   8.550
 5674POPC   D2A18880  40.768   9.749   8.250
 5674POPC   C3A18881  40.776   9.786   7.950
 5674POPC   C4A18882  40.748   9.706   7.650
 5674POPC   C1B18883  40.910   9.474   8.550
 5674POPC   C2B18884  40.883   9.545   8.250
 5674POPC   C3B18885  40.898   9.534   7.950
 5674POPC   C4B18886  40.866   9.533   7.650
 5675POPC   NC318887   0.447  22.980   9.450
 5675POPC   PO418888   0.410  22.916   9.150
 5675POPC   GL118889   0.457  22.905   8.850
 5675POPC   GL218890   0.449  22.822   8.850
 5675POPC   C1A18891   0.410  22.978   8.550
 5675POPC   D2A18892   0.458  22.944   8.250
 5675POPC   C3A18893   0.434  22.905   7.950
 5675POPC   C4A18894   0.402  22.918   7.650
 5675POPC   C1B18895   0.558  22.758   8.550
 5675POPC   C2B18896   0.532  22.752   8.250
 5675POPC   C3B18897   0.587  22.664   7.950
 5675POPC   C4B18898   0.554  22.677   7.650
 5676POPC   NC318899   8.930  24.534   9.450
 5676POPC   PO418900   9.000  24.535   9.150
 5676POPC   GL118901   8.969  24.506   8.850
 5676POPC   GL218902   8.896  24.518   8.850
 5676POPC   C1A18903   8.972  24.456   8.550
 5676POPC   D2A18904   9.022  24.467   8.250
 5676POPC   C3A18905   8.999  24.471   7.950
 5676POPC   C4A18906   8.936  24.456   7.650
 5676POPC   C1B18907   8.729  24.470   8.550
 5676POPC   C2B18908   8.704  24.472   8.250
 5676POPC   C3B18909   8.704  24.512   7.950
 5676POPC   C4B18910   8.726  24.513   7.650
 5677POPC   NC318911  22.131   2.721   9.450
 5677POPC   PO418912  22.129   2.810   9.150
 5677POPC   GL118913  22.124   2.741   8.850
 5677POPC   GL218914  22.304   2.756   8.850
 5677POPC   C1A18915  22.189   2.788   8.550
 5677POPC   D2A18916  22.155   2.769   8.250
 5677POPC   C3A18917  22.135   2.717   7.950
 5677POPC   C4A18918  22.204   2.759   7.650
 5677POPC   C1B18919  22.415   2.852   8.550
 5677POPC   C2B18920  22.439   2.770   8.250
 5677POPC   C3B18921  22.410   2.853   7.950
 5677POPC   C4B18922  22.431   2.790   7.650
 5678POPC   NC318923  33.787  23.724   9.450
 5678POPC   PO418924  33.849  23.726   9.150
 5678POPC   GL118925  33.797  23.732   8.850
 5678POPC   GL218926  33.747  23.610   8.850
 5678POPC   C1A18927  33.787  23.689   8.550
 5678POPC   D2A18928  33.838  23.724   8.250
 5678POPC   C3A18929  33.812  23.752   7.950
 5678POPC   C4A18930  33.789  23.763   7.650
 5678POPC   C1B18931  33.631  23.531   8.550
 5678POPC   C2B18932  33.615  23.522   8.250
 5678POPC   C3B18933  33.647  23.526   7.950
 5678POPC   C4B18934  33.576  23.596   7.650
 5679POPC   NC318935  13.600  15.196   9.450
 5679POPC   PO418936  13.670  15.190   9.150
 5679POPC   GL118937  13.647  15.188   8.850
 5679POPC   GL218938  13.521  15.235   8.850
 5679POPC   C1A18939  13.632  15.196   8.550
 5679POPC   D2A18940  13.663  15.172   8.250
 5679POPC   C3A18941  13.615  15.132   7.950
 5679POPC   C4A18942  13.646  15.203   7.650
 5679POPC   C1B18943  13.440  15.364   8.550
 5679POPC   C2B18944  13.400  15.386   8.250
 5679POPC   C3B18945  13.467  15.320   7.950
 5679POPC   C4B18946  13.399  15.326   7.650
 5680POPC   NC318947  23.717   3.503   9.450
 5680POPC   PO418948  23.675   3.546   9.150
 5680POPC   GL118949  23.745   3.524   8.850
 5680POPC   GL218950  23.817   3.586   8.850
 5680POPC   C1A18951  23.689   3.535   8.550
 5680POPC   D2A18952  23.683   3.527   8.250
 5680POPC   C3A18953  23.722   3.506   7.950
 5680POPC   C4A18954  23.685   3.556   7.650
 5680POPC   C1B18955  23.959   3.564   8.550
 5680POPC   C2B18956  23.980   3.594   8.250
 5680POPC   C3B18957  23.921   3.528   7.950
 5680POPC   C4B18958  23.937   3.530   7.650
 5681POPC   NC318959   8.210  43.122   9.450
 5681POPC   PO418960   8.230  43.083   9.150
 5681POPC   GL118961   8.238  43.122   8.850
 5681POPC   GL218962   8.245  43.211   8.850
 5681POPC   C1A18963   8.205  43.141   8.550
 5681POPC   D2A18964   8.219  43.138   8.250
 5681POPC   C3A18965   8.237  43.105   7.950
 5681POPC   C4A18966   8.196  43.128   7.650
 5681POPC   C1B18967   8.327  43.261   8.550
 5681POPC   C2B18968   8.396  43.292   8.250
 5681POPC   C3B18969   8.369  43.346   7.950
 5681POPC   C4B18970   8.357  43.258   7.650
 5682POPC   NC318971  34.533  18.246   9.450
 5682POPC   PO418972  34.601  18.281   9.150
 5682POPC   GL118973  34.551  18.265   8.850
 5682POPC   GL218974  34.671  18.230   8.850
 5682POPC   C1A18975  34.616  18.320   8.550
 5682POPC   D2A18976  34.579  18.298   8.250
 5682POPC   C3A18977  34.606  18.267   7.950
 5682POPC   C4A18978  34.592  18.238   7.650
 5682POPC   C1B18979  34.811  18.244   8.550
 5682POPC   C2B18980  34.792  18.231   8.250
 5682POPC   C3B18981  34.833  18.241   7.950
 5682POPC   C4B18982  34.817  18.270   7.650
 5683POPC   NC318983  32.217  22.932   9.450
 5683POPC   PO418984  32.224  22.954   9.150
 5683POPC   GL118985  32.204  22.950   8.850
 5683POPC   GL218986  32.131  23.043   8.850
 5683POPC   C1A18987  32.215  22.956   8.550
 5683POPC   D2A18988  32.258  22.979   8.250
 5683POPC   C3A18989  32.294  22.904   7.950
 5683POPC   C4A18990  32.294  22.965   7.650
 5683POPC   C1B18991  32.005  23.063   8.550
 5683POPC   C2B18992  31.989  23.037   8.250
 5683POPC   C3B18993  32.052  23.083   7.950
 5683POPC   C4B18994  32.018  23.071   7.650
 5684POPC   NC318995  34.623  15.952   9.450
 5684POPC   PO418996  34.599  15.958   9.150
 5684POPC   GL118997  34.591  15.951   8.850
 5684POPC   GL218998  34.484  15.892   8.850
 5684POPC   C1A18999  34.551  15.914   8.550
 5684POPC   D2A19000  34.543  16.001   8.250
 5684POPC   C3A19001  34.560  15.943   7.950
 5684POPC   C4A19002  34.574  15.937   7.650
 5684POPC   C1B19003  34.319  15.897   8.550
 5684POPC   C2B19004  34.316  15.864   8.250
 5684POPC   C3B19005  34.315  15.822   7.950
 5684POPC   C4B19006  34.318  15.826   7.650
 5685POPC   NC319007  38.479  11.333   9.450
 5685POPC   PO419008  38.464  11.306   9.150
 5685POPC   GL119009  38.481  11.285   8.850
 5685POPC   GL219010  38.434  11.231   8.850
 5685POPC   C1A19011  38.432  11.336   8.550
 5685POPC   D2A19012  38.499  11.285   8.250
 5685POPC   C3A19013  38.469  11.327   7.950
 5685POPC   C4A19014  38.447  11.305   7.650
 5685POPC   C1B19015  38.288  11.077   8.550
 5685POPC   C2B19016  38.363  11.088   8.250
 5685POPC   C3B19017  38.282  11.088   7.950
 5685POPC   C4B19018  38.287  11.081   7.650
 5686POPC   NC319019   1.968  23.688   9.450
 5686POPC   PO419020   1.967  23.673   9.150
 5686POPC   GL119021   2.027  23.749   8.850
 5686POPC   GL219022   2.103  23.631   8.850
 5686POPC   C1A19023   2.032  23.692   8.550
 5686POPC   D2A19024   1.957  23.743   8.250
 5686POPC   C3A19025   2.017  23.681   7.950
 5686POPC   C4A19026   1.990  23.701   7.650
 5686POPC   C1B19027   2.175  23.631   8.550
 5686POPC   C2B19028   2.183  23.638   8.250
 5686POPC   C3B19029   2.201  23.650   7.950
 5686POPC   C4B19030   2.170  23.578   7.650
 5687POPC   NC319031  26.806  30.738   9.450
 5687POPC   PO419032  26.857  30.671   9.150
 5687POPC   GL119033  26.797  30.688   8.850
 5687POPC   GL219034  26.920  30.584   8.850
 5687POPC   C1A19035  26.826  30.685   8.550
 5687POPC   D2A19036  26.844  30.672   8.250
 5687POPC   C3A19037  26.815  30.730   7.950
 5687POPC   C4A19038  26.837  30.690   7.650
 5687POPC   C1B19039  26.915  30.472   8.550
 5687POPC   C2B19040  26.906  30.515   8.250
 5687POPC   C3B19041  26.964  30.522   7.950
 5687POPC   C4B19042  26.886  30.511   7.650
 5688POPC   NC319043  22.208  35.370   9.450
 5688POPC   PO419044  22.185  35.385   9.150
 5688POPC   GL119045  22.194  35.354   8.850
 5688POPC   GL219046  22.216  35.203   8.850
 5688POPC   C1A19047  22.150  35.399   8.550
 5688POPC   D2A19048  22.160  35.389   8.250
 5688POPC   C3A19049  22.139  35.383   7.950
 5688POPC   C4A19050  22.200  35.342   7.650
 5688POPC   C1B19051  22.216  35.107   8.550
 5688POPC   C2B19052  22.289  35.094   8.250
 5688POPC   C3B19053  22.251  35.115   7.950
 5688POPC   C4B19054  22.274  35.086   7.650
 5689POPC   NC319055   5.861  36.156   9.450
 5689POPC   PO419056   5.836  36.113   9.150
 5689POPC   GL119057   5.917  36.091   8.850
 5689POPC   GL219058   5.826  35.975   8.850
 5689POPC   C1A19059   5.909  36.092   8.550
 5689POPC   D2A19060   5.840  36.123   8.250
 5689POPC   C3A19061   5.890  36.167   7.950
 5689POPC   C4A19062   5.823  36.089   7.650
 5689POPC   C1B19063   5.775  35.881   8.550
 5689POPC   C2B19064   5.684  35.914   8.250
 5689POPC   C3B19065   5.685  35.874   7.950
 5689POPC   C4B19066   5.731  35.921   7.650
 5690POPC   NC319067  29.970   7.416   9.450
 5690POPC   PO419068  29.935   7.432   9.150
 5690POPC   GL119069  29.966   7.447   8.850
 5690POPC   GL219070  29.929   7.553   8.850
 5690POPC   C1A19071  29.964   7.418   8.550
 5690POPC   D2A19072  29.951   7.380   8.250
 5690POPC   C3A19073  29.878   7.442   7.950
 5690POPC   C4A19074  29.876   7.377   7.650
 5690POPC   C1B19075  30.008   7.629   8.550
 5690POPC   C2B19076  29.939   7.613   8.250
 5690POPC   C3B19077  29.944   7.677   7.950
 5690POPC   C4B19078  29.967   7.627   7.650
 5691POPC   NC319079  19.814   7.408   9.450
 5691POPC   PO419080  19.807   7.420   9.150
 5691POPC   GL119081  19.872   7.445   8.850
 5691POPC   GL219082  19.946   7.422   8.850
 5691POPC   C1A19083  19.835   7.446   8.550
 5691POPC   D2A19084  19.839   7.403   8.250
 5691POPC   C3A19085  19.867   7.470   7.950
 5691POPC   C4A19086  19.877   7.411   7.650
 5691POPC   C1B19087  20.114   7.400   8.550
 5691POPC   C2B19088  20.115   7.440   8.250
 5691POPC   C3B19089  20.090   7.470   7.950
 5691POPC   C4B19090  20.054   7.442   7.650
 5692POPC   NC319091  24.525  38.436   9.450
 5692POPC   PO419092  24.539  38.446   9.150
 5692POPC   GL119093  24.530  38.432   8.850
 5692POPC   GL219094  24.550  38.360   8.850
 5692POPC   C1A19095  24.451  38.439   8.550
 5692POPC   D2A19096  24.474  38.442   8.250
 5692POPC   C3A19097  24.476  38.452   7.950
 5692POPC   C4A19098  24.508  38.458   7.650
 5692POPC   C1B19099  24.566  38.191   8.550
 5692POPC   C2B19100  24.561  38.215   8.250
 5692POPC   C3B19101  24.555  38.188   7.950
 5692POPC   C4B19102  24.537  38.261   7.650
 5693POPC   NC319103  34.532   5.071   9.450
 5693POPC   PO419104  34.585   5.139   9.150
 5693POPC   GL119105  34.615   5.131   8.850
 5693POPC   GL219106  34.610   4.948   8.850
 5693POPC   C1A19107  34.624   5.087   8.550
 5693POPC   D2A19108  34.602   5.061   8.250
 5693POPC   C3A19109  34.589   5.055   7.950
 5693POPC   C4A19110  34.552   5.084   7.650
 5693POPC   C1B19111  34.673   4.875   8.550
 5693POPC   C2B19112  34.627   4.881   8.250
 5693POPC   C3B19113  34.629   4.811   7.950
 5693POPC   C4B19114  34.672   4.813   7.650
 5694POPC   NC319115  22.921  16.713   9.450
 5694POPC   PO419116  22.979  16.714   9.150
 5694POPC   GL119117  22.975  16.733   8.850
 5694POPC   GL219118  23.097  16.736   8.850
 5694POPC   C1A19119  22.967  16.711   8.550
 5694POPC   D2A19120  22.898  16.723   8.250
 5694POPC   C3A19121  22.938  16.736   7.950
 5694POPC   C4A19122  22.892  16.746   7.650
 5694POPC   C1B19123  23.133  16.630   8.550
 5694POPC   C2B19124  23.180  16.668   8.250
 5694POPC   C3B19125  23.160  16.624   7.950
 5694POPC   C4B19126  23.166  16.671   7.650
 5695POPC   NC319127   3.514  38.406   9.450
 5695POPC   PO419128   3.568  38.501   9.150
 5695POPC   GL119129   3.506  38.486   8.850
 5695POPC   GL219130   3.596  38.556   8.850
 5695POPC   C1A19131   3.538  38.505   8.550
 5695POPC   D2A19132   3.520  38.455   8.250
 5695POPC   C3A19133   3.558  38.415   7.950
 5695POPC   C4A19134   3.549  38.447   7.650
 5695POPC   C1B19135   3.692  38.638   8.550
 5695POPC   C2B19136   3.709  38.625   8.250
 5695POPC   C3B19137   3.686  38.628   7.950
 5695POPC   C4B19138   3.654  38.661   7.650
 5696POPC   NC319139  18.293  10.530   9.450
 5696POPC   PO419140  18.285  10.506   9.150
 5696POPC   GL119141  18.329  10.545   8.850
 5696POPC   GL219142  18.379  10.486   8.850
 5696POPC   C1A19143  18.245  10.569   8.550
 5696POPC   D2A19144  18.252  10.479   8.250
 5696POPC   C3A19145  18.295  10.557   7.950
 5696POPC   C4A19146  18.330  10.518   7.650
 5696POPC   C1B19147  18.506  10.475   8.550
 5696POPC   C2B19148  18.478  10.472   8.250
 5696POPC   C3B19149  18.528  10.413   7.950
 5696POPC   C4B19150  18.570  10.501   7.650
 5697POPC   NC319151   4.298  36.090   9.450
 5697POPC   PO419152   4.349  36.140   9.150
 5697POPC   GL119153   4.343  36.139   8.850
 5697POPC   GL219154   4.325  35.992   8.850
 5697POPC   C1A19155   4.320  36.130   8.550
 5697POPC   D2A19156   4.331  36.126   8.250
 5697POPC   C3A19157   4.282  36.101   7.950
 5697POPC   C4A19158   4.366  36.135   7.650
 5697POPC   C1B19159   4.411  35.929   8.550
 5697POPC   C2B19160   4.391  35.861   8.250
 5697POPC   C3B19161   4.397  35.879   7.950
 5697POPC   C4B19162   4.387  35.946   7.650
 5698POPC   NC319163  31.509  32.289   9.450
 5698POPC   PO419164  31.498  32.226   9.150
 5698POPC   GL119165  31.479  32.280   8.850
 5698POPC   GL219166  31.532  32.321   8.850
 5698POPC   C1A19167  31.443  32.268   8.550
 5698POPC   D2A19168  31.477  32.219   8.250
 5698POPC   C3A19169  31.521  32.279   7.950
 5698POPC   C4A19170  31.466  32.264   7.650
 5698POPC   C1B19171  31.480  32.493   8.550
 5698POPC   C2B19172  31.543  32.507   8.250
 5698POPC   C3B19173  31.522  32.459   7.950
 5698POPC   C4B19174  31.564  32.480   7.650
 5699POPC   NC319175   2.749   2.814   9.450
 5699POPC   PO419176   2.725   2.763   9.150
 5699POPC   GL119177   2.764   2.717   8.850
 5699POPC   GL219178   2.917   2.677   8.850
 5699POPC   C1A19179   2.805   2.792   8.550
 5699POPC   D2A19180   2.733   2.797   8.250
 5699POPC   C3A19181   2.815   2.774   7.950
 5699POPC   C4A19182   2.722   2.734   7.650
 5699POPC   C1B19183   2.994   2.673   8.550
 5699POPC   C2B19184   2.965   2.646   8.250
 5699POPC   C3B19185   2.965   2.650   7.950
 5699POPC   C4B19186   3.007   2.731   7.650
 5700POPC   NC319187   8.201   6.624   9.450
 5700POPC   PO419188   8.192   6.659   9.150
 5700POPC   GL119189   8.159   6.607   8.850
 5700POPC   GL219190   8.139   6.738   8.850
 5700POPC   C1A19191   8.156   6.641   8.550
 5700POPC   D2A19192   8.197   6.640   8.250
 5700POPC   C3A19193   8.230   6.596   7.950
 5700POPC   C4A19194   8.149   6.673   7.650
 5700POPC   C1B19195   8.168   6.906   8.550
 5700POPC   C2B19196   8.169   6.863   8.250
 5700POPC   C3B19197   8.189   6.888   7.950
 5700POPC   C4B19198   8.103   6.855   7.650
 5701POPC   NC319199  25.291  14.429   9.450
 5701POPC   PO419200  25.223  14.357   9.150
 5701POPC   GL119201  25.259  14.434   8.850
 5701POPC   GL219202  25.309  14.525   8.850
 5701POPC   C1A19203  25.250  14.401   8.550
 5701POPC   D2A19204  25.295  14.427   8.250
 5701POPC   C3A19205  25.255  14.428   7.950
 5701POPC   C4A19206  25.234  14.418   7.650
 5701POPC   C1B19207  25.290  14.613   8.550
 5701POPC   C2B19208  25.285  14.682   8.250
 5701POPC   C3B19209  25.305  14.623   7.950
 5701POPC   C4B19210  25.301  14.681   7.650
 5702POPC   NC319211   5.137  34.567   9.450
 5702POPC   PO419212   5.086  34.611   9.150
 5702POPC   GL119213   5.090  34.588   8.850
 5702POPC   GL219214   5.214  34.526   8.850
 5702POPC   C1A19215   5.059  34.603   8.550
 5702POPC   D2A19216   5.085  34.611   8.250
 5702POPC   C3A19217   5.108  34.595   7.950
 5702POPC   C4A19218   5.055  34.571   7.650
 5702POPC   C1B19219   5.322  34.388   8.550
 5702POPC   C2B19220   5.261  34.449   8.250
 5702POPC   C3B19221   5.298  34.429   7.950
 5702POPC   C4B19222   5.300  34.450   7.650
 5703POPC   NC319223  26.081  28.408   9.450
 5703POPC   PO419224  26.020  28.331   9.150
 5703POPC   GL119225  26.044  28.384   8.850
 5703POPC   GL219226  25.895  28.451   8.850
 5703POPC   C1A19227  26.055  28.407   8.550
 5703POPC   D2A19228  26.032  28.387   8.250
 5703POPC   C3A19229  26.014  28.328   7.950
 5703POPC   C4A19230  25.992  28.331   7.650
 5703POPC   C1B19231  25.797  28.452   8.550
 5703POPC   C2B19232  25.783  28.465   8.250
 5703POPC   C3B19233  25.827  28.487   7.950
 5703POPC   C4B19234  25.874  28.546   7.650
 5704POPC   NC319235  13.629  11.309   9.450
 5704POPC   PO419236  13.646  11.346   9.150
 5704POPC   GL119237  13.627  11.264   8.850
 5704POPC   GL219238  13.727  11.218   8.850
 5704POPC   C1A19239  13.650  11.275   8.550
 5704POPC   D2A19240  13.594  11.321   8.250
 5704POPC   C3A19241  13.585  11.272   7.950
 5704POPC   C4A19242  13.645  11.348   7.650
 5704POPC   C1B19243  13.796  11.128   8.550
 5704POPC   C2B19244  13.793  11.087   8.250
 5704POPC   C3B19245  13.727  11.121   7.950
 5704POPC   C4B19246  13.761  11.055   7.650
 5705POPC   NC319247  36.871  15.912   9.450
 5705POPC   PO419248  36.878  15.915   9.150
 5705POPC   GL119249  36.919  15.923   8.850
 5705POPC   GL219250  36.900  15.874   8.850
 5705POPC   C1A19251  36.873  15.914   8.550
 5705POPC   D2A19252  36.917  15.979   8.250
 5705POPC   C3A19253  36.938  15.918   7.950
 5705POPC   C4A19254  36.891  15.921   7.650
 5705POPC   C1B19255  37.031  15.714   8.550
 5705POPC   C2B19256  36.976  15.719   8.250
 5705POPC   C3B19257  36.951  15.689   7.950
 5705POPC   C4B19258  37.024  15.723   7.650
 5706POPC   NC319259  35.388  18.315   9.450
 5706POPC   PO419260  35.380  18.306   9.150
 5706POPC   GL119261  35.346  18.285   8.850
 5706POPC   GL219262  35.260  18.408   8.850
 5706POPC   C1A19263  35.327  18.265   8.550
 5706POPC   D2A19264  35.383  18.246   8.250
 5706POPC   C3A19265  35.395  18.332   7.950
 5706POPC   C4A19266  35.325  18.263   7.650
 5706POPC   C1B19267  35.209  18.467   8.550
 5706POPC   C2B19268  35.239  18.447   8.250
 5706POPC   C3B19269  35.161  18.465   7.950
 5706POPC   C4B19270  35.178  18.491   7.650
 5707POPC   NC319271  10.504  40.757   9.450
 5707POPC   PO419272  10.564  40.806   9.150
 5707POPC   GL119273  10.570  40.826   8.850
 5707POPC   GL219274  10.526  40.884   8.850
 5707POPC   C1A19275  10.572  40.760   8.550
 5707POPC   D2A19276  10.555  40.738   8.250
 5707POPC   C3A19277  10.539  40.784   7.950
 5707POPC   C4A19278  10.572  40.742   7.650
 5707POPC   C1B19279  10.534  41.024   8.550
 5707POPC   C2B19280  10.546  41.015   8.250
 5707POPC   C3B19281  10.500  41.051   7.950
 5707POPC   C4B19282  10.498  41.008   7.650
 5708POPC   NC319283  17.535  17.482   9.450
 5708POPC   PO419284  17.486  17.498   9.150
 5708POPC   GL119285  17.510  17.555   8.850
 5708POPC   GL219286  17.483  17.362   8.850
 5708POPC   C1A19287  17.494  17.474   8.550
 5708POPC   D2A19288  17.496  17.520   8.250
 5708POPC   C3A19289  17.546  17.536   7.950
 5708POPC   C4A19290  17.543  17.518   7.650
 5708POPC   C1B19291  17.417  17.331   8.550
 5708POPC   C2B19292  17.394  17.246   8.250
 5708POPC   C3B19293  17.412  17.302   7.950
 5708POPC   C4B19294  17.429  17.250   7.650
 5709POPC   NC319295  36.101  44.693   9.450
 5709POPC   PO419296  36.151  44.616   9.150
 5709POPC   GL119297  36.130  44.678   8.850
 5709POPC   GL219298  35.956  44.646   8.850
 5709POPC   C1A19299  36.132  44.629   8.550
 5709POPC   D2A19300  36.079  44.631   8.250
 5709POPC   C3A19301  36.161  44.657   7.950
 5709POPC   C4A19302  36.098  44.681   7.650
 5709POPC   C1B19303  35.874  44.682   8.550
 5709POPC   C2B19304  35.841  44.672   8.250
 5709POPC   C3B19305  35.895  44.637   7.950
 5709POPC   C4B19306  35.829  44.711   7.650
 5710POPC   NC319307  42.369  25.228   9.450
 5710POPC   PO419308  42.374  25.302   9.150
 5710POPC   GL119309  42.320  25.255   8.850
 5710POPC   GL219310  42.266  25.234   8.850
 5710POPC   C1A19311  42.337  25.306   8.550
 5710POPC   D2A19312  42.342  25.309   8.250
 5710POPC   C3A19313  42.359  25.258   7.950
 5710POPC   C4A19314  42.359  25.226   7.650
 5710POPC   C1B19315  42.143  25.168   8.550
 5710POPC   C2B19316  42.122  25.159   8.250
 5710POPC   C3B19317  42.148  25.169   7.950
 5710POPC   C4B19318  42.095  25.211   7.650
 5711POPC   NC319319  37.640   9.770   9.450
 5711POPC   PO419320  37.676   9.769   9.150
 5711POPC   GL119321  37.648   9.701   8.850
 5711POPC   GL219322  37.643   9.620   8.850
 5711POPC   C1A19323  37.712   9.766   8.550
 5711POPC   D2A19324  37.692   9.783   8.250
 5711POPC   C3A19325  37.646   9.740   7.950
 5711POPC   C4A19326  37.678   9.781   7.650
 5711POPC   C1B19327  37.561   9.542   8.550
 5711POPC   C2B19328  37.565   9.473   8.250
 5711POPC   C3B19329  37.651   9.475   7.950
 5711POPC   C4B19330  37.653   9.539   7.650
 5712POPC   NC319331  12.828  11.298   9.450
 5712POPC   PO419332  12.804  11.278   9.150
 5712POPC   GL119333  12.894  11.293   8.850
 5712POPC   GL219334  12.812  11.187   8.850
 5712POPC   C1A19335  12.900  11.298   8.550
 5712POPC   D2A19336  12.858  11.264   8.250
 5712POPC   C3A19337  12.896  11.298   7.950
 5712POPC   C4A19338  12.901  11.301   7.650
 5712POPC   C1B19339  12.753  11.109   8.550
 5712POPC   C2B19340  12.721  11.058   8.250
 5712POPC   C3B19341  12.704  11.101   7.950
 5712POPC   C4B19342  12.706  11.064   7.650
 5713POPC   NC319343   5.873  30.687   9.450
 5713POPC   PO419344   5.891  30.688   9.150
 5713POPC   GL119345   5.913  30.717   8.850
 5713POPC   GL219346   5.760  30.550   8.850
 5713POPC   C1A19347   5.859  30.715   8.550
 5713POPC   D2A19348   5.918  30.656   8.250
 5713POPC   C3A19349   5.833  30.705   7.950
 5713POPC   C4A19350   5.912  30.677   7.650
 5713POPC   C1B19351   5.767  30.440   8.550
 5713POPC   C2B19352   5.756  30.445   8.250
 5713POPC   C3B19353   5.746  30.483   7.950
 5713POPC   C4B19354   5.787  30.476   7.650
 5714POPC   NC319355   0.449  25.253   9.450
 5714POPC   PO419356   0.412  25.270   9.150
 5714POPC   GL119357   0.445  25.246   8.850
 5714POPC   GL219358   0.389  25.147   8.850
 5714POPC   C1A19359   0.396  25.276   8.550
 5714POPC   D2A19360   0.391  25.263   8.250
 5714POPC   C3A19361   0.453  25.310   7.950
 5714POPC   C4A19362   0.484  25.224   7.650
 5714POPC   C1B19363   0.380  25.006   8.550
 5714POPC   C2B19364   0.283  25.062   8.250
 5714POPC   C3B19365   0.293  25.012   7.950
 5714POPC   C4B19366   0.364  25.020   7.650
 5715POPC   NC319367  38.498  18.278   9.450
 5715POPC   PO419368  38.482  18.236   9.150
 5715POPC   GL119369  38.473  18.303   8.850
 5715POPC   GL219370  38.508  18.418   8.850
 5715POPC   C1A19371  38.463  18.242   8.550
 5715POPC   D2A19372  38.417  18.295   8.250
 5715POPC   C3A19373  38.424  18.261   7.950
 5715POPC   C4A19374  38.424  18.253   7.650
 5715POPC   C1B19375  38.529  18.501   8.550
 5715POPC   C2B19376  38.542  18.557   8.250
 5715POPC   C3B19377  38.545  18.486   7.950
 5715POPC   C4B19378  38.558  18.478   7.650
 5716POPC   NC319379  18.290  31.437   9.450
 5716POPC   PO419380  18.267  31.462   9.150
 5716POPC   GL119381  18.269  31.516   8.850
 5716POPC   GL219382  18.413  31.520   8.850
 5716POPC   C1A19383  18.272  31.519   8.550
 5716POPC   D2A19384  18.284  31.490   8.250
 5716POPC   C3A19385  18.241  31.473   7.950
 5716POPC   C4A19386  18.321  31.437   7.650
 5716POPC   C1B19387  18.511  31.486   8.550
 5716POPC   C2B19388  18.562  31.459   8.250
 5716POPC   C3B19389  18.484  31.473   7.950
 5716POPC   C4B19390  18.559  31.467   7.650
 5717POPC   NC319391  36.880  19.792   9.450
 5717POPC   PO419392  36.938  19.799   9.150
 5717POPC   GL119393  36.916  19.873   8.850
 5717POPC   GL219394  36.905  19.678   8.850
 5717POPC   C1A19395  36.951  19.839   8.550
 5717POPC   D2A19396  36.926  19.799   8.250
 5717POPC   C3A19397  36.929  19.846   7.950
 5717POPC   C4A19398  36.878  19.881   7.650
 5717POPC   C1B19399  36.941  19.622   8.550
 5717POPC   C2B19400  36.884  19.574   8.250
 5717POPC   C3B19401  36.874  19.605   7.950
 5717POPC   C4B19402  36.895  19.562   7.650
 5718POPC   NC319403  26.029  29.144   9.450
 5718POPC   PO419404  26.019  29.115   9.150
 5718POPC   GL119405  26.016  29.158   8.850
 5718POPC   GL219406  26.113  28.989   8.850
 5718POPC   C1A19407  26.085  29.142   8.550
 5718POPC   D2A19408  26.025  29.121   8.250
 5718POPC   C3A19409  26.040  29.140   7.950
 5718POPC   C4A19410  26.057  29.183   7.650
 5718POPC   C1B19411  26.162  28.888   8.550
 5718POPC   C2B19412  26.150  28.871   8.250
 5718POPC   C3B19413  26.142  28.887   7.950
 5718POPC   C4B19414  26.082  28.955   7.650
 5719POPC   NC319415  32.982  44.616   9.450
 5719POPC   PO419416  32.976  44.682   9.150
 5719POPC   GL119417  33.002  44.615   8.850
 5719POPC   GL219418  33.012  44.823   8.850
 5719POPC   C1A19419  32.975  44.665   8.550
 5719POPC   D2A19420  33.030  44.699   8.250
 5719POPC   C3A19421  32.993  44.631   7.950
 5719POPC   C4A19422  32.999  44.633   7.650
 5719POPC   C1B19423  33.084  44.942   8.550
 5719POPC   C2B19424  33.096  44.897   8.250
 5719POPC   C3B19425  33.116  44.951   7.950
 5719POPC   C4B19426  33.022  44.859   7.650
 5720POPC   NC319427   5.072  36.856   9.450
 5720POPC   PO419428   5.098  36.933   9.150
 5720POPC   GL119429   5.095  36.894   8.850
 5720POPC   GL219430   5.085  36.984   8.850
 5720POPC   C1A19431   5.094  36.938   8.550
 5720POPC   D2A19432   5.100  36.905   8.250
 5720POPC   C3A19433   5.094  36.916   7.950
 5720POPC   C4A19434   5.062  36.920   7.650
 5720POPC   C1B19435   5.059  37.127   8.550
 5720POPC   C2B19436   5.103  37.145   8.250
 5720POPC   C3B19437   5.058  37.114   7.950
 5720POPC   C4B19438   5.069  37.191   7.650
 5721POPC   NC319439  30.719   1.965   9.450
 5721POPC   PO419440  30.717   2.011   9.150
 5721POPC   GL119441  30.740   1.978   8.850
 5721POPC   GL219442  30.822   1.965   8.850
 5721POPC   C1A19443  30.688   2.031   8.550
 5721POPC   D2A19444  30.683   2.003   8.250
 5721POPC   C3A19445  30.721   1.975   7.950
 5721POPC   C4A19446  30.744   2.016   7.650
 5721POPC   C1B19447  30.984   1.977   8.550
 5721POPC   C2B19448  30.980   1.999   8.250
 5721POPC   C3B19449  30.992   1.992   7.950
 5721POPC   C4B19450  30.929   2.001   7.650
 5722POPC   NC319451  37.639  20.609   9.450
 5722POPC   PO419452  37.658  20.655   9.150
 5722POPC   GL119453  37.648  20.610   8.850
 5722POPC   GL219454  37.580  20.557   8.850
 5722POPC   C1A19455  37.662  20.643   8.550
 5722POPC   D2A19456  37.679  20.606   8.250
 5722POPC   C3A19457  37.708  20.626   7.950
 5722POPC   C4A19458  37.662  20.634   7.650
 5722POPC   C1B19459  37.477  20.408   8.550
 5722POPC   C2B19460  37.520  20.366   8.250
 5722POPC   C3B19461  37.497  20.367   7.950
 5722POPC   C4B19462  37.527  20.409   7.650
 5723POPC   NC319463  19.025  22.936   9.450
 5723POPC   PO419464  19.076  22.947   9.150
 5723POPC   GL119465  19.078  22.983   8.850
 5723POPC   GL219466  19.213  22.930   8.850
 5723POPC   C1A19467  19.061  22.941   8.550
 5723POPC   D2A19468  19.014  22.910   8.250
 5723POPC   C3A19469  19.042  22.968   7.950
 5723POPC   C4A19470  19.010  22.901   7.650
 5723POPC   C1B19471  19.250  22.988   8.550
 5723POPC   C2B19472  19.304  23.025   8.250
 5723POPC   C3B19473  19.265  23.041   7.950
 5723POPC   C4B19474  19.320  23.037   7.650
 5724POPC   NC319475  35.341   2.008   9.450
 5724POPC   PO419476  35.317   1.943   9.150
 5724POPC   GL119477  35.341   1.963   8.850
 5724POPC   GL219478  35.201   1.899   8.850
 5724POPC   C1A19479  35.330   1.985   8.550
 5724POPC   D2A19480  35.361   2.005   8.250
 5724POPC   C3A19481  35.400   2.037   7.950
 5724POPC   C4A19482  35.316   1.955   7.650
 5724POPC   C1B19483  35.166   1.912   8.550
 5724POPC   C2B19484  35.103   1.870   8.250
 5724POPC   C3B19485  35.099   1.879   7.950
 5724POPC   C4B19486  35.155   1.928   7.650
 5725POPC   NC319487  24.481  19.828   9.450
 5725POPC   PO419488  24.538  19.863   9.150
 5725POPC   GL119489  24.468  19.871   8.850
 5725POPC   GL219490  24.404  19.866   8.850
 5725POPC   C1A19491  24.463  19.789   8.550
 5725POPC   D2A19492  24.506  19.822   8.250
 5725POPC   C3A19493  24.471  19.867   7.950
 5725POPC   C4A19494  24.471  19.792   7.650
 5725POPC   C1B19495  24.227  19.867   8.550
 5725POPC   C2B19496  24.253  19.831   8.250
 5725POPC   C3B19497  24.226  19.802   7.950
 5725POPC   C4B19498  24.245  19.805   7.650
 5726POPC   NC319499  43.078  15.184   9.450
 5726POPC   PO419500  43.119  15.156   9.150
 5726POPC   GL119501  43.117  15.149   8.850
 5726POPC   GL219502  43.219  15.269   8.850
 5726POPC   C1A19503  43.122  15.223   8.550
 5726POPC   D2A19504  43.139  15.169   8.250
 5726POPC   C3A19505  43.087  15.214   7.950
 5726POPC   C4A19506  43.119  15.222   7.650
 5726POPC   C1B19507  43.288  15.427   8.550
 5726POPC   C2B19508  43.235  15.343   8.250
 5726POPC   C3B19509  43.260  15.372   7.950
 5726POPC   C4B19510  43.289  15.414   7.650
 5727POPC   NC319511  15.983  13.622   9.450
 5727POPC   PO419512  15.977  13.589   9.150
 5727POPC   GL119513  15.976  13.673   8.850
 5727POPC   GL219514  15.907  13.721   8.850
 5727POPC   C1A19515  15.963  13.664   8.550
 5727POPC   D2A19516  15.923  13.636   8.250
 5727POPC   C3A19517  15.949  13.600   7.950
 5727POPC   C4A19518  15.910  13.621   7.650
 5727POPC   C1B19519  15.751  13.839   8.550
 5727POPC   C2B19520  15.782  13.841   8.250
 5727POPC   C3B19521  15.785  13.796   7.950
 5727POPC   C4B19522  15.779  13.840   7.650
 5728POPC   NC319523   7.376  30.735   9.450
 5728POPC   PO419524   7.432  30.725   9.150
 5728POPC   GL119525   7.438  30.725   8.850
 5728POPC   GL219526   7.477  30.545   8.850
 5728POPC   C1A19527   7.461  30.684   8.550
 5728POPC   D2A19528   7.460  30.712   8.250
 5728POPC   C3A19529   7.382  30.678   7.950
 5728POPC   C4A19530   7.372  30.714   7.650
 5728POPC   C1B19531   7.467  30.470   8.550
 5728POPC   C2B19532   7.483  30.471   8.250
 5728POPC   C3B19533   7.397  30.491   7.950
 5728POPC   C4B19534   7.392  30.485   7.650
 5729POPC   NC319535  29.157  14.356   9.450
 5729POPC   PO419536  29.176  14.387   9.150
 5729POPC   GL119537  29.122  14.428   8.850
 5729POPC   GL219538  29.196  14.316   8.850
 5729POPC   C1A19539  29.095  14.439   8.550
 5729POPC   D2A19540  29.161  14.425   8.250
 5729POPC   C3A19541  29.189  14.387   7.950
 5729POPC   C4A19542  29.097  14.358   7.650
 5729POPC   C1B19543  29.195  14.156   8.550
 5729POPC   C2B19544  29.255  14.173   8.250
 5729POPC   C3B19545  29.258  14.202   7.950
 5729POPC   C4B19546  29.238  14.113   7.650
 5730POPC   NC319547   0.390   8.158   9.450
 5730POPC   PO419548   0.433   8.166   9.150
 5730POPC   GL119549   0.450   8.209   8.850
 5730POPC   GL219550   0.533   8.250   8.850
 5730POPC   C1A19551   0.405   8.156   8.550
 5730POPC   D2A19552   0.412   8.180   8.250
 5730POPC   C3A19553   0.467   8.179   7.950
 5730POPC   C4A19554   0.401   8.189   7.650
 5730POPC   C1B19555   0.679   8.214   8.550
 5730POPC   C2B19556   0.713   8.273   8.250
 5730POPC   C3B19557   0.710   8.251   7.950
 5730POPC   C4B19558   0.668   8.275   7.650
 5731POPC   NC319559  25.276   0.423   9.450
 5731POPC   PO419560  25.299   0.441   9.150
 5731POPC   GL119561  25.230   0.423   8.850
 5731POPC   GL219562  25.258   0.320   8.850
 5731POPC   C1A19563  25.226   0.486   8.550
 5731POPC   D2A19564  25.266   0.485   8.250
 5731POPC   C3A19565  25.219   0.440   7.950
 5731POPC   C4A19566  25.313   0.428   7.650
 5731POPC   C1B19567  25.190   0.230   8.550
 5731POPC   C2B19568  25.204   0.196   8.250
 5731POPC   C3B19569  25.145   0.171   7.950
 5731POPC   C4B19570  25.128   0.221   7.650
 5732POPC   NC319571  12.811   0.409   9.450
 5732POPC   PO419572  12.879   0.408   9.150
 5732POPC   GL119573  12.866   0.446   8.850
 5732POPC   GL219574  12.699   0.486   8.850
 5732POPC   C1A19575  12.899   0.452   8.550
 5732POPC   D2A19576  12.869   0.466   8.250
 5732POPC   C3A19577  12.814   0.399   7.950
 5732POPC   C4A19578  12.804   0.477   7.650
 5732POPC   C1B19579  12.616   0.460   8.550
 5732POPC   C2B19580  12.593   0.447   8.250
 5732POPC   C3B19581  12.603   0.494   7.950
 5732POPC   C4B19582  12.558   0.413   7.650
 5733POPC   NC319583  22.149   5.899   9.450
 5733POPC   PO419584  22.128   5.896   9.150
 5733POPC   GL119585  22.159   5.859   8.850
 5733POPC   GL219586  22.239   5.967   8.850
 5733POPC   C1A19587  22.130   5.900   8.550
 5733POPC   D2A19588  22.136   5.871   8.250
 5733POPC   C3A19589  22.122   5.857   7.950
 5733POPC   C4A19590  22.127   5.871   7.650
 5733POPC   C1B19591  22.360   6.039   8.550
 5733POPC   C2B19592  22.333   6.032   8.250
 5733POPC   C3B19593  22.369   6.007   7.950
 5733POPC   C4B19594  22.376   6.033   7.650
 5734POPC   NC319595  43.130   2.808   9.450
 5734POPC   PO419596  43.109   2.728   9.150
 5734POPC   GL119597  43.133   2.739   8.850
 5734POPC   GL219598  42.998   2.786   8.850
 5734POPC   C1A19599  43.076   2.784   8.550
 5734POPC   D2A19600  43.116   2.794   8.250
 5734POPC   C3A19601  43.159   2.770   7.950
 5734POPC   C4A19602  43.145   2.788   7.650
 5734POPC   C1B19603  42.833   2.811   8.550
 5734POPC   C2B19604  42.898   2.759   8.250
 5734POPC   C3B19605  42.898   2.717   7.950
 5734POPC   C4B19606  42.817   2.807   7.650
 5735POPC   NC319607  12.118  42.360   9.450
 5735POPC   PO419608  12.042  42.359   9.150
 5735POPC   GL119609  12.106  42.324   8.850
 5735POPC   GL219610  11.933  42.322   8.850
 5735POPC   C1A19611  12.094  42.291   8.550
 5735POPC   D2A19612  12.126  42.366   8.250
 5735POPC   C3A19613  12.036  42.351   7.950
 5735POPC   C4A19614  12.063  42.384   7.650
 5735POPC   C1B19615  11.864  42.338   8.550
 5735POPC   C2B19616  11.864  42.346   8.250
 5735POPC   C3B19617  11.787  42.365   7.950
 5735POPC   C4B19618  11.860  42.387   7.650
 5736POPC   NC319619  40.743  28.357   9.450
 5736POPC   PO419620  40.795  28.327   9.150
 5736POPC   GL119621  40.747  28.320   8.850
 5736POPC   GL219622  40.779  28.465   8.850
 5736POPC   C1A19623  40.800  28.319   8.550
 5736POPC   D2A19624  40.786  28.385   8.250
 5736POPC   C3A19625  40.796  28.335   7.950
 5736POPC   C4A19626  40.757  28.401   7.650
 5736POPC   C1B19627  40.822  28.640   8.550
 5736POPC   C2B19628  40.849  28.560   8.250
 5736POPC   C3B19629  40.828  28.605   7.950
 5736POPC   C4B19630  40.829  28.630   7.650
 5737POPC   NC319631  28.343  12.859   9.450
 5737POPC   PO419632  28.361  12.885   9.150
 5737POPC   GL119633  28.398  12.891   8.850
 5737POPC   GL219634  28.460  12.890   8.850
 5737POPC   C1A19635  28.332  12.868   8.550
 5737POPC   D2A19636  28.331  12.834   8.250
 5737POPC   C3A19637  28.397  12.899   7.950
 5737POPC   C4A19638  28.361  12.817   7.650
 5737POPC   C1B19639  28.580  13.009   8.550
 5737POPC   C2B19640  28.602  12.966   8.250
 5737POPC   C3B19641  28.598  12.929   7.950
 5737POPC   C4B19642  28.561  12.960   7.650
 5738POPC   NC319643  16.687  35.351   9.450
 5738POPC   PO419644  16.713  35.340   9.150
 5738POPC   GL119645  16.721  35.319   8.850
 5738POPC   GL219646  16.764  35.513   8.850
 5738POPC   C1A19647  16.723  35.395   8.550
 5738POPC   D2A19648  16.717  35.348   8.250
 5738POPC   C3A19649  16.744  35.352   7.950
 5738POPC   C4A19650  16.687  35.378   7.650
 5738POPC   C1B19651  16.812  35.587   8.550
 5738POPC   C2B19652  16.817  35.552   8.250
 5738POPC   C3B19653  16.813  35.562   7.950
 5738POPC   C4B19654  16.754  35.553   7.650
 5739POPC   NC319655  42.349  24.472   9.450
 5739POPC   PO419656  42.289  24.464   9.150
 5739POPC   GL119657  42.284  24.440   8.850
 5739POPC   GL219658  42.465  24.477   8.850
 5739POPC   C1A19659  42.354  24.527   8.550
 5739POPC   D2A19660  42.358  24.523   8.250
 5739POPC   C3A19661  42.315  24.498   7.950
 5739POPC   C4A19662  42.380  24.482   7.650
 5739POPC   C1B19663  42.568  24.384   8.550
 5739POPC   C2B19664  42.504  24.337   8.250
 5739POPC   C3B19665  42.551  24.406   7.950
 5739POPC   C4B19666  42.572  24.319   7.650
 5740POPC   NC319667  33.753   3.515   9.450
 5740POPC   PO419668  33.754   3.502   9.150
 5740POPC   GL119669  33.830   3.522   8.850
 5740POPC   GL219670  33.818   3.681   8.850
 5740POPC   C1A19671  33.800   3.544   8.550
 5740POPC   D2A19672  33.823   3.568   8.250
 5740POPC   C3A19673  33.814   3.496   7.950
 5740POPC   C4A19674  33.770   3.553   7.650
 5740POPC   C1B19675  33.876   3.782   8.550
 5740POPC   C2B19676  33.871   3.807   8.250
 5740POPC   C3B19677  33.831   3.757   7.950
 5740POPC   C4B19678  33.886   3.774   7.650
 5741POPC   NC319679  26.077  27.546   9.450
 5741POPC   PO419680  26.040  27.565   9.150
 5741POPC   GL119681  26.091  27.560   8.850
 5741POPC   GL219682  25.945  27.578   8.850
 5741POPC   C1A19683  26.047  27.553   8.550
 5741POPC   D2A19684  26.087  27.551   8.250
 5741POPC   C3A19685  26.012  27.592   7.950
 5741POPC   C4A19686  26.048  27.636   7.650
 5741POPC   C1B19687  25.821  27.581   8.550
 5741POPC   C2B19688  25.748  27.586   8.250
 5741POPC   C3B19689  25.773  27.608   7.950
 5741POPC   C4B19690  25.828  27.591   7.650
 5742POPC   NC319691  43.111  35.334   9.450
 5742POPC   PO419692  43.097  35.336   9.150
 5742POPC   GL119693  43.096  35.354   8.850
 5742POPC   GL219694  43.169  35.484   8.850
 5742POPC   C1A19695  43.115  35.367   8.550
 5742POPC   D2A19696  43.119  35.353   8.250
 5742POPC   C3A19697  43.092  35.385   7.950
 5742POPC   C4A19698  43.067  35.325   7.650
 5742POPC   C1B19699  43.201  35.557   8.550
 5742POPC   C2B19700  43.276  35.619   8.250
 5742POPC   C3B19701  43.185  35.576   7.950
 5742POPC   C4B19702  43.231  35.605   7.650
 5743POPC   NC319703   0.401   4.289   9.450
 5743POPC   PO419704   0.465   4.276   9.150
 5743POPC   GL119705   0.439   4.270   8.850
 5743POPC   GL219706   0.291   4.313   8.850
 5743POPC   C1A19707   0.435   4.330   8.550
 5743POPC   D2A19708   0.469   4.316   8.250
 5743POPC   C3A19709   0.436   4.334   7.950
 5743POPC   C4A19710   0.480   4.315   7.650
 5743POPC   C1B19711   0.169   4.249   8.550
 5743POPC   C2B19712   0.194   4.262   8.250
 5743POPC   C3B19713   0.186   4.244   7.950
 5743POPC   C4B19714   0.238   4.242   7.650
 5744POPC   NC319715  41.580  43.093   9.450
 5744POPC   PO419716  41.576  43.070   9.150
 5744POPC   GL119717  41.595  43.095   8.850
 5744POPC   GL219718  41.640  43.019   8.850
 5744POPC   C1A19719  41.553  43.119   8.550
 5744POPC   D2A19720  41.535  43.140   8.250
 5744POPC   C3A19721  41.575  43.074   7.950
 5744POPC   C4A19722  41.585  43.147   7.650
 5744POPC   C1B19723  41.734  42.898   8.550
 5744POPC   C2B19724  41.689  42.918   8.250
 5744POPC   C3B19725  41.755  42.890   7.950
 5744POPC   C4B19726  41.673  42.876   7.650
 5745POPC   NC319727  41.563  33.824   9.450
 5745POPC   PO419728  41.544  33.831   9.150
 5745POPC   GL119729  41.568  33.757   8.850
 5745POPC   GL219730  41.683  33.919   8.850
 5745POPC   C1A19731  41.602  33.823   8.550
 5745POPC   D2A19732  41.574  33.800   8.250
 5745POPC   C3A19733  41.586  33.801   7.950
 5745POPC   C4A19734  41.568  33.772   7.650
 5745POPC   C1B19735  41.694  34.025   8.550
 5745POPC   C2B19736  41.749  33.995   8.250
 5745POPC   C3B19737  41.736  34.012   7.950
 5745POPC   C4B19738  41.738  33.966   7.650
 5746POPC   NC319739  16.759  43.852   9.450
 5746POPC   PO419740  16.711  43.838   9.150
 5746POPC   GL119741  16.756  43.861   8.850
 5746POPC   GL219742  16.805  43.934   8.850
 5746POPC   C1A19743  16.687  43.862   8.550
 5746POPC   D2A19744  16.683  43.930   8.250
 5746POPC   C3A19745  16.696  43.865   7.950
 5746POPC   C4A19746  16.746  43.852   7.650
 5746POPC   C1B19747  16.940  43.991   8.550
 5746POPC   C2B19748  16.940  43.973   8.250
 5746POPC   C3B19749  16.927  44.013   7.950
 5746POPC   C4B19750  16.979  43.997   7.650
 5747POPC   NC319751  17.502  44.701   9.450
 5747POPC   PO419752  17.522  44.639   9.150
 5747POPC   GL119753  17.547  44.630   8.850
 5747POPC   GL219754  17.462  44.563   8.850
 5747POPC   C1A19755  17.536  44.626   8.550
 5747POPC   D2A19756  17.533  44.677   8.250
 5747POPC   C3A19757  17.556  44.622   7.950
 5747POPC   C4A19758  17.549  44.705   7.650
 5747POPC   C1B19759  17.319  44.447   8.550
 5747POPC   C2B19760  17.334  44.458   8.250
 5747POPC   C3B19761  17.381  44.527   7.950
 5747POPC   C4B19762  17.376  44.453   7.650
 5748POPC   NC319763  37.672  43.096   9.450
 5748POPC   PO419764  37.677  43.065   9.150
 5748POPC   GL119765  37.711  43.115   8.850
 5748POPC   GL219766  37.823  43.110   8.850
 5748POPC   C1A19767  37.641  43.076   8.550
 5748POPC   D2A19768  37.692  43.128   8.250
 5748POPC   C3A19769  37.639  43.063   7.950
 5748POPC   C4A19770  37.721  43.117   7.650
 5748POPC   C1B19771  37.972  43.158   8.550
 5748POPC   C2B19772  37.964  43.113   8.250
 5748POPC   C3B19773  37.892  43.106   7.950
 5748POPC   C4B19774  37.882  43.160   7.650
 5749POPC   NC319775  39.225  44.623   9.450
 5749POPC   PO419776  39.228  44.695   9.150
 5749POPC   GL119777  39.209  44.638   8.850
 5749POPC   GL219778  39.369  44.625   8.850
 5749POPC   C1A19779  39.212  44.687   8.550
 5749POPC   D2A19780  39.243  44.683   8.250
 5749POPC   C3A19781  39.218  44.658   7.950
 5749POPC   C4A19782  39.195  44.680   7.650
 5749POPC   C1B19783  39.492  44.669   8.550
 5749POPC   C2B19784  39.504  44.617   8.250
 5749POPC   C3B19785  39.483  44.634   7.950
 5749POPC   C4B19786  39.477  44.664   7.650
 5750POPC   NC319787  12.113  31.510   9.450
 5750POPC   PO419788  12.054  31.462   9.150
 5750POPC   GL119789  12.074  31.500   8.850
 5750POPC   GL219790  11.942  31.407   8.850
 5750POPC   C1A19791  12.125  31.522   8.550
 5750POPC   D2A19792  12.096  31.479   8.250
 5750POPC   C3A19793  12.070  31.471   7.950
 5750POPC   C4A19794  12.059  31.475   7.650
 5750POPC   C1B19795  11.890  31.330   8.550
 5750POPC   C2B19796  11.855  31.356   8.250
 5750POPC   C3B19797  11.868  31.377   7.950
 5750POPC   C4B19798  11.854  31.317   7.650
 5751POPC   NC319799  32.256  43.073   9.450
 5751POPC   PO419800  32.239  43.127   9.150
 5751POPC   GL119801  32.263  43.154   8.850
 5751POPC   GL219802  32.125  43.124   8.850
 5751POPC   C1A19803  32.248  43.126   8.550
 5751POPC   D2A19804  32.293  43.132   8.250
 5751POPC   C3A19805  32.225  43.128   7.950
 5751POPC   C4A19806  32.263  43.088   7.650
 5751POPC   C1B19807  32.017  43.099   8.550
 5751POPC   C2B19808  31.984  43.134   8.250
 5751POPC   C3B19809  32.015  43.110   7.950
 5751POPC   C4B19810  32.021  43.111   7.650
 5752POPC   NC319811  19.800  24.493   9.450
 5752POPC   PO419812  19.793  24.535   9.150
 5752POPC   GL119813  19.788  24.484   8.850
 5752POPC   GL219814  19.982  24.540   8.850
 5752POPC   C1A19815  19.837  24.478   8.550
 5752POPC   D2A19816  19.860  24.491   8.250
 5752POPC   C3A19817  19.856  24.451   7.950
 5752POPC   C4A19818  19.786  24.494   7.650
 5752POPC   C1B19819  20.075  24.566   8.550
 5752POPC   C2B19820  20.115  24.511   8.250
 5752POPC   C3B19821  20.108  24.560   7.950
 5752POPC   C4B19822  20.032  24.517   7.650
 5753POPC   NC319823  18.277  16.712   9.450
 5753POPC   PO419824  18.276  16.707   9.150
 5753POPC   GL119825  18.316  16.734   8.850
 5753POPC   GL219826  18.191  16.837   8.850
 5753POPC   C1A19827  18.326  16.749   8.550
 5753POPC   D2A19828  18.235  16.705   8.250
 5753POPC   C3A19829  18.296  16.778   7.950
 5753POPC   C4A19830  18.281  16.763   7.650
 5753POPC   C1B19831  18.082  16.875   8.550
 5753POPC   C2B19832  18.035  16.808   8.250
 5753POPC   C3B19833  18.083  16.813   7.950
 5753POPC   C4B19834  18.085  16.856   7.650
 5754POPC   NC319835  25.224  39.231   9.450
 5754POPC   PO419836  25.249  39.235   9.150
 5754POPC   GL119837  25.301  39.275   8.850
 5754POPC   GL219838  25.188  39.348   8.850
 5754POPC   C1A19839  25.273  39.212   8.550
 5754POPC   D2A19840  25.218  39.184   8.250
 5754POPC   C3A19841  25.239  39.252   7.950
 5754POPC   C4A19842  25.299  39.187   7.650
 5754POPC   C1B19843  25.108  39.375   8.550
 5754POPC   C2B19844  25.037  39.362   8.250
 5754POPC   C3B19845  25.079  39.399   7.950
 5754POPC   C4B19846  25.062  39.360   7.650
 5755POPC   NC319847  24.476  26.066   9.450
 5755POPC   PO419848  24.539  26.027   9.150
 5755POPC   GL119849  24.519  26.008   8.850
 5755POPC   GL219850  24.572  26.149   8.850
 5755POPC   C1A19851  24.517  26.028   8.550
 5755POPC   D2A19852  24.457  26.082   8.250
 5755POPC   C3A19853  24.443  26.034   7.950
 5755POPC   C4A19854  24.520  26.071   7.650
 5755POPC   C1B19855  24.629  26.185   8.550
 5755POPC   C2B19856  24.697  26.171   8.250
 5755POPC   C3B19857  24.658  26.220   7.950
 5755POPC   C4B19858  24.655  26.205   7.650
 5756POPC   NC319859  29.154  13.613   9.450
 5756POPC   PO419860  29.155  13.676   9.150
 5756POPC   GL119861  29.149  13.624   8.850
 5756POPC   GL219862  29.295  13.591   8.850
 5756POPC   C1A19863  29.114  13.632   8.550
 5756POPC   D2A19864  29.178  13.665   8.250
 5756POPC   C3A19865  29.120  13.668   7.950
 5756POPC   C4A19866  29.163  13.590   7.650
 5756POPC   C1B19867  29.375  13.556   8.550
 5756POPC   C2B19868  29.358  13.585   8.250
 5756POPC   C3B19869  29.415  13.622   7.950
 5756POPC   C4B19870  29.437  13.551   7.650
 5757POPC   NC319871  40.796  19.820   9.450
 5757POPC   PO419872  40.824  19.882   9.150
 5757POPC   GL119873  40.765  19.786   8.850
 5757POPC   GL219874  40.857  19.987   8.850
 5757POPC   C1A19875  40.829  19.795   8.550
 5757POPC   D2A19876  40.792  19.860   8.250
 5757POPC   C3A19877  40.807  19.833   7.950
 5757POPC   C4A19878  40.744  19.866   7.650
 5757POPC   C1B19879  40.880  20.065   8.550
 5757POPC   C2B19880  40.910  20.007   8.250
 5757POPC   C3B19881  40.949  20.091   7.950
 5757POPC   C4B19882  40.917  20.074   7.650
 5758POPC   NC319883  20.583  25.285   9.450
 5758POPC   PO419884  20.570  25.290   9.150
 5758POPC   GL119885  20.638  25.241   8.850
 5758POPC   GL219886  20.677  25.379   8.850
 5758POPC   C1A19887  20.573  25.302   8.550
 5758POPC   D2A19888  20.571  25.230   8.250
 5758POPC   C3A19889  20.584  25.304   7.950
 5758POPC   C4A19890  20.628  25.233   7.650
 5758POPC   C1B19891  20.796  25.404   8.550
 5758POPC   C2B19892  20.778  25.393   8.250
 5758POPC   C3B19893  20.852  25.430   7.950
 5758POPC   C4B19894  20.797  25.425   7.650
 5759POPC   NC319895  36.169  12.871   9.450
 5759POPC   PO419896  36.089  12.869   9.150
 5759POPC   GL119897  36.079  12.818   8.850
 5759POPC   GL219898  36.031  12.885   8.850
 5759POPC   C1A19899  36.121  12.802   8.550
 5759POPC   D2A19900  36.110  12.845   8.250
 5759POPC   C3A19901  36.118  12.861   7.950
 5759POPC   C4A19902  36.149  12.863   7.650
 5759POPC   C1B19903  35.859  12.897   8.550
 5759POPC   C2B19904  35.900  12.865   8.250
 5759POPC   C3B19905  35.928  12.933   7.950
 5759POPC   C4B19906  35.894  12.884   7.650
 5760POPC   NC319907  19.088   5.064   9.450
 5760POPC   PO419908  19.048   5.125   9.150
 5760POPC   GL119909  19.059   5.076   8.850
 5760POPC   GL219910  19.153   5.022   8.850
 5760POPC   C1A19911  19.059   5.112   8.550
 5760POPC   D2A19912  19.064   5.098   8.250
 5760POPC   C3A19913  19.024   5.087   7.950
 5760POPC   C4A19914  19.049   5.089   7.650
 5760POPC   C1B19915  19.215   4.929   8.550
 5760POPC   C2B19916  19.201   4.907   8.250
 5760POPC   C3B19917  19.211   4.901   7.950
 5760POPC   C4B19918  19.253   4.930   7.650
 5761POPC   NC319919  22.205  14.374   9.450
 5761POPC   PO419920  22.132  14.379   9.150
 5761POPC   GL119921  22.115  14.448   8.850
 5761POPC   GL219922  22.099  14.269   8.850
 5761POPC   C1A19923  22.194  14.370   8.550
 5761POPC   D2A19924  22.136  14.449   8.250
 5761POPC   C3A19925  22.115  14.441   7.950
 5761POPC   C4A19926  22.197  14.357   7.650
 5761POPC   C1B19927  22.169  14.115   8.550
 5761POPC   C2B19928  22.163  14.153   8.250
 5761POPC   C3B19929  22.103  14.168   7.950
 5761POPC   C4B19930  22.096  14.200   7.650
 5762POPC   NC319931  15.172  36.871   9.450
 5762POPC   PO419932  15.209  36.900   9.150
 5762POPC   GL119933  15.216  36.943   8.850
 5762POPC   GL219934  15.343  36.919   8.850
 5762POPC   C1A19935  15.206  36.926   8.550
 5762POPC   D2A19936  15.163  36.855   8.250
 5762POPC   C3A19937  15.182  36.940   7.950
 5762POPC   C4A19938  15.225  36.891   7.650
 5762POPC   C1B19939  15.446  36.975   8.550
 5762POPC   C2B19940  15.446  37.020   8.250
 5762POPC   C3B19941  15.426  37.028   7.950
 5762POPC   C4B19942  15.415  36.955   7.650
 5763POPC   NC319943  38.488  15.955   9.450
 5763POPC   PO419944  38.482  15.993   9.150
 5763POPC   GL119945  38.428  15.960   8.850
 5763POPC   GL219946  38.607  15.960   8.850
 5763POPC   C1A19947  38.470  15.993   8.550
 5763POPC   D2A19948  38.459  15.963   8.250
 5763POPC   C3A19949  38.417  15.936   7.950
 5763POPC   C4A19950  38.481  15.984   7.650
 5763POPC   C1B19951  38.700  15.890   8.550
 5763POPC   C2B19952  38.675  15.859   8.250
 5763POPC   C3B19953  38.708  15.878   7.950
 5763POPC   C4B19954  38.720  15.853   7.650
 5764POPC   NC319955  25.242  31.499   9.450
 5764POPC   PO419956  25.267  31.426   9.150
 5764POPC   GL119957  25.273  31.521   8.850
 5764POPC   GL219958  25.138  31.501   8.850
 5764POPC   C1A19959  25.264  31.512   8.550
 5764POPC   D2A19960  25.269  31.494   8.250
 5764POPC   C3A19961  25.251  31.487   7.950
 5764POPC   C4A19962  25.285  31.522   7.650
 5764POPC   C1B19963  25.000  31.433   8.550
 5764POPC   C2B19964  25.003  31.427   8.250
 5764POPC   C3B19965  24.983  31.460   7.950
 5764POPC   C4B19966  25.050  31.485   7.650
 5765POPC   NC319967  17.512  37.637   9.450
 5765POPC   PO419968  17.489  37.672   9.150
 5765POPC   GL119969  17.541  37.647   8.850
 5765POPC   GL219970  17.379  37.584   8.850
 5765POPC   C1A19971  17.532  37.635   8.550
 5765POPC   D2A19972  17.535  37.716   8.250
 5765POPC   C3A19973  17.532  37.709   7.950
 5765POPC   C4A19974  17.529  37.643   7.650
 5765POPC   C1B19975  17.365  37.471   8.550
 5765POPC   C2B19976  17.335  37.508   8.250
 5765POPC   C3B19977  17.343  37.480   7.950
 5765POPC   C4B19978  17.376  37.485   7.650
 5766POPC   NC319979   5.875  17.543   9.450
 5766POPC   PO419980   5.903  17.531   9.150
 5766POPC   GL119981   5.872  17.553   8.850
 5766POPC   GL219982   5.735  17.518   8.850
 5766POPC   C1A19983   5.842  17.496   8.550
 5766POPC   D2A19984   5.877  17.512   8.250
 5766POPC   C3A19985   5.851  17.554   7.950
 5766POPC   C4A19986   5.917  17.532   7.650
 5766POPC   C1B19987   5.610  17.438   8.550
 5766POPC   C2B19988   5.656  17.384   8.250
 5766POPC   C3B19989   5.628  17.470   7.950
 5766POPC   C4B19990   5.626  17.450   7.650
 5767POPC   NC319991   1.964  37.681   9.450
 5767POPC   PO419992   1.993  37.690   9.150
 5767POPC   GL119993   1.941  37.643   8.850
 5767POPC   GL219994   1.972  37.556   8.850
 5767POPC   C1A19995   1.942  37.702   8.550
 5767POPC   D2A19996   1.962  37.675   8.250
 5767POPC   C3A19997   1.958  37.699   7.950
 5767POPC   C4A19998   2.037  37.718   7.650
 5767POPC   C1B19999   1.842  37.486   8.550
 5767POPC   C2B20000   1.863  37.509   8.250
 5767POPC   C3B20001   1.908  37.509   7.950
 5767POPC   C4B20002   1.878  37.468   7.650
 5768POPC   NC320003  41.533   1.233   9.450
 5768POPC   PO420004  41.592   1.218   9.150
 5768POPC   GL120005  41.518   1.255   8.850
 5768POPC   GL220006  41.636   1.155   8.850
 5768POPC   C1A20007  41.546   1.217   8.550
 5768POPC   D2A20008  41.577   1.166   8.250
 5768POPC   C3A20009  41.554   1.248   7.950
 5768POPC   C4A20010  41.536   1.233   7.650
 5768POPC   C1B20011  41.826   1.077   8.550
 5768POPC   C2B20012  41.744   1.105   8.250
 5768POPC   C3B20013  41.773   1.135   7.950
 5768POPC   C4B20014  41.822   1.057   7.650
 5769POPC   NC320015   7.376  22.200   9.450
 5769POPC   PO420016   7.458  22.150   9.150
 5769POPC   GL120017   7.445  22.181   8.850
 5769POPC   GL220018   7.477  22.233   8.850
 5769POPC   C1A20019   7.470  22.195   8.550
 5769POPC   D2A20020   7.388  22.140   8.250
 5769POPC   C3A20021   7.424  22.127   7.950
 5769POPC   C4A20022   7.432  22.209   7.650
 5769POPC   C1B20023   7.546  22.335   8.550
 5769POPC   C2B20024   7.590  22.399   8.250
 5769POPC   C3B20025   7.566  22.389   7.950
 5769POPC   C4B20026   7.613  22.345   7.650
 5770POPC   NC320027  43.854  44.663   9.450
 5770POPC   PO420028  43.936  44.648   9.150
 5770POPC   GL120029  43.899  44.678   8.850
 5770POPC   GL220030  43.992  44.628   8.850
 5770POPC   C1A20031  43.908  44.688   8.550
 5770POPC   D2A20032  43.860  44.685   8.250
 5770POPC   C3A20033  43.925  44.686   7.950
 5770POPC   C4A20034  43.881  44.630   7.650
 5770POPC   C1B20035  44.136  44.615   8.550
 5770POPC   C2B20036  44.150  44.641   8.250
 5770POPC   C3B20037  44.126  44.646   7.950
 5770POPC   C4B20038  44.132  44.606   7.650
 5771POPC   NC320039  14.431  41.581   9.450
 5771POPC   PO420040  14.388  41.589   9.150
 5771POPC   GL120041  14.390  41.514   8.850
 5771POPC   GL220042  14.298  41.613   8.850
 5771POPC   C1A20043  14.406  41.595   8.550
 5771POPC   D2A20044  14.428  41.557   8.250
 5771POPC   C3A20045  14.428  41.524   7.950
 5771POPC   C4A20046  14.376  41.553   7.650
 5771POPC   C1B20047  14.144  41.652   8.550
 5771POPC   C2B20048  14.130  41.684   8.250
 5771POPC   C3B20049  14.211  41.680   7.950
 5771POPC   C4B20050  14.221  41.622   7.650
 5772POPC   NC320051   8.973   7.437   9.450
 5772POPC   PO420052   8.984   7.415   9.150
 5772POPC   GL120053   8.954   7.454   8.850
 5772POPC   GL220054   8.898   7.319   8.850
 5772POPC   C1A20055   8.933   7.405   8.550
 5772POPC   D2A20056   9.015   7.374   8.250
 5772POPC   C3A20057   8.999   7.445   7.950
 5772POPC   C4A20058   8.989   7.426   7.650
 5772POPC   C1B20059   8.878   7.213   8.550
 5772POPC   C2B20060   8.799   7.182   8.250
 5772POPC   C3B20061   8.864   7.177   7.950
 5772POPC   C4B20062   8.879   7.172   7.650
 5773POPC   NC320063  42.288  13.578   9.450
 5773POPC   PO420064  42.301  13.622   9.150
 5773POPC   GL120065  42.363  13.635   8.850
 5773POPC   GL220066  42.500  13.622   8.850
 5773POPC   C1A20067  42.362  13.641   8.550
 5773POPC   D2A20068  42.311  13.589   8.250
 5773POPC   C3A20069  42.347  13.660   7.950
 5773POPC   C4A20070  42.337  13.676   7.650
 5773POPC   C1B20071  42.576  13.632   8.550
 5773POPC   C2B20072  42.628  13.696   8.250
 5773POPC   C3B20073  42.597  13.699   7.950
 5773POPC   C4B20074  42.598  13.648   7.650
 5774POPC   NC320075   7.459  44.641   9.450
 5774POPC   PO420076   7.390  44.711   9.150
 5774POPC   GL120077   7.395  44.653   8.850
 5774POPC   GL220078   7.504  44.522   8.850
 5774POPC   C1A20079   7.394  44.712   8.550
 5774POPC   D2A20080   7.469  44.683   8.250
 5774POPC   C3A20081   7.385  44.658   7.950
 5774POPC   C4A20082   7.454  44.691   7.650
 5774POPC   C1B20083   7.465  44.442   8.550
 5774POPC   C2B20084   7.539  44.456   8.250
 5774POPC   C3B20085   7.492  44.472   7.950
 5774POPC   C4B20086   7.545  44.383   7.650
 5775POPC   NC320087  39.232  16.687   9.450
 5775POPC   PO420088  39.192  16.771   9.150
 5775POPC   GL120089  39.272  16.779   8.850
 5775POPC   GL220090  39.188  16.620   8.850
 5775POPC   C1A20091  39.192  16.691   8.550
 5775POPC   D2A20092  39.195  16.776   8.250
 5775POPC   C3A20093  39.232  16.752   7.950
 5775POPC   C4A20094  39.187  16.743   7.650
 5775POPC   C1B20095  39.029  16.538   8.550
 5775POPC   C2B20096  39.051  16.516   8.250
 5775POPC   C3B20097  39.059  16.518   7.950
 5775POPC   C4B20098  39.055  16.538   7.650
 5776POPC   NC320099  28.403   0.479   9.450
 5776POPC   PO420100  28.405   0.454   9.150
 5776POPC   GL120101  28.381   0.393   8.850
 5776POPC   GL220102  28.368   0.546   8.850
 5776POPC   C1A20103  28.319   0.475   8.550
 5776POPC   D2A20104  28.388   0.444   8.250
 5776POPC   C3A20105  28.323   0.395   7.950
 5776POPC   C4A20106  28.403   0.486   7.650
 5776POPC   C1B20107  28.369   0.710   8.550
 5776POPC   C2B20108  28.440   0.653   8.250
 5776POPC   C3B20109  28.399   0.681   7.950
 5776POPC   C4B20110  28.402   0.665   7.650
 5777POPC   NC320111  26.074   3.503   9.450
 5777POPC   PO420112  26.045   3.501   9.150
 5777POPC   GL120113  26.052   3.520   8.850
 5777POPC   GL220114  25.896   3.500   8.850
 5777POPC   C1A20115  26.006   3.533   8.550
 5777POPC   D2A20116  26.017   3.531   8.250
 5777POPC   C3A20117  26.059   3.525   7.950
 5777POPC   C4A20118  26.087   3.573   7.650
 5777POPC   C1B20119  25.789   3.413   8.550
 5777POPC   C2B20120  25.762   3.429   8.250
 5777POPC   C3B20121  25.773   3.425   7.950
 5777POPC   C4B20122  25.786   3.462   7.650
 5778POPC   NC320123  22.972  25.226   9.450
 5778POPC   PO420124  22.985  25.293   9.150
 5778POPC   GL120125  22.924  25.238   8.850
 5778POPC   GL220126  22.944  25.165   8.850
 5778POPC   C1A20127  22.916  25.290   8.550
 5778POPC   D2A20128  22.921  25.285   8.250
 5778POPC   C3A20129  22.895  25.263   7.950
 5778POPC   C4A20130  22.888  25.296   7.650
 5778POPC   C1B20131  23.042  25.002   8.550
 5778POPC   C2B20132  23.026  25.061   8.250
 5778POPC   C3B20133  22.971  25.046   7.950
 5778POPC   C4B20134  22.963  24.995   7.650
 5779POPC   NC320135  13.603  20.635   9.450
 5779POPC   PO420136  13.592  20.629   9.150
 5779POPC   GL120137  13.659  20.585   8.850
 5779POPC   GL220138  13.468  20.616   8.850
 5779POPC   C1A20139  13.672  20.620   8.550
 5779POPC   D2A20140  13.594  20.610   8.250
 5779POPC   C3A20141  13.615  20.626   7.950
 5779POPC   C4A20142  13.641  20.581   7.650
 5779POPC   C1B20143  13.370  20.683   8.550
 5779POPC   C2B20144  13.345  20.678   8.250
 5779POPC   C3B20145  13.390  20.628   7.950
 5779POPC   C4B20146  13.355  20.681   7.650
 5780POPC   NC320147  18.261   2.006   9.450
 5780POPC   PO420148  18.252   1.992   9.150
 5780POPC   GL120149  18.289   2.035   8.850
 5780POPC   GL220150  18.272   1.849   8.850
 5780POPC   C1A20151  18.262   1.996   8.550
 5780POPC   D2A20152  18.233   1.962   8.250
 5780POPC   C3A20153  18.266   1.999   7.950
 5780POPC   C4A20154  18.318   2.010   7.650
 5780POPC   C1B20155  18.226   1.767   8.550
 5780POPC   C2B20156  18.218   1.771   8.250
 5780POPC   C3B20157  18.271   1.696   7.950
 5780POPC   C4B20158  18.251   1.748   7.650
 5781POPC   NC320159   0.444   6.640   9.450
 5781POPC   PO420160   0.449   6.665   9.150
 5781POPC   GL120161   0.391   6.616   8.850
 5781POPC   GL220162   0.318   6.714   8.850
 5781POPC   C1A20163   0.401   6.613   8.550
 5781POPC   D2A20164   0.394   6.694   8.250
 5781POPC   C3A20165   0.438   6.693   7.950
 5781POPC   C4A20166   0.427   6.671   7.650
 5781POPC   C1B20167   0.237   6.862   8.550
 5781POPC   C2B20168   0.239   6.800   8.250
 5781POPC   C3B20169   0.239   6.791   7.950
 5781POPC   C4B20170   0.253   6.832   7.650
 5782POPC   NC320171  40.805   6.653   9.450
 5782POPC   PO420172  40.771   6.619   9.150
 5782POPC   GL120173  40.810   6.670   8.850
 5782POPC   GL220174  40.809   6.793   8.850
 5782POPC   C1A20175  40.750   6.646   8.550
 5782POPC   D2A20176  40.785   6.656   8.250
 5782POPC   C3A20177  40.826   6.675   7.950
 5782POPC   C4A20178  40.772   6.640   7.650
 5782POPC   C1B20179  40.850   6.831   8.550
 5782POPC   C2B20180  40.915   6.831   8.250
 5782POPC   C3B20181  40.902   6.890   7.950
 5782POPC   C4B20182  40.827   6.889   7.650
 5783POPC   NC320183  34.622  19.828   9.450
 5783POPC   PO420184  34.550  19.867   9.150
 5783POPC   GL120185  34.609  19.789   8.850
 5783POPC   GL220186  34.500  19.983   8.850
 5783POPC   C1A20187  34.536  19.809   8.550
 5783POPC   D2A20188  34.570  19.876   8.250
 5783POPC   C3A20189  34.531  19.861   7.950
 5783POPC   C4A20190  34.597  19.836   7.650
 5783POPC   C1B20191  34.402  20.022   8.550
 5783POPC   C2B20192  34.443  20.049   8.250
 5783POPC   C3B20193  34.417  20.076   7.950
 5783POPC   C4B20194  34.468  20.073   7.650
 5784POPC   NC320195   8.976  38.435   9.450
 5784POPC   PO420196   9.006  38.461   9.150
 5784POPC   GL120197   9.020  38.481   8.850
 5784POPC   GL220198   9.137  38.454   8.850
 5784POPC   C1A20199   8.981  38.443   8.550
 5784POPC   D2A20200   8.964  38.418   8.250
 5784POPC   C3A20201   9.022  38.505   7.950
 5784POPC   C4A20202   9.011  38.439   7.650
 5784POPC   C1B20203   9.216  38.445   8.550
 5784POPC   C2B20204   9.186  38.435   8.250
 5784POPC   C3B20205   9.178  38.482   7.950
 5784POPC   C4B20206   9.223  38.491   7.650
 5785POPC   NC320207   3.491  17.529   9.450
 5785POPC   PO420208   3.528  17.548   9.150
 5785POPC   GL120209   3.552  17.471   8.850
 5785POPC   GL220210   3.445  17.454   8.850
 5785POPC   C1A20211   3.529  17.498   8.550
 5785POPC   D2A20212   3.522  17.499   8.250
 5785POPC   C3A20213   3.577  17.493   7.950
 5785POPC   C4A20214   3.508  17.489   7.650
 5785POPC   C1B20215   3.312  17.348   8.550
 5785POPC   C2B20216   3.400  17.329   8.250
 5785POPC   C3B20217   3.409  17.381   7.950
 5785POPC   C4B20218   3.324  17.306   7.650
 5786POPC   NC320219  27.605  33.773   9.450
 5786POPC   PO420220  27.606  33.838   9.150
 5786POPC   GL120221  27.632  33.762   8.850
 5786POPC   GL220222  27.711  33.755   8.850
 5786POPC   C1A20223  27.641  33.807   8.550
 5786POPC   D2A20224  27.544  33.841   8.250
 5786POPC   C3A20225  27.593  33.819   7.950
 5786POPC   C4A20226  27.631  33.822   7.650
 5786POPC   C1B20227  27.791  33.680   8.550
 5786POPC   C2B20228  27.789  33.709   8.250
 5786POPC   C3B20229  27.779  33.671   7.950
 5786POPC   C4B20230  27.817  33.633   7.650
 5787POPC   NC320231  12.888  40.005   9.450
 5787POPC   PO420232  12.847  40.037   9.150
 5787POPC   GL120233  12.873  39.986   8.850
 5787POPC   GL220234  12.829  39.914   8.850
 5787POPC   C1A20235  12.842  40.000   8.550
 5787POPC   D2A20236  12.835  40.042   8.250
 5787POPC   C3A20237  12.859  39.975   7.950
 5787POPC   C4A20238  12.878  40.032   7.650
 5787POPC   C1B20239  12.794  39.728   8.550
 5787POPC   C2B20240  12.730  39.795   8.250
 5787POPC   C3B20241  12.806  39.778   7.950
 5787POPC   C4B20242  12.804  39.805   7.650
 5788POPC   NC320243  33.811  12.865   9.450
 5788POPC   PO420244  33.811  12.834   9.150
 5788POPC   GL120245  33.818  12.890   8.850
 5788POPC   GL220246  33.925  12.728   8.850
 5788POPC   C1A20247  33.779  12.821   8.550
 5788POPC   D2A20248  33.804  12.853   8.250
 5788POPC   C3A20249  33.784  12.852   7.950
 5788POPC   C4A20250  33.816  12.882   7.650
 5788POPC   C1B20251  33.962  12.701   8.550
 5788POPC   C2B20252  33.953  12.682   8.250
 5788POPC   C3B20253  34.035  12.731   7.950
 5788POPC   C4B20254  33.944  12.702   7.650
 5789POPC   NC320255  34.588  34.604   9.450
 5789POPC   PO420256  34.573  34.562   9.150
 5789POPC   GL120257  34.603  34.549   8.850
 5789POPC   GL220258  34.482  34.714   8.850
 5789POPC   C1A20259  34.614  34.614   8.550
 5789POPC   D2A20260  34.566  34.527   8.250
 5789POPC   C3A20261  34.538  34.594   7.950
 5789POPC   C4A20262  34.547  34.570   7.650
 5789POPC   C1B20263  34.425  34.776   8.550
 5789POPC   C2B20264  34.493  34.792   8.250
 5789POPC   C3B20265  34.444  34.795   7.950
 5789POPC   C4B20266  34.504  34.766   7.650
 5790POPC   NC320267  19.798  14.449   9.450
 5790POPC   PO420268  19.863  14.404   9.150
 5790POPC   GL120269  19.837  14.398   8.850
 5790POPC   GL220270  19.720  14.334   8.850
 5790POPC   C1A20271  19.872  14.374   8.550
 5790POPC   D2A20272  19.788  14.410   8.250
 5790POPC   C3A20273  19.818  14.356   7.950
 5790POPC   C4A20274  19.785  14.432   7.650
 5790POPC   C1B20275  19.616  14.211   8.550
 5790POPC   C2B20276  19.674  14.281   8.250
 5790POPC   C3B20277  19.691  14.282   7.950
 5790POPC   C4B20278  19.675  14.235   7.650
 5791POPC   NC320279  19.804  15.906   9.450
 5791POPC   PO420280  19.874  15.915   9.150
 5791POPC   GL120281  19.805  15.917   8.850
 5791POPC   GL220282  19.775  15.802   8.850
 5791POPC   C1A20283  19.856  15.945   8.550
 5791POPC   D2A20284  19.847  15.949   8.250
 5791POPC   C3A20285  19.874  15.908   7.950
 5791POPC   C4A20286  19.864  15.986   7.650
 5791POPC   C1B20287  19.749  15.734   8.550
 5791POPC   C2B20288  19.722  15.728   8.250
 5791POPC   C3B20289  19.804  15.727   7.950
 5791POPC   C4B20290  19.745  15.681   7.650
 5792POPC   NC320291   1.229  28.400   9.450
 5792POPC   PO420292   1.168  28.412   9.150
 5792POPC   GL120293   1.183  28.373   8.850
 5792POPC   GL220294   1.141  28.350   8.850
 5792POPC   C1A20295   1.206  28.338   8.550
 5792POPC   D2A20296   1.179  28.372   8.250
 5792POPC   C3A20297   1.254  28.328   7.950
 5792POPC   C4A20298   1.177  28.337   7.650
 5792POPC   C1B20299   0.977  28.324   8.550
 5792POPC   C2B20300   0.975  28.329   8.250
 5792POPC   C3B20301   0.977  28.323   7.950
 5792POPC   C4B20302   0.943  28.277   7.650
 5793POPC   NC320303  42.343  17.498   9.450
 5793POPC   PO420304  42.288  17.501   9.150
 5793POPC   GL120305  42.361  17.532   8.850
 5793POPC   GL220306  42.357  17.576   8.850
 5793POPC   C1A20307  42.326  17.494   8.550
 5793POPC   D2A20308  42.285  17.474   8.250
 5793POPC   C3A20309  42.290  17.527   7.950
 5793POPC   C4A20310  42.353  17.504   7.650
 5793POPC   C1B20311  42.403  17.770   8.550
 5793POPC   C2B20312  42.383  17.724   8.250
 5793POPC   C3B20313  42.471  17.771   7.950
 5793POPC   C4B20314  42.441  17.698   7.650
 5794POPC   NC320315   6.635  40.826   9.450
 5794POPC   PO420316   6.664  40.821   9.150
 5794POPC   GL120317   6.658  40.830   8.850
 5794POPC   GL220318   6.763  40.738   8.850
 5794POPC   C1A20319   6.648  40.777   8.550
 5794POPC   D2A20320   6.628  40.813   8.250
 5794POPC   C3A20321   6.617  40.759   7.950
 5794POPC   C4A20322   6.673  40.796   7.650
 5794POPC   C1B20323   6.929  40.774   8.550
 5794POPC   C2B20324   6.864  40.765   8.250
 5794POPC   C3B20325   6.905  40.777   7.950
 5794POPC   C4B20326   6.902  40.776   7.650
 5795POPC   NC320327   5.081  29.114   9.450
 5795POPC   PO420328   5.096  29.095   9.150
 5795POPC   GL120329   5.073  29.164   8.850
 5795POPC   GL220330   5.151  29.244   8.850
 5795POPC   C1A20331   5.096  29.106   8.550
 5795POPC   D2A20332   5.064  29.124   8.250
 5795POPC   C3A20333   5.129  29.095   7.950
 5795POPC   C4A20334   5.050  29.128   7.650
 5795POPC   C1B20335   5.335  29.261   8.550
 5795POPC   C2B20336   5.291  29.283   8.250
 5795POPC   C3B20337   5.292  29.231   7.950
 5795POPC   C4B20338   5.267  29.277   7.650
 5796POPC   NC320339  41.544  32.288   9.450
 5796POPC   PO420340  41.595  32.239   9.150
 5796POPC   GL120341  41.520  32.297   8.850
 5796POPC   GL220342  41.590  32.187   8.850
 5796POPC   C1A20343  41.580  32.275   8.550
 5796POPC   D2A20344  41.565  32.266   8.250
 5796POPC   C3A20345  41.573  32.210   7.950
 5796POPC   C4A20346  41.518  32.257   7.650
 5796POPC   C1B20347  41.716  31.979   8.550
 5796POPC   C2B20348  41.688  32.069   8.250
 5796POPC   C3B20349  41.715  32.016   7.950
 5796POPC   C4B20350  41.686  32.054   7.650
 5797POPC   NC320351  20.570  44.675   9.450
 5797POPC   PO420352  20.652  44.707   9.150
 5797POPC   GL120353  20.579  44.673   8.850
 5797POPC   GL220354  20.492  44.736   8.850
 5797POPC   C1A20355  20.597  44.635   8.550
 5797POPC   D2A20356  20.596  44.683   8.250
 5797POPC   C3A20357  20.646  44.660   7.950
 5797POPC   C4A20358  20.656  44.671   7.650
 5797POPC   C1B20359  20.355  44.800   8.550
 5797POPC   C2B20360  20.370  44.768   8.250
 5797POPC   C3B20361  20.396  44.760   7.950
 5797POPC   C4B20362  20.356  44.749   7.650
 5798POPC   NC320363  22.151  38.454   9.450
 5798POPC   PO420364  22.122  38.426   9.150
 5798POPC   GL120365  22.114  38.505   8.850
 5798POPC   GL220366  22.049  38.396   8.850
 5798POPC   C1A20367  22.114  38.496   8.550
 5798POPC   D2A20368  22.195  38.428   8.250
 5798POPC   C3A20369  22.116  38.413   7.950
 5798POPC   C4A20370  22.136  38.419   7.650
 5798POPC   C1B20371  22.042  38.260   8.550
 5798POPC   C2B20372  22.009  38.226   8.250
 5798POPC   C3B20373  22.020  38.214   7.950
 5798POPC   C4B20374  22.048  38.295   7.650
 5799POPC   NC320375  28.405  29.159   9.450
 5799POPC   PO420376  28.412  29.159   9.150
 5799POPC   GL120377  28.362  29.160   8.850
 5799POPC   GL220378  28.346  29.062   8.850
 5799POPC   C1A20379  28.412  29.148   8.550
 5799POPC   D2A20380  28.341  29.120   8.250
 5799POPC   C3A20381  28.415  29.113   7.950
 5799POPC   C4A20382  28.385  29.194   7.650
 5799POPC   C1B20383  28.299  28.854   8.550
 5799POPC   C2B20384  28.273  28.934   8.250
 5799POPC   C3B20385  28.353  28.876   7.950
 5799POPC   C4B20386  28.351  28.885   7.650
 5800POPC   NC320387  22.171   6.691   9.450
 5800POPC   PO420388  22.115   6.648   9.150
 5800POPC   GL120389  22.114   6.657   8.850
 5800POPC   GL220390  22.080   6.577   8.850
 5800POPC   C1A20391  22.113   6.661   8.550
 5800POPC   D2A20392  22.113   6.609   8.250
 5800POPC   C3A20393  22.120   6.608   7.950
 5800POPC   C4A20394  22.115   6.644   7.650
 5800POPC   C1B20395  21.888   6.551   8.550
 5800POPC   C2B20396  21.934   6.563   8.250
 5800POPC   C3B20397  21.958   6.553   7.950
 5800POPC   C4B20398  21.942   6.544   7.650
 5801POPC   NC320399  10.527  42.325   9.450
 5801POPC   PO420400  10.492  42.359   9.150
 5801POPC   GL120401  10.517  42.331   8.850
 5801POPC   GL220402  10.402  42.290   8.850
 5801POPC   C1A20403  10.540  42.313   8.550
 5801POPC   D2A20404  10.491  42.343   8.250
 5801POPC   C3A20405  10.560  42.340   7.950
 5801POPC   C4A20406  10.558  42.348   7.650
 5801POPC   C1B20407  10.265  42.271   8.550
 5801POPC   C2B20408  10.287  42.225   8.250
 5801POPC   C3B20409  10.261  42.228   7.950
 5801POPC   C4B20410  10.261  42.221   7.650
 5802POPC   NC320411  12.876  28.328   9.450
 5802POPC   PO420412  12.809  28.397   9.150
 5802POPC   GL120413  12.887  28.394   8.850
 5802POPC   GL220414  12.767  28.353   8.850
 5802POPC   C1A20415  12.897  28.387   8.550
 5802POPC   D2A20416  12.860  28.412   8.250
 5802POPC   C3A20417  12.899  28.345   7.950
 5802POPC   C4A20418  12.825  28.415   7.650
 5802POPC   C1B20419  12.663  28.249   8.550
 5802POPC   C2B20420  12.595  28.322   8.250
 5802POPC   C3B20421  12.569  28.310   7.950
 5802POPC   C4B20422  12.586  28.278   7.650
 5803POPC   NC320423  32.988  43.068   9.450
 5803POPC   PO420424  33.045  43.154   9.150
 5803POPC   GL120425  33.070  43.065   8.850
 5803POPC   GL220426  32.909  43.078   8.850
 5803POPC   C1A20427  33.055  43.093   8.550
 5803POPC   D2A20428  32.976  43.119   8.250
 5803POPC   C3A20429  33.045  43.065   7.950
 5803POPC   C4A20430  32.999  43.076   7.650
 5803POPC   C1B20431  32.752  43.051   8.550
 5803POPC   C2B20432  32.765  42.989   8.250
 5803POPC   C3B20433  32.785  43.065   7.950
 5803POPC   C4B20434  32.836  42.994   7.650
 5804POPC   NC320435   8.176  22.899   9.450
 5804POPC   PO420436   8.208  22.918   9.150
 5804POPC   GL120437   8.223  22.892   8.850
 5804POPC   GL220438   8.059  23.005   8.850
 5804POPC   C1A20439   8.150  22.931   8.550
 5804POPC   D2A20440   8.195  22.922   8.250
 5804POPC   C3A20441   8.169  22.985   7.950
 5804POPC   C4A20442   8.246  22.922   7.650
 5804POPC   C1B20443   7.974  23.033   8.550
 5804POPC   C2B20444   8.023  23.096   8.250
 5804POPC   C3B20445   7.993  23.084   7.950
 5804POPC   C4B20446   7.996  23.028   7.650
 5805POPC   NC320447  33.789  36.891   9.450
 5805POPC   PO420448  33.771  36.898   9.150
 5805POPC   GL120449  33.800  36.931   8.850
 5805POPC   GL220450  33.645  36.904   8.850
 5805POPC   C1A20451  33.839  36.858   8.550
 5805POPC   D2A20452  33.765  36.948   8.250
 5805POPC   C3A20453  33.790  36.905   7.950
 5805POPC   C4A20454  33.819  36.861   7.650
 5805POPC   C1B20455  33.558  36.953   8.550
 5805POPC   C2B20456  33.576  36.891   8.250
 5805POPC   C3B20457  33.549  36.930   7.950
 5805POPC   C4B20458  33.562  36.913   7.650
 5806POPC   NC320459  19.077  14.437   9.450
 5806POPC   PO420460  19.107  14.375   9.150
 5806POPC   GL120461  19.103  14.453   8.850
 5806POPC   GL220462  18.989  14.518   8.850
 5806POPC   C1A20463  19.087  14.363   8.550
 5806POPC   D2A20464  19.069  14.387   8.250
 5806POPC   C3A20465  19.019  14.398   7.950
 5806POPC   C4A20466  19.069  14.373   7.650
 5806POPC   C1B20467  18.997  14.652   8.550
 5806POPC   C2B20468  19.004  14.675   8.250
 5806POPC   C3B20469  18.990  14.605   7.950
 5806POPC   C4B20470  18.974  14.604   7.650
 5807POPC   NC320471  15.936  30.700   9.450
 5807POPC   PO420472  15.977  30.666   9.150
 5807POPC   GL120473  15.961  30.689   8.850
 5807POPC   GL220474  16.034  30.834   8.850
 5807POPC   C1A20475  15.951  30.730   8.550
 5807POPC   D2A20476  15.963  30.723   8.250
 5807POPC   C3A20477  15.927  30.705   7.950
 5807POPC   C4A20478  15.933  30.714   7.650
 5807POPC   C1B20479  16.094  30.920   8.550
 5807POPC   C2B20480  16.015  30.886   8.250
 5807POPC   C3B20481  16.029  30.906   7.950
 5807POPC   C4B20482  16.077  30.962   7.650
 5808POPC   NC320483  20.648   2.759   9.450
 5808POPC   PO420484  20.566   2.750   9.150
 5808POPC   GL120485  20.621   2.790   8.850
 5808POPC   GL220486  20.534   2.821   8.850
 5808POPC   C1A20487  20.643   2.765   8.550
 5808POPC   D2A20488  20.657   2.730   8.250
 5808POPC   C3A20489  20.644   2.791   7.950
 5808POPC   C4A20490  20.620   2.759   7.650
 5808POPC   C1B20491  20.407   2.959   8.550
 5808POPC   C2B20492  20.410   2.929   8.250
 5808POPC   C3B20493  20.493   2.958   7.950
 5808POPC   C4B20494  20.443   2.925   7.650
 5809POPC   NC320495  15.949  41.588   9.450
 5809POPC   PO420496  15.908  41.587   9.150
 5809POPC   GL120497  15.993  41.602   8.850
 5809POPC   GL220498  15.965  41.719   8.850
 5809POPC   C1A20499  15.933  41.593   8.550
 5809POPC   D2A20500  15.965  41.520   8.250
 5809POPC   C3A20501  16.004  41.509   7.950
 5809POPC   C4A20502  15.978  41.525   7.650
 5809POPC   C1B20503  16.057  41.779   8.550
 5809POPC   C2B20504  16.044  41.777   8.250
 5809POPC   C3B20505  16.087  41.829   7.950
 5809POPC   C4B20506  16.008  41.759   7.650
 5810POPC   NC320507  26.043  43.081   9.450
 5810POPC   PO420508  26.073  43.107   9.150
 5810POPC   GL120509  25.996  43.155   8.850
 5810POPC   GL220510  26.089  43.244   8.850
 5810POPC   C1A20511  26.076  43.130   8.550
 5810POPC   D2A20512  26.068  43.103   8.250
 5810POPC   C3A20513  26.034  43.068   7.950
 5810POPC   C4A20514  26.059  43.147   7.650
 5810POPC   C1B20515  26.061  43.398   8.550
 5810POPC   C2B20516  26.057  43.314   8.250
 5810POPC   C3B20517  26.112  43.354   7.950
 5810POPC   C4B20518  26.037  43.340   7.650
 5811POPC   NC320519  28.393   8.929   9.450
 5811POPC   PO420520  28.396   8.939   9.150
 5811POPC   GL120521  28.345   8.972   8.850
 5811POPC   GL220522  28.448   8.823   8.850
 5811POPC   C1A20523  28.365   9.015   8.550
 5811POPC   D2A20524  28.389   8.988   8.250
 5811POPC   C3A20525  28.384   8.983   7.950
 5811POPC   C4A20526  28.342   9.011   7.650
 5811POPC   C1B20527  28.486   8.780   8.550
 5811POPC   C2B20528  28.517   8.707   8.250
 5811POPC   C3B20529  28.427   8.698   7.950
 5811POPC   C4B20530  28.428   8.715   7.650
 5812POPC   NC320531   2.803  18.322   9.450
 5812POPC   PO420532   2.762  18.238   9.150
 5812POPC   GL120533   2.757  18.287   8.850
 5812POPC   GL220534   2.720  18.364   8.850
 5812POPC   C1A20535   2.813  18.297   8.550
 5812POPC   D2A20536   2.784  18.271   8.250
 5812POPC   C3A20537   2.803  18.241   7.950
 5812POPC   C4A20538   2.804  18.243   7.650
 5812POPC   C1B20539   2.800  18.510   8.550
 5812POPC   C2B20540   2.705  18.517   8.250
 5812POPC   C3B20541   2.723  18.520   7.950
 5812POPC   C4B20542   2.776  18.556   7.650
 5813POPC   NC320543   8.150   2.786   9.450
 5813POPC   PO420544   8.196   2.798   9.150
 5813POPC   GL120545   8.148   2.727   8.850
 5813POPC   GL220546   8.220   2.904   8.850
 5813POPC   C1A20547   8.228   2.776   8.550
 5813POPC   D2A20548   8.215   2.804   8.250
 5813POPC   C3A20549   8.221   2.738   7.950
 5813POPC   C4A20550   8.183   2.791   7.650
 5813POPC   C1B20551   8.208   3.050   8.550
 5813POPC   C2B20552   8.292   3.005   8.250
 5813POPC   C3B20553   8.220   3.040   7.950
 5813POPC   C4B20554   8.244   3.046   7.650
 5814POPC   NC320555  18.309  15.940   9.450
 5814POPC   PO420556  18.327  15.974   9.150
 5814POPC   GL120557  18.308  15.930   8.850
 5814POPC   GL220558  18.249  15.894   8.850
 5814POPC   C1A20559  18.238  16.001   8.550
 5814POPC   D2A20560  18.280  15.973   8.250
 5814POPC   C3A20561  18.288  15.990   7.950
 5814POPC   C4A20562  18.306  15.908   7.650
 5814POPC   C1B20563  18.105  15.780   8.550
 5814POPC   C2B20564  18.119  15.804   8.250
 5814POPC   C3B20565  18.117  15.737   7.950
 5814POPC   C4B20566  18.123  15.734   7.650
 5815POPC   NC320567  11.282   5.869   9.450
 5815POPC   PO420568  11.302   5.857   9.150
 5815POPC   GL120569  11.318   5.880   8.850
 5815POPC   GL220570  11.210   5.901   8.850
 5815POPC   C1A20571  11.320   5.825   8.550
 5815POPC   D2A20572  11.260   5.887   8.250
 5815POPC   C3A20573  11.269   5.904   7.950
 5815POPC   C4A20574  11.275   5.889   7.650
 5815POPC   C1B20575  11.051   5.954   8.550
 5815POPC   C2B20576  11.097   5.920   8.250
 5815POPC   C3B20577  11.102   5.865   7.950
 5815POPC   C4B20578  11.022   5.873   7.650
 5816POPC   NC320579  31.491  31.464   9.450
 5816POPC   PO420580  31.440  31.477   9.150
 5816POPC   GL120581  31.478  31.516   8.850
 5816POPC   GL220582  31.436  31.395   8.850
 5816POPC   C1A20583  31.518  31.448   8.550
 5816POPC   D2A20584  31.462  31.519   8.250
 5816POPC   C3A20585  31.473  31.426   7.950
 5816POPC   C4A20586  31.520  31.470   7.650
 5816POPC   C1B20587  31.345  31.244   8.550
 5816POPC   C2B20588  31.347  31.289   8.250
 5816POPC   C3B20589  31.349  31.273   7.950
 5816POPC   C4B20590  31.314  31.241   7.650
 5817POPC   NC320591  26.088   7.411   9.450
 5817POPC   PO420592  26.011   7.412   9.150
 5817POPC   GL120593  26.007   7.375   8.850
 5817POPC   GL220594  26.082   7.497   8.850
 5817POPC   C1A20595  26.000   7.459   8.550
 5817POPC   D2A20596  26.062   7.375   8.250
 5817POPC   C3A20597  26.085   7.413   7.950
 5817POPC   C4A20598  26.024   7.383   7.650
 5817POPC   C1B20599  26.066   7.654   8.550
 5817POPC   C2B20600  26.113   7.645   8.250
 5817POPC   C3B20601  26.086   7.676   7.950
 5817POPC   C4B20602  26.096   7.645   7.650
 5818POPC   NC320603  30.698  10.487   9.450
 5818POPC   PO420604  30.688  10.543   9.150
 5818POPC   GL120605  30.683  10.573   8.850
 5818POPC   GL220606  30.621  10.642   8.850
 5818POPC   C1A20607  30.694  10.504   8.550
 5818POPC   D2A20608  30.656  10.573   8.250
 5818POPC   C3A20609  30.711  10.539   7.950
 5818POPC   C4A20610  30.696  10.494   7.650
 5818POPC   C1B20611  30.622  10.786   8.550
 5818POPC   C2B20612  30.559  10.734   8.250
 5818POPC   C3B20613  30.559  10.753   7.950
 5818POPC   C4B20614  30.622  10.759   7.650
 5819POPC   NC320615  19.882   9.734   9.450
 5819POPC   PO420616  19.785   9.748   9.150
 5819POPC   GL120617  19.787   9.725   8.850
 5819POPC   GL220618  19.807   9.820   8.850
 5819POPC   C1A20619  19.838   9.764   8.550
 5819POPC   D2A20620  19.806   9.738   8.250
 5819POPC   C3A20621  19.884   9.758   7.950
 5819POPC   C4A20622  19.868   9.706   7.650
 5819POPC   C1B20623  19.734   9.968   8.550
 5819POPC   C2B20624  19.708   9.957   8.250
 5819POPC   C3B20625  19.721  10.013   7.950
 5819POPC   C4B20626  19.736   9.950   7.650
 5820POPC   NC320627  33.040  26.057   9.450
 5820POPC   PO420628  33.007  26.054   9.150
 5820POPC   GL120629  32.996  26.009   8.850
 5820POPC   GL220630  33.176  25.988   8.850
 5820POPC   C1A20631  33.014  26.046   8.550
 5820POPC   D2A20632  33.042  26.034   8.250
 5820POPC   C3A20633  33.050  26.059   7.950
 5820POPC   C4A20634  33.023  26.082   7.650
 5820POPC   C1B20635  33.283  26.030   8.550
 5820POPC   C2B20636  33.272  25.984   8.250
 5820POPC   C3B20637  33.321  25.985   7.950
 5820POPC   C4B20638  33.255  25.983   7.650
 5821POPC   NC320639  23.689  16.722   9.450
 5821POPC   PO420640  23.716  16.744   9.150
 5821POPC   GL120641  23.679  16.731   8.850
 5821POPC   GL220642  23.663  16.819   8.850
 5821POPC   C1A20643  23.711  16.739   8.550
 5821POPC   D2A20644  23.744  16.774   8.250
 5821POPC   C3A20645  23.725  16.754   7.950
 5821POPC   C4A20646  23.664  16.725   7.650
 5821POPC   C1B20647  23.636  16.994   8.550
 5821POPC   C2B20648  23.636  17.010   8.250
 5821POPC   C3B20649  23.583  17.003   7.950
 5821POPC   C4B20650  23.580  16.977   7.650
 5822POPC   NC320651  27.568  15.129   9.450
 5822POPC   PO420652  27.549  15.185   9.150
 5822POPC   GL120653  27.549  15.183   8.850
 5822POPC   GL220654  27.441  15.133   8.850
 5822POPC   C1A20655  27.630  15.198   8.550
 5822POPC   D2A20656  27.595  15.171   8.250
 5822POPC   C3A20657  27.615  15.137   7.950
 5822POPC   C4A20658  27.582  15.175   7.650
 5822POPC   C1B20659  27.413  15.047   8.550
 5822POPC   C2B20660  27.372  15.028   8.250
 5822POPC   C3B20661  27.362  15.076   7.950
 5822POPC   C4B20662  27.336  15.035   7.650
 5823POPC   NC320663  36.148  26.833   9.450
 5823POPC   PO420664  36.130  26.815   9.150
 5823POPC   GL120665  36.126  26.854   8.850
 5823POPC   GL220666  36.112  26.937   8.850
 5823POPC   C1A20667  36.108  26.840   8.550
 5823POPC   D2A20668  36.162  26.831   8.250
 5823POPC   C3A20669  36.123  26.793   7.950
 5823POPC   C4A20670  36.107  26.767   7.650
 5823POPC   C1B20671  36.148  27.028   8.550
 5823POPC   C2B20672  36.138  27.042   8.250
 5823POPC   C3B20673  36.147  27.067   7.950
 5823POPC   C4B20674  36.137  27.031   7.650
 5824POPC   NC320675   8.171  11.328   9.450
 5824POPC   PO420676   8.240  11.331   9.150
 5824POPC   GL120677   8.219  11.347   8.850
 5824POPC   GL220678   8.289  11.413   8.850
 5824POPC   C1A20679   8.244  11.321   8.550
 5824POPC   D2A20680   8.210  11.279   8.250
 5824POPC   C3A20681   8.171  11.252   7.950
 5824POPC   C4A20682   8.206  11.259   7.650
 5824POPC   C1B20683   8.375  11.449   8.550
 5824POPC   C2B20684   8.412  11.457   8.250
 5824POPC   C3B20685   8.354  11.488   7.950
 5824POPC   C4B20686   8.357  11.505   7.650
 5825POPC   NC320687  29.952   6.642   9.450
 5825POPC   PO420688  29.942   6.603   9.150
 5825POPC   GL120689  29.963   6.622   8.850
 5825POPC   GL220690  29.811   6.582   8.850
 5825POPC   C1A20691  29.891   6.646   8.550
 5825POPC   D2A20692  29.925   6.623   8.250
 5825POPC   C3A20693  29.893   6.609   7.950
 5825POPC   C4A20694  29.918   6.655   7.650
 5825POPC   C1B20695  29.711   6.529   8.550
 5825POPC   C2B20696  29.646   6.512   8.250
 5825POPC   C3B20697  29.695   6.550   7.950
 5825POPC   C4B20698  29.686   6.512   7.650
 5826POPC   NC320699  27.563  14.388   9.450
 5826POPC   PO420700  27.554  14.387   9.150
 5826POPC   GL120701  27.613  14.431   8.850
 5826POPC   GL220702  27.706  14.351   8.850
 5826POPC   C1A20703  27.607  14.442   8.550
 5826POPC   D2A20704  27.626  14.393   8.250
 5826POPC   C3A20705  27.553  14.393   7.950
 5826POPC   C4A20706  27.560  14.421   7.650
 5826POPC   C1B20707  27.796  14.376   8.550
 5826POPC   C2B20708  27.885  14.335   8.250
 5826POPC   C3B20709  27.871  14.395   7.950
 5826POPC   C4B20710  27.811  14.358   7.650
 5827POPC   NC320711  19.842  43.865   9.450
 5827POPC   PO420712  19.846  43.858   9.150
 5827POPC   GL120713  19.803  43.845   8.850
 5827POPC   GL220714  19.933  43.752   8.850
 5827POPC   C1A20715  19.808  43.916   8.550
 5827POPC   D2A20716  19.812  43.885   8.250
 5827POPC   C3A20717  19.817  43.908   7.950
 5827POPC   C4A20718  19.802  43.837   7.650
 5827POPC   C1B20719  20.002  43.722   8.550
 5827POPC   C2B20720  20.060  43.678   8.250
 5827POPC   C3B20721  19.970  43.682   7.950
 5827POPC   C4B20722  20.009  43.740   7.650
 5828POPC   NC320723  28.396  16.757   9.450
 5828POPC   PO420724  28.356  16.765   9.150
 5828POPC   GL120725  28.356  16.702   8.850
 5828POPC   GL220726  28.259  16.738   8.850
 5828POPC   C1A20727  28.377  16.681   8.550
 5828POPC   D2A20728  28.387  16.768   8.250
 5828POPC   C3A20729  28.380  16.703   7.950
 5828POPC   C4A20730  28.377  16.759   7.650
 5828POPC   C1B20731  28.128  16.661   8.550
 5828POPC   C2B20732  28.103  16.659   8.250
 5828POPC   C3B20733  28.162  16.648   7.950
 5828POPC   C4B20734  28.149  16.678   7.650
 5829POPC   NC320735   9.012   9.783   9.450
 5829POPC   PO420736   9.016   9.742   9.150
 5829POPC   GL120737   8.961   9.707   8.850
 5829POPC   GL220738   8.958   9.885   8.850
 5829POPC   C1A20739   8.969   9.750   8.550
 5829POPC   D2A20740   9.014   9.720   8.250
 5829POPC   C3A20741   8.999   9.701   7.950
 5829POPC   C4A20742   9.013   9.761   7.650
 5829POPC   C1B20743   9.020  10.025   8.550
 5829POPC   C2B20744   9.003  10.006   8.250
 5829POPC   C3B20745   8.978   9.968   7.950
 5829POPC   C4B20746   9.010   9.974   7.650
 5830POPC   NC320747  43.934  13.632   9.450
 5830POPC   PO420748  43.912  13.609   9.150
 5830POPC   GL120749  43.932  13.642   8.850
 5830POPC   GL220750  43.723  13.683   8.850
 5830POPC   C1A20751  43.911  13.584   8.550
 5830POPC   D2A20752  43.873  13.612   8.250
 5830POPC   C3A20753  43.890  13.644   7.950
 5830POPC   C4A20754  43.839  13.629   7.650
 5830POPC   C1B20755  43.675  13.748   8.550
 5830POPC   C2B20756  43.667  13.739   8.250
 5830POPC   C3B20757  43.661  13.682   7.950
 5830POPC   C4B20758  43.684  13.684   7.650
 5831POPC   NC320759   0.414  26.076   9.450
 5831POPC   PO420760   0.423  26.077   9.150
 5831POPC   GL120761   0.487  26.036   8.850
 5831POPC   GL220762   0.483  26.185   8.850
 5831POPC   C1A20763   0.465  26.024   8.550
 5831POPC   D2A20764   0.423  26.085   8.250
 5831POPC   C3A20765   0.458  26.033   7.950
 5831POPC   C4A20766   0.441  26.012   7.650
 5831POPC   C1B20767   0.559  26.238   8.550
 5831POPC   C2B20768   0.601  26.235   8.250
 5831POPC   C3B20769   0.572  26.238   7.950
 5831POPC   C4B20770   0.618  26.257   7.650
 5832POPC   NC320771  30.723  26.780   9.450
 5832POPC   PO420772  30.679  26.781   9.150
 5832POPC   GL120773  30.658  26.850   8.850
 5832POPC   GL220774  30.635  26.878   8.850
 5832POPC   C1A20775  30.658  26.801   8.550
 5832POPC   D2A20776  30.738  26.867   8.250
 5832POPC   C3A20777  30.732  26.771   7.950
 5832POPC   C4A20778  30.676  26.855   7.650
 5832POPC   C1B20779  30.479  26.953   8.550
 5832POPC   C2B20780  30.456  26.936   8.250
 5832POPC   C3B20781  30.509  26.926   7.950
 5832POPC   C4B20782  30.458  26.939   7.650
 5833POPC   NC320783  22.986  33.850   9.450
 5833POPC   PO420784  22.946  33.774   9.150
 5833POPC   GL120785  22.897  33.796   8.850
 5833POPC   GL220786  22.828  33.910   8.850
 5833POPC   C1A20787  22.960  33.778   8.550
 5833POPC   D2A20788  22.970  33.770   8.250
 5833POPC   C3A20789  22.964  33.769   7.950
 5833POPC   C4A20790  22.930  33.809   7.650
 5833POPC   C1B20791  22.731  33.984   8.550
 5833POPC   C2B20792  22.793  33.987   8.250
 5833POPC   C3B20793  22.791  33.936   7.950
 5833POPC   C4B20794  22.734  33.951   7.650
 5834POPC   NC320795  12.870   3.568   9.450
 5834POPC   PO420796  12.862   3.544   9.150
 5834POPC   GL120797  12.896   3.515   8.850
 5834POPC   GL220798  12.899   3.660   8.850
 5834POPC   C1A20799  12.833   3.522   8.550
 5834POPC   D2A20800  12.890   3.547   8.250
 5834POPC   C3A20801  12.814   3.521   7.950
 5834POPC   C4A20802  12.819   3.531   7.650
 5834POPC   C1B20803  12.899   3.789   8.550
 5834POPC   C2B20804  12.898   3.797   8.250
 5834POPC   C3B20805  12.948   3.815   7.950
 5834POPC   C4B20806  12.944   3.788   7.650
 5835POPC   NC320807  23.671  25.266   9.450
 5835POPC   PO420808  23.716  25.235   9.150
 5835POPC   GL120809  23.686  25.239   8.850
 5835POPC   GL220810  23.826  25.154   8.850
 5835POPC   C1A20811  23.752  25.217   8.550
 5835POPC   D2A20812  23.668  25.250   8.250
 5835POPC   C3A20813  23.671  25.274   7.950
 5835POPC   C4A20814  23.725  25.226   7.650
 5835POPC   C1B20815  23.959  25.087   8.550
 5835POPC   C2B20816  23.943  25.147   8.250
 5835POPC   C3B20817  23.948  25.114   7.950
 5835POPC   C4B20818  23.881  25.104   7.650
 5836POPC   NC320819  42.294   4.279   9.450
 5836POPC   PO420820  42.326   4.357   9.150
 5836POPC   GL120821  42.322   4.356   8.850
 5836POPC   GL220822  42.463   4.362   8.850
 5836POPC   C1A20823  42.353   4.307   8.550
 5836POPC   D2A20824  42.322   4.323   8.250
 5836POPC   C3A20825  42.369   4.294   7.950
 5836POPC   C4A20826  42.384   4.289   7.650
 5836POPC   C1B20827  42.528   4.385   8.550
 5836POPC   C2B20828  42.606   4.345   8.250
 5836POPC   C3B20829  42.580   4.364   7.950
 5836POPC   C4B20830  42.625   4.405   7.650
 5837POPC   NC320831  33.843  14.358   9.450
 5837POPC   PO420832  33.826  14.449   9.150
 5837POPC   GL120833  33.753  14.359   8.850
 5837POPC   GL220834  33.704  14.323   8.850
 5837POPC   C1A20835  33.848  14.387   8.550
 5837POPC   D2A20836  33.829  14.434   8.250
 5837POPC   C3A20837  33.806  14.365   7.950
 5837POPC   C4A20838  33.770  14.404   7.650
 5837POPC   C1B20839  33.631  14.287   8.550
 5837POPC   C2B20840  33.577  14.253   8.250
 5837POPC   C3B20841  33.608  14.216   7.950
 5837POPC   C4B20842  33.579  14.246   7.650
 5838POPC   NC320843  19.074  10.533   9.450
 5838POPC   PO420844  19.027  10.529   9.150
 5838POPC   GL120845  19.098  10.492   8.850
 5838POPC   GL220846  18.940  10.539   8.850
 5838POPC   C1A20847  19.029  10.491   8.550
 5838POPC   D2A20848  19.066  10.531   8.250
 5838POPC   C3A20849  19.015  10.499   7.950
 5838POPC   C4A20850  19.042  10.481   7.650
 5838POPC   C1B20851  18.797  10.568   8.550
 5838POPC   C2B20852  18.798  10.556   8.250
 5838POPC   C3B20853  18.809  10.592   7.950
 5838POPC   C4B20854  18.785  10.568   7.650
 5839POPC   NC320855  37.697   2.725   9.450
 5839POPC   PO420856  37.723   2.776   9.150
 5839POPC   GL120857  37.695   2.775   8.850
 5839POPC   GL220858  37.702   2.610   8.850
 5839POPC   C1A20859  37.638   2.770   8.550
 5839POPC   D2A20860  37.664   2.801   8.250
 5839POPC   C3A20861  37.679   2.726   7.950
 5839POPC   C4A20862  37.646   2.754   7.650
 5839POPC   C1B20863  37.712   2.514   8.550
 5839POPC   C2B20864  37.708   2.551   8.250
 5839POPC   C3B20865  37.693   2.545   7.950
 5839POPC   C4B20866  37.667   2.500   7.650
 5840POPC   NC320867   9.706  38.488   9.450
 5840POPC   PO420868   9.714  38.464   9.150
 5840POPC   GL120869   9.763  38.421   8.850
 5840POPC   GL220870   9.847  38.418   8.850
 5840POPC   C1A20871   9.710  38.433   8.550
 5840POPC   D2A20872   9.767  38.428   8.250
 5840POPC   C3A20873   9.724  38.466   7.950
 5840POPC   C4A20874   9.727  38.483   7.650
 5840POPC   C1B20875   9.934  38.358   8.550
 5840POPC   C2B20876   9.937  38.272   8.250
 5840POPC   C3B20877   9.970  38.269   7.950
 5840POPC   C4B20878   9.916  38.327   7.650
 5841POPC   NC320879  19.062   4.287   9.450
 5841POPC   PO420880  19.049   4.344   9.150
 5841POPC   GL120881  19.040   4.355   8.850
 5841POPC   GL220882  19.028   4.419   8.850
 5841POPC   C1A20883  19.045   4.299   8.550
 5841POPC   D2A20884  19.047   4.357   8.250
 5841POPC   C3A20885  19.022   4.336   7.950
 5841POPC   C4A20886  19.020   4.358   7.650
 5841POPC   C1B20887  18.969   4.561   8.550
 5841POPC   C2B20888  19.040   4.564   8.250
 5841POPC   C3B20889  19.017   4.568   7.950
 5841POPC   C4B20890  18.950   4.538   7.650
 5842POPC   NC320891  25.242  43.126   9.450
 5842POPC   PO420892  25.312  43.110   9.150
 5842POPC   GL120893  25.280  43.073   8.850
 5842POPC   GL220894  25.159  42.960   8.850
 5842POPC   C1A20895  25.232  43.070   8.550
 5842POPC   D2A20896  25.257  43.107   8.250
 5842POPC   C3A20897  25.291  43.092   7.950
 5842POPC   C4A20898  25.307  43.110   7.650
 5842POPC   C1B20899  25.165  42.880   8.550
 5842POPC   C2B20900  25.151  42.869   8.250
 5842POPC   C3B20901  25.147  42.921   7.950
 5842POPC   C4B20902  25.101  42.842   7.650
 5843POPC   NC320903  33.771  43.142   9.450
 5843POPC   PO420904  33.823  43.064   9.150
 5843POPC   GL120905  33.838  43.125   8.850
 5843POPC   GL220906  33.670  43.165   8.850
 5843POPC   C1A20907  33.809  43.081   8.550
 5843POPC   D2A20908  33.753  43.101   8.250
 5843POPC   C3A20909  33.768  43.157   7.950
 5843POPC   C4A20910  33.777  43.092   7.650
 5843POPC   C1B20911  33.665  43.323   8.550
 5843POPC   C2B20912  33.651  43.259   8.250
 5843POPC   C3B20913  33.651  43.295   7.950
 5843POPC   C4B20914  33.614  43.318   7.650
 5844POPC   NC320915  21.415   0.418   9.450
 5844POPC   PO420916  21.421   0.464   9.150
 5844POPC   GL120917  21.388   0.398   8.850
 5844POPC   GL220918  21.498   0.519   8.850
 5844POPC   C1A20919  21.372   0.392   8.550
 5844POPC   D2A20920  21.410   0.395   8.250
 5844POPC   C3A20921  21.371   0.460   7.950
 5844POPC   C4A20922  21.343   0.468   7.650
 5844POPC   C1B20923  21.553   0.542   8.550
 5844POPC   C2B20924  21.602   0.616   8.250
 5844POPC   C3B20925  21.538   0.627   7.950
 5844POPC   C4B20926  21.583   0.593   7.650
 5845POPC   NC320927  20.623  12.104   9.450
 5845POPC   PO420928  20.634  12.039   9.150
 5845POPC   GL120929  20.655  12.037   8.850
 5845POPC   GL220930  20.520  12.127   8.850
 5845POPC   C1A20931  20.587  12.045   8.550
 5845POPC   D2A20932  20.591  12.068   8.250
 5845POPC   C3A20933  20.575  12.111   7.950
 5845POPC   C4A20934  20.583  12.039   7.650
 5845POPC   C1B20935  20.321  12.152   8.550
 5845POPC   C2B20936  20.361  12.068   8.250
 5845POPC   C3B20937  20.382  12.127   7.950
 5845POPC   C4B20938  20.400  12.079   7.650
 5846POPC   NC320939  17.459   5.844   9.450
 5846POPC   PO420940  17.506   5.872   9.150
 5846POPC   GL120941  17.510   5.828   8.850
 5846POPC   GL220942  17.607   5.787   8.850
 5846POPC   C1A20943  17.537   5.917   8.550
 5846POPC   D2A20944  17.513   5.860   8.250
 5846POPC   C3A20945  17.556   5.839   7.950
 5846POPC   C4A20946  17.521   5.869   7.650
 5846POPC   C1B20947  17.686   5.690   8.550
 5846POPC   C2B20948  17.648   5.700   8.250
 5846POPC   C3B20949  17.642   5.654   7.950
 5846POPC   C4B20950  17.602   5.653   7.650
 5847POPC   NC320951  26.025   0.447   9.450
 5847POPC   PO420952  26.003   0.454   9.150
 5847POPC   GL120953  26.053   0.455   8.850
 5847POPC   GL220954  26.123   0.316   8.850
 5847POPC   C1A20955  26.031   0.406   8.550
 5847POPC   D2A20956  26.005   0.419   8.250
 5847POPC   C3A20957  26.013   0.394   7.950
 5847POPC   C4A20958  26.063   0.419   7.650
 5847POPC   C1B20959  26.254   0.274   8.550
 5847POPC   C2B20960  26.182   0.247   8.250
 5847POPC   C3B20961  26.205   0.302   7.950
 5847POPC   C4B20962  26.235   0.304   7.650
 5848POPC   NC320963  44.622  44.687   9.450
 5848POPC   PO420964  44.687  44.648   9.150
 5848POPC   GL120965  44.670  44.642   8.850
 5848POPC   GL220966  44.642  44.584   8.850
 5848POPC   C1A20967  44.634  44.646   8.550
 5848POPC   D2A20968  44.632  44.612   8.250
 5848POPC   C3A20969  44.673  44.696   7.950
 5848POPC   C4A20970  44.624  44.678   7.650
 5848POPC   C1B20971  44.673  44.404   8.550
 5848POPC   C2B20972  44.699  44.432   8.250
 5848POPC   C3B20973  44.680  44.431   7.950
 5848POPC   C4B20974  44.677  44.449   7.650
 5849POPC   NC320975   5.878  12.126   9.450
 5849POPC   PO420976   5.906  12.032   9.150
 5849POPC   GL120977   5.867  12.107   8.850
 5849POPC   GL220978   6.014  12.134   8.850
 5849POPC   C1A20979   5.880  12.072   8.550
 5849POPC   D2A20980   5.839  12.093   8.250
 5849POPC   C3A20981   5.882  12.062   7.950
 5849POPC   C4A20982   5.848  12.082   7.650
 5849POPC   C1B20983   6.120  12.082   8.550
 5849POPC   C2B20984   6.074  12.094   8.250
 5849POPC   C3B20985   6.140  12.139   7.950
 5849POPC   C4B20986   6.089  12.162   7.650
 5850POPC   NC320987  27.595  41.514   9.450
 5850POPC   PO420988  27.634  41.584   9.150
 5850POPC   GL120989  27.578  41.540   8.850
 5850POPC   GL220990  27.663  41.665   8.850
 5850POPC   C1A20991  27.614  41.586   8.550
 5850POPC   D2A20992  27.578  41.585   8.250
 5850POPC   C3A20993  27.615  41.580   7.950
 5850POPC   C4A20994  27.641  41.546   7.650
 5850POPC   C1B20995  27.740  41.684   8.550
 5850POPC   C2B20996  27.795  41.703   8.250
 5850POPC   C3B20997  27.790  41.728   7.950
 5850POPC   C4B20998  27.749  41.762   7.650
 5851POPC   NC320999  21.404  24.466   9.450
 5851POPC   PO421000  21.399  24.474   9.150
 5851POPC   GL121001  21.356  24.473   8.850
 5851POPC   GL221002  21.488  24.405   8.850
 5851POPC   C1A21003  21.434  24.538   8.550
 5851POPC   D2A21004  21.422  24.525   8.250
 5851POPC   C3A21005  21.391  24.468   7.950
 5851POPC   C4A21006  21.393  24.451   7.650
 5851POPC   C1B21007  21.523  24.324   8.550
 5851POPC   C2B21008  21.599  24.294   8.250
 5851POPC   C3B21009  21.576  24.315   7.950
 5851POPC   C4B21010  21.532  24.340   7.650
 5852POPC   NC321011  24.469  36.920   9.450
 5852POPC   PO421012  24.485  36.925   9.150
 5852POPC   GL121013  24.522  36.914   8.850
 5852POPC   GL221014  24.520  36.822   8.850
 5852POPC   C1A21015  24.456  36.861   8.550
 5852POPC   D2A21016  24.486  36.911   8.250
 5852POPC   C3A21017  24.520  36.928   7.950
 5852POPC   C4A21018  24.500  36.930   7.650
 5852POPC   C1B21019  24.561  36.632   8.550
 5852POPC   C2B21020  24.588  36.681   8.250
 5852POPC   C3B21021  24.511  36.615   7.950
 5852POPC   C4B21022  24.507  36.694   7.650
 5853POPC   NC321023   2.781  33.797   9.450
 5853POPC   PO421024   2.776  33.791   9.150
 5853POPC   GL121025   2.808  33.763   8.850
 5853POPC   GL221026   2.874  33.767   8.850
 5853POPC   C1A21027   2.752  33.830   8.550
 5853POPC   D2A21028   2.759  33.801   8.250
 5853POPC   C3A21029   2.749  33.782   7.950
 5853POPC   C4A21030   2.779  33.762   7.650
 5853POPC   C1B21031   3.038  33.858   8.550
 5853POPC   C2B21032   2.975  33.803   8.250
 5853POPC   C3B21033   3.003  33.821   7.950
 5853POPC   C4B21034   3.024  33.819   7.650
 5854POPC   NC321035  32.285   7.460   9.450
 5854POPC   PO421036  32.283   7.450   9.150
 5854POPC   GL121037  32.275   7.418   8.850
 5854POPC   GL221038  32.096   7.392   8.850
 5854POPC   C1A21039  32.200   7.435   8.550
 5854POPC   D2A21040  32.287   7.431   8.250
 5854POPC   C3A21041  32.221   7.384   7.950
 5854POPC   C4A21042  32.199   7.471   7.650
 5854POPC   C1B21043  31.953   7.448   8.550
 5854POPC   C2B21044  31.978   7.468   8.250
 5854POPC   C3B21045  31.968   7.389   7.950
 5854POPC   C4B21046  32.038   7.452   7.650
 5855POPC   NC321047   1.197  27.641   9.450
 5855POPC   PO421048   1.216  27.638   9.150
 5855POPC   GL121049   1.170  27.607   8.850
 5855POPC   GL221050   1.135  27.517   8.850
 5855POPC   C1A21051   1.240  27.615   8.550
 5855POPC   D2A21052   1.260  27.626   8.250
 5855POPC   C3A21053   1.236  27.565   7.950
 5855POPC   C4A21054   1.194  27.602   7.650
 5855POPC   C1B21055   1.100  27.391   8.550
 5855POPC   C2B21056   1.127  27.326   8.250
 5855POPC   C3B21057   1.083  27.338   7.950
 5855POPC   C4B21058   1.067  27.358   7.650
 5856POPC   NC321059  38.408  30.726   9.450
 5856POPC   PO421060  38.414  30.700   9.150
 5856POPC   GL121061  38.491  30.660   8.850
 5856POPC   GL221062  38.446  30.792   8.850
 5856POPC   C1A21063  38.499  30.668   8.550
 5856POPC   D2A21064  38.487  30.740   8.250
 5856POPC   C3A21065  38.443  30.699   7.950
 5856POPC   C4A21066  38.504  30.665   7.650
 5856POPC   C1B21067  38.555  30.984   8.550
 5856POPC   C2B21068  38.560  30.984   8.250
 5856POPC   C3B21069  38.488  30.962   7.950
 5856POPC   C4B21070  38.520  30.931   7.650
 5857POPC   NC321071  15.132   2.750   9.450
 5857POPC   PO421072  15.189   2.742   9.150
 5857POPC   GL121073  15.223   2.771   8.850
 5857POPC   GL221074  15.272   2.747   8.850
 5857POPC   C1A21075  15.221   2.809   8.550
 5857POPC   D2A21076  15.227   2.764   8.250
 5857POPC   C3A21077  15.172   2.729   7.950
 5857POPC   C4A21078  15.151   2.797   7.650
 5857POPC   C1B21079  15.413   2.791   8.550
 5857POPC   C2B21080  15.393   2.846   8.250
 5857POPC   C3B21081  15.439   2.782   7.950
 5857POPC   C4B21082  15.388   2.761   7.650
 5858POPC   NC321083  34.594  21.341   9.450
 5858POPC   PO421084  34.570  21.340   9.150
 5858POPC   GL121085  34.625  21.381   8.850
 5858POPC   GL221086  34.636  21.457   8.850
 5858POPC   C1A21087  34.591  21.423   8.550
 5858POPC   D2A21088  34.621  21.390   8.250
 5858POPC   C3A21089  34.607  21.357   7.950
 5858POPC   C4A21090  34.596  21.351   7.650
 5858POPC   C1B21091  34.720  21.554   8.550
 5858POPC   C2B21092  34.661  21.651   8.250
 5858POPC   C3B21093  34.667  21.595   7.950
 5858POPC   C4B21094  34.738  21.568   7.650
 5859POPC   NC321095  12.123  27.579   9.450
 5859POPC   PO421096  12.038  27.639   9.150
 5859POPC   GL121097  12.093  27.607   8.850
 5859POPC   GL221098  12.105  27.700   8.850
 5859POPC   C1A21099  12.108  27.629   8.550
 5859POPC   D2A21100  12.104  27.611   8.250
 5859POPC   C3A21101  12.054  27.610   7.950
 5859POPC   C4A21102  12.031  27.607   7.650
 5859POPC   C1B21103  12.218  27.793   8.550
 5859POPC   C2B21104  12.171  27.842   8.250
 5859POPC   C3B21105  12.160  27.835   7.950
 5859POPC   C4B21106  12.157  27.845   7.650
 5860POPC   NC321107   8.984   8.181   9.450
 5860POPC   PO421108   9.022   8.159   9.150
 5860POPC   GL121109   8.923   8.224   8.850
 5860POPC   GL221110   9.043   8.286   8.850
 5860POPC   C1A21111   8.983   8.183   8.550
 5860POPC   D2A21112   9.005   8.150   8.250
 5860POPC   C3A21113   8.942   8.242   7.950
 5860POPC   C4A21114   8.949   8.243   7.650
 5860POPC   C1B21115   9.086   8.401   8.550
 5860POPC   C2B21116   9.085   8.407   8.250
 5860POPC   C3B21117   9.052   8.384   7.950
 5860POPC   C4B21118   9.044   8.368   7.650
 5861POPC   NC321119  16.703  29.143   9.450
 5861POPC   PO421120  16.741  29.119   9.150
 5861POPC   GL121121  16.763  29.177   8.850
 5861POPC   GL221122  16.897  29.182   8.850
 5861POPC   C1A21123  16.736  29.128   8.550
 5861POPC   D2A21124  16.733  29.179   8.250
 5861POPC   C3A21125  16.725  29.178   7.950
 5861POPC   C4A21126  16.743  29.171   7.650
 5861POPC   C1B21127  17.026  29.173   8.550
 5861POPC   C2B21128  16.950  29.162   8.250
 5861POPC   C3B21129  16.982  29.201   7.950
 5861POPC   C4B21130  16.973  29.135   7.650
 5862POPC   NC321131  44.665  33.825   9.450
 5862POPC   PO421132  44.697  33.803   9.150
 5862POPC   GL121133  44.667  33.792   8.850
 5862POPC   GL221134  44.570  33.919   8.850
 5862POPC   C1A21135  44.678  33.785   8.550
 5862POPC   D2A21136  44.703  33.811   8.250
 5862POPC   C3A21137  44.660  33.803   7.950
 5862POPC   C4A21138  44.649  33.846   7.650
 5862POPC   C1B21139  44.526  33.981   8.550
 5862POPC   C2B21140  44.598  34.013   8.250
 5862POPC   C3B21141  44.516  33.990   7.950
 5862POPC   C4B21142  44.555  34.073   7.650
 5863POPC   NC321143   9.792  40.780   9.450
 5863POPC   PO421144   9.745  40.805   9.150
 5863POPC   GL121145   9.796  40.807   8.850
 5863POPC   GL221146   9.762  40.885   8.850
 5863POPC   C1A21147   9.795  40.758   8.550
 5863POPC   D2A21148   9.789  40.811   8.250
 5863POPC   C3A21149   9.782  40.801   7.950
 5863POPC   C4A21150   9.750  40.824   7.650
 5863POPC   C1B21151   9.753  41.063   8.550
 5863POPC   C2B21152   9.742  41.001   8.250
 5863POPC   C3B21153   9.658  41.063   7.950
 5863POPC   C4B21154   9.658  41.044   7.650
 5864POPC   NC321155  12.842  42.291   9.450
 5864POPC   PO421156  12.858  42.322   9.150
 5864POPC   GL121157  12.860  42.379   8.850
 5864POPC   GL221158  12.958  42.359   8.850
 5864POPC   C1A21159  12.864  42.307   8.550
 5864POPC   D2A21160  12.842  42.325   8.250
 5864POPC   C3A21161  12.876  42.354   7.950
 5864POPC   C4A21162  12.876  42.382   7.650
 5864POPC   C1B21163  13.092  42.423   8.550
 5864POPC   C2B21164  13.062  42.429   8.250
 5864POPC   C3B21165  13.083  42.409   7.950
 5864POPC   C4B21166  13.075  42.354   7.650
 5865POPC   NC321167   1.212   9.768   9.450
 5865POPC   PO421168   1.237   9.784   9.150
 5865POPC   GL121169   1.229   9.740   8.850
 5865POPC   GL221170   1.350   9.667   8.850
 5865POPC   C1A21171   1.220   9.740   8.550
 5865POPC   D2A21172   1.201   9.770   8.250
 5865POPC   C3A21173   1.202   9.743   7.950
 5865POPC   C4A21174   1.224   9.750   7.650
 5865POPC   C1B21175   1.430   9.602   8.550
 5865POPC   C2B21176   1.461   9.612   8.250
 5865POPC   C3B21177   1.442   9.624   7.950
 5865POPC   C4B21178   1.450   9.604   7.650
 5866POPC   NC321179  28.319   1.977   9.450
 5866POPC   PO421180  28.381   1.963   9.150
 5866POPC   GL121181  28.332   2.039   8.850
 5866POPC   GL221182  28.457   1.901   8.850
 5866POPC   C1A21183  28.390   1.942   8.550
 5866POPC   D2A21184  28.378   1.978   8.250
 5866POPC   C3A21185  28.335   2.031   7.950
 5866POPC   C4A21186  28.347   1.964   7.650
 5866POPC   C1B21187  28.591   1.889   8.550
 5866POPC   C2B21188  28.635   1.882   8.250
 5866POPC   C3B21189  28.609   1.868   7.950
 5866POPC   C4B21190  28.627   1.849   7.650
 5867POPC   NC321191  18.267  27.620   9.450
 5867POPC   PO421192  18.258  27.639   9.150
 5867POPC   GL121193  18.296  27.601   8.850
 5867POPC   GL221194  18.323  27.652   8.850
 5867POPC   C1A21195  18.284  27.614   8.550
 5867POPC   D2A21196  18.295  27.596   8.250
 5867POPC   C3A21197  18.266  27.602   7.950
 5867POPC   C4A21198  18.303  27.623   7.650
 5867POPC   C1B21199  18.363  27.790   8.550
 5867POPC   C2B21200  18.363  27.772   8.250
 5867POPC   C3B21201  18.433  27.784   7.950
 5867POPC   C4B21202  18.440  27.762   7.650
 5868POPC   NC321203  41.579  15.218   9.450
 5868POPC   PO421204  41.527  15.188   9.150
 5868POPC   GL121205  41.518  15.136   8.850
 5868POPC   GL221206  41.644  15.122   8.850
 5868POPC   C1A21207  41.579  15.228   8.550
 5868POPC   D2A21208  41.607  15.212   8.250
 5868POPC   C3A21209  41.592  15.195   7.950
 5868POPC   C4A21210  41.575  15.160   7.650
 5868POPC   C1B21211  41.734  15.072   8.550
 5868POPC   C2B21212  41.747  15.075   8.250
 5868POPC   C3B21213  41.738  15.044   7.950
 5868POPC   C4B21214  41.745  15.022   7.650
 5869POPC   NC321215   4.351  27.564   9.450
 5869POPC   PO421216   4.289  27.617   9.150
 5869POPC   GL121217   4.278  27.567   8.850
 5869POPC   GL221218   4.388  27.595   8.850
 5869POPC   C1A21219   4.352  27.624   8.550
 5869POPC   D2A21220   4.280  27.561   8.250
 5869POPC   C3A21221   4.345  27.603   7.950
 5869POPC   C4A21222   4.345  27.548   7.650
 5869POPC   C1B21223   4.521  27.626   8.550
 5869POPC   C2B21224   4.509  27.646   8.250
 5869POPC   C3B21225   4.518  27.638   7.950
 5869POPC   C4B21226   4.588  27.675   7.650
 5870POPC   NC321227   1.197  34.596   9.450
 5870POPC   PO421228   1.252  34.531   9.150
 5870POPC   GL121229   1.224  34.623   8.850
 5870POPC   GL221230   1.141  34.481   8.850
 5870POPC   C1A21231   1.235  34.527   8.550
 5870POPC   D2A21232   1.249  34.528   8.250
 5870POPC   C3A21233   1.216  34.563   7.950
 5870POPC   C4A21234   1.190  34.562   7.650
 5870POPC   C1B21235   1.020  34.480   8.550
 5870POPC   C2B21236   0.967  34.516   8.250
 5870POPC   C3B21237   0.987  34.480   7.950
 5870POPC   C4B21238   0.991  34.447   7.650
 5871POPC   NC321239   6.637  13.659   9.450
 5871POPC   PO421240   6.603  13.662   9.150
 5871POPC   GL121241   6.602  13.659   8.850
 5871POPC   GL221242   6.591  13.699   8.850
 5871POPC   C1A21243   6.640  13.627   8.550
 5871POPC   D2A21244   6.643  13.622   8.250
 5871POPC   C3A21245   6.652  13.618   7.950
 5871POPC   C4A21246   6.602  13.656   7.650
 5871POPC   C1B21247   6.516  13.888   8.550
 5871POPC   C2B21248   6.579  13.854   8.250
 5871POPC   C3B21249   6.535  13.838   7.950
 5871POPC   C4B21250   6.543  13.835   7.650
 5872POPC   NC321251  15.219  26.836   9.450
 5872POPC   PO421252  15.186  26.837   9.150
 5872POPC   GL121253  15.199  26.802   8.850
 5872POPC   GL221254  15.124  26.679   8.850
 5872POPC   C1A21255  15.220  26.862   8.550
 5872POPC   D2A21256  15.218  26.768   8.250
 5872POPC   C3A21257  15.136  26.821   7.950
 5872POPC   C4A21258  15.228  26.777   7.650
 5872POPC   C1B21259  15.052  26.634   8.550
 5872POPC   C2B21260  14.998  26.585   8.250
 5872POPC   C3B21261  15.013  26.657   7.950
 5872POPC   C4B21262  14.996  26.599   7.650
 5873POPC   NC321263  21.391  37.633   9.450
 5873POPC   PO421264  21.388  37.638   9.150
 5873POPC   GL121265  21.426  37.631   8.850
 5873POPC   GL221266  21.447  37.517   8.850
 5873POPC   C1A21267  21.369  37.713   8.550
 5873POPC   D2A21268  21.390  37.647   8.250
 5873POPC   C3A21269  21.426  37.708   7.950
 5873POPC   C4A21270  21.375  37.659   7.650
 5873POPC   C1B21271  21.468  37.399   8.550
 5873POPC   C2B21272  21.445  37.414   8.250
 5873POPC   C3B21273  21.453  37.418   7.950
 5873POPC   C4B21274  21.467  37.438   7.650
 5874POPC   NC321275  26.036  18.283   9.450
 5874POPC   PO421276  26.029  18.277   9.150
 5874POPC   GL121277  26.089  18.289   8.850
 5874POPC   GL221278  25.960  18.256   8.850
 5874POPC   C1A21279  26.052  18.275   8.550
 5874POPC   D2A21280  25.995  18.331   8.250
 5874POPC   C3A21281  26.065  18.254   7.950
 5874POPC   C4A21282  26.052  18.278   7.650
 5874POPC   C1B21283  25.826  18.187   8.550
 5874POPC   C2B21284  25.755  18.220   8.250
 5874POPC   C3B21285  25.826  18.173   7.950
 5874POPC   C4B21286  25.781  18.179   7.650
 5875POPC   NC321287  15.181  39.977   9.450
 5875POPC   PO421288  15.209  39.962   9.150
 5875POPC   GL121289  15.213  40.055   8.850
 5875POPC   GL221290  15.277  40.059   8.850
 5875POPC   C1A21291  15.176  40.020   8.550
 5875POPC   D2A21292  15.150  39.960   8.250
 5875POPC   C3A21293  15.180  40.028   7.950
 5875POPC   C4A21294  15.145  40.044   7.650
 5875POPC   C1B21295  15.337  40.145   8.550
 5875POPC   C2B21296  15.354  40.214   8.250
 5875POPC   C3B21297  15.363  40.176   7.950
 5875POPC   C4B21298  15.368  40.194   7.650
 5876POPC   NC321299  41.524  17.492   9.450
 5876POPC   PO421300  41.580  17.530   9.150
 5876POPC   GL121301  41.565  17.541   8.850
 5876POPC   GL221302  41.400  17.484   8.850
 5876POPC   C1A21303  41.559  17.551   8.550
 5876POPC   D2A21304  41.533  17.532   8.250
 5876POPC   C3A21305  41.586  17.504   7.950
 5876POPC   C4A21306  41.581  17.502   7.650
 5876POPC   C1B21307  41.349  17.388   8.550
 5876POPC   C2B21308  41.277  17.409   8.250
 5876POPC   C3B21309  41.364  17.477   7.950
 5876POPC   C4B21310  41.302  17.408   7.650
 5877POPC   NC321311   1.207  33.069   9.450
 5877POPC   PO421312   1.212  33.046   9.150
 5877POPC   GL121313   1.261  33.016   8.850
 5877POPC   GL221314   1.271  32.922   8.850
 5877POPC   C1A21315   1.173  33.038   8.550
 5877POPC   D2A21316   1.218  32.984   8.250
 5877POPC   C3A21317   1.252  33.037   7.950
 5877POPC   C4A21318   1.182  33.013   7.650
 5877POPC   C1B21319   1.282  32.811   8.550
 5877POPC   C2B21320   1.278  32.797   8.250
 5877POPC   C3B21321   1.290  32.783   7.950
 5877POPC   C4B21322   1.260  32.798   7.650
 5878POPC   NC321323   2.016   1.206   9.450
 5878POPC   PO421324   1.956   1.193   9.150
 5878POPC   GL121325   2.036   1.245   8.850
 5878POPC   GL221326   1.838   1.300   8.850
 5878POPC   C1A21327   1.959   1.189   8.550
 5878POPC   D2A21328   1.961   1.170   8.250
 5878POPC   C3A21329   1.992   1.259   7.950
 5878POPC   C4A21330   1.978   1.240   7.650
 5878POPC   C1B21331   1.744   1.386   8.550
 5878POPC   C2B21332   1.731   1.311   8.250
 5878POPC   C3B21333   1.761   1.356   7.950
 5878POPC   C4B21334   1.753   1.389   7.650
 5879POPC   NC321335  12.840  29.155   9.450
 5879POPC   PO421336  12.802  29.192   9.150
 5879POPC   GL121337  12.827  29.151   8.850
 5879POPC   GL221338  12.896  29.243   8.850
 5879POPC   C1A21339  12.828  29.122   8.550
 5879POPC   D2A21340  12.814  29.171   8.250
 5879POPC   C3A21341  12.868  29.105   7.950
 5879POPC   C4A21342  12.855  29.138   7.650
 5879POPC   C1B21343  13.065  29.337   8.550
 5879POPC   C2B21344  13.042  29.342   8.250
 5879POPC   C3B21345  13.001  29.267   7.950
 5879POPC   C4B21346  13.075  29.296   7.650
 5880POPC   NC321347   8.967  28.338   9.450
 5880POPC   PO421348   8.990  28.406   9.150
 5880POPC   GL121349   8.967  28.333   8.850
 5880POPC   GL221350   9.035  28.271   8.850
 5880POPC   C1A21351   9.002  28.324   8.550
 5880POPC   D2A21352   8.954  28.369   8.250
 5880POPC   C3A21353   9.004  28.369   7.950
 5880POPC   C4A21354   9.020  28.412   7.650
 5880POPC   C1B21355   9.167  28.228   8.550
 5880POPC   C2B21356   9.131  28.227   8.250
 5880POPC   C3B21357   9.168  28.222   7.950
 5880POPC   C4B21358   9.149  28.148   7.650
 5881POPC   NC321359  39.975   0.412   9.450
 5881POPC   PO421360  39.987   0.447   9.150
 5881POPC   GL121361  39.971   0.398   8.850
 5881POPC   GL221362  39.912   0.537   8.850
 5881POPC   C1A21363  40.013   0.393   8.550
 5881POPC   D2A21364  40.011   0.437   8.250
 5881POPC   C3A21365  40.041   0.479   7.950
 5881POPC   C4A21366  39.986   0.440   7.650
 5881POPC   C1B21367  39.758   0.538   8.550
 5881POPC   C2B21368  39.815   0.575   8.250
 5881POPC   C3B21369  39.836   0.550   7.950
 5881POPC   C4B21370  39.777   0.547   7.650
 5882POPC   NC321371  19.801   1.181   9.450
 5882POPC   PO421372  19.882   1.214   9.150
 5882POPC   GL121373  19.795   1.179   8.850
 5882POPC   GL221374  19.906   1.300   8.850
 5882POPC   C1A21375  19.817   1.245   8.550
 5882POPC   D2A21376  19.847   1.241   8.250
 5882POPC   C3A21377  19.789   1.256   7.950
 5882POPC   C4A21378  19.844   1.181   7.650
 5882POPC   C1B21379  20.031   1.257   8.550
 5882POPC   C2B21380  20.046   1.268   8.250
 5882POPC   C3B21381  20.096   1.331   7.950
 5882POPC   C4B21382  20.093   1.293   7.650
 5883POPC   NC321383  22.154  24.532   9.450
 5883POPC   PO421384  22.122  24.440   9.150
 5883POPC   GL121385  22.139  24.506   8.850
 5883POPC   GL221386  22.261  24.415   8.850
 5883POPC   C1A21387  22.167  24.486   8.550
 5883POPC   D2A21388  22.131  24.509   8.250
 5883POPC   C3A21389  22.162  24.450   7.950
 5883POPC   C4A21390  22.152  24.537   7.650
 5883POPC   C1B21391  22.229  24.255   8.550
 5883POPC   C2B21392  22.250  24.231   8.250
 5883POPC   C3B21393  22.235  24.235   7.950
 5883POPC   C4B21394  22.228  24.229   7.650
 5884POPC   NC321395   6.598  24.505   9.450
 5884POPC   PO421396   6.668  24.471   9.150
 5884POPC   GL121397   6.670  24.506   8.850
 5884POPC   GL221398   6.619  24.661   8.850
 5884POPC   C1A21399   6.631  24.442   8.550
 5884POPC   D2A21400   6.659  24.522   8.250
 5884POPC   C3A21401   6.618  24.470   7.950
 5884POPC   C4A21402   6.644  24.441   7.650
 5884POPC   C1B21403   6.658  24.738   8.550
 5884POPC   C2B21404   6.627  24.747   8.250
 5884POPC   C3B21405   6.629  24.779   7.950
 5884POPC   C4B21406   6.587  24.773   7.650
 5885POPC   NC321407  34.542  26.849   9.450
 5885POPC   PO421408  34.603  26.822   9.150
 5885POPC   GL121409  34.531  26.854   8.850
 5885POPC   GL221410  34.462  26.845   8.850
 5885POPC   C1A21411  34.595  26.865   8.550
 5885POPC   D2A21412  34.599  26.810   8.250
 5885POPC   C3A21413  34.604  26.853   7.950
 5885POPC   C4A21414  34.581  26.850   7.650
 5885POPC   C1B21415  34.390  27.006   8.550
 5885POPC   C2B21416  34.353  26.952   8.250
 5885POPC   C3B21417  34.407  26.941   7.950
 5885POPC   C4B21418  34.337  27.003   7.650
 5886POPC   NC321419  18.244  19.084   9.450
 5886POPC   PO421420  18.307  19.106   9.150
 5886POPC   GL121421  18.319  19.097   8.850
 5886POPC   GL221422  18.273  19.158   8.850
 5886POPC   C1A21423  18.250  19.032   8.550
 5886POPC   D2A21424  18.268  19.056   8.250
 5886POPC   C3A21425  18.321  19.098   7.950
 5886POPC   C4A21426  18.296  19.102   7.650
 5886POPC   C1B21427  18.357  19.311   8.550
 5886POPC   C2B21428  18.282  19.332   8.250
 5886POPC   C3B21429  18.345  19.351   7.950
 5886POPC   C4B21430  18.285  19.338   7.650
 5887POPC   NC321431  44.679  38.470   9.450
 5887POPC   PO421432  44.657  38.433   9.150
 5887POPC   GL121433  44.686  38.406   8.850
 5887POPC   GL221434  44.652  38.317   8.850
 5887POPC   C1A21435  44.653  38.500   8.550
 5887POPC   D2A21436  44.619  38.485   8.250
 5887POPC   C3A21437  44.617  38.445   7.950
 5887POPC   C4A21438  44.642  38.438   7.650
 5887POPC   C1B21439  44.707  38.267   8.550
 5887POPC   C2B21440  44.705  38.176   8.250
 5887POPC   C3B21441  44.714  38.237   7.950
 5887POPC   C4B21442  44.739  38.263   7.650
 5888POPC   NC321443  13.589  37.719   9.450
 5888POPC   PO421444  13.598  37.707   9.150
 5888POPC   GL121445  13.630  37.652   8.850
 5888POPC   GL221446  13.642  37.529   8.850
 5888POPC   C1A21447  13.594  37.714   8.550
 5888POPC   D2A21448  13.582  37.715   8.250
 5888POPC   C3A21449  13.618  37.671   7.950
 5888POPC   C4A21450  13.651  37.646   7.650
 5888POPC   C1B21451  13.533  37.443   8.550
 5888POPC   C2B21452  13.509  37.405   8.250
 5888POPC   C3B21453  13.587  37.448   7.950
 5888POPC   C4B21454  13.536  37.404   7.650
 5889POPC   NC321455  39.219  15.999   9.450
 5889POPC   PO421456  39.199  15.908   9.150
 5889POPC   GL121457  39.223  15.973   8.850
 5889POPC   GL221458  39.246  15.858   8.850
 5889POPC   C1A21459  39.267  15.948   8.550
 5889POPC   D2A21460  39.241  15.962   8.250
 5889POPC   C3A21461  39.263  15.993   7.950
 5889POPC   C4A21462  39.243  15.941   7.650
 5889POPC   C1B21463  39.264  15.670   8.550
 5889POPC   C2B21464  39.237  15.677   8.250
 5889POPC   C3B21465  39.214  15.659   7.950
 5889POPC   C4B21466  39.263  15.706   7.650
 5890POPC   NC321467  10.491   5.063   9.450
 5890POPC   PO421468  10.522   5.124   9.150
 5890POPC   GL121469  10.545   5.112   8.850
 5890POPC   GL221470  10.517   5.175   8.850
 5890POPC   C1A21471  10.546   5.075   8.550
 5890POPC   D2A21472  10.570   5.116   8.250
 5890POPC   C3A21473  10.517   5.051   7.950
 5890POPC   C4A21474  10.542   5.076   7.650
 5890POPC   C1B21475  10.647   5.311   8.550
 5890POPC   C2B21476  10.583   5.339   8.250
 5890POPC   C3B21477  10.581   5.345   7.950
 5890POPC   C4B21478  10.649   5.324   7.650
 5891POPC   NC321479  35.363   1.180   9.450
 5891POPC   PO421480  35.361   1.209   9.150
 5891POPC   GL121481  35.328   1.215   8.850
 5891POPC   GL221482  35.239   1.299   8.850
 5891POPC   C1A21483  35.365   1.233   8.550
 5891POPC   D2A21484  35.396   1.205   8.250
 5891POPC   C3A21485  35.384   1.240   7.950
 5891POPC   C4A21486  35.379   1.209   7.650
 5891POPC   C1B21487  35.179   1.383   8.550
 5891POPC   C2B21488  35.223   1.413   8.250
 5891POPC   C3B21489  35.230   1.439   7.950
 5891POPC   C4B21490  35.156   1.410   7.650
 5892POPC   NC321491  22.938   7.471   9.450
 5892POPC   PO421492  22.954   7.421   9.150
 5892POPC   GL121493  22.926   7.376   8.850
 5892POPC   GL221494  22.946   7.335   8.850
 5892POPC   C1A21495  22.926   7.447   8.550
 5892POPC   D2A21496  22.979   7.425   8.250
 5892POPC   C3A21497  22.971   7.371   7.950
 5892POPC   C4A21498  22.972   7.447   7.650
 5892POPC   C1B21499  22.911   7.141   8.550
 5892POPC   C2B21500  22.999   7.132   8.250
 5892POPC   C3B21501  22.997   7.159   7.950
 5892POPC   C4B21502  22.972   7.122   7.650
 5893POPC   NC321503  17.542   5.062   9.450
 5893POPC   PO421504  17.507   5.051   9.150
 5893POPC   GL121505  17.550   5.105   8.850
 5893POPC   GL221506  17.606   5.191   8.850
 5893POPC   C1A21507  17.493   5.062   8.550
 5893POPC   D2A21508  17.515   5.107   8.250
 5893POPC   C3A21509  17.458   5.110   7.950
 5893POPC   C4A21510  17.526   5.059   7.650
 5893POPC   C1B21511  17.743   5.171   8.550
 5893POPC   C2B21512  17.775   5.250   8.250
 5893POPC   C3B21513  17.683   5.228   7.950
 5893POPC   C4B21514  17.746   5.221   7.650
 5894POPC   NC321515  10.565  23.716   9.450
 5894POPC   PO421516  10.521  23.678   9.150
 5894POPC   GL121517  10.554  23.667   8.850
 5894POPC   GL221518  10.417  23.784   8.850
 5894POPC   C1A21519  10.485  23.671   8.550
 5894POPC   D2A21520  10.525  23.670   8.250
 5894POPC   C3A21521  10.528  23.682   7.950
 5894POPC   C4A21522  10.559  23.688   7.650
 5894POPC   C1B21523  10.236  23.805   8.550
 5894POPC   C2B21524  10.272  23.781   8.250
 5894POPC   C3B21525  10.260  23.775   7.950
 5894POPC   C4B21526  10.251  23.813   7.650
 5895POPC   NC321527  42.381  27.564   9.450
 5895POPC   PO421528  42.367  27.616   9.150
 5895POPC   GL121529  42.352  27.593   8.850
 5895POPC   GL221530  42.245  27.465   8.850
 5895POPC   C1A21531  42.337  27.621   8.550
 5895POPC   D2A21532  42.299  27.637   8.250
 5895POPC   C3A21533  42.352  27.590   7.950
 5895POPC   C4A21534  42.336  27.545   7.650
 5895POPC   C1B21535  42.221  27.424   8.550
 5895POPC   C2B21536  42.237  27.413   8.250
 5895POPC   C3B21537  42.237  27.367   7.950
 5895POPC   C4B21538  42.176  27.395   7.650
 5896POPC   NC321539   6.665  32.281   9.450
 5896POPC   PO421540   6.612  32.271   9.150
 5896POPC   GL121541   6.657  32.206   8.850
 5896POPC   GL221542   6.576  32.134   8.850
 5896POPC   C1A21543   6.665  32.255   8.550
 5896POPC   D2A21544   6.596  32.283   8.250
 5896POPC   C3A21545   6.617  32.289   7.950
 5896POPC   C4A21546   6.648  32.214   7.650
 5896POPC   C1B21547   6.491  32.051   8.550
 5896POPC   C2B21548   6.534  32.001   8.250
 5896POPC   C3B21549   6.470  32.033   7.950
 5896POPC   C4B21550   6.460  32.035   7.650
 5897POPC   NC321551   7.432   2.758   9.450
 5897POPC   PO421552   7.447   2.728   9.150
 5897POPC   GL121553   7.377   2.749   8.850
 5897POPC   GL221554   7.462   2.852   8.850
 5897POPC   C1A21555   7.400   2.734   8.550
 5897POPC   D2A21556   7.387   2.811   8.250
 5897POPC   C3A21557   7.429   2.733   7.950
 5897POPC   C4A21558   7.462   2.750   7.650
 5897POPC   C1B21559   7.616   2.972   8.550
 5897POPC   C2B21560   7.616   2.960   8.250
 5897POPC   C3B21561   7.608   2.919   7.950
 5897POPC   C4B21562   7.568   2.914   7.650
 5898POPC   NC321563  26.778  42.374   9.450
 5898POPC   PO421564  26.865  42.303   9.150
 5898POPC   GL121565  26.786  42.296   8.850
 5898POPC   GL221566  26.787  42.474   8.850
 5898POPC   C1A21567  26.787  42.331   8.550
 5898POPC   D2A21568  26.846  42.379   8.250
 5898POPC   C3A21569  26.867  42.364   7.950
 5898POPC   C4A21570  26.795  42.384   7.650
 5898POPC   C1B21571  26.844  42.535   8.550
 5898POPC   C2B21572  26.793  42.594   8.250
 5898POPC   C3B21573  26.845  42.587   7.950
 5898POPC   C4B21574  26.831  42.629   7.650
 5899POPC   NC321575  22.189  15.926   9.450
 5899POPC   PO421576  22.166  15.942   9.150
 5899POPC   GL121577  22.156  15.935   8.850
 5899POPC   GL221578  22.165  16.039   8.850
 5899POPC   C1A21579  22.119  15.967   8.550
 5899POPC   D2A21580  22.199  15.925   8.250
 5899POPC   C3A21581  22.159  15.917   7.950
 5899POPC   C4A21582  22.128  15.970   7.650
 5899POPC   C1B21583  22.154  16.207   8.550
 5899POPC   C2B21584  22.210  16.174   8.250
 5899POPC   C3B21585  22.195  16.204   7.950
 5899POPC   C4B21586  22.158  16.202   7.650
 5900POPC   NC321587  11.349  23.666   9.450
 5900POPC   PO421588  11.269  23.725   9.150
 5900POPC   GL121589  11.341  23.719   8.850
 5900POPC   GL221590  11.196  23.754   8.850
 5900POPC   C1A21591  11.308  23.718   8.550
 5900POPC   D2A21592  11.326  23.683   8.250
 5900POPC   C3A21593  11.339  23.729   7.950
 5900POPC   C4A21594  11.329  23.761   7.650
 5900POPC   C1B21595  11.105  23.824   8.550
 5900POPC   C2B21596  11.100  23.811   8.250
 5900POPC   C3B21597  11.068  23.809   7.950
 5900POPC   C4B21598  11.088  23.869   7.650
 5901POPC   NC321599  24.536  33.023   9.450
 5901POPC   PO421600  24.455  33.057   9.150
 5901POPC   GL121601  24.529  33.062   8.850
 5901POPC   GL221602  24.346  33.054   8.850
 5901POPC   C1A21603  24.490  33.050   8.550
 5901POPC   D2A21604  24.517  33.007   8.250
 5901POPC   C3A21605  24.527  33.069   7.950
 5901POPC   C4A21606  24.500  32.977   7.650
 5901POPC   C1B21607  24.261  33.149   8.550
 5901POPC   C2B21608  24.292  33.155   8.250
 5901POPC   C3B21609  24.256  33.130   7.950
 5901POPC   C4B21610  24.307  33.197   7.650
 5902POPC   NC321611  27.627  28.332   9.450
 5902POPC   PO421612  27.593  28.377   9.150
 5902POPC   GL121613  27.553  28.383   8.850
 5902POPC   GL221614  27.587  28.481   8.850
 5902POPC   C1A21615  27.641  28.397   8.550
 5902POPC   D2A21616  27.543  28.412   8.250
 5902POPC   C3A21617  27.605  28.412   7.950
 5902POPC   C4A21618  27.594  28.364   7.650
 5902POPC   C1B21619  27.505  28.625   8.550
 5902POPC   C2B21620  27.508  28.555   8.250
 5902POPC   C3B21621  27.456  28.559   7.950
 5902POPC   C4B21622  27.521  28.608   7.650
 5903POPC   NC321623   0.482  15.222   9.450
 5903POPC   PO421624   0.388  15.165   9.150
 5903POPC   GL121625   0.473  15.203   8.850
 5903POPC   GL221626   0.271  15.115   8.850
 5903POPC   C1A21627   0.488  15.209   8.550
 5903POPC   D2A21628   0.407  15.214   8.250
 5903POPC   C3A21629   0.409  15.139   7.950
 5903POPC   C4A21630   0.418  15.139   7.650
 5903POPC   C1B21631   0.151  15.104   8.550
 5903POPC   C2B21632   0.201  15.151   8.250
 5903POPC   C3B21633   0.166  15.133   7.950
 5903POPC   C4B21634   0.157  15.105   7.650
 5904POPC   NC321635  40.789   5.875   9.450
 5904POPC   PO421636  40.780   5.832   9.150
 5904POPC   GL121637  40.734   5.850   8.850
 5904POPC   GL221638  40.912   5.804   8.850
 5904POPC   C1A21639  40.786   5.858   8.550
 5904POPC   D2A21640  40.827   5.847   8.250
 5904POPC   C3A21641  40.806   5.895   7.950
 5904POPC   C4A21642  40.784   5.905   7.650
 5904POPC   C1B21643  41.017   5.821   8.550
 5904POPC   C2B21644  41.041   5.820   8.250
 5904POPC   C3B21645  41.001   5.743   7.950
 5904POPC   C4B21646  41.069   5.825   7.650
 5905POPC   NC321647  42.379  38.451   9.450
 5905POPC   PO421648  42.374  38.438   9.150
 5905POPC   GL121649  42.305  38.408   8.850
 5905POPC   GL221650  42.239  38.417   8.850
 5905POPC   C1A21651  42.372  38.488   8.550
 5905POPC   D2A21652  42.361  38.489   8.250
 5905POPC   C3A21653  42.297  38.426   7.950
 5905POPC   C4A21654  42.298  38.487   7.650
 5905POPC   C1B21655  42.103  38.454   8.550
 5905POPC   C2B21656  42.100  38.497   8.250
 5905POPC   C3B21657  42.104  38.459   7.950
 5905POPC   C4B21658  42.088  38.452   7.650
 5906POPC   NC321659  36.942  40.734   9.450
 5906POPC   PO421660  36.928  40.823   9.150
 5906POPC   GL121661  36.907  40.772   8.850
 5906POPC   GL221662  36.954  40.685   8.850
 5906POPC   C1A21663  36.940  40.799   8.550
 5906POPC   D2A21664  36.880  40.811   8.250
 5906POPC   C3A21665  36.914  40.758   7.950
 5906POPC   C4A21666  36.943  40.747   7.650
 5906POPC   C1B21667  37.082  40.629   8.550
 5906POPC   C2B21668  37.090  40.617   8.250
 5906POPC   C3B21669  37.100  40.604   7.950
 5906POPC   C4B21670  37.071  40.608   7.650
 5907POPC   NC321671  29.174  37.666   9.450
 5907POPC   PO421672  29.191  37.630   9.150
 5907POPC   GL121673  29.183  37.693   8.850
 5907POPC   GL221674  29.070  37.767   8.850
 5907POPC   C1A21675  29.108  37.641   8.550
 5907POPC   D2A21676  29.123  37.686   8.250
 5907POPC   C3A21677  29.105  37.657   7.950
 5907POPC   C4A21678  29.182  37.682   7.650
 5907POPC   C1B21679  29.055  37.874   8.550
 5907POPC   C2B21680  28.981  37.874   8.250
 5907POPC   C3B21681  29.040  37.911   7.950
 5907POPC   C4B21682  28.987  37.912   7.650
 5908POPC   NC321683  37.704  16.773   9.450
 5908POPC   PO421684  37.633  16.761   9.150
 5908POPC   GL121685  37.719  16.697   8.850
 5908POPC   GL221686  37.772  16.812   8.850
 5908POPC   C1A21687  37.690  16.700   8.550
 5908POPC   D2A21688  37.663  16.762   8.250
 5908POPC   C3A21689  37.697  16.707   7.950
 5908POPC   C4A21690  37.654  16.750   7.650
 5908POPC   C1B21691  37.867  16.851   8.550
 5908POPC   C2B21692  37.869  16.875   8.250
 5908POPC   C3B21693  37.906  16.867   7.950
 5908POPC   C4B21694  37.908  16.833   7.650
 5909POPC   NC321695  41.564  27.641   9.450
 5909POPC   PO421696  41.540  27.582   9.150
 5909POPC   GL121697  41.566  27.621   8.850
 5909POPC   GL221698  41.476  27.588   8.850
 5909POPC   C1A21699  41.517  27.588   8.550
 5909POPC   D2A21700  41.558  27.640   8.250
 5909POPC   C3A21701  41.516  27.635   7.950
 5909POPC   C4A21702  41.563  27.618   7.650
 5909POPC   C1B21703  41.347  27.572   8.550
 5909POPC   C2B21704  41.261  27.604   8.250
 5909POPC   C3B21705  41.290  27.657   7.950
 5909POPC   C4B21706  41.317  27.608   7.650
 5910POPC   NC321707   2.799  22.116   9.450
 5910POPC   PO421708   2.718  22.183   9.150
 5910POPC   GL121709   2.770  22.180   8.850
 5910POPC   GL221710   2.735  22.258   8.850
 5910POPC   C1A21711   2.748  22.156   8.550
 5910POPC   D2A21712   2.747  22.121   8.250
 5910POPC   C3A21713   2.742  22.140   7.950
 5910POPC   C4A21714   2.811  22.124   7.650
 5910POPC   C1B21715   2.656  22.433   8.550
 5910POPC   C2B21716   2.635  22.435   8.250
 5910POPC   C3B21717   2.645  22.352   7.950
 5910POPC   C4B21718   2.675  22.353   7.650
 5911POPC   NC321719  39.964  30.654   9.450
 5911POPC   PO421720  39.984  30.687   9.150
 5911POPC   GL121721  39.989  30.712   8.850
 5911POPC   GL221722  39.945  30.824   8.850
 5911POPC   C1A21723  39.985  30.674   8.550
 5911POPC   D2A21724  40.005  30.708   8.250
 5911POPC   C3A21725  40.016  30.693   7.950
 5911POPC   C4A21726  39.978  30.676   7.650
 5911POPC   C1B21727  39.845  30.840   8.550
 5911POPC   C2B21728  39.824  30.821   8.250
 5911POPC   C3B21729  39.818  30.897   7.950
 5911POPC   C4B21730  39.785  30.904   7.650
 5912POPC   NC321731  36.872  15.137   9.450
 5912POPC   PO421732  36.879  15.131   9.150
 5912POPC   GL121733  36.887  15.158   8.850
 5912POPC   GL221734  36.956  15.275   8.850
 5912POPC   C1A21735  36.921  15.222   8.550
 5912POPC   D2A21736  36.891  15.189   8.250
 5912POPC   C3A21737  36.917  15.149   7.950
 5912POPC   C4A21738  36.951  15.184   7.650
 5912POPC   C1B21739  37.034  15.435   8.550
 5912POPC   C2B21740  37.017  15.406   8.250
 5912POPC   C3B21741  37.037  15.435   7.950
 5912POPC   C4B21742  37.012  15.351   7.650
 5913POPC   NC321743  24.486  19.073   9.450
 5913POPC   PO421744  24.442  19.027   9.150
 5913POPC   GL121745  24.451  19.045   8.850
 5913POPC   GL221746  24.443  19.209   8.850
 5913POPC   C1A21747  24.466  19.029   8.550
 5913POPC   D2A21748  24.440  19.059   8.250
 5913POPC   C3A21749  24.454  19.016   7.950
 5913POPC   C4A21750  24.480  19.059   7.650
 5913POPC   C1B21751  24.388  19.295   8.550
 5913POPC   C2B21752  24.391  19.291   8.250
 5913POPC   C3B21753  24.428  19.249   7.950
 5913POPC   C4B21754  24.446  19.309   7.650
 5914POPC   NC321755  16.739  33.818   9.450
 5914POPC   PO421756  16.756  33.817   9.150
 5914POPC   GL121757  16.707  33.822   8.850
 5914POPC   GL221758  16.603  33.777   8.850
 5914POPC   C1A21759  16.724  33.834   8.550
 5914POPC   D2A21760  16.734  33.754   8.250
 5914POPC   C3A21761  16.777  33.806   7.950
 5914POPC   C4A21762  16.779  33.803   7.650
 5914POPC   C1B21763  16.513  33.674   8.550
 5914POPC   C2B21764  16.559  33.622   8.250
 5914POPC   C3B21765  16.509  33.625   7.950
 5914POPC   C4B21766  16.527  33.679   7.650
 5915POPC   NC321767   2.033  24.470   9.450
 5915POPC   PO421768   2.023  24.534   9.150
 5915POPC   GL121769   2.028  24.513   8.850
 5915POPC   GL221770   1.981  24.399   8.850
 5915POPC   C1A21771   1.967  24.486   8.550
 5915POPC   D2A21772   2.005  24.529   8.250
 5915POPC   C3A21773   1.995  24.481   7.950
 5915POPC   C4A21774   1.973  24.500   7.650
 5915POPC   C1B21775   1.912  24.260   8.550
 5915POPC   C2B21776   1.904  24.222   8.250
 5915POPC   C3B21777   1.929  24.287   7.950
 5915POPC   C4B21778   1.988  24.201   7.650
 5916POPC   NC321779  38.437  42.306   9.450
 5916POPC   PO421780  38.449  42.294   9.150
 5916POPC   GL121781  38.451  42.285   8.850
 5916POPC   GL221782  38.572  42.323   8.850
 5916POPC   C1A21783  38.493  42.370   8.550
 5916POPC   D2A21784  38.419  42.353   8.250
 5916POPC   C3A21785  38.462  42.340   7.950
 5916POPC   C4A21786  38.445  42.369   7.650
 5916POPC   C1B21787  38.708  42.425   8.550
 5916POPC   C2B21788  38.662  42.361   8.250
 5916POPC   C3B21789  38.655  42.416   7.950
 5916POPC   C4B21790  38.737  42.422   7.650
 5917POPC   NC321791  30.681  42.320   9.450
 5917POPC   PO421792  30.698  42.316   9.150
 5917POPC   GL121793  30.739  42.374   8.850
 5917POPC   GL221794  30.674  42.167   8.850
 5917POPC   C1A21795  30.681  42.356   8.550
 5917POPC   D2A21796  30.711  42.323   8.250
 5917POPC   C3A21797  30.732  42.328   7.950
 5917POPC   C4A21798  30.732  42.303   7.650
 5917POPC   C1B21799  30.697  42.040   8.550
 5917POPC   C2B21800  30.626  42.130   8.250
 5917POPC   C3B21801  30.635  42.136   7.950
 5917POPC   C4B21802  30.653  42.073   7.650
 5918POPC   NC321803   1.967  29.907   9.450
 5918POPC   PO421804   1.966  29.951   9.150
 5918POPC   GL121805   1.973  29.965   8.850
 5918POPC   GL221806   1.990  30.019   8.850
 5918POPC   C1A21807   1.991  29.879   8.550
 5918POPC   D2A21808   2.034  29.949   8.250
 5918POPC   C3A21809   2.026  29.900   7.950
 5918POPC   C4A21810   2.010  29.938   7.650
 5918POPC   C1B21811   1.918  30.163   8.550
 5918POPC   C2B21812   1.922  30.179   8.250
 5918POPC   C3B21813   1.957  30.183   7.950
 5918POPC   C4B21814   1.979  30.197   7.650
 5919POPC   NC321815  15.190  35.338   9.450
 5919POPC   PO421816  15.131  35.367   9.150
 5919POPC   GL121817  15.154  35.337   8.850
 5919POPC   GL221818  15.239  35.232   8.850
 5919POPC   C1A21819  15.187  35.385   8.550
 5919POPC   D2A21820  15.155  35.394   8.250
 5919POPC   C3A21821  15.145  35.356   7.950
 5919POPC   C4A21822  15.144  35.330   7.650
 5919POPC   C1B21823  15.371  35.206   8.550
 5919POPC   C2B21824  15.349  35.191   8.250
 5919POPC   C3B21825  15.406  35.210   7.950
 5919POPC   C4B21826  15.334  35.225   7.650
 5920POPC   NC321827  11.312   4.355   9.450
 5920POPC   PO421828  11.257   4.333   9.150
 5920POPC   GL121829  11.346   4.330   8.850
 5920POPC   GL221830  11.187   4.353   8.850
 5920POPC   C1A21831  11.282   4.279   8.550
 5920POPC   D2A21832  11.268   4.305   8.250
 5920POPC   C3A21833  11.251   4.272   7.950
 5920POPC   C4A21834  11.295   4.274   7.650
 5920POPC   C1B21835  11.056   4.493   8.550
 5920POPC   C2B21836  11.126   4.462   8.250
 5920POPC   C3B21837  11.091   4.489   7.950
 5920POPC   C4B21838  11.077   4.483   7.650
 5921POPC   NC321839  11.257  43.134   9.450
 5921POPC   PO421840  11.340  43.070   9.150
 5921POPC   GL121841  11.304  43.118   8.850
 5921POPC   GL221842  11.432  43.009   8.850
 5921POPC   C1A21843  11.265  43.141   8.550
 5921POPC   D2A21844  11.263  43.094   8.250
 5921POPC   C3A21845  11.318  43.085   7.950
 5921POPC   C4A21846  11.321  43.151   7.650
 5921POPC   C1B21847  11.496  42.962   8.550
 5921POPC   C2B21848  11.521  43.041   8.250
 5921POPC   C3B21849  11.563  42.974   7.950
 5921POPC   C4B21850  11.534  43.016   7.650
 5922POPC   NC321851  38.449  41.607   9.450
 5922POPC   PO421852  38.495  41.526   9.150
 5922POPC   GL121853  38.421  41.595   8.850
 5922POPC   GL221854  38.375  41.543   8.850
 5922POPC   C1A21855  38.416  41.584   8.550
 5922POPC   D2A21856  38.426  41.542   8.250
 5922POPC   C3A21857  38.434  41.592   7.950
 5922POPC   C4A21858  38.490  41.560   7.650
 5922POPC   C1B21859  38.172  41.651   8.550
 5922POPC   C2B21860  38.213  41.591   8.250
 5922POPC   C3B21861  38.224  41.606   7.950
 5922POPC   C4B21862  38.183  41.591   7.650
 5923POPC   NC321863  12.109  19.079   9.450
 5923POPC   PO421864  12.044  19.018   9.150
 5923POPC   GL121865  12.092  19.014   8.850
 5923POPC   GL221866  11.920  19.165   8.850
 5923POPC   C1A21867  12.103  19.045   8.550
 5923POPC   D2A21868  12.081  19.091   8.250
 5923POPC   C3A21869  12.026  19.059   7.950
 5923POPC   C4A21870  12.060  19.030   7.650
 5923POPC   C1B21871  11.806  19.137   8.550
 5923POPC   C2B21872  11.842  19.193   8.250
 5923POPC   C3B21873  11.846  19.138   7.950
 5923POPC   C4B21874  11.807  19.186   7.650
 5924POPC   NC321875   3.542  37.635   9.450
 5924POPC   PO421876   3.504  37.706   9.150
 5924POPC   GL121877   3.579  37.715   8.850
 5924POPC   GL221878   3.461  37.743   8.850
 5924POPC   C1A21879   3.515  37.706   8.550
 5924POPC   D2A21880   3.542  37.717   8.250
 5924POPC   C3A21881   3.576  37.675   7.950
 5924POPC   C4A21882   3.564  37.718   7.650
 5924POPC   C1B21883   3.442  37.867   8.550
 5924POPC   C2B21884   3.426  37.942   8.250
 5924POPC   C3B21885   3.459  37.939   7.950
 5924POPC   C4B21886   3.368  37.906   7.650
 5925POPC   NC321887  25.243  19.809   9.450
 5925POPC   PO421888  25.248  19.875   9.150
 5925POPC   GL121889  25.282  19.848   8.850
 5925POPC   GL221890  25.377  19.893   8.850
 5925POPC   C1A21891  25.289  19.802   8.550
 5925POPC   D2A21892  25.269  19.860   8.250
 5925POPC   C3A21893  25.270  19.832   7.950
 5925POPC   C4A21894  25.314  19.794   7.650
 5925POPC   C1B21895  25.536  19.854   8.550
 5925POPC   C2B21896  25.562  19.899   8.250
 5925POPC   C3B21897  25.512  19.910   7.950
 5925POPC   C4B21898  25.540  19.834   7.650
 5926POPC   NC321899  34.607  14.441   9.450
 5926POPC   PO421900  34.572  14.422   9.150
 5926POPC   GL121901  34.616  14.427   8.850
 5926POPC   GL221902  34.503  14.565   8.850
 5926POPC   C1A21903  34.574  14.446   8.550
 5926POPC   D2A21904  34.551  14.395   8.250
 5926POPC   C3A21905  34.581  14.443   7.950
 5926POPC   C4A21906  34.530  14.427   7.650
 5926POPC   C1B21907  34.545  14.686   8.550
 5926POPC   C2B21908  34.459  14.682   8.250
 5926POPC   C3B21909  34.521  14.671   7.950
 5926POPC   C4B21910  34.540  14.647   7.650
 5927POPC   NC321911  14.422   4.287   9.450
 5927POPC   PO421912  14.375   4.362   9.150
 5927POPC   GL121913  14.444   4.305   8.850
 5927POPC   GL221914  14.297   4.353   8.850
 5927POPC   C1A21915  14.364   4.305   8.550
 5927POPC   D2A21916  14.394   4.276   8.250
 5927POPC   C3A21917  14.441   4.326   7.950
 5927POPC   C4A21918  14.385   4.289   7.650
 5927POPC   C1B21919  14.106   4.268   8.550
 5927POPC   C2B21920  14.200   4.289   8.250
 5927POPC   C3B21921  14.175   4.266   7.950
 5927POPC   C4B21922  14.170   4.328   7.650
 5928POPC   NC321923  22.164   1.262   9.450
 5928POPC   PO421924  22.191   1.260   9.150
 5928POPC   GL121925  22.208   1.258   8.850
 5928POPC   GL221926  22.287   1.180   8.850
 5928POPC   C1A21927  22.155   1.239   8.550
 5928POPC   D2A21928  22.125   1.173   8.250
 5928POPC   C3A21929  22.128   1.231   7.950
 5928POPC   C4A21930  22.211   1.226   7.650
 5928POPC   C1B21931  22.424   1.199   8.550
 5928POPC   C2B21932  22.436   1.232   8.250
 5928POPC   C3B21933  22.445   1.203   7.950
 5928POPC   C4B21934  22.435   1.190   7.650
 5929POPC   NC321935  24.529  37.712   9.450
 5929POPC   PO421936  24.496  37.665   9.150
 5929POPC   GL121937  24.526  37.649   8.850
 5929POPC   GL221938  24.384  37.757   8.850
 5929POPC   C1A21939  24.507  37.678   8.550
 5929POPC   D2A21940  24.529  37.723   8.250
 5929POPC   C3A21941  24.446  37.668   7.950
 5929POPC   C4A21942  24.502  37.729   7.650
 5929POPC   C1B21943  24.296  37.927   8.550
 5929POPC   C2B21944  24.342  37.864   8.250
 5929POPC   C3B21945  24.341  37.829   7.950
 5929POPC   C4B21946  24.344  37.845   7.650
 5930POPC   NC321947   2.797   9.703   9.450
 5930POPC   PO421948   2.771   9.787   9.150
 5930POPC   GL121949   2.718   9.790   8.850
 5930POPC   GL221950   2.892   9.700   8.850
 5930POPC   C1A21951   2.759   9.732   8.550
 5930POPC   D2A21952   2.766   9.739   8.250
 5930POPC   C3A21953   2.777   9.784   7.950
 5930POPC   C4A21954   2.811   9.700   7.650
 5930POPC   C1B21955   2.999   9.572   8.550
 5930POPC   C2B21956   2.972   9.620   8.250
 5930POPC   C3B21957   2.913   9.619   7.950
 5930POPC   C4B21958   2.966   9.600   7.650
 5931POPC   NC321959  44.644  33.021   9.450
 5931POPC   PO421960  44.702  32.989   9.150
 5931POPC   GL121961  44.663  33.024   8.850
 5931POPC   GL221962  44.607  32.948   8.850
 5931POPC   C1A21963  44.628  33.006   8.550
 5931POPC   D2A21964  44.665  33.048   8.250
 5931POPC   C3A21965  44.675  32.996   7.950
 5931POPC   C4A21966  44.687  33.073   7.650
 5931POPC   C1B21967  44.511  32.826   8.550
 5931POPC   C2B21968  44.526  32.809   8.250
 5931POPC   C3B21969  44.548  32.860   7.950
 5931POPC   C4B21970  44.558  32.800   7.650
 5932POPC   NC321971  15.997  31.432   9.450
 5932POPC   PO421972  15.915  31.426   9.150
 5932POPC   GL121973  15.936  31.431   8.850
 5932POPC   GL221974  15.949  31.638   8.850
 5932POPC   C1A21975  15.970  31.463   8.550
 5932POPC   D2A21976  15.969  31.437   8.250
 5932POPC   C3A21977  15.992  31.503   7.950
 5932POPC   C4A21978  16.002  31.497   7.650
 5932POPC   C1B21979  15.881  31.679   8.550
 5932POPC   C2B21980  15.851  31.662   8.250
 5932POPC   C3B21981  15.883  31.678   7.950
 5932POPC   C4B21982  15.897  31.687   7.650
 5933POPC   NC321983  38.409  10.541   9.450
 5933POPC   PO421984  38.475  10.504   9.150
 5933POPC   GL121985  38.489  10.551   8.850
 5933POPC   GL221986  38.528  10.571   8.850
 5933POPC   C1A21987  38.430  10.552   8.550
 5933POPC   D2A21988  38.478  10.562   8.250
 5933POPC   C3A21989  38.418  10.515   7.950
 5933POPC   C4A21990  38.489  10.558   7.650
 5933POPC   C1B21991  38.581  10.755   8.550
 5933POPC   C2B21992  38.640  10.761   8.250
 5933POPC   C3B21993  38.590  10.724   7.950
 5933POPC   C4B21994  38.653  10.746   7.650
 5934POPC   NC321995  22.199  13.630   9.450
 5934POPC   PO421996  22.159  13.596   9.150
 5934POPC   GL121997  22.147  13.667   8.850
 5934POPC   GL221998  22.305  13.647   8.850
 5934POPC   C1A21999  22.139  13.591   8.550
 5934POPC   D2A22000  22.202  13.630   8.250
 5934POPC   C3A22001  22.150  13.649   7.950
 5934POPC   C4A22002  22.159  13.584   7.650
 5934POPC   C1B22003  22.425  13.646   8.550
 5934POPC   C2B22004  22.457  13.632   8.250
 5934POPC   C3B22005  22.393  13.680   7.950
 5934POPC   C4B22006  22.395  13.699   7.650
 5935POPC   NC322007  32.209   6.687   9.450
 5935POPC   PO422008  32.285   6.613   9.150
 5935POPC   GL122009  32.222   6.670   8.850
 5935POPC   GL222010  32.222   6.498   8.850
 5935POPC   C1A22011  32.204   6.661   8.550
 5935POPC   D2A22012  32.241   6.613   8.250
 5935POPC   C3A22013  32.252   6.693   7.950
 5935POPC   C4A22014  32.236   6.617   7.650
 5935POPC   C1B22015  32.280   6.398   8.550
 5935POPC   C2B22016  32.293   6.392   8.250
 5935POPC   C3B22017  32.236   6.394   7.950
 5935POPC   C4B22018  32.251   6.350   7.650
 5936POPC   NC322019  23.686  43.886   9.450
 5936POPC   PO422020  23.698  43.854   9.150
 5936POPC   GL122021  23.723  43.923   8.850
 5936POPC   GL222022  23.810  43.763   8.850
 5936POPC   C1A22023  23.703  43.887   8.550
 5936POPC   D2A22024  23.735  43.917   8.250
 5936POPC   C3A22025  23.709  43.922   7.950
 5936POPC   C4A22026  23.751  43.890   7.650
 5936POPC   C1B22027  23.910  43.695   8.550
 5936POPC   C2B22028  23.839  43.642   8.250
 5936POPC   C3B22029  23.875  43.686   7.950
 5936POPC   C4B22030  23.873  43.703   7.650
 5937POPC   NC322031  15.921  38.485   9.450
 5937POPC   PO422032  15.937  38.477   9.150
 5937POPC   GL122033  15.916  38.421   8.850
 5937POPC   GL222034  16.048  38.497   8.850
 5937POPC   C1A22035  15.954  38.416   8.550
 5937POPC   D2A22036  15.965  38.456   8.250
 5937POPC   C3A22037  15.971  38.475   7.950
 5937POPC   C4A22038  15.923  38.432   7.650
 5937POPC   C1B22039  16.148  38.520   8.550
 5937POPC   C2B22040  16.185  38.601   8.250
 5937POPC   C3B22041  16.133  38.590   7.950
 5937POPC   C4B22042  16.183  38.538   7.650
 5938POPC   NC322043  43.857   0.482   9.450
 5938POPC   PO422044  43.907   0.392   9.150
 5938POPC   GL122045  43.885   0.394   8.850
 5938POPC   GL222046  43.924   0.510   8.850
 5938POPC   C1A22047  43.882   0.441   8.550
 5938POPC   D2A22048  43.896   0.459   8.250
 5938POPC   C3A22049  43.897   0.421   7.950
 5938POPC   C4A22050  43.930   0.476   7.650
 5938POPC   C1B22051  44.002   0.657   8.550
 5938POPC   C2B22052  43.970   0.700   8.250
 5938POPC   C3B22053  43.988   0.647   7.950
 5938POPC   C4B22054  43.963   0.660   7.650
 5939POPC   NC322055  38.407   8.153   9.450
 5939POPC   PO422056  38.495   8.174   9.150
 5939POPC   GL122057  38.465   8.236   8.850
 5939POPC   GL222058  38.626   8.173   8.850
 5939POPC   C1A22059  38.485   8.162   8.550
 5939POPC   D2A22060  38.452   8.170   8.250
 5939POPC   C3A22061  38.503   8.165   7.950
 5939POPC   C4A22062  38.429   8.232   7.650
 5939POPC   C1B22063  38.695   8.183   8.550
 5939POPC   C2B22064  38.725   8.145   8.250
 5939POPC   C3B22065  38.691   8.139   7.950
 5939POPC   C4B22066  38.686   8.153   7.650
 5940POPC   NC322067  26.031  32.202   9.450
 5940POPC   PO422068  25.995  32.274   9.150
 5940POPC   GL122069  26.076  32.245   8.850
 5940POPC   GL222070  25.935  32.337   8.850
 5940POPC   C1A22071  26.075  32.273   8.550
 5940POPC   D2A22072  25.996  32.228   8.250
 5940POPC   C3A22073  26.091  32.201   7.950
 5940POPC   C4A22074  26.033  32.292   7.650
 5940POPC   C1B22075  25.830  32.384   8.550
 5940POPC   C2B22076  25.803  32.388   8.250
 5940POPC   C3B22077  25.809  32.384   7.950
 5940POPC   C4B22078  25.824  32.386   7.650
 5941POPC   NC322079  20.611  42.321   9.450
 5941POPC   PO422080  20.592  42.335   9.150
 5941POPC   GL122081  20.566  42.337   8.850
 5941POPC   GL222082  20.561  42.269   8.850
 5941POPC   C1A22083  20.650  42.321   8.550
 5941POPC   D2A22084  20.565  42.354   8.250
 5941POPC   C3A22085  20.614  42.295   7.950
 5941POPC   C4A22086  20.613  42.342   7.650
 5941POPC   C1B22087  20.481  42.155   8.550
 5941POPC   C2B22088  20.439  42.171   8.250
 5941POPC   C3B22089  20.486  42.118   7.950
 5941POPC   C4B22090  20.493  42.109   7.650
 5942POPC   NC322091  39.217   3.556   9.450
 5942POPC   PO422092  39.190   3.500   9.150
 5942POPC   GL122093  39.252   3.568   8.850
 5942POPC   GL222094  39.263   3.631   8.850
 5942POPC   C1A22095  39.195   3.565   8.550
 5942POPC   D2A22096  39.231   3.522   8.250
 5942POPC   C3A22097  39.275   3.564   7.950
 5942POPC   C4A22098  39.189   3.494   7.650
 5942POPC   C1B22099  39.242   3.745   8.550
 5942POPC   C2B22100  39.249   3.756   8.250
 5942POPC   C3B22101  39.224   3.829   7.950
 5942POPC   C4B22102  39.284   3.738   7.650
 5943POPC   NC322103  43.138  26.790   9.450
 5943POPC   PO422104  43.067  26.825   9.150
 5943POPC   GL122105  43.126  26.784   8.850
 5943POPC   GL222106  43.189  26.772   8.850
 5943POPC   C1A22107  43.106  26.788   8.550
 5943POPC   D2A22108  43.090  26.796   8.250
 5943POPC   C3A22109  43.070  26.790   7.950
 5943POPC   C4A22110  43.064  26.841   7.650
 5943POPC   C1B22111  43.323  26.776   8.550
 5943POPC   C2B22112  43.351  26.757   8.250
 5943POPC   C3B22113  43.328  26.801   7.950
 5943POPC   C4B22114  43.382  26.758   7.650
 5944POPC   NC322115   6.670  36.927   9.450
 5944POPC   PO422116   6.616  36.952   9.150
 5944POPC   GL122117   6.693  36.924   8.850
 5944POPC   GL222118   6.715  36.782   8.850
 5944POPC   C1A22119   6.603  36.900   8.550
 5944POPC   D2A22120   6.665  36.881   8.250
 5944POPC   C3A22121   6.690  36.901   7.950
 5944POPC   C4A22122   6.651  36.952   7.650
 5944POPC   C1B22123   6.815  36.721   8.550
 5944POPC   C2B22124   6.841  36.713   8.250
 5944POPC   C3B22125   6.790  36.702   7.950
 5944POPC   C4B22126   6.788  36.721   7.650
 5945POPC   NC322127   2.802  41.561   9.450
 5945POPC   PO422128   2.758  41.593   9.150
 5945POPC   GL122129   2.731  41.547   8.850
 5945POPC   GL222130   2.715  41.421   8.850
 5945POPC   C1A22131   2.753  41.550   8.550
 5945POPC   D2A22132   2.814  41.577   8.250
 5945POPC   C3A22133   2.793  41.568   7.950
 5945POPC   C4A22134   2.787  41.608   7.650
 5945POPC   C1B22135   2.719  41.293   8.550
 5945POPC   C2B22136   2.765  41.338   8.250
 5945POPC   C3B22137   2.733  41.326   7.950
 5945POPC   C4B22138   2.682  41.278   7.650
 5946POPC   NC322139  31.459  44.625   9.450
 5946POPC   PO422140  31.516  44.614   9.150
 5946POPC   GL122141  31.473  44.698   8.850
 5946POPC   GL222142  31.423  44.781   8.850
 5946POPC   C1A22143  31.437  44.665   8.550
 5946POPC   D2A22144  31.472  44.620   8.250
 5946POPC   C3A22145  31.476  44.626   7.950
 5946POPC   C4A22146  31.522  44.681   7.650
 5946POPC   C1B22147  31.333  44.863   8.550
 5946POPC   C2B22148  31.325  44.860   8.250
 5946POPC   C3B22149  31.357  44.821   7.950
 5946POPC   C4B22150  31.309  44.891   7.650
 5947POPC   NC322151  22.120  40.758   9.450
 5947POPC   PO422152  22.205  40.820   9.150
 5947POPC   GL122153  22.201  40.821   8.850
 5947POPC   GL222154  22.267  40.907   8.850
 5947POPC   C1A22155  22.167  40.832   8.550
 5947POPC   D2A22156  22.197  40.791   8.250
 5947POPC   C3A22157  22.132  40.824   7.950
 5947POPC   C4A22158  22.123  40.781   7.650
 5947POPC   C1B22159  22.243  41.009   8.550
 5947POPC   C2B22160  22.257  41.001   8.250
 5947POPC   C3B22161  22.321  40.969   7.950
 5947POPC   C4B22162  22.253  40.962   7.650
 5948POPC   NC322163   9.699  31.461   9.450
 5948POPC   PO422164   9.767  31.431   9.150
 5948POPC   GL122165   9.772  31.476   8.850
 5948POPC   GL222166   9.900  31.444   8.850
 5948POPC   C1A22167   9.763  31.447   8.550
 5948POPC   D2A22168   9.768  31.447   8.250
 5948POPC   C3A22169   9.721  31.487   7.950
 5948POPC   C4A22170   9.710  31.470   7.650
 5948POPC   C1B22171  10.001  31.326   8.550
 5948POPC   C2B22172   9.975  31.391   8.250
 5948POPC   C3B22173   9.971  31.346   7.950
 5948POPC   C4B22174   9.933  31.381   7.650
 5949POPC   NC322175  23.739   8.232   9.450
 5949POPC   PO422176  23.694   8.236   9.150
 5949POPC   GL122177  23.746   8.156   8.850
 5949POPC   GL222178  23.613   8.220   8.850
 5949POPC   C1A22179  23.682   8.166   8.550
 5949POPC   D2A22180  23.717   8.185   8.250
 5949POPC   C3A22181  23.698   8.174   7.950
 5949POPC   C4A22182  23.725   8.179   7.650
 5949POPC   C1B22183  23.474   8.258   8.550
 5949POPC   C2B22184  23.454   8.252   8.250
 5949POPC   C3B22185  23.471   8.329   7.950
 5949POPC   C4B22186  23.521   8.300   7.650
 5950POPC   NC322187  30.695  12.031   9.450
 5950POPC   PO422188  30.688  12.099   9.150
 5950POPC   GL122189  30.743  12.093   8.850
 5950POPC   GL222190  30.801  12.115   8.850
 5950POPC   C1A22191  30.732  12.108   8.550
 5950POPC   D2A22192  30.687  12.059   8.250
 5950POPC   C3A22193  30.658  12.031   7.950
 5950POPC   C4A22194  30.669  12.027   7.650
 5950POPC   C1B22195  30.925  12.017   8.550
 5950POPC   C2B22196  30.962  12.098   8.250
 5950POPC   C3B22197  30.903  12.024   7.950
 5950POPC   C4B22198  30.977  12.088   7.650
 5951POPC   NC322199  31.502  24.478   9.450
 5951POPC   PO422200  31.512  24.525   9.150
 5951POPC   GL122201  31.496  24.526   8.850
 5951POPC   GL222202  31.420  24.634   8.850
 5951POPC   C1A22203  31.431  24.443   8.550
 5951POPC   D2A22204  31.448  24.462   8.250
 5951POPC   C3A22205  31.520  24.470   7.950
 5951POPC   C4A22206  31.494  24.442   7.650
 5951POPC   C1B22207  31.293  24.722   8.550
 5951POPC   C2B22208  31.343  24.670   8.250
 5951POPC   C3B22209  31.305  24.685   7.950
 5951POPC   C4B22210  31.326  24.702   7.650
 5952POPC   NC322211   7.371  31.449   9.450
 5952POPC   PO422212   7.453  31.514   9.150
 5952POPC   GL122213   7.388  31.513   8.850
 5952POPC   GL222214   7.318  31.469   8.850
 5952POPC   C1A22215   7.463  31.428   8.550
 5952POPC   D2A22216   7.415  31.475   8.250
 5952POPC   C3A22217   7.390  31.491   7.950
 5952POPC   C4A22218   7.413  31.428   7.650
 5952POPC   C1B22219   7.188  31.524   8.550
 5952POPC   C2B22220   7.126  31.478   8.250
 5952POPC   C3B22221   7.201  31.515   7.950
 5952POPC   C4B22222   7.160  31.515   7.650
 5953POPC   NC322223  29.937   8.156   9.450
 5953POPC   PO422224  29.900   8.245   9.150
 5953POPC   GL122225  29.945   8.223   8.850
 5953POPC   GL222226  30.024   8.295   8.850
 5953POPC   C1A22227  29.953   8.155   8.550
 5953POPC   D2A22228  29.871   8.226   8.250
 5953POPC   C3A22229  29.965   8.161   7.950
 5953POPC   C4A22230  29.905   8.185   7.650
 5953POPC   C1B22231  30.008   8.456   8.550
 5953POPC   C2B22232  30.085   8.409   8.250
 5953POPC   C3B22233  30.018   8.423   7.950
 5953POPC   C4B22234  30.046   8.460   7.650
 5954POPC   NC322235  22.929  18.326   9.450
 5954POPC   PO422236  22.967  18.292   9.150
 5954POPC   GL122237  22.892  18.259   8.850
 5954POPC   GL222238  23.005  18.392   8.850
 5954POPC   C1A22239  22.916  18.248   8.550
 5954POPC   D2A22240  22.891  18.273   8.250
 5954POPC   C3A22241  22.971  18.281   7.950
 5954POPC   C4A22242  22.939  18.305   7.650
 5954POPC   C1B22243  23.066  18.449   8.550
 5954POPC   C2B22244  23.060  18.523   8.250
 5954POPC   C3B22245  23.047  18.471   7.950
 5954POPC   C4B22246  23.073  18.526   7.650
 5955POPC   NC322247  28.406  27.576   9.450
 5955POPC   PO422248  28.380  27.578   9.150
 5955POPC   GL122249  28.407  27.563   8.850
 5955POPC   GL222250  28.302  27.434   8.850
 5955POPC   C1A22251  28.412  27.556   8.550
 5955POPC   D2A22252  28.349  27.610   8.250
 5955POPC   C3A22253  28.362  27.566   7.950
 5955POPC   C4A22254  28.337  27.592   7.650
 5955POPC   C1B22255  28.310  27.347   8.550
 5955POPC   C2B22256  28.323  27.357   8.250
 5955POPC   C3B22257  28.272  27.404   7.950
 5955POPC   C4B22258  28.321  27.380   7.650
 5956POPC   NC322259  19.097   2.039   9.450
 5956POPC   PO422260  19.063   1.981   9.150
 5956POPC   GL122261  19.014   2.007   8.850
 5956POPC   GL222262  19.090   1.873   8.850
 5956POPC   C1A22263  19.107   2.003   8.550
 5956POPC   D2A22264  19.010   2.006   8.250
 5956POPC   C3A22265  19.025   1.960   7.950
 5956POPC   C4A22266  19.062   2.027   7.650
 5956POPC   C1B22267  19.106   1.718   8.550
 5956POPC   C2B22268  19.124   1.735   8.250
 5956POPC   C3B22269  19.091   1.741   7.950
 5956POPC   C4B22270  19.123   1.766   7.650
 5957POPC   NC322271  36.105   1.171   9.450
 5957POPC   PO422272  36.111   1.238   9.150
 5957POPC   GL122273  36.164   1.255   8.850
 5957POPC   GL222274  36.198   1.189   8.850
 5957POPC   C1A22275  36.177   1.207   8.550
 5957POPC   D2A22276  36.129   1.254   8.250
 5957POPC   C3A22277  36.091   1.221   7.950
 5957POPC   C4A22278  36.131   1.192   7.650
 5957POPC   C1B22279  36.383   1.125   8.550
 5957POPC   C2B22280  36.344   1.112   8.250
 5957POPC   C3B22281  36.367   1.159   7.950
 5957POPC   C4B22282  36.395   1.153   7.650
 5958POPC   NC322283  28.367  14.420   9.450
 5958POPC   PO422284  28.353  14.395   9.150
 5958POPC   GL122285  28.345  14.380   8.850
 5958POPC   GL222286  28.425  14.367   8.850
 5958POPC   C1A22287  28.399  14.446   8.550
 5958POPC   D2A22288  28.407  14.436   8.250
 5958POPC   C3A22289  28.344  14.398   7.950
 5958POPC   C4A22290  28.367  14.404   7.650
 5958POPC   C1B22291  28.559  14.246   8.550
 5958POPC   C2B22292  28.571  14.259   8.250
 5958POPC   C3B22293  28.582  14.230   7.950
 5958POPC   C4B22294  28.583  14.270   7.650
 5959POPC   NC322295  20.654  17.549   9.450
 5959POPC   PO422296  20.582  17.482   9.150
 5959POPC   GL122297  20.609  17.517   8.850
 5959POPC   GL222298  20.465  17.550   8.850
 5959POPC   C1A22299  20.610  17.482   8.550
 5959POPC   D2A22300  20.591  17.537   8.250
 5959POPC   C3A22301  20.654  17.468   7.950
 5959POPC   C4A22302  20.566  17.464   7.650
 5959POPC   C1B22303  20.379  17.512   8.550
 5959POPC   C2B22304  20.361  17.462   8.250
 5959POPC   C3B22305  20.410  17.506   7.950
 5959POPC   C4B22306  20.406  17.511   7.650
 5960POPC   NC322307   7.397  24.513   9.450
 5960POPC   PO422308   7.384  24.528   9.150
 5960POPC   GL122309   7.374  24.483   8.850
 5960POPC   GL222310   7.512  24.537   8.850
 5960POPC   C1A22311   7.403  24.452   8.550
 5960POPC   D2A22312   7.387  24.475   8.250
 5960POPC   C3A22313   7.454  24.466   7.950
 5960POPC   C4A22314   7.396  24.538   7.650
 5960POPC   C1B22315   7.690  24.545   8.550
 5960POPC   C2B22316   7.637  24.496   8.250
 5960POPC   C3B22317   7.624  24.542   7.950
 5960POPC   C4B22318   7.693  24.508   7.650
 5961POPC   NC322319  33.062  28.346   9.450
 5961POPC   PO422320  33.057  28.393   9.150
 5961POPC   GL122321  32.997  28.337   8.850
 5961POPC   GL222322  33.138  28.407   8.850
 5961POPC   C1A22323  33.005  28.327   8.550
 5961POPC   D2A22324  33.013  28.349   8.250
 5961POPC   C3A22325  33.065  28.397   7.950
 5961POPC   C4A22326  32.998  28.387   7.650
 5961POPC   C1B22327  33.230  28.496   8.550
 5961POPC   C2B22328  33.254  28.527   8.250
 5961POPC   C3B22329  33.221  28.506   7.950
 5961POPC   C4B22330  33.199  28.517   7.650
 5962POPC   NC322331  14.354  32.278   9.450
 5962POPC   PO422332  14.432  32.297   9.150
 5962POPC   GL122333  14.372  32.248   8.850
 5962POPC   GL222334  14.495  32.198   8.850
 5962POPC   C1A22335  14.445  32.238   8.550
 5962POPC   D2A22336  14.380  32.288   8.250
 5962POPC   C3A22337  14.393  32.235   7.950
 5962POPC   C4A22338  14.417  32.247   7.650
 5962POPC   C1B22339  14.658  32.199   8.550
 5962POPC   C2B22340  14.633  32.196   8.250
 5962POPC   C3B22341  14.626  32.188   7.950
 5962POPC   C4B22342  14.658  32.166   7.650
 5963POPC   NC322343   5.875   4.293   9.450
 5963POPC   PO422344   5.842   4.321   9.150
 5963POPC   GL122345   5.860   4.288   8.850
 5963POPC   GL222346   6.028   4.317   8.850
 5963POPC   C1A22347   5.847   4.359   8.550
 5963POPC   D2A22348   5.837   4.275   8.250
 5963POPC   C3A22349   5.886   4.309   7.950
 5963POPC   C4A22350   5.872   4.279   7.650
 5963POPC   C1B22351   6.079   4.286   8.550
 5963POPC   C2B22352   6.106   4.266   8.250
 5963POPC   C3B22353   6.082   4.223   7.950
 5963POPC   C4B22354   6.096   4.236   7.650
 5964POPC   NC322355  36.879  18.250   9.450
 5964POPC   PO422356  36.859  18.321   9.150
 5964POPC   GL122357  36.858  18.320   8.850
 5964POPC   GL222358  36.980  18.224   8.850
 5964POPC   C1A22359  36.918  18.245   8.550
 5964POPC   D2A22360  36.904  18.234   8.250
 5964POPC   C3A22361  36.884  18.289   7.950
 5964POPC   C4A22362  36.917  18.249   7.650
 5964POPC   C1B22363  37.134  18.300   8.550
 5964POPC   C2B22364  37.148  18.250   8.250
 5964POPC   C3B22365  37.144  18.244   7.950
 5964POPC   C4B22366  37.137  18.241   7.650
 5965POPC   NC322367  27.634   7.382   9.450
 5965POPC   PO422368  27.561   7.387   9.150
 5965POPC   GL122369  27.545   7.443   8.850
 5965POPC   GL222370  27.560   7.590   8.850
 5965POPC   C1A22371  27.616   7.463   8.550
 5965POPC   D2A22372  27.586   7.415   8.250
 5965POPC   C3A22373  27.584   7.372   7.950
 5965POPC   C4A22374  27.546   7.410   7.650
 5965POPC   C1B22375  27.592   7.620   8.550
 5965POPC   C2B22376  27.602   7.681   8.250
 5965POPC   C3B22377  27.575   7.685   7.950
 5965POPC   C4B22378  27.604   7.637   7.650
 5966POPC   NC322379  13.672   3.565   9.450
 5966POPC   PO422380  13.663   3.527   9.150
 5966POPC   GL122381  13.642   3.553   8.850
 5966POPC   GL222382  13.535   3.549   8.850
 5966POPC   C1A22383  13.583   3.588   8.550
 5966POPC   D2A22384  13.639   3.500   8.250
 5966POPC   C3A22385  13.654   3.513   7.950
 5966POPC   C4A22386  13.614   3.581   7.650
 5966POPC   C1B22387  13.384   3.649   8.550
 5966POPC   C2B22388  13.387   3.631   8.250
 5966POPC   C3B22389  13.392   3.616   7.950
 5966POPC   C4B22390  13.429   3.563   7.650
 5967POPC   NC322391  22.914  38.429   9.450
 5967POPC   PO422392  22.965  38.470   9.150
 5967POPC   GL122393  22.972  38.481   8.850
 5967POPC   GL222394  23.099  38.435   8.850
 5967POPC   C1A22395  22.987  38.467   8.550
 5967POPC   D2A22396  22.922  38.419   8.250
 5967POPC   C3A22397  22.925  38.451   7.950
 5967POPC   C4A22398  22.945  38.431   7.650
 5967POPC   C1B22399  23.186  38.356   8.550
 5967POPC   C2B22400  23.166  38.414   8.250
 5967POPC   C3B22401  23.173  38.336   7.950
 5967POPC   C4B22402  23.129  38.344   7.650
 5968POPC   NC322403  17.539  28.366   9.450
 5968POPC   PO422404  17.494  28.336   9.150
 5968POPC   GL122405  17.518  28.372   8.850
 5968POPC   GL222406  17.392  28.305   8.850
 5968POPC   C1A22407  17.457  28.347   8.550
 5968POPC   D2A22408  17.459  28.410   8.250
 5968POPC   C3A22409  17.495  28.409   7.950
 5968POPC   C4A22410  17.475  28.360   7.650
 5968POPC   C1B22411  17.270  28.380   8.550
 5968POPC   C2B22412  17.284  28.374   8.250
 5968POPC   C3B22413  17.304  28.326   7.950
 5968POPC   C4B22414  17.225  28.359   7.650
 5969POPC   NC322415  23.728  15.928   9.450
 5969POPC   PO422416  23.742  15.980   9.150
 5969POPC   GL122417  23.680  15.906   8.850
 5969POPC   GL222418  23.720  16.046   8.850
 5969POPC   C1A22419  23.738  15.913   8.550
 5969POPC   D2A22420  23.747  15.972   8.250
 5969POPC   C3A22421  23.739  15.973   7.950
 5969POPC   C4A22422  23.757  15.991   7.650
 5969POPC   C1B22423  23.774  16.228   8.550
 5969POPC   C2B22424  23.723  16.215   8.250
 5969POPC   C3B22425  23.739  16.226   7.950
 5969POPC   C4B22426  23.769  16.153   7.650
 5970POPC   NC322427  22.963  21.375   9.450
 5970POPC   PO422428  22.976  21.409   9.150
 5970POPC   GL122429  22.930  21.348   8.850
 5970POPC   GL222430  22.896  21.452   8.850
 5970POPC   C1A22431  22.926  21.397   8.550
 5970POPC   D2A22432  22.915  21.404   8.250
 5970POPC   C3A22433  22.893  21.378   7.950
 5970POPC   C4A22434  22.900  21.369   7.650
 5970POPC   C1B22435  22.851  21.616   8.550
 5970POPC   C2B22436  22.801  21.567   8.250
 5970POPC   C3B22437  22.810  21.564   7.950
 5970POPC   C4B22438  22.815  21.645   7.650
 5971POPC   NC322439   3.582  42.370   9.450
 5971POPC   PO422440   3.580  42.297   9.150
 5971POPC   GL122441   3.501  42.297   8.850
 5971POPC   GL222442   3.493  42.210   8.850
 5971POPC   C1A22443   3.520  42.316   8.550
 5971POPC   D2A22444   3.517  42.311   8.250
 5971POPC   C3A22445   3.559  42.312   7.950
 5971POPC   C4A22446   3.575  42.382   7.650
 5971POPC   C1B22447   3.427  42.135   8.550
 5971POPC   C2B22448   3.486  42.048   8.250
 5971POPC   C3B22449   3.512  42.120   7.950
 5971POPC   C4B22450   3.463  42.073   7.650
 5972POPC   NC322451   5.894  35.322   9.450
 5972POPC   PO422452   5.879  35.356   9.150
 5972POPC   GL122453   5.875  35.352   8.850
 5972POPC   GL222454   5.973  35.446   8.850
 5972POPC   C1A22455   5.827  35.367   8.550
 5972POPC   D2A22456   5.836  35.353   8.250
 5972POPC   C3A22457   5.858  35.302   7.950
 5972POPC   C4A22458   5.834  35.333   7.650
 5972POPC   C1B22459   6.063  35.586   8.550
 5972POPC   C2B22460   6.057  35.586   8.250
 5972POPC   C3B22461   5.976  35.566   7.950
 5972POPC   C4B22462   5.988  35.523   7.650
 5973POPC   NC322463  18.298  36.912   9.450
 5973POPC   PO422464  18.328  36.881   9.150
 5973POPC   GL122465  18.280  36.863   8.850
 5973POPC   GL222466  18.148  36.991   8.850
 5973POPC   C1A22467  18.244  36.909   8.550
 5973POPC   D2A22468  18.250  36.861   8.250
 5973POPC   C3A22469  18.291  36.871   7.950
 5973POPC   C4A22470  18.253  36.866   7.650
 5973POPC   C1B22471  18.058  36.968   8.550
 5973POPC   C2B22472  18.015  37.000   8.250
 5973POPC   C3B22473  18.035  37.038   7.950
 5973POPC   C4B22474  18.071  37.029   7.650
 5974POPC   NC322475  39.266  12.849   9.450
 5974POPC   PO422476  39.216  12.880   9.150
 5974POPC   GL122477  39.226  12.863   8.850
 5974POPC   GL222478  39.334  12.936   8.850
 5974POPC   C1A22479  39.210  12.892   8.550
 5974POPC   D2A22480  39.215  12.835   8.250
 5974POPC   C3A22481  39.216  12.827   7.950
 5974POPC   C4A22482  39.230  12.820   7.650
 5974POPC   C1B22483  39.490  12.948   8.550
 5974POPC   C2B22484  39.412  12.994   8.250
 5974POPC   C3B22485  39.410  12.996   7.950
 5974POPC   C4B22486  39.435  12.907   7.650
 5975POPC   NC322487  14.414   2.726   9.450
 5975POPC   PO422488  14.383   2.808   9.150
 5975POPC   GL122489  14.369   2.735   8.850
 5975POPC   GL222490  14.494   2.675   8.850
 5975POPC   C1A22491  14.424   2.724   8.550
 5975POPC   D2A22492  14.452   2.800   8.250
 5975POPC   C3A22493  14.422   2.752   7.950
 5975POPC   C4A22494  14.411   2.786   7.650
 5975POPC   C1B22495  14.562   2.640   8.550
 5975POPC   C2B22496  14.613   2.649   8.250
 5975POPC   C3B22497  14.591   2.639   7.950
 5975POPC   C4B22498  14.576   2.595   7.650
 5976POPC   NC322499  11.312  42.337   9.450
 5976POPC   PO422500  11.315  42.358   9.150
 5976POPC   GL122501  11.321  42.310   8.850
 5976POPC   GL222502  11.172  42.344   8.850
 5976POPC   C1A22503  11.256  42.347   8.550
 5976POPC   D2A22504  11.323  42.338   8.250
 5976POPC   C3A22505  11.309  42.301   7.950
 5976POPC   C4A22506  11.346  42.383   7.650
 5976POPC   C1B22507  11.035  42.269   8.550
 5976POPC   C2B22508  11.020  42.293   8.250
 5976POPC   C3B22509  11.035  42.290   7.950
 5976POPC   C4B22510  11.063  42.301   7.650
 5977POPC   NC322511  15.979  42.299   9.450
 5977POPC   PO422512  15.924  42.363   9.150
 5977POPC   GL122513  15.909  42.343   8.850
 5977POPC   GL222514  15.792  42.316   8.850
 5977POPC   C1A22515  15.933  42.291   8.550
 5977POPC   D2A22516  15.956  42.313   8.250
 5977POPC   C3A22517  15.993  42.295   7.950
 5977POPC   C4A22518  15.994  42.318   7.650
 5977POPC   C1B22519  15.739  42.237   8.550
 5977POPC   C2B22520  15.743  42.276   8.250
 5977POPC   C3B22521  15.711  42.275   7.950
 5977POPC   C4B22522  15.677  42.264   7.650
 5978POPC   NC322523   2.773  29.121   9.450
 5978POPC   PO422524   2.781  29.121   9.150
 5978POPC   GL122525   2.771  29.156   8.850
 5978POPC   GL222526   2.740  29.274   8.850
 5978POPC   C1A22527   2.771  29.116   8.550
 5978POPC   D2A22528   2.734  29.132   8.250
 5978POPC   C3A22529   2.784  29.177   7.950
 5978POPC   C4A22530   2.778  29.170   7.650
 5978POPC   C1B22531   2.754  29.370   8.550
 5978POPC   C2B22532   2.748  29.391   8.250
 5978POPC   C3B22533   2.822  29.432   7.950
 5978POPC   C4B22534   2.747  29.382   7.650
 5979POPC   NC322535   1.190  19.876   9.450
 5979POPC   PO422536   1.168  19.882   9.150
 5979POPC   GL122537   1.182  19.876   8.850
 5979POPC   GL222538   1.223  19.955   8.850
 5979POPC   C1A22539   1.246  19.853   8.550
 5979POPC   D2A22540   1.237  19.786   8.250
 5979POPC   C3A22541   1.170  19.883   7.950
 5979POPC   C4A22542   1.230  19.818   7.650
 5979POPC   C1B22543   1.095  20.092   8.550
 5979POPC   C2B22544   1.147  20.073   8.250
 5979POPC   C3B22545   1.114  20.024   7.950
 5979POPC   C4B22546   1.153  20.056   7.650
 5980POPC   NC322547  32.219  20.613   9.450
 5980POPC   PO422548  32.268  20.579   9.150
 5980POPC   GL122549  32.291  20.593   8.850
 5980POPC   GL222550  32.161  20.707   8.850
 5980POPC   C1A22551  32.285  20.567   8.550
 5980POPC   D2A22552  32.278  20.564   8.250
 5980POPC   C3A22553  32.250  20.649   7.950
 5980POPC   C4A22554  32.288  20.585   7.650
 5980POPC   C1B22555  32.131  20.892   8.550
 5980POPC   C2B22556  32.207  20.835   8.250
 5980POPC   C3B22557  32.119  20.810   7.950
 5980POPC   C4B22558  32.181  20.816   7.650
 5981POPC   NC322559  19.030   8.925   9.450
 5981POPC   PO422560  19.099   9.021   9.150
 5981POPC   GL122561  19.092   8.967   8.850
 5981POPC   GL222562  19.183   9.001   8.850
 5981POPC   C1A22563  19.087   8.992   8.550
 5981POPC   D2A22564  19.040   8.943   8.250
 5981POPC   C3A22565  19.055   9.004   7.950
 5981POPC   C4A22566  19.080   9.010   7.650
 5981POPC   C1B22567  19.252   9.090   8.550
 5981POPC   C2B22568  19.281   9.047   8.250
 5981POPC   C3B22569  19.317   9.090   7.950
 5981POPC   C4B22570  19.252   9.080   7.650
 5982POPC   NC322571   7.410   4.364   9.450
 5982POPC   PO422572   7.416   4.326   9.150
 5982POPC   GL122573   7.447   4.337   8.850
 5982POPC   GL222574   7.499   4.289   8.850
 5982POPC   C1A22575   7.462   4.343   8.550
 5982POPC   D2A22576   7.377   4.329   8.250
 5982POPC   C3A22577   7.401   4.346   7.950
 5982POPC   C4A22578   7.400   4.362   7.650
 5982POPC   C1B22579   7.645   4.289   8.550
 5982POPC   C2B22580   7.683   4.259   8.250
 5982POPC   C3B22581   7.635   4.207   7.950
 5982POPC   C4B22582   7.621   4.222   7.650
 5983POPC   NC322583  25.245  15.936   9.450
 5983POPC   PO422584  25.225  15.962   9.150
 5983POPC   GL122585  25.303  15.971   8.850
 5983POPC   GL222586  25.375  15.844   8.850
 5983POPC   C1A22587  25.220  15.973   8.550
 5983POPC   D2A22588  25.307  15.918   8.250
 5983POPC   C3A22589  25.258  15.910   7.950
 5983POPC   C4A22590  25.301  15.966   7.650
 5983POPC   C1B22591  25.412  15.728   8.550
 5983POPC   C2B22592  25.424  15.786   8.250
 5983POPC   C3B22593  25.455  15.755   7.950
 5983POPC   C4B22594  25.388  15.769   7.650
 5984POPC   NC322595   4.290  14.358   9.450
 5984POPC   PO422596   4.273  14.429   9.150
 5984POPC   GL122597   4.328  14.368   8.850
 5984POPC   GL222598   4.171  14.320   8.850
 5984POPC   C1A22599   4.365  14.387   8.550
 5984POPC   D2A22600   4.270  14.448   8.250
 5984POPC   C3A22601   4.285  14.395   7.950
 5984POPC   C4A22602   4.356  14.429   7.650
 5984POPC   C1B22603   4.099  14.256   8.550
 5984POPC   C2B22604   4.091  14.286   8.250
 5984POPC   C3B22605   4.148  14.284   7.950
 5984POPC   C4B22606   4.116  14.231   7.650
 5985POPC   NC322607  39.984  41.562   9.450
 5985POPC   PO422608  40.007  41.552   9.150
 5985POPC   GL122609  40.011  41.558   8.850
 5985POPC   GL222610  39.888  41.512   8.850
 5985POPC   C1A22611  40.010  41.539   8.550
 5985POPC   D2A22612  40.021  41.555   8.250
 5985POPC   C3A22613  40.007  41.569   7.950
 5985POPC   C4A22614  40.005  41.556   7.650
 5985POPC   C1B22615  39.797  41.472   8.550
 5985POPC   C2B22616  39.762  41.454   8.250
 5985POPC   C3B22617  39.776  41.546   7.950
 5985POPC   C4B22618  39.745  41.513   7.650
 5986POPC   NC322619  27.596  17.488   9.450
 5986POPC   PO422620  27.553  17.542   9.150
 5986POPC   GL122621  27.631  17.472   8.850
 5986POPC   GL222622  27.743  17.574   8.850
 5986POPC   C1A22623  27.584  17.531   8.550
 5986POPC   D2A22624  27.620  17.550   8.250
 5986POPC   C3A22625  27.588  17.475   7.950
 5986POPC   C4A22626  27.590  17.461   7.650
 5986POPC   C1B22627  27.755  17.655   8.550
 5986POPC   C2B22628  27.803  17.632   8.250
 5986POPC   C3B22629  27.779  17.640   7.950
 5986POPC   C4B22630  27.830  17.635   7.650
 5987POPC   NC322631  44.632  36.884   9.450
 5987POPC   PO422632  44.645  36.904   9.150
 5987POPC   GL122633  44.660  36.886   8.850
 5987POPC   GL222634  44.709  36.982   8.850
 5987POPC   C1A22635  44.692  36.949   8.550
 5987POPC   D2A22636  44.692  36.892   8.250
 5987POPC   C3A22637  44.668  36.887   7.950
 5987POPC   C4A22638  44.638  36.919   7.650
 5987POPC   C1B22639  44.763  37.135   8.550
 5987POPC   C2B22640  44.760  37.130   8.250
 5987POPC   C3B22641  44.849  37.108   7.950
 5987POPC   C4B22642  44.777  37.108   7.650
 5988POPC   NC322643  15.202  33.822   9.450
 5988POPC   PO422644  15.148  33.848   9.150
 5988POPC   GL122645  15.181  33.766   8.850
 5988POPC   GL222646  15.206  33.872   8.850
 5988POPC   C1A22647  15.144  33.790   8.550
 5988POPC   D2A22648  15.215  33.779   8.250
 5988POPC   C3A22649  15.182  33.833   7.950
 5988POPC   C4A22650  15.213  33.794   7.650
 5988POPC   C1B22651  15.306  34.039   8.550
 5988POPC   C2B22652  15.234  34.041   8.250
 5988POPC   C3B22653  15.229  34.063   7.950
 5988POPC   C4B22654  15.258  34.050   7.650
 5989POPC   NC322655  28.396  18.325   9.450
 5989POPC   PO422656  28.377  18.244   9.150
 5989POPC   GL122657  28.382  18.282   8.850
 5989POPC   GL222658  28.502  18.338   8.850
 5989POPC   C1A22659  28.389  18.256   8.550
 5989POPC   D2A22660  28.416  18.312   8.250
 5989POPC   C3A22661  28.401  18.268   7.950
 5989POPC   C4A22662  28.409  18.292   7.650
 5989POPC   C1B22663  28.633  18.352   8.550
 5989POPC   C2B22664  28.600  18.328   8.250
 5989POPC   C3B22665  28.628  18.390   7.950
 5989POPC   C4B22666  28.653  18.371   7.650
 5990POPC   NC322667  13.595  29.188   9.450
 5990POPC   PO422668  13.661  29.188   9.150
 5990POPC   GL122669  13.663  29.097   8.850
 5990POPC   GL222670  13.526  29.263   8.850
 5990POPC   C1A22671  13.671  29.143   8.550
 5990POPC   D2A22672  13.645  29.113   8.250
 5990POPC   C3A22673  13.670  29.153   7.950
 5990POPC   C4A22674  13.666  29.178   7.650
 5990POPC   C1B22675  13.555  29.367   8.550
 5990POPC   C2B22676  13.528  29.346   8.250
 5990POPC   C3B22677  13.545  29.417   7.950
 5990POPC   C4B22678  13.484  29.361   7.650
 5991POPC   NC322679  17.483  32.252   9.450
 5991POPC   PO422680  17.476  32.276   9.150
 5991POPC   GL122681  17.473  32.233   8.850
 5991POPC   GL222682  17.549  32.337   8.850
 5991POPC   C1A22683  17.538  32.227   8.550
 5991POPC   D2A22684  17.501  32.206   8.250
 5991POPC   C3A22685  17.540  32.254   7.950
 5991POPC   C4A22686  17.539  32.276   7.650
 5991POPC   C1B22687  17.529  32.521   8.550
 5991POPC   C2B22688  17.569  32.475   8.250
 5991POPC   C3B22689  17.505  32.528   7.950
 5991POPC   C4B22690  17.542  32.509   7.650
 5992POPC   NC322691  38.436  44.697   9.450
 5992POPC   PO422692  38.448  44.655   9.150
 5992POPC   GL122693  38.438  44.633   8.850
 5992POPC   GL222694  38.537  44.539   8.850
 5992POPC   C1A22695  38.461  44.703   8.550
 5992POPC   D2A22696  38.499  44.687   8.250
 5992POPC   C3A22697  38.502  44.653   7.950
 5992POPC   C4A22698  38.499  44.624   7.650
 5992POPC   C1B22699  38.547  44.486   8.550
 5992POPC   C2B22700  38.615  44.500   8.250
 5992POPC   C3B22701  38.596  44.467   7.950
 5992POPC   C4B22702  38.602  44.431   7.650
 5993POPC   NC322703  25.222   2.785   9.450
 5993POPC   PO422704  25.220   2.791   9.150
 5993POPC   GL122705  25.220   2.743   8.850
 5993POPC   GL222706  25.224   2.900   8.850
 5993POPC   C1A22707  25.257   2.775   8.550
 5993POPC   D2A22708  25.265   2.784   8.250
 5993POPC   C3A22709  25.274   2.721   7.950
 5993POPC   C4A22710  25.278   2.777   7.650
 5993POPC   C1B22711  25.112   3.035   8.550
 5993POPC   C2B22712  25.194   2.953   8.250
 5993POPC   C3B22713  25.208   3.035   7.950
 5993POPC   C4B22714  25.193   2.950   7.650
 5994POPC   NC322715  10.541  37.699   9.450
 5994POPC   PO422716  10.542  37.666   9.150
 5994POPC   GL122717  10.566  37.636   8.850
 5994POPC   GL222718  10.409  37.733   8.850
 5994POPC   C1A22719  10.484  37.648   8.550
 5994POPC   D2A22720  10.532  37.648   8.250
 5994POPC   C3A22721  10.569  37.655   7.950
 5994POPC   C4A22722  10.528  37.643   7.650
 5994POPC   C1B22723  10.339  37.837   8.550
 5994POPC   C2B22724  10.318  37.825   8.250
 5994POPC   C3B22725  10.308  37.748   7.950
 5994POPC   C4B22726  10.255  37.832   7.650
 5995POPC   NC322727  16.750  37.707   9.450
 5995POPC   PO422728  16.747  37.688   9.150
 5995POPC   GL122729  16.740  37.644   8.850
 5995POPC   GL222730  16.748  37.758   8.850
 5995POPC   C1A22731  16.749  37.668   8.550
 5995POPC   D2A22732  16.767  37.698   8.250
 5995POPC   C3A22733  16.695  37.671   7.950
 5995POPC   C4A22734  16.741  37.639   7.650
 5995POPC   C1B22735  16.667  37.916   8.550
 5995POPC   C2B22736  16.693  37.933   8.250
 5995POPC   C3B22737  16.668  37.906   7.950
 5995POPC   C4B22738  16.704  37.898   7.650
 5996POPC   NC322739  19.815  37.704   9.450
 5996POPC   PO422740  19.803  37.685   9.150
 5996POPC   GL122741  19.857  37.714   8.850
 5996POPC   GL222742  19.754  37.634   8.850
 5996POPC   C1A22743  19.802  37.716   8.550
 5996POPC   D2A22744  19.850  37.720   8.250
 5996POPC   C3A22745  19.863  37.640   7.950
 5996POPC   C4A22746  19.880  37.703   7.650
 5996POPC   C1B22747  19.637  37.582   8.550
 5996POPC   C2B22748  19.553  37.654   8.250
 5996POPC   C3B22749  19.592  37.585   7.950
 5996POPC   C4B22750  19.576  37.640   7.650
 5997POPC   NC322751   6.693  37.659   9.450
 5997POPC   PO422752   6.665  37.686   9.150
 5997POPC   GL122753   6.659  37.630   8.850
 5997POPC   GL222754   6.699  37.749   8.850
 5997POPC   C1A22755   6.664  37.633   8.550
 5997POPC   D2A22756   6.683  37.649   8.250
 5997POPC   C3A22757   6.686  37.714   7.950
 5997POPC   C4A22758   6.673  37.689   7.650
 5997POPC   C1B22759   6.730  37.874   8.550
 5997POPC   C2B22760   6.730  37.924   8.250
 5997POPC   C3B22761   6.781  37.872   7.950
 5997POPC   C4B22762   6.811  37.938   7.650
 5998POPC   NC322763  23.729  42.297   9.450
 5998POPC   PO422764  23.737  42.340   9.150
 5998POPC   GL122765  23.721  42.285   8.850
 5998POPC   GL222766  23.851  42.288   8.850
 5998POPC   C1A22767  23.742  42.321   8.550
 5998POPC   D2A22768  23.731  42.359   8.250
 5998POPC   C3A22769  23.739  42.334   7.950
 5998POPC   C4A22770  23.751  42.371   7.650
 5998POPC   C1B22771  23.931  42.218   8.550
 5998POPC   C2B22772  23.976  42.219   8.250
 5998POPC   C3B22773  23.901  42.216   7.950
 5998POPC   C4B22774  23.898  42.188   7.650
 5999POPC   NC322775  15.190  42.295   9.450
 5999POPC   PO422776  15.168  42.355   9.150
 5999POPC   GL122777  15.176  42.373   8.850
 5999POPC   GL222778  15.328  42.311   8.850
 5999POPC   C1A22779  15.215  42.323   8.550
 5999POPC   D2A22780  15.142  42.313   8.250
 5999POPC   C3A22781  15.219  42.295   7.950
 5999POPC   C4A22782  15.201  42.285   7.650
 5999POPC   C1B22783  15.407  42.276   8.550
 5999POPC   C2B22784  15.424  42.220   8.250
 5999POPC   C3B22785  15.451  42.262   7.950
 5999POPC   C4B22786  15.392  42.223   7.650
 6000POPC   NC322787  16.749  36.097   9.450
 6000POPC   PO422788  16.737  36.110   9.150
 6000POPC   GL122789  16.717  36.125   8.850
 6000POPC   GL222790  16.639  36.092   8.850
 6000POPC   C1A22791  16.701  36.142   8.550
 6000POPC   D2A22792  16.694  36.135   8.250
 6000POPC   C3A22793  16.703  36.136   7.950
 6000POPC   C4A22794  16.721  36.079   7.650
 6000POPC   C1B22795  16.520  36.039   8.550
 6000POPC   C2B22796  16.515  36.102   8.250
 6000POPC   C3B22797  16.542  36.078   7.950
 6000POPC   C4B22798  16.483  36.005   7.650
 6001POPC   NC322799  10.477  18.245   9.450
 6001POPC   PO422800  10.533  18.247   9.150
 6001POPC   GL122801  10.573  18.269   8.850
 6001POPC   GL222802  10.500  18.398   8.850
 6001POPC   C1A22803  10.478  18.260   8.550
 6001POPC   D2A22804  10.555  18.324   8.250
 6001POPC   C3A22805  10.508  18.320   7.950
 6001POPC   C4A22806  10.564  18.329   7.650
 6001POPC   C1B22807  10.478  18.491   8.550
 6001POPC   C2B22808  10.514  18.550   8.250
 6001POPC   C3B22809  10.428  18.477   7.950
 6001POPC   C4B22810  10.467  18.500   7.650
 6002POPC   NC322811  30.706  44.612   9.450
 6002POPC   PO422812  30.680  44.700   9.150
 6002POPC   GL122813  30.657  44.612   8.850
 6002POPC   GL222814  30.859  44.724   8.850
 6002POPC   C1A22815  30.724  44.695   8.550
 6002POPC   D2A22816  30.672  44.701   8.250
 6002POPC   C3A22817  30.712  44.686   7.950
 6002POPC   C4A22818  30.661  44.707   7.650
 6002POPC   C1B22819  30.971  44.805   8.550
 6002POPC   C2B22820  30.959  44.757   8.250
 6002POPC   C3B22821  30.936  44.763   7.950
 6002POPC   C4B22822  30.933  44.720   7.650
 6003POPC   NC322823  41.523  34.600   9.450
 6003POPC   PO422824  41.538  34.593   9.150
 6003POPC   GL122825  41.586  34.607   8.850
 6003POPC   GL222826  41.639  34.548   8.850
 6003POPC   C1A22827  41.514  34.528   8.550
 6003POPC   D2A22828  41.578  34.574   8.250
 6003POPC   C3A22829  41.536  34.561   7.950
 6003POPC   C4A22830  41.552  34.617   7.650
 6003POPC   C1B22831  41.766  34.486   8.550
 6003POPC   C2B22832  41.798  34.495   8.250
 6003POPC   C3B22833  41.735  34.494   7.950
 6003POPC   C4B22834  41.801  34.507   7.650
 6004POPC   NC322835  22.905   8.158   9.450
 6004POPC   PO422836  22.987   8.173   9.150
 6004POPC   GL122837  22.967   8.245   8.850
 6004POPC   GL222838  22.873   8.090   8.850
 6004POPC   C1A22839  22.926   8.167   8.550
 6004POPC   D2A22840  22.945   8.194   8.250
 6004POPC   C3A22841  22.895   8.221   7.950
 6004POPC   C4A22842  22.953   8.228   7.650
 6004POPC   C1B22843  22.817   8.012   8.550
 6004POPC   C2B22844  22.830   7.922   8.250
 6004POPC   C3B22845  22.837   7.964   7.950
 6004POPC   C4B22846  22.862   7.979   7.650
 6005POPC   NC322847  41.598  37.640   9.450
 6005POPC   PO422848  41.524  37.705   9.150
 6005POPC   GL122849  41.516  37.646   8.850
 6005POPC   GL222850  41.488  37.574   8.850
 6005POPC   C1A22851  41.534  37.658   8.550
 6005POPC   D2A22852  41.545  37.682   8.250
 6005POPC   C3A22853  41.598  37.721   7.950
 6005POPC   C4A22854  41.534  37.635   7.650
 6005POPC   C1B22855  41.509  37.420   8.550
 6005POPC   C2B22856  41.501  37.474   8.250
 6005POPC   C3B22857  41.501  37.458   7.950
 6005POPC   C4B22858  41.558  37.417   7.650
 6006POPC   NC322859  15.970  29.147   9.450
 6006POPC   PO422860  15.938  29.173   9.150
 6006POPC   GL122861  15.915  29.172   8.850
 6006POPC   GL222862  15.898  29.023   8.850
 6006POPC   C1A22863  15.956  29.165   8.550
 6006POPC   D2A22864  15.913  29.183   8.250
 6006POPC   C3A22865  15.952  29.103   7.950
 6006POPC   C4A22866  16.001  29.191   7.650
 6006POPC   C1B22867  15.920  28.942   8.550
 6006POPC   C2B22868  15.878  28.873   8.250
 6006POPC   C3B22869  15.873  28.900   7.950
 6006POPC   C4B22870  15.927  28.858   7.650
 6007POPC   NC322871  19.836  36.106   9.450
 6007POPC   PO422872  19.855  36.107   9.150
 6007POPC   GL122873  19.854  36.125   8.850
 6007POPC   GL222874  19.900  36.001   8.850
 6007POPC   C1A22875  19.789  36.158   8.550
 6007POPC   D2A22876  19.843  36.126   8.250
 6007POPC   C3A22877  19.800  36.125   7.950
 6007POPC   C4A22878  19.795  36.121   7.650
 6007POPC   C1B22879  19.925  35.916   8.550
 6007POPC   C2B22880  19.935  35.918   8.250
 6007POPC   C3B22881  19.989  35.947   7.950
 6007POPC   C4B22882  20.021  35.922   7.650
 6008POPC   NC322883  29.169  15.194   9.450
 6008POPC   PO422884  29.190  15.229   9.150
 6008POPC   GL122885  29.175  15.195   8.850
 6008POPC   GL222886  29.160  15.248   8.850
 6008POPC   C1A22887  29.176  15.171   8.550
 6008POPC   D2A22888  29.095  15.130   8.250
 6008POPC   C3A22889  29.115  15.152   7.950
 6008POPC   C4A22890  29.114  15.196   7.650
 6008POPC   C1B22891  29.277  15.422   8.550
 6008POPC   C2B22892  29.270  15.441   8.250
 6008POPC   C3B22893  29.230  15.364   7.950
 6008POPC   C4B22894  29.218  15.417   7.650
 6009POPC   NC322895   6.669  25.246   9.450
 6009POPC   PO422896   6.601  25.292   9.150
 6009POPC   GL122897   6.599  25.217   8.850
 6009POPC   GL222898   6.602  25.327   8.850
 6009POPC   C1A22899   6.673  25.313   8.550
 6009POPC   D2A22900   6.597  25.238   8.250
 6009POPC   C3A22901   6.612  25.244   7.950
 6009POPC   C4A22902   6.639  25.265   7.650
 6009POPC   C1B22903   6.496  25.525   8.550
 6009POPC   C2B22904   6.504  25.473   8.250
 6009POPC   C3B22905   6.508  25.519   7.950
 6009POPC   C4B22906   6.501  25.497   7.650
 6010POPC   NC322907  41.583  36.106   9.450
 6010POPC   PO422908  41.587  36.086   9.150
 6010POPC   GL122909  41.556  36.097   8.850
 6010POPC   GL222910  41.485  36.028   8.850
 6010POPC   C1A22911  41.589  36.146   8.550
 6010POPC   D2A22912  41.547  36.157   8.250
 6010POPC   C3A22913  41.537  36.154   7.950
 6010POPC   C4A22914  41.559  36.141   7.650
 6010POPC   C1B22915  41.311  36.066   8.550
 6010POPC   C2B22916  41.298  36.018   8.250
 6010POPC   C3B22917  41.337  36.063   7.950
 6010POPC   C4B22918  41.360  36.048   7.650
 6011POPC   NC322919  41.553   1.967   9.450
 6011POPC   PO422920  41.563   2.013   9.150
 6011POPC   GL122921  41.565   1.952   8.850
 6011POPC   GL222922  41.564   2.085   8.850
 6011POPC   C1A22923  41.518   2.010   8.550
 6011POPC   D2A22924  41.520   2.016   8.250
 6011POPC   C3A22925  41.540   2.031   7.950
 6011POPC   C4A22926  41.543   1.973   7.650
 6011POPC   C1B22927  41.557   2.231   8.550
 6011POPC   C2B22928  41.501   2.239   8.250
 6011POPC   C3B22929  41.575   2.204   7.950
 6011POPC   C4B22930  41.510   2.209   7.650
 6012POPC   NC322931  38.473  25.262   9.450
 6012POPC   PO422932  38.470  25.278   9.150
 6012POPC   GL122933  38.439  25.227   8.850
 6012POPC   GL222934  38.527  25.309   8.850
 6012POPC   C1A22935  38.425  25.248   8.550
 6012POPC   D2A22936  38.488  25.273   8.250
 6012POPC   C3A22937  38.474  25.253   7.950
 6012POPC   C4A22938  38.410  25.231   7.650
 6012POPC   C1B22939  38.704  25.326   8.550
 6012POPC   C2B22940  38.734  25.349   8.250
 6012POPC   C3B22941  38.724  25.295   7.950
 6012POPC   C4B22942  38.720  25.317   7.650
 6013POPC   NC322943  16.773  10.474   9.450
 6013POPC   PO422944  16.779  10.504   9.150
 6013POPC   GL122945  16.712  10.568   8.850
 6013POPC   GL222946  16.567  10.556   8.850
 6013POPC   C1A22947  16.748  10.543   8.550
 6013POPC   D2A22948  16.749  10.553   8.250
 6013POPC   C3A22949  16.755  10.520   7.950
 6013POPC   C4A22950  16.755  10.479   7.650
 6013POPC   C1B22951  16.509  10.613   8.550
 6013POPC   C2B22952  16.505  10.545   8.250
 6013POPC   C3B22953  16.505  10.571   7.950
 6013POPC   C4B22954  16.533  10.616   7.650
 6014POPC   NC322955  10.571   3.553   9.450
 6014POPC   PO422956  10.537   3.492   9.150
 6014POPC   GL122957  10.537   3.572   8.850
 6014POPC   GL222958  10.380   3.656   8.850
 6014POPC   C1A22959  10.569   3.507   8.550
 6014POPC   D2A22960  10.538   3.496   8.250
 6014POPC   C3A22961  10.533   3.589   7.950
 6014POPC   C4A22962  10.499   3.581   7.650
 6014POPC   C1B22963  10.288   3.733   8.550
 6014POPC   C2B22964  10.305   3.690   8.250
 6014POPC   C3B22965  10.305   3.690   7.950
 6014POPC   C4B22966  10.296   3.659   7.650
 6015POPC   NC322967  32.221   9.777   9.450
 6015POPC   PO422968  32.211   9.773   9.150
 6015POPC   GL122969  32.218   9.791   8.850
 6015POPC   GL222970  32.167   9.753   8.850
 6015POPC   C1A22971  32.290   9.785   8.550
 6015POPC   D2A22972  32.202   9.703   8.250
 6015POPC   C3A22973  32.264   9.717   7.950
 6015POPC   C4A22974  32.283   9.718   7.650
 6015POPC   C1B22975  31.999   9.671   8.550
 6015POPC   C2B22976  32.032   9.698   8.250
 6015POPC   C3B22977  32.024   9.662   7.950
 6015POPC   C4B22978  32.040   9.693   7.650
 6016POPC   NC322979  40.754   5.090   9.450
 6016POPC   PO422980  40.750   5.100   9.150
 6016POPC   GL122981  40.753   5.113   8.850
 6016POPC   GL222982  40.810   5.246   8.850
 6016POPC   C1A22983  40.820   5.052   8.550
 6016POPC   D2A22984  40.827   5.075   8.250
 6016POPC   C3A22985  40.750   5.086   7.950
 6016POPC   C4A22986  40.832   5.117   7.650
 6016POPC   C1B22987  40.856   5.304   8.550
 6016POPC   C2B22988  40.862   5.302   8.250
 6016POPC   C3B22989  40.861   5.306   7.950
 6016POPC   C4B22990  40.898   5.280   7.650
 6017POPC   NC322991  41.605   0.426   9.450
 6017POPC   PO422992  41.568   0.395   9.150
 6017POPC   GL122993  41.545   0.481   8.850
 6017POPC   GL222994  41.492   0.288   8.850
 6017POPC   C1A22995  41.602   0.428   8.550
 6017POPC   D2A22996  41.607   0.445   8.250
 6017POPC   C3A22997  41.576   0.435   7.950
 6017POPC   C4A22998  41.530   0.403   7.650
 6017POPC   C1B22999  41.430   0.210   8.550
 6017POPC   C2B23000  41.472   0.173   8.250
 6017POPC   C3B23001  41.457   0.211   7.950
 6017POPC   C4B23002  41.439   0.208   7.650
 6018POPC   NC323003   8.206  29.146   9.450
 6018POPC   PO423004   8.201  29.115   9.150
 6018POPC   GL123005   8.188  29.190   8.850
 6018POPC   GL223006   8.298  29.140   8.850
 6018POPC   C1A23007   8.216  29.172   8.550
 6018POPC   D2A23008   8.230  29.137   8.250
 6018POPC   C3A23009   8.236  29.149   7.950
 6018POPC   C4A23010   8.183  29.185   7.650
 6018POPC   C1B23011   8.449  29.225   8.550
 6018POPC   C2B23012   8.435  29.200   8.250
 6018POPC   C3B23013   8.462  29.223   7.950
 6018POPC   C4B23014   8.464  29.189   7.650
 6019POPC   NC323015  40.828  17.476   9.450
 6019POPC   PO423016  40.743  17.552   9.150
 6019POPC   GL123017  40.826  17.531   8.850
 6019POPC   GL223018  40.682  17.412   8.850
 6019POPC   C1A23019  40.783  17.548   8.550
 6019POPC   D2A23020  40.799  17.530   8.250
 6019POPC   C3A23021  40.778  17.491   7.950
 6019POPC   C4A23022  40.765  17.487   7.650
 6019POPC   C1B23023  40.574  17.392   8.550
 6019POPC   C2B23024  40.566  17.373   8.250
 6019POPC   C3B23025  40.541  17.376   7.950
 6019POPC   C4B23026  40.620  17.398   7.650
 6020POPC   NC323027   4.281  19.092   9.450
 6020POPC   PO423028   4.309  19.071   9.150
 6020POPC   GL123029   4.315  19.082   8.850
 6020POPC   GL223030   4.410  18.923   8.850
 6020POPC   C1A23031   4.281  19.057   8.550
 6020POPC   D2A23032   4.326  19.035   8.250
 6020POPC   C3A23033   4.342  19.028   7.950
 6020POPC   C4A23034   4.271  19.065   7.650
 6020POPC   C1B23035   4.408  18.844   8.550
 6020POPC   C2B23036   4.422  18.820   8.250
 6020POPC   C3B23037   4.437  18.815   7.950
 6020POPC   C4B23038   4.439  18.797   7.650
 6021POPC   NC323039  42.323  23.669   9.450
 6021POPC   PO423040  42.286  23.688   9.150
 6021POPC   GL123041  42.320  23.679   8.850
 6021POPC   GL223042  42.475  23.727   8.850
 6021POPC   C1A23043  42.374  23.741   8.550
 6021POPC   D2A23044  42.340  23.720   8.250
 6021POPC   C3A23045  42.317  23.702   7.950
 6021POPC   C4A23046  42.287  23.756   7.650
 6021POPC   C1B23047  42.555  23.784   8.550
 6021POPC   C2B23048  42.538  23.842   8.250
 6021POPC   C3B23049  42.602  23.809   7.950
 6021POPC   C4B23050  42.536  23.768   7.650
 6022POPC   NC323051  19.831  18.268   9.450
 6022POPC   PO423052  19.804  18.234   9.150
 6022POPC   GL123053  19.808  18.315   8.850
 6022POPC   GL223054  19.962  18.317   8.850
 6022POPC   C1A23055  19.851  18.310   8.550
 6022POPC   D2A23056  19.853  18.289   8.250
 6022POPC   C3A23057  19.853  18.319   7.950
 6022POPC   C4A23058  19.852  18.239   7.650
 6022POPC   C1B23059  20.088  18.345   8.550
 6022POPC   C2B23060  20.116  18.274   8.250
 6022POPC   C3B23061  20.101  18.343   7.950
 6022POPC   C4B23062  20.064  18.258   7.650
 6023POPC   NC323063   0.418  33.029   9.450
 6023POPC   PO423064   0.485  33.035   9.150
 6023POPC   GL123065   0.470  33.031   8.850
 6023POPC   GL223066   0.408  32.957   8.850
 6023POPC   C1A23067   0.409  33.068   8.550
 6023POPC   D2A23068   0.408  32.976   8.250
 6023POPC   C3A23069   0.456  33.043   7.950
 6023POPC   C4A23070   0.405  32.991   7.650
 6023POPC   C1B23071   0.307  32.839   8.550
 6023POPC   C2B23072   0.312  32.855   8.250
 6023POPC   C3B23073   0.326  32.817   7.950
 6023POPC   C4B23074   0.312  32.850   7.650
 6024POPC   NC323075  29.125  29.112   9.450
 6024POPC   PO423076  29.189  29.120   9.150
 6024POPC   GL123077  29.108  29.186   8.850
 6024POPC   GL223078  29.060  29.231   8.850
 6024POPC   C1A23079  29.168  29.097   8.550
 6024POPC   D2A23080  29.182  29.103   8.250
 6024POPC   C3A23081  29.191  29.185   7.950
 6024POPC   C4A23082  29.135  29.145   7.650
 6024POPC   C1B23083  28.970  29.357   8.550
 6024POPC   C2B23084  28.998  29.384   8.250
 6024POPC   C3B23085  29.006  29.366   7.950
 6024POPC   C4B23086  28.989  29.374   7.650
 6025POPC   NC323087  22.211  40.045   9.450
 6025POPC   PO423088  22.161  39.987   9.150
 6025POPC   GL123089  22.137  40.042   8.850
 6025POPC   GL223090  22.022  40.065   8.850
 6025POPC   C1A23091  22.155  39.989   8.550
 6025POPC   D2A23092  22.189  40.053   8.250
 6025POPC   C3A23093  22.127  40.014   7.950
 6025POPC   C4A23094  22.179  40.003   7.650
 6025POPC   C1B23095  21.940  40.168   8.550
 6025POPC   C2B23096  21.944  40.211   8.250
 6025POPC   C3B23097  21.978  40.142   7.950
 6025POPC   C4B23098  22.013  40.210   7.650
 6026POPC   NC323099  31.513   0.410   9.450
 6026POPC   PO423100  31.521   0.456   9.150
 6026POPC   GL123101  31.497   0.467   8.850
 6026POPC   GL223102  31.484   0.266   8.850
 6026POPC   C1A23103  31.501   0.488   8.550
 6026POPC   D2A23104  31.423   0.451   8.250
 6026POPC   C3A23105  31.468   0.458   7.950
 6026POPC   C4A23106  31.439   0.420   7.650
 6026POPC   C1B23107  31.447   0.147   8.550
 6026POPC   C2B23108  31.466   0.179   8.250
 6026POPC   C3B23109  31.404   0.226   7.950
 6026POPC   C4B23110  31.402   0.207   7.650
 6027POPC   NC323111  43.064  29.904   9.450
 6027POPC   PO423112  43.112  29.908   9.150
 6027POPC   GL123113  43.076  29.960   8.850
 6027POPC   GL223114  43.135  30.050   8.850
 6027POPC   C1A23115  43.069  29.943   8.550
 6027POPC   D2A23116  43.106  29.907   8.250
 6027POPC   C3A23117  43.063  29.899   7.950
 6027POPC   C4A23118  43.141  29.933   7.650
 6027POPC   C1B23119  43.205  30.198   8.550
 6027POPC   C2B23120  43.220  30.167   8.250
 6027POPC   C3B23121  43.193  30.134   7.950
 6027POPC   C4B23122  43.165  30.196   7.650
 6028POPC   NC323123  32.245   2.749   9.450
 6028POPC   PO423124  32.198   2.758   9.150
 6028POPC   GL123125  32.241   2.805   8.850
 6028POPC   GL223126  32.386   2.665   8.850
 6028POPC   C1A23127  32.222   2.790   8.550
 6028POPC   D2A23128  32.284   2.796   8.250
 6028POPC   C3A23129  32.273   2.813   7.950
 6028POPC   C4A23130  32.239   2.785   7.650
 6028POPC   C1B23131  32.498   2.579   8.550
 6028POPC   C2B23132  32.473   2.651   8.250
 6028POPC   C3B23133  32.488   2.569   7.950
 6028POPC   C4B23134  32.408   2.642   7.650
 6029POPC   NC323135  30.699  18.332   9.450
 6029POPC   PO423136  30.698  18.276   9.150
 6029POPC   GL123137  30.711  18.309   8.850
 6029POPC   GL223138  30.676  18.170   8.850
 6029POPC   C1A23139  30.653  18.283   8.550
 6029POPC   D2A23140  30.708  18.257   8.250
 6029POPC   C3A23141  30.660  18.273   7.950
 6029POPC   C4A23142  30.742  18.286   7.650
 6029POPC   C1B23143  30.672  18.052   8.550
 6029POPC   C2B23144  30.640  18.049   8.250
 6029POPC   C3B23145  30.638  18.013   7.950
 6029POPC   C4B23146  30.692  18.067   7.650
 6030POPC   NC323147  21.414  20.565   9.450
 6030POPC   PO423148  21.340  20.602   9.150
 6030POPC   GL123149  21.344  20.624   8.850
 6030POPC   GL223150  21.286  20.718   8.850
 6030POPC   C1A23151  21.375  20.574   8.550
 6030POPC   D2A23152  21.339  20.654   8.250
 6030POPC   C3A23153  21.366  20.603   7.950
 6030POPC   C4A23154  21.397  20.565   7.650
 6030POPC   C1B23155  21.193  20.767   8.550
 6030POPC   C2B23156  21.191  20.808   8.250
 6030POPC   C3B23157  21.230  20.819   7.950
 6030POPC   C4B23158  21.167  20.806   7.650
 6031POPC   NC323159  20.600  22.211   9.450
 6031POPC   PO423160  20.643  22.206   9.150
 6031POPC   GL123161  20.594  22.116   8.850
 6031POPC   GL223162  20.738  22.164   8.850
 6031POPC   C1A23163  20.581  22.148   8.550
 6031POPC   D2A23164  20.588  22.145   8.250
 6031POPC   C3A23165  20.649  22.192   7.950
 6031POPC   C4A23166  20.603  22.120   7.650
 6031POPC   C1B23167  20.889  22.135   8.550
 6031POPC   C2B23168  20.864  22.169   8.250
 6031POPC   C3B23169  20.845  22.181   7.950
 6031POPC   C4B23170  20.812  22.212   7.650
 6032POPC   NC323171   3.536  19.794   9.450
 6032POPC   PO423172   3.586  19.846   9.150
 6032POPC   GL123173   3.573  19.802   8.850
 6032POPC   GL223174   3.508  19.918   8.850
 6032POPC   C1A23175   3.519  19.841   8.550
 6032POPC   D2A23176   3.548  19.833   8.250
 6032POPC   C3A23177   3.583  19.825   7.950
 6032POPC   C4A23178   3.565  19.853   7.650
 6032POPC   C1B23179   3.547  20.079   8.550
 6032POPC   C2B23180   3.505  20.044   8.250
 6032POPC   C3B23181   3.537  20.080   7.950
 6032POPC   C4B23182   3.458  20.089   7.650
 6033POPC   NC323183   6.634   5.864   9.450
 6033POPC   PO423184   6.654   5.893   9.150
 6033POPC   GL123185   6.657   5.913   8.850
 6033POPC   GL223186   6.504   5.887   8.850
 6033POPC   C1A23187   6.617   5.821   8.550
 6033POPC   D2A23188   6.634   5.902   8.250
 6033POPC   C3A23189   6.666   5.900   7.950
 6033POPC   C4A23190   6.618   5.872   7.650
 6033POPC   C1B23191   6.372   5.961   8.550
 6033POPC   C2B23192   6.361   5.934   8.250
 6033POPC   C3B23193   6.393   5.943   7.950
 6033POPC   C4B23194   6.385   5.966   7.650
 6034POPC   NC323195  12.066   4.333   9.450
 6034POPC   PO423196  12.073   4.319   9.150
 6034POPC   GL123197  12.086   4.324   8.850
 6034POPC   GL223198  12.103   4.177   8.850
 6034POPC   C1A23199  12.098   4.319   8.550
 6034POPC   D2A23200  12.037   4.284   8.250
 6034POPC   C3A23201  12.064   4.322   7.950
 6034POPC   C4A23202  12.072   4.289   7.650
 6034POPC   C1B23203  12.181   4.064   8.550
 6034POPC   C2B23204  12.162   4.045   8.250
 6034POPC   C3B23205  12.131   4.058   7.950
 6034POPC   C4B23206  12.146   4.090   7.650
 6035POPC   NC323207  23.754   7.393   9.450
 6035POPC   PO423208  23.700   7.453   9.150
 6035POPC   GL123209  23.702   7.373   8.850
 6035POPC   GL223210  23.806   7.339   8.850
 6035POPC   C1A23211  23.755   7.425   8.550
 6035POPC   D2A23212  23.711   7.429   8.250
 6035POPC   C3A23213  23.720   7.378   7.950
 6035POPC   C4A23214  23.748   7.391   7.650
 6035POPC   C1B23215  23.910   7.254   8.550
 6035POPC   C2B23216  23.899   7.244   8.250
 6035POPC   C3B23217  23.874   7.228   7.950
 6035POPC   C4B23218  23.907   7.207   7.650
 6036POPC   NC323219   8.163  38.464   9.450
 6036POPC   PO423220   8.202  38.455   9.150
 6036POPC   GL123221   8.233  38.423   8.850
 6036POPC   GL223222   8.147  38.555   8.850
 6036POPC   C1A23223   8.207  38.412   8.550
 6036POPC   D2A23224   8.186  38.409   8.250
 6036POPC   C3A23225   8.160  38.475   7.950
 6036POPC   C4A23226   8.218  38.416   7.650
 6036POPC   C1B23227   8.061  38.683   8.550
 6036POPC   C2B23228   8.001  38.685   8.250
 6036POPC   C3B23229   8.043  38.632   7.950
 6036POPC   C4B23230   8.051  38.625   7.650
 6037POPC   NC323231  20.644  19.819   9.450
 6037POPC   PO423232  20.616  19.794   9.150
 6037POPC   GL123233  20.598  19.799   8.850
 6037POPC   GL223234  20.492  19.737   8.850
 6037POPC   C1A23235  20.605  19.875   8.550
 6037POPC   D2A23236  20.623  19.833   8.250
 6037POPC   C3A23237  20.577  19.864   7.950
 6037POPC   C4A23238  20.621  19.785   7.650
 6037POPC   C1B23239  20.472  19.639   8.550
 6037POPC   C2B23240  20.446  19.676   8.250
 6037POPC   C3B23241  20.450  19.597   7.950
 6037POPC   C4B23242  20.425  19.676   7.650
 6038POPC   NC323243  19.043  26.856   9.450
 6038POPC   PO423244  19.046  26.778   9.150
 6038POPC   GL123245  19.027  26.850   8.850
 6038POPC   GL223246  19.006  26.959   8.850
 6038POPC   C1A23247  19.059  26.795   8.550
 6038POPC   D2A23248  19.067  26.769   8.250
 6038POPC   C3A23249  19.048  26.848   7.950
 6038POPC   C4A23250  19.028  26.776   7.650
 6038POPC   C1B23251  18.996  27.043   8.550
 6038POPC   C2B23252  18.947  27.012   8.250
 6038POPC   C3B23253  19.008  27.102   7.950
 6038POPC   C4B23254  18.965  27.018   7.650
 6039POPC   NC323255   9.733   1.192   9.450
 6039POPC   PO423256   9.794   1.189   9.150
 6039POPC   GL123257   9.740   1.239   8.850
 6039POPC   GL223258   9.849   1.342   8.850
 6039POPC   C1A23259   9.703   1.177   8.550
 6039POPC   D2A23260   9.730   1.169   8.250
 6039POPC   C3A23261   9.749   1.176   7.950
 6039POPC   C4A23262   9.708   1.211   7.650
 6039POPC   C1B23263   9.863   1.408   8.550
 6039POPC   C2B23264   9.914   1.398   8.250
 6039POPC   C3B23265   9.833   1.429   7.950
 6039POPC   C4B23266   9.863   1.473   7.650
 6040POPC   NC323267  42.383  15.939   9.450
 6040POPC   PO423268  42.379  15.947   9.150
 6040POPC   GL123269  42.345  15.908   8.850
 6040POPC   GL223270  42.325  16.046   8.850
 6040POPC   C1A23271  42.289  15.980   8.550
 6040POPC   D2A23272  42.373  15.937   8.250
 6040POPC   C3A23273  42.290  15.942   7.950
 6040POPC   C4A23274  42.339  15.942   7.650
 6040POPC   C1B23275  42.281  16.189   8.550
 6040POPC   C2B23276  42.200  16.233   8.250
 6040POPC   C3B23277  42.241  16.237   7.950
 6040POPC   C4B23278  42.216  16.160   7.650
 6041POPC   NC323279  18.286  19.787   9.450
 6041POPC   PO423280  18.271  19.839   9.150
 6041POPC   GL123281  18.288  19.863   8.850
 6041POPC   GL223282  18.299  19.979   8.850
 6041POPC   C1A23283  18.319  19.786   8.550
 6041POPC   D2A23284  18.249  19.840   8.250
 6041POPC   C3A23285  18.251  19.835   7.950
 6041POPC   C4A23286  18.285  19.821   7.650
 6041POPC   C1B23287  18.304  20.093   8.550
 6041POPC   C2B23288  18.306  20.079   8.250
 6041POPC   C3B23289  18.252  20.123   7.950
 6041POPC   C4B23290  18.258  20.097   7.650
 6042POPC   NC323291   0.427  29.960   9.450
 6042POPC   PO423292   0.396  29.874   9.150
 6042POPC   GL123293   0.409  29.884   8.850
 6042POPC   GL223294   0.457  29.816   8.850
 6042POPC   C1A23295   0.424  29.913   8.550
 6042POPC   D2A23296   0.396  29.888   8.250
 6042POPC   C3A23297   0.391  29.955   7.950
 6042POPC   C4A23298   0.410  29.874   7.650
 6042POPC   C1B23299   0.522  29.729   8.550
 6042POPC   C2B23300   0.526  29.726   8.250
 6042POPC   C3B23301   0.537  29.712   7.950
 6042POPC   C4B23302   0.476  29.667   7.650
 6043POPC   NC323303  38.422   8.961   9.450
 6043POPC   PO423304  38.453   8.964   9.150
 6043POPC   GL123305  38.450   8.966   8.850
 6043POPC   GL223306  38.449   8.890   8.850
 6043POPC   C1A23307  38.413   8.968   8.550
 6043POPC   D2A23308  38.474   8.961   8.250
 6043POPC   C3A23309  38.499   8.954   7.950
 6043POPC   C4A23310  38.431   8.988   7.650
 6043POPC   C1B23311  38.387   8.731   8.550
 6043POPC   C2B23312  38.365   8.741   8.250
 6043POPC   C3B23313  38.391   8.756   7.950
 6043POPC   C4B23314  38.346   8.758   7.650
 6044POPC   NC323315  12.070  43.888   9.450
 6044POPC   PO423316  12.057  43.877   9.150
 6044POPC   GL123317  12.087  43.935   8.850
 6044POPC   GL223318  12.210  43.905   8.850
 6044POPC   C1A23319  12.114  43.923   8.550
 6044POPC   D2A23320  12.100  43.868   8.250
 6044POPC   C3A23321  12.117  43.872   7.950
 6044POPC   C4A23322  12.088  43.850   7.650
 6044POPC   C1B23323  12.341  43.812   8.550
 6044POPC   C2B23324  12.288  43.854   8.250
 6044POPC   C3B23325  12.371  43.868   7.950
 6044POPC   C4B23326  12.345  43.851   7.650
 6045POPC   NC323327  44.619  39.213   9.450
 6045POPC   PO423328  44.618  39.271   9.150
 6045POPC   GL123329  44.639  39.211   8.850
 6045POPC   GL223330  44.644  39.081   8.850
 6045POPC   C1A23331  44.702  39.266   8.550
 6045POPC   D2A23332  44.652  39.184   8.250
 6045POPC   C3A23333  44.708  39.278   7.950
 6045POPC   C4A23334  44.642  39.207   7.650
 6045POPC   C1B23335  44.687  38.991   8.550
 6045POPC   C2B23336  44.672  38.991   8.250
 6045POPC   C3B23337  44.649  38.975   7.950
 6045POPC   C4B23338  44.690  38.946   7.650
 6046POPC   NC323339  12.093  17.496   9.450
 6046POPC   PO423340  12.108  17.503   9.150
 6046POPC   GL123341  12.040  17.505   8.850
 6046POPC   GL223342  11.997  17.548   8.850
 6046POPC   C1A23343  12.033  17.472   8.550
 6046POPC   D2A23344  12.094  17.497   8.250
 6046POPC   C3A23345  12.058  17.529   7.950
 6046POPC   C4A23346  12.114  17.473   7.650
 6046POPC   C1B23347  11.881  17.570   8.550
 6046POPC   C2B23348  11.805  17.623   8.250
 6046POPC   C3B23349  11.803  17.587   7.950
 6046POPC   C4B23350  11.883  17.581   7.650
 6047POPC   NC323351   9.780  10.571   9.450
 6047POPC   PO423352   9.780  10.515   9.150
 6047POPC   GL123353   9.701  10.501   8.850
 6047POPC   GL223354   9.728  10.692   8.850
 6047POPC   C1A23355   9.700  10.518   8.550
 6047POPC   D2A23356   9.724  10.572   8.250
 6047POPC   C3A23357   9.713  10.508   7.950
 6047POPC   C4A23358   9.765  10.563   7.650
 6047POPC   C1B23359   9.695  10.803   8.550
 6047POPC   C2B23360   9.698  10.799   8.250
 6047POPC   C3B23361   9.712  10.716   7.950
 6047POPC   C4B23362   9.688  10.782   7.650
 6048POPC   NC323363  36.138   2.032   9.450
 6048POPC   PO423364  36.087   2.011   9.150
 6048POPC   GL123365  36.141   1.971   8.850
 6048POPC   GL223366  36.216   2.097   8.850
 6048POPC   C1A23367  36.146   2.004   8.550
 6048POPC   D2A23368  36.088   2.033   8.250
 6048POPC   C3A23369  36.166   2.011   7.950
 6048POPC   C4A23370  36.149   1.963   7.650
 6048POPC   C1B23371  36.299   2.097   8.550
 6048POPC   C2B23372  36.326   2.154   8.250
 6048POPC   C3B23373  36.332   2.165   7.950
 6048POPC   C4B23374  36.315   2.115   7.650
 6049POPC   NC323375  16.688  29.911   9.450
 6049POPC   PO423376  16.735  29.902   9.150
 6049POPC   GL123377  16.696  29.907   8.850
 6049POPC   GL223378  16.579  29.940   8.850
 6049POPC   C1A23379  16.769  29.906   8.550
 6049POPC   D2A23380  16.692  29.917   8.250
 6049POPC   C3A23381  16.750  29.933   7.950
 6049POPC   C4A23382  16.776  29.898   7.650
 6049POPC   C1B23383  16.439  29.938   8.550
 6049POPC   C2B23384  16.441  29.933   8.250
 6049POPC   C3B23385  16.528  29.921   7.950
 6049POPC   C4B23386  16.524  29.919   7.650
 6050POPC   NC323387  37.690  17.491   9.450
 6050POPC   PO423388  37.722  17.518   9.150
 6050POPC   GL123389  37.682  17.519   8.850
 6050POPC   GL223390  37.620  17.456   8.850
 6050POPC   C1A23391  37.727  17.463   8.550
 6050POPC   D2A23392  37.631  17.538   8.250
 6050POPC   C3A23393  37.661  17.463   7.950
 6050POPC   C4A23394  37.723  17.525   7.650
 6050POPC   C1B23395  37.520  17.281   8.550
 6050POPC   C2B23396  37.561  17.328   8.250
 6050POPC   C3B23397  37.515  17.338   7.950
 6050POPC   C4B23398  37.554  17.362   7.650
 6051POPC   NC323399  43.157   7.458   9.450
 6051POPC   PO423400  43.113   7.374   9.150
 6051POPC   GL123401  43.123   7.389   8.850
 6051POPC   GL223402  43.205   7.323   8.850
 6051POPC   C1A23403  43.091   7.400   8.550
 6051POPC   D2A23404  43.078   7.434   8.250
 6051POPC   C3A23405  43.069   7.433   7.950
 6051POPC   C4A23406  43.074   7.374   7.650
 6051POPC   C1B23407  43.354   7.298   8.550
 6051POPC   C2B23408  43.343   7.325   8.250
 6051POPC   C3B23409  43.313   7.295   7.950
 6051POPC   C4B23410  43.310   7.283   7.650
 6052POPC   NC323411   5.143  39.988   9.450
 6052POPC   PO423412   5.084  39.985   9.150
 6052POPC   GL123413   5.141  40.011   8.850
 6052POPC   GL223414   5.205  40.067   8.850
 6052POPC   C1A23415   5.126  39.989   8.550
 6052POPC   D2A23416   5.093  39.978   8.250
 6052POPC   C3A23417   5.141  40.022   7.950
 6052POPC   C4A23418   5.052  39.977   7.650
 6052POPC   C1B23419   5.347  40.149   8.550
 6052POPC   C2B23420   5.350  40.181   8.250
 6052POPC   C3B23421   5.299  40.118   7.950
 6052POPC   C4B23422   5.357  40.141   7.650
 6053POPC   NC323423  29.923  11.254   9.450
 6053POPC   PO423424  29.920  11.307   9.150
 6053POPC   GL123425  29.878  11.331   8.850
 6053POPC   GL223426  29.810  11.219   8.850
 6053POPC   C1A23427  29.873  11.280   8.550
 6053POPC   D2A23428  29.944  11.311   8.250
 6053POPC   C3A23429  29.880  11.345   7.950
 6053POPC   C4A23430  29.897  11.275   7.650
 6053POPC   C1B23431  29.777  11.145   8.550
 6053POPC   C2B23432  29.732  11.152   8.250
 6053POPC   C3B23433  29.757  11.059   7.950
 6053POPC   C4B23434  29.734  11.090   7.650
 6054POPC   NC323435  26.016   2.741   9.450
 6054POPC   PO423436  26.053   2.749   9.150
 6054POPC   GL123437  26.042   2.753   8.850
 6054POPC   GL223438  26.097   2.819   8.850
 6054POPC   C1A23439  26.033   2.814   8.550
 6054POPC   D2A23440  26.020   2.811   8.250
 6054POPC   C3A23441  26.007   2.754   7.950
 6054POPC   C4A23442  26.019   2.764   7.650
 6054POPC   C1B23443  26.253   2.890   8.550
 6054POPC   C2B23444  26.228   2.920   8.250
 6054POPC   C3B23445  26.275   2.871   7.950
 6054POPC   C4B23446  26.252   2.871   7.650
 6055POPC   NC323447   2.802  26.049   9.450
 6055POPC   PO423448   2.745  26.014   9.150
 6055POPC   GL123449   2.807  26.077   8.850
 6055POPC   GL223450   2.690  25.936   8.850
 6055POPC   C1A23451   2.736  26.060   8.550
 6055POPC   D2A23452   2.724  26.020   8.250
 6055POPC   C3A23453   2.815  26.043   7.950
 6055POPC   C4A23454   2.776  26.032   7.650
 6055POPC   C1B23455   2.561  25.837   8.550
 6055POPC   C2B23456   2.629  25.818   8.250
 6055POPC   C3B23457   2.607  25.880   7.950
 6055POPC   C4B23458   2.589  25.848   7.650
 6056POPC   NC323459  15.938   4.278   9.450
 6056POPC   PO423460  15.914   4.306   9.150
 6056POPC   GL123461  15.915   4.334   8.850
 6056POPC   GL223462  15.910   4.490   8.850
 6056POPC   C1A23463  15.967   4.342   8.550
 6056POPC   D2A23464  15.934   4.336   8.250
 6056POPC   C3A23465  15.952   4.284   7.950
 6056POPC   C4A23466  15.913   4.358   7.650
 6056POPC   C1B23467  15.879   4.574   8.550
 6056POPC   C2B23468  15.950   4.565   8.250
 6056POPC   C3B23469  15.887   4.578   7.950
 6056POPC   C4B23470  15.942   4.522   7.650
 6057POPC   NC323471   9.752  32.211   9.450
 6057POPC   PO423472   9.764  32.213   9.150
 6057POPC   GL123473   9.701  32.210   8.850
 6057POPC   GL223474   9.765  32.422   8.850
 6057POPC   C1A23475   9.788  32.237   8.550
 6057POPC   D2A23476   9.741  32.290   8.250
 6057POPC   C3A23477   9.745  32.259   7.950
 6057POPC   C4A23478   9.740  32.218   7.650
 6057POPC   C1B23479   9.703  32.469   8.550
 6057POPC   C2B23480   9.741  32.457   8.250
 6057POPC   C3B23481   9.727  32.515   7.950
 6057POPC   C4B23482   9.769  32.476   7.650
 6058POPC   NC323483   5.124   4.295   9.450
 6058POPC   PO423484   5.132   4.285   9.150
 6058POPC   GL123485   5.108   4.331   8.850
 6058POPC   GL223486   5.137   4.158   8.850
 6058POPC   C1A23487   5.103   4.362   8.550
 6058POPC   D2A23488   5.088   4.281   8.250
 6058POPC   C3A23489   5.140   4.287   7.950
 6058POPC   C4A23490   5.075   4.329   7.650
 6058POPC   C1B23491   5.162   4.023   8.550
 6058POPC   C2B23492   5.106   4.101   8.250
 6058POPC   C3B23493   5.186   4.114   7.950
 6058POPC   C4B23494   5.119   4.120   7.650
 6059POPC   NC323495   5.896  11.269   9.450
 6059POPC   PO423496   5.911  11.280   9.150
 6059POPC   GL123497   5.839  11.346   8.850
 6059POPC   GL223498   5.744  11.230   8.850
 6059POPC   C1A23499   5.832  11.320   8.550
 6059POPC   D2A23500   5.898  11.255   8.250
 6059POPC   C3A23501   5.851  11.254   7.950
 6059POPC   C4A23502   5.829  11.263   7.650
 6059POPC   C1B23503   5.620  11.254   8.550
 6059POPC   C2B23504   5.647  11.245   8.250
 6059POPC   C3B23505   5.664  11.195   7.950
 6059POPC   C4B23506   5.640  11.163   7.650
 6060POPC   NC323507   9.718  17.476   9.450
 6060POPC   PO423508   9.726  17.469   9.150
 6060POPC   GL123509   9.795  17.472   8.850
 6060POPC   GL223510   9.846  17.555   8.850
 6060POPC   C1A23511   9.733  17.503   8.550
 6060POPC   D2A23512   9.771  17.461   8.250
 6060POPC   C3A23513   9.738  17.530   7.950
 6060POPC   C4A23514   9.744  17.475   7.650
 6060POPC   C1B23515   9.920  17.730   8.550
 6060POPC   C2B23516   9.940  17.726   8.250
 6060POPC   C3B23517   9.951  17.708   7.950
 6060POPC   C4B23518   9.954  17.706   7.650
 6061POPC   NC323519   3.510   2.772   9.450
 6061POPC   PO423520   3.501   2.738   9.150
 6061POPC   GL123521   3.547   2.790   8.850
 6061POPC   GL223522   3.530   2.597   8.850
 6061POPC   C1A23523   3.510   2.757   8.550
 6061POPC   D2A23524   3.536   2.754   8.250
 6061POPC   C3A23525   3.587   2.789   7.950
 6061POPC   C4A23526   3.537   2.765   7.650
 6061POPC   C1B23527   3.565   2.481   8.550
 6061POPC   C2B23528   3.554   2.561   8.250
 6061POPC   C3B23529   3.628   2.555   7.950
 6061POPC   C4B23530   3.563   2.527   7.650
 6062POPC   NC323531  28.344  44.705   9.450
 6062POPC   PO423532  28.342  44.639   9.150
 6062POPC   GL123533  28.416  44.637   8.850
 6062POPC   GL223534  28.384  44.562   8.850
 6062POPC   C1A23535  28.402  44.651   8.550
 6062POPC   D2A23536  28.369  44.703   8.250
 6062POPC   C3A23537  28.372  44.648   7.950
 6062POPC   C4A23538  28.379  44.698   7.650
 6062POPC   C1B23539  28.417  44.438   8.550
 6062POPC   C2B23540  28.482  44.476   8.250
 6062POPC   C3B23541  28.444  44.450   7.950
 6062POPC   C4B23542  28.434  44.442   7.650
 6063POPC   NC323543  43.913   5.906   9.450
 6063POPC   PO423544  43.906   5.910   9.150
 6063POPC   GL123545  43.883   5.873   8.850
 6063POPC   GL223546  43.785   5.949   8.850
 6063POPC   C1A23547  43.872   5.836   8.550
 6063POPC   D2A23548  43.871   5.888   8.250
 6063POPC   C3A23549  43.875   5.835   7.950
 6063POPC   C4A23550  43.873   5.836   7.650
 6063POPC   C1B23551  43.718   6.007   8.550
 6063POPC   C2B23552  43.693   6.041   8.250
 6063POPC   C3B23553  43.686   6.029   7.950
 6063POPC   C4B23554  43.713   5.999   7.650
 6064POPC   NC323555  30.670  29.879   9.450
 6064POPC   PO423556  30.726  29.901   9.150
 6064POPC   GL123557  30.715  29.881   8.850
 6064POPC   GL223558  30.571  30.041   8.850
 6064POPC   C1A23559  30.696  29.967   8.550
 6064POPC   D2A23560  30.737  29.885   8.250
 6064POPC   C3A23561  30.713  29.892   7.950
 6064POPC   C4A23562  30.665  29.968   7.650
 6064POPC   C1B23563  30.442  30.065   8.550
 6064POPC   C2B23564  30.467  30.022   8.250
 6064POPC   C3B23565  30.512  30.068   7.950
 6064POPC   C4B23566  30.447  30.078   7.650
 6065POPC   NC323567  22.136  15.226   9.450
 6065POPC   PO423568  22.136  15.186   9.150
 6065POPC   GL123569  22.176  15.178   8.850
 6065POPC   GL223570  22.069  15.253   8.850
 6065POPC   C1A23571  22.143  15.159   8.550
 6065POPC   D2A23572  22.148  15.212   8.250
 6065POPC   C3A23573  22.117  15.177   7.950
 6065POPC   C4A23574  22.119  15.133   7.650
 6065POPC   C1B23575  21.961  15.384   8.550
 6065POPC   C2B23576  21.983  15.371   8.250
 6065POPC   C3B23577  22.025  15.355   7.950
 6065POPC   C4B23578  22.042  15.410   7.650
 6066POPC   NC323579   8.243  19.090   9.450
 6066POPC   PO423580   8.229  19.038   9.150
 6066POPC   GL123581   8.167  19.028   8.850
 6066POPC   GL223582   8.036  19.119   8.850
 6066POPC   C1A23583   8.205  19.071   8.550
 6066POPC   D2A23584   8.162  19.028   8.250
 6066POPC   C3A23585   8.233  19.027   7.950
 6066POPC   C4A23586   8.207  19.015   7.650
 6066POPC   C1B23587   7.990  19.100   8.550
 6066POPC   C2B23588   7.965  19.110   8.250
 6066POPC   C3B23589   7.983  19.147   7.950
 6066POPC   C4B23590   7.986  19.063   7.650
 6067POPC   NC323591  26.009  36.878   9.450
 6067POPC   PO423592  26.027  36.932   9.150
 6067POPC   GL123593  26.089  36.856   8.850
 6067POPC   GL223594  25.903  36.870   8.850
 6067POPC   C1A23595  26.062  36.862   8.550
 6067POPC   D2A23596  26.042  36.873   8.250
 6067POPC   C3A23597  26.079  36.871   7.950
 6067POPC   C4A23598  26.009  36.895   7.650
 6067POPC   C1B23599  25.759  36.915   8.550
 6067POPC   C2B23600  25.815  36.905   8.250
 6067POPC   C3B23601  25.768  36.927   7.950
 6067POPC   C4B23602  25.778  36.891   7.650
 6068POPC   NC323603  17.510  43.883   9.450
 6068POPC   PO423604  17.461  43.912   9.150
 6068POPC   GL123605  17.503  43.924   8.850
 6068POPC   GL223606  17.408  43.886   8.850
 6068POPC   C1A23607  17.520  43.840   8.550
 6068POPC   D2A23608  17.535  43.841   8.250
 6068POPC   C3A23609  17.471  43.899   7.950
 6068POPC   C4A23610  17.497  43.906   7.650
 6068POPC   C1B23611  17.258  43.978   8.550
 6068POPC   C2B23612  17.265  43.914   8.250
 6068POPC   C3B23613  17.224  43.888   7.950
 6068POPC   C4B23614  17.298  43.906   7.650
 6069POPC   NC323615  15.141   3.583   9.450
 6069POPC   PO423616  15.149   3.582   9.150
 6069POPC   GL123617  15.136   3.552   8.850
 6069POPC   GL223618  15.187   3.631   8.850
 6069POPC   C1A23619  15.168   3.518   8.550
 6069POPC   D2A23620  15.171   3.515   8.250
 6069POPC   C3A23621  15.213   3.528   7.950
 6069POPC   C4A23622  15.198   3.550   7.650
 6069POPC   C1B23623  15.083   3.776   8.550
 6069POPC   C2B23624  15.139   3.788   8.250
 6069POPC   C3B23625  15.117   3.783   7.950
 6069POPC   C4B23626  15.123   3.808   7.650
 6070POPC   NC323627  24.453  41.602   9.450
 6070POPC   PO423628  24.472  41.519   9.150
 6070POPC   GL123629  24.449  41.607   8.850
 6070POPC   GL223630  24.358  41.692   8.850
 6070POPC   C1A23631  24.518  41.531   8.550
 6070POPC   D2A23632  24.445  41.568   8.250
 6070POPC   C3A23633  24.460  41.526   7.950
 6070POPC   C4A23634  24.505  41.576   7.650
 6070POPC   C1B23635  24.299  41.743   8.550
 6070POPC   C2B23636  24.278  41.727   8.250
 6070POPC   C3B23637  24.347  41.699   7.950
 6070POPC   C4B23638  24.306  41.742   7.650
 6071POPC   NC323639  37.631  24.475   9.450
 6071POPC   PO423640  37.649  24.497   9.150
 6071POPC   GL123641  37.635  24.519   8.850
 6071POPC   GL223642  37.773  24.556   8.850
 6071POPC   C1A23643  37.659  24.492   8.550
 6071POPC   D2A23644  37.651  24.440   8.250
 6071POPC   C3A23645  37.688  24.511   7.950
 6071POPC   C4A23646  37.705  24.496   7.650
 6071POPC   C1B23647  37.837  24.694   8.550
 6071POPC   C2B23648  37.846  24.734   8.250
 6071POPC   C3B23649  37.858  24.694   7.950
 6071POPC   C4B23650  37.773  24.731   7.650
 6072POPC   NC323651   4.304   1.262   9.450
 6072POPC   PO423652   4.301   1.263   9.150
 6072POPC   GL123653   4.298   1.218   8.850
 6072POPC   GL223654   4.350   1.102   8.850
 6072POPC   C1A23655   4.364   1.170   8.550
 6072POPC   D2A23656   4.338   1.233   8.250
 6072POPC   C3A23657   4.292   1.179   7.950
 6072POPC   C4A23658   4.303   1.249   7.650
 6072POPC   C1B23659   4.331   1.000   8.550
 6072POPC   C2B23660   4.331   0.929   8.250
 6072POPC   C3B23661   4.336   1.006   7.950
 6072POPC   C4B23662   4.285   1.004   7.650
 6073POPC   NC323663  36.120  17.488   9.450
 6073POPC   PO423664  36.092  17.493   9.150
 6073POPC   GL123665  36.137  17.521   8.850
 6073POPC   GL223666  36.007  17.590   8.850
 6073POPC   C1A23667  36.126  17.512   8.550
 6073POPC   D2A23668  36.091  17.523   8.250
 6073POPC   C3A23669  36.084  17.529   7.950
 6073POPC   C4A23670  36.097  17.491   7.650
 6073POPC   C1B23671  35.976  17.736   8.550
 6073POPC   C2B23672  35.972  17.664   8.250
 6073POPC   C3B23673  36.000  17.685   7.950
 6073POPC   C4B23674  35.964  17.716   7.650
 6074POPC   NC323675  15.936  33.038   9.450
 6074POPC   PO423676  15.968  33.037   9.150
 6074POPC   GL123677  15.915  33.050   8.850
 6074POPC   GL223678  15.858  33.026   8.850
 6074POPC   C1A23679  16.005  33.010   8.550
 6074POPC   D2A23680  15.984  33.000   8.250
 6074POPC   C3A23681  15.949  33.036   7.950
 6074POPC   C4A23682  15.917  32.980   7.650
 6074POPC   C1B23683  15.705  33.135   8.550
 6074POPC   C2B23684  15.718  33.058   8.250
 6074POPC   C3B23685  15.671  33.117   7.950
 6074POPC   C4B23686  15.707  33.065   7.650
 6075POPC   NC323687  20.577  20.584   9.450
 6075POPC   PO423688  20.628  20.657   9.150
 6075POPC   GL123689  20.603  20.654   8.850
 6075POPC   GL223690  20.607  20.534   8.850
 6075POPC   C1A23691  20.644  20.582   8.550
 6075POPC   D2A23692  20.587  20.587   8.250
 6075POPC   C3A23693  20.584  20.656   7.950
 6075POPC   C4A23694  20.594  20.652   7.650
 6075POPC   C1B23695  20.726  20.355   8.550
 6075POPC   C2B23696  20.674  20.392   8.250
 6075POPC   C3B23697  20.727  20.335   7.950
 6075POPC   C4B23698  20.676  20.328   7.650
 6076POPC   NC323699  36.902  41.589   9.450
 6076POPC   PO423700  36.863  41.541   9.150
 6076POPC   GL123701  36.920  41.533   8.850
 6076POPC   GL223702  36.988  41.613   8.850
 6076POPC   C1A23703  36.952  41.588   8.550
 6076POPC   D2A23704  36.909  41.555   8.250
 6076POPC   C3A23705  36.909  41.576   7.950
 6076POPC   C4A23706  36.950  41.532   7.650
 6076POPC   C1B23707  37.090  41.696   8.550
 6076POPC   C2B23708  37.046  41.727   8.250
 6076POPC   C3B23709  37.100  41.753   7.950
 6076POPC   C4B23710  37.109  41.751   7.650
 6077POPC   NC323711  42.380  11.276   9.450
 6077POPC   PO423712  42.372  11.317   9.150
 6077POPC   GL123713  42.301  11.344   8.850
 6077POPC   GL223714  42.467  11.315   8.850
 6077POPC   C1A23715  42.338  11.348   8.550
 6077POPC   D2A23716  42.297  11.306   8.250
 6077POPC   C3A23717  42.288  11.262   7.950
 6077POPC   C4A23718  42.349  11.267   7.650
 6077POPC   C1B23719  42.565  11.237   8.550
 6077POPC   C2B23720  42.561  11.248   8.250
 6077POPC   C3B23721  42.614  11.296   7.950
 6077POPC   C4B23722  42.534  11.262   7.650
 6078POPC   NC323723   0.396  30.720   9.450
 6078POPC   PO423724   0.439  30.697   9.150
 6078POPC   GL123725   0.480  30.677   8.850
 6078POPC   GL223726   0.504  30.625   8.850
 6078POPC   C1A23727   0.431  30.701   8.550
 6078POPC   D2A23728   0.398  30.681   8.250
 6078POPC   C3A23729   0.481  30.672   7.950
 6078POPC   C4A23730   0.405  30.703   7.650
 6078POPC   C1B23731   0.616  30.581   8.550
 6078POPC   C2B23732   0.579  30.536   8.250
 6078POPC   C3B23733   0.657  30.544   7.950
 6078POPC   C4B23734   0.670  30.505   7.650
 6079POPC   NC323735  26.792  19.086   9.450
 6079POPC   PO423736  26.863  19.049   9.150
 6079POPC   GL123737  26.793  19.047   8.850
 6079POPC   GL223738  26.930  19.199   8.850
 6079POPC   C1A23739  26.790  19.020   8.550
 6079POPC   D2A23740  26.829  19.108   8.250
 6079POPC   C3A23741  26.821  19.103   7.950
 6079POPC   C4A23742  26.858  19.016   7.650
 6079POPC   C1B23743  26.932  19.293   8.550
 6079POPC   C2B23744  27.014  19.265   8.250
 6079POPC   C3B23745  26.950  19.226   7.950
 6079POPC   C4B23746  26.938  19.241   7.650
 6080POPC   NC323747  26.057  26.054   9.450
 6080POPC   PO423748  26.009  26.021   9.150
 6080POPC   GL123749  26.070  26.035   8.850
 6080POPC   GL223750  25.979  25.959   8.850
 6080POPC   C1A23751  26.063  26.064   8.550
 6080POPC   D2A23752  26.063  25.995   8.250
 6080POPC   C3A23753  26.083  26.089   7.950
 6080POPC   C4A23754  26.072  26.075   7.650
 6080POPC   C1B23755  25.847  25.949   8.550
 6080POPC   C2B23756  25.865  25.970   8.250
 6080POPC   C3B23757  25.807  25.946   7.950
 6080POPC   C4B23758  25.830  25.977   7.650
 6081POPC   NC323759  32.289  32.997   9.450
 6081POPC   PO423760  32.209  33.072   9.150
 6081POPC   GL123761  32.222  33.016   8.850
 6081POPC   GL223762  32.363  32.987   8.850
 6081POPC   C1A23763  32.267  33.037   8.550
 6081POPC   D2A23764  32.214  32.992   8.250
 6081POPC   C3A23765  32.251  33.059   7.950
 6081POPC   C4A23766  32.211  33.037   7.650
 6081POPC   C1B23767  32.475  33.021   8.550
 6081POPC   C2B23768  32.455  32.966   8.250
 6081POPC   C3B23769  32.492  32.987   7.950
 6081POPC   C4B23770  32.467  33.016   7.650
 6082POPC   NC323771  37.655   4.303   9.450
 6082POPC   PO423772  37.660   4.297   9.150
 6082POPC   GL123773  37.672   4.311   8.850
 6082POPC   GL223774  37.574   4.353   8.850
 6082POPC   C1A23775  37.657   4.345   8.550
 6082POPC   D2A23776  37.660   4.359   8.250
 6082POPC   C3A23777  37.725   4.343   7.950
 6082POPC   C4A23778  37.638   4.309   7.650
 6082POPC   C1B23779  37.484   4.480   8.550
 6082POPC   C2B23780  37.443   4.454   8.250
 6082POPC   C3B23781  37.518   4.449   7.950
 6082POPC   C4B23782  37.446   4.511   7.650
 6083POPC   NC323783  19.037  12.815   9.450
 6083POPC   PO423784  19.035  12.839   9.150
 6083POPC   GL123785  19.022  12.838   8.850
 6083POPC   GL223786  19.201  12.910   8.850
 6083POPC   C1A23787  19.102  12.890   8.550
 6083POPC   D2A23788  19.080  12.808   8.250
 6083POPC   C3A23789  19.050  12.888   7.950
 6083POPC   C4A23790  19.044  12.898   7.650
 6083POPC   C1B23791  19.265  12.880   8.550
 6083POPC   C2B23792  19.270  12.908   8.250
 6083POPC   C3B23793  19.306  12.888   7.950
 6083POPC   C4B23794  19.303  12.904   7.650
 6084POPC   NC323795  29.106   2.036   9.450
 6084POPC   PO423796  29.096   2.020   9.150
 6084POPC   GL123797  29.168   1.972   8.850
 6084POPC   GL223798  29.302   1.996   8.850
 6084POPC   C1A23799  29.192   1.958   8.550
 6084POPC   D2A23800  29.107   1.996   8.250
 6084POPC   C3A23801  29.183   1.953   7.950
 6084POPC   C4A23802  29.160   2.035   7.650
 6084POPC   C1B23803  29.428   1.963   8.550
 6084POPC   C2B23804  29.347   1.925   8.250
 6084POPC   C3B23805  29.358   1.974   7.950
 6084POPC   C4B23806  29.386   1.908   7.650
 6085POPC   NC323807  29.921  33.830   9.450
 6085POPC   PO423808  29.906  33.801   9.150
 6085POPC   GL123809  29.955  33.788   8.850
 6085POPC   GL223810  30.012  33.814   8.850
 6085POPC   C1A23811  29.970  33.773   8.550
 6085POPC   D2A23812  29.926  33.832   8.250
 6085POPC   C3A23813  29.879  33.844   7.950
 6085POPC   C4A23814  29.942  33.763   7.650
 6085POPC   C1B23815  30.190  33.830   8.550
 6085POPC   C2B23816  30.148  33.844   8.250
 6085POPC   C3B23817  30.193  33.814   7.950
 6085POPC   C4B23818  30.209  33.813   7.650
 6086POPC   NC323819  24.529  40.752   9.450
 6086POPC   PO423820  24.472  40.812   9.150
 6086POPC   GL123821  24.444  40.737   8.850
 6086POPC   GL223822  24.514  40.904   8.850
 6086POPC   C1A23823  24.501  40.751   8.550
 6086POPC   D2A23824  24.440  40.791   8.250
 6086POPC   C3A23825  24.491  40.760   7.950
 6086POPC   C4A23826  24.448  40.783   7.650
 6086POPC   C1B23827  24.611  41.015   8.550
 6086POPC   C2B23828  24.564  40.973   8.250
 6086POPC   C3B23829  24.549  40.992   7.950
 6086POPC   C4B23830  24.606  41.037   7.650
 6087POPC   NC323831  19.062  25.225   9.450
 6087POPC   PO423832  19.070  25.267   9.150
 6087POPC   GL123833  19.041  25.243   8.850
 6087POPC   GL223834  19.086  25.427   8.850
 6087POPC   C1A23835  19.100  25.280   8.550
 6087POPC   D2A23836  19.047  25.312   8.250
 6087POPC   C3A23837  19.023  25.287   7.950
 6087POPC   C4A23838  19.101  25.258   7.650
 6087POPC   C1B23839  19.033  25.533   8.550
 6087POPC   C2B23840  19.114  25.512   8.250
 6087POPC   C3B23841  19.106  25.485   7.950
 6087POPC   C4B23842  19.118  25.502   7.650
 6088POPC   NC323843  32.252   3.573   9.450
 6088POPC   PO423844  32.242   3.581   9.150
 6088POPC   GL123845  32.265   3.500   8.850
 6088POPC   GL223846  32.146   3.414   8.850
 6088POPC   C1A23847  32.242   3.571   8.550
 6088POPC   D2A23848  32.268   3.564   8.250
 6088POPC   C3A23849  32.292   3.548   7.950
 6088POPC   C4A23850  32.241   3.549   7.650
 6088POPC   C1B23851  32.144   3.325   8.550
 6088POPC   C2B23852  32.163   3.354   8.250
 6088POPC   C3B23853  32.096   3.338   7.950
 6088POPC   C4B23854  32.153   3.334   7.650
 6089POPC   NC323855   5.119  42.314   9.450
 6089POPC   PO423856   5.068  42.304   9.150
 6089POPC   GL123857   5.072  42.379   8.850
 6089POPC   GL223858   5.017  42.416   8.850
 6089POPC   C1A23859   5.051  42.308   8.550
 6089POPC   D2A23860   5.065  42.287   8.250
 6089POPC   C3A23861   5.048  42.291   7.950
 6089POPC   C4A23862   5.096  42.383   7.650
 6089POPC   C1B23863   5.049  42.554   8.550
 6089POPC   C2B23864   5.068  42.583   8.250
 6089POPC   C3B23865   5.025  42.611   7.950
 6089POPC   C4B23866   5.057  42.614   7.650
 6090POPC   NC323867   8.976   9.014   9.450
 6090POPC   PO423868   9.011   8.989   9.150
 6090POPC   GL123869   8.985   8.939   8.850
 6090POPC   GL223870   8.966   8.813   8.850
 6090POPC   C1A23871   9.001   8.926   8.550
 6090POPC   D2A23872   9.007   8.945   8.250
 6090POPC   C3A23873   8.968   8.924   7.950
 6090POPC   C4A23874   9.017   8.992   7.650
 6090POPC   C1B23875   9.015   8.723   8.550
 6090POPC   C2B23876   9.000   8.745   8.250
 6090POPC   C3B23877   8.981   8.718   7.950
 6090POPC   C4B23878   9.046   8.688   7.650
 6091POPC   NC323879  28.320   5.853   9.450
 6091POPC   PO423880  28.347   5.835   9.150
 6091POPC   GL123881  28.325   5.843   8.850
 6091POPC   GL223882  28.221   5.921   8.850
 6091POPC   C1A23883  28.418   5.903   8.550
 6091POPC   D2A23884  28.345   5.888   8.250
 6091POPC   C3A23885  28.386   5.842   7.950
 6091POPC   C4A23886  28.360   5.845   7.650
 6091POPC   C1B23887  28.106   5.977   8.550
 6091POPC   C2B23888  28.139   6.017   8.250
 6091POPC   C3B23889  28.100   5.956   7.950
 6091POPC   C4B23890  28.186   5.991   7.650
 6092POPC   NC323891  22.950  15.954   9.450
 6092POPC   PO423892  22.943  15.990   9.150
 6092POPC   GL123893  22.954  15.953   8.850
 6092POPC   GL223894  22.813  15.924   8.850
 6092POPC   C1A23895  22.943  15.988   8.550
 6092POPC   D2A23896  22.966  15.974   8.250
 6092POPC   C3A23897  22.895  15.996   7.950
 6092POPC   C4A23898  22.950  15.912   7.650
 6092POPC   C1B23899  22.741  15.874   8.550
 6092POPC   C2B23900  22.743  15.853   8.250
 6092POPC   C3B23901  22.720  15.820   7.950
 6092POPC   C4B23902  22.717  15.862   7.650
 6093POPC   NC323903   1.944  16.709   9.450
 6093POPC   PO423904   2.018  16.743   9.150
 6093POPC   GL123905   2.001  16.722   8.850
 6093POPC   GL223906   1.986  16.812   8.850
 6093POPC   C1A23907   1.992  16.697   8.550
 6093POPC   D2A23908   2.019  16.732   8.250
 6093POPC   C3A23909   2.010  16.723   7.950
 6093POPC   C4A23910   1.979  16.689   7.650
 6093POPC   C1B23911   1.895  16.990   8.550
 6093POPC   C2B23912   1.926  16.936   8.250
 6093POPC   C3B23913   1.931  16.924   7.950
 6093POPC   C4B23914   1.862  16.980   7.650
 6094POPC   NC323915  43.155  32.244   9.450
 6094POPC   PO423916  43.136  32.225   9.150
 6094POPC   GL123917  43.149  32.282   8.850
 6094POPC   GL223918  43.204  32.092   8.850
 6094POPC   C1A23919  43.083  32.259   8.550
 6094POPC   D2A23920  43.109  32.231   8.250
 6094POPC   C3A23921  43.110  32.248   7.950
 6094POPC   C4A23922  43.077  32.293   7.650
 6094POPC   C1B23923  43.268  32.052   8.550
 6094POPC   C2B23924  43.273  32.014   8.250
 6094POPC   C3B23925  43.269  32.053   7.950
 6094POPC   C4B23926  43.254  32.056   7.650
 6095POPC   NC323927  42.347  29.116   9.450
 6095POPC   PO423928  42.315  29.174   9.150
 6095POPC   GL123929  42.354  29.193   8.850
 6095POPC   GL223930  42.457  29.073   8.850
 6095POPC   C1A23931  42.367  29.137   8.550
 6095POPC   D2A23932  42.307  29.112   8.250
 6095POPC   C3A23933  42.367  29.136   7.950
 6095POPC   C4A23934  42.367  29.136   7.650
 6095POPC   C1B23935  42.570  29.141   8.550
 6095POPC   C2B23936  42.532  29.055   8.250
 6095POPC   C3B23937  42.572  29.072   7.950
 6095POPC   C4B23938  42.574  29.100   7.650
 6096POPC   NC323939  16.768  38.435   9.450
 6096POPC   PO423940  16.772  38.470   9.150
 6096POPC   GL123941  16.714  38.457   8.850
 6096POPC   GL223942  16.641  38.521   8.850
 6096POPC   C1A23943  16.708  38.415   8.550
 6096POPC   D2A23944  16.744  38.434   8.250
 6096POPC   C3A23945  16.689  38.489   7.950
 6096POPC   C4A23946  16.691  38.410   7.650
 6096POPC   C1B23947  16.537  38.615   8.550
 6096POPC   C2B23948  16.576  38.592   8.250
 6096POPC   C3B23949  16.516  38.614   7.950
 6096POPC   C4B23950  16.514  38.580   7.650
 6097POPC   NC323951  36.114   2.781   9.450
 6097POPC   PO423952  36.115   2.781   9.150
 6097POPC   GL123953  36.154   2.798   8.850
 6097POPC   GL223954  36.245   2.735   8.850
 6097POPC   C1A23955  36.158   2.763   8.550
 6097POPC   D2A23956  36.080   2.786   8.250
 6097POPC   C3A23957  36.122   2.734   7.950
 6097POPC   C4A23958  36.149   2.789   7.650
 6097POPC   C1B23959  36.338   2.841   8.550
 6097POPC   C2B23960  36.331   2.787   8.250
 6097POPC   C3B23961  36.365   2.826   7.950
 6097POPC   C4B23962  36.407   2.793   7.650
 6098POPC   NC323963  39.255  26.070   9.450
 6098POPC   PO423964  39.269  26.030   9.150
 6098POPC   GL123965  39.258  26.083   8.850
 6098POPC   GL223966  39.294  26.156   8.850
 6098POPC   C1A23967  39.268  26.049   8.550
 6098POPC   D2A23968  39.185  25.999   8.250
 6098POPC   C3A23969  39.236  26.090   7.950
 6098POPC   C4A23970  39.266  26.066   7.650
 6098POPC   C1B23971  39.410  26.198   8.550
 6098POPC   C2B23972  39.403  26.230   8.250
 6098POPC   C3B23973  39.372  26.179   7.950
 6098POPC   C4B23974  39.409  26.228   7.650
 6099POPC   NC323975  39.994  22.981   9.450
 6099POPC   PO423976  40.002  22.919   9.150
 6099POPC   GL123977  40.014  22.947   8.850
 6099POPC   GL223978  40.006  23.048   8.850
 6099POPC   C1A23979  39.985  22.937   8.550
 6099POPC   D2A23980  39.993  22.895   8.250
 6099POPC   C3A23981  39.983  22.915   7.950
 6099POPC   C4A23982  39.975  22.942   7.650
 6099POPC   C1B23983  40.046  23.164   8.550
 6099POPC   C2B23984  40.065  23.209   8.250
 6099POPC   C3B23985  40.021  23.136   7.950
 6099POPC   C4B23986  40.035  23.204   7.650
 6100POPC   NC323987  19.815   1.972   9.450
 6100POPC   PO423988  19.805   1.941   9.150
 6100POPC   GL123989  19.880   2.010   8.850
 6100POPC   GL223990  20.004   1.922   8.850
 6100POPC   C1A23991  19.867   2.026   8.550
 6100POPC   D2A23992  19.805   2.016   8.250
 6100POPC   C3A23993  19.845   2.034   7.950
 6100POPC   C4A23994  19.866   2.029   7.650
 6100POPC   C1B23995  20.123   1.934   8.550
 6100POPC   C2B23996  20.087   1.961   8.250
 6100POPC   C3B23997  20.084   1.957   7.950
 6100POPC   C4B23998  20.122   1.929   7.650
 6101POPC   NC323999  16.779   1.177   9.450
 6101POPC   PO424000  16.704   1.236   9.150
 6101POPC   GL124001  16.695   1.204   8.850
 6101POPC   GL224002  16.883   1.134   8.850
 6101POPC   C1A24003  16.728   1.208   8.550
 6101POPC   D2A24004  16.779   1.263   8.250
 6101POPC   C3A24005  16.765   1.164   7.950
 6101POPC   C4A24006  16.750   1.243   7.650
 6101POPC   C1B24007  16.994   1.101   8.550
 6101POPC   C2B24008  16.946   1.106   8.250
 6101POPC   C3B24009  17.001   1.107   7.950
 6101POPC   C4B24010  16.959   1.105   7.650
 6102POPC   NC324011  23.702   6.617   9.450
 6102POPC   PO424012  23.710   6.678   9.150
 6102POPC   GL124013  23.743   6.625   8.850
 6102POPC   GL224014  23.852   6.721   8.850
 6102POPC   C1A24015  23.688   6.626   8.550
 6102POPC   D2A24016  23.764   6.603   8.250
 6102POPC   C3A24017  23.669   6.674   7.950
 6102POPC   C4A24018  23.733   6.690   7.650
 6102POPC   C1B24019  23.923   6.672   8.550
 6102POPC   C2B24020  23.922   6.671   8.250
 6102POPC   C3B24021  23.906   6.731   7.950
 6102POPC   C4B24022  23.967   6.703   7.650
 6103POPC   NC324023  31.496  20.641   9.450
 6103POPC   PO424024  31.520  20.629   9.150
 6103POPC   GL124025  31.495  20.634   8.850
 6103POPC   GL224026  31.595  20.555   8.850
 6103POPC   C1A24027  31.461  20.577   8.550
 6103POPC   D2A24028  31.510  20.571   8.250
 6103POPC   C3A24029  31.495  20.623   7.950
 6103POPC   C4A24030  31.425  20.647   7.650
 6103POPC   C1B24031  31.726  20.503   8.550
 6103POPC   C2B24032  31.689  20.513   8.250
 6103POPC   C3B24033  31.654  20.427   7.950
 6103POPC   C4B24034  31.661  20.498   7.650
 6104POPC   NC324035  22.979  40.822   9.450
 6104POPC   PO424036  22.926  40.766   9.150
 6104POPC   GL124037  22.911  40.807   8.850
 6104POPC   GL224038  23.042  40.938   8.850
 6104POPC   C1A24039  22.910  40.749   8.550
 6104POPC   D2A24040  22.954  40.762   8.250
 6104POPC   C3A24041  22.915  40.775   7.950
 6104POPC   C4A24042  22.947  40.805   7.650
 6104POPC   C1B24043  23.076  41.000   8.550
 6104POPC   C2B24044  23.059  40.972   8.250
 6104POPC   C3B24045  23.115  40.994   7.950
 6104POPC   C4B24046  23.049  40.973   7.650
 6105POPC   NC324047  31.455   3.569   9.450
 6105POPC   PO424048  31.493   3.564   9.150
 6105POPC   GL124049  31.518   3.568   8.850
 6105POPC   GL224050  31.339   3.521   8.850
 6105POPC   C1A24051  31.453   3.492   8.550
 6105POPC   D2A24052  31.465   3.541   8.250
 6105POPC   C3A24053  31.450   3.496   7.950
 6105POPC   C4A24054  31.497   3.524   7.650
 6105POPC   C1B24055  31.259   3.534   8.550
 6105POPC   C2B24056  31.243   3.551   8.250
 6105POPC   C3B24057  31.217   3.523   7.950
 6105POPC   C4B24058  31.234   3.590   7.650
 6106POPC   NC324059  32.292  13.601   9.450
 6106POPC   PO424060  32.266  13.614   9.150
 6106POPC   GL124061  32.240  13.663   8.850
 6106POPC   GL224062  32.139  13.597   8.850
 6106POPC   C1A24063  32.216  13.594   8.550
 6106POPC   D2A24064  32.285  13.634   8.250
 6106POPC   C3A24065  32.278  13.594   7.950
 6106POPC   C4A24066  32.245  13.669   7.650
 6106POPC   C1B24067  31.954  13.583   8.550
 6106POPC   C2B24068  31.999  13.581   8.250
 6106POPC   C3B24069  32.038  13.608   7.950
 6106POPC   C4B24070  32.009  13.598   7.650
 6107POPC   NC324071   0.389   3.519   9.450
 6107POPC   PO424072   0.395   3.589   9.150
 6107POPC   GL124073   0.442   3.540   8.850
 6107POPC   GL224074   0.555   3.649   8.850
 6107POPC   C1A24075   0.399   3.574   8.550
 6107POPC   D2A24076   0.394   3.535   8.250
 6107POPC   C3A24077   0.428   3.537   7.950
 6107POPC   C4A24078   0.434   3.516   7.650
 6107POPC   C1B24079   0.632   3.662   8.550
 6107POPC   C2B24080   0.633   3.639   8.250
 6107POPC   C3B24081   0.644   3.699   7.950
 6107POPC   C4B24082   0.650   3.688   7.650
 6108POPC   NC324083  22.161  19.846   9.450
 6108POPC   PO424084  22.121  19.874   9.150
 6108POPC   GL124085  22.179  19.831   8.850
 6108POPC   GL224086  22.220  19.923   8.850
 6108POPC   C1A24087  22.207  19.790   8.550
 6108POPC   D2A24088  22.200  19.870   8.250
 6108POPC   C3A24089  22.212  19.792   7.950
 6108POPC   C4A24090  22.142  19.883   7.650
 6108POPC   C1B24091  22.265  20.113   8.550
 6108POPC   C2B24092  22.270  20.028   8.250
 6108POPC   C3B24093  22.304  20.090   7.950
 6108POPC   C4B24094  22.206  20.088   7.650
 6109POPC   NC324095  27.580   2.751   9.450
 6109POPC   PO424096  27.546   2.719   9.150
 6109POPC   GL124097  27.557   2.776   8.850
 6109POPC   GL224098  27.487   2.785   8.850
 6109POPC   C1A24099  27.602   2.788   8.550
 6109POPC   D2A24100  27.545   2.769   8.250
 6109POPC   C3A24101  27.597   2.772   7.950
 6109POPC   C4A24102  27.629   2.782   7.650
 6109POPC   C1B24103  27.299   2.819   8.550
 6109POPC   C2B24104  27.368   2.828   8.250
 6109POPC   C3B24105  27.328   2.805   7.950
 6109POPC   C4B24106  27.316   2.807   7.650
 6110POPC   NC324107  39.996   8.197   9.450
 6110POPC   PO424108  40.015   8.204   9.150
 6110POPC   GL124109  40.021   8.193   8.850
 6110POPC   GL224110  39.926   8.097   8.850
 6110POPC   C1A24111  39.966   8.209   8.550
 6110POPC   D2A24112  39.994   8.220   8.250
 6110POPC   C3A24113  39.964   8.216   7.950
 6110POPC   C4A24114  39.963   8.206   7.650
 6110POPC   C1B24115  39.935   7.916   8.550
 6110POPC   C2B24116  39.899   7.945   8.250
 6110POPC   C3B24117  39.965   7.956   7.950
 6110POPC   C4B24118  39.900   7.965   7.650
 6111POPC   NC324119   3.545  12.082   9.450
 6111POPC   PO424120   3.516  12.108   9.150
 6111POPC   GL124121   3.519  12.053   8.850
 6111POPC   GL224122   3.373  12.086   8.850
 6111POPC   C1A24123   3.588  12.088   8.550
 6111POPC   D2A24124   3.576  12.070   8.250
 6111POPC   C3A24125   3.505  12.054   7.950
 6111POPC   C4A24126   3.529  12.050   7.650
 6111POPC   C1B24127   3.244  12.058   8.550
 6111POPC   C2B24128   3.321  12.013   8.250
 6111POPC   C3B24129   3.270  12.020   7.950
 6111POPC   C4B24130   3.267  12.068   7.650
 6112POPC   NC324131  15.143  43.853   9.450
 6112POPC   PO424132  15.211  43.908   9.150
 6112POPC   GL124133  15.140  43.895   8.850
 6112POPC   GL224134  15.048  43.798   8.850
 6112POPC   C1A24135  15.225  43.912   8.550
 6112POPC   D2A24136  15.149  43.837   8.250
 6112POPC   C3A24137  15.143  43.915   7.950
 6112POPC   C4A24138  15.178  43.875   7.650
 6112POPC   C1B24139  15.002  43.726   8.550
 6112POPC   C2B24140  14.971  43.751   8.250
 6112POPC   C3B24141  14.977  43.725   7.950
 6112POPC   C4B24142  15.008  43.705   7.650
 6113POPC   NC324143  44.667  14.383   9.450
 6113POPC   PO424144  44.650  14.373   9.150
 6113POPC   GL124145  44.704  14.404   8.850
 6113POPC   GL224146  44.758  14.380   8.850
 6113POPC   C1A24147  44.677  14.366   8.550
 6113POPC   D2A24148  44.706  14.407   8.250
 6113POPC   C3A24149  44.709  14.424   7.950
 6113POPC   C4A24150  44.683  14.407   7.650
 6113POPC   C1B24151  44.864  14.488   8.550
 6113POPC   C2B24152  44.884  14.441   8.250
 6113POPC   C3B24153  44.884  14.468   7.950
 6113POPC   C4B24154  44.941  14.452   7.650
 6114POPC   NC324155   8.233  37.630   9.450
 6114POPC   PO424156   8.214  37.708   9.150
 6114POPC   GL124157   8.162  37.681   8.850
 6114POPC   GL224158   8.346  37.643   8.850
 6114POPC   C1A24159   8.239  37.677   8.550
 6114POPC   D2A24160   8.212  37.709   8.250
 6114POPC   C3A24161   8.161  37.724   7.950
 6114POPC   C4A24162   8.180  37.651   7.650
 6114POPC   C1B24163   8.458  37.700   8.550
 6114POPC   C2B24164   8.431  37.651   8.250
 6114POPC   C3B24165   8.455  37.694   7.950
 6114POPC   C4B24166   8.423  37.705   7.650
 6115POPC   NC324167   2.772  39.997   9.450
 6115POPC   PO424168   2.806  39.959   9.150
 6115POPC   GL124169   2.787  39.985   8.850
 6115POPC   GL224170   2.829  40.066   8.850
 6115POPC   C1A24171   2.745  39.977   8.550
 6115POPC   D2A24172   2.760  40.055   8.250
 6115POPC   C3A24173   2.748  39.979   7.950
 6115POPC   C4A24174   2.756  40.050   7.650
 6115POPC   C1B24175   2.929  40.163   8.550
 6115POPC   C2B24176   2.933  40.098   8.250
 6115POPC   C3B24177   2.989  40.110   7.950
 6115POPC   C4B24178   2.976  40.109   7.650
 6116POPC   NC324179  26.820   3.522   9.450
 6116POPC   PO424180  26.822   3.526   9.150
 6116POPC   GL124181  26.811   3.556   8.850
 6116POPC   GL224182  26.688   3.548   8.850
 6116POPC   C1A24183  26.802   3.575   8.550
 6116POPC   D2A24184  26.781   3.542   8.250
 6116POPC   C3A24185  26.800   3.551   7.950
 6116POPC   C4A24186  26.804   3.505   7.650
 6116POPC   C1B24187  26.542   3.539   8.550
 6116POPC   C2B24188  26.572   3.456   8.250
 6116POPC   C3B24189  26.553   3.466   7.950
 6116POPC   C4B24190  26.580   3.482   7.650
 6117POPC   NC324191   5.865  10.507   9.450
 6117POPC   PO424192   5.892  10.520   9.150
 6117POPC   GL124193   5.850  10.520   8.850
 6117POPC   GL224194   5.944  10.651   8.850
 6117POPC   C1A24195   5.895  10.495   8.550
 6117POPC   D2A24196   5.883  10.486   8.250
 6117POPC   C3A24197   5.855  10.505   7.950
 6117POPC   C4A24198   5.906  10.489   7.650
 6117POPC   C1B24199   6.030  10.710   8.550
 6117POPC   C2B24200   5.976  10.681   8.250
 6117POPC   C3B24201   6.065  10.719   7.950
 6117POPC   C4B24202   6.001  10.719   7.650
 6118POPC   NC324203  27.627  36.117   9.450
 6118POPC   PO424204  27.599  36.085   9.150
 6118POPC   GL124205  27.574  36.166   8.850
 6118POPC   GL224206  27.439  36.197   8.850
 6118POPC   C1A24207  27.628  36.083   8.550
 6118POPC   D2A24208  27.558  36.131   8.250
 6118POPC   C3A24209  27.570  36.144   7.950
 6118POPC   C4A24210  27.545  36.114   7.650
 6118POPC   C1B24211  27.368  36.214   8.550
 6118POPC   C2B24212  27.388  36.154   8.250
 6118POPC   C3B24213  27.370  36.159   7.950
 6118POPC   C4B24214  27.308  36.219   7.650
 6119POPC   NC324215  26.071  40.759   9.450
 6119POPC   PO424216  26.086  40.788   9.150
 6119POPC   GL124217  26.041  40.756   8.850
 6119POPC   GL224218  26.170  40.868   8.850
 6119POPC   C1A24219  26.014  40.795   8.550
 6119POPC   D2A24220  26.052  40.793   8.250
 6119POPC   C3A24221  26.017  40.813   7.950
 6119POPC   C4A24222  26.027  40.735   7.650
 6119POPC   C1B24223  26.163  40.954   8.550
 6119POPC   C2B24224  26.157  41.013   8.250
 6119POPC   C3B24225  26.219  40.969   7.950
 6119POPC   C4B24226  26.196  41.020   7.650
 6120POPC   NC324227   1.211  37.704   9.450
 6120POPC   PO424228   1.194  37.688   9.150
 6120POPC   GL124229   1.169  37.670   8.850
 6120POPC   GL224230   1.342  37.657   8.850
 6120POPC   C1A24231   1.197  37.727   8.550
 6120POPC   D2A24232   1.176  37.665   8.250
 6120POPC   C3A24233   1.196  37.686   7.950
 6120POPC   C4A24234   1.213  37.693   7.650
 6120POPC   C1B24235   1.447  37.543   8.550
 6120POPC   C2B24236   1.390  37.575   8.250
 6120POPC   C3B24237   1.436  37.489   7.950
 6120POPC   C4B24238   1.410  37.556   7.650
 6121POPC   NC324239   9.741   5.127   9.450
 6121POPC   PO424240   9.763   5.141   9.150
 6121POPC   GL124241   9.796   5.061   8.850
 6121POPC   GL224242   9.803   5.168   8.850
 6121POPC   C1A24243   9.766   5.068   8.550
 6121POPC   D2A24244   9.763   5.116   8.250
 6121POPC   C3A24245   9.706   5.057   7.950
 6121POPC   C4A24246   9.708   5.078   7.650
 6121POPC   C1B24247   9.808   5.385   8.550
 6121POPC   C2B24248   9.756   5.314   8.250
 6121POPC   C3B24249   9.720   5.341   7.950
 6121POPC   C4B24250   9.754   5.336   7.650
 6122POPC   NC324251  43.097  27.581   9.450
 6122POPC   PO424252  43.107  27.581   9.150
 6122POPC   GL124253  43.123  27.591   8.850
 6122POPC   GL224254  43.089  27.500   8.850
 6122POPC   C1A24255  43.060  27.608   8.550
 6122POPC   D2A24256  43.125  27.583   8.250
 6122POPC   C3A24257  43.072  27.627   7.950
 6122POPC   C4A24258  43.151  27.598   7.650
 6122POPC   C1B24259  43.050  27.390   8.550
 6122POPC   C2B24260  43.102  27.296   8.250
 6122POPC   C3B24261  43.104  27.325   7.950
 6122POPC   C4B24262  43.099  27.303   7.650
 6123POPC   NC324263   8.218   5.874   9.450
 6123POPC   PO424264   8.180   5.892   9.150
 6123POPC   GL124265   8.223   5.895   8.850
 6123POPC   GL224266   8.330   5.799   8.850
 6123POPC   C1A24267   8.215   5.904   8.550
 6123POPC   D2A24268   8.226   5.890   8.250
 6123POPC   C3A24269   8.220   5.906   7.950
 6123POPC   C4A24270   8.184   5.846   7.650
 6123POPC   C1B24271   8.371   5.721   8.550
 6123POPC   C2B24272   8.363   5.716   8.250
 6123POPC   C3B24273   8.372   5.685   7.950
 6123POPC   C4B24274   8.404   5.723   7.650
 6124POPC   NC324275   6.631  22.916   9.450
 6124POPC   PO424276   6.690  22.909   9.150
 6124POPC   GL124277   6.672  22.949   8.850
 6124POPC   GL224278   6.562  23.080   8.850
 6124POPC   C1A24279   6.624  22.908   8.550
 6124POPC   D2A24280   6.661  22.899   8.250
 6124POPC   C3A24281   6.641  22.931   7.950
 6124POPC   C4A24282   6.627  22.963   7.650
 6124POPC   C1B24283   6.579  23.214   8.550
 6124POPC   C2B24284   6.501  23.195   8.250
 6124POPC   C3B24285   6.546  23.214   7.950
 6124POPC   C4B24286   6.513  23.215   7.650
 6125POPC   NC324287  39.184  25.268   9.450
 6125POPC   PO424288  39.267  25.268   9.150
 6125POPC   GL124289  39.250  25.270   8.850
 6125POPC   GL224290  39.169  25.405   8.850
 6125POPC   C1A24291  39.229  25.304   8.550
 6125POPC   D2A24292  39.270  25.270   8.250
 6125POPC   C3A24293  39.274  25.295   7.950
 6125POPC   C4A24294  39.245  25.250   7.650
 6125POPC   C1B24295  39.098  25.399   8.550
 6125POPC   C2B24296  39.078  25.481   8.250
 6125POPC   C3B24297  39.088  25.457   7.950
 6125POPC   C4B24298  39.102  25.411   7.650
 6126POPC   NC324299   6.610  29.130   9.450
 6126POPC   PO424300   6.688  29.144   9.150
 6126POPC   GL124301   6.606  29.183   8.850
 6126POPC   GL224302   6.580  29.007   8.850
 6126POPC   C1A24303   6.678  29.168   8.550
 6126POPC   D2A24304   6.652  29.146   8.250
 6126POPC   C3A24305   6.671  29.127   7.950
 6126POPC   C4A24306   6.673  29.126   7.650
 6126POPC   C1B24307   6.523  28.968   8.550
 6126POPC   C2B24308   6.505  28.932   8.250
 6126POPC   C3B24309   6.518  28.953   7.950
 6126POPC   C4B24310   6.553  28.920   7.650
 6127POPC   NC324311   0.435  37.651   9.450
 6127POPC   PO424312   0.483  37.724   9.150
 6127POPC   GL124313   0.391  37.646   8.850
 6127POPC   GL224314   0.459  37.850   8.850
 6127POPC   C1A24315   0.402  37.697   8.550
 6127POPC   D2A24316   0.428  37.694   8.250
 6127POPC   C3A24317   0.464  37.717   7.950
 6127POPC   C4A24318   0.479  37.700   7.650
 6127POPC   C1B24319   0.375  37.897   8.550
 6127POPC   C2B24320   0.412  37.944   8.250
 6127POPC   C3B24321   0.414  37.879   7.950
 6127POPC   C4B24322   0.452  37.949   7.650
 6128POPC   NC324323  11.303  38.459   9.450
 6128POPC   PO424324  11.256  38.477   9.150
 6128POPC   GL124325  11.279  38.405   8.850
 6128POPC   GL224326  11.373  38.368   8.850
 6128POPC   C1A24327  11.338  38.460   8.550
 6128POPC   D2A24328  11.285  38.440   8.250
 6128POPC   C3A24329  11.312  38.500   7.950
 6128POPC   C4A24330  11.280  38.440   7.650
 6128POPC   C1B24331  11.451  38.290   8.550
 6128POPC   C2B24332  11.403  38.252   8.250
 6128POPC   C3B24333  11.405  38.283   7.950
 6128POPC   C4B24334  11.432  38.290   7.650
 6129POPC   NC324335  18.306   6.597   9.450
 6129POPC   PO424336  18.254   6.619   9.150
 6129POPC   GL124337  18.291   6.618   8.850
 6129POPC   GL224338  18.394   6.583   8.850
 6129POPC   C1A24339  18.243   6.666   8.550
 6129POPC   D2A24340  18.234   6.667   8.250
 6129POPC   C3A24341  18.289   6.626   7.950
 6129POPC   C4A24342  18.243   6.645   7.650
 6129POPC   C1B24343  18.535   6.580   8.550
 6129POPC   C2B24344  18.522   6.575   8.250
 6129POPC   C3B24345  18.509   6.572   7.950
 6129POPC   C4B24346  18.560   6.575   7.650
 6130POPC   NC324347  28.352  30.716   9.450
 6130POPC   PO424348  28.360  30.734   9.150
 6130POPC   GL124349  28.391  30.695   8.850
 6130POPC   GL224350  28.273  30.659   8.850
 6130POPC   C1A24351  28.407  30.651   8.550
 6130POPC   D2A24352  28.377  30.650   8.250
 6130POPC   C3A24353  28.326  30.727   7.950
 6130POPC   C4A24354  28.401  30.704   7.650
 6130POPC   C1B24355  28.076  30.700   8.550
 6130POPC   C2B24356  28.172  30.616   8.250
 6130POPC   C3B24357  28.142  30.688   7.950
 6130POPC   C4B24358  28.148  30.683   7.650
 6131POPC   NC324359   9.737   0.399   9.450
 6131POPC   PO424360   9.770   0.424   9.150
 6131POPC   GL124361   9.727   0.459   8.850
 6131POPC   GL224362   9.686   0.370   8.850
 6131POPC   C1A24363   9.719   0.455   8.550
 6131POPC   D2A24364   9.748   0.428   8.250
 6131POPC   C3A24365   9.699   0.433   7.950
 6131POPC   C4A24366   9.728   0.395   7.650
 6131POPC   C1B24367   9.558   0.289   8.550
 6131POPC   C2B24368   9.514   0.316   8.250
 6131POPC   C3B24369   9.584   0.307   7.950
 6131POPC   C4B24370   9.578   0.252   7.650
 6132POPC   NC324371   3.586  21.409   9.450
 6132POPC   PO424372   3.567  21.429   9.150
 6132POPC   GL124373   3.558  21.410   8.850
 6132POPC   GL224374   3.697  21.477   8.850
 6132POPC   C1A24375   3.517  21.391   8.550
 6132POPC   D2A24376   3.500  21.435   8.250
 6132POPC   C3A24377   3.576  21.417   7.950
 6132POPC   C4A24378   3.505  21.371   7.650
 6132POPC   C1B24379   3.739  21.535   8.550
 6132POPC   C2B24380   3.724  21.530   8.250
 6132POPC   C3B24381   3.752  21.481   7.950
 6132POPC   C4B24382   3.787  21.478   7.650
 6133POPC   NC324383   3.530   9.713   9.450
 6133POPC   PO424384   3.513   9.769   9.150
 6133POPC   GL124385   3.589   9.724   8.850
 6133POPC   GL224386   3.474   9.850   8.850
 6133POPC   C1A24387   3.527   9.710   8.550
 6133POPC   D2A24388   3.567   9.751   8.250
 6133POPC   C3A24389   3.497   9.718   7.950
 6133POPC   C4A24390   3.549   9.776   7.650
 6133POPC   C1B24391   3.466   9.959   8.550
 6133POPC   C2B24392   3.451   9.975   8.250
 6133POPC   C3B24393   3.481   9.961   7.950
 6133POPC   C4B24394   3.471  10.023   7.650
 6134POPC   NC324395  18.288  12.096   9.450
 6134POPC   PO424396  18.249  12.116   9.150
 6134POPC   GL124397  18.234  12.093   8.850
 6134POPC   GL224398  18.347  12.106   8.850
 6134POPC   C1A24399  18.288  12.068   8.550
 6134POPC   D2A24400  18.326  12.065   8.250
 6134POPC   C3A24401  18.305  12.039   7.950
 6134POPC   C4A24402  18.327  12.065   7.650
 6134POPC   C1B24403  18.531  12.210   8.550
 6134POPC   C2B24404  18.489  12.217   8.250
 6134POPC   C3B24405  18.498  12.176   7.950
 6134POPC   C4B24406  18.485  12.166   7.650
 6135POPC   NC324407  24.534  18.264   9.450
 6135POPC   PO424408  24.459  18.298   9.150
 6135POPC   GL124409  24.444  18.243   8.850
 6135POPC   GL224410  24.472  18.200   8.850
 6135POPC   C1A24411  24.501  18.296   8.550
 6135POPC   D2A24412  24.514  18.290   8.250
 6135POPC   C3A24413  24.532  18.235   7.950
 6135POPC   C4A24414  24.539  18.257   7.650
 6135POPC   C1B24415  24.374  18.044   8.550
 6135POPC   C2B24416  24.374  18.011   8.250
 6135POPC   C3B24417  24.357  18.090   7.950
 6135POPC   C4B24418  24.400  18.044   7.650
 6136POPC   NC324419  42.354  42.300   9.450
 6136POPC   PO424420  42.297  42.375   9.150
 6136POPC   GL124421  42.298  42.382   8.850
 6136POPC   GL224422  42.256  42.293   8.850
 6136POPC   C1A24423  42.332  42.349   8.550
 6136POPC   D2A24424  42.288  42.345   8.250
 6136POPC   C3A24425  42.337  42.288   7.950
 6136POPC   C4A24426  42.373  42.365   7.650
 6136POPC   C1B24427  42.065  42.223   8.550
 6136POPC   C2B24428  42.109  42.297   8.250
 6136POPC   C3B24429  42.094  42.292   7.950
 6136POPC   C4B24430  42.128  42.253   7.650
 6137POPC   NC324431  42.351   1.954   9.450
 6137POPC   PO424432  42.369   1.999   9.150
 6137POPC   GL124433  42.304   2.013   8.850
 6137POPC   GL224434  42.337   1.821   8.850
 6137POPC   C1A24435  42.369   1.967   8.550
 6137POPC   D2A24436  42.291   1.942   8.250
 6137POPC   C3A24437  42.327   2.034   7.950
 6137POPC   C4A24438  42.362   2.034   7.650
 6137POPC   C1B24439  42.263   1.752   8.550
 6137POPC   C2B24440  42.305   1.721   8.250
 6137POPC   C3B24441  42.332   1.748   7.950
 6137POPC   C4B24442  42.339   1.708   7.650
 6138POPC   NC324443   4.281  23.734   9.450
 6138POPC   PO424444   4.365  23.751   9.150
 6138POPC   GL124445   4.329  23.723   8.850
 6138POPC   GL224446   4.170  23.653   8.850
 6138POPC   C1A24447   4.276  23.733   8.550
 6138POPC   D2A24448   4.324  23.756   8.250
 6138POPC   C3A24449   4.297  23.715   7.950
 6138POPC   C4A24450   4.288  23.725   7.650
 6138POPC   C1B24451   4.110  23.601   8.550
 6138POPC   C2B24452   4.137  23.580   8.250
 6138POPC   C3B24453   4.145  23.526   7.950
 6138POPC   C4B24454   4.074  23.596   7.650
 6139POPC   NC324455  16.739  15.159   9.450
 6139POPC   PO424456  16.691  15.157   9.150
 6139POPC   GL124457  16.751  15.221   8.850
 6139POPC   GL224458  16.588  15.140   8.850
 6139POPC   C1A24459  16.771  15.204   8.550
 6139POPC   D2A24460  16.734  15.188   8.250
 6139POPC   C3A24461  16.756  15.168   7.950
 6139POPC   C4A24462  16.715  15.168   7.650
 6139POPC   C1B24463  16.453  15.089   8.550
 6139POPC   C2B24464  16.461  15.124   8.250
 6139POPC   C3B24465  16.458  15.166   7.950
 6139POPC   C4B24466  16.468  15.117   7.650
 6140POPC   NC324467  44.637  19.871   9.450
 6140POPC   PO424468  44.688  19.805   9.150
 6140POPC   GL124469  44.669  19.834   8.850
 6140POPC   GL224470  44.673  19.976   8.850
 6140POPC   C1A24471  44.650  19.797   8.550
 6140POPC   D2A24472  44.675  19.805   8.250
 6140POPC   C3A24473  44.651  19.852   7.950
 6140POPC   C4A24474  44.696  19.791   7.650
 6140POPC   C1B24475  44.671  20.045   8.550
 6140POPC   C2B24476  44.666  20.111   8.250
 6140POPC   C3B24477  44.685  20.081   7.950
 6140POPC   C4B24478  44.621  20.087   7.650
 6141POPC   NC324479  33.819  29.169   9.450
 6141POPC   PO424480  33.785  29.193   9.150
 6141POPC   GL124481  33.781  29.146   8.850
 6141POPC   GL224482  33.900  29.263   8.850
 6141POPC   C1A24483  33.841  29.130   8.550
 6141POPC   D2A24484  33.797  29.135   8.250
 6141POPC   C3A24485  33.810  29.135   7.950
 6141POPC   C4A24486  33.773  29.115   7.650
 6141POPC   C1B24487  33.891  29.342   8.550
 6141POPC   C2B24488  33.929  29.332   8.250
 6141POPC   C3B24489  33.883  29.391   7.950
 6141POPC   C4B24490  33.972  29.387   7.650
 6142POPC   NC324491  36.925  37.662   9.450
 6142POPC   PO424492  36.869  37.635   9.150
 6142POPC   GL124493  36.915  37.690   8.850
 6142POPC   GL224494  36.815  37.750   8.850
 6142POPC   C1A24495  36.869  37.716   8.550
 6142POPC   D2A24496  36.940  37.641   8.250
 6142POPC   C3A24497  36.925  37.657   7.950
 6142POPC   C4A24498  36.891  37.700   7.650
 6142POPC   C1B24499  36.770  37.887   8.550
 6142POPC   C2B24500  36.696  37.843   8.250
 6142POPC   C3B24501  36.756  37.833   7.950
 6142POPC   C4B24502  36.734  37.835   7.650
 6143POPC   NC324503  42.318   8.928   9.450
 6143POPC   PO424504  42.322   8.954   9.150
 6143POPC   GL124505  42.338   8.971   8.850
 6143POPC   GL224506  42.249   9.047   8.850
 6143POPC   C1A24507  42.295   9.019   8.550
 6143POPC   D2A24508  42.315   8.930   8.250
 6143POPC   C3A24509  42.286   8.935   7.950
 6143POPC   C4A24510  42.345   8.964   7.650
 6143POPC   C1B24511  42.199   9.214   8.550
 6143POPC   C2B24512  42.202   9.174   8.250
 6143POPC   C3B24513  42.151   9.204   7.950
 6143POPC   C4B24514  42.180   9.143   7.650
 6144POPC   NC324515   6.612  44.671   9.450
 6144POPC   PO424516   6.676  44.690   9.150
 6144POPC   GL124517   6.611  44.635   8.850
 6144POPC   GL224518   6.737  44.655   8.850
 6144POPC   C1A24519   6.608  44.630   8.550
 6144POPC   D2A24520   6.599  44.640   8.250
 6144POPC   C3A24521   6.620  44.676   7.950
 6144POPC   C4A24522   6.660  44.671   7.650
 6144POPC   C1B24523   6.903  44.617   8.550
 6144POPC   C2B24524   6.877  44.691   8.250
 6144POPC   C3B24525   6.847  44.706   7.950
 6144POPC   C4B24526   6.875  44.621   7.650
 6145POPC   NC324527  30.686  43.143   9.450
 6145POPC   PO424528  30.739  43.144   9.150
 6145POPC   GL124529  30.701  43.084   8.850
 6145POPC   GL224530  30.793  43.045   8.850
 6145POPC   C1A24531  30.704  43.086   8.550
 6145POPC   D2A24532  30.657  43.093   8.250
 6145POPC   C3A24533  30.730  43.156   7.950
 6145POPC   C4A24534  30.728  43.117   7.650
 6145POPC   C1B24535  30.927  43.060   8.550
 6145POPC   C2B24536  30.944  42.979   8.250
 6145POPC   C3B24537  30.943  43.018   7.950
 6145POPC   C4B24538  30.929  42.995   7.650
 6146POPC   NC324539  36.861   3.519   9.450
 6146POPC   PO424540  36.865   3.497   9.150
 6146POPC   GL124541  36.931   3.527   8.850
 6146POPC   GL224542  36.910   3.417   8.850
 6146POPC   C1A24543  36.902   3.552   8.550
 6146POPC   D2A24544  36.908   3.513   8.250
 6146POPC   C3A24545  36.921   3.510   7.950
 6146POPC   C4A24546  36.878   3.516   7.650
 6146POPC   C1B24547  36.956   3.271   8.550
 6146POPC   C2B24548  36.943   3.284   8.250
 6146POPC   C3B24549  36.928   3.325   7.950
 6146POPC   C4B24550  36.932   3.275   7.650
 6147POPC   NC324551  15.149  15.968   9.450
 6147POPC   PO424552  15.153  15.997   9.150
 6147POPC   GL124553  15.226  15.907   8.850
 6147POPC   GL224554  15.221  16.108   8.850
 6147POPC   C1A24555  15.171  15.918   8.550
 6147POPC   D2A24556  15.208  15.973   8.250
 6147POPC   C3A24557  15.211  15.971   7.950
 6147POPC   C4A24558  15.181  15.983   7.650
 6147POPC   C1B24559  15.245  16.209   8.550
 6147POPC   C2B24560  15.261  16.234   8.250
 6147POPC   C3B24561  15.251  16.223   7.950
 6147POPC   C4B24562  15.211  16.183   7.650
 6148POPC   NC324563  39.979  14.371   9.450
 6148POPC   PO424564  39.976  14.422   9.150
 6148POPC   GL124565  39.992  14.408   8.850
 6148POPC   GL224566  39.903  14.420   8.850
 6148POPC   C1A24567  39.976  14.355   8.550
 6148POPC   D2A24568  39.989  14.363   8.250
 6148POPC   C3A24569  39.957  14.406   7.950
 6148POPC   C4A24570  39.979  14.411   7.650
 6148POPC   C1B24571  39.821  14.573   8.550
 6148POPC   C2B24572  39.765  14.535   8.250
 6148POPC   C3B24573  39.778  14.501   7.950
 6148POPC   C4B24574  39.830  14.561   7.650
 6149POPC   NC324575  33.812  20.654   9.450
 6149POPC   PO424576  33.779  20.612   9.150
 6149POPC   GL124577  33.805  20.593   8.850
 6149POPC   GL224578  33.857  20.540   8.850
 6149POPC   C1A24579  33.752  20.655   8.550
 6149POPC   D2A24580  33.777  20.622   8.250
 6149POPC   C3A24581  33.794  20.651   7.950
 6149POPC   C4A24582  33.839  20.586   7.650
 6149POPC   C1B24583  33.932  20.445   8.550
 6149POPC   C2B24584  33.951  20.454   8.250
 6149POPC   C3B24585  33.953  20.469   7.950
 6149POPC   C4B24586  34.013  20.413   7.650
 6150POPC   NC324587  43.077   4.319   9.450
 6150POPC   PO424588  43.127   4.363   9.150
 6150POPC   GL124589  43.156   4.298   8.850
 6150POPC   GL224590  43.236   4.241   8.850
 6150POPC   C1A24591  43.077   4.341   8.550
 6150POPC   D2A24592  43.069   4.281   8.250
 6150POPC   C3A24593  43.129   4.315   7.950
 6150POPC   C4A24594  43.146   4.364   7.650
 6150POPC   C1B24595  43.351   4.154   8.550
 6150POPC   C2B24596  43.312   4.180   8.250
 6150POPC   C3B24597  43.325   4.202   7.950
 6150POPC   C4B24598  43.358   4.224   7.650
 6151POPC   NC324599  36.861  42.313   9.450
 6151POPC   PO424600  36.868  42.314   9.150
 6151POPC   GL124601  36.891  42.380   8.850
 6151POPC   GL224602  37.000  42.321   8.850
 6151POPC   C1A24603  36.882  42.339   8.550
 6151POPC   D2A24604  36.934  42.293   8.250
 6151POPC   C3A24605  36.948  42.288   7.950
 6151POPC   C4A24606  36.938  42.372   7.650
 6151POPC   C1B24607  37.153  42.346   8.550
 6151POPC   C2B24608  37.119  42.284   8.250
 6151POPC   C3B24609  37.182  42.309   7.950
 6151POPC   C4B24610  37.102  42.270   7.650
 6152POPC   NC324611  33.826  32.231   9.450
 6152POPC   PO424612  33.772  32.204   9.150
 6152POPC   GL124613  33.767  32.202   8.850
 6152POPC   GL224614  33.677  32.248   8.850
 6152POPC   C1A24615  33.792  32.231   8.550
 6152POPC   D2A24616  33.770  32.241   8.250
 6152POPC   C3A24617  33.828  32.228   7.950
 6152POPC   C4A24618  33.831  32.291   7.650
 6152POPC   C1B24619  33.542  32.294   8.550
 6152POPC   C2B24620  33.508  32.255   8.250
 6152POPC   C3B24621  33.605  32.296   7.950
 6152POPC   C4B24622  33.574  32.269   7.650
 6153POPC   NC324623  27.625  19.067   9.450
 6153POPC   PO424624  27.623  19.052   9.150
 6153POPC   GL124625  27.552  19.063   8.850
 6153POPC   GL224626  27.720  18.964   8.850
 6153POPC   C1A24627  27.555  19.059   8.550
 6153POPC   D2A24628  27.640  19.062   8.250
 6153POPC   C3A24629  27.587  19.021   7.950
 6153POPC   C4A24630  27.544  19.109   7.650
 6153POPC   C1B24631  27.832  18.932   8.550
 6153POPC   C2B24632  27.834  18.921   8.250
 6153POPC   C3B24633  27.793  18.923   7.950
 6153POPC   C4B24634  27.872  18.963   7.650
 6154POPC   NC324635   5.861   5.842   9.450
 6154POPC   PO424636   5.916   5.851   9.150
 6154POPC   GL124637   5.829   5.824   8.850
 6154POPC   GL224638   5.786   5.762   8.850
 6154POPC   C1A24639   5.863   5.829   8.550
 6154POPC   D2A24640   5.907   5.858   8.250
 6154POPC   C3A24641   5.860   5.914   7.950
 6154POPC   C4A24642   5.916   5.910   7.650
 6154POPC   C1B24643   5.649   5.735   8.550
 6154POPC   C2B24644   5.699   5.702   8.250
 6154POPC   C3B24645   5.673   5.710   7.950
 6154POPC   C4B24646   5.694   5.697   7.650
 6155POPC   NC324647   7.451  34.604   9.450
 6155POPC   PO424648   7.458  34.544   9.150
 6155POPC   GL124649   7.411  34.611   8.850
 6155POPC   GL224650   7.435  34.450   8.850
 6155POPC   C1A24651   7.432  34.571   8.550
 6155POPC   D2A24652   7.431  34.549   8.250
 6155POPC   C3A24653   7.460  34.528   7.950
 6155POPC   C4A24654   7.374  34.527   7.650
 6155POPC   C1B24655   7.379  34.296   8.550
 6155POPC   C2B24656   7.425  34.306   8.250
 6155POPC   C3B24657   7.408  34.296   7.950
 6155POPC   C4B24658   7.392  34.278   7.650
 6156POPC   NC324659  26.815  28.369   9.450
 6156POPC   PO424660  26.816  28.329   9.150
 6156POPC   GL124661  26.789  28.351   8.850
 6156POPC   GL224662  26.922  28.377   8.850
 6156POPC   C1A24663  26.810  28.358   8.550
 6156POPC   D2A24664  26.807  28.337   8.250
 6156POPC   C3A24665  26.827  28.358   7.950
 6156POPC   C4A24666  26.777  28.343   7.650
 6156POPC   C1B24667  27.004  28.429   8.550
 6156POPC   C2B24668  27.082  28.485   8.250
 6156POPC   C3B24669  27.097  28.491   7.950
 6156POPC   C4B24670  27.080  28.451   7.650
 6157POPC   NC324671   5.066  11.341   9.450
 6157POPC   PO424672   5.112  11.341   9.150
 6157POPC   GL124673   5.107  11.271   8.850
 6157POPC   GL224674   4.933  11.279   8.850
 6157POPC   C1A24675   5.051  11.283   8.550
 6157POPC   D2A24676   5.056  11.281   8.250
 6157POPC   C3A24677   5.143  11.260   7.950
 6157POPC   C4A24678   5.120  11.303   7.650
 6157POPC   C1B24679   4.858  11.308   8.550
 6157POPC   C2B24680   4.848  11.333   8.250
 6157POPC   C3B24681   4.886  11.329   7.950
 6157POPC   C4B24682   4.850  11.282   7.650
 6158POPC   NC324683  33.021  22.133   9.450
 6158POPC   PO424684  33.016  22.131   9.150
 6158POPC   GL124685  32.993  22.139   8.850
 6158POPC   GL224686  33.181  22.167   8.850
 6158POPC   C1A24687  33.015  22.191   8.550
 6158POPC   D2A24688  32.982  22.167   8.250
 6158POPC   C3A24689  33.024  22.117   7.950
 6158POPC   C4A24690  33.030  22.114   7.650
 6158POPC   C1B24691  33.223  22.106   8.550
 6158POPC   C2B24692  33.259  22.125   8.250
 6158POPC   C3B24693  33.308  22.079   7.950
 6158POPC   C4B24694  33.271  22.069   7.650
 6159POPC   NC324695  43.087  43.916   9.450
 6159POPC   PO424696  43.100  43.904   9.150
 6159POPC   GL124697  43.110  43.893   8.850
 6159POPC   GL224698  43.111  43.762   8.850
 6159POPC   C1A24699  43.124  43.874   8.550
 6159POPC   D2A24700  43.110  43.890   8.250
 6159POPC   C3A24701  43.083  43.856   7.950
 6159POPC   C4A24702  43.134  43.920   7.650
 6159POPC   C1B24703  43.067  43.661   8.550
 6159POPC   C2B24704  43.112  43.653   8.250
 6159POPC   C3B24705  43.102  43.664   7.950
 6159POPC   C4B24706  43.103  43.622   7.650
 6160POPC   NC324707  21.400  39.187   9.450
 6160POPC   PO424708  21.359  39.195   9.150
 6160POPC   GL124709  21.356  39.275   8.850
 6160POPC   GL224710  21.399  39.388   8.850
 6160POPC   C1A24711  21.417  39.182   8.550
 6160POPC   D2A24712  21.380  39.266   8.250
 6160POPC   C3A24713  21.369  39.231   7.950
 6160POPC   C4A24714  21.431  39.246   7.650
 6160POPC   C1B24715  21.410  39.505   8.550
 6160POPC   C2B24716  21.443  39.514   8.250
 6160POPC   C3B24717  21.395  39.513   7.950
 6160POPC   C4B24718  21.381  39.434   7.650
 6161POPC   NC324719  31.479  25.255   9.450
 6161POPC   PO424720  31.517  25.274   9.150
 6161POPC   GL124721  31.445  25.314   8.850
 6161POPC   GL224722  31.313  25.270   8.850
 6161POPC   C1A24723  31.425  25.284   8.550
 6161POPC   D2A24724  31.453  25.293   8.250
 6161POPC   C3A24725  31.436  25.264   7.950
 6161POPC   C4A24726  31.489  25.302   7.650
 6161POPC   C1B24727  31.224  25.208   8.550
 6161POPC   C2B24728  31.277  25.226   8.250
 6161POPC   C3B24729  31.280  25.220   7.950
 6161POPC   C4B24730  31.254  25.202   7.650
 6162POPC   NC324731  36.093  27.574   9.450
 6162POPC   PO424732  36.104  27.636   9.150
 6162POPC   GL124733  36.108  27.603   8.850
 6162POPC   GL224734  36.164  27.461   8.850
 6162POPC   C1A24735  36.101  27.639   8.550
 6162POPC   D2A24736  36.090  27.587   8.250
 6162POPC   C3A24737  36.173  27.639   7.950
 6162POPC   C4A24738  36.114  27.618   7.650
 6162POPC   C1B24739  36.180  27.354   8.550
 6162POPC   C2B24740  36.198  27.327   8.250
 6162POPC   C3B24741  36.170  27.339   7.950
 6162POPC   C4B24742  36.161  27.337   7.650
 6163POPC   NC324743   3.574  29.894   9.450
 6163POPC   PO424744   3.548  29.915   9.150
 6163POPC   GL124745   3.528  29.915   8.850
 6163POPC   GL224746   3.624  29.896   8.850
 6163POPC   C1A24747   3.529  29.905   8.550
 6163POPC   D2A24748   3.516  29.945   8.250
 6163POPC   C3A24749   3.575  29.953   7.950
 6163POPC   C4A24750   3.538  29.935   7.650
 6163POPC   C1B24751   3.783  29.790   8.550
 6163POPC   C2B24752   3.778  29.817   8.250
 6163POPC   C3B24753   3.718  29.729   7.950
 6163POPC   C4B24754   3.780  29.775   7.650
 6164POPC   NC324755   8.948   4.321   9.450
 6164POPC   PO424756   8.959   4.359   9.150
 6164POPC   GL124757   8.953   4.364   8.850
 6164POPC   GL224758   8.922   4.406   8.850
 6164POPC   C1A24759   8.975   4.271   8.550
 6164POPC   D2A24760   8.993   4.317   8.250
 6164POPC   C3A24761   8.992   4.300   7.950
 6164POPC   C4A24762   9.001   4.284   7.650
 6164POPC   C1B24763   8.819   4.572   8.550
 6164POPC   C2B24764   8.784   4.491   8.250
 6164POPC   C3B24765   8.875   4.543   7.950
 6164POPC   C4B24766   8.861   4.558   7.650
 6165POPC   NC324767  35.393  27.562   9.450
 6165POPC   PO424768  35.362  27.554   9.150
 6165POPC   GL124769  35.332  27.561   8.850
 6165POPC   GL224770  35.391  27.733   8.850
 6165POPC   C1A24771  35.333  27.635   8.550
 6165POPC   D2A24772  35.302  27.592   8.250
 6165POPC   C3A24773  35.374  27.592   7.950
 6165POPC   C4A24774  35.348  27.601   7.650
 6165POPC   C1B24775  35.409  27.884   8.550
 6165POPC   C2B24776  35.467  27.869   8.250
 6165POPC   C3B24777  35.414  27.869   7.950
 6165POPC   C4B24778  35.439  27.861   7.650
 6166POPC   NC324779   5.846  39.202   9.450
 6166POPC   PO424780   5.854  39.197   9.150
 6166POPC   GL124781   5.915  39.262   8.850
 6166POPC   GL224782   5.938  39.366   8.850
 6166POPC   C1A24783   5.822  39.255   8.550
 6166POPC   D2A24784   5.869  39.253   8.250
 6166POPC   C3A24785   5.831  39.266   7.950
 6166POPC   C4A24786   5.893  39.280   7.650
 6166POPC   C1B24787   6.034  39.452   8.550
 6166POPC   C2B24788   6.031  39.454   8.250
 6166POPC   C3B24789   5.995  39.454   7.950
 6166POPC   C4B24790   6.011  39.470   7.650
 6167POPC   NC324791   3.565   9.015   9.450
 6167POPC   PO424792   3.529   9.003   9.150
 6167POPC   GL124793   3.495   8.947   8.850
 6167POPC   GL224794   3.633   9.029   8.850
 6167POPC   C1A24795   3.568   9.018   8.550
 6167POPC   D2A24796   3.526   8.984   8.250
 6167POPC   C3A24797   3.500   8.938   7.950
 6167POPC   C4A24798   3.492   9.015   7.650
 6167POPC   C1B24799   3.715   9.086   8.550
 6167POPC   C2B24800   3.777   9.130   8.250
 6167POPC   C3B24801   3.786   9.140   7.950
 6167POPC   C4B24802   3.749   9.094   7.650
 6168POPC   NC324803   3.557  10.522   9.450
 6168POPC   PO424804   3.571  10.563   9.150
 6168POPC   GL124805   3.521  10.506   8.850
 6168POPC   GL224806   3.460  10.586   8.850
 6168POPC   C1A24807   3.547  10.518   8.550
 6168POPC   D2A24808   3.502  10.539   8.250
 6168POPC   C3A24809   3.505  10.496   7.950
 6168POPC   C4A24810   3.537  10.554   7.650
 6168POPC   C1B24811   3.306  10.610   8.550
 6168POPC   C2B24812   3.334  10.636   8.250
 6168POPC   C3B24813   3.302  10.650   7.950
 6168POPC   C4B24814   3.286  10.690   7.650
 6169POPC   NC324815  20.567  24.477   9.450
 6169POPC   PO424816  20.597  24.519   9.150
 6169POPC   GL124817  20.577  24.441   8.850
 6169POPC   GL224818  20.647  24.400   8.850
 6169POPC   C1A24819  20.633  24.516   8.550
 6169POPC   D2A24820  20.638  24.475   8.250
 6169POPC   C3A24821  20.623  24.490   7.950
 6169POPC   C4A24822  20.577  24.516   7.650
 6169POPC   C1B24823  20.617  24.207   8.550
 6169POPC   C2B24824  20.651  24.201   8.250
 6169POPC   C3B24825  20.646  24.218   7.950
 6169POPC   C4B24826  20.622  24.282   7.650
 6170POPC   NC324827   6.660  10.503   9.450
 6170POPC   PO424828   6.629  10.519   9.150
 6170POPC   GL124829   6.620  10.541   8.850
 6170POPC   GL224830   6.737  10.485   8.850
 6170POPC   C1A24831   6.619  10.479   8.550
 6170POPC   D2A24832   6.614  10.525   8.250
 6170POPC   C3A24833   6.671  10.523   7.950
 6170POPC   C4A24834   6.618  10.515   7.650
 6170POPC   C1B24835   6.830  10.462   8.550
 6170POPC   C2B24836   6.828  10.431   8.250
 6170POPC   C3B24837   6.908  10.468   7.950
 6170POPC   C4B24838   6.852  10.468   7.650
 6171POPC   NC324839  44.697   7.445   9.450
 6171POPC   PO424840  44.614   7.393   9.150
 6171POPC   GL124841  44.702   7.417   8.850
 6171POPC   GL224842  44.788   7.372   8.850
 6171POPC   C1A24843  44.626   7.380   8.550
 6171POPC   D2A24844  44.633   7.411   8.250
 6171POPC   C3A24845  44.709   7.452   7.950
 6171POPC   C4A24846  44.657   7.372   7.650
 6171POPC   C1B24847  44.853   7.353   8.550
 6171POPC   C2B24848  44.863   7.309   8.250
 6171POPC   C3B24849  44.886   7.302   7.950
 6171POPC   C4B24850  44.863   7.297   7.650
 6172POPC   NC324851  37.705  25.285   9.450
 6172POPC   PO424852  37.670  25.274   9.150
 6172POPC   GL124853  37.711  25.234   8.850
 6172POPC   GL224854  37.520  25.315   8.850
 6172POPC   C1A24855  37.698  25.243   8.550
 6172POPC   D2A24856  37.726  25.231   8.250
 6172POPC   C3A24857  37.689  25.289   7.950
 6172POPC   C4A24858  37.673  25.300   7.650
 6172POPC   C1B24859  37.395  25.277   8.550
 6172POPC   C2B24860  37.436  25.294   8.250
 6172POPC   C3B24861  37.400  25.320   7.950
 6172POPC   C4B24862  37.461  25.290   7.650
 6173POPC   NC324863  17.478  39.273   9.450
 6173POPC   PO424864  17.523  39.185   9.150
 6173POPC   GL124865  17.533  39.268   8.850
 6173POPC   GL224866  17.477  39.128   8.850
 6173POPC   C1A24867  17.517  39.229   8.550
 6173POPC   D2A24868  17.484  39.238   8.250
 6173POPC   C3A24869  17.530  39.185   7.950
 6173POPC   C4A24870  17.525  39.183   7.650
 6173POPC   C1B24871  17.502  38.970   8.550
 6173POPC   C2B24872  17.505  38.960   8.250
 6173POPC   C3B24873  17.558  38.946   7.950
 6173POPC   C4B24874  17.527  39.016   7.650
 6174POPC   NC324875  44.656  25.312   9.450
 6174POPC   PO424876  44.642  25.271   9.150
 6174POPC   GL124877  44.688  25.313   8.850
 6174POPC   GL224878  44.670  25.183   8.850
 6174POPC   C1A24879  44.706  25.311   8.550
 6174POPC   D2A24880  44.678  25.314   8.250
 6174POPC   C3A24881  44.671  25.242   7.950
 6174POPC   C4A24882  44.683  25.231   7.650
 6174POPC   C1B24883  44.656  25.004   8.550
 6174POPC   C2B24884  44.613  25.023   8.250
 6174POPC   C3B24885  44.611  24.977   7.950
 6174POPC   C4B24886  44.588  25.047   7.650
 6175POPC   NC324887  36.935  36.879   9.450
 6175POPC   PO424888  36.877  36.884   9.150
 6175POPC   GL124889  36.882  36.862   8.850
 6175POPC   GL224890  36.998  36.853   8.850
 6175POPC   C1A24891  36.945  36.907   8.550
 6175POPC   D2A24892  36.941  36.928   8.250
 6175POPC   C3A24893  36.945  36.916   7.950
 6175POPC   C4A24894  36.924  36.903   7.650
 6175POPC   C1B24895  37.111  36.731   8.550
 6175POPC   C2B24896  37.062  36.684   8.250
 6175POPC   C3B24897  37.095  36.709   7.950
 6175POPC   C4B24898  37.086  36.724   7.650
 6176POPC   NC324899  43.094  26.071   9.450
 6176POPC   PO424900  43.108  26.048   9.150
 6176POPC   GL124901  43.117  26.085   8.850
 6176POPC   GL224902  43.100  25.954   8.850
 6176POPC   C1A24903  43.110  26.019   8.550
 6176POPC   D2A24904  43.093  26.003   8.250
 6176POPC   C3A24905  43.063  26.065   7.950
 6176POPC   C4A24906  43.126  26.037   7.650
 6176POPC   C1B24907  43.035  25.781   8.550
 6176POPC   C2B24908  43.044  25.846   8.250
 6176POPC   C3B24909  43.001  25.835   7.950
 6176POPC   C4B24910  43.014  25.830   7.650
 6177POPC   NC324911  22.212  37.644   9.450
 6177POPC   PO424912  22.122  37.636   9.150
 6177POPC   GL124913  22.135  37.720   8.850
 6177POPC   GL224914  22.078  37.583   8.850
 6177POPC   C1A24915  22.147  37.652   8.550
 6177POPC   D2A24916  22.205  37.674   8.250
 6177POPC   C3A24917  22.178  37.714   7.950
 6177POPC   C4A24918  22.162  37.642   7.650
 6177POPC   C1B24919  21.974  37.570   8.550
 6177POPC   C2B24920  22.018  37.550   8.250
 6177POPC   C3B24921  21.949  37.512   7.950
 6177POPC   C4B24922  21.977  37.489   7.650
 6178POPC   NC324923   4.307   4.306   9.450
 6178POPC   PO424924   4.334   4.346   9.150
 6178POPC   GL124925   4.308   4.278   8.850
 6178POPC   GL224926   4.470   4.311   8.850
 6178POPC   C1A24927   4.351   4.328   8.550
 6178POPC   D2A24928   4.346   4.305   8.250
 6178POPC   C3A24929   4.275   4.291   7.950
 6178POPC   C4A24930   4.339   4.270   7.650
 6178POPC   C1B24931   4.570   4.308   8.550
 6178POPC   C2B24932   4.556   4.337   8.250
 6178POPC   C3B24933   4.581   4.345   7.950
 6178POPC   C4B24934   4.544   4.361   7.650
 6179POPC   NC324935  43.934  37.651   9.450
 6179POPC   PO424936  43.855  37.641   9.150
 6179POPC   GL124937  43.930  37.647   8.850
 6179POPC   GL224938  44.030  37.635   8.850
 6179POPC   C1A24939  43.851  37.680   8.550
 6179POPC   D2A24940  43.864  37.698   8.250
 6179POPC   C3A24941  43.861  37.692   7.950
 6179POPC   C4A24942  43.837  37.678   7.650
 6179POPC   C1B24943  44.152  37.620   8.550
 6179POPC   C2B24944  44.146  37.590   8.250
 6179POPC   C3B24945  44.153  37.629   7.950
 6179POPC   C4B24946  44.131  37.624   7.650
 6180POPC   NC324947  39.978  15.992   9.450
 6180POPC   PO424948  40.018  15.918   9.150
 6180POPC   GL124949  40.017  15.995   8.850
 6180POPC   GL224950  40.107  15.897   8.850
 6180POPC   C1A24951  40.007  16.002   8.550
 6180POPC   D2A24952  40.034  15.950   8.250
 6180POPC   C3A24953  39.957  15.912   7.950
 6180POPC   C4A24954  39.972  15.951   7.650
 6180POPC   C1B24955  40.218  15.868   8.550
 6180POPC   C2B24956  40.256  15.864   8.250
 6180POPC   C3B24957  40.259  15.863   7.950
 6180POPC   C4B24958  40.256  15.798   7.650
 6181POPC   NC324959  34.531  39.274   9.450
 6181POPC   PO424960  34.593  39.190   9.150
 6181POPC   GL124961  34.559  39.278   8.850
 6181POPC   GL224962  34.653  39.371   8.850
 6181POPC   C1A24963  34.607  39.267   8.550
 6181POPC   D2A24964  34.586  39.272   8.250
 6181POPC   C3A24965  34.552  39.199   7.950
 6181POPC   C4A24966  34.577  39.193   7.650
 6181POPC   C1B24967  34.639  39.500   8.550
 6181POPC   C2B24968  34.647  39.492   8.250
 6181POPC   C3B24969  34.669  39.462   7.950
 6181POPC   C4B24970  34.674  39.479   7.650
 6182POPC   NC324971  15.976   2.750   9.450
 6182POPC   PO424972  15.938   2.738   9.150
 6182POPC   GL124973  15.918   2.728   8.850
 6182POPC   GL224974  15.988   2.904   8.850
 6182POPC   C1A24975  15.909   2.813   8.550
 6182POPC   D2A24976  15.997   2.775   8.250
 6182POPC   C3A24977  15.967   2.753   7.950
 6182POPC   C4A24978  15.950   2.755   7.650
 6182POPC   C1B24979  15.986   3.036   8.550
 6182POPC   C2B24980  16.034   3.012   8.250
 6182POPC   C3B24981  16.034   3.045   7.950
 6182POPC   C4B24982  15.980   3.008   7.650
 6183POPC   NC324983  26.823  17.515   9.450
 6183POPC   PO424984  26.846  17.472   9.150
 6183POPC   GL124985  26.799  17.545   8.850
 6183POPC   GL224986  26.948  17.433   8.850
 6183POPC   C1A24987  26.832  17.509   8.550
 6183POPC   D2A24988  26.773  17.458   8.250
 6183POPC   C3A24989  26.863  17.542   7.950
 6183POPC   C4A24990  26.846  17.485   7.650
 6183POPC   C1B24991  26.959  17.329   8.550
 6183POPC   C2B24992  26.971  17.368   8.250
 6183POPC   C3B24993  27.042  17.301   7.950
 6183POPC   C4B24994  27.008  17.283   7.650
 6184POPC   NC324995   5.831   2.780   9.450
 6184POPC   PO424996   5.914   2.794   9.150
 6184POPC   GL124997   5.886   2.723   8.850
 6184POPC   GL224998   5.930   2.886   8.850
 6184POPC   C1A24999   5.855   2.739   8.550
 6184POPC   D2A25000   5.882   2.799   8.250
 6184POPC   C3A25001   5.899   2.772   7.950
 6184POPC   C4A25002   5.843   2.721   7.650
 6184POPC   C1B25003   5.979   2.942   8.550
 6184POPC   C2B25004   6.002   2.956   8.250
 6184POPC   C3B25005   6.048   3.009   7.950
 6184POPC   C4B25006   6.044   2.994   7.650
 6185POPC   NC325007  39.205   8.927   9.450
 6185POPC   PO425008  39.269   8.986   9.150
 6185POPC   GL125009  39.218   9.017   8.850
 6185POPC   GL225010  39.160   8.825   8.850
 6185POPC   C1A25011  39.206   8.980   8.550
 6185POPC   D2A25012  39.184   8.983   8.250
 6185POPC   C3A25013  39.246   9.018   7.950
 6185POPC   C4A25014  39.254   9.005   7.650
 6185POPC   C1B25015  39.124   8.711   8.550
 6185POPC   C2B25016  39.196   8.719   8.250
 6185POPC   C3B25017  39.126   8.763   7.950
 6185POPC   C4B25018  39.188   8.720   7.650
 6186POPC   NC325019  39.263  14.368   9.450
 6186POPC   PO425020  39.231  14.421   9.150
 6186POPC   GL125021  39.196  14.374   8.850
 6186POPC   GL225022  39.137  14.351   8.850
 6186POPC   C1A25023  39.246  14.421   8.550
 6186POPC   D2A25024  39.181  14.419   8.250
 6186POPC   C3A25025  39.189  14.377   7.950
 6186POPC   C4A25026  39.220  14.364   7.650
 6186POPC   C1B25027  38.999  14.295   8.550
 6186POPC   C2B25028  38.978  14.331   8.250
 6186POPC   C3B25029  39.013  14.339   7.950
 6186POPC   C4B25030  38.978  14.324   7.650
 6187POPC   NC325031  29.157  29.955   9.450
 6187POPC   PO425032  29.107  29.927   9.150
 6187POPC   GL125033  29.144  29.967   8.850
 6187POPC   GL225034  29.266  29.916   8.850
 6187POPC   C1A25035  29.180  29.927   8.550
 6187POPC   D2A25036  29.194  29.904   8.250
 6187POPC   C3A25037  29.112  29.894   7.950
 6187POPC   C4A25038  29.112  29.896   7.650
 6187POPC   C1B25039  29.412  30.003   8.550
 6187POPC   C2B25040  29.406  29.949   8.250
 6187POPC   C3B25041  29.419  29.952   7.950
 6187POPC   C4B25042  29.354  29.989   7.650
 6188POPC   NC325043  30.715  16.691   9.450
 6188POPC   PO425044  30.668  16.696   9.150
 6188POPC   GL125045  30.689  16.742   8.850
 6188POPC   GL225046  30.721  16.662   8.850
 6188POPC   C1A25047  30.682  16.738   8.550
 6188POPC   D2A25048  30.675  16.752   8.250
 6188POPC   C3A25049  30.686  16.712   7.950
 6188POPC   C4A25050  30.715  16.692   7.650
 6188POPC   C1B25051  30.823  16.488   8.550
 6188POPC   C2B25052  30.877  16.501   8.250
 6188POPC   C3B25053  30.848  16.476   7.950
 6188POPC   C4B25054  30.841  16.522   7.650
 6189POPC   NC325055  22.910  32.279   9.450
 6189POPC   PO425056  22.889  32.227   9.150
 6189POPC   GL125057  22.931  32.233   8.850
 6189POPC   GL225058  22.965  32.335   8.850
 6189POPC   C1A25059  22.899  32.246   8.550
 6189POPC   D2A25060  22.913  32.251   8.250
 6189POPC   C3A25061  22.954  32.258   7.950
 6189POPC   C4A25062  22.950  32.281   7.650
 6189POPC   C1B25063  22.939  32.456   8.550
 6189POPC   C2B25064  22.937  32.458   8.250
 6189POPC   C3B25065  22.936  32.449   7.950
 6189POPC   C4B25066  22.902  32.449   7.650
 6190POPC   NC325067   2.026  30.713   9.450
 6190POPC   PO425068   1.983  30.649   9.150
 6190POPC   GL125069   2.019  30.702   8.850
 6190POPC   GL225070   1.907  30.739   8.850
 6190POPC   C1A25071   1.942  30.649   8.550
 6190POPC   D2A25072   1.971  30.741   8.250
 6190POPC   C3A25073   2.031  30.715   7.950
 6190POPC   C4A25074   1.945  30.733   7.650
 6190POPC   C1B25075   1.798  30.874   8.550
 6190POPC   C2B25076   1.803  30.864   8.250
 6190POPC   C3B25077   1.823  30.818   7.950
 6190POPC   C4B25078   1.759  30.882   7.650
 6191POPC   NC325079  40.031  40.814   9.450
 6191POPC   PO425080  40.014  40.746   9.150
 6191POPC   GL125081  39.995  40.758   8.850
 6191POPC   GL225082  40.108  40.933   8.850
 6191POPC   C1A25083  39.974  40.757   8.550
 6191POPC   D2A25084  39.968  40.759   8.250
 6191POPC   C3A25085  39.997  40.771   7.950
 6191POPC   C4A25086  39.992  40.804   7.650
 6191POPC   C1B25087  40.099  40.977   8.550
 6191POPC   C2B25088  40.153  41.012   8.250
 6191POPC   C3B25089  40.131  40.976   7.950
 6191POPC   C4B25090  40.120  40.987   7.650
 6192POPC   NC325091   6.597   3.560   9.450
 6192POPC   PO425092   6.679   3.500   9.150
 6192POPC   GL125093   6.666   3.562   8.850
 6192POPC   GL225094   6.698   3.470   8.850
 6192POPC   C1A25095   6.689   3.492   8.550
 6192POPC   D2A25096   6.639   3.504   8.250
 6192POPC   C3A25097   6.633   3.522   7.950
 6192POPC   C4A25098   6.633   3.580   7.650
 6192POPC   C1B25099   6.805   3.309   8.550
 6192POPC   C2B25100   6.755   3.331   8.250
 6192POPC   C3B25101   6.846   3.333   7.950
 6192POPC   C4B25102   6.818   3.344   7.650
 6193POPC   NC325103  12.834  26.072   9.450
 6193POPC   PO425104  12.878  26.014   9.150
 6193POPC   GL125105  12.884  26.060   8.850
 6193POPC   GL225106  12.772  25.988   8.850
 6193POPC   C1A25107  12.838  26.066   8.550
 6193POPC   D2A25108  12.845  26.002   8.250
 6193POPC   C3A25109  12.817  26.027   7.950
 6193POPC   C4A25110  12.842  26.063   7.650
 6193POPC   C1B25111  12.607  25.972   8.550
 6193POPC   C2B25112  12.589  25.896   8.250
 6193POPC   C3B25113  12.607  25.900   7.950
 6193POPC   C4B25114  12.637  25.897   7.650
 6194POPC   NC325115  43.134   5.140   9.450
 6194POPC   PO425116  43.134   5.068   9.150
 6194POPC   GL125117  43.086   5.106   8.850
 6194POPC   GL225118  43.065   5.240   8.850
 6194POPC   C1A25119  43.142   5.111   8.550
 6194POPC   D2A25120  43.130   5.120   8.250
 6194POPC   C3A25121  43.107   5.113   7.950
 6194POPC   C4A25122  43.063   5.056   7.650
 6194POPC   C1B25123  43.051   5.317   8.550
 6194POPC   C2B25124  43.013   5.325   8.250
 6194POPC   C3B25125  43.022   5.358   7.950
 6194POPC   C4B25126  43.020   5.380   7.650
 6195POPC   NC325127   2.718  27.601   9.450
 6195POPC   PO425128   2.763  27.600   9.150
 6195POPC   GL125129   2.716  27.554   8.850
 6195POPC   GL225130   2.853  27.587   8.850
 6195POPC   C1A25131   2.768  27.561   8.550
 6195POPC   D2A25132   2.740  27.582   8.250
 6195POPC   C3A25133   2.808  27.602   7.950
 6195POPC   C4A25134   2.741  27.550   7.650
 6195POPC   C1B25135   3.027  27.632   8.550
 6195POPC   C2B25136   3.049  27.613   8.250
 6195POPC   C3B25137   2.982  27.620   7.950
 6195POPC   C4B25138   3.013  27.664   7.650
 6196POPC   NC325139  30.746  22.168   9.450
 6196POPC   PO425140  30.680  22.179   9.150
 6196POPC   GL125141  30.687  22.193   8.850
 6196POPC   GL225142  30.628  22.211   8.850
 6196POPC   C1A25143  30.711  22.136   8.550
 6196POPC   D2A25144  30.656  22.191   8.250
 6196POPC   C3A25145  30.697  22.157   7.950
 6196POPC   C4A25146  30.686  22.209   7.650
 6196POPC   C1B25147  30.525  22.309   8.550
 6196POPC   C2B25148  30.487  22.329   8.250
 6196POPC   C3B25149  30.514  22.357   7.950
 6196POPC   C4B25150  30.528  22.358   7.650
 6197POPC   NC325151   9.717  18.316   9.450
 6197POPC   PO425152   9.795  18.282   9.150
 6197POPC   GL125153   9.798  18.313   8.850
 6197POPC   GL225154   9.838  18.398   8.850
 6197POPC   C1A25155   9.753  18.303   8.550
 6197POPC   D2A25156   9.774  18.302   8.250
 6197POPC   C3A25157   9.781  18.278   7.950
 6197POPC   C4A25158   9.750  18.307   7.650
 6197POPC   C1B25159   9.916  18.495   8.550
 6197POPC   C2B25160   9.949  18.436   8.250
 6197POPC   C3B25161   9.889  18.478   7.950
 6197POPC   C4B25162   9.910  18.478   7.650
 6198POPC   NC325163  42.355  14.423   9.450
 6198POPC   PO425164  42.370  14.422   9.150
 6198POPC   GL125165  42.316  14.381   8.850
 6198POPC   GL225166  42.402  14.507   8.850
 6198POPC   C1A25167  42.357  14.424   8.550
 6198POPC   D2A25168  42.311  14.447   8.250
 6198POPC   C3A25169  42.337  14.390   7.950
 6198POPC   C4A25170  42.297  14.445   7.650
 6198POPC   C1B25171  42.522  14.559   8.550
 6198POPC   C2B25172  42.492  14.587   8.250
 6198POPC   C3B25173  42.540  14.602   7.950
 6198POPC   C4B25174  42.484  14.579   7.650
 6199POPC   NC325175  12.067  11.335   9.450
 6199POPC   PO425176  12.038  11.289   9.150
 6199POPC   GL125177  12.114  11.334   8.850
 6199POPC   GL225178  12.219  11.277   8.850
 6199POPC   C1A25179  12.071  11.347   8.550
 6199POPC   D2A25180  12.109  11.326   8.250
 6199POPC   C3A25181  12.088  11.293   7.950
 6199POPC   C4A25182  12.050  11.300   7.650
 6199POPC   C1B25183  12.355  11.354   8.550
 6199POPC   C2B25184  12.374  11.298   8.250
 6199POPC   C3B25185  12.322  11.271   7.950
 6199POPC   C4B25186  12.372  11.328   7.650
 6200POPC   NC325187   0.426  10.498   9.450
 6200POPC   PO425188   0.419  10.526   9.150
 6200POPC   GL125189   0.482  10.557   8.850
 6200POPC   GL225190   0.396  10.612   8.850
 6200POPC   C1A25191   0.485  10.522   8.550
 6200POPC   D2A25192   0.422  10.483   8.250
 6200POPC   C3A25193   0.477  10.521   7.950
 6200POPC   C4A25194   0.439  10.512   7.650
 6200POPC   C1B25195   0.223  10.692   8.550
 6200POPC   C2B25196   0.287  10.661   8.250
 6200POPC   C3B25197   0.238  10.743   7.950
 6200POPC   C4B25198   0.267  10.751   7.650
 6201POPC   NC325199  19.858  13.598   9.450
 6201POPC   PO425200  19.867  13.586   9.150
 6201POPC   GL125201  19.793  13.639   8.850
 6201POPC   GL225202  19.800  13.504   8.850
 6201POPC   C1A25203  19.805  13.592   8.550
 6201POPC   D2A25204  19.846  13.675   8.250
 6201POPC   C3A25205  19.872  13.592   7.950
 6201POPC   C4A25206  19.797  13.664   7.650
 6201POPC   C1B25207  19.775  13.368   8.550
 6201POPC   C2B25208  19.809  13.380   8.250
 6201POPC   C3B25209  19.810  13.339   7.950
 6201POPC   C4B25210  19.790  13.337   7.650
 6202POPC   NC325211  39.990  37.642   9.450
 6202POPC   PO425212  40.036  37.634   9.150
 6202POPC   GL125213  40.053  37.676   8.850
 6202POPC   GL225214  40.082  37.774   8.850
 6202POPC   C1A25215  39.969  37.639   8.550
 6202POPC   D2A25216  40.053  37.632   8.250
 6202POPC   C3A25217  40.022  37.691   7.950
 6202POPC   C4A25218  39.959  37.681   7.650
 6202POPC   C1B25219  40.203  37.843   8.550
 6202POPC   C2B25220  40.221  37.824   8.250
 6202POPC   C3B25221  40.141  37.819   7.950
 6202POPC   C4B25222  40.131  37.905   7.650
 6203POPC   NC325223  41.609  26.839   9.450
 6203POPC   PO425224  41.558  26.783   9.150
 6203POPC   GL125225  41.526  26.836   8.850
 6203POPC   GL225226  41.473  26.786   8.850
 6203POPC   C1A25227  41.584  26.865   8.550
 6203POPC   D2A25228  41.592  26.782   8.250
 6203POPC   C3A25229  41.546  26.811   7.950
 6203POPC   C4A25230  41.537  26.856   7.650
 6203POPC   C1B25231  41.312  26.723   8.550
 6203POPC   C2B25232  41.357  26.786   8.250
 6203POPC   C3B25233  41.264  26.758   7.950
 6203POPC   C4B25234  41.335  26.742   7.650
 6204POPC   NC325235  41.566  36.875   9.450
 6204POPC   PO425236  41.556  36.863   9.150
 6204POPC   GL125237  41.541  36.916   8.850
 6204POPC   GL225238  41.587  36.732   8.850
 6204POPC   C1A25239  41.516  36.912   8.550
 6204POPC   D2A25240  41.561  36.947   8.250
 6204POPC   C3A25241  41.591  36.926   7.950
 6204POPC   C4A25242  41.580  36.935   7.650
 6204POPC   C1B25243  41.630  36.648   8.550
 6204POPC   C2B25244  41.608  36.637   8.250
 6204POPC   C3B25245  41.623  36.650   7.950
 6204POPC   C4B25246  41.573  36.612   7.650
 6205POPC   NC325247  28.410  33.044   9.450
 6205POPC   PO425248  28.341  33.041   9.150
 6205POPC   GL125249  28.382  33.014   8.850
 6205POPC   GL225250  28.218  32.945   8.850
 6205POPC   C1A25251  28.340  32.999   8.550
 6205POPC   D2A25252  28.395  33.030   8.250
 6205POPC   C3A25253  28.379  33.017   7.950
 6205POPC   C4A25254  28.379  33.025   7.650
 6205POPC   C1B25255  28.144  32.876   8.550
 6205POPC   C2B25256  28.162  32.887   8.250
 6205POPC   C3B25257  28.180  32.926   7.950
 6205POPC   C4B25258  28.171  32.871   7.650
 6206POPC   NC325259  26.068   6.600   9.450
 6206POPC   PO425260  26.006   6.626   9.150
 6206POPC   GL125261  26.072   6.670   8.850
 6206POPC   GL225262  25.923   6.569   8.850
 6206POPC   C1A25263  26.035   6.614   8.550
 6206POPC   D2A25264  26.002   6.695   8.250
 6206POPC   C3A25265  26.056   6.613   7.950
 6206POPC   C4A25266  25.999   6.668   7.650
 6206POPC   C1B25267  25.903   6.464   8.550
 6206POPC   C2B25268  25.841   6.412   8.250
 6206POPC   C3B25269  25.847   6.431   7.950
 6206POPC   C4B25270  25.833   6.500   7.650
 6207POPC   NC325271  23.693  37.713   9.450
 6207POPC   PO425272  23.677  37.666   9.150
 6207POPC   GL125273  23.671  37.723   8.850
 6207POPC   GL225274  23.660  37.587   8.850
 6207POPC   C1A25275  23.736  37.706   8.550
 6207POPC   D2A25276  23.686  37.723   8.250
 6207POPC   C3A25277  23.718  37.645   7.950
 6207POPC   C4A25278  23.729  37.643   7.650
 6207POPC   C1B25279  23.605  37.493   8.550
 6207POPC   C2B25280  23.595  37.453   8.250
 6207POPC   C3B25281  23.599  37.432   7.950
 6207POPC   C4B25282  23.602  37.472   7.650
 6208POPC   NC325283  43.841  41.549   9.450
 6208POPC   PO425284  43.842  41.594   9.150
 6208POPC   GL125285  43.920  41.562   8.850
 6208POPC   GL225286  43.844  41.703   8.850
 6208POPC   C1A25287  43.929  41.562   8.550
 6208POPC   D2A25288  43.875  41.541   8.250
 6208POPC   C3A25289  43.869  41.578   7.950
 6208POPC   C4A25290  43.893  41.531   7.650
 6208POPC   C1B25291  43.796  41.795   8.550
 6208POPC   C2B25292  43.809  41.829   8.250
 6208POPC   C3B25293  43.796  41.816   7.950
 6208POPC   C4B25294  43.819  41.787   7.650
 6209POPC   NC325295  17.503  33.798   9.450
 6209POPC   PO425296  17.466  33.829   9.150
 6209POPC   GL125297  17.510  33.753   8.850
 6209POPC   GL225298  17.579  33.813   8.850
 6209POPC   C1A25299  17.521  33.815   8.550
 6209POPC   D2A25300  17.529  33.808   8.250
 6209POPC   C3A25301  17.458  33.829   7.950
 6209POPC   C4A25302  17.506  33.779   7.650
 6209POPC   C1B25303  17.780  33.761   8.550
 6209POPC   C2B25304  17.768  33.702   8.250
 6209POPC   C3B25305  17.771  33.740   7.950
 6209POPC   C4B25306  17.744  33.724   7.650
 6210POPC   NC325307  12.077  30.653   9.450
 6210POPC   PO425308  12.067  30.668   9.150
 6210POPC   GL125309  12.091  30.689   8.850
 6210POPC   GL225310  11.997  30.744   8.850
 6210POPC   C1A25311  12.057  30.647   8.550
 6210POPC   D2A25312  12.049  30.743   8.250
 6210POPC   C3A25313  12.044  30.677   7.950
 6210POPC   C4A25314  12.093  30.679   7.650
 6210POPC   C1B25315  11.844  30.806   8.550
 6210POPC   C2B25316  11.791  30.808   8.250
 6210POPC   C3B25317  11.854  30.761   7.950
 6210POPC   C4B25318  11.847  30.767   7.650
 6211POPC   NC325319  31.462  15.969   9.450
 6211POPC   PO425320  31.485  15.953   9.150
 6211POPC   GL125321  31.446  15.914   8.850
 6211POPC   GL225322  31.534  16.025   8.850
 6211POPC   C1A25323  31.424  15.910   8.550
 6211POPC   D2A25324  31.455  16.001   8.250
 6211POPC   C3A25325  31.441  15.915   7.950
 6211POPC   C4A25326  31.439  15.913   7.650
 6211POPC   C1B25327  31.719  16.050   8.550
 6211POPC   C2B25328  31.695  16.097   8.250
 6211POPC   C3B25329  31.716  16.062   7.950
 6211POPC   C4B25330  31.698  16.131   7.650
 6212POPC   NC325331  26.830   7.461   9.450
 6212POPC   PO425332  26.813   7.414   9.150
 6212POPC   GL125333  26.822   7.419   8.850
 6212POPC   GL225334  26.735   7.535   8.850
 6212POPC   C1A25335  26.815   7.430   8.550
 6212POPC   D2A25336  26.773   7.378   8.250
 6212POPC   C3A25337  26.836   7.468   7.950
 6212POPC   C4A25338  26.859   7.393   7.650
 6212POPC   C1B25339  26.712   7.681   8.550
 6212POPC   C2B25340  26.719   7.642   8.250
 6212POPC   C3B25341  26.647   7.671   7.950
 6212POPC   C4B25342  26.704   7.601   7.650
 6213POPC   NC325343  43.883  15.986   9.450
 6213POPC   PO425344  43.934  15.949   9.150
 6213POPC   GL125345  43.886  15.970   8.850
 6213POPC   GL225346  43.966  15.939   8.850
 6213POPC   C1A25347  43.935  16.000   8.550
 6213POPC   D2A25348  43.907  15.936   8.250
 6213POPC   C3A25349  43.873  15.910   7.950
 6213POPC   C4A25350  43.922  15.930   7.650
 6213POPC   C1B25351  44.113  15.888   8.550
 6213POPC   C2B25352  44.132  15.870   8.250
 6213POPC   C3B25353  44.127  15.852   7.950
 6213POPC   C4B25354  44.112  15.896   7.650
 6214POPC   NC325355  35.336  36.948   9.450
 6214POPC   PO425356  35.371  36.891   9.150
 6214POPC   GL125357  35.314  36.943   8.850
 6214POPC   GL225358  35.290  36.984   8.850
 6214POPC   C1A25359  35.341  36.881   8.550
 6214POPC   D2A25360  35.373  36.905   8.250
 6214POPC   C3A25361  35.346  36.888   7.950
 6214POPC   C4A25362  35.369  36.939   7.650
 6214POPC   C1B25363  35.266  37.168   8.550
 6214POPC   C2B25364  35.217  37.099   8.250
 6214POPC   C3B25365  35.310  37.124   7.950
 6214POPC   C4B25366  35.238  37.127   7.650
 6215POPC   NC325367  29.970  28.396   9.450
 6215POPC   PO425368  29.958  28.359   9.150
 6215POPC   GL125369  29.932  28.386   8.850
 6215POPC   GL225370  29.906  28.511   8.850
 6215POPC   C1A25371  29.940  28.400   8.550
 6215POPC   D2A25372  29.897  28.322   8.250
 6215POPC   C3A25373  29.876  28.400   7.950
 6215POPC   C4A25374  29.919  28.385   7.650
 6215POPC   C1B25375  29.846  28.598   8.550
 6215POPC   C2B25376  29.829  28.567   8.250
 6215POPC   C3B25377  29.855  28.653   7.950
 6215POPC   C4B25378  29.805  28.647   7.650
 6216POPC   NC325379   5.116  15.226   9.450
 6216POPC   PO425380   5.108  15.212   9.150
 6216POPC   GL125381   5.083  15.224   8.850
 6216POPC   GL225382   5.004  15.256   8.850
 6216POPC   C1A25383   5.090  15.152   8.550
 6216POPC   D2A25384   5.086  15.156   8.250
 6216POPC   C3A25385   5.075  15.135   7.950
 6216POPC   C4A25386   5.045  15.152   7.650
 6216POPC   C1B25387   4.847  15.313   8.550
 6216POPC   C2B25388   4.906  15.254   8.250
 6216POPC   C3B25389   4.879  15.341   7.950
 6216POPC   C4B25390   4.832  15.320   7.650
 6217POPC   NC325391  39.958  35.399   9.450
 6217POPC   PO425392  39.961  35.359   9.150
 6217POPC   GL125393  39.997  35.329   8.850
 6217POPC   GL225394  39.908  35.439   8.850
 6217POPC   C1A25395  40.052  35.392   8.550
 6217POPC   D2A25396  40.028  35.394   8.250
 6217POPC   C3A25397  39.982  35.346   7.950
 6217POPC   C4A25398  40.014  35.334   7.650
 6217POPC   C1B25399  39.819  35.536   8.550
 6217POPC   C2B25400  39.833  35.588   8.250
 6217POPC   C3B25401  39.889  35.605   7.950
 6217POPC   C4B25402  39.887  35.595   7.650
 6218POPC   NC325403  15.161  43.122   9.450
 6218POPC   PO425404  15.145  43.088   9.150
 6218POPC   GL125405  15.215  43.126   8.850
 6218POPC   GL225406  15.241  42.971   8.850
 6218POPC   C1A25407  15.153  43.120   8.550
 6218POPC   D2A25408  15.191  43.117   8.250
 6218POPC   C3A25409  15.157  43.147   7.950
 6218POPC   C4A25410  15.199  43.147   7.650
 6218POPC   C1B25411  15.238  42.855   8.550
 6218POPC   C2B25412  15.291  42.893   8.250
 6218POPC   C3B25413  15.326  42.855   7.950
 6218POPC   C4B25414  15.329  42.836   7.650
 6219POPC   NC325415   2.788  21.368   9.450
 6219POPC   PO425416   2.798  21.388   9.150
 6219POPC   GL125417   2.798  21.338   8.850
 6219POPC   GL225418   2.697  21.481   8.850
 6219POPC   C1A25419   2.753  21.396   8.550
 6219POPC   D2A25420   2.760  21.428   8.250
 6219POPC   C3A25421   2.719  21.350   7.950
 6219POPC   C4A25422   2.756  21.433   7.650
 6219POPC   C1B25423   2.576  21.611   8.550
 6219POPC   C2B25424   2.659  21.548   8.250
 6219POPC   C3B25425   2.596  21.559   7.950
 6219POPC   C4B25426   2.632  21.547   7.650
 6220POPC   NC325427  27.588   8.161   9.450
 6220POPC   PO425428  27.600   8.195   9.150
 6220POPC   GL125429  27.573   8.149   8.850
 6220POPC   GL225430  27.474   8.319   8.850
 6220POPC   C1A25431  27.556   8.167   8.550
 6220POPC   D2A25432  27.625   8.166   8.250
 6220POPC   C3A25433  27.640   8.217   7.950
 6220POPC   C4A25434  27.613   8.147   7.650
 6220POPC   C1B25435  27.441   8.424   8.550
 6220POPC   C2B25436  27.430   8.349   8.250
 6220POPC   C3B25437  27.413   8.370   7.950
 6220POPC   C4B25438  27.399   8.376   7.650
 6221POPC   NC325439  12.052  39.267   9.450
 6221POPC   PO425440  12.114  39.233   9.150
 6221POPC   GL125441  12.069  39.224   8.850
 6221POPC   GL225442  12.079  39.067   8.850
 6221POPC   C1A25443  12.092  39.249   8.550
 6221POPC   D2A25444  12.085  39.245   8.250
 6221POPC   C3A25445  12.044  39.277   7.950
 6221POPC   C4A25446  12.027  39.220   7.650
 6221POPC   C1B25447  12.039  38.976   8.550
 6221POPC   C2B25448  12.073  39.017   8.250
 6221POPC   C3B25449  12.005  38.996   7.950
 6221POPC   C4B25450  12.007  38.941   7.650
 6222POPC   NC325451   4.326  15.911   9.450
 6222POPC   PO425452   4.342  15.965   9.150
 6222POPC   GL125453   4.328  15.962   8.850
 6222POPC   GL225454   4.401  15.841   8.850
 6222POPC   C1A25455   4.312  15.927   8.550
 6222POPC   D2A25456   4.280  15.928   8.250
 6222POPC   C3A25457   4.363  15.906   7.950
 6222POPC   C4A25458   4.337  15.951   7.650
 6222POPC   C1B25459   4.474  15.853   8.550
 6222POPC   C2B25460   4.496  15.791   8.250
 6222POPC   C3B25461   4.535  15.812   7.950
 6222POPC   C4B25462   4.535  15.769   7.650
 6223POPC   NC325463  22.152  20.646   9.450
 6223POPC   PO425464  22.199  20.655   9.150
 6223POPC   GL125465  22.133  20.604   8.850
 6223POPC   GL225466  22.236  20.472   8.850
 6223POPC   C1A25467  22.141  20.656   8.550
 6223POPC   D2A25468  22.183  20.570   8.250
 6223POPC   C3A25469  22.161  20.586   7.950
 6223POPC   C4A25470  22.123  20.614   7.650
 6223POPC   C1B25471  22.283  20.373   8.550
 6223POPC   C2B25472  22.273  20.381   8.250
 6223POPC   C3B25473  22.318  20.385   7.950
 6223POPC   C4B25474  22.229  20.432   7.650
 6224POPC   NC325475  14.385  19.842   9.450
 6224POPC   PO425476  14.388  19.839   9.150
 6224POPC   GL125477  14.393  19.884   8.850
 6224POPC   GL225478  14.333  19.807   8.850
 6224POPC   C1A25479  14.435  19.836   8.550
 6224POPC   D2A25480  14.408  19.826   8.250
 6224POPC   C3A25481  14.367  19.873   7.950
 6224POPC   C4A25482  14.382  19.851   7.650
 6224POPC   C1B25483  14.203  19.791   8.550
 6224POPC   C2B25484  14.170  19.798   8.250
 6224POPC   C3B25485  14.199  19.766   7.950
 6224POPC   C4B25486  14.172  19.773   7.650
 6225POPC   NC325487  22.199  33.776   9.450
 6225POPC   PO425488  22.150  33.789   9.150
 6225POPC   GL125489  22.157  33.751   8.850
 6225POPC   GL225490  22.038  33.865   8.850
 6225POPC   C1A25491  22.154  33.823   8.550
 6225POPC   D2A25492  22.181  33.839   8.250
 6225POPC   C3A25493  22.182  33.825   7.950
 6225POPC   C4A25494  22.123  33.812   7.650
 6225POPC   C1B25495  21.938  33.901   8.550
 6225POPC   C2B25496  21.947  33.828   8.250
 6225POPC   C3B25497  21.922  33.822   7.950
 6225POPC   C4B25498  21.873  33.899   7.650
 6226POPC   NC325499  19.105  38.412   9.450
 6226POPC   PO425500  19.038  38.438   9.150
 6226POPC   GL125501  19.021  38.442   8.850
 6226POPC   GL225502  19.108  38.567   8.850
 6226POPC   C1A25503  19.015  38.452   8.550
 6226POPC   D2A25504  19.009  38.429   8.250
 6226POPC   C3A25505  19.091  38.444   7.950
 6226POPC   C4A25506  19.021  38.476   7.650
 6226POPC   C1B25507  19.203  38.636   8.550
 6226POPC   C2B25508  19.230  38.617   8.250
 6226POPC   C3B25509  19.220  38.709   7.950
 6226POPC   C4B25510  19.242  38.612   7.650
 6227POPC   NC325511  21.387  23.695   9.450
 6227POPC   PO425512  21.370  23.690   9.150
 6227POPC   GL125513  21.410  23.695   8.850
 6227POPC   GL225514  21.324  23.859   8.850
 6227POPC   C1A25515  21.348  23.728   8.550
 6227POPC   D2A25516  21.358  23.686   8.250
 6227POPC   C3A25517  21.381  23.673   7.950
 6227POPC   C4A25518  21.389  23.678   7.650
 6227POPC   C1B25519  21.376  23.973   8.550
 6227POPC   C2B25520  21.309  23.969   8.250
 6227POPC   C3B25521  21.318  23.954   7.950
 6227POPC   C4B25522  21.354  23.916   7.650
 6228POPC   NC325523  22.211  25.245   9.450
 6228POPC   PO425524  22.171  25.245   9.150
 6228POPC   GL125525  22.202  25.315   8.850
 6228POPC   GL225526  22.121  25.111   8.850
 6228POPC   C1A25527  22.121  25.297   8.550
 6228POPC   D2A25528  22.202  25.294   8.250
 6228POPC   C3A25529  22.121  25.251   7.950
 6228POPC   C4A25530  22.211  25.296   7.650
 6228POPC   C1B25531  22.088  25.065   8.550
 6228POPC   C2B25532  22.146  25.005   8.250
 6228POPC   C3B25533  22.110  25.010   7.950
 6228POPC   C4B25534  22.092  25.058   7.650
 6229POPC   NC325535  39.205  39.247   9.450
 6229POPC   PO425536  39.250  39.236   9.150
 6229POPC   GL125537  39.196  39.200   8.850
 6229POPC   GL225538  39.118  39.305   8.850
 6229POPC   C1A25539  39.186  39.261   8.550
 6229POPC   D2A25540  39.201  39.231   8.250
 6229POPC   C3A25541  39.263  39.222   7.950
 6229POPC   C4A25542  39.184  39.206   7.650
 6229POPC   C1B25543  39.114  39.428   8.550
 6229POPC   C2B25544  39.074  39.427   8.250
 6229POPC   C3B25545  39.097  39.439   7.950
 6229POPC   C4B25546  39.088  39.459   7.650
 6230POPC   NC325547  27.574   0.417   9.450
 6230POPC   PO425548  27.573   0.420   9.150
 6230POPC   GL125549  27.639   0.425   8.850
 6230POPC   GL225550  27.570   0.563   8.850
 6230POPC   C1A25551  27.551   0.418   8.550
 6230POPC   D2A25552  27.569   0.407   8.250
 6230POPC   C3A25553  27.627   0.483   7.950
 6230POPC   C4A25554  27.555   0.480   7.650
 6230POPC   C1B25555  27.516   0.646   8.550
 6230POPC   C2B25556  27.435   0.644   8.250
 6230POPC   C3B25557  27.484   0.678   7.950
 6230POPC   C4B25558  27.491   0.667   7.650
 6231POPC   NC325559  32.235  26.782   9.450
 6231POPC   PO425560  32.242  26.776   9.150
 6231POPC   GL125561  32.251  26.866   8.850
 6231POPC   GL225562  32.242  26.734   8.850
 6231POPC   C1A25563  32.227  26.781   8.550
 6231POPC   D2A25564  32.205  26.828   8.250
 6231POPC   C3A25565  32.261  26.866   7.950
 6231POPC   C4A25566  32.225  26.820   7.650
 6231POPC   C1B25567  32.185  26.550   8.550
 6231POPC   C2B25568  32.157  26.536   8.250
 6231POPC   C3B25569  32.212  26.586   7.950
 6231POPC   C4B25570  32.171  26.597   7.650
 6232POPC   NC325571   1.951  22.953   9.450
 6232POPC   PO425572   1.971  22.955   9.150
 6232POPC   GL125573   2.027  22.891   8.850
 6232POPC   GL225574   1.865  22.945   8.850
 6232POPC   C1A25575   2.017  22.900   8.550
 6232POPC   D2A25576   1.981  22.912   8.250
 6232POPC   C3A25577   1.949  22.901   7.950
 6232POPC   C4A25578   1.997  22.973   7.650
 6232POPC   C1B25579   1.787  22.852   8.550
 6232POPC   C2B25580   1.700  22.855   8.250
 6232POPC   C3B25581   1.718  22.942   7.950
 6232POPC   C4B25582   1.780  22.870   7.650
 6233POPC   NC325583   8.222   1.197   9.450
 6233POPC   PO425584   8.228   1.206   9.150
 6233POPC   GL125585   8.209   1.227   8.850
 6233POPC   GL225586   8.113   1.060   8.850
 6233POPC   C1A25587   8.222   1.218   8.550
 6233POPC   D2A25588   8.200   1.188   8.250
 6233POPC   C3A25589   8.169   1.241   7.950
 6233POPC   C4A25590   8.223   1.217   7.650
 6233POPC   C1B25591   8.145   1.026   8.550
 6233POPC   C2B25592   8.125   0.957   8.250
 6233POPC   C3B25593   8.125   1.009   7.950
 6233POPC   C4B25594   8.086   0.958   7.650
 6234POPC   NC325595  31.463  13.651   9.450
 6234POPC   PO425596  31.464  13.659   9.150
 6234POPC   GL125597  31.499  13.627   8.850
 6234POPC   GL225598  31.404  13.550   8.850
 6234POPC   C1A25599  31.443  13.625   8.550
 6234POPC   D2A25600  31.434  13.601   8.250
 6234POPC   C3A25601  31.423  13.590   7.950
 6234POPC   C4A25602  31.429  13.669   7.650
 6234POPC   C1B25603  31.300  13.429   8.550
 6234POPC   C2B25604  31.351  13.388   8.250
 6234POPC   C3B25605  31.366  13.393   7.950
 6234POPC   C4B25606  31.381  13.404   7.650
 6235POPC   NC325607  13.671  36.891   9.450
 6235POPC   PO425608  13.601  36.940   9.150
 6235POPC   GL125609  13.675  36.919   8.850
 6235POPC   GL225610  13.702  36.914   8.850
 6235POPC   C1A25611  13.582  36.940   8.550
 6235POPC   D2A25612  13.632  36.900   8.250
 6235POPC   C3A25613  13.608  36.930   7.950
 6235POPC   C4A25614  13.669  36.910   7.650
 6235POPC   C1B25615  13.823  36.808   8.550
 6235POPC   C2B25616  13.915  36.874   8.250
 6235POPC   C3B25617  13.826  36.846   7.950
 6235POPC   C4B25618  13.896  36.858   7.650
 6236POPC   NC325619   1.181  13.605   9.450
 6236POPC   PO425620   1.238  13.596   9.150
 6236POPC   GL125621   1.169  13.594   8.850
 6236POPC   GL225622   1.306  13.626   8.850
 6236POPC   C1A25623   1.211  13.657   8.550
 6236POPC   D2A25624   1.215  13.651   8.250
 6236POPC   C3A25625   1.208  13.590   7.950
 6236POPC   C4A25626   1.172  13.596   7.650
 6236POPC   C1B25627   1.453  13.556   8.550
 6236POPC   C2B25628   1.411  13.545   8.250
 6236POPC   C3B25629   1.487  13.579   7.950
 6236POPC   C4B25630   1.498  13.547   7.650
 6237POPC   NC325631   7.392  32.244   9.450
 6237POPC   PO425632   7.438  32.242   9.150
 6237POPC   GL125633   7.392  32.257   8.850
 6237POPC   GL225634   7.503  32.348   8.850
 6237POPC   C1A25635   7.426  32.204   8.550
 6237POPC   D2A25636   7.466  32.274   8.250
 6237POPC   C3A25637   7.468  32.217   7.950
 6237POPC   C4A25638   7.462  32.201   7.650
 6237POPC   C1B25639   7.672  32.410   8.550
 6237POPC   C2B25640   7.602  32.378   8.250
 6237POPC   C3B25641   7.623  32.375   7.950
 6237POPC   C4B25642   7.599  32.424   7.650
 6238POPC   NC325643  23.688  21.393   9.450
 6238POPC   PO425644  23.684  21.405   9.150
 6238POPC   GL125645  23.737  21.383   8.850
 6238POPC   GL225646  23.654  21.490   8.850
 6238POPC   C1A25647  23.710  21.368   8.550
 6238POPC   D2A25648  23.728  21.434   8.250
 6238POPC   C3A25649  23.741  21.397   7.950
 6238POPC   C4A25650  23.706  21.346   7.650
 6238POPC   C1B25651  23.640  21.634   8.550
 6238POPC   C2B25652  23.581  21.645   8.250
 6238POPC   C3B25653  23.595  21.626   7.950
 6238POPC   C4B25654  23.547  21.616   7.650
 6239POPC   NC325655   1.954  32.289   9.450
 6239POPC   PO425656   1.956  32.204   9.150
 6239POPC   GL125657   1.985  32.200   8.850
 6239POPC   GL225658   2.066  32.369   8.850
 6239POPC   C1A25659   2.012  32.285   8.550
 6239POPC   D2A25660   1.976  32.270   8.250
 6239POPC   C3A25661   1.995  32.257   7.950
 6239POPC   C4A25662   1.942  32.200   7.650
 6239POPC   C1B25663   2.148  32.505   8.550
 6239POPC   C2B25664   2.132  32.484   8.250
 6239POPC   C3B25665   2.094  32.436   7.950
 6239POPC   C4B25666   2.123  32.464   7.650
 6240POPC   NC325667  26.819  43.144   9.450
 6240POPC   PO425668  26.828  43.094   9.150
 6240POPC   GL125669  26.806  43.139   8.850
 6240POPC   GL225670  26.934  43.109   8.850
 6240POPC   C1A25671  26.782  43.155   8.550
 6240POPC   D2A25672  26.815  43.138   8.250
 6240POPC   C3A25673  26.854  43.130   7.950
 6240POPC   C4A25674  26.858  43.080   7.650
 6240POPC   C1B25675  27.102  43.113   8.550
 6240POPC   C2B25676  27.038  43.080   8.250
 6240POPC   C3B25677  27.051  43.091   7.950
 6240POPC   C4B25678  27.053  43.093   7.650
 6241POPC   NC325679  43.067  18.307   9.450
 6241POPC   PO425680  43.099  18.295   9.150
 6241POPC   GL125681  43.084  18.279   8.850
 6241POPC   GL225682  43.217  18.240   8.850
 6241POPC   C1A25683  43.137  18.310   8.550
 6241POPC   D2A25684  43.075  18.234   8.250
 6241POPC   C3A25685  43.115  18.322   7.950
 6241POPC   C4A25686  43.067  18.306   7.650
 6241POPC   C1B25687  43.307  18.137   8.550
 6241POPC   C2B25688  43.305  18.069   8.250
 6241POPC   C3B25689  43.251  18.110   7.950
 6241POPC   C4B25690  43.294  18.102   7.650
 6242POPC   NC325691  26.828   5.872   9.450
 6242POPC   PO425692  26.852   5.917   9.150
 6242POPC   GL125693  26.836   5.855   8.850
 6242POPC   GL225694  26.976   5.900   8.850
 6242POPC   C1A25695  26.830   5.910   8.550
 6242POPC   D2A25696  26.822   5.839   8.250
 6242POPC   C3A25697  26.842   5.829   7.950
 6242POPC   C4A25698  26.832   5.865   7.650
 6242POPC   C1B25699  27.088   5.945   8.550
 6242POPC   C2B25700  27.033   5.980   8.250
 6242POPC   C3B25701  27.033   5.916   7.950
 6242POPC   C4B25702  27.067   5.904   7.650
 6243POPC   NC325703  29.170  25.996   9.450
 6243POPC   PO425704  29.167  26.061   9.150
 6243POPC   GL125705  29.183  26.071   8.850
 6243POPC   GL225706  29.080  26.182   8.850
 6243POPC   C1A25707  29.127  26.007   8.550
 6243POPC   D2A25708  29.180  26.022   8.250
 6243POPC   C3A25709  29.131  26.048   7.950
 6243POPC   C4A25710  29.147  26.040   7.650
 6243POPC   C1B25711  29.018  26.238   8.550
 6243POPC   C2B25712  29.012  26.209   8.250
 6243POPC   C3B25713  29.033  26.216   7.950
 6243POPC   C4B25714  29.028  26.273   7.650
 6244POPC   NC325715   1.996   6.658   9.450
 6244POPC   PO425716   2.013   6.601   9.150
 6244POPC   GL125717   2.010   6.638   8.850
 6244POPC   GL225718   1.851   6.680   8.850
 6244POPC   C1A25719   1.949   6.626   8.550
 6244POPC   D2A25720   1.949   6.677   8.250
 6244POPC   C3A25721   1.956   6.654   7.950
 6244POPC   C4A25722   2.023   6.627   7.650
 6244POPC   C1B25723   1.782   6.748   8.550
 6244POPC   C2B25724   1.778   6.796   8.250
 6244POPC   C3B25725   1.799   6.724   7.950
 6244POPC   C4B25726   1.770   6.788   7.650
 6245POPC   NC325727  26.863  33.814   9.450
 6245POPC   PO425728  26.818  33.764   9.150
 6245POPC   GL125729  26.814  33.807   8.850
 6245POPC   GL225730  26.769  33.954   8.850
 6245POPC   C1A25731  26.805  33.800   8.550
 6245POPC   D2A25732  26.838  33.840   8.250
 6245POPC   C3A25733  26.815  33.847   7.950
 6245POPC   C4A25734  26.802  33.784   7.650
 6245POPC   C1B25735  26.733  34.035   8.550
 6245POPC   C2B25736  26.709  34.042   8.250
 6245POPC   C3B25737  26.729  34.019   7.950
 6245POPC   C4B25738  26.729  34.062   7.650
 6246POPC   NC325739   3.514  40.034   9.450
 6246POPC   PO425740   3.579  40.015   9.150
 6246POPC   GL125741   3.553  40.045   8.850
 6246POPC   GL225742   3.504  40.156   8.850
 6246POPC   C1A25743   3.494  40.035   8.550
 6246POPC   D2A25744   3.538  39.980   8.250
 6246POPC   C3A25745   3.541  40.003   7.950
 6246POPC   C4A25746   3.531  40.004   7.650
 6246POPC   C1B25747   3.393  40.188   8.550
 6246POPC   C2B25748   3.393  40.220   8.250
 6246POPC   C3B25749   3.423  40.192   7.950
 6246POPC   C4B25750   3.460  40.264   7.650
 6247POPC   NC325751  43.847  31.466   9.450
 6247POPC   PO425752  43.933  31.474   9.150
 6247POPC   GL125753  43.838  31.481   8.850
 6247POPC   GL225754  43.960  31.416   8.850
 6247POPC   C1A25755  43.911  31.453   8.550
 6247POPC   D2A25756  43.914  31.464   8.250
 6247POPC   C3A25757  43.854  31.506   7.950
 6247POPC   C4A25758  43.925  31.492   7.650
 6247POPC   C1B25759  44.125  31.385   8.550
 6247POPC   C2B25760  44.078  31.320   8.250
 6247POPC   C3B25761  44.053  31.343   7.950
 6247POPC   C4B25762  44.112  31.298   7.650
 6248POPC   NC325763  40.749  39.971   9.450
 6248POPC   PO425764  40.816  40.014   9.150
 6248POPC   GL125765  40.818  39.957   8.850
 6248POPC   GL225766  40.750  39.922   8.850
 6248POPC   C1A25767  40.789  39.963   8.550
 6248POPC   D2A25768  40.734  40.026   8.250
 6248POPC   C3A25769  40.791  40.049   7.950
 6248POPC   C4A25770  40.747  39.962   7.650
 6248POPC   C1B25771  40.749  39.785   8.550
 6248POPC   C2B25772  40.813  39.765   8.250
 6248POPC   C3B25773  40.814  39.756   7.950
 6248POPC   C4B25774  40.792  39.742   7.650
 6249POPC   NC325775  16.694  15.905   9.450
 6249POPC   PO425776  16.727  15.931   9.150
 6249POPC   GL125777  16.733  15.942   8.850
 6249POPC   GL225778  16.857  16.008   8.850
 6249POPC   C1A25779  16.765  15.986   8.550
 6249POPC   D2A25780  16.739  15.906   8.250
 6249POPC   C3A25781  16.698  15.919   7.950
 6249POPC   C4A25782  16.737  15.966   7.650
 6249POPC   C1B25783  16.976  15.959   8.550
 6249POPC   C2B25784  16.960  15.968   8.250
 6249POPC   C3B25785  17.010  15.964   7.950
 6249POPC   C4B25786  16.942  16.019   7.650
 6250POPC   NC325787  30.689   2.774   9.450
 6250POPC   PO425788  30.655   2.780   9.150
 6250POPC   GL125789  30.650   2.805   8.850
 6250POPC   GL225790  30.610   2.639   8.850
 6250POPC   C1A25791  30.738   2.792   8.550
 6250POPC   D2A25792  30.746   2.737   8.250
 6250POPC   C3A25793  30.707   2.727   7.950
 6250POPC   C4A25794  30.722   2.808   7.650
 6250POPC   C1B25795  30.608   2.529   8.550
 6250POPC   C2B25796  30.664   2.563   8.250
 6250POPC   C3B25797  30.619   2.529   7.950
 6250POPC   C4B25798  30.641   2.574   7.650
 6251POPC   NC325799  12.826  30.728   9.450
 6251POPC   PO425800  12.839  30.724   9.150
 6251POPC   GL125801  12.835  30.647   8.850
 6251POPC   GL225802  12.791  30.826   8.850
 6251POPC   C1A25803  12.859  30.668   8.550
 6251POPC   D2A25804  12.864  30.650   8.250
 6251POPC   C3A25805  12.858  30.669   7.950
 6251POPC   C4A25806  12.817  30.681   7.650
 6251POPC   C1B25807  12.732  30.972   8.550
 6251POPC   C2B25808  12.752  30.952   8.250
 6251POPC   C3B25809  12.727  30.918   7.950
 6251POPC   C4B25810  12.715  30.911   7.650
 6252POPC   NC325811  28.370  29.955   9.450
 6252POPC   PO425812  28.328  29.902   9.150
 6252POPC   GL125813  28.414  29.960   8.850
 6252POPC   GL225814  28.504  29.930   8.850
 6252POPC   C1A25815  28.408  29.887   8.550
 6252POPC   D2A25816  28.416  29.890   8.250
 6252POPC   C3A25817  28.366  29.937   7.950
 6252POPC   C4A25818  28.367  29.952   7.650
 6252POPC   C1B25819  28.631  30.049   8.550
 6252POPC   C2B25820  28.544  29.985   8.250
 6252POPC   C3B25821  28.626  29.989   7.950
 6252POPC   C4B25822  28.606  30.025   7.650
 6253POPC   NC325823  40.787  15.986   9.450
 6253POPC   PO425824  40.750  15.926   9.150
 6253POPC   GL125825  40.788  15.943   8.850
 6253POPC   GL225826  40.714  16.064   8.850
 6253POPC   C1A25827  40.771  15.936   8.550
 6253POPC   D2A25828  40.795  15.999   8.250
 6253POPC   C3A25829  40.734  15.907   7.950
 6253POPC   C4A25830  40.754  15.964   7.650
 6253POPC   C1B25831  40.596  16.119   8.550
 6253POPC   C2B25832  40.605  16.111   8.250
 6253POPC   C3B25833  40.631  16.085   7.950
 6253POPC   C4B25834  40.549  16.125   7.650
 6254POPC   NC325835  29.164  19.029   9.450
 6254POPC   PO425836  29.188  19.084   9.150
 6254POPC   GL125837  29.192  19.057   8.850
 6254POPC   GL225838  29.187  19.182   8.850
 6254POPC   C1A25839  29.179  19.035   8.550
 6254POPC   D2A25840  29.157  19.072   8.250
 6254POPC   C3A25841  29.151  19.015   7.950
 6254POPC   C4A25842  29.125  19.101   7.650
 6254POPC   C1B25843  29.292  19.293   8.550
 6254POPC   C2B25844  29.271  19.284   8.250
 6254POPC   C3B25845  29.342  19.248   7.950
 6254POPC   C4B25846  29.295  19.282   7.650
 6255POPC   NC325847  19.076  42.349   9.450
 6255POPC   PO425848  19.026  42.293   9.150
 6255POPC   GL125849  19.093  42.287   8.850
 6255POPC   GL225850  18.978  42.320   8.850
 6255POPC   C1A25851  19.020  42.361   8.550
 6255POPC   D2A25852  19.041  42.293   8.250
 6255POPC   C3A25853  19.057  42.367   7.950
 6255POPC   C4A25854  19.101  42.331   7.650
 6255POPC   C1B25855  18.809  42.271   8.550
 6255POPC   C2B25856  18.854  42.270   8.250
 6255POPC   C3B25857  18.848  42.251   7.950
 6255POPC   C4B25858  18.831  42.296   7.650
 6256POPC   NC325859  37.649  28.415   9.450
 6256POPC   PO425860  37.661  28.418   9.150
 6256POPC   GL125861  37.707  28.330   8.850
 6256POPC   GL225862  37.707  28.247   8.850
 6256POPC   C1A25863  37.636  28.361   8.550
 6256POPC   D2A25864  37.688  28.358   8.250
 6256POPC   C3A25865  37.694  28.362   7.950
 6256POPC   C4A25866  37.645  28.320   7.650
 6256POPC   C1B25867  37.697  28.105   8.550
 6256POPC   C2B25868  37.696  28.141   8.250
 6256POPC   C3B25869  37.786  28.136   7.950
 6256POPC   C4B25870  37.705  28.085   7.650
 6257POPC   NC325871  29.874   1.168   9.450
 6257POPC   PO425872  29.948   1.191   9.150
 6257POPC   GL125873  29.966   1.166   8.850
 6257POPC   GL225874  29.854   1.126   8.850
 6257POPC   C1A25875  29.941   1.166   8.550
 6257POPC   D2A25876  29.903   1.164   8.250
 6257POPC   C3A25877  29.921   1.258   7.950
 6257POPC   C4A25878  29.961   1.224   7.650
 6257POPC   C1B25879  29.811   0.933   8.550
 6257POPC   C2B25880  29.804   0.931   8.250
 6257POPC   C3B25881  29.809   1.010   7.950
 6257POPC   C4B25882  29.871   0.930   7.650
 6258POPC   NC325883   7.454   8.958   9.450
 6258POPC   PO425884   7.451   9.003   9.150
 6258POPC   GL125885   7.413   8.980   8.850
 6258POPC   GL225886   7.318   8.949   8.850
 6258POPC   C1A25887   7.464   8.986   8.550
 6258POPC   D2A25888   7.458   8.951   8.250
 6258POPC   C3A25889   7.467   8.930   7.950
 6258POPC   C4A25890   7.407   9.018   7.650
 6258POPC   C1B25891   7.144   8.945   8.550
 6258POPC   C2B25892   7.210   8.881   8.250
 6258POPC   C3B25893   7.217   8.947   7.950
 6258POPC   C4B25894   7.208   8.964   7.650
 6259POPC   NC325895  32.222  34.591   9.450
 6259POPC   PO425896  32.238  34.599   9.150
 6259POPC   GL125897  32.247  34.602   8.850
 6259POPC   GL225898  32.260  34.490   8.850
 6259POPC   C1A25899  32.254  34.602   8.550
 6259POPC   D2A25900  32.275  34.607   8.250
 6259POPC   C3A25901  32.239  34.608   7.950
 6259POPC   C4A25902  32.205  34.578   7.650
 6259POPC   C1B25903  32.245  34.370   8.550
 6259POPC   C2B25904  32.176  34.375   8.250
 6259POPC   C3B25905  32.259  34.321   7.950
 6259POPC   C4B25906  32.205  34.348   7.650
 6260POPC   NC325907   9.701   8.151   9.450
 6260POPC   PO425908   9.751   8.227   9.150
 6260POPC   GL125909   9.756   8.220   8.850
 6260POPC   GL225910   9.858   8.173   8.850
 6260POPC   C1A25911   9.726   8.194   8.550
 6260POPC   D2A25912   9.777   8.167   8.250
 6260POPC   C3A25913   9.721   8.215   7.950
 6260POPC   C4A25914   9.717   8.159   7.650
 6260POPC   C1B25915   9.984   8.083   8.550
 6260POPC   C2B25916  10.013   8.103   8.250
 6260POPC   C3B25917  10.010   8.105   7.950
 6260POPC   C4B25918   9.950   8.149   7.650
 6261POPC   NC325919  40.044  29.136   9.450
 6261POPC   PO425920  39.978  29.111   9.150
 6261POPC   GL125921  39.984  29.180   8.850
 6261POPC   GL225922  40.180  29.130   8.850
 6261POPC   C1A25923  39.968  29.111   8.550
 6261POPC   D2A25924  40.037  29.099   8.250
 6261POPC   C3A25925  39.982  29.151   7.950
 6261POPC   C4A25926  40.000  29.191   7.650
 6261POPC   C1B25927  40.293  29.104   8.550
 6261POPC   C2B25928  40.268  29.132   8.250
 6261POPC   C3B25929  40.253  29.092   7.950
 6261POPC   C4B25930  40.242  29.121   7.650
 6262POPC   NC325931  39.980  26.801   9.450
 6262POPC   PO425932  39.974  26.780   9.150
 6262POPC   GL125933  40.017  26.862   8.850
 6262POPC   GL225934  40.043  26.945   8.850
 6262POPC   C1A25935  40.025  26.796   8.550
 6262POPC   D2A25936  39.988  26.866   8.250
 6262POPC   C3A25937  40.008  26.862   7.950
 6262POPC   C4A25938  40.055  26.777   7.650
 6262POPC   C1B25939  40.111  27.043   8.550
 6262POPC   C2B25940  40.064  27.075   8.250
 6262POPC   C3B25941  40.105  27.071   7.950
 6262POPC   C4B25942  40.146  27.011   7.650
 6263POPC   NC325943  29.895  12.835   9.450
 6263POPC   PO425944  29.937  12.826   9.150
 6263POPC   GL125945  29.967  12.900   8.850
 6263POPC   GL225946  29.985  12.990   8.850
 6263POPC   C1A25947  29.904  12.839   8.550
 6263POPC   D2A25948  29.898  12.867   8.250
 6263POPC   C3A25949  29.892  12.900   7.950
 6263POPC   C4A25950  29.879  12.828   7.650
 6263POPC   C1B25951  29.937  13.071   8.550
 6263POPC   C2B25952  29.959  13.101   8.250
 6263POPC   C3B25953  30.017  13.142   7.950
 6263POPC   C4B25954  30.013  13.122   7.650
 6264POPC   NC325955  20.642  36.949   9.450
 6264POPC   PO425956  20.611  36.897   9.150
 6264POPC   GL125957  20.652  36.882   8.850
 6264POPC   GL225958  20.732  37.019   8.850
 6264POPC   C1A25959  20.608  36.909   8.550
 6264POPC   D2A25960  20.657  36.902   8.250
 6264POPC   C3A25961  20.652  36.909   7.950
 6264POPC   C4A25962  20.598  36.935   7.650
 6264POPC   C1B25963  20.788  37.119   8.550
 6264POPC   C2B25964  20.805  37.028   8.250
 6264POPC   C3B25965  20.841  37.103   7.950
 6264POPC   C4B25966  20.771  37.118   7.650
 6265POPC   NC325967  29.120  32.254   9.450
 6265POPC   PO425968  29.186  32.205   9.150
 6265POPC   GL125969  29.154  32.286   8.850
 6265POPC   GL225970  29.260  32.210   8.850
 6265POPC   C1A25971  29.122  32.238   8.550
 6265POPC   D2A25972  29.177  32.257   8.250
 6265POPC   C3A25973  29.131  32.245   7.950
 6265POPC   C4A25974  29.133  32.278   7.650
 6265POPC   C1B25975  29.414  32.196   8.550
 6265POPC   C2B25976  29.378  32.211   8.250
 6265POPC   C3B25977  29.389  32.231   7.950
 6265POPC   C4B25978  29.384  32.240   7.650
 6266POPC   NC325979  10.498  31.486   9.450
 6266POPC   PO425980  10.485  31.477   9.150
 6266POPC   GL125981  10.566  31.502   8.850
 6266POPC   GL225982  10.443  31.401   8.850
 6266POPC   C1A25983  10.533  31.424   8.550
 6266POPC   D2A25984  10.495  31.468   8.250
 6266POPC   C3A25985  10.486  31.515   7.950
 6266POPC   C4A25986  10.492  31.424   7.650
 6266POPC   C1B25987  10.306  31.384   8.550
 6266POPC   C2B25988  10.305  31.386   8.250
 6266POPC   C3B25989  10.263  31.337   7.950
 6266POPC   C4B25990  10.342  31.390   7.650
 6267POPC   NC325991  38.487  17.478   9.450
 6267POPC   PO425992  38.497  17.511   9.150
 6267POPC   GL125993  38.441  17.550   8.850
 6267POPC   GL225994  38.585  17.437   8.850
 6267POPC   C1A25995  38.459  17.519   8.550
 6267POPC   D2A25996  38.408  17.533   8.250
 6267POPC   C3A25997  38.410  17.515   7.950
 6267POPC   C4A25998  38.448  17.555   7.650
 6267POPC   C1B25999  38.743  17.440   8.550
 6267POPC   C2B26000  38.685  17.387   8.250
 6267POPC   C3B26001  38.734  17.433   7.950
 6267POPC   C4B26002  38.686  17.437   7.650
 6268POPC   NC326003  41.513  40.012   9.450
 6268POPC   PO426004  41.577  39.972   9.150
 6268POPC   GL126005  41.512  40.004   8.850
 6268POPC   GL226006  41.451  40.125   8.850
 6268POPC   C1A26007  41.531  39.985   8.550
 6268POPC   D2A26008  41.588  40.038   8.250
 6268POPC   C3A26009  41.550  40.036   7.950
 6268POPC   C4A26010  41.607  40.044   7.650
 6268POPC   C1B26011  41.459  40.253   8.550
 6268POPC   C2B26012  41.382  40.178   8.250
 6268POPC   C3B26013  41.441  40.222   7.950
 6268POPC   C4B26014  41.417  40.220   7.650
 6269POPC   NC326015   8.148  17.523   9.450
 6269POPC   PO426016   8.186  17.534   9.150
 6269POPC   GL126017   8.185  17.505   8.850
 6269POPC   GL226018   8.098  17.444   8.850
 6269POPC   C1A26019   8.219  17.528   8.550
 6269POPC   D2A26020   8.172  17.484   8.250
 6269POPC   C3A26021   8.210  17.527   7.950
 6269POPC   C4A26022   8.191  17.505   7.650
 6269POPC   C1B26023   7.975  17.341   8.550
 6269POPC   C2B26024   7.944  17.388   8.250
 6269POPC   C3B26025   8.005  17.393   7.950
 6269POPC   C4B26026   7.985  17.409   7.650
 6270POPC   NC326027  38.472  27.617   9.450
 6270POPC   PO426028  38.463  27.628   9.150
 6270POPC   GL126029  38.504  27.571   8.850
 6270POPC   GL226030  38.334  27.614   8.850
 6270POPC   C1A26031  38.436  27.626   8.550
 6270POPC   D2A26032  38.487  27.595   8.250
 6270POPC   C3A26033  38.499  27.637   7.950
 6270POPC   C4A26034  38.417  27.547   7.650
 6270POPC   C1B26035  38.196  27.527   8.550
 6270POPC   C2B26036  38.187  27.604   8.250
 6270POPC   C3B26037  38.190  27.545   7.950
 6270POPC   C4B26038  38.253  27.515   7.650
 6271POPC   NC326039  36.874  21.351   9.450
 6271POPC   PO426040  36.883  21.341   9.150
 6271POPC   GL126041  36.868  21.361   8.850
 6271POPC   GL226042  36.899  21.559   8.850
 6271POPC   C1A26043  36.931  21.358   8.550
 6271POPC   D2A26044  36.912  21.385   8.250
 6271POPC   C3A26045  36.897  21.356   7.950
 6271POPC   C4A26046  36.928  21.386   7.650
 6271POPC   C1B26047  36.936  21.617   8.550
 6271POPC   C2B26048  36.866  21.686   8.250
 6271POPC   C3B26049  36.874  21.674   7.950
 6271POPC   C4B26050  36.867  21.626   7.650
 6272POPC   NC326051   6.664  33.770   9.450
 6272POPC   PO426052   6.640  33.759   9.150
 6272POPC   GL126053   6.600  33.777   8.850
 6272POPC   GL226054   6.513  33.876   8.850
 6272POPC   C1A26055   6.656  33.838   8.550
 6272POPC   D2A26056   6.621  33.845   8.250
 6272POPC   C3A26057   6.639  33.760   7.950
 6272POPC   C4A26058   6.662  33.821   7.650
 6272POPC   C1B26059   6.514  34.014   8.550
 6272POPC   C2B26060   6.485  34.034   8.250
 6272POPC   C3B26061   6.440  33.999   7.950
 6272POPC   C4B26062   6.438  33.998   7.650
 6273POPC   NC326063  23.736  18.267   9.450
 6273POPC   PO426064  23.671  18.331   9.150
 6273POPC   GL126065  23.711  18.263   8.850
 6273POPC   GL226066  23.770  18.181   8.850
 6273POPC   C1A26067  23.748  18.312   8.550
 6273POPC   D2A26068  23.756  18.245   8.250
 6273POPC   C3A26069  23.741  18.261   7.950
 6273POPC   C4A26070  23.728  18.278   7.650
 6273POPC   C1B26071  23.967  18.101   8.550
 6273POPC   C2B26072  23.924  18.110   8.250
 6273POPC   C3B26073  23.970  18.098   7.950
 6273POPC   C4B26074  23.878  18.162   7.650
 6274POPC   NC326075  36.910  12.036   9.450
 6274POPC   PO426076  36.857  12.080   9.150
 6274POPC   GL126077  36.930  12.034   8.850
 6274POPC   GL226078  36.843  11.992   8.850
 6274POPC   C1A26079  36.907  12.090   8.550
 6274POPC   D2A26080  36.908  12.094   8.250
 6274POPC   C3A26081  36.920  12.044   7.950
 6274POPC   C4A26082  36.948  12.079   7.650
 6274POPC   C1B26083  36.872  11.821   8.550
 6274POPC   C2B26084  36.816  11.880   8.250
 6274POPC   C3B26085  36.883  11.788   7.950
 6274POPC   C4B26086  36.884  11.818   7.650
 6275POPC   NC326087  12.068  38.434   9.450
 6275POPC   PO426088  12.121  38.478   9.150
 6275POPC   GL126089  12.110  38.450   8.850
 6275POPC   GL226090  12.098  38.616   8.850
 6275POPC   C1A26091  12.065  38.412   8.550
 6275POPC   D2A26092  12.080  38.454   8.250
 6275POPC   C3A26093  12.106  38.415   7.950
 6275POPC   C4A26094  12.095  38.484   7.650
 6275POPC   C1B26095  12.118  38.704   8.550
 6275POPC   C2B26096  12.105  38.736   8.250
 6275POPC   C3B26097  12.131  38.727   7.950
 6275POPC   C4B26098  12.166  38.675   7.650
 6276POPC   NC326099  36.152  38.470   9.450
 6276POPC   PO426100  36.113  38.456   9.150
 6276POPC   GL126101  36.089  38.458   8.850
 6276POPC   GL226102  36.058  38.356   8.850
 6276POPC   C1A26103  36.106  38.450   8.550
 6276POPC   D2A26104  36.133  38.505   8.250
 6276POPC   C3A26105  36.139  38.416   7.950
 6276POPC   C4A26106  36.168  38.444   7.650
 6276POPC   C1B26107  35.997  38.172   8.550
 6276POPC   C2B26108  36.026  38.262   8.250
 6276POPC   C3B26109  36.061  38.258   7.950
 6276POPC   C4B26110  36.012  38.184   7.650
 6277POPC   NC326111   4.332  42.326   9.450
 6277POPC   PO426112   4.292  42.331   9.150
 6277POPC   GL126113   4.307  42.327   8.850
 6277POPC   GL226114   4.330  42.457   8.850
 6277POPC   C1A26115   4.319  42.318   8.550
 6277POPC   D2A26116   4.346  42.369   8.250
 6277POPC   C3A26117   4.366  42.379   7.950
 6277POPC   C4A26118   4.349  42.359   7.650
 6277POPC   C1B26119   4.297  42.526   8.550
 6277POPC   C2B26120   4.224  42.568   8.250
 6277POPC   C3B26121   4.207  42.581   7.950
 6277POPC   C4B26122   4.216  42.594   7.650
 6278POPC   NC326123   5.115  33.754   9.450
 6278POPC   PO426124   5.049  33.827   9.150
 6278POPC   GL126125   5.055  33.812   8.850
 6278POPC   GL226126   5.225  33.814   8.850
 6278POPC   C1A26127   5.092  33.773   8.550
 6278POPC   D2A26128   5.088  33.772   8.250
 6278POPC   C3A26129   5.071  33.832   7.950
 6278POPC   C4A26130   5.067  33.828   7.650
 6278POPC   C1B26131   5.344  33.871   8.550
 6278POPC   C2B26132   5.367  33.799   8.250
 6278POPC   C3B26133   5.294  33.788   7.950
 6278POPC   C4B26134   5.357  33.867   7.650
 6279POPC   NC326135  24.487  20.601   9.450
 6279POPC   PO426136  24.473  20.591   9.150
 6279POPC   GL126137  24.483  20.598   8.850
 6279POPC   GL226138  24.432  20.689   8.850
 6279POPC   C1A26139  24.449  20.654   8.550
 6279POPC   D2A26140  24.510  20.642   8.250
 6279POPC   C3A26141  24.528  20.615   7.950
 6279POPC   C4A26142  24.494  20.603   7.650
 6279POPC   C1B26143  24.314  20.796   8.550
 6279POPC   C2B26144  24.293  20.827   8.250
 6279POPC   C3B26145  24.325  20.782   7.950
 6279POPC   C4B26146  24.335  20.812   7.650
 6280POPC   NC326147  32.294  43.862   9.450
 6280POPC   PO426148  32.266  43.838   9.150
 6280POPC   GL126149  32.294  43.889   8.850
 6280POPC   GL226150  32.172  43.856   8.850
 6280POPC   C1A26151  32.202  43.903   8.550
 6280POPC   D2A26152  32.230  43.848   8.250
 6280POPC   C3A26153  32.282  43.885   7.950
 6280POPC   C4A26154  32.229  43.870   7.650
 6280POPC   C1B26155  32.070  43.719   8.550
 6280POPC   C2B26156  31.995  43.767   8.250
 6280POPC   C3B26157  31.995  43.792   7.950
 6280POPC   C4B26158  32.009  43.707   7.650
 6281POPC   NC326159  16.701  12.047   9.450
 6281POPC   PO426160  16.775  12.091   9.150
 6281POPC   GL126161  16.739  12.036   8.850
 6281POPC   GL226162  16.700  11.996   8.850
 6281POPC   C1A26163  16.687  12.108   8.550
 6281POPC   D2A26164  16.726  12.053   8.250
 6281POPC   C3A26165  16.778  12.047   7.950
 6281POPC   C4A26166  16.772  12.039   7.650
 6281POPC   C1B26167  16.667  11.824   8.550
 6281POPC   C2B26168  16.704  11.861   8.250
 6281POPC   C3B26169  16.756  11.807   7.950
 6281POPC   C4B26170  16.727  11.831   7.650
 6282POPC   NC326171  17.504  29.880   9.450
 6282POPC   PO426172  17.545  29.892   9.150
 6282POPC   GL126173  17.490  29.936   8.850
 6282POPC   GL226174  17.475  29.768   8.850
 6282POPC   C1A26175  17.474  29.958   8.550
 6282POPC   D2A26176  17.508  29.942   8.250
 6282POPC   C3A26177  17.508  29.880   7.950
 6282POPC   C4A26178  17.541  29.882   7.650
 6282POPC   C1B26179  17.391  29.677   8.550
 6282POPC   C2B26180  17.430  29.715   8.250
 6282POPC   C3B26181  17.488  29.711   7.950
 6282POPC   C4B26182  17.465  29.708   7.650
 6283POPC   NC326183  43.143  22.121   9.450
 6283POPC   PO426184  43.095  22.185   9.150
 6283POPC   GL126185  43.073  22.159   8.850
 6283POPC   GL226186  43.153  22.075   8.850
 6283POPC   C1A26187  43.129  22.191   8.550
 6283POPC   D2A26188  43.082  22.126   8.250
 6283POPC   C3A26189  43.075  22.193   7.950
 6283POPC   C4A26190  43.142  22.162   7.650
 6283POPC   C1B26191  43.063  21.935   8.550
 6283POPC   C2B26192  43.137  21.924   8.250
 6283POPC   C3B26193  43.130  21.917   7.950
 6283POPC   C4B26194  43.072  21.902   7.650
 6284POPC   NC326195  24.452  30.657   9.450
 6284POPC   PO426196  24.508  30.694   9.150
 6284POPC   GL126197  24.486  30.695   8.850
 6284POPC   GL226198  24.372  30.667   8.850
 6284POPC   C1A26199  24.454  30.710   8.550
 6284POPC   D2A26200  24.539  30.735   8.250
 6284POPC   C3A26201  24.457  30.737   7.950
 6284POPC   C4A26202  24.516  30.669   7.650
 6284POPC   C1B26203  24.193  30.657   8.550
 6284POPC   C2B26204  24.220  30.658   8.250
 6284POPC   C3B26205  24.220  30.687   7.950
 6284POPC   C4B26206  24.259  30.694   7.650
 6285POPC   NC326207   2.805  39.198   9.450
 6285POPC   PO426208   2.727  39.184   9.150
 6285POPC   GL126209   2.757  39.217   8.850
 6285POPC   GL226210   2.868  39.161   8.850
 6285POPC   C1A26211   2.809  39.246   8.550
 6285POPC   D2A26212   2.742  39.246   8.250
 6285POPC   C3A26213   2.735  39.213   7.950
 6285POPC   C4A26214   2.775  39.272   7.650
 6285POPC   C1B26215   2.877  39.021   8.550
 6285POPC   C2B26216   2.899  39.006   8.250
 6285POPC   C3B26217   2.927  38.996   7.950
 6285POPC   C4B26218   2.912  39.036   7.650
 6286POPC   NC326219   8.177  39.964   9.450
 6286POPC   PO426220   8.215  40.021   9.150
 6286POPC   GL126221   8.162  39.994   8.850
 6286POPC   GL226222   8.067  39.956   8.850
 6286POPC   C1A26223   8.154  39.999   8.550
 6286POPC   D2A26224   8.187  39.965   8.250
 6286POPC   C3A26225   8.207  39.996   7.950
 6286POPC   C4A26226   8.243  39.984   7.650
 6286POPC   C1B26227   8.017  39.842   8.550
 6286POPC   C2B26228   7.988  39.916   8.250
 6286POPC   C3B26229   7.939  39.841   7.950
 6286POPC   C4B26230   7.956  39.924   7.650
 6287POPC   NC326231  22.979  44.695   9.450
 6287POPC   PO426232  22.964  44.656   9.150
 6287POPC   GL126233  22.947  44.696   8.850
 6287POPC   GL226234  22.980  44.767   8.850
 6287POPC   C1A26235  22.955  44.666   8.550
 6287POPC   D2A26236  22.893  44.687   8.250
 6287POPC   C3A26237  22.910  44.613   7.950
 6287POPC   C4A26238  22.931  44.612   7.650
 6287POPC   C1B26239  23.040  44.924   8.550
 6287POPC   C2B26240  23.034  44.875   8.250
 6287POPC   C3B26241  23.073  44.900   7.950
 6287POPC   C4B26242  23.003  44.926   7.650
 6288POPC   NC326243  11.254  19.053   9.450
 6288POPC   PO426244  11.340  19.036   9.150
 6288POPC   GL126245  11.282  19.013   8.850
 6288POPC   GL226246  11.304  19.209   8.850
 6288POPC   C1A26247  11.349  19.100   8.550
 6288POPC   D2A26248  11.337  19.099   8.250
 6288POPC   C3A26249  11.307  19.077   7.950
 6288POPC   C4A26250  11.282  19.052   7.650
 6288POPC   C1B26251  11.382  19.339   8.550
 6288POPC   C2B26252  11.355  19.257   8.250
 6288POPC   C3B26253  11.352  19.279   7.950
 6288POPC   C4B26254  11.324  19.294   7.650
 6289POPC   NC326255   6.631   8.932   9.450
 6289POPC   PO426256   6.643   8.927   9.150
 6289POPC   GL126257   6.617   8.934   8.850
 6289POPC   GL226258   6.784   8.969   8.850
 6289POPC   C1A26259   6.685   9.004   8.550
 6289POPC   D2A26260   6.614   8.977   8.250
 6289POPC   C3A26261   6.647   8.932   7.950
 6289POPC   C4A26262   6.614   8.924   7.650
 6289POPC   C1B26263   6.870   8.976   8.550
 6289POPC   C2B26264   6.944   9.023   8.250
 6289POPC   C3B26265   6.931   9.018   7.950
 6289POPC   C4B26266   6.895   9.038   7.650
 6290POPC   NC326267  14.370  30.686   9.450
 6290POPC   PO426268  14.383  30.655   9.150
 6290POPC   GL126269  14.423  30.674   8.850
 6290POPC   GL226270  14.403  30.819   8.850
 6290POPC   C1A26271  14.425  30.647   8.550
 6290POPC   D2A26272  14.417  30.669   8.250
 6290POPC   C3A26273  14.418  30.699   7.950
 6290POPC   C4A26274  14.394  30.728   7.650
 6290POPC   C1B26275  14.333  30.950   8.550
 6290POPC   C2B26276  14.365  30.983   8.250
 6290POPC   C3B26277  14.386  30.973   7.950
 6290POPC   C4B26278  14.380  30.938   7.650
 6291POPC   NC326279  24.484  15.130   9.450
 6291POPC   PO426280  24.444  15.164   9.150
 6291POPC   GL126281  24.467  15.159   8.850
 6291POPC   GL226282  24.457  15.039   8.850
 6291POPC   C1A26283  24.445  15.198   8.550
 6291POPC   D2A26284  24.531  15.153   8.250
 6291POPC   C3A26285  24.488  15.216   7.950
 6291POPC   C4A26286  24.474  15.194   7.650
 6291POPC   C1B26287  24.442  14.912   8.550
 6291POPC   C2B26288  24.384  14.912   8.250
 6291POPC   C3B26289  24.465  14.907   7.950
 6291POPC   C4B26290  24.442  14.966   7.650
 6292POPC   NC326291  26.089  14.411   9.450
 6292POPC   PO426292  26.059  14.382   9.150
 6292POPC   GL126293  26.052  14.407   8.850
 6292POPC   GL226294  25.963  14.554   8.850
 6292POPC   C1A26295  26.030  14.418   8.550
 6292POPC   D2A26296  26.016  14.424   8.250
 6292POPC   C3A26297  26.064  14.357   7.950
 6292POPC   C4A26298  25.992  14.371   7.650
 6292POPC   C1B26299  25.932  14.634   8.550
 6292POPC   C2B26300  25.928  14.628   8.250
 6292POPC   C3B26301  25.917  14.625   7.950
 6292POPC   C4B26302  25.914  14.592   7.650
 6293POPC   NC326303   1.261   3.585   9.450
 6293POPC   PO426304   1.201   3.565   9.150
 6293POPC   GL126305   1.199   3.516   8.850
 6293POPC   GL226306   1.081   3.568   8.850
 6293POPC   C1A26307   1.198   3.563   8.550
 6293POPC   D2A26308   1.209   3.580   8.250
 6293POPC   C3A26309   1.223   3.518   7.950
 6293POPC   C4A26310   1.182   3.536   7.650
 6293POPC   C1B26311   0.951   3.585   8.550
 6293POPC   C2B26312   0.984   3.647   8.250
 6293POPC   C3B26313   0.931   3.615   7.950
 6293POPC   C4B26314   0.949   3.618   7.650
 6294POPC   NC326315  25.266  43.905   9.450
 6294POPC   PO426316  25.219  43.916   9.150
 6294POPC   GL126317  25.287  43.855   8.850
 6294POPC   GL226318  25.426  43.874   8.850
 6294POPC   C1A26319  25.300  43.901   8.550
 6294POPC   D2A26320  25.236  43.873   8.250
 6294POPC   C3A26321  25.273  43.913   7.950
 6294POPC   C4A26322  25.261  43.898   7.650
 6294POPC   C1B26323  25.552  43.865   8.550
 6294POPC   C2B26324  25.481  43.859   8.250
 6294POPC   C3B26325  25.465  43.844   7.950
 6294POPC   C4B26326  25.493  43.811   7.650
 6295POPC   NC326327   5.861   5.094   9.450
 6295POPC   PO426328   5.850   5.094   9.150
 6295POPC   GL126329   5.900   5.143   8.850
 6295POPC   GL226330   5.999   5.027   8.850
 6295POPC   C1A26331   5.899   5.123   8.550
 6295POPC   D2A26332   5.892   5.045   8.250
 6295POPC   C3A26333   5.882   5.050   7.950
 6295POPC   C4A26334   5.822   5.098   7.650
 6295POPC   C1B26335   6.095   5.055   8.550
 6295POPC   C2B26336   6.076   5.077   8.250
 6295POPC   C3B26337   6.076   5.047   7.950
 6295POPC   C4B26338   6.083   5.011   7.650
 6296POPC   NC326339  39.974   7.405   9.450
 6296POPC   PO426340  39.985   7.420   9.150
 6296POPC   GL126341  40.047   7.460   8.850
 6296POPC   GL226342  40.077   7.503   8.850
 6296POPC   C1A26343  39.987   7.407   8.550
 6296POPC   D2A26344  40.008   7.419   8.250
 6296POPC   C3A26345  39.961   7.464   7.950
 6296POPC   C4A26346  40.043   7.389   7.650
 6296POPC   C1B26347  40.198   7.664   8.550
 6296POPC   C2B26348  40.202   7.607   8.250
 6296POPC   C3B26349  40.165   7.638   7.950
 6296POPC   C4B26350  40.165   7.614   7.650
 6297POPC   NC326351  12.119  40.738   9.450
 6297POPC   PO426352  12.118  40.758   9.150
 6297POPC   GL126353  12.122  40.818   8.850
 6297POPC   GL226354  12.214  40.757   8.850
 6297POPC   C1A26355  12.119  40.794   8.550
 6297POPC   D2A26356  12.032  40.738   8.250
 6297POPC   C3A26357  12.115  40.737   7.950
 6297POPC   C4A26358  12.078  40.766   7.650
 6297POPC   C1B26359  12.278  40.591   8.550
 6297POPC   C2B26360  12.239  40.676   8.250
 6297POPC   C3B26361  12.266  40.628   7.950
 6297POPC   C4B26362  12.250  40.607   7.650
 6298POPC   NC326363   1.245   7.405   9.450
 6298POPC   PO426364   1.173   7.411   9.150
 6298POPC   GL126365   1.194   7.393   8.850
 6298POPC   GL226366   1.155   7.315   8.850
 6298POPC   C1A26367   1.165   7.470   8.550
 6298POPC   D2A26368   1.229   7.405   8.250
 6298POPC   C3A26369   1.258   7.384   7.950
 6298POPC   C4A26370   1.221   7.406   7.650
 6298POPC   C1B26371   1.166   7.206   8.550
 6298POPC   C2B26372   1.174   7.203   8.250
 6298POPC   C3B26373   1.181   7.144   7.950
 6298POPC   C4B26374   1.228   7.144   7.650
 6299POPC   NC326375   5.842  24.469   9.450
 6299POPC   PO426376   5.889  24.451   9.150
 6299POPC   GL126377   5.859  24.449   8.850
 6299POPC   GL226378   5.845  24.655   8.850
 6299POPC   C1A26379   5.886  24.534   8.550
 6299POPC   D2A26380   5.842  24.474   8.250
 6299POPC   C3A26381   5.847  24.532   7.950
 6299POPC   C4A26382   5.821  24.497   7.650
 6299POPC   C1B26383   5.891  24.768   8.550
 6299POPC   C2B26384   5.827  24.778   8.250
 6299POPC   C3B26385   5.796  24.699   7.950
 6299POPC   C4B26386   5.837  24.705   7.650
 6300POPC   NC326387   9.758  28.328   9.450
 6300POPC   PO426388   9.700  28.377   9.150
 6300POPC   GL126389   9.747  28.330   8.850
 6300POPC   GL226390   9.868  28.260   8.850
 6300POPC   C1A26391   9.728  28.380   8.550
 6300POPC   D2A26392   9.788  28.326   8.250
 6300POPC   C3A26393   9.768  28.344   7.950
 6300POPC   C4A26394   9.728  28.390   7.650
 6300POPC   C1B26395   9.919  28.218   8.550
 6300POPC   C2B26396   9.937  28.235   8.250
 6300POPC   C3B26397   9.945  28.198   7.950
 6300POPC   C4B26398   9.876  28.228   7.650
 6301POPC   NC326399  29.872  35.310   9.450
 6301POPC   PO426400  29.925  35.305   9.150
 6301POPC   GL126401  29.909  35.400   8.850
 6301POPC   GL226402  30.047  35.318   8.850
 6301POPC   C1A26403  29.949  35.391   8.550
 6301POPC   D2A26404  29.947  35.322   8.250
 6301POPC   C3A26405  29.923  35.347   7.950
 6301POPC   C4A26406  29.939  35.346   7.650
 6301POPC   C1B26407  30.209  35.345   8.550
 6301POPC   C2B26408  30.123  35.314   8.250
 6301POPC   C3B26409  30.182  35.336   7.950
 6301POPC   C4B26410  30.140  35.396   7.650
 6302POPC   NC326411   3.535  23.702   9.450
 6302POPC   PO426412   3.584  23.664   9.150
 6302POPC   GL126413   3.558  23.720   8.850
 6302POPC   GL226414   3.657  23.630   8.850
 6302POPC   C1A26415   3.504  23.711   8.550
 6302POPC   D2A26416   3.525  23.746   8.250
 6302POPC   C3A26417   3.576  23.730   7.950
 6302POPC   C4A26418   3.555  23.685   7.650
 6302POPC   C1B26419   3.706  23.584   8.550
 6302POPC   C2B26420   3.751  23.583   8.250
 6302POPC   C3B26421   3.740  23.521   7.950
 6302POPC   C4B26422   3.690  23.597   7.650
 6303POPC   NC326423  41.535  15.969   9.450
 6303POPC   PO426424  41.605  16.001   9.150
 6303POPC   GL126425  41.570  15.949   8.850
 6303POPC   GL226426  41.508  16.005   8.850
 6303POPC   C1A26427  41.584  15.953   8.550
 6303POPC   D2A26428  41.544  15.937   8.250
 6303POPC   C3A26429  41.529  15.930   7.950
 6303POPC   C4A26430  41.586  15.943   7.650
 6303POPC   C1B26431  41.367  16.110   8.550
 6303POPC   C2B26432  41.358  16.072   8.250
 6303POPC   C3B26433  41.408  16.103   7.950
 6303POPC   C4B26434  41.354  16.088   7.650
 6304POPC   NC326435  39.275  19.066   9.450
 6304POPC   PO426436  39.218  19.015   9.150
 6304POPC   GL126437  39.263  19.085   8.850
 6304POPC   GL226438  39.108  19.099   8.850
 6304POPC   C1A26439  39.281  19.025   8.550
 6304POPC   D2A26440  39.253  19.015   8.250
 6304POPC   C3A26441  39.245  19.056   7.950
 6304POPC   C4A26442  39.249  19.032   7.650
 6304POPC   C1B26443  38.976  19.084   8.550
 6304POPC   C2B26444  38.997  19.096   8.250
 6304POPC   C3B26445  38.977  19.169   7.950
 6304POPC   C4B26446  39.030  19.084   7.650
 6305POPC   NC326447   0.392  22.153   9.450
 6305POPC   PO426448   0.447  22.145   9.150
 6305POPC   GL126449   0.411  22.211   8.850
 6305POPC   GL226450   0.280  22.224   8.850
 6305POPC   C1A26451   0.391  22.191   8.550
 6305POPC   D2A26452   0.427  22.115   8.250
 6305POPC   C3A26453   0.422  22.195   7.950
 6305POPC   C4A26454   0.445  22.208   7.650
 6305POPC   C1B26455   0.196  22.266   8.550
 6305POPC   C2B26456   0.160  22.248   8.250
 6305POPC   C3B26457   0.188  22.229   7.950
 6305POPC   C4B26458   0.207  22.274   7.650
 6306POPC   NC326459  23.752  32.214   9.450
 6306POPC   PO426460  23.686  32.210   9.150
 6306POPC   GL126461  23.743  32.280   8.850
 6306POPC   GL226462  23.714  32.164   8.850
 6306POPC   C1A26463  23.694  32.266   8.550
 6306POPC   D2A26464  23.709  32.237   8.250
 6306POPC   C3A26465  23.696  32.248   7.950
 6306POPC   C4A26466  23.670  32.250   7.650
 6306POPC   C1B26467  23.778  31.979   8.550
 6306POPC   C2B26468  23.781  31.961   8.250
 6306POPC   C3B26469  23.730  32.021   7.950
 6306POPC   C4B26470  23.713  32.016   7.650
 6307POPC   NC326471  40.030   3.527   9.450
 6307POPC   PO426472  39.989   3.532   9.150
 6307POPC   GL126473  39.970   3.502   8.850
 6307POPC   GL226474  40.121   3.456   8.850
 6307POPC   C1A26475  40.040   3.568   8.550
 6307POPC   D2A26476  40.056   3.525   8.250
 6307POPC   C3A26477  40.038   3.501   7.950
 6307POPC   C4A26478  40.035   3.493   7.650
 6307POPC   C1B26479  40.185   3.444   8.550
 6307POPC   C2B26480  40.230   3.412   8.250
 6307POPC   C3B26481  40.196   3.411   7.950
 6307POPC   C4B26482  40.218   3.386   7.650
 6308POPC   NC326483  15.917  16.706   9.450
 6308POPC   PO426484  15.960  16.766   9.150
 6308POPC   GL126485  15.966  16.732   8.850
 6308POPC   GL226486  15.865  16.707   8.850
 6308POPC   C1A26487  15.990  16.720   8.550
 6308POPC   D2A26488  15.936  16.711   8.250
 6308POPC   C3A26489  16.000  16.764   7.950
 6308POPC   C4A26490  15.996  16.781   7.650
 6308POPC   C1B26491  15.683  16.720   8.550
 6308POPC   C2B26492  15.743  16.690   8.250
 6308POPC   C3B26493  15.674  16.677   7.950
 6308POPC   C4B26494  15.702  16.697   7.650
 6309POPC   NC326495   1.972  43.123   9.450
 6309POPC   PO426496   2.027  43.132   9.150
 6309POPC   GL126497   1.942  43.098   8.850
 6309POPC   GL226498   1.838  43.051   8.850
 6309POPC   C1A26499   2.024  43.082   8.550
 6309POPC   D2A26500   2.039  43.147   8.250
 6309POPC   C3A26501   1.996  43.074   7.950
 6309POPC   C4A26502   1.962  43.125   7.650
 6309POPC   C1B26503   1.779  43.018   8.550
 6309POPC   C2B26504   1.765  42.983   8.250
 6309POPC   C3B26505   1.758  43.002   7.950
 6309POPC   C4B26506   1.762  43.011   7.650
 6310POPC   NC326507   5.126  44.709   9.450
 6310POPC   PO426508   5.071  44.623   9.150
 6310POPC   GL126509   5.117  44.704   8.850
 6310POPC   GL226510   5.056  44.524   8.850
 6310POPC   C1A26511   5.081  44.668   8.550
 6310POPC   D2A26512   5.048  44.640   8.250
 6310POPC   C3A26513   5.062  44.667   7.950
 6310POPC   C4A26514   5.104  44.627   7.650
 6310POPC   C1B26515   4.909  44.454   8.550
 6310POPC   C2B26516   4.977  44.498   8.250
 6310POPC   C3B26517   4.905  44.464   7.950
 6310POPC   C4B26518   4.979  44.423   7.650
 6311POPC   NC326519  43.092  34.621   9.450
 6311POPC   PO426520  43.147  34.527   9.150
 6311POPC   GL126521  43.118  34.549   8.850
 6311POPC   GL226522  43.251  34.520   8.850
 6311POPC   C1A26523  43.062  34.614   8.550
 6311POPC   D2A26524  43.077  34.547   8.250
 6311POPC   C3A26525  43.086  34.604   7.950
 6311POPC   C4A26526  43.066  34.588   7.650
 6311POPC   C1B26527  43.352  34.449   8.550
 6311POPC   C2B26528  43.295  34.408   8.250
 6311POPC   C3B26529  43.351  34.464   7.950
 6311POPC   C4B26530  43.279  34.459   7.650
 6312POPC   NC326531  43.909  35.314   9.450
 6312POPC   PO426532  43.914  35.354   9.150
 6312POPC   GL126533  43.906  35.341   8.850
 6312POPC   GL226534  43.811  35.425   8.850
 6312POPC   C1A26535  43.892  35.340   8.550
 6312POPC   D2A26536  43.907  35.400   8.250
 6312POPC   C3A26537  43.926  35.323   7.950
 6312POPC   C4A26538  43.870  35.371   7.650
 6312POPC   C1B26539  43.609  35.433   8.550
 6312POPC   C2B26540  43.663  35.383   8.250
 6312POPC   C3B26541  43.649  35.443   7.950
 6312POPC   C4B26542  43.601  35.367   7.650
 6313POPC   NC326543  20.621  39.237   9.450
 6313POPC   PO426544  20.655  39.182   9.150
 6313POPC   GL126545  20.627  39.261   8.850
 6313POPC   GL226546  20.546  39.142   8.850
 6313POPC   C1A26547  20.640  39.219   8.550
 6313POPC   D2A26548  20.594  39.240   8.250
 6313POPC   C3A26549  20.563  39.246   7.950
 6313POPC   C4A26550  20.629  39.202   7.650
 6313POPC   C1B26551  20.445  39.018   8.550
 6313POPC   C2B26552  20.444  39.006   8.250
 6313POPC   C3B26553  20.452  39.037   7.950
 6313POPC   C4B26554  20.438  39.048   7.650
 6314POPC   NC326555  19.863  25.993   9.450
 6314POPC   PO426556  19.830  26.051   9.150
 6314POPC   GL126557  19.790  26.067   8.850
 6314POPC   GL226558  19.928  26.004   8.850
 6314POPC   C1A26559  19.788  25.992   8.550
 6314POPC   D2A26560  19.847  26.085   8.250
 6314POPC   C3A26561  19.865  26.081   7.950
 6314POPC   C4A26562  19.829  26.030   7.650
 6314POPC   C1B26563  20.074  25.935   8.550
 6314POPC   C2B26564  20.038  25.953   8.250
 6314POPC   C3B26565  20.047  25.905   7.950
 6314POPC   C4B26566  20.043  25.977   7.650
 6315POPC   NC326567  36.150  29.925   9.450
 6315POPC   PO426568  36.105  29.910   9.150
 6315POPC   GL126569  36.100  29.898   8.850
 6315POPC   GL226570  36.195  30.091   8.850
 6315POPC   C1A26571  36.176  29.917   8.550
 6315POPC   D2A26572  36.155  29.957   8.250
 6315POPC   C3A26573  36.162  29.881   7.950
 6315POPC   C4A26574  36.167  29.937   7.650
 6315POPC   C1B26575  36.188  30.129   8.550
 6315POPC   C2B26576  36.158  30.185   8.250
 6315POPC   C3B26577  36.168  30.192   7.950
 6315POPC   C4B26578  36.211  30.127   7.650
 6316POPC   NC326579  26.091  29.967   9.450
 6316POPC   PO426580  26.089  29.969   9.150
 6316POPC   GL126581  26.029  29.937   8.850
 6316POPC   GL226582  25.920  29.870   8.850
 6316POPC   C1A26583  26.073  29.940   8.550
 6316POPC   D2A26584  26.063  29.951   8.250
 6316POPC   C3A26585  26.025  29.895   7.950
 6316POPC   C4A26586  26.004  29.901   7.650
 6316POPC   C1B26587  25.843  29.776   8.550
 6316POPC   C2B26588  25.840  29.774   8.250
 6316POPC   C3B26589  25.863  29.789   7.950
 6316POPC   C4B26590  25.871  29.758   7.650
 6317POPC   NC326591  36.882   5.823   9.450
 6317POPC   PO426592  36.935   5.853   9.150
 6317POPC   GL126593  36.894   5.902   8.850
 6317POPC   GL226594  36.838   5.720   8.850
 6317POPC   C1A26595  36.906   5.825   8.550
 6317POPC   D2A26596  36.918   5.899   8.250
 6317POPC   C3A26597  36.896   5.821   7.950
 6317POPC   C4A26598  36.893   5.832   7.650
 6317POPC   C1B26599  36.730   5.675   8.550
 6317POPC   C2B26600  36.738   5.698   8.250
 6317POPC   C3B26601  36.740   5.698   7.950
 6317POPC   C4B26602  36.772   5.678   7.650
 6318POPC   NC326603  30.739   7.445   9.450
 6318POPC   PO426604  30.720   7.470   9.150
 6318POPC   GL126605  30.719   7.391   8.850
 6318POPC   GL226606  30.730   7.289   8.850
 6318POPC   C1A26607  30.659   7.392   8.550
 6318POPC   D2A26608  30.688   7.409   8.250
 6318POPC   C3A26609  30.669   7.441   7.950
 6318POPC   C4A26610  30.741   7.389   7.650
 6318POPC   C1B26611  30.853   7.196   8.550
 6318POPC   C2B26612  30.814   7.194   8.250
 6318POPC   C3B26613  30.841   7.162   7.950
 6318POPC   C4B26614  30.862   7.185   7.650
 6319POPC   NC326615  10.540   9.749   9.450
 6319POPC   PO426616  10.488   9.725   9.150
 6319POPC   GL126617  10.495   9.786   8.850
 6319POPC   GL226618  10.583   9.675   8.850
 6319POPC   C1A26619  10.556   9.744   8.550
 6319POPC   D2A26620  10.571   9.741   8.250
 6319POPC   C3A26621  10.539   9.731   7.950
 6319POPC   C4A26622  10.481   9.703   7.650
 6319POPC   C1B26623  10.718   9.572   8.550
 6319POPC   C2B26624  10.714   9.594   8.250
 6319POPC   C3B26625  10.755   9.619   7.950
 6319POPC   C4B26626  10.748   9.585   7.650
 6320POPC   NC326627   5.076  29.909   9.450
 6320POPC   PO426628   5.135  29.914   9.150
 6320POPC   GL126629   5.125  29.946   8.850
 6320POPC   GL226630   4.999  29.864   8.850
 6320POPC   C1A26631   5.101  29.898   8.550
 6320POPC   D2A26632   5.141  29.961   8.250
 6320POPC   C3A26633   5.103  29.929   7.950
 6320POPC   C4A26634   5.143  29.905   7.650
 6320POPC   C1B26635   4.834  29.779   8.550
 6320POPC   C2B26636   4.831  29.811   8.250
 6320POPC   C3B26637   4.871  29.786   7.950
 6320POPC   C4B26638   4.871  29.783   7.650
 6321POPC   NC326639   5.092   7.416   9.450
 6321POPC   PO426640   5.063   7.436   9.150
 6321POPC   GL126641   5.087   7.371   8.850
 6321POPC   GL226642   4.979   7.374   8.850
 6321POPC   C1A26643   5.067   7.420   8.550
 6321POPC   D2A26644   5.056   7.397   8.250
 6321POPC   C3A26645   5.137   7.459   7.950
 6321POPC   C4A26646   5.072   7.435   7.650
 6321POPC   C1B26647   4.926   7.280   8.550
 6321POPC   C2B26648   4.855   7.237   8.250
 6321POPC   C3B26649   4.849   7.284   7.950
 6321POPC   C4B26650   4.853   7.275   7.650
 6322POPC   NC326651   6.604  39.977   9.450
 6322POPC   PO426652   6.644  39.994   9.150
 6322POPC   GL126653   6.686  40.027   8.850
 6322POPC   GL226654   6.479  40.065   8.850
 6322POPC   C1A26655   6.657  39.985   8.550
 6322POPC   D2A26656   6.687  40.017   8.250
 6322POPC   C3A26657   6.687  39.976   7.950
 6322POPC   C4A26658   6.595  39.989   7.650
 6322POPC   C1B26659   6.437  40.085   8.550
 6322POPC   C2B26660   6.395  40.069   8.250
 6322POPC   C3B26661   6.429  40.061   7.950
 6322POPC   C4B26662   6.425  40.118   7.650
 6323POPC   NC326663  10.560   9.004   9.450
 6323POPC   PO426664  10.567   8.962   9.150
 6323POPC   GL126665  10.526   9.014   8.850
 6323POPC   GL226666  10.617   8.936   8.850
 6323POPC   C1A26667  10.530   9.012   8.550
 6323POPC   D2A26668  10.482   8.949   8.250
 6323POPC   C3A26669  10.561   9.020   7.950
 6323POPC   C4A26670  10.531   8.980   7.650
 6323POPC   C1B26671  10.786   9.037   8.550
 6323POPC   C2B26672  10.797   9.026   8.250
 6323POPC   C3B26673  10.778   8.987   7.950
 6323POPC   C4B26674  10.803   8.957   7.650
 6324POPC   NC326675   6.657  35.323   9.450
 6324POPC   PO426676   6.670  35.388   9.150
 6324POPC   GL126677   6.672  35.329   8.850
 6324POPC   GL226678   6.797  35.366   8.850
 6324POPC   C1A26679   6.600  35.328   8.550
 6324POPC   D2A26680   6.620  35.392   8.250
 6324POPC   C3A26681   6.686  35.391   7.950
 6324POPC   C4A26682   6.635  35.341   7.650
 6324POPC   C1B26683   6.893  35.411   8.550
 6324POPC   C2B26684   6.899  35.462   8.250
 6324POPC   C3B26685   6.912  35.433   7.950
 6324POPC   C4B26686   6.910  35.488   7.650
 6325POPC   NC326687  33.763   2.032   9.450
 6325POPC   PO426688  33.841   1.946   9.150
 6325POPC   GL126689  33.753   2.011   8.850
 6325POPC   GL226690  33.974   1.933   8.850
 6325POPC   C1A26691  33.788   2.036   8.550
 6325POPC   D2A26692  33.846   1.988   8.250
 6325POPC   C3A26693  33.798   2.029   7.950
 6325POPC   C4A26694  33.841   2.018   7.650
 6325POPC   C1B26695  34.093   2.014   8.550
 6325POPC   C2B26696  34.099   1.928   8.250
 6325POPC   C3B26697  34.042   1.958   7.950
 6325POPC   C4B26698  34.096   2.006   7.650
 6326POPC   NC326699  18.272  34.620   9.450
 6326POPC   PO426700  18.293  34.565   9.150
 6326POPC   GL126701  18.331  34.548   8.850
 6326POPC   GL226702  18.371  34.518   8.850
 6326POPC   C1A26703  18.289  34.612   8.550
 6326POPC   D2A26704  18.274  34.617   8.250
 6326POPC   C3A26705  18.234  34.575   7.950
 6326POPC   C4A26706  18.246  34.533   7.650
 6326POPC   C1B26707  18.517  34.472   8.550
 6326POPC   C2B26708  18.493  34.467   8.250
 6326POPC   C3B26709  18.518  34.477   7.950
 6326POPC   C4B26710  18.490  34.431   7.650
 6327POPC   NC326711   8.228  42.292   9.450
 6327POPC   PO426712   8.167  42.316   9.150
 6327POPC   GL126713   8.231  42.296   8.850
 6327POPC   GL226714   8.192  42.475   8.850
 6327POPC   C1A26715   8.190  42.312   8.550
 6327POPC   D2A26716   8.158  42.335   8.250
 6327POPC   C3A26717   8.154  42.375   7.950
 6327POPC   C4A26718   8.167  42.373   7.650
 6327POPC   C1B26719   8.137  42.619   8.550
 6327POPC   C2B26720   8.138  42.627   8.250
 6327POPC   C3B26721   8.156  42.590   7.950
 6327POPC   C4B26722   8.163  42.588   7.650
 6328POPC   NC326723  32.286  25.308   9.450
 6328POPC   PO426724  32.285  25.262   9.150
 6328POPC   GL126725  32.226  25.251   8.850
 6328POPC   GL226726  32.319  25.129   8.850
 6328POPC   C1A26727  32.268  25.266   8.550
 6328POPC   D2A26728  32.254  25.277   8.250
 6328POPC   C3A26729  32.277  25.271   7.950
 6328POPC   C4A26730  32.280  25.275   7.650
 6328POPC   C1B26731  32.406  25.082   8.550
 6328POPC   C2B26732  32.471  25.127   8.250
 6328POPC   C3B26733  32.396  25.065   7.950
 6328POPC   C4B26734  32.470  25.108   7.650
 6329POPC   NC326735  34.556  20.642   9.450
 6329POPC   PO426736  34.611  20.577   9.150
 6329POPC   GL126737  34.576  20.588   8.850
 6329POPC   GL226738  34.526  20.457   8.850
 6329POPC   C1A26739  34.589  20.640   8.550
 6329POPC   D2A26740  34.606  20.644   8.250
 6329POPC   C3A26741  34.527  20.617   7.950
 6329POPC   C4A26742  34.549  20.637   7.650
 6329POPC   C1B26743  34.515  20.422   8.550
 6329POPC   C2B26744  34.508  20.350   8.250
 6329POPC   C3B26745  34.477  20.335   7.950
 6329POPC   C4B26746  34.427  20.358   7.650
 6330POPC   NC326747  15.169  19.025   9.450
 6330POPC   PO426748  15.147  19.015   9.150
 6330POPC   GL126749  15.155  19.032   8.850
 6330POPC   GL226750  15.083  19.148   8.850
 6330POPC   C1A26751  15.155  19.022   8.550
 6330POPC   D2A26752  15.147  19.042   8.250
 6330POPC   C3A26753  15.158  19.030   7.950
 6330POPC   C4A26754  15.185  19.054   7.650
 6330POPC   C1B26755  14.985  19.201   8.550
 6330POPC   C2B26756  14.987  19.211   8.250
 6330POPC   C3B26757  15.022  19.158   7.950
 6330POPC   C4B26758  14.978  19.170   7.650
 6331POPC   NC326759   5.839  12.818   9.450
 6331POPC   PO426760   5.903  12.825   9.150
 6331POPC   GL126761   5.901  12.817   8.850
 6331POPC   GL226762   6.013  12.764   8.850
 6331POPC   C1A26763   5.835  12.808   8.550
 6331POPC   D2A26764   5.898  12.887   8.250
 6331POPC   C3A26765   5.905  12.841   7.950
 6331POPC   C4A26766   5.827  12.898   7.650
 6331POPC   C1B26767   6.091  12.726   8.550
 6331POPC   C2B26768   6.088  12.722   8.250
 6331POPC   C3B26769   6.036  12.729   7.950
 6331POPC   C4B26770   6.020  12.648   7.650
 6332POPC   NC326771  19.079  29.930   9.450
 6332POPC   PO426772  19.096  29.970   9.150
 6332POPC   GL126773  19.010  29.937   8.850
 6332POPC   GL226774  19.145  29.996   8.850
 6332POPC   C1A26775  19.056  29.970   8.550
 6332POPC   D2A26776  19.093  29.961   8.250
 6332POPC   C3A26777  19.051  29.909   7.950
 6332POPC   C4A26778  19.026  29.955   7.650
 6332POPC   C1B26779  19.323  29.974   8.550
 6332POPC   C2B26780  19.289  29.980   8.250
 6332POPC   C3B26781  19.325  29.987   7.950
 6332POPC   C4B26782  19.337  29.947   7.650
 6333POPC   NC326783  19.860  17.514   9.450
 6333POPC   PO426784  19.844  17.519   9.150
 6333POPC   GL126785  19.793  17.545   8.850
 6333POPC   GL226786  20.000  17.461   8.850
 6333POPC   C1A26787  19.859  17.499   8.550
 6333POPC   D2A26788  19.868  17.532   8.250
 6333POPC   C3A26789  19.854  17.515   7.950
 6333POPC   C4A26790  19.820  17.463   7.650
 6333POPC   C1B26791  20.107  17.518   8.550
 6333POPC   C2B26792  20.127  17.517   8.250
 6333POPC   C3B26793  20.099  17.492   7.950
 6333POPC   C4B26794  20.114  17.551   7.650
 6334POPC   NC326795  42.334   1.208   9.450
 6334POPC   PO426796  42.326   1.174   9.150
 6334POPC   GL126797  42.307   1.188   8.850
 6334POPC   GL226798  42.423   1.273   8.850
 6334POPC   C1A26799  42.295   1.254   8.550
 6334POPC   D2A26800  42.294   1.173   8.250
 6334POPC   C3A26801  42.312   1.203   7.950
 6334POPC   C4A26802  42.296   1.254   7.650
 6334POPC   C1B26803  42.471   1.334   8.550
 6334POPC   C2B26804  42.565   1.369   8.250
 6334POPC   C3B26805  42.547   1.429   7.950
 6334POPC   C4B26806  42.544   1.346   7.650
 6335POPC   NC326807  34.543  35.355   9.450
 6335POPC   PO426808  34.591  35.353   9.150
 6335POPC   GL126809  34.564  35.331   8.850
 6335POPC   GL226810  34.689  35.312   8.850
 6335POPC   C1A26811  34.566  35.329   8.550
 6335POPC   D2A26812  34.559  35.375   8.250
 6335POPC   C3A26813  34.605  35.369   7.950
 6335POPC   C4A26814  34.598  35.315   7.650
 6335POPC   C1B26815  34.779  35.276   8.550
 6335POPC   C2B26816  34.777  35.256   8.250
 6335POPC   C3B26817  34.813  35.287   7.950
 6335POPC   C4B26818  34.820  35.280   7.650
 6336POPC   NC326819  15.139  27.563   9.450
 6336POPC   PO426820  15.218  27.610   9.150
 6336POPC   GL126821  15.215  27.595   8.850
 6336POPC   GL226822  15.041  27.586   8.850
 6336POPC   C1A26823  15.214  27.580   8.550
 6336POPC   D2A26824  15.201  27.596   8.250
 6336POPC   C3A26825  15.201  27.592   7.950
 6336POPC   C4A26826  15.221  27.560   7.650
 6336POPC   C1B26827  14.934  27.665   8.550
 6336POPC   C2B26828  14.940  27.581   8.250
 6336POPC   C3B26829  14.890  27.658   7.950
 6336POPC   C4B26830  14.899  27.637   7.650
 6337POPC   NC326831  20.571   1.200   9.450
 6337POPC   PO426832  20.648   1.228   9.150
 6337POPC   GL126833  20.599   1.180   8.850
 6337POPC   GL226834  20.769   1.173   8.850
 6337POPC   C1A26835  20.633   1.252   8.550
 6337POPC   D2A26836  20.651   1.211   8.250
 6337POPC   C3A26837  20.580   1.220   7.950
 6337POPC   C4A26838  20.579   1.232   7.650
 6337POPC   C1B26839  20.827   1.209   8.550
 6337POPC   C2B26840  20.876   1.145   8.250
 6337POPC   C3B26841  20.908   1.202   7.950
 6337POPC   C4B26842  20.853   1.190   7.650
 6338POPC   NC326843  15.971  14.366   9.450
 6338POPC   PO426844  15.916  14.390   9.150
 6338POPC   GL126845  15.985  14.384   8.850
 6338POPC   GL226846  15.880  14.313   8.850
 6338POPC   C1A26847  15.979  14.424   8.550
 6338POPC   D2A26848  15.993  14.433   8.250
 6338POPC   C3A26849  15.924  14.375   7.950
 6338POPC   C4A26850  15.968  14.424   7.650
 6338POPC   C1B26851  15.855  14.175   8.550
 6338POPC   C2B26852  15.887  14.148   8.250
 6338POPC   C3B26853  15.826  14.132   7.950
 6338POPC   C4B26854  15.852  14.135   7.650
 6339POPC   NC326855  30.688   6.676   9.450
 6339POPC   PO426856  30.701   6.681   9.150
 6339POPC   GL126857  30.694   6.635   8.850
 6339POPC   GL226858  30.616   6.728   8.850
 6339POPC   C1A26859  30.730   6.606   8.550
 6339POPC   D2A26860  30.712   6.623   8.250
 6339POPC   C3A26861  30.698   6.612   7.950
 6339POPC   C4A26862  30.739   6.645   7.650
 6339POPC   C1B26863  30.408   6.689   8.550
 6339POPC   C2B26864  30.467   6.749   8.250
 6339POPC   C3B26865  30.412   6.722   7.950
 6339POPC   C4B26866  30.487   6.735   7.650
 6340POPC   NC326867  43.116  10.505   9.450
 6340POPC   PO426868  43.119  10.507   9.150
 6340POPC   GL126869  43.107  10.543   8.850
 6340POPC   GL226870  42.994  10.457   8.850
 6340POPC   C1A26871  43.079  10.567   8.550
 6340POPC   D2A26872  43.130  10.527   8.250
 6340POPC   C3A26873  43.126  10.539   7.950
 6340POPC   C4A26874  43.122  10.554   7.650
 6340POPC   C1B26875  42.999  10.344   8.550
 6340POPC   C2B26876  42.999  10.341   8.250
 6340POPC   C3B26877  42.985  10.340   7.950
 6340POPC   C4B26878  43.001  10.299   7.650
 6341POPC   NC326879   1.973  18.250   9.450
 6341POPC   PO426880   1.961  18.329   9.150
 6341POPC   GL126881   1.967  18.320   8.850
 6341POPC   GL226882   1.966  18.375   8.850
 6341POPC   C1A26883   1.972  18.264   8.550
 6341POPC   D2A26884   2.017  18.234   8.250
 6341POPC   C3A26885   1.998  18.249   7.950
 6341POPC   C4A26886   1.994  18.235   7.650
 6341POPC   C1B26887   1.879  18.481   8.550
 6341POPC   C2B26888   1.945  18.491   8.250
 6341POPC   C3B26889   1.878  18.563   7.950
 6341POPC   C4B26890   1.957  18.474   7.650
 6342POPC   NC326891  42.308   5.865   9.450
 6342POPC   PO426892  42.306   5.867   9.150
 6342POPC   GL126893  42.326   5.899   8.850
 6342POPC   GL226894  42.324   5.781   8.850
 6342POPC   C1A26895  42.285   5.850   8.550
 6342POPC   D2A26896  42.321   5.867   8.250
 6342POPC   C3A26897  42.308   5.915   7.950
 6342POPC   C4A26898  42.355   5.885   7.650
 6342POPC   C1B26899  42.390   5.586   8.550
 6342POPC   C2B26900  42.373   5.669   8.250
 6342POPC   C3B26901  42.457   5.641   7.950
 6342POPC   C4B26902  42.416   5.648   7.650
 6343POPC   NC326903  18.276  38.492   9.450
 6343POPC   PO426904  18.314  38.476   9.150
 6343POPC   GL126905  18.272  38.449   8.850
 6343POPC   GL226906  18.296  38.292   8.850
 6343POPC   C1A26907  18.237  38.413   8.550
 6343POPC   D2A26908  18.268  38.410   8.250
 6343POPC   C3A26909  18.319  38.451   7.950
 6343POPC   C4A26910  18.319  38.411   7.650
 6343POPC   C1B26911  18.223  38.172   8.550
 6343POPC   C2B26912  18.252  38.238   8.250
 6343POPC   C3B26913  18.263  38.172   7.950
 6343POPC   C4B26914  18.286  38.224   7.650
 6344POPC   NC326915  15.924  40.831   9.450
 6344POPC   PO426916  15.915  40.783   9.150
 6344POPC   GL126917  15.989  40.771   8.850
 6344POPC   GL226918  15.985  40.634   8.850
 6344POPC   C1A26919  15.946  40.751   8.550
 6344POPC   D2A26920  16.005  40.831   8.250
 6344POPC   C3A26921  15.976  40.819   7.950
 6344POPC   C4A26922  16.002  40.748   7.650
 6344POPC   C1B26923  16.077  40.603   8.550
 6344POPC   C2B26924  16.128  40.603   8.250
 6344POPC   C3B26925  16.031  40.588   7.950
 6344POPC   C4B26926  16.119  40.578   7.650
 6345POPC   NC326927  30.706   9.745   9.450
 6345POPC   PO426928  30.744   9.701   9.150
 6345POPC   GL126929  30.660   9.762   8.850
 6345POPC   GL226930  30.694   9.595   8.850
 6345POPC   C1A26931  30.649   9.723   8.550
 6345POPC   D2A26932  30.729   9.736   8.250
 6345POPC   C3A26933  30.673   9.729   7.950
 6345POPC   C4A26934  30.665   9.742   7.650
 6345POPC   C1B26935  30.572   9.494   8.550
 6345POPC   C2B26936  30.615   9.538   8.250
 6345POPC   C3B26937  30.641   9.507   7.950
 6345POPC   C4B26938  30.577   9.481   7.650
 6346POPC   NC326939  16.763  19.853   9.450
 6346POPC   PO426940  16.713  19.811   9.150
 6346POPC   GL126941  16.773  19.815   8.850
 6346POPC   GL226942  16.582  19.887   8.850
 6346POPC   C1A26943  16.736  19.818   8.550
 6346POPC   D2A26944  16.702  19.855   8.250
 6346POPC   C3A26945  16.692  19.794   7.950
 6346POPC   C4A26946  16.681  19.873   7.650
 6346POPC   C1B26947  16.498  19.837   8.550
 6346POPC   C2B26948  16.525  19.845   8.250
 6346POPC   C3B26949  16.449  19.866   7.950
 6346POPC   C4B26950  16.518  19.891   7.650
 6347POPC   NC326951  18.301  37.646   9.450
 6347POPC   PO426952  18.267  37.667   9.150
 6347POPC   GL126953  18.310  37.642   8.850
 6347POPC   GL226954  18.204  37.765   8.850
 6347POPC   C1A26955  18.307  37.673   8.550
 6347POPC   D2A26956  18.318  37.706   8.250
 6347POPC   C3A26957  18.234  37.688   7.950
 6347POPC   C4A26958  18.303  37.724   7.650
 6347POPC   C1B26959  18.066  37.824   8.550
 6347POPC   C2B26960  18.064  37.785   8.250
 6347POPC   C3B26961  18.032  37.829   7.950
 6347POPC   C4B26962  18.031  37.770   7.650
 6348POPC   NC326963   5.834  13.637   9.450
 6348POPC   PO426964   5.856  13.634   9.150
 6348POPC   GL126965   5.914  13.625   8.850
 6348POPC   GL226966   5.783  13.731   8.850
 6348POPC   C1A26967   5.847  13.600   8.550
 6348POPC   D2A26968   5.868  13.661   8.250
 6348POPC   C3A26969   5.886  13.670   7.950
 6348POPC   C4A26970   5.836  13.647   7.650
 6348POPC   C1B26971   5.689  13.812   8.550
 6348POPC   C2B26972   5.676  13.801   8.250
 6348POPC   C3B26973   5.701  13.782   7.950
 6348POPC   C4B26974   5.718  13.812   7.650
 6349POPC   NC326975  19.877   5.099   9.450
 6349POPC   PO426976  19.814   5.106   9.150
 6349POPC   GL126977  19.857   5.142   8.850
 6349POPC   GL226978  19.746   5.159   8.850
 6349POPC   C1A26979  19.808   5.143   8.550
 6349POPC   D2A26980  19.882   5.117   8.250
 6349POPC   C3A26981  19.822   5.142   7.950
 6349POPC   C4A26982  19.863   5.121   7.650
 6349POPC   C1B26983  19.736   5.282   8.550
 6349POPC   C2B26984  19.695   5.296   8.250
 6349POPC   C3B26985  19.743   5.340   7.950
 6349POPC   C4B26986  19.723   5.266   7.650
 6350POPC   NC326987   9.792  24.500   9.450
 6350POPC   PO426988   9.774  24.525   9.150
 6350POPC   GL126989   9.699  24.462   8.850
 6350POPC   GL226990   9.852  24.413   8.850
 6350POPC   C1A26991   9.717  24.519   8.550
 6350POPC   D2A26992   9.779  24.476   8.250
 6350POPC   C3A26993   9.753  24.517   7.950
 6350POPC   C4A26994   9.730  24.488   7.650
 6350POPC   C1B26995  10.030  24.457   8.550
 6350POPC   C2B26996   9.937  24.386   8.250
 6350POPC   C3B26997   9.987  24.386   7.950
 6350POPC   C4B26998   9.974  24.388   7.650
 6351POPC   NC326999   5.129  22.149   9.450
 6351POPC   PO427000   5.120  22.186   9.150
 6351POPC   GL127001   5.129  22.138   8.850
 6351POPC   GL227002   5.027  22.243   8.850
 6351POPC   C1A27003   5.053  22.137   8.550
 6351POPC   D2A27004   5.138  22.160   8.250
 6351POPC   C3A27005   5.067  22.143   7.950
 6351POPC   C4A27006   5.119  22.190   7.650
 6351POPC   C1B27007   4.918  22.306   8.550
 6351POPC   C2B27008   4.893  22.350   8.250
 6351POPC   C3B27009   4.915  22.292   7.950
 6351POPC   C4B27010   4.884  22.349   7.650
 6352POPC   NC327011   5.128   1.246   9.450
 6352POPC   PO427012   5.120   1.186   9.150
 6352POPC   GL127013   5.117   1.213   8.850
 6352POPC   GL227014   5.145   1.345   8.850
 6352POPC   C1A27015   5.057   1.257   8.550
 6352POPC   D2A27016   5.060   1.167   8.250
 6352POPC   C3A27017   5.127   1.240   7.950
 6352POPC   C4A27018   5.133   1.165   7.650
 6352POPC   C1B27019   5.234   1.474   8.550
 6352POPC   C2B27020   5.259   1.420   8.250
 6352POPC   C3B27021   5.268   1.377   7.950
 6352POPC   C4B27022   5.272   1.465   7.650
 6353POPC   NC327023  17.553   8.981   9.450
 6353POPC   PO427024  17.551   9.002   9.150
 6353POPC   GL127025  17.482   8.989   8.850
 6353POPC   GL227026  17.419   8.948   8.850
 6353POPC   C1A27027  17.551   9.003   8.550
 6353POPC   D2A27028  17.530   9.015   8.250
 6353POPC   C3A27029  17.509   9.019   7.950
 6353POPC   C4A27030  17.555   8.975   7.650
 6353POPC   C1B27031  17.215   8.947   8.550
 6353POPC   C2B27032  17.218   8.984   8.250
 6353POPC   C3B27033  17.303   9.005   7.950
 6353POPC   C4B27034  17.226   9.011   7.650
 6354POPC   NC327035  15.975  10.491   9.450
 6354POPC   PO427036  15.999  10.574   9.150
 6354POPC   GL127037  15.976  10.476   8.850
 6354POPC   GL227038  15.891  10.453   8.850
 6354POPC   C1A27039  15.944  10.523   8.550
 6354POPC   D2A27040  15.974  10.554   8.250
 6354POPC   C3A27041  15.963  10.489   7.950
 6354POPC   C4A27042  15.981  10.514   7.650
 6354POPC   C1B27043  15.801  10.318   8.550
 6354POPC   C2B27044  15.804  10.353   8.250
 6354POPC   C3B27045  15.774  10.381   7.950
 6354POPC   C4B27046  15.769  10.341   7.650
 6355POPC   NC327047   0.484  19.064   9.450
 6355POPC   PO427048   0.436  19.105   9.150
 6355POPC   GL127049   0.425  19.042   8.850
 6355POPC   GL227050   0.568  19.103   8.850
 6355POPC   C1A27051   0.443  19.108   8.550
 6355POPC   D2A27052   0.393  19.013   8.250
 6355POPC   C3A27053   0.437  19.076   7.950
 6355POPC   C4A27054   0.470  19.105   7.650
 6355POPC   C1B27055   0.703  19.146   8.550
 6355POPC   C2B27056   0.680  19.165   8.250
 6355POPC   C3B27057   0.631  19.206   7.950
 6355POPC   C4B27058   0.646  19.164   7.650
 6356POPC   NC327059   8.986  43.858   9.450
 6356POPC   PO427060   9.009  43.899   9.150
 6356POPC   GL127061   8.951  43.895   8.850
 6356POPC   GL227062   8.960  43.752   8.850
 6356POPC   C1A27063   8.948  43.889   8.550
 6356POPC   D2A27064   8.925  43.880   8.250
 6356POPC   C3A27065   8.937  43.932   7.950
 6356POPC   C4A27066   8.962  43.864   7.650
 6356POPC   C1B27067   9.069  43.685   8.550
 6356POPC   C2B27068   8.999  43.603   8.250
 6356POPC   C3B27069   9.010  43.683   7.950
 6356POPC   C4B27070   9.064  43.649   7.650
 6357POPC   NC327071  38.441  16.720   9.450
 6357POPC   PO427072  38.430  16.763   9.150
 6357POPC   GL127073  38.466  16.758   8.850
 6357POPC   GL227074  38.575  16.787   8.850
 6357POPC   C1A27075  38.486  16.758   8.550
 6357POPC   D2A27076  38.451  16.686   8.250
 6357POPC   C3A27077  38.482  16.705   7.950
 6357POPC   C4A27078  38.426  16.686   7.650
 6357POPC   C1B27079  38.638  16.898   8.550
 6357POPC   C2B27080  38.638  16.962   8.250
 6357POPC   C3B27081  38.629  16.961   7.950
 6357POPC   C4B27082  38.660  16.890   7.650
 6358POPC   NC327083   7.373   3.583   9.450
 6358POPC   PO427084   7.450   3.527   9.150
 6358POPC   GL127085   7.460   3.589   8.850
 6358POPC   GL227086   7.523   3.476   8.850
 6358POPC   C1A27087   7.447   3.517   8.550
 6358POPC   D2A27088   7.427   3.554   8.250
 6358POPC   C3A27089   7.418   3.546   7.950
 6358POPC   C4A27090   7.414   3.577   7.650
 6358POPC   C1B27091   7.561   3.286   8.550
 6358POPC   C2B27092   7.533   3.361   8.250
 6358POPC   C3B27093   7.524   3.318   7.950
 6358POPC   C4B27094   7.506   3.293   7.650
 6359POPC   NC327095  43.079   8.930   9.450
 6359POPC   PO427096  43.085   8.971   9.150
 6359POPC   GL127097  43.068   8.940   8.850
 6359POPC   GL227098  43.010   9.067   8.850
 6359POPC   C1A27099  43.138   8.962   8.550
 6359POPC   D2A27100  43.066   8.997   8.250
 6359POPC   C3A27101  43.143   8.972   7.950
 6359POPC   C4A27102  43.129   8.947   7.650
 6359POPC   C1B27103  42.906   9.039   8.550
 6359POPC   C2B27104  42.848   9.099   8.250
 6359POPC   C3B27105  42.911   9.057   7.950
 6359POPC   C4B27106  42.918   9.109   7.650
 6360POPC   NC327107   2.743  35.369   9.450
 6360POPC   PO427108   2.757  35.306   9.150
 6360POPC   GL127109   2.737  35.382   8.850
 6360POPC   GL227110   2.756  35.510   8.850
 6360POPC   C1A27111   2.775  35.375   8.550
 6360POPC   D2A27112   2.738  35.347   8.250
 6360POPC   C3A27113   2.761  35.328   7.950
 6360POPC   C4A27114   2.722  35.315   7.650
 6360POPC   C1B27115   2.855  35.627   8.550
 6360POPC   C2B27116   2.833  35.629   8.250
 6360POPC   C3B27117   2.850  35.562   7.950
 6360POPC   C4B27118   2.825  35.545   7.650
 6361POPC   NC327119  36.928  16.723   9.450
 6361POPC   PO427120  36.905  16.767   9.150
 6361POPC   GL127121  36.909  16.726   8.850
 6361POPC   GL227122  37.062  16.720   8.850
 6361POPC   C1A27123  36.873  16.761   8.550
 6361POPC   D2A27124  36.894  16.716   8.250
 6361POPC   C3A27125  36.876  16.778   7.950
 6361POPC   C4A27126  36.859  16.777   7.650
 6361POPC   C1B27127  37.112  16.832   8.550
 6361POPC   C2B27128  37.183  16.844   8.250
 6361POPC   C3B27129  37.187  16.760   7.950
 6361POPC   C4B27130  37.103  16.807   7.650
 6362POPC   NC327131   3.516  26.816   9.450
 6362POPC   PO427132   3.505  26.853   9.150
 6362POPC   GL127133   3.509  26.813   8.850
 6362POPC   GL227134   3.500  26.734   8.850
 6362POPC   C1A27135   3.526  26.856   8.550
 6362POPC   D2A27136   3.503  26.866   8.250
 6362POPC   C3A27137   3.536  26.800   7.950
 6362POPC   C4A27138   3.572  26.805   7.650
 6362POPC   C1B27139   3.333  26.656   8.550
 6362POPC   C2B27140   3.345  26.611   8.250
 6362POPC   C3B27141   3.408  26.677   7.950
 6362POPC   C4B27142   3.403  26.587   7.650
 6363POPC   NC327143  20.645  19.014   9.450
 6363POPC   PO427144  20.617  19.108   9.150
 6363POPC   GL127145  20.610  19.105   8.850
 6363POPC   GL227146  20.466  19.105   8.850
 6363POPC   C1A27147  20.647  19.014   8.550
 6363POPC   D2A27148  20.566  19.025   8.250
 6363POPC   C3A27149  20.642  19.076   7.950
 6363POPC   C4A27150  20.589  19.095   7.650
 6363POPC   C1B27151  20.357  19.151   8.550
 6363POPC   C2B27152  20.374  19.160   8.250
 6363POPC   C3B27153  20.349  19.119   7.950
 6363POPC   C4B27154  20.358  19.164   7.650
 6364POPC   NC327155  42.361  12.091   9.450
 6364POPC   PO427156  42.345  12.059   9.150
 6364POPC   GL127157  42.367  12.114   8.850
 6364POPC   GL227158  42.394  12.017   8.850
 6364POPC   C1A27159  42.300  12.053   8.550
 6364POPC   D2A27160  42.285  12.028   8.250
 6364POPC   C3A27161  42.320  12.034   7.950
 6364POPC   C4A27162  42.310  12.046   7.650
 6364POPC   C1B27163  42.520  11.842   8.550
 6364POPC   C2B27164  42.527  11.925   8.250
 6364POPC   C3B27165  42.457  11.872   7.950
 6364POPC   C4B27166  42.446  11.891   7.650
 6365POPC   NC327167  11.295   2.003   9.450
 6365POPC   PO427168  11.309   1.969   9.150
 6365POPC   GL127169  11.318   1.957   8.850
 6365POPC   GL227170  11.404   2.041   8.850
 6365POPC   C1A27171  11.264   2.007   8.550
 6365POPC   D2A27172  11.291   1.978   8.250
 6365POPC   C3A27173  11.260   2.013   7.950
 6365POPC   C4A27174  11.297   1.944   7.650
 6365POPC   C1B27175  11.456   2.185   8.550
 6365POPC   C2B27176  11.448   2.193   8.250
 6365POPC   C3B27177  11.452   2.125   7.950
 6365POPC   C4B27178  11.502   2.163   7.650
 6366POPC   NC327179   1.169  41.512   9.450
 6366POPC   PO427180   1.241  41.550   9.150
 6366POPC   GL127181   1.231  41.519   8.850
 6366POPC   GL227182   1.243  41.720   8.850
 6366POPC   C1A27183   1.194  41.562   8.550
 6366POPC   D2A27184   1.182  41.594   8.250
 6366POPC   C3A27185   1.234  41.529   7.950
 6366POPC   C4A27186   1.246  41.561   7.650
 6366POPC   C1B27187   1.270  41.823   8.550
 6366POPC   C2B27188   1.285  41.806   8.250
 6366POPC   C3B27189   1.246  41.831   7.950
 6366POPC   C4B27190   1.268  41.757   7.650
 6367POPC   NC327191  21.360  43.863   9.450
 6367POPC   PO427192  21.357  43.922   9.150
 6367POPC   GL127193  21.374  43.902   8.850
 6367POPC   GL227194  21.264  43.947   8.850
 6367POPC   C1A27195  21.402  43.850   8.550
 6367POPC   D2A27196  21.367  43.862   8.250
 6367POPC   C3A27197  21.337  43.936   7.950
 6367POPC   C4A27198  21.426  43.893   7.650
 6367POPC   C1B27199  21.155  44.004   8.550
 6367POPC   C2B27200  21.228  44.048   8.250
 6367POPC   C3B27201  21.193  44.068   7.950
 6367POPC   C4B27202  21.145  44.032   7.650
 6368POPC   NC327203   4.352  41.539   9.450
 6368POPC   PO427204   4.293  41.597   9.150
 6368POPC   GL127205   4.350  41.573   8.850
 6368POPC   GL227206   4.396  41.661   8.850
 6368POPC   C1A27207   4.345  41.554   8.550
 6368POPC   D2A27208   4.339  41.560   8.250
 6368POPC   C3A27209   4.344  41.581   7.950
 6368POPC   C4A27210   4.298  41.542   7.650
 6368POPC   C1B27211   4.518  41.713   8.550
 6368POPC   C2B27212   4.563  41.647   8.250
 6368POPC   C3B27213   4.563  41.642   7.950
 6368POPC   C4B27214   4.563  41.640   7.650
 6369POPC   NC327215  36.174   6.596   9.450
 6369POPC   PO427216  36.114   6.608   9.150
 6369POPC   GL127217  36.175   6.624   8.850
 6369POPC   GL227218  36.032   6.564   8.850
 6369POPC   C1A27219  36.131   6.692   8.550
 6369POPC   D2A27220  36.105   6.674   8.250
 6369POPC   C3A27221  36.099   6.622   7.950
 6369POPC   C4A27222  36.159   6.599   7.650
 6369POPC   C1B27223  35.927   6.513   8.550
 6369POPC   C2B27224  35.897   6.487   8.250
 6369POPC   C3B27225  35.872   6.494   7.950
 6369POPC   C4B27226  35.893   6.511   7.650
 6370POPC   NC327227   1.249   2.002   9.450
 6370POPC   PO427228   1.211   2.032   9.150
 6370POPC   GL127229   1.213   2.018   8.850
 6370POPC   GL227230   1.244   1.915   8.850
 6370POPC   C1A27231   1.180   1.976   8.550
 6370POPC   D2A27232   1.231   1.962   8.250
 6370POPC   C3A27233   1.202   1.962   7.950
 6370POPC   C4A27234   1.209   1.970   7.650
 6370POPC   C1B27235   1.301   1.710   8.550
 6370POPC   C2B27236   1.248   1.735   8.250
 6370POPC   C3B27237   1.308   1.735   7.950
 6370POPC   C4B27238   1.223   1.794   7.650
 6371POPC   NC327239   5.820  15.223   9.450
 6371POPC   PO427240   5.852  15.202   9.150
 6371POPC   GL127241   5.876  15.217   8.850
 6371POPC   GL227242   5.820  15.220   8.850
 6371POPC   C1A27243   5.917  15.197   8.550
 6371POPC   D2A27244   5.889  15.169   8.250
 6371POPC   C3A27245   5.902  15.152   7.950
 6371POPC   C4A27246   5.857  15.189   7.650
 6371POPC   C1B27247   5.697  15.392   8.550
 6371POPC   C2B27248   5.694  15.325   8.250
 6371POPC   C3B27249   5.682  15.307   7.950
 6371POPC   C4B27250   5.705  15.304   7.650
 6372POPC   NC327251  35.362  15.944   9.450
 6372POPC   PO427252  35.342  15.979   9.150
 6372POPC   GL127253  35.371  15.930   8.850
 6372POPC   GL227254  35.356  16.037   8.850
 6372POPC   C1A27255  35.334  15.945   8.550
 6372POPC   D2A27256  35.332  15.947   8.250
 6372POPC   C3A27257  35.398  15.929   7.950
 6372POPC   C4A27258  35.364  15.945   7.650
 6372POPC   C1B27259  35.276  16.149   8.550
 6372POPC   C2B27260  35.311  16.173   8.250
 6372POPC   C3B27261  35.292  16.163   7.950
 6372POPC   C4B27262  35.331  16.191   7.650
 6373POPC   NC327263   5.084  35.302   9.450
 6373POPC   PO427264   5.130  35.322   9.150
 6373POPC   GL127265   5.127  35.333   8.850
 6373POPC   GL227266   4.947  35.320   8.850
 6373POPC   C1A27267   5.121  35.348   8.550
 6373POPC   D2A27268   5.141  35.359   8.250
 6373POPC   C3A27269   5.100  35.310   7.950
 6373POPC   C4A27270   5.121  35.326   7.650
 6373POPC   C1B27271   4.855  35.162   8.550
 6373POPC   C2B27272   4.924  35.237   8.250
 6373POPC   C3B27273   4.892  35.231   7.950
 6373POPC   C4B27274   4.867  35.182   7.650
 6374POPC   NC327275   1.978  21.361   9.450
 6374POPC   PO427276   1.971  21.375   9.150
 6374POPC   GL127277   1.993  21.383   8.850
 6374POPC   GL227278   1.892  21.292   8.850
 6374POPC   C1A27279   1.985  21.363   8.550
 6374POPC   D2A27280   1.973  21.410   8.250
 6374POPC   C3A27281   2.005  21.403   7.950
 6374POPC   C4A27282   2.004  21.399   7.650
 6374POPC   C1B27283   1.757  21.238   8.550
 6374POPC   C2B27284   1.791  21.323   8.250
 6374POPC   C3B27285   1.715  21.308   7.950
 6374POPC   C4B27286   1.769  21.251   7.650
 6375POPC   NC327287  26.012   1.967   9.450
 6375POPC   PO427288  26.008   1.989   9.150
 6375POPC   GL127289  26.028   2.002   8.850
 6375POPC   GL227290  26.128   2.061   8.850
 6375POPC   C1A27291  26.039   1.997   8.550
 6375POPC   D2A27292  26.053   1.978   8.250
 6375POPC   C3A27293  26.045   2.008   7.950
 6375POPC   C4A27294  26.025   1.978   7.650
 6375POPC   C1B27295  26.323   2.086   8.550
 6375POPC   C2B27296  26.285   2.066   8.250
 6375POPC   C3B27297  26.273   2.010   7.950
 6375POPC   C4B27298  26.295   2.011   7.650
 6376POPC   NC327299   0.393  31.441   9.450
 6376POPC   PO427300   0.420  31.478   9.150
 6376POPC   GL127301   0.405  31.497   8.850
 6376POPC   GL227302   0.407  31.349   8.850
 6376POPC   C1A27303   0.452  31.494   8.550
 6376POPC   D2A27304   0.475  31.447   8.250
 6376POPC   C3A27305   0.440  31.455   7.950
 6376POPC   C4A27306   0.447  31.455   7.650
 6376POPC   C1B27307   0.280  31.274   8.550
 6376POPC   C2B27308   0.250  31.232   8.250
 6376POPC   C3B27309   0.250  31.294   7.950
 6376POPC   C4B27310   0.293  31.249   7.650
 6377POPC   NC327311  18.253  29.888   9.450
 6377POPC   PO427312  18.261  29.940   9.150
 6377POPC   GL127313  18.316  29.967   8.850
 6377POPC   GL227314  18.388  29.967   8.850
 6377POPC   C1A27315  18.265  29.953   8.550
 6377POPC   D2A27316  18.263  29.900   8.250
 6377POPC   C3A27317  18.307  29.882   7.950
 6377POPC   C4A27318  18.246  29.962   7.650
 6377POPC   C1B27319  18.487  29.892   8.550
 6377POPC   C2B27320  18.570  29.911   8.250
 6377POPC   C3B27321  18.512  29.913   7.950
 6377POPC   C4B27322  18.483  29.891   7.650
 6378POPC   NC327323  15.974  44.618   9.450
 6378POPC   PO427324  15.914  44.658   9.150
 6378POPC   GL127325  15.921  44.651   8.850
 6378POPC   GL227326  16.072  44.760   8.850
 6378POPC   C1A27327  15.986  44.645   8.550
 6378POPC   D2A27328  15.982  44.696   8.250
 6378POPC   C3A27329  15.967  44.684   7.950
 6378POPC   C4A27330  15.916  44.642   7.650
 6378POPC   C1B27331  16.163  44.835   8.550
 6378POPC   C2B27332  16.103  44.784   8.250
 6378POPC   C3B27333  16.130  44.868   7.950
 6378POPC   C4B27334  16.158  44.855   7.650
 6379POPC   NC327335  24.504   5.099   9.450
 6379POPC   PO427336  24.457   5.095   9.150
 6379POPC   GL127337  24.501   5.109   8.850
 6379POPC   GL227338  24.602   5.020   8.850
 6379POPC   C1A27339  24.509   5.072   8.550
 6379POPC   D2A27340  24.503   5.129   8.250
 6379POPC   C3A27341  24.531   5.069   7.950
 6379POPC   C4A27342  24.452   5.068   7.650
 6379POPC   C1B27343  24.646   4.891   8.550
 6379POPC   C2B27344  24.674   4.894   8.250
 6379POPC   C3B27345  24.612   4.913   7.950
 6379POPC   C4B27346  24.679   4.939   7.650
 6380POPC   NC327347  12.860   5.077   9.450
 6380POPC   PO427348  12.840   5.081   9.150
 6380POPC   GL127349  12.814   5.126   8.850
 6380POPC   GL227350  12.727   5.031   8.850
 6380POPC   C1A27351  12.820   5.115   8.550
 6380POPC   D2A27352  12.834   5.053   8.250
 6380POPC   C3A27353  12.899   5.068   7.950
 6380POPC   C4A27354  12.809   5.079   7.650
 6380POPC   C1B27355  12.593   5.021   8.550
 6380POPC   C2B27356  12.614   4.995   8.250
 6380POPC   C3B27357  12.619   5.009   7.950
 6380POPC   C4B27358  12.573   4.964   7.650
 6381POPC   NC327359  27.568  26.044   9.450
 6381POPC   PO427360  27.597  25.996   9.150
 6381POPC   GL127361  27.590  26.035   8.850
 6381POPC   GL227362  27.554  25.902   8.850
 6381POPC   C1A27363  27.633  26.039   8.550
 6381POPC   D2A27364  27.566  26.040   8.250
 6381POPC   C3A27365  27.571  26.020   7.950
 6381POPC   C4A27366  27.604  26.088   7.650
 6381POPC   C1B27367  27.475  25.861   8.550
 6381POPC   C2B27368  27.431  25.828   8.250
 6381POPC   C3B27369  27.423  25.804   7.950
 6381POPC   C4B27370  27.516  25.823   7.650
 6382POPC   NC327371  38.413   9.704   9.450
 6382POPC   PO427372  38.431   9.701   9.150
 6382POPC   GL127373  38.480   9.717   8.850
 6382POPC   GL227374  38.493   9.596   8.850
 6382POPC   C1A27375  38.427   9.738   8.550
 6382POPC   D2A27376  38.498   9.778   8.250
 6382POPC   C3A27377  38.467   9.766   7.950
 6382POPC   C4A27378  38.427   9.773   7.650
 6382POPC   C1B27379  38.475   9.498   8.550
 6382POPC   C2B27380  38.457   9.493   8.250
 6382POPC   C3B27381  38.392   9.512   7.950
 6382POPC   C4B27382  38.485   9.537   7.650
 6383POPC   NC327383  15.220  32.223   9.450
 6383POPC   PO427384  15.177  32.223   9.150
 6383POPC   GL127385  15.175  32.291   8.850
 6383POPC   GL227386  15.261  32.335   8.850
 6383POPC   C1A27387  15.163  32.226   8.550
 6383POPC   D2A27388  15.143  32.229   8.250
 6383POPC   C3A27389  15.211  32.218   7.950
 6383POPC   C4A27390  15.199  32.211   7.650
 6383POPC   C1B27391  15.293  32.502   8.550
 6383POPC   C2B27392  15.255  32.420   8.250
 6383POPC   C3B27393  15.258  32.509   7.950
 6383POPC   C4B27394  15.268  32.454   7.650
 6384POPC   NC327395  30.649  19.794   9.450
 6384POPC   PO427396  30.697  19.863   9.150
 6384POPC   GL127397  30.702  19.797   8.850
 6384POPC   GL227398  30.604  19.723   8.850
 6384POPC   C1A27399  30.702  19.862   8.550
 6384POPC   D2A27400  30.661  19.819   8.250
 6384POPC   C3A27401  30.682  19.838   7.950
 6384POPC   C4A27402  30.731  19.883   7.650
 6384POPC   C1B27403  30.457  19.720   8.550
 6384POPC   C2B27404  30.520  19.666   8.250
 6384POPC   C3B27405  30.471  19.652   7.950
 6384POPC   C4B27406  30.474  19.652   7.650
 6385POPC   NC327407  29.884   1.961   9.450
 6385POPC   PO427408  29.944   2.007   9.150
 6385POPC   GL127409  29.957   1.972   8.850
 6385POPC   GL227410  29.921   1.886   8.850
 6385POPC   C1A27411  29.886   1.944   8.550
 6385POPC   D2A27412  29.942   2.005   8.250
 6385POPC   C3A27413  29.957   1.946   7.950
 6385POPC   C4A27414  29.895   1.974   7.650
 6385POPC   C1B27415  30.023   1.714   8.550
 6385POPC   C2B27416  30.026   1.798   8.250
 6385POPC   C3B27417  30.025   1.790   7.950
 6385POPC   C4B27418  29.953   1.726   7.650
 6386POPC   NC327419   0.470   2.796   9.450
 6386POPC   PO427420   0.410   2.721   9.150
 6386POPC   GL127421   0.463   2.785   8.850
 6386POPC   GL227422   0.502   2.652   8.850
 6386POPC   C1A27423   0.392   2.758   8.550
 6386POPC   D2A27424   0.432   2.813   8.250
 6386POPC   C3A27425   0.393   2.723   7.950
 6386POPC   C4A27426   0.409   2.772   7.650
 6386POPC   C1B27427   0.568   2.522   8.550
 6386POPC   C2B27428   0.497   2.493   8.250
 6386POPC   C3B27429   0.509   2.515   7.950
 6386POPC   C4B27430   0.491   2.535   7.650
 6387POPC   NC327431  26.062  19.015   9.450
 6387POPC   PO427432  26.008  19.097   9.150
 6387POPC   GL127433  26.071  19.033   8.850
 6387POPC   GL227434  25.997  18.921   8.850
 6387POPC   C1A27435  26.073  19.068   8.550
 6387POPC   D2A27436  25.995  19.107   8.250
 6387POPC   C3A27437  26.041  19.071   7.950
 6387POPC   C4A27438  26.070  19.027   7.650
 6387POPC   C1B27439  25.998  18.832   8.550
 6387POPC   C2B27440  25.993  18.802   8.250
 6387POPC   C3B27441  26.013  18.854   7.950
 6387POPC   C4B27442  25.983  18.819   7.650
 6388POPC   NC327443  40.762  18.312   9.450
 6388POPC   PO427444  40.735  18.244   9.150
 6388POPC   GL127445  40.750  18.277   8.850
 6388POPC   GL227446  40.756  18.446   8.850
 6388POPC   C1A27447  40.807  18.248   8.550
 6388POPC   D2A27448  40.752  18.288   8.250
 6388POPC   C3A27449  40.787  18.304   7.950
 6388POPC   C4A27450  40.739  18.255   7.650
 6388POPC   C1B27451  40.744  18.566   8.550
 6388POPC   C2B27452  40.655  18.493   8.250
 6388POPC   C3B27453  40.703  18.533   7.950
 6388POPC   C4B27454  40.722  18.507   7.650
 6389POPC   NC327455  35.363  28.385   9.450
 6389POPC   PO427456  35.375  28.393   9.150
 6389POPC   GL127457  35.347  28.335   8.850
 6389POPC   GL227458  35.284  28.250   8.850
 6389POPC   C1A27459  35.349  28.397   8.550
 6389POPC   D2A27460  35.390  28.417   8.250
 6389POPC   C3A27461  35.347  28.364   7.950
 6389POPC   C4A27462  35.400  28.353   7.650
 6389POPC   C1B27463  35.228  28.189   8.550
 6389POPC   C2B27464  35.173  28.144   8.250
 6389POPC   C3B27465  35.183  28.143   7.950
 6389POPC   C4B27466  35.254  28.196   7.650
 6390POPC   NC327467  34.567  15.179   9.450
 6390POPC   PO427468  34.597  15.142   9.150
 6390POPC   GL127469  34.571  15.178   8.850
 6390POPC   GL227470  34.463  15.321   8.850
 6390POPC   C1A27471  34.599  15.186   8.550
 6390POPC   D2A27472  34.540  15.164   8.250
 6390POPC   C3A27473  34.561  15.193   7.950
 6390POPC   C4A27474  34.578  15.134   7.650
 6390POPC   C1B27475  34.401  15.380   8.550
 6390POPC   C2B27476  34.466  15.363   8.250
 6390POPC   C3B27477  34.409  15.387   7.950
 6390POPC   C4B27478  34.418  15.427   7.650
 6391POPC   NC327479   2.749  42.338   9.450
 6391POPC   PO427480   2.763  42.374   9.150
 6391POPC   GL127481   2.814  42.374   8.850
 6391POPC   GL227482   2.809  42.248   8.850
 6391POPC   C1A27483   2.803  42.359   8.550
 6391POPC   D2A27484   2.730  42.382   8.250
 6391POPC   C3A27485   2.761  42.338   7.950
 6391POPC   C4A27486   2.738  42.315   7.650
 6391POPC   C1B27487   2.773  42.040   8.550
 6391POPC   C2B27488   2.770  42.094   8.250
 6391POPC   C3B27489   2.754  42.077   7.950
 6391POPC   C4B27490   2.780  42.075   7.650
 6392POPC   NC327491  28.320  12.113   9.450
 6392POPC   PO427492  28.380  12.114   9.150
 6392POPC   GL127493  28.320  12.072   8.850
 6392POPC   GL227494  28.422  11.971   8.850
 6392POPC   C1A27495  28.334  12.049   8.550
 6392POPC   D2A27496  28.399  12.084   8.250
 6392POPC   C3A27497  28.398  12.079   7.950
 6392POPC   C4A27498  28.397  12.063   7.650
 6392POPC   C1B27499  28.504  11.921   8.550
 6392POPC   C2B27500  28.551  11.827   8.250
 6392POPC   C3B27501  28.559  11.905   7.950
 6392POPC   C4B27502  28.490  11.869   7.650
 6393POPC   NC327503  28.362  38.464   9.450
 6393POPC   PO427504  28.400  38.434   9.150
 6393POPC   GL127505  28.332  38.476   8.850
 6393POPC   GL227506  28.464  38.535   8.850
 6393POPC   C1A27507  28.343  38.465   8.550
 6393POPC   D2A27508  28.340  38.430   8.250
 6393POPC   C3A27509  28.349  38.505   7.950
 6393POPC   C4A27510  28.416  38.429   7.650
 6393POPC   C1B27511  28.544  38.653   8.550
 6393POPC   C2B27512  28.563  38.574   8.250
 6393POPC   C3B27513  28.582  38.634   7.950
 6393POPC   C4B27514  28.583  38.589   7.650
 6394POPC   NC327515  43.931  29.162   9.450
 6394POPC   PO427516  43.935  29.118   9.150
 6394POPC   GL127517  43.900  29.099   8.850
 6394POPC   GL227518  43.834  29.219   8.850
 6394POPC   C1A27519  43.936  29.180   8.550
 6394POPC   D2A27520  43.837  29.184   8.250
 6394POPC   C3A27521  43.855  29.100   7.950
 6394POPC   C4A27522  43.844  29.142   7.650
 6394POPC   C1B27523  43.808  29.390   8.550
 6394POPC   C2B27524  43.735  29.380   8.250
 6394POPC   C3B27525  43.725  29.369   7.950
 6394POPC   C4B27526  43.788  29.312   7.650
 6395POPC   NC327527  18.281  43.899   9.450
 6395POPC   PO427528  18.273  43.844   9.150
 6395POPC   GL127529  18.241  43.878   8.850
 6395POPC   GL227530  18.336  44.033   8.850
 6395POPC   C1A27531  18.264  43.851   8.550
 6395POPC   D2A27532  18.310  43.845   8.250
 6395POPC   C3A27533  18.315  43.867   7.950
 6395POPC   C4A27534  18.254  43.866   7.650
 6395POPC   C1B27535  18.481  44.032   8.550
 6395POPC   C2B27536  18.399  44.062   8.250
 6395POPC   C3B27537  18.477  44.128   7.950
 6395POPC   C4B27538  18.399  44.098   7.650
 6396POPC   NC327539  34.560  22.129   9.450
 6396POPC   PO427540  34.527  22.139   9.150
 6396POPC   GL127541  34.560  22.195   8.850
 6396POPC   GL227542  34.602  22.292   8.850
 6396POPC   C1A27543  34.553  22.152   8.550
 6396POPC   D2A27544  34.551  22.119   8.250
 6396POPC   C3A27545  34.535  22.125   7.950
 6396POPC   C4A27546  34.595  22.122   7.650
 6396POPC   C1B27547  34.568  22.431   8.550
 6396POPC   C2B27548  34.608  22.454   8.250
 6396POPC   C3B27549  34.543  22.403   7.950
 6396POPC   C4B27550  34.566  22.426   7.650
 6397POPC   NC327551  44.675  12.862   9.450
 6397POPC   PO427552  44.627  12.830   9.150
 6397POPC   GL127553  44.673  12.806   8.850
 6397POPC   GL227554  44.595  12.941   8.850
 6397POPC   C1A27555  44.664  12.875   8.550
 6397POPC   D2A27556  44.643  12.803   8.250
 6397POPC   C3A27557  44.622  12.810   7.950
 6397POPC   C4A27558  44.673  12.853   7.650
 6397POPC   C1B27559  44.439  13.039   8.550
 6397POPC   C2B27560  44.466  13.022   8.250
 6397POPC   C3B27561  44.451  13.053   7.950
 6397POPC   C4B27562  44.444  12.994   7.650
 6398POPC   NC327563  21.391   5.854   9.450
 6398POPC   PO427564  21.365   5.894   9.150
 6398POPC   GL127565  21.376   5.880   8.850
 6398POPC   GL227566  21.468   5.852   8.850
 6398POPC   C1A27567  21.414   5.861   8.550
 6398POPC   D2A27568  21.389   5.918   8.250
 6398POPC   C3A27569  21.414   5.897   7.950
 6398POPC   C4A27570  21.414   5.852   7.650
 6398POPC   C1B27571  21.623   5.926   8.550
 6398POPC   C2B27572  21.591   5.862   8.250
 6398POPC   C3B27573  21.662   5.937   7.950
 6398POPC   C4B27574  21.671   5.865   7.650
 6399POPC   NC327575   1.187  15.144   9.450
 6399POPC   PO427576   1.181  15.226   9.150
 6399POPC   GL127577   1.234  15.168   8.850
 6399POPC   GL227578   1.359  15.250   8.850
 6399POPC   C1A27579   1.186  15.160   8.550
 6399POPC   D2A27580   1.214  15.148   8.250
 6399POPC   C3A27581   1.185  15.175   7.950
 6399POPC   C4A27582   1.201  15.198   7.650
 6399POPC   C1B27583   1.452  15.372   8.550
 6399POPC   C2B27584   1.419  15.371   8.250
 6399POPC   C3B27585   1.452  15.317   7.950
 6399POPC   C4B27586   1.396  15.289   7.650
 6400POPC   NC327587  16.762   7.393   9.450
 6400POPC   PO427588  16.750   7.399   9.150
 6400POPC   GL127589  16.735   7.459   8.850
 6400POPC   GL227590  16.885   7.439   8.850
 6400POPC   C1A27591  16.740   7.403   8.550
 6400POPC   D2A27592  16.700   7.467   8.250
 6400POPC   C3A27593  16.775   7.437   7.950
 6400POPC   C4A27594  16.736   7.391   7.650
 6400POPC   C1B27595  16.984   7.353   8.550
 6400POPC   C2B27596  16.969   7.389   8.250
 6400POPC   C3B27597  17.020   7.398   7.950
 6400POPC   C4B27598  17.001   7.395   7.650
 6401POPC   NC327599   9.708   5.891   9.450
 6401POPC   PO427600   9.787   5.847   9.150
 6401POPC   GL127601   9.762   5.855   8.850
 6401POPC   GL227602   9.801   5.966   8.850
 6401POPC   C1A27603   9.767   5.878   8.550
 6401POPC   D2A27604   9.712   5.858   8.250
 6401POPC   C3A27605   9.760   5.893   7.950
 6401POPC   C4A27606   9.764   5.854   7.650
 6401POPC   C1B27607   9.867   6.104   8.550
 6401POPC   C2B27608   9.885   6.074   8.250
 6401POPC   C3B27609   9.870   6.064   7.950
 6401POPC   C4B27610   9.935   6.096   7.650
 6402POPC   NC327611  25.312   2.017   9.450
 6402POPC   PO427612  25.314   2.004   9.150
 6402POPC   GL127613  25.242   2.011   8.850
 6402POPC   GL227614  25.419   1.949   8.850
 6402POPC   C1A27615  25.222   1.987   8.550
 6402POPC   D2A27616  25.234   2.022   8.250
 6402POPC   C3A27617  25.253   2.016   7.950
 6402POPC   C4A27618  25.283   1.962   7.650
 6402POPC   C1B27619  25.484   1.951   8.550
 6402POPC   C2B27620  25.462   1.935   8.250
 6402POPC   C3B27621  25.468   1.906   7.950
 6402POPC   C4B27622  25.512   1.919   7.650
 6403POPC   NC327623   3.495  36.156   9.450
 6403POPC   PO427624   3.517  36.134   9.150
 6403POPC   GL127625   3.567  36.106   8.850
 6403POPC   GL227626   3.444  36.071   8.850
 6403POPC   C1A27627   3.576  36.129   8.550
 6403POPC   D2A27628   3.525  36.092   8.250
 6403POPC   C3A27629   3.552  36.101   7.950
 6403POPC   C4A27630   3.541  36.159   7.650
 6403POPC   C1B27631   3.272  36.051   8.550
 6403POPC   C2B27632   3.272  36.096   8.250
 6403POPC   C3B27633   3.316  36.045   7.950
 6403POPC   C4B27634   3.255  36.126   7.650
 6404POPC   NC327635  29.940  19.039   9.450
 6404POPC   PO427636  29.877  19.103   9.150
 6404POPC   GL127637  29.956  19.098   8.850
 6404POPC   GL227638  30.087  19.069   8.850
 6404POPC   C1A27639  29.899  19.089   8.550
 6404POPC   D2A27640  29.889  19.044   8.250
 6404POPC   C3A27641  29.916  19.091   7.950
 6404POPC   C4A27642  29.951  19.100   7.650
 6404POPC   C1B27643  30.185  19.133   8.550
 6404POPC   C2B27644  30.167  19.107   8.250
 6404POPC   C3B27645  30.146  19.134   7.950
 6404POPC   C4B27646  30.173  19.149   7.650
 6405POPC   NC327647  17.470  26.799   9.450
 6405POPC   PO427648  17.532  26.823   9.150
 6405POPC   GL127649  17.494  26.810   8.850
 6405POPC   GL227650  17.664  26.772   8.850
 6405POPC   C1A27651  17.546  26.805   8.550
 6405POPC   D2A27652  17.547  26.804   8.250
 6405POPC   C3A27653  17.530  26.846   7.950
 6405POPC   C4A27654  17.462  26.775   7.650
 6405POPC   C1B27655  17.748  26.711   8.550
 6405POPC   C2B27656  17.769  26.711   8.250
 6405POPC   C3B27657  17.739  26.717   7.950
 6405POPC   C4B27658  17.782  26.721   7.650
 6406POPC   NC327659  31.455   5.824   9.450
 6406POPC   PO427660  31.483   5.903   9.150
 6406POPC   GL127661  31.439   5.895   8.850
 6406POPC   GL227662  31.456   5.713   8.850
 6406POPC   C1A27663  31.446   5.831   8.550
 6406POPC   D2A27664  31.425   5.852   8.250
 6406POPC   C3A27665  31.491   5.848   7.950
 6406POPC   C4A27666  31.431   5.912   7.650
 6406POPC   C1B27667  31.423   5.623   8.550
 6406POPC   C2B27668  31.472   5.616   8.250
 6406POPC   C3B27669  31.455   5.585   7.950
 6406POPC   C4B27670  31.444   5.664   7.650
 6407POPC   NC327671  43.097  44.624   9.450
 6407POPC   PO427672  43.155  44.684   9.150
 6407POPC   GL127673  43.144  44.655   8.850
 6407POPC   GL227674  43.245  44.601   8.850
 6407POPC   C1A27675  43.105  44.685   8.550
 6407POPC   D2A27676  43.080  44.690   8.250
 6407POPC   C3A27677  43.069  44.646   7.950
 6407POPC   C4A27678  43.112  44.623   7.650
 6407POPC   C1B27679  43.280  44.568   8.550
 6407POPC   C2B27680  43.363  44.548   8.250
 6407POPC   C3B27681  43.308  44.528   7.950
 6407POPC   C4B27682  43.278  44.580   7.650
 6408POPC   NC327683  10.560  29.916   9.450
 6408POPC   PO427684  10.554  29.970   9.150
 6408POPC   GL127685  10.531  29.910   8.850
 6408POPC   GL227686  10.619  29.995   8.850
 6408POPC   C1A27687  10.500  29.949   8.550
 6408POPC   D2A27688  10.479  29.953   8.250
 6408POPC   C3A27689  10.529  29.961   7.950
 6408POPC   C4A27690  10.571  29.881   7.650
 6408POPC   C1B27691  10.619  30.137   8.550
 6408POPC   C2B27692  10.659  30.132   8.250
 6408POPC   C3B27693  10.691  30.111   7.950
 6408POPC   C4B27694  10.601  30.114   7.650
 6409POPC   NC327695  44.623  20.633   9.450
 6409POPC   PO427696  44.706  20.625   9.150
 6409POPC   GL127697  44.645  20.572   8.850
 6409POPC   GL227698  44.617  20.724   8.850
 6409POPC   C1A27699  44.679  20.601   8.550
 6409POPC   D2A27700  44.671  20.632   8.250
 6409POPC   C3A27701  44.692  20.611   7.950
 6409POPC   C4A27702  44.681  20.651   7.650
 6409POPC   C1B27703  44.552  20.776   8.550
 6409POPC   C2B27704  44.541  20.792   8.250
 6409POPC   C3B27705  44.551  20.850   7.950
 6409POPC   C4B27706  44.535  20.798   7.650
 6410POPC   NC327707  31.434  28.412   9.450
 6410POPC   PO427708  31.444  28.397   9.150
 6410POPC   GL127709  31.436  28.337   8.850
 6410POPC   GL227710  31.579  28.271   8.850
 6410POPC   C1A27711  31.479  28.334   8.550
 6410POPC   D2A27712  31.441  28.406   8.250
 6410POPC   C3A27713  31.478  28.370   7.950
 6410POPC   C4A27714  31.441  28.393   7.650
 6410POPC   C1B27715  31.648  28.257   8.550
 6410POPC   C2B27716  31.718  28.250   8.250
 6410POPC   C3B27717  31.695  28.232   7.950
 6410POPC   C4B27718  31.691  28.209   7.650
 6411POPC   NC327719  22.920   5.879   9.450
 6411POPC   PO427720  22.919   5.819   9.150
 6411POPC   GL127721  22.890   5.895   8.850
 6411POPC   GL227722  22.990   5.977   8.850
 6411POPC   C1A27723  22.897   5.919   8.550
 6411POPC   D2A27724  22.975   5.866   8.250
 6411POPC   C3A27725  22.942   5.904   7.950
 6411POPC   C4A27726  22.977   5.877   7.650
 6411POPC   C1B27727  22.983   6.113   8.550
 6411POPC   C2B27728  23.068   6.117   8.250
 6411POPC   C3B27729  23.059   6.120   7.950
 6411POPC   C4B27730  23.049   6.137   7.650
 6412POPC   NC327731  12.060  32.210   9.450
 6412POPC   PO427732  12.049  32.247   9.150
 6412POPC   GL127733  12.069  32.255   8.850
 6412POPC   GL227734  12.236  32.145   8.850
 6412POPC   C1A27735  12.124  32.200   8.550
 6412POPC   D2A27736  12.069  32.234   8.250
 6412POPC   C3A27737  12.063  32.280   7.950
 6412POPC   C4A27738  12.036  32.280   7.650
 6412POPC   C1B27739  12.253  32.181   8.550
 6412POPC   C2B27740  12.268  32.139   8.250
 6412POPC   C3B27741  12.252  32.117   7.950
 6412POPC   C4B27742  12.333  32.163   7.650
 6413POPC   NC327743  27.626  15.942   9.450
 6413POPC   PO427744  27.636  16.004   9.150
 6413POPC   GL127745  27.561  15.993   8.850
 6413POPC   GL227746  27.724  15.839   8.850
 6413POPC   C1A27747  27.543  15.991   8.550
 6413POPC   D2A27748  27.552  15.972   8.250
 6413POPC   C3A27749  27.638  15.989   7.950
 6413POPC   C4A27750  27.579  15.917   7.650
 6413POPC   C1B27751  27.802  15.738   8.550
 6413POPC   C2B27752  27.770  15.747   8.250
 6413POPC   C3B27753  27.768  15.790   7.950
 6413POPC   C4B27754  27.805  15.766   7.650
 6414POPC   NC327755  28.361  33.814   9.450
 6414POPC   PO427756  28.388  33.797   9.150
 6414POPC   GL127757  28.325  33.819   8.850
 6414POPC   GL227758  28.293  33.826   8.850
 6414POPC   C1A27759  28.338  33.786   8.550
 6414POPC   D2A27760  28.413  33.827   8.250
 6414POPC   C3A27761  28.385  33.791   7.950
 6414POPC   C4A27762  28.381  33.847   7.650
 6414POPC   C1B27763  28.136  33.899   8.550
 6414POPC   C2B27764  28.104  33.854   8.250
 6414POPC   C3B27765  28.103  33.915   7.950
 6414POPC   C4B27766  28.120  33.870   7.650
 6415POPC   NC327767  15.986  40.040   9.450
 6415POPC   PO427768  15.943  40.018   9.150
 6415POPC   GL127769  15.969  39.987   8.850
 6415POPC   GL227770  15.849  39.916   8.850
 6415POPC   C1A27771  15.978  39.983   8.550
 6415POPC   D2A27772  15.973  39.964   8.250
 6415POPC   C3A27773  15.917  40.048   7.950
 6415POPC   C4A27774  16.002  40.000   7.650
 6415POPC   C1B27775  15.700  39.857   8.550
 6415POPC   C2B27776  15.788  39.822   8.250
 6415POPC   C3B27777  15.761  39.832   7.950
 6415POPC   C4B27778  15.728  39.857   7.650
 6416POPC   NC327779  33.802  19.023   9.450
 6416POPC   PO427780  33.815  19.046   9.150
 6416POPC   GL127781  33.824  19.014   8.850
 6416POPC   GL227782  33.852  18.995   8.850
 6416POPC   C1A27783  33.812  19.053   8.550
 6416POPC   D2A27784  33.793  19.085   8.250
 6416POPC   C3A27785  33.751  19.044   7.950
 6416POPC   C4A27786  33.764  19.090   7.650
 6416POPC   C1B27787  33.969  18.831   8.550
 6416POPC   C2B27788  33.953  18.866   8.250
 6416POPC   C3B27789  33.963  18.921   7.950
 6416POPC   C4B27790  33.951  18.892   7.650
 6417POPC   NC327791  17.517  39.993   9.450
 6417POPC   PO427792  17.519  40.056   9.150
 6417POPC   GL127793  17.509  39.962   8.850
 6417POPC   GL227794  17.410  40.011   8.850
 6417POPC   C1A27795  17.520  39.976   8.550
 6417POPC   D2A27796  17.460  39.997   8.250
 6417POPC   C3A27797  17.460  40.038   7.950
 6417POPC   C4A27798  17.484  39.998   7.650
 6417POPC   C1B27799  17.298  40.023   8.550
 6417POPC   C2B27800  17.225  40.082   8.250
 6417POPC   C3B27801  17.275  40.068   7.950
 6417POPC   C4B27802  17.223  40.021   7.650
 6418POPC   NC327803   4.356  29.905   9.450
 6418POPC   PO427804   4.297  29.920   9.150
 6418POPC   GL127805   4.305  29.898   8.850
 6418POPC   GL227806   4.256  30.040   8.850
 6418POPC   C1A27807   4.331  29.883   8.550
 6418POPC   D2A27808   4.291  29.881   8.250
 6418POPC   C3A27809   4.345  29.904   7.950
 6418POPC   C4A27810   4.318  29.899   7.650
 6418POPC   C1B27811   4.144  30.148   8.550
 6418POPC   C2B27812   4.128  30.154   8.250
 6418POPC   C3B27813   4.132  30.157   7.950
 6418POPC   C4B27814   4.112  30.071   7.650
 6419POPC   NC327815   9.021  39.251   9.450
 6419POPC   PO427816   8.925  39.220   9.150
 6419POPC   GL127817   8.967  39.280   8.850
 6419POPC   GL227818   9.115  39.179   8.850
 6419POPC   C1A27819   8.981  39.264   8.550
 6419POPC   D2A27820   8.932  39.207   8.250
 6419POPC   C3A27821   8.926  39.249   7.950
 6419POPC   C4A27822   8.928  39.183   7.650
 6419POPC   C1B27823   9.121  39.080   8.550
 6419POPC   C2B27824   9.160  39.089   8.250
 6419POPC   C3B27825   9.192  39.045   7.950
 6419POPC   C4B27826   9.205  39.044   7.650
 6420POPC   NC327827  37.655  22.205   9.450
 6420POPC   PO427828  37.704  22.123   9.150
 6420POPC   GL127829  37.637  22.205   8.850
 6420POPC   GL227830  37.610  22.050   8.850
 6420POPC   C1A27831  37.663  22.202   8.550
 6420POPC   D2A27832  37.674  22.178   8.250
 6420POPC   C3A27833  37.643  22.180   7.950
 6420POPC   C4A27834  37.640  22.206   7.650
 6420POPC   C1B27835  37.487  21.994   8.550
 6420POPC   C2B27836  37.456  21.990   8.250
 6420POPC   C3B27837  37.507  21.957   7.950
 6420POPC   C4B27838  37.463  21.992   7.650
 6421POPC   NC327839  44.679  29.108   9.450
 6421POPC   PO427840  44.675  29.189   9.150
 6421POPC   GL127841  44.652  29.125   8.850
 6421POPC   GL227842  44.770  29.143   8.850
 6421POPC   C1A27843  44.639  29.194   8.550
 6421POPC   D2A27844  44.631  29.158   8.250
 6421POPC   C3A27845  44.694  29.121   7.950
 6421POPC   C4A27846  44.653  29.182   7.650
 6421POPC   C1B27847  44.920  29.071   8.550
 6421POPC   C2B27848  44.874  29.086   8.250
 6421POPC   C3B27849  44.872  29.151   7.950
 6421POPC   C4B27850  44.907  29.125   7.650
 6422POPC   NC327851  26.027  37.680   9.450
 6422POPC   PO427852  26.033  37.689   9.150
 6422POPC   GL127853  26.055  37.726   8.850
 6422POPC   GL227854  26.062  37.852   8.850
 6422POPC   C1A27855  26.071  37.652   8.550
 6422POPC   D2A27856  26.045  37.694   8.250
 6422POPC   C3A27857  26.011  37.639   7.950
 6422POPC   C4A27858  25.995  37.661   7.650
 6422POPC   C1B27859  25.978  37.893   8.550
 6422POPC   C2B27860  25.960  37.941   8.250
 6422POPC   C3B27861  26.038  37.944   7.950
 6422POPC   C4B27862  25.966  37.916   7.650
 6423POPC   NC327863  40.826  40.832   9.450
 6423POPC   PO427864  40.826  40.800   9.150
 6423POPC   GL127865  40.791  40.824   8.850
 6423POPC   GL227866  40.899  40.822   8.850
 6423POPC   C1A27867  40.783  40.811   8.550
 6423POPC   D2A27868  40.765  40.751   8.250
 6423POPC   C3A27869  40.744  40.773   7.950
 6423POPC   C4A27870  40.789  40.779   7.650
 6423POPC   C1B27871  41.027  40.849   8.550
 6423POPC   C2B27872  41.079  40.839   8.250
 6423POPC   C3B27873  40.987  40.779   7.950
 6423POPC   C4B27874  41.030  40.805   7.650
 6424POPC   NC327875   0.403   0.450   9.450
 6424POPC   PO427876   0.419   0.465   9.150
 6424POPC   GL127877   0.440   0.403   8.850
 6424POPC   GL227878   0.334   0.447   8.850
 6424POPC   C1A27879   0.432   0.439   8.550
 6424POPC   D2A27880   0.438   0.411   8.250
 6424POPC   C3A27881   0.444   0.485   7.950
 6424POPC   C4A27882   0.485   0.409   7.650
 6424POPC   C1B27883   0.227   0.351   8.550
 6424POPC   C2B27884   0.219   0.369   8.250
 6424POPC   C3B27885   0.158   0.378   7.950
 6424POPC   C4B27886   0.207   0.404   7.650
 6425POPC   NC327887  27.590  33.043   9.450
 6425POPC   PO427888  27.593  32.994   9.150
 6425POPC   GL127889  27.615  33.010   8.850
 6425POPC   GL227890  27.448  33.054   8.850
 6425POPC   C1A27891  27.546  33.056   8.550
 6425POPC   D2A27892  27.552  33.054   8.250
 6425POPC   C3A27893  27.637  32.991   7.950
 6425POPC   C4A27894  27.613  32.977   7.650
 6425POPC   C1B27895  27.344  33.023   8.550
 6425POPC   C2B27896  27.310  33.015   8.250
 6425POPC   C3B27897  27.309  33.071   7.950
 6425POPC   C4B27898  27.392  32.988   7.650
 6426POPC   NC327899   5.093  41.600   9.450
 6426POPC   PO427900   5.074  41.594   9.150
 6426POPC   GL127901   5.078  41.558   8.850
 6426POPC   GL227902   5.191  41.569   8.850
 6426POPC   C1A27903   5.057  41.606   8.550
 6426POPC   D2A27904   5.065  41.512   8.250
 6426POPC   C3A27905   5.121  41.515   7.950
 6426POPC   C4A27906   5.124  41.559   7.650
 6426POPC   C1B27907   5.345  41.561   8.550
 6426POPC   C2B27908   5.363  41.569   8.250
 6426POPC   C3B27909   5.351  41.611   7.950
 6426POPC   C4B27910   5.360  41.578   7.650
 6427POPC   NC327911   6.606  22.193   9.450
 6427POPC   PO427912   6.650  22.202   9.150
 6427POPC   GL127913   6.647  22.120   8.850
 6427POPC   GL227914   6.631  22.305   8.850
 6427POPC   C1A27915   6.669  22.146   8.550
 6427POPC   D2A27916   6.658  22.181   8.250
 6427POPC   C3A27917   6.638  22.174   7.950
 6427POPC   C4A27918   6.631  22.130   7.650
 6427POPC   C1B27919   6.568  22.392   8.550
 6427POPC   C2B27920   6.579  22.420   8.250
 6427POPC   C3B27921   6.534  22.357   7.950
 6427POPC   C4B27922   6.624  22.388   7.650
 6428POPC   NC327923  15.222   4.318   9.450
 6428POPC   PO427924  15.220   4.317   9.150
 6428POPC   GL127925  15.160   4.308   8.850
 6428POPC   GL227926  15.253   4.381   8.850
 6428POPC   C1A27927  15.196   4.367   8.550
 6428POPC   D2A27928  15.219   4.348   8.250
 6428POPC   C3A27929  15.166   4.298   7.950
 6428POPC   C4A27930  15.178   4.337   7.650
 6428POPC   C1B27931  15.385   4.369   8.550
 6428POPC   C2B27932  15.412   4.423   8.250
 6428POPC   C3B27933  15.411   4.360   7.950
 6428POPC   C4B27934  15.421   4.376   7.650
 6429POPC   NC327935  39.275   8.191   9.450
 6429POPC   PO427936  39.250   8.235   9.150
 6429POPC   GL127937  39.207   8.155   8.850
 6429POPC   GL227938  39.360   8.171   8.850
 6429POPC   C1A27939  39.221   8.219   8.550
 6429POPC   D2A27940  39.186   8.176   8.250
 6429POPC   C3A27941  39.247   8.198   7.950
 6429POPC   C4A27942  39.275   8.222   7.650
 6429POPC   C1B27943  39.434   8.205   8.550
 6429POPC   C2B27944  39.476   8.209   8.250
 6429POPC   C3B27945  39.522   8.243   7.950
 6429POPC   C4B27946  39.443   8.190   7.650
 6430POPC   NC327947  15.976  28.416   9.450
 6430POPC   PO427948  15.941  28.352   9.150
 6430POPC   GL127949  15.967  28.383   8.850
 6430POPC   GL227950  16.035  28.200   8.850
 6430POPC   C1A27951  16.005  28.370   8.550
 6430POPC   D2A27952  15.926  28.368   8.250
 6430POPC   C3A27953  15.923  28.418   7.950
 6430POPC   C4A27954  15.970  28.333   7.650
 6430POPC   C1B27955  16.007  28.094   8.550
 6430POPC   C2B27956  16.034  28.101   8.250
 6430POPC   C3B27957  15.977  28.167   7.950
 6430POPC   C4B27958  16.060  28.103   7.650
 6431POPC   NC327959   7.464  19.831   9.450
 6431POPC   PO427960   7.466  19.802   9.150
 6431POPC   GL127961   7.396  19.848   8.850
 6431POPC   GL227962   7.544  19.742   8.850
 6431POPC   C1A27963   7.378  19.869   8.550
 6431POPC   D2A27964   7.467  19.848   8.250
 6431POPC   C3A27965   7.439  19.842   7.950
 6431POPC   C4A27966   7.384  19.850   7.650
 6431POPC   C1B27967   7.609  19.661   8.550
 6431POPC   C2B27968   7.638  19.721   8.250
 6431POPC   C3B27969   7.563  19.672   7.950
 6431POPC   C4B27970   7.592  19.676   7.650
 6432POPC   NC327971  40.032  18.274   9.450
 6432POPC   PO427972  40.014  18.282   9.150
 6432POPC   GL127973  40.011  18.317   8.850
 6432POPC   GL227974  39.914  18.241   8.850
 6432POPC   C1A27975  39.981  18.311   8.550
 6432POPC   D2A27976  40.002  18.277   8.250
 6432POPC   C3A27977  39.984  18.240   7.950
 6432POPC   C4A27978  40.002  18.264   7.650
 6432POPC   C1B27979  39.729  18.247   8.550
 6432POPC   C2B27980  39.748  18.232   8.250
 6432POPC   C3B27981  39.726  18.266   7.950
 6432POPC   C4B27982  39.726  18.270   7.650
 6433POPC   NC327983  14.396  16.701   9.450
 6433POPC   PO427984  14.436  16.780   9.150
 6433POPC   GL127985  14.368  16.702   8.850
 6433POPC   GL227986  14.460  16.646   8.850
 6433POPC   C1A27987  14.413  16.723   8.550
 6433POPC   D2A27988  14.420  16.693   8.250
 6433POPC   C3A27989  14.448  16.744   7.950
 6433POPC   C4A27990  14.451  16.700   7.650
 6433POPC   C1B27991  14.431  16.505   8.550
 6433POPC   C2B27992  14.475  16.461   8.250
 6433POPC   C3B27993  14.445  16.467   7.950
 6433POPC   C4B27994  14.488  16.452   7.650
 6434POPC   NC327995  13.665  44.625   9.450
 6434POPC   PO427996  13.580  44.616   9.150
 6434POPC   GL127997  13.661  44.614   8.850
 6434POPC   GL227998  13.727  44.728   8.850
 6434POPC   C1A27999  13.613  44.657   8.550
 6434POPC   D2A28000  13.675  44.690   8.250
 6434POPC   C3A28001  13.608  44.698   7.950
 6434POPC   C4A28002  13.673  44.664   7.650
 6434POPC   C1B28003  13.791  44.903   8.550
 6434POPC   C2B28004  13.768  44.858   8.250
 6434POPC   C3B28005  13.764  44.884   7.950
 6434POPC   C4B28006  13.761  44.856   7.650
 6435POPC   NC328007  29.923  36.120   9.450
 6435POPC   PO428008  29.911  36.098   9.150
 6435POPC   GL128009  29.911  36.139   8.850
 6435POPC   GL228010  29.952  36.216   8.850
 6435POPC   C1A28011  29.935  36.124   8.550
 6435POPC   D2A28012  29.904  36.177   8.250
 6435POPC   C3A28013  29.924  36.099   7.950
 6435POPC   C4A28014  29.909  36.150   7.650
 6435POPC   C1B28015  30.029  36.371   8.550
 6435POPC   C2B28016  30.047  36.339   8.250
 6435POPC   C3B28017  30.070  36.309   7.950
 6435POPC   C4B28018  30.107  36.360   7.650
 6436POPC   NC328019  43.068  36.152   9.450
 6436POPC   PO428020  43.113  36.091   9.150
 6436POPC   GL128021  43.147  36.169   8.850
 6436POPC   GL228022  43.082  36.215   8.850
 6436POPC   C1A28023  43.109  36.097   8.550
 6436POPC   D2A28024  43.158  36.097   8.250
 6436POPC   C3A28025  43.107  36.158   7.950
 6436POPC   C4A28026  43.138  36.143   7.650
 6436POPC   C1B28027  42.979  36.312   8.550
 6436POPC   C2B28028  42.961  36.377   8.250
 6436POPC   C3B28029  42.982  36.341   7.950
 6436POPC   C4B28030  42.977  36.320   7.650
 6437POPC   NC328031  33.045   1.241   9.450
 6437POPC   PO428032  32.989   1.194   9.150
 6437POPC   GL128033  32.979   1.239   8.850
 6437POPC   GL228034  33.187   1.273   8.850
 6437POPC   C1A28035  33.056   1.195   8.550
 6437POPC   D2A28036  33.020   1.220   8.250
 6437POPC   C3A28037  33.056   1.257   7.950
 6437POPC   C4A28038  33.061   1.190   7.650
 6437POPC   C1B28039  33.321   1.211   8.550
 6437POPC   C2B28040  33.249   1.251   8.250
 6437POPC   C3B28041  33.253   1.200   7.950
 6437POPC   C4B28042  33.264   1.278   7.650
 6438POPC   NC328043   6.687  19.021   9.450
 6438POPC   PO428044   6.624  19.046   9.150
 6438POPC   GL128045   6.694  19.060   8.850
 6438POPC   GL228046   6.757  19.092   8.850
 6438POPC   C1A28047   6.689  19.014   8.550
 6438POPC   D2A28048   6.640  19.050   8.250
 6438POPC   C3A28049   6.604  19.028   7.950
 6438POPC   C4A28050   6.665  19.075   7.650
 6438POPC   C1B28051   6.834  19.165   8.550
 6438POPC   C2B28052   6.848  19.178   8.250
 6438POPC   C3B28053   6.850  19.137   7.950
 6438POPC   C4B28054   6.884  19.138   7.650
 6439POPC   NC328055  19.026  43.893   9.450
 6439POPC   PO428056  19.105  43.925   9.150
 6439POPC   GL128057  19.097  43.877   8.850
 6439POPC   GL228058  19.158  43.803   8.850
 6439POPC   C1A28059  19.041  43.875   8.550
 6439POPC   D2A28060  19.108  43.888   8.250
 6439POPC   C3A28061  19.068  43.913   7.950
 6439POPC   C4A28062  19.012  43.909   7.650
 6439POPC   C1B28063  19.179  43.729   8.550
 6439POPC   C2B28064  19.270  43.718   8.250
 6439POPC   C3B28065  19.227  43.691   7.950
 6439POPC   C4B28066  19.246  43.661   7.650
 6440POPC   NC328067  22.140   2.017   9.450
 6440POPC   PO428068  22.123   2.032   9.150
 6440POPC   GL128069  22.157   1.982   8.850
 6440POPC   GL228070  22.208   1.835   8.850
 6440POPC   C1A28071  22.123   1.995   8.550
 6440POPC   D2A28072  22.152   2.010   8.250
 6440POPC   C3A28073  22.196   2.005   7.950
 6440POPC   C4A28074  22.150   1.989   7.650
 6440POPC   C1B28075  22.215   1.744   8.550
 6440POPC   C2B28076  22.195   1.764   8.250
 6440POPC   C3B28077  22.188   1.706   7.950
 6440POPC   C4B28078  22.236   1.739   7.650
 6441POPC   NC328079  40.820  26.816   9.450
 6441POPC   PO428080  40.767  26.794   9.150
 6441POPC   GL128081  40.742  26.811   8.850
 6441POPC   GL228082  40.953  26.831   8.850
 6441POPC   C1A28083  40.833  26.849   8.550
 6441POPC   D2A28084  40.820  26.851   8.250
 6441POPC   C3A28085  40.757  26.785   7.950
 6441POPC   C4A28086  40.804  26.838   7.650
 6441POPC   C1B28087  41.035  26.742   8.550
 6441POPC   C2B28088  41.042  26.798   8.250
 6441POPC   C3B28089  41.008  26.741   7.950
 6441POPC   C4B28090  41.032  26.770   7.650
 6442POPC   NC328091   9.708  37.670   9.450
 6442POPC   PO428092   9.796  37.654   9.150
 6442POPC   GL128093   9.797  37.637   8.850
 6442POPC   GL228094   9.626  37.627   8.850
 6442POPC   C1A28095   9.751  37.728   8.550
 6442POPC   D2A28096   9.756  37.670   8.250
 6442POPC   C3A28097   9.790  37.717   7.950
 6442POPC   C4A28098   9.741  37.673   7.650
 6442POPC   C1B28099   9.482  37.612   8.550
 6442POPC   C2B28100   9.473  37.622   8.250
 6442POPC   C3B28101   9.541  37.637   7.950
 6442POPC   C4B28102   9.502  37.607   7.650
 6443POPC   NC328103  10.559  27.574   9.450
 6443POPC   PO428104  10.552  27.592   9.150
 6443POPC   GL128105  10.522  27.625   8.850
 6443POPC   GL228106  10.563  27.703   8.850
 6443POPC   C1A28107  10.568  27.619   8.550
 6443POPC   D2A28108  10.543  27.629   8.250
 6443POPC   C3A28109  10.475  27.621   7.950
 6443POPC   C4A28110  10.527  27.591   7.650
 6443POPC   C1B28111  10.610  27.808   8.550
 6443POPC   C2B28112  10.581  27.884   8.250
 6443POPC   C3B28113  10.631  27.874   7.950
 6443POPC   C4B28114  10.594  27.805   7.650
 6444POPC   NC328115  10.512   2.008   9.450
 6444POPC   PO428116  10.526   2.022   9.150
 6444POPC   GL128117  10.522   2.020   8.850
 6444POPC   GL228118  10.678   1.940   8.850
 6444POPC   C1A28119  10.558   2.008   8.550
 6444POPC   D2A28120  10.544   2.007   8.250
 6444POPC   C3A28121  10.499   2.023   7.950
 6444POPC   C4A28122  10.545   2.039   7.650
 6444POPC   C1B28123  10.727   2.024   8.550
 6444POPC   C2B28124  10.759   1.997   8.250
 6444POPC   C3B28125  10.734   1.955   7.950
 6444POPC   C4B28126  10.771   1.945   7.650
 6445POPC   NC328127  22.969  43.129   9.450
 6445POPC   PO428128  22.977  43.151   9.150
 6445POPC   GL128129  22.902  43.092   8.850
 6445POPC   GL228130  22.980  43.251   8.850
 6445POPC   C1A28131  22.890  43.129   8.550
 6445POPC   D2A28132  22.941  43.160   8.250
 6445POPC   C3A28133  22.897  43.069   7.950
 6445POPC   C4A28134  22.943  43.066   7.650
 6445POPC   C1B28135  23.024  43.359   8.550
 6445POPC   C2B28136  23.077  43.324   8.250
 6445POPC   C3B28137  23.027  43.277   7.950
 6445POPC   C4B28138  23.106  43.356   7.650
 6446POPC   NC328139  29.161   4.321   9.450
 6446POPC   PO428140  29.175   4.313   9.150
 6446POPC   GL128141  29.149   4.306   8.850
 6446POPC   GL228142  29.189   4.209   8.850
 6446POPC   C1A28143  29.144   4.333   8.550
 6446POPC   D2A28144  29.139   4.318   8.250
 6446POPC   C3A28145  29.177   4.283   7.950
 6446POPC   C4A28146  29.159   4.355   7.650
 6446POPC   C1B28147  29.179   4.087   8.550
 6446POPC   C2B28148  29.230   4.043   8.250
 6446POPC   C3B28149  29.153   4.027   7.950
 6446POPC   C4B28150  29.217   4.097   7.650
 6447POPC   NC328151  10.530  22.123   9.450
 6447POPC   PO428152  10.483  22.148   9.150
 6447POPC   GL128153  10.480  22.158   8.850
 6447POPC   GL228154  10.575  22.289   8.850
 6447POPC   C1A28155  10.537  22.179   8.550
 6447POPC   D2A28156  10.521  22.153   8.250
 6447POPC   C3A28157  10.550  22.125   7.950
 6447POPC   C4A28158  10.565  22.186   7.650
 6447POPC   C1B28159  10.550  22.394   8.550
 6447POPC   C2B28160  10.616  22.399   8.250
 6447POPC   C3B28161  10.636  22.449   7.950
 6447POPC   C4B28162  10.586  22.369   7.650
 6448POPC   NC328163  29.106  12.088   9.450
 6448POPC   PO428164  29.143  12.064   9.150
 6448POPC   GL128165  29.173  12.045   8.850
 6448POPC   GL228166  29.057  12.158   8.850
 6448POPC   C1A28167  29.151  12.105   8.550
 6448POPC   D2A28168  29.152  12.072   8.250
 6448POPC   C3A28169  29.146  12.095   7.950
 6448POPC   C4A28170  29.184  12.089   7.650
 6448POPC   C1B28171  28.974  12.290   8.550
 6448POPC   C2B28172  28.979  12.214   8.250
 6448POPC   C3B28173  28.991  12.250   7.950
 6448POPC   C4B28174  28.994  12.282   7.650
 6449POPC   NC328175  19.089  43.154   9.450
 6449POPC   PO428176  19.093  43.069   9.150
 6449POPC   GL128177  19.103  43.158   8.850
 6449POPC   GL228178  19.020  42.993   8.850
 6449POPC   C1A28179  19.035  43.065   8.550
 6449POPC   D2A28180  19.085  43.134   8.250
 6449POPC   C3A28181  19.030  43.107   7.950
 6449POPC   C4A28182  19.017  43.122   7.650
 6449POPC   C1B28183  18.870  42.970   8.550
 6449POPC   C2B28184  18.909  42.950   8.250
 6449POPC   C3B28185  18.879  42.964   7.950
 6449POPC   C4B28186  18.903  42.972   7.650
 6450POPC   NC328187  44.636   5.865   9.450
 6450POPC   PO428188  44.672   5.867   9.150
 6450POPC   GL128189  44.688   5.867   8.850
 6450POPC   GL228190  44.716   5.737   8.850
 6450POPC   C1A28191  44.682   5.918   8.550
 6450POPC   D2A28192  44.692   5.820   8.250
 6450POPC   C3A28193  44.683   5.886   7.950
 6450POPC   C4A28194  44.658   5.840   7.650
 6450POPC   C1B28195  44.753   5.587   8.550
 6450POPC   C2B28196  44.736   5.645   8.250
 6450POPC   C3B28197  44.773   5.613   7.950
 6450POPC   C4B28198  44.757   5.651   7.650
 6451POPC   NC328199  29.967  20.585   9.450
 6451POPC   PO428200  29.894  20.634   9.150
 6451POPC   GL128201  29.897  20.612   8.850
 6451POPC   GL228202  30.078  20.579   8.850
 6451POPC   C1A28203  29.872  20.601   8.550
 6451POPC   D2A28204  29.957  20.585   8.250
 6451POPC   C3A28205  29.933  20.568   7.950
 6451POPC   C4A28206  29.922  20.616   7.650
 6451POPC   C1B28207  30.157  20.518   8.550
 6451POPC   C2B28208  30.112  20.523   8.250
 6451POPC   C3B28209  30.174  20.534   7.950
 6451POPC   C4B28210  30.157  20.468   7.650
 6452POPC   NC328211  33.003  30.720   9.450
 6452POPC   PO428212  33.049  30.691   9.150
 6452POPC   GL128213  32.977  30.647   8.850
 6452POPC   GL228214  32.989  30.804   8.850
 6452POPC   C1A28215  33.002  30.681   8.550
 6452POPC   D2A28216  33.047  30.725   8.250
 6452POPC   C3A28217  33.058  30.686   7.950
 6452POPC   C4A28218  32.992  30.714   7.650
 6452POPC   C1B28219  32.963  30.930   8.550
 6452POPC   C2B28220  33.045  30.938   8.250
 6452POPC   C3B28221  32.976  30.944   7.950
 6452POPC   C4B28222  33.041  30.954   7.650
 6453POPC   NC328223  27.617  43.846   9.450
 6453POPC   PO428224  27.547  43.839   9.150
 6453POPC   GL128225  27.636  43.925   8.850
 6453POPC   GL228226  27.746  43.899   8.850
 6453POPC   C1A28227  27.576  43.933   8.550
 6453POPC   D2A28228  27.592  43.930   8.250
 6453POPC   C3A28229  27.632  43.875   7.950
 6453POPC   C4A28230  27.613  43.894   7.650
 6453POPC   C1B28231  27.884  43.861   8.550
 6453POPC   C2B28232  27.819  43.816   8.250
 6453POPC   C3B28233  27.810  43.844   7.950
 6453POPC   C4B28234  27.804  43.865   7.650
 6454POPC   NC328235  41.538  11.321   9.450
 6454POPC   PO428236  41.563  11.338   9.150
 6454POPC   GL128237  41.537  11.347   8.850
 6454POPC   GL228238  41.619  11.200   8.850
 6454POPC   C1A28239  41.603  11.334   8.550
 6454POPC   D2A28240  41.541  11.297   8.250
 6454POPC   C3A28241  41.560  11.271   7.950
 6454POPC   C4A28242  41.518  11.285   7.650
 6454POPC   C1B28243  41.672  11.094   8.550
 6454POPC   C2B28244  41.685  11.071   8.250
 6454POPC   C3B28245  41.680  11.072   7.950
 6454POPC   C4B28246  41.702  11.058   7.650
 6455POPC   NC328247  35.302   3.502   9.450
 6455POPC   PO428248  35.343   3.581   9.150
 6455POPC   GL128249  35.351   3.501   8.850
 6455POPC   GL228250  35.438   3.482   8.850
 6455POPC   C1A28251  35.356   3.510   8.550
 6455POPC   D2A28252  35.381   3.573   8.250
 6455POPC   C3A28253  35.309   3.533   7.950
 6455POPC   C4A28254  35.353   3.551   7.650
 6455POPC   C1B28255  35.514   3.338   8.550
 6455POPC   C2B28256  35.470   3.361   8.250
 6455POPC   C3B28257  35.471   3.386   7.950
 6455POPC   C4B28258  35.496   3.327   7.650
 6456POPC   NC328259   1.195  42.338   9.450
 6456POPC   PO428260   1.200  42.355   9.150
 6456POPC   GL128261   1.234  42.298   8.850
 6456POPC   GL228262   1.139  42.395   8.850
 6456POPC   C1A28263   1.186  42.309   8.550
 6456POPC   D2A28264   1.170  42.287   8.250
 6456POPC   C3A28265   1.262  42.378   7.950
 6456POPC   C4A28266   1.258  42.300   7.650
 6456POPC   C1B28267   0.951  42.498   8.550
 6456POPC   C2B28268   0.947  42.462   8.250
 6456POPC   C3B28269   0.963  42.495   7.950
 6456POPC   C4B28270   1.040  42.469   7.650
 6457POPC   NC328271  22.904  15.138   9.450
 6457POPC   PO428272  22.933  15.157   9.150
 6457POPC   GL128273  22.945  15.196   8.850
 6457POPC   GL228274  22.986  15.115   8.850
 6457POPC   C1A28275  22.951  15.210   8.550
 6457POPC   D2A28276  22.888  15.156   8.250
 6457POPC   C3A28277  22.917  15.150   7.950
 6457POPC   C4A28278  22.952  15.195   7.650
 6457POPC   C1B28279  23.054  14.935   8.550
 6457POPC   C2B28280  23.040  14.926   8.250
 6457POPC   C3B28281  23.014  15.000   7.950
 6457POPC   C4B28282  23.010  14.968   7.650
 6458POPC   NC328283   5.839  34.560   9.450
 6458POPC   PO428284   5.869  34.530   9.150
 6458POPC   GL128285   5.863  34.598   8.850
 6458POPC   GL228286   5.896  34.434   8.850
 6458POPC   C1A28287   5.912  34.540   8.550
 6458POPC   D2A28288   5.909  34.557   8.250
 6458POPC   C3A28289   5.863  34.567   7.950
 6458POPC   C4A28290   5.844  34.604   7.650
 6458POPC   C1B28291   5.902  34.372   8.550
 6458POPC   C2B28292   5.979  34.285   8.250
 6458POPC   C3B28293   5.884  34.322   7.950
 6458POPC   C4B28294   5.886  34.368   7.650
 6459POPC   NC328295   1.232   0.486   9.450
 6459POPC   PO428296   1.165   0.457   9.150
 6459POPC   GL128297   1.244   0.394   8.850
 6459POPC   GL228298   1.269   0.364   8.850
 6459POPC   C1A28299   1.239   0.429   8.550
 6459POPC   D2A28300   1.253   0.395   8.250
 6459POPC   C3A28301   1.221   0.390   7.950
 6459POPC   C4A28302   1.260   0.389   7.650
 6459POPC   C1B28303   1.311   0.150   8.550
 6459POPC   C2B28304   1.275   0.152   8.250
 6459POPC   C3B28305   1.245   0.191   7.950
 6459POPC   C4B28306   1.283   0.179   7.650
 6460POPC   NC328307   1.164  32.210   9.450
 6460POPC   PO428308   1.245  32.287   9.150
 6460POPC   GL128309   1.165  32.266   8.850
 6460POPC   GL228310   1.335  32.161   8.850
 6460POPC   C1A28311   1.241  32.272   8.550
 6460POPC   D2A28312   1.235  32.223   8.250
 6460POPC   C3A28313   1.197  32.200   7.950
 6460POPC   C4A28314   1.234  32.297   7.650
 6460POPC   C1B28315   1.425  32.068   8.550
 6460POPC   C2B28316   1.395  32.134   8.250
 6460POPC   C3B28317   1.413  32.083   7.950
 6460POPC   C4B28318   1.455  32.144   7.650
 6461POPC   NC328319   8.237  36.096   9.450
 6461POPC   PO428320   8.150  36.126   9.150
 6461POPC   GL128321   8.210  36.146   8.850
 6461POPC   GL228322   8.026  36.155   8.850
 6461POPC   C1A28323   8.237  36.160   8.550
 6461POPC   D2A28324   8.212  36.163   8.250
 6461POPC   C3A28325   8.220  36.094   7.950
 6461POPC   C4A28326   8.165  36.163   7.650
 6461POPC   C1B28327   7.911  36.200   8.550
 6461POPC   C2B28328   7.929  36.186   8.250
 6461POPC   C3B28329   7.941  36.213   7.950
 6461POPC   C4B28330   7.959  36.163   7.650
 6462POPC   NC328331   5.849  32.282   9.450
 6462POPC   PO428332   5.842  32.233   9.150
 6462POPC   GL128333   5.918  32.296   8.850
 6462POPC   GL228334   5.923  32.163   8.850
 6462POPC   C1A28335   5.885  32.252   8.550
 6462POPC   D2A28336   5.844  32.259   8.250
 6462POPC   C3A28337   5.895  32.231   7.950
 6462POPC   C4A28338   5.915  32.238   7.650
 6462POPC   C1B28339   5.937  31.963   8.550
 6462POPC   C2B28340   5.920  32.019   8.250
 6462POPC   C3B28341   5.897  32.018   7.950
 6462POPC   C4B28342   5.962  32.000   7.650
 6463POPC   NC328343  29.937  25.995   9.450
 6463POPC   PO428344  29.920  26.008   9.150
 6463POPC   GL128345  29.956  26.070   8.850
 6463POPC   GL228346  29.857  26.099   8.850
 6463POPC   C1A28347  29.922  26.036   8.550
 6463POPC   D2A28348  29.924  26.046   8.250
 6463POPC   C3A28349  29.885  26.039   7.950
 6463POPC   C4A28350  29.946  25.995   7.650
 6463POPC   C1B28351  29.757  26.202   8.550
 6463POPC   C2B28352  29.780  26.267   8.250
 6463POPC   C3B28353  29.766  26.231   7.950
 6463POPC   C4B28354  29.715  26.231   7.650
 6464POPC   NC328355   8.985  44.641   9.450
 6464POPC   PO428356   8.995  44.658   9.150
 6464POPC   GL128357   8.960  44.629   8.850
 6464POPC   GL228358   8.971  44.586   8.850
 6464POPC   C1A28359   8.930  44.673   8.550
 6464POPC   D2A28360   8.992  44.674   8.250
 6464POPC   C3A28361   9.021  44.618   7.950
 6464POPC   C4A28362   8.925  44.635   7.650
 6464POPC   C1B28363   8.889  44.474   8.550
 6464POPC   C2B28364   8.862  44.480   8.250
 6464POPC   C3B28365   8.875  44.426   7.950
 6464POPC   C4B28366   8.915  44.405   7.650
 6465POPC   NC328367  11.307  19.867   9.450
 6465POPC   PO428368  11.271  19.795   9.150
 6465POPC   GL128369  11.270  19.868   8.850
 6465POPC   GL228370  11.220  19.901   8.850
 6465POPC   C1A28371  11.327  19.818   8.550
 6465POPC   D2A28372  11.330  19.875   8.250
 6465POPC   C3A28373  11.336  19.814   7.950
 6465POPC   C4A28374  11.305  19.849   7.650
 6465POPC   C1B28375  11.096  20.002   8.550
 6465POPC   C2B28376  11.115  20.000   8.250
 6465POPC   C3B28377  11.087  20.046   7.950
 6465POPC   C4B28378  11.162  20.067   7.650
 6466POPC   NC328379   2.010  28.338   9.450
 6466POPC   PO428380   2.020  28.340   9.150
 6466POPC   GL128381   1.959  28.381   8.850
 6466POPC   GL228382   2.132  28.287   8.850
 6466POPC   C1A28383   1.941  28.406   8.550
 6466POPC   D2A28384   2.027  28.392   8.250
 6466POPC   C3A28385   1.981  28.393   7.950
 6466POPC   C4A28386   1.950  28.341   7.650
 6466POPC   C1B28387   2.248  28.321   8.550
 6466POPC   C2B28388   2.257  28.259   8.250
 6466POPC   C3B28389   2.274  28.284   7.950
 6466POPC   C4B28390   2.185  28.268   7.650
 6467POPC   NC328391  14.437  44.688   9.450
 6467POPC   PO428392  14.370  44.670   9.150
 6467POPC   GL128393  14.359  44.622   8.850
 6467POPC   GL228394  14.302  44.707   8.850
 6467POPC   C1A28395  14.410  44.702   8.550
 6467POPC   D2A28396  14.365  44.668   8.250
 6467POPC   C3A28397  14.453  44.643   7.950
 6467POPC   C4A28398  14.423  44.699   7.650
 6467POPC   C1B28399  14.126  44.683   8.550
 6467POPC   C2B28400  14.148  44.738   8.250
 6467POPC   C3B28401  14.188  44.693   7.950
 6467POPC   C4B28402  14.109  44.663   7.650
 6468POPC   NC328403   1.224   5.044   9.450
 6468POPC   PO428404   1.192   5.075   9.150
 6468POPC   GL128405   1.171   5.115   8.850
 6468POPC   GL228406   1.386   5.120   8.850
 6468POPC   C1A28407   1.171   5.067   8.550
 6468POPC   D2A28408   1.227   5.057   8.250
 6468POPC   C3A28409   1.262   5.065   7.950
 6468POPC   C4A28410   1.233   5.067   7.650
 6468POPC   C1B28411   1.454   5.104   8.550
 6468POPC   C2B28412   1.508   5.036   8.250
 6468POPC   C3B28413   1.509   5.113   7.950
 6468POPC   C4B28414   1.480   5.117   7.650
 6469POPC   NC328415  40.766   7.408   9.450
 6469POPC   PO428416  40.805   7.399   9.150
 6469POPC   GL128417  40.823   7.458   8.850
 6469POPC   GL228418  40.728   7.542   8.850
 6469POPC   C1A28419  40.800   7.397   8.550
 6469POPC   D2A28420  40.830   7.446   8.250
 6469POPC   C3A28421  40.754   7.447   7.950
 6469POPC   C4A28422  40.742   7.430   7.650
 6469POPC   C1B28423  40.721   7.656   8.550
 6469POPC   C2B28424  40.740   7.625   8.250
 6469POPC   C3B28425  40.702   7.644   7.950
 6469POPC   C4B28426  40.753   7.630   7.650
 6470POPC   NC328427   8.942   5.097   9.450
 6470POPC   PO428428   8.934   5.133   9.150
 6470POPC   GL128429   8.945   5.077   8.850
 6470POPC   GL228430   8.992   5.005   8.850
 6470POPC   C1A28431   8.998   5.098   8.550
 6470POPC   D2A28432   8.992   5.119   8.250
 6470POPC   C3A28433   8.948   5.117   7.950
 6470POPC   C4A28434   9.006   5.097   7.650
 6470POPC   C1B28435   9.089   4.862   8.550
 6470POPC   C2B28436   9.126   4.884   8.250
 6470POPC   C3B28437   9.087   4.821   7.950
 6470POPC   C4B28438   9.129   4.835   7.650
 6471POPC   NC328439   2.716   6.664   9.450
 6471POPC   PO428440   2.754   6.634   9.150
 6471POPC   GL128441   2.739   6.624   8.850
 6471POPC   GL228442   2.818   6.557   8.850
 6471POPC   C1A28443   2.782   6.693   8.550
 6471POPC   D2A28444   2.732   6.658   8.250
 6471POPC   C3A28445   2.781   6.615   7.950
 6471POPC   C4A28446   2.764   6.675   7.650
 6471POPC   C1B28447   2.923   6.477   8.550
 6471POPC   C2B28448   2.861   6.451   8.250
 6471POPC   C3B28449   2.897   6.472   7.950
 6471POPC   C4B28450   2.865   6.442   7.650
 6472POPC   NC328451  43.932  26.778   9.450
 6472POPC   PO428452  43.896  26.863   9.150
 6472POPC   GL128453  43.880  26.795   8.850
 6472POPC   GL228454  43.939  26.695   8.850
 6472POPC   C1A28455  43.909  26.824   8.550
 6472POPC   D2A28456  43.854  26.820   8.250
 6472POPC   C3A28457  43.840  26.802   7.950
 6472POPC   C4A28458  43.881  26.819   7.650
 6472POPC   C1B28459  43.966  26.593   8.550
 6472POPC   C2B28460  43.955  26.569   8.250
 6472POPC   C3B28461  43.882  26.592   7.950
 6472POPC   C4B28462  43.876  26.530   7.650
 6473POPC   NC328463  16.765  27.611   9.450
 6473POPC   PO428464  16.746  27.622   9.150
 6473POPC   GL128465  16.682  27.632   8.850
 6473POPC   GL228466  16.568  27.561   8.850
 6473POPC   C1A28467  16.752  27.585   8.550
 6473POPC   D2A28468  16.766  27.564   8.250
 6473POPC   C3A28469  16.736  27.595   7.950
 6473POPC   C4A28470  16.684  27.591   7.650
 6473POPC   C1B28471  16.455  27.554   8.550
 6473POPC   C2B28472  16.476  27.541   8.250
 6473POPC   C3B28473  16.472  27.563   7.950
 6473POPC   C4B28474  16.534  27.502   7.650
 6474POPC   NC328475   1.977   0.409   9.450
 6474POPC   PO428476   2.009   0.469   9.150
 6474POPC   GL128477   1.956   0.430   8.850
 6474POPC   GL228478   2.022   0.562   8.850
 6474POPC   C1A28479   1.940   0.459   8.550
 6474POPC   D2A28480   2.023   0.437   8.250
 6474POPC   C3A28481   2.009   0.483   7.950
 6474POPC   C4A28482   1.989   0.410   7.650
 6474POPC   C1B28483   2.151   0.676   8.550
 6474POPC   C2B28484   2.122   0.622   8.250
 6474POPC   C3B28485   2.187   0.645   7.950
 6474POPC   C4B28486   2.163   0.597   7.650
 6475POPC   NC328487  42.331   0.393   9.450
 6475POPC   PO428488  42.294   0.428   9.150
 6475POPC   GL128489  42.352   0.467   8.850
 6475POPC   GL228490  42.405   0.377   8.850
 6475POPC   C1A28491  42.378   0.418   8.550
 6475POPC   D2A28492  42.329   0.424   8.250
 6475POPC   C3A28493  42.328   0.417   7.950
 6475POPC   C4A28494  42.325   0.391   7.650
 6475POPC   C1B28495  42.505   0.265   8.550
 6475POPC   C2B28496  42.465   0.291   8.250
 6475POPC   C3B28497  42.516   0.235   7.950
 6475POPC   C4B28498  42.475   0.259   7.650
 6476POPC   NC328499  15.989   1.262   9.450
 6476POPC   PO428500  15.992   1.240   9.150
 6476POPC   GL128501  15.967   1.206   8.850
 6476POPC   GL228502  16.058   1.170   8.850
 6476POPC   C1A28503  15.928   1.230   8.550
 6476POPC   D2A28504  15.949   1.263   8.250
 6476POPC   C3A28505  15.970   1.196   7.950
 6476POPC   C4A28506  15.962   1.224   7.650
 6476POPC   C1B28507  16.224   1.165   8.550
 6476POPC   C2B28508  16.235   1.229   8.250
 6476POPC   C3B28509  16.161   1.189   7.950
 6476POPC   C4B28510  16.180   1.162   7.650
 6477POPC   NC328511  43.155   9.730   9.450
 6477POPC   PO428512  43.123   9.766   9.150
 6477POPC   GL128513  43.156   9.765   8.850
 6477POPC   GL228514  43.137   9.618   8.850
 6477POPC   C1A28515  43.063   9.786   8.550
 6477POPC   D2A28516  43.152   9.792   8.250
 6477POPC   C3A28517  43.107   9.779   7.950
 6477POPC   C4A28518  43.157   9.718   7.650
 6477POPC   C1B28519  43.207   9.484   8.550
 6477POPC   C2B28520  43.207   9.538   8.250
 6477POPC   C3B28521  43.221   9.506   7.950
 6477POPC   C4B28522  43.251   9.477   7.650
 6478POPC   NC328523  17.483  42.324   9.450
 6478POPC   PO428524  17.510  42.294   9.150
 6478POPC   GL128525  17.487  42.316   8.850
 6478POPC   GL228526  17.553  42.226   8.850
 6478POPC   C1A28527  17.526  42.376   8.550
 6478POPC   D2A28528  17.517  42.359   8.250
 6478POPC   C3A28529  17.505  42.376   7.950
 6478POPC   C4A28530  17.500  42.355   7.650
 6478POPC   C1B28531  17.550  42.141   8.550
 6478POPC   C2B28532  17.581  42.151   8.250
 6478POPC   C3B28533  17.557  42.122   7.950
 6478POPC   C4B28534  17.582  42.137   7.650
 6479POPC   NC328535  16.734  40.799   9.450
 6479POPC   PO428536  16.739  40.831   9.150
 6479POPC   GL128537  16.714  40.821   8.850
 6479POPC   GL228538  16.685  40.931   8.850
 6479POPC   C1A28539  16.700  40.798   8.550
 6479POPC   D2A28540  16.724  40.747   8.250
 6479POPC   C3A28541  16.686  40.759   7.950
 6479POPC   C4A28542  16.714  40.766   7.650
 6479POPC   C1B28543  16.666  40.985   8.550
 6479POPC   C2B28544  16.736  41.029   8.250
 6479POPC   C3B28545  16.678  41.051   7.950
 6479POPC   C4B28546  16.688  40.983   7.650
 6480POPC   NC328547  13.627  13.607   9.450
 6480POPC   PO428548  13.673  13.626   9.150
 6480POPC   GL128549  13.641  13.665   8.850
 6480POPC   GL228550  13.486  13.649   8.850
 6480POPC   C1A28551  13.604  13.637   8.550
 6480POPC   D2A28552  13.626  13.631   8.250
 6480POPC   C3A28553  13.672  13.612   7.950
 6480POPC   C4A28554  13.614  13.600   7.650
 6480POPC   C1B28555  13.373  13.606   8.550
 6480POPC   C2B28556  13.341  13.540   8.250
 6480POPC   C3B28557  13.409  13.533   7.950
 6480POPC   C4B28558  13.350  13.574   7.650
 6481POPC   NC328559  38.498  25.998   9.450
 6481POPC   PO428560  38.445  26.004   9.150
 6481POPC   GL128561  38.466  26.048   8.850
 6481POPC   GL228562  38.292  26.015   8.850
 6481POPC   C1A28563  38.470  26.083   8.550
 6481POPC   D2A28564  38.496  26.037   8.250
 6481POPC   C3A28565  38.482  25.994   7.950
 6481POPC   C4A28566  38.500  26.037   7.650
 6481POPC   C1B28567  38.228  26.096   8.550
 6481POPC   C2B28568  38.239  26.053   8.250
 6481POPC   C3B28569  38.182  26.043   7.950
 6481POPC   C4B28570  38.249  26.042   7.650
 6482POPC   NC328571  43.920  36.860   9.450
 6482POPC   PO428572  43.935  36.882   9.150
 6482POPC   GL128573  43.887  36.856   8.850
 6482POPC   GL228574  43.764  37.019   8.850
 6482POPC   C1A28575  43.916  36.950   8.550
 6482POPC   D2A28576  43.851  36.892   8.250
 6482POPC   C3A28577  43.883  36.924   7.950
 6482POPC   C4A28578  43.884  36.878   7.650
 6482POPC   C1B28579  43.771  37.151   8.550
 6482POPC   C2B28580  43.752  37.076   8.250
 6482POPC   C3B28581  43.710  37.093   7.950
 6482POPC   C4B28582  43.762  37.136   7.650
 6483POPC   NC328583  41.560   5.862   9.450
 6483POPC   PO428584  41.559   5.880   9.150
 6483POPC   GL128585  41.573   5.904   8.850
 6483POPC   GL228586  41.654   5.840   8.850
 6483POPC   C1A28587  41.512   5.869   8.550
 6483POPC   D2A28588  41.541   5.833   8.250
 6483POPC   C3A28589  41.559   5.851   7.950
 6483POPC   C4A28590  41.546   5.849   7.650
 6483POPC   C1B28591  41.811   5.897   8.550
 6483POPC   C2B28592  41.822   5.915   8.250
 6483POPC   C3B28593  41.767   5.838   7.950
 6483POPC   C4B28594  41.848   5.916   7.650
 6484POPC   NC328595  29.942  27.588   9.450
 6484POPC   PO428596  29.877  27.614   9.150
 6484POPC   GL128597  29.920  27.566   8.850
 6484POPC   GL228598  29.882  27.700   8.850
 6484POPC   C1A28599  29.938  27.636   8.550
 6484POPC   D2A28600  29.966  27.633   8.250
 6484POPC   C3A28601  29.877  27.546   7.950
 6484POPC   C4A28602  29.875  27.603   7.650
 6484POPC   C1B28603  29.785  27.820   8.550
 6484POPC   C2B28604  29.755  27.737   8.250
 6484POPC   C3B28605  29.781  27.782   7.950
 6484POPC   C4B28606  29.786  27.754   7.650
 6485POPC   NC328607  39.226  17.495   9.450
 6485POPC   PO428608  39.234  17.482   9.150
 6485POPC   GL128609  39.190  17.498   8.850
 6485POPC   GL228610  39.243  17.374   8.850
 6485POPC   C1A28611  39.187  17.484   8.550
 6485POPC   D2A28612  39.210  17.473   8.250
 6485POPC   C3A28613  39.204  17.553   7.950
 6485POPC   C4A28614  39.277  17.462   7.650
 6485POPC   C1B28615  39.153  17.267   8.550
 6485POPC   C2B28616  39.149  17.267   8.250
 6485POPC   C3B28617  39.202  17.228   7.950
 6485POPC   C4B28618  39.120  17.295   7.650
 6486POPC   NC328619  28.335   3.571   9.450
 6486POPC   PO428620  28.343   3.519   9.150
 6486POPC   GL128621  28.349   3.578   8.850
 6486POPC   GL228622  28.229   3.544   8.850
 6486POPC   C1A28623  28.354   3.493   8.550
 6486POPC   D2A28624  28.412   3.558   8.250
 6486POPC   C3A28625  28.366   3.528   7.950
 6486POPC   C4A28626  28.415   3.523   7.650
 6486POPC   C1B28627  28.157   3.566   8.550
 6486POPC   C2B28628  28.171   3.612   8.250
 6486POPC   C3B28629  28.159   3.573   7.950
 6486POPC   C4B28630  28.109   3.630   7.650
 6487POPC   NC328631  13.585  42.369   9.450
 6487POPC   PO428632  13.605  42.368   9.150
 6487POPC   GL128633  13.648  42.365   8.850
 6487POPC   GL228634  13.503  42.364   8.850
 6487POPC   C1A28635  13.645  42.297   8.550
 6487POPC   D2A28636  13.627  42.295   8.250
 6487POPC   C3A28637  13.668  42.328   7.950
 6487POPC   C4A28638  13.619  42.380   7.650
 6487POPC   C1B28639  13.338  42.392   8.550
 6487POPC   C2B28640  13.402  42.374   8.250
 6487POPC   C3B28641  13.409  42.336   7.950
 6487POPC   C4B28642  13.339  42.370   7.650
 6488POPC   NC328643  43.127  11.296   9.450
 6488POPC   PO428644  43.067  11.332   9.150
 6488POPC   GL128645  43.096  11.270   8.850
 6488POPC   GL228646  43.063  11.130   8.850
 6488POPC   C1A28647  43.116  11.272   8.550
 6488POPC   D2A28648  43.154  11.337   8.250
 6488POPC   C3A28649  43.123  11.350   7.950
 6488POPC   C4A28650  43.093  11.266   7.650
 6488POPC   C1B28651  43.046  11.023   8.550
 6488POPC   C2B28652  43.055  11.044   8.250
 6488POPC   C3B28653  43.070  11.057   7.950
 6488POPC   C4B28654  43.039  11.016   7.650
 6489POPC   NC328655  16.708  42.361   9.450
 6489POPC   PO428656  16.683  42.299   9.150
 6489POPC   GL128657  16.716  42.291   8.850
 6489POPC   GL228658  16.817  42.429   8.850
 6489POPC   C1A28659  16.706  42.363   8.550
 6489POPC   D2A28660  16.725  42.322   8.250
 6489POPC   C3A28661  16.689  42.332   7.950
 6489POPC   C4A28662  16.696  42.371   7.650
 6489POPC   C1B28663  16.904  42.538   8.550
 6489POPC   C2B28664  16.856  42.548   8.250
 6489POPC   C3B28665  16.845  42.499   7.950
 6489POPC   C4B28666  16.887  42.550   7.650
 6490POPC   NC328667   8.174  34.584   9.450
 6490POPC   PO428668   8.165  34.530   9.150
 6490POPC   GL128669   8.190  34.611   8.850
 6490POPC   GL228670   8.096  34.588   8.850
 6490POPC   C1A28671   8.160  34.543   8.550
 6490POPC   D2A28672   8.159  34.573   8.250
 6490POPC   C3A28673   8.158  34.588   7.950
 6490POPC   C4A28674   8.198  34.551   7.650
 6490POPC   C1B28675   7.970  34.529   8.550
 6490POPC   C2B28676   8.002  34.495   8.250
 6490POPC   C3B28677   7.931  34.503   7.950
 6490POPC   C4B28678   7.977  34.476   7.650
 6491POPC   NC328679  42.294   5.102   9.450
 6491POPC   PO428680  42.319   5.103   9.150
 6491POPC   GL128681  42.314   5.100   8.850
 6491POPC   GL228682  42.179   5.064   8.850
 6491POPC   C1A28683  42.338   5.136   8.550
 6491POPC   D2A28684  42.301   5.120   8.250
 6491POPC   C3A28685  42.337   5.107   7.950
 6491POPC   C4A28686  42.314   5.084   7.650
 6491POPC   C1B28687  42.118   5.109   8.550
 6491POPC   C2B28688  42.052   5.112   8.250
 6491POPC   C3B28689  42.058   5.119   7.950
 6491POPC   C4B28690  42.107   5.104   7.650
 6492POPC   NC328691   5.850  38.484   9.450
 6492POPC   PO428692   5.910  38.448   9.150
 6492POPC   GL128693   5.829  38.476   8.850
 6492POPC   GL228694   5.993  38.413   8.850
 6492POPC   C1A28695   5.903  38.432   8.550
 6492POPC   D2A28696   5.824  38.490   8.250
 6492POPC   C3A28697   5.830  38.433   7.950
 6492POPC   C4A28698   5.855  38.432   7.650
 6492POPC   C1B28699   6.107  38.384   8.550
 6492POPC   C2B28700   6.150  38.429   8.250
 6492POPC   C3B28701   6.148  38.374   7.950
 6492POPC   C4B28702   6.153  38.402   7.650
 6493POPC   NC328703   9.768  41.568   9.450
 6493POPC   PO428704   9.722  41.594   9.150
 6493POPC   GL128705   9.721  41.571   8.850
 6493POPC   GL228706   9.697  41.417   8.850
 6493POPC   C1A28707   9.798  41.555   8.550
 6493POPC   D2A28708   9.711  41.608   8.250
 6493POPC   C3A28709   9.716  41.525   7.950
 6493POPC   C4A28710   9.751  41.531   7.650
 6493POPC   C1B28711   9.696  41.337   8.550
 6493POPC   C2B28712   9.738  41.272   8.250
 6493POPC   C3B28713   9.753  41.336   7.950
 6493POPC   C4B28714   9.669  41.333   7.650
 6494POPC   NC328715   0.450  28.328   9.450
 6494POPC   PO428716   0.389  28.373   9.150
 6494POPC   GL128717   0.424  28.353   8.850
 6494POPC   GL228718   0.435  28.272   8.850
 6494POPC   C1A28719   0.472  28.378   8.550
 6494POPC   D2A28720   0.453  28.398   8.250
 6494POPC   C3A28721   0.464  28.381   7.950
 6494POPC   C4A28722   0.449  28.347   7.650
 6494POPC   C1B28723   0.353  28.101   8.550
 6494POPC   C2B28724   0.325  28.150   8.250
 6494POPC   C3B28725   0.378  28.118   7.950
 6494POPC   C4B28726   0.382  28.102   7.650
 6495POPC   NC328727  21.386  26.050   9.450
 6495POPC   PO428728  21.342  26.049   9.150
 6495POPC   GL128729  21.388  26.030   8.850
 6495POPC   GL228730  21.244  26.043   8.850
 6495POPC   C1A28731  21.407  26.038   8.550
 6495POPC   D2A28732  21.393  25.996   8.250
 6495POPC   C3A28733  21.389  26.049   7.950
 6495POPC   C4A28734  21.339  26.083   7.650
 6495POPC   C1B28735  21.138  26.062   8.550
 6495POPC   C2B28736  21.163  26.036   8.250
 6495POPC   C3B28737  21.179  26.045   7.950
 6495POPC   C4B28738  21.102  26.109   7.650
 6496POPC   NC328739  10.572   7.446   9.450
 6496POPC   PO428740  10.516   7.374   9.150
 6496POPC   GL128741  10.569   7.406   8.850
 6496POPC   GL228742  10.410   7.432   8.850
 6496POPC   C1A28743  10.518   7.460   8.550
 6496POPC   D2A28744  10.484   7.411   8.250
 6496POPC   C3A28745  10.478   7.389   7.950
 6496POPC   C4A28746  10.502   7.431   7.650
 6496POPC   C1B28747  10.307   7.355   8.550
 6496POPC   C2B28748  10.263   7.336   8.250
 6496POPC   C3B28749  10.251   7.345   7.950
 6496POPC   C4B28750  10.283   7.349   7.650
 6497POPC   NC328751  10.570  26.018   9.450
 6497POPC   PO428752  10.497  26.077   9.150
 6497POPC   GL128753  10.507  25.992   8.850
 6497POPC   GL228754  10.587  25.954   8.850
 6497POPC   C1A28755  10.515  25.997   8.550
 6497POPC   D2A28756  10.550  26.083   8.250
 6497POPC   C3A28757  10.538  26.048   7.950
 6497POPC   C4A28758  10.539  26.082   7.650
 6497POPC   C1B28759  10.664  25.904   8.550
 6497POPC   C2B28760  10.669  25.903   8.250
 6497POPC   C3B28761  10.672  25.914   7.950
 6497POPC   C4B28762  10.743  25.840   7.650
 6498POPC   NC328763  15.939  19.070   9.450
 6498POPC   PO428764  15.943  19.013   9.150
 6498POPC   GL128765  15.998  19.017   8.850
 6498POPC   GL228766  16.028  18.965   8.850
 6498POPC   C1A28767  15.977  19.097   8.550
 6498POPC   D2A28768  15.925  19.017   8.250
 6498POPC   C3A28769  15.960  19.049   7.950
 6498POPC   C4A28770  15.981  19.016   7.650
 6498POPC   C1B28771  16.068  18.854   8.550
 6498POPC   C2B28772  16.043  18.849   8.250
 6498POPC   C3B28773  16.105  18.843   7.950
 6498POPC   C4B28774  16.037  18.880   7.650
 6499POPC   NC328775  36.895  22.984   9.450
 6499POPC   PO428776  36.918  22.962   9.150
 6499POPC   GL128777  36.908  22.893   8.850
 6499POPC   GL228778  36.932  23.023   8.850
 6499POPC   C1A28779  36.891  22.900   8.550
 6499POPC   D2A28780  36.885  22.942   8.250
 6499POPC   C3A28781  36.943  22.942   7.950
 6499POPC   C4A28782  36.873  22.958   7.650
 6499POPC   C1B28783  36.954  23.174   8.550
 6499POPC   C2B28784  36.993  23.212   8.250
 6499POPC   C3B28785  37.008  23.213   7.950
 6499POPC   C4B28786  36.953  23.177   7.650
 6500POPC   NC328787  21.424  41.562   9.450
 6500POPC   PO428788  21.348  41.586   9.150
 6500POPC   GL128789  21.342  41.564   8.850
 6500POPC   GL228790  21.498  41.594   8.850
 6500POPC   C1A28791  21.436  41.589   8.550
 6500POPC   D2A28792  21.392  41.572   8.250
 6500POPC   C3A28793  21.359  41.554   7.950
 6500POPC   C4A28794  21.347  41.594   7.650
 6500POPC   C1B28795  21.660  41.531   8.550
 6500POPC   C2B28796  21.656  41.504   8.250
 6500POPC   C3B28797  21.590  41.552   7.950
 6500POPC   C4B28798  21.669  41.512   7.650
 6501POPC   NC328799  12.834   2.750   9.450
 6501POPC   PO428800  12.840   2.721   9.150
 6501POPC   GL128801  12.897   2.800   8.850
 6501POPC   GL228802  12.869   2.698   8.850
 6501POPC   C1A28803  12.837   2.747   8.550
 6501POPC   D2A28804  12.867   2.777   8.250
 6501POPC   C3A28805  12.848   2.796   7.950
 6501POPC   C4A28806  12.898   2.799   7.650
 6501POPC   C1B28807  12.975   2.508   8.550
 6501POPC   C2B28808  12.948   2.579   8.250
 6501POPC   C3B28809  12.971   2.525   7.950
 6501POPC   C4B28810  12.942   2.561   7.650
 6502POPC   NC328811  27.609   5.072   9.450
 6502POPC   PO428812  27.610   5.076   9.150
 6502POPC   GL128813  27.622   5.123   8.850
 6502POPC   GL228814  27.704   5.050   8.850
 6502POPC   C1A28815  27.548   5.138   8.550
 6502POPC   D2A28816  27.553   5.113   8.250
 6502POPC   C3A28817  27.565   5.139   7.950
 6502POPC   C4A28818  27.586   5.091   7.650
 6502POPC   C1B28819  27.781   4.953   8.550
 6502POPC   C2B28820  27.791   4.927   8.250
 6502POPC   C3B28821  27.815   4.869   7.950
 6502POPC   C4B28822  27.766   4.876   7.650
 6503POPC   NC328823   1.207  16.770   9.450
 6503POPC   PO428824   1.167  16.730   9.150
 6503POPC   GL128825   1.242  16.751   8.850
 6503POPC   GL228826   1.318  16.588   8.850
 6503POPC   C1A28827   1.184  16.690   8.550
 6503POPC   D2A28828   1.246  16.729   8.250
 6503POPC   C3A28829   1.216  16.693   7.950
 6503POPC   C4A28830   1.228  16.739   7.650
 6503POPC   C1B28831   1.333  16.498   8.550
 6503POPC   C2B28832   1.322  16.564   8.250
 6503POPC   C3B28833   1.348  16.517   7.950
 6503POPC   C4B28834   1.390  16.554   7.650
 6504POPC   NC328835   3.583  36.930   9.450
 6504POPC   PO428836   3.542  36.868   9.150
 6504POPC   GL128837   3.546  36.892   8.850
 6504POPC   GL228838   3.404  36.873   8.850
 6504POPC   C1A28839   3.548  36.900   8.550
 6504POPC   D2A28840   3.504  36.889   8.250
 6504POPC   C3A28841   3.535  36.867   7.950
 6504POPC   C4A28842   3.591  36.870   7.650
 6504POPC   C1B28843   3.253  36.825   8.550
 6504POPC   C2B28844   3.259  36.793   8.250
 6504POPC   C3B28845   3.299  36.828   7.950
 6504POPC   C4B28846   3.264  36.849   7.650
 6505POPC   NC328847   4.316  29.109   9.450
 6505POPC   PO428848   4.303  29.181   9.150
 6505POPC   GL128849   4.334  29.138   8.850
 6505POPC   GL228850   4.488  29.153   8.850
 6505POPC   C1A28851   4.343  29.113   8.550
 6505POPC   D2A28852   4.352  29.151   8.250
 6505POPC   C3A28853   4.347  29.147   7.950
 6505POPC   C4A28854   4.283  29.117   7.650
 6505POPC   C1B28855   4.568  29.175   8.550
 6505POPC   C2B28856   4.580  29.092   8.250
 6505POPC   C3B28857   4.610  29.155   7.950
 6505POPC   C4B28858   4.524  29.154   7.650
 6506POPC   NC328859  33.786  16.689   9.450
 6506POPC   PO428860  33.775  16.749   9.150
 6506POPC   GL128861  33.771  16.706   8.850
 6506POPC   GL228862  33.718  16.687   8.850
 6506POPC   C1A28863  33.752  16.704   8.550
 6506POPC   D2A28864  33.821  16.755   8.250
 6506POPC   C3A28865  33.821  16.731   7.950
 6506POPC   C4A28866  33.761  16.740   7.650
 6506POPC   C1B28867  33.625  16.640   8.550
 6506POPC   C2B28868  33.548  16.660   8.250
 6506POPC   C3B28869  33.596  16.612   7.950
 6506POPC   C4B28870  33.624  16.628   7.650
 6507POPC   NC328871  39.995  27.603   9.450
 6507POPC   PO428872  40.053  27.547   9.150
 6507POPC   GL128873  39.984  27.591   8.850
 6507POPC   GL228874  40.125  27.597   8.850
 6507POPC   C1A28875  40.011  27.599   8.550
 6507POPC   D2A28876  39.983  27.571   8.250
 6507POPC   C3A28877  39.971  27.586   7.950
 6507POPC   C4A28878  39.983  27.628   7.650
 6507POPC   C1B28879  40.240  27.563   8.550
 6507POPC   C2B28880  40.272  27.646   8.250
 6507POPC   C3B28881  40.287  27.640   7.950
 6507POPC   C4B28882  40.271  27.606   7.650
 6508POPC   NC328883  24.468   0.422   9.450
 6508POPC   PO428884  24.491   0.407   9.150
 6508POPC   GL128885  24.489   0.390   8.850
 6508POPC   GL228886  24.398   0.595   8.850
 6508POPC   C1A28887  24.515   0.457   8.550
 6508POPC   D2A28888  24.510   0.481   8.250
 6508POPC   C3A28889  24.452   0.439   7.950
 6508POPC   C4A28890  24.455   0.480   7.650
 6508POPC   C1B28891  24.446   0.704   8.550
 6508POPC   C2B28892  24.362   0.697   8.250
 6508POPC   C3B28893  24.415   0.706   7.950
 6508POPC   C4B28894  24.416   0.716   7.650
 6509POPC   NC328895  15.176   5.114   9.450
 6509POPC   PO428896  15.147   5.052   9.150
 6509POPC   GL128897  15.211   5.048   8.850
 6509POPC   GL228898  15.096   5.242   8.850
 6509POPC   C1A28899  15.148   5.076   8.550
 6509POPC   D2A28900  15.156   5.067   8.250
 6509POPC   C3A28901  15.137   5.087   7.950
 6509POPC   C4A28902  15.201   5.072   7.650
 6509POPC   C1B28903  15.078   5.354   8.550
 6509POPC   C2B28904  15.090   5.330   8.250
 6509POPC   C3B28905  15.112   5.368   7.950
 6509POPC   C4B28906  15.151   5.299   7.650
 6510POPC   NC328907   5.079  31.473   9.450
 6510POPC   PO428908   5.116  31.475   9.150
 6510POPC   GL128909   5.123  31.491   8.850
 6510POPC   GL228910   5.184  31.386   8.850
 6510POPC   C1A28911   5.074  31.497   8.550
 6510POPC   D2A28912   5.101  31.451   8.250
 6510POPC   C3A28913   5.141  31.478   7.950
 6510POPC   C4A28914   5.123  31.428   7.650
 6510POPC   C1B28915   5.343  31.287   8.550
 6510POPC   C2B28916   5.337  31.385   8.250
 6510POPC   C3B28917   5.313  31.317   7.950
 6510POPC   C4B28918   5.315  31.313   7.650
 6511POPC   NC328919  19.785  35.330   9.450
 6511POPC   PO428920  19.791  35.303   9.150
 6511POPC   GL128921  19.828  35.391   8.850
 6511POPC   GL228922  19.966  35.251   8.850
 6511POPC   C1A28923  19.853  35.313   8.550
 6511POPC   D2A28924  19.823  35.393   8.250
 6511POPC   C3A28925  19.806  35.314   7.950
 6511POPC   C4A28926  19.807  35.366   7.650
 6511POPC   C1B28927  20.060  35.233   8.550
 6511POPC   C2B28928  20.074  35.214   8.250
 6511POPC   C3B28929  20.042  35.262   7.950
 6511POPC   C4B28930  20.012  35.212   7.650
 6512POPC   NC328931   0.406  43.889   9.450
 6512POPC   PO428932   0.471  43.902   9.150
 6512POPC   GL128933   0.419  43.864   8.850
 6512POPC   GL228934   0.308  43.865   8.850
 6512POPC   C1A28935   0.449  43.837   8.550
 6512POPC   D2A28936   0.465  43.877   8.250
 6512POPC   C3A28937   0.402  43.868   7.950
 6512POPC   C4A28938   0.429  43.881   7.650
 6512POPC   C1B28939   0.141  43.843   8.550
 6512POPC   C2B28940   0.230  43.874   8.250
 6512POPC   C3B28941   0.192  43.882   7.950
 6512POPC   C4B28942   0.170  43.823   7.650
 6513POPC   NC328943  40.800   9.011   9.450
 6513POPC   PO428944  40.811   9.011   9.150
 6513POPC   GL128945  40.797   9.012   8.850
 6513POPC   GL228946  40.689   8.960   8.850
 6513POPC   C1A28947  40.826   8.960   8.550
 6513POPC   D2A28948  40.751   8.969   8.250
 6513POPC   C3A28949  40.800   9.020   7.950
 6513POPC   C4A28950  40.757   8.978   7.650
 6513POPC   C1B28951  40.515   9.037   8.550
 6513POPC   C2B28952  40.546   8.964   8.250
 6513POPC   C3B28953  40.511   9.018   7.950
 6513POPC   C4B28954  40.534   8.990   7.650
 6514POPC   NC328955  19.092  41.573   9.450
 6514POPC   PO428956  19.034  41.547   9.150
 6514POPC   GL128957  19.048  41.586   8.850
 6514POPC   GL228958  18.976  41.614   8.850
 6514POPC   C1A28959  19.083  41.557   8.550
 6514POPC   D2A28960  19.016  41.509   8.250
 6514POPC   C3A28961  19.037  41.598   7.950
 6514POPC   C4A28962  19.088  41.565   7.650
 6514POPC   C1B28963  18.901  41.804   8.550
 6514POPC   C2B28964  18.948  41.798   8.250
 6514POPC   C3B28965  18.911  41.749   7.950
 6514POPC   C4B28966  18.895  41.784   7.650
 6515POPC   NC328967  43.132   8.153   9.450
 6515POPC   PO428968  43.074   8.233   9.150
 6515POPC   GL128969  43.159   8.200   8.850
 6515POPC   GL228970  43.023   8.133   8.850
 6515POPC   C1A28971  43.113   8.154   8.550
 6515POPC   D2A28972  43.123   8.182   8.250
 6515POPC   C3A28973  43.071   8.205   7.950
 6515POPC   C4A28974  43.131   8.234   7.650
 6515POPC   C1B28975  42.949   8.075   8.550
 6515POPC   C2B28976  42.942   8.022   8.250
 6515POPC   C3B28977  42.912   8.029   7.950
 6515POPC   C4B28978  42.872   8.019   7.650
 6516POPC   NC328979  19.796   3.508   9.450
 6516POPC   PO428980  19.800   3.562   9.150
 6516POPC   GL128981  19.853   3.525   8.850
 6516POPC   GL228982  19.921   3.573   8.850
 6516POPC   C1A28983  19.851   3.515   8.550
 6516POPC   D2A28984  19.805   3.581   8.250
 6516POPC   C3A28985  19.830   3.508   7.950
 6516POPC   C4A28986  19.806   3.565   7.650
 6516POPC   C1B28987  20.126   3.611   8.550
 6516POPC   C2B28988  20.117   3.581   8.250
 6516POPC   C3B28989  20.031   3.567   7.950
 6516POPC   C4B28990  20.057   3.550   7.650
 6517POPC   NC328991  25.996  42.328   9.450
 6517POPC   PO428992  26.037  42.370   9.150
 6517POPC   GL128993  26.077  42.365   8.850
 6517POPC   GL228994  26.092  42.467   8.850
 6517POPC   C1A28995  26.013  42.354   8.550
 6517POPC   D2A28996  26.014  42.343   8.250
 6517POPC   C3A28997  26.065  42.346   7.950
 6517POPC   C4A28998  26.046  42.339   7.650
 6517POPC   C1B28999  26.216  42.497   8.550
 6517POPC   C2B29000  26.227  42.475   8.250
 6517POPC   C3B29001  26.187  42.500   7.950
 6517POPC   C4B29002  26.176  42.570   7.650
 6518POPC   NC329003   0.414  36.146   9.450
 6518POPC   PO429004   0.450  36.116   9.150
 6518POPC   GL129005   0.483  36.129   8.850
 6518POPC   GL229006   0.552  36.055   8.850
 6518POPC   C1A29007   0.463  36.084   8.550
 6518POPC   D2A29008   0.400  36.097   8.250
 6518POPC   C3A29009   0.436  36.144   7.950
 6518POPC   C4A29010   0.484  36.157   7.650
 6518POPC   C1B29011   0.588  35.955   8.550
 6518POPC   C2B29012   0.651  35.989   8.250
 6518POPC   C3B29013   0.664  35.950   7.950
 6518POPC   C4B29014   0.641  35.971   7.650
 6519POPC   NC329015  11.324  43.910   9.450
 6519POPC   PO429016  11.340  43.882   9.150
 6519POPC   GL129017  11.310  43.867   8.850
 6519POPC   GL229018  11.389  43.855   8.850
 6519POPC   C1A29019  11.350  43.925   8.550
 6519POPC   D2A29020  11.274  43.850   8.250
 6519POPC   C3A29021  11.257  43.885   7.950
 6519POPC   C4A29022  11.267  43.848   7.650
 6519POPC   C1B29023  11.532  43.755   8.550
 6519POPC   C2B29024  11.509  43.727   8.250
 6519POPC   C3B29025  11.542  43.803   7.950
 6519POPC   C4B29026  11.548  43.784   7.650
 6520POPC   NC329027  39.268  13.645   9.450
 6520POPC   PO429028  39.281  13.592   9.150
 6520POPC   GL129029  39.239  13.667   8.850
 6520POPC   GL229030  39.135  13.688   8.850
 6520POPC   C1A29031  39.274  13.615   8.550
 6520POPC   D2A29032  39.265  13.601   8.250
 6520POPC   C3A29033  39.235  13.588   7.950
 6520POPC   C4A29034  39.215  13.596   7.650
 6520POPC   C1B29035  39.029  13.845   8.550
 6520POPC   C2B29036  39.053  13.843   8.250
 6520POPC   C3B29037  39.107  13.805   7.950
 6520POPC   C4B29038  39.104  13.766   7.650
 6521POPC   NC329039   2.795  17.555   9.450
 6521POPC   PO429040   2.730  17.485   9.150
 6521POPC   GL129041   2.729  17.508   8.850
 6521POPC   GL229042   2.847  17.582   8.850
 6521POPC   C1A29043   2.811  17.471   8.550
 6521POPC   D2A29044   2.724  17.465   8.250
 6521POPC   C3A29045   2.751  17.541   7.950
 6521POPC   C4A29046   2.749  17.467   7.650
 6521POPC   C1B29047   2.960  17.584   8.550
 6521POPC   C2B29048   2.986  17.636   8.250
 6521POPC   C3B29049   2.960  17.579   7.950
 6521POPC   C4B29050   3.035  17.625   7.650
 6522POPC   NC329051  43.853  20.565   9.450
 6522POPC   PO429052  43.902  20.617   9.150
 6522POPC   GL129053  43.924  20.606   8.850
 6522POPC   GL229054  43.829  20.449   8.850
 6522POPC   C1A29055  43.890  20.574   8.550
 6522POPC   D2A29056  43.881  20.619   8.250
 6522POPC   C3A29057  43.881  20.619   7.950
 6522POPC   C4A29058  43.927  20.635   7.650
 6522POPC   C1B29059  43.787  20.331   8.550
 6522POPC   C2B29060  43.844  20.337   8.250
 6522POPC   C3B29061  43.792  20.394   7.950
 6522POPC   C4B29062  43.831  20.414   7.650
 6523POPC   NC329063  20.579  18.300   9.450
 6523POPC   PO429064  20.621  18.237   9.150
 6523POPC   GL129065  20.593  18.262   8.850
 6523POPC   GL229066  20.663  18.396   8.850
 6523POPC   C1A29067  20.612  18.317   8.550
 6523POPC   D2A29068  20.618  18.304   8.250
 6523POPC   C3A29069  20.597  18.238   7.950
 6523POPC   C4A29070  20.651  18.255   7.650
 6523POPC   C1B29071  20.663  18.530   8.550
 6523POPC   C2B29072  20.595  18.565   8.250
 6523POPC   C3B29073  20.578  18.561   7.950
 6523POPC   C4B29074  20.619  18.538   7.650
 6524POPC   NC329075  29.132   5.056   9.450
 6524POPC   PO429076  29.103   5.133   9.150
 6524POPC   GL129077  29.167   5.046   8.850
 6524POPC   GL229078  29.095   4.965   8.850
 6524POPC   C1A29079  29.109   5.102   8.550
 6524POPC   D2A29080  29.116   5.118   8.250
 6524POPC   C3A29081  29.192   5.070   7.950
 6524POPC   C4A29082  29.125   5.068   7.650
 6524POPC   C1B29083  29.103   4.819   8.550
 6524POPC   C2B29084  29.159   4.829   8.250
 6524POPC   C3B29085  29.166   4.891   7.950
 6524POPC   C4B29086  29.142   4.855   7.650
 6525POPC   NC329087  43.838  42.328   9.450
 6525POPC   PO429088  43.918  42.353   9.150
 6525POPC   GL129089  43.920  42.288   8.850
 6525POPC   GL229090  44.045  42.328   8.850
 6525POPC   C1A29091  43.926  42.337   8.550
 6525POPC   D2A29092  43.915  42.305   8.250
 6525POPC   C3A29093  43.865  42.299   7.950
 6525POPC   C4A29094  43.904  42.378   7.650
 6525POPC   C1B29095  44.085  42.328   8.550
 6525POPC   C2B29096  44.183  42.357   8.250
 6525POPC   C3B29097  44.124  42.332   7.950
 6525POPC   C4B29098  44.129  42.343   7.650
 6526POPC   NC329099   2.735  32.293   9.450
 6526POPC   PO429100   2.759  32.222   9.150
 6526POPC   GL129101   2.750  32.202   8.850
 6526POPC   GL229102   2.915  32.257   8.850
 6526POPC   C1A29103   2.753  32.202   8.550
 6526POPC   D2A29104   2.795  32.218   8.250
 6526POPC   C3A29105   2.804  32.279   7.950
 6526POPC   C4A29106   2.807  32.266   7.650
 6526POPC   C1B29107   2.994  32.163   8.550
 6526POPC   C2B29108   3.001  32.208   8.250
 6526POPC   C3B29109   3.056  32.221   7.950
 6526POPC   C4B29110   3.017  32.157   7.650
 6527POPC   NC329111  31.467  22.200   9.450
 6527POPC   PO429112  31.480  22.122   9.150
 6527POPC   GL129113  31.467  22.171   8.850
 6527POPC   GL229114  31.390  22.045   8.850
 6527POPC   C1A29115  31.487  22.203   8.550
 6527POPC   D2A29116  31.485  22.203   8.250
 6527POPC   C3A29117  31.520  22.181   7.950
 6527POPC   C4A29118  31.509  22.138   7.650
 6527POPC   C1B29119  31.409  21.926   8.550
 6527POPC   C2B29120  31.398  21.887   8.250
 6527POPC   C3B29121  31.421  21.921   7.950
 6527POPC   C4B29122  31.412  21.971   7.650
 6528POPC   NC329123  30.693  17.524   9.450
 6528POPC   PO429124  30.735  17.550   9.150
 6528POPC   GL129125  30.741  17.520   8.850
 6528POPC   GL229126  30.645  17.440   8.850
 6528POPC   C1A29127  30.738  17.471   8.550
 6528POPC   D2A29128  30.648  17.458   8.250
 6528POPC   C3A29129  30.682  17.530   7.950
 6528POPC   C4A29130  30.705  17.482   7.650
 6528POPC   C1B29131  30.532  17.318   8.550
 6528POPC   C2B29132  30.517  17.330   8.250
 6528POPC   C3B29133  30.500  17.372   7.950
 6528POPC   C4B29134  30.552  17.344   7.650
 6529POPC   NC329135  38.452  22.117   9.450
 6529POPC   PO429136  38.420  22.190   9.150
 6529POPC   GL129137  38.456  22.146   8.850
 6529POPC   GL229138  38.518  22.228   8.850
 6529POPC   C1A29139  38.415  22.187   8.550
 6529POPC   D2A29140  38.452  22.138   8.250
 6529POPC   C3A29141  38.464  22.131   7.950
 6529POPC   C4A29142  38.469  22.115   7.650
 6529POPC   C1B29143  38.684  22.292   8.550
 6529POPC   C2B29144  38.697  22.297   8.250
 6529POPC   C3B29145  38.649  22.308   7.950
 6529POPC   C4B29146  38.699  22.263   7.650
 6530POPC   NC329147  24.495   1.248   9.450
 6530POPC   PO429148  24.517   1.213   9.150
 6530POPC   GL129149  24.509   1.224   8.850
 6530POPC   GL229150  24.639   1.125   8.850
 6530POPC   C1A29151  24.468   1.179   8.550
 6530POPC   D2A29152  24.493   1.234   8.250
 6530POPC   C3A29153  24.453   1.225   7.950
 6530POPC   C4A29154  24.456   1.191   7.650
 6530POPC   C1B29155  24.673   1.095   8.550
 6530POPC   C2B29156  24.717   1.111   8.250
 6530POPC   C3B29157  24.651   1.060   7.950
 6530POPC   C4B29158  24.661   1.016   7.650
 6531POPC   NC329159   1.978  39.265   9.450
 6531POPC   PO429160   1.966  39.250   9.150
 6531POPC   GL129161   1.953  39.254   8.850
 6531POPC   GL229162   1.930  39.167   8.850
 6531POPC   C1A29163   1.995  39.197   8.550
 6531POPC   D2A29164   1.968  39.281   8.250
 6531POPC   C3A29165   2.027  39.213   7.950
 6531POPC   C4A29166   1.983  39.216   7.650
 6531POPC   C1B29167   1.815  39.128   8.550
 6531POPC   C2B29168   1.805  39.053   8.250
 6531POPC   C3B29169   1.791  39.089   7.950
 6531POPC   C4B29170   1.739  39.075   7.650
 6532POPC   NC329171   4.289  18.265   9.450
 6532POPC   PO429172   4.303  18.323   9.150
 6532POPC   GL129173   4.299  18.265   8.850
 6532POPC   GL229174   4.350  18.367   8.850
 6532POPC   C1A29175   4.351  18.323   8.550
 6532POPC   D2A29176   4.355  18.288   8.250
 6532POPC   C3A29177   4.270  18.250   7.950
 6532POPC   C4A29178   4.355  18.248   7.650
 6532POPC   C1B29179   4.405  18.548   8.550
 6532POPC   C2B29180   4.413  18.535   8.250
 6532POPC   C3B29181   4.419  18.568   7.950
 6532POPC   C4B29182   4.393  18.492   7.650
 6533POPC   NC329183  24.525  17.549   9.450
 6533POPC   PO429184  24.448  17.524   9.150
 6533POPC   GL129185  24.483  17.506   8.850
 6533POPC   GL229186  24.360  17.439   8.850
 6533POPC   C1A29187  24.492  17.518   8.550
 6533POPC   D2A29188  24.515  17.484   8.250
 6533POPC   C3A29189  24.457  17.507   7.950
 6533POPC   C4A29190  24.477  17.483   7.650
 6533POPC   C1B29191  24.269  17.487   8.550
 6533POPC   C2B29192  24.261  17.457   8.250
 6533POPC   C3B29193  24.248  17.473   7.950
 6533POPC   C4B29194  24.219  17.400   7.650
 6534POPC   NC329195  16.761   3.511   9.450
 6534POPC   PO429196  16.735   3.537   9.150
 6534POPC   GL129197  16.746   3.539   8.850
 6534POPC   GL229198  16.755   3.694   8.850
 6534POPC   C1A29199  16.703   3.521   8.550
 6534POPC   D2A29200  16.749   3.502   8.250
 6534POPC   C3A29201  16.714   3.551   7.950
 6534POPC   C4A29202  16.775   3.513   7.650
 6534POPC   C1B29203  16.738   3.790   8.550
 6534POPC   C2B29204  16.756   3.780   8.250
 6534POPC   C3B29205  16.751   3.807   7.950
 6534POPC   C4B29206  16.703   3.818   7.650
 6535POPC   NC329207  20.639  11.265   9.450
 6535POPC   PO429208  20.592  11.283   9.150
 6535POPC   GL129209  20.588  11.314   8.850
 6535POPC   GL229210  20.572  11.213   8.850
 6535POPC   C1A29211  20.575  11.271   8.550
 6535POPC   D2A29212  20.584  11.287   8.250
 6535POPC   C3A29213  20.612  11.253   7.950
 6535POPC   C4A29214  20.631  11.251   7.650
 6535POPC   C1B29215  20.545  11.075   8.550
 6535POPC   C2B29216  20.581  11.018   8.250
 6535POPC   C3B29217  20.594  11.066   7.950
 6535POPC   C4B29218  20.558  11.017   7.650
 6536POPC   NC329219  19.027  40.039   9.450
 6536POPC   PO429220  19.108  40.036   9.150
 6536POPC   GL129221  19.034  39.966   8.850
 6536POPC   GL229222  19.126  39.902   8.850
 6536POPC   C1A29223  19.104  40.053   8.550
 6536POPC   D2A29224  19.085  40.018   8.250
 6536POPC   C3A29225  19.083  40.052   7.950
 6536POPC   C4A29226  19.087  39.959   7.650
 6536POPC   C1B29227  19.187  39.776   8.550
 6536POPC   C2B29228  19.185  39.800   8.250
 6536POPC   C3B29229  19.165  39.814   7.950
 6536POPC   C4B29230  19.198  39.799   7.650
 6537POPC   NC329231   2.787  31.511   9.450
 6537POPC   PO429232   2.760  31.467   9.150
 6537POPC   GL129233   2.729  31.483   8.850
 6537POPC   GL229234   2.848  31.366   8.850
 6537POPC   C1A29235   2.789  31.423   8.550
 6537POPC   D2A29236   2.811  31.519   8.250
 6537POPC   C3A29237   2.779  31.485   7.950
 6537POPC   C4A29238   2.803  31.480   7.650
 6537POPC   C1B29239   2.973  31.284   8.550
 6537POPC   C2B29240   2.924  31.322   8.250
 6537POPC   C3B29241   2.934  31.294   7.950
 6537POPC   C4B29242   2.912  31.311   7.650
 6538POPC   NC329243  29.956   5.059   9.450
 6538POPC   PO429244  29.902   5.070   9.150
 6538POPC   GL129245  29.888   5.049   8.850
 6538POPC   GL229246  30.074   5.066   8.850
 6538POPC   C1A29247  29.958   5.086   8.550
 6538POPC   D2A29248  29.923   5.139   8.250
 6538POPC   C3A29249  29.893   5.112   7.950
 6538POPC   C4A29250  29.935   5.123   7.650
 6538POPC   C1B29251  30.132   5.126   8.550
 6538POPC   C2B29252  30.126   5.085   8.250
 6538POPC   C3B29253  30.208   5.043   7.950
 6538POPC   C4B29254  30.216   5.033   7.650
 6539POPC   NC329255  19.806  21.377   9.450
 6539POPC   PO429256  19.878  21.421   9.150
 6539POPC   GL129257  19.874  21.354   8.850
 6539POPC   GL229258  19.957  21.488   8.850
 6539POPC   C1A29259  19.824  21.400   8.550
 6539POPC   D2A29260  19.819  21.419   8.250
 6539POPC   C3A29261  19.863  21.353   7.950
 6539POPC   C4A29262  19.840  21.428   7.650
 6539POPC   C1B29263  20.013  21.561   8.550
 6539POPC   C2B29264  20.020  21.589   8.250
 6539POPC   C3B29265  19.972  21.590   7.950
 6539POPC   C4B29266  19.939  21.588   7.650
 6540POPC   NC329267  22.907   3.501   9.450
 6540POPC   PO429268  22.948   3.558   9.150
 6540POPC   GL129269  22.919   3.526   8.850
 6540POPC   GL229270  22.796   3.470   8.850
 6540POPC   C1A29271  22.976   3.528   8.550
 6540POPC   D2A29272  22.893   3.502   8.250
 6540POPC   C3A29273  22.977   3.500   7.950
 6540POPC   C4A29274  22.933   3.501   7.650
 6540POPC   C1B29275  22.692   3.529   8.550
 6540POPC   C2B29276  22.647   3.430   8.250
 6540POPC   C3B29277  22.673   3.431   7.950
 6540POPC   C4B29278  22.679   3.482   7.650
 6541POPC   NC329279   8.957  21.400   9.450
 6541POPC   PO429280   8.963  21.399   9.150
 6541POPC   GL129281   8.992  21.399   8.850
 6541POPC   GL229282   9.105  21.358   8.850
 6541POPC   C1A29283   8.942  21.401   8.550
 6541POPC   D2A29284   8.958  21.436   8.250
 6541POPC   C3A29285   9.006  21.364   7.950
 6541POPC   C4A29286   8.976  21.419   7.650
 6541POPC   C1B29287   9.162  21.240   8.550
 6541POPC   C2B29288   9.141  21.207   8.250
 6541POPC   C3B29289   9.189  21.255   7.950
 6541POPC   C4B29290   9.204  21.223   7.650
 6542POPC   NC329291  39.995  11.299   9.450
 6542POPC   PO429292  40.053  11.307   9.150
 6542POPC   GL129293  39.970  11.283   8.850
 6542POPC   GL229294  40.004  11.386   8.850
 6542POPC   C1A29295  40.013  11.285   8.550
 6542POPC   D2A29296  39.992  11.338   8.250
 6542POPC   C3A29297  39.968  11.270   7.950
 6542POPC   C4A29298  39.961  11.338   7.650
 6542POPC   C1B29299  39.905  11.503   8.550
 6542POPC   C2B29300  39.902  11.494   8.250
 6542POPC   C3B29301  39.896  11.509   7.950
 6542POPC   C4B29302  39.972  11.520   7.650
 6543POPC   NC329303  26.081  38.422   9.450
 6543POPC   PO429304  26.022  38.440   9.150
 6543POPC   GL129305  26.058  38.471   8.850
 6543POPC   GL229306  25.981  38.371   8.850
 6543POPC   C1A29307  26.039  38.423   8.550
 6543POPC   D2A29308  26.084  38.478   8.250
 6543POPC   C3A29309  26.046  38.448   7.950
 6543POPC   C4A29310  26.054  38.409   7.650
 6543POPC   C1B29311  25.846  38.236   8.550
 6543POPC   C2B29312  25.911  38.313   8.250
 6543POPC   C3B29313  25.837  38.294   7.950
 6543POPC   C4B29314  25.927  38.262   7.650
 6544POPC   NC329315  21.397  43.070   9.450
 6544POPC   PO429316  21.355  43.061   9.150
 6544POPC   GL129317  21.433  43.100   8.850
 6544POPC   GL229318  21.271  43.143   8.850
 6544POPC   C1A29319  21.395  43.131   8.550
 6544POPC   D2A29320  21.341  43.113   8.250
 6544POPC   C3A29321  21.390  43.091   7.950
 6544POPC   C4A29322  21.385  43.135   7.650
 6544POPC   C1B29323  21.191  43.271   8.550
 6544POPC   C2B29324  21.212  43.230   8.250
 6544POPC   C3B29325  21.175  43.249   7.950
 6544POPC   C4B29326  21.199  43.277   7.650
 6545POPC   NC329327  14.440  43.063   9.450
 6545POPC   PO429328  14.447  43.098   9.150
 6545POPC   GL129329  14.394  43.135   8.850
 6545POPC   GL229330  14.488  43.175   8.850
 6545POPC   C1A29331  14.393  43.146   8.550
 6545POPC   D2A29332  14.413  43.069   8.250
 6545POPC   C3A29333  14.427  43.088   7.950
 6545POPC   C4A29334  14.438  43.061   7.650
 6545POPC   C1B29335  14.589  43.270   8.550
 6545POPC   C2B29336  14.582  43.261   8.250
 6545POPC   C3B29337  14.669  43.226   7.950
 6545POPC   C4B29338  14.615  43.224   7.650
 6546POPC   NC329339  36.898  29.109   9.450
 6546POPC   PO429340  36.870  29.172   9.150
 6546POPC   GL129341  36.944  29.152   8.850
 6546POPC   GL229342  37.022  29.101   8.850
 6546POPC   C1A29343  36.867  29.133   8.550
 6546POPC   D2A29344  36.879  29.129   8.250
 6546POPC   C3A29345  36.879  29.176   7.950
 6546POPC   C4A29346  36.900  29.124   7.650
 6546POPC   C1B29347  37.043  28.968   8.550
 6546POPC   C2B29348  37.062  28.989   8.250
 6546POPC   C3B29349  37.043  29.016   7.950
 6546POPC   C4B29350  37.132  28.965   7.650
 6547POPC   NC329351  19.104   6.647   9.450
 6547POPC   PO429352  19.093   6.621   9.150
 6547POPC   GL129353  19.058   6.656   8.850
 6547POPC   GL229354  19.230   6.670   8.850
 6547POPC   C1A29355  19.071   6.677   8.550
 6547POPC   D2A29356  19.101   6.660   8.250
 6547POPC   C3A29357  19.029   6.614   7.950
 6547POPC   C4A29358  19.084   6.657   7.650
 6547POPC   C1B29359  19.325   6.666   8.550
 6547POPC   C2B29360  19.301   6.718   8.250
 6547POPC   C3B29361  19.339   6.725   7.950
 6547POPC   C4B29362  19.281   6.713   7.650
 6548POPC   NC329363  19.052   0.394   9.450
 6548POPC   PO429364  19.046   0.477   9.150
 6548POPC   GL129365  19.045   0.424   8.850
 6548POPC   GL229366  19.149   0.584   8.850
 6548POPC   C1A29367  19.081   0.438   8.550
 6548POPC   D2A29368  19.029   0.461   8.250
 6548POPC   C3A29369  19.054   0.466   7.950
 6548POPC   C4A29370  19.009   0.389   7.650
 6548POPC   C1B29371  19.180   0.698   8.550
 6548POPC   C2B29372  19.179   0.702   8.250
 6548POPC   C3B29373  19.186   0.679   7.950
 6548POPC   C4B29374  19.128   0.693   7.650
 6549POPC   NC329375   5.915  16.731   9.450
 6549POPC   PO429376   5.831  16.779   9.150
 6549POPC   GL129377   5.845  16.710   8.850
 6549POPC   GL229378   5.995  16.811   8.850
 6549POPC   C1A29379   5.913  16.721   8.550
 6549POPC   D2A29380   5.824  16.760   8.250
 6549POPC   C3A29381   5.834  16.739   7.950
 6549POPC   C4A29382   5.878  16.735   7.650
 6549POPC   C1B29383   6.068  16.948   8.550
 6549POPC   C2B29384   6.080  16.907   8.250
 6549POPC   C3B29385   6.052  16.934   7.950
 6549POPC   C4B29386   6.028  16.917   7.650
 6550POPC   NC329387  17.553  30.712   9.450
 6550POPC   PO429388  17.537  30.720   9.150
 6550POPC   GL129389  17.473  30.655   8.850
 6550POPC   GL229390  17.585  30.843   8.850
 6550POPC   C1A29391  17.490  30.683   8.550
 6550POPC   D2A29392  17.552  30.741   8.250
 6550POPC   C3A29393  17.553  30.663   7.950
 6550POPC   C4A29394  17.532  30.695   7.650
 6550POPC   C1B29395  17.677  30.913   8.550
 6550POPC   C2B29396  17.650  30.894   8.250
 6550POPC   C3B29397  17.710  30.863   7.950
 6550POPC   C4B29398  17.686  30.927   7.650
 6551POPC   NC329399  13.592  40.759   9.450
 6551POPC   PO429400  13.598  40.813   9.150
 6551POPC   GL129401  13.674  40.744   8.850
 6551POPC   GL229402  13.494  40.897   8.850
 6551POPC   C1A29403  13.664  40.803   8.550
 6551POPC   D2A29404  13.586  40.793   8.250
 6551POPC   C3A29405  13.619  40.748   7.950
 6551POPC   C4A29406  13.579  40.759   7.650
 6551POPC   C1B29407  13.456  40.911   8.550
 6551POPC   C2B29408  13.417  40.927   8.250
 6551POPC   C3B29409  13.369  40.908   7.950
 6551POPC   C4B29410  13.398  40.864   7.650
 6552POPC   NC329411  13.617   2.764   9.450
 6552POPC   PO429412  13.606   2.756   9.150
 6552POPC   GL129413  13.677   2.772   8.850
 6552POPC   GL229414  13.591   2.869   8.850
 6552POPC   C1A29415  13.642   2.786   8.550
 6552POPC   D2A29416  13.675   2.785   8.250
 6552POPC   C3A29417  13.608   2.778   7.950
 6552POPC   C4A29418  13.619   2.805   7.650
 6552POPC   C1B29419  13.683   3.023   8.550
 6552POPC   C2B29420  13.672   3.034   8.250
 6552POPC   C3B29421  13.684   3.025   7.950
 6552POPC   C4B29422  13.625   3.009   7.650
 6553POPC   NC329423   5.850  33.826   9.450
 6553POPC   PO429424   5.819  33.794   9.150
 6553POPC   GL129425   5.877  33.832   8.850
 6553POPC   GL229426   5.810  33.872   8.850
 6553POPC   C1A29427   5.865  33.796   8.550
 6553POPC   D2A29428   5.917  33.845   8.250
 6553POPC   C3A29429   5.884  33.791   7.950
 6553POPC   C4A29430   5.906  33.762   7.650
 6553POPC   C1B29431   5.721  34.064   8.550
 6553POPC   C2B29432   5.725  34.011   8.250
 6553POPC   C3B29433   5.745  34.021   7.950
 6553POPC   C4B29434   5.718  34.041   7.650
 6554POPC   NC329435  43.929   5.114   9.450
 6554POPC   PO429436  43.915   5.122   9.150
 6554POPC   GL129437  43.843   5.049   8.850
 6554POPC   GL229438  43.761   5.091   8.850
 6554POPC   C1A29439  43.901   5.097   8.550
 6554POPC   D2A29440  43.846   5.100   8.250
 6554POPC   C3A29441  43.926   5.112   7.950
 6554POPC   C4A29442  43.840   5.127   7.650
 6554POPC   C1B29443  43.621   5.077   8.550
 6554POPC   C2B29444  43.604   5.123   8.250
 6554POPC   C3B29445  43.594   5.094   7.950
 6554POPC   C4B29446  43.650   5.135   7.650
 6555POPC   NC329447  14.444  19.039   9.450
 6555POPC   PO429448  14.393  19.018   9.150
 6555POPC   GL129449  14.431  19.013   8.850
 6555POPC   GL229450  14.526  18.995   8.850
 6555POPC   C1A29451  14.399  19.084   8.550
 6555POPC   D2A29452  14.442  19.092   8.250
 6555POPC   C3A29453  14.439  19.065   7.950
 6555POPC   C4A29454  14.434  19.034   7.650
 6555POPC   C1B29455  14.579  18.841   8.550
 6555POPC   C2B29456  14.592  18.903   8.250
 6555POPC   C3B29457  14.569  18.917   7.950
 6555POPC   C4B29458  14.549  18.849   7.650
 6556POPC   NC329459  30.650   5.115   9.450
 6556POPC   PO429460  30.700   5.106   9.150
 6556POPC   GL129461  30.734   5.142   8.850
 6556POPC   GL229462  30.724   4.939   8.850
 6556POPC   C1A29463  30.737   5.108   8.550
 6556POPC   D2A29464  30.744   5.131   8.250
 6556POPC   C3A29465  30.706   5.058   7.950
 6556POPC   C4A29466  30.657   5.065   7.650
 6556POPC   C1B29467  30.714   4.830   8.550
 6556POPC   C2B29468  30.622   4.824   8.250
 6556POPC   C3B29469  30.642   4.817   7.950
 6556POPC   C4B29470  30.622   4.871   7.650
 6557POPC   NC329471  34.535  17.531   9.450
 6557POPC   PO429472  34.570  17.532   9.150
 6557POPC   GL129473  34.539  17.536   8.850
 6557POPC   GL229474  34.590  17.645   8.850
 6557POPC   C1A29475  34.536  17.482   8.550
 6557POPC   D2A29476  34.540  17.475   8.250
 6557POPC   C3A29477  34.622  17.497   7.950
 6557POPC   C4A29478  34.625  17.497   7.650
 6557POPC   C1B29479  34.637  17.706   8.550
 6557POPC   C2B29480  34.628  17.749   8.250
 6557POPC   C3B29481  34.625  17.690   7.950
 6557POPC   C4B29482  34.629  17.695   7.650
 6558POPC   NC329483  31.485  19.089   9.450
 6558POPC   PO429484  31.475  19.071   9.150
 6558POPC   GL129485  31.474  19.085   8.850
 6558POPC   GL229486  31.541  18.972   8.850
 6558POPC   C1A29487  31.438  19.101   8.550
 6558POPC   D2A29488  31.495  19.073   8.250
 6558POPC   C3A29489  31.518  19.018   7.950
 6558POPC   C4A29490  31.461  19.012   7.650
 6558POPC   C1B29491  31.643  18.914   8.550
 6558POPC   C2B29492  31.634  18.882   8.250
 6558POPC   C3B29493  31.663  18.909   7.950
 6558POPC   C4B29494  31.636  18.917   7.650
 6559POPC   NC329495  44.647  30.655   9.450
 6559POPC   PO429496  44.689  30.715   9.150
 6559POPC   GL129497  44.658  30.695   8.850
 6559POPC   GL229498  44.795  30.633   8.850
 6559POPC   C1A29499  44.642  30.710   8.550
 6559POPC   D2A29500  44.652  30.738   8.250
 6559POPC   C3A29501  44.627  30.708   7.950
 6559POPC   C4A29502  44.683  30.655   7.650
 6559POPC   C1B29503  44.864  30.567   8.550
 6559POPC   C2B29504  44.902  30.626   8.250
 6559POPC   C3B29505  44.909  30.594   7.950
 6559POPC   C4B29506  44.886  30.644   7.650
 6560POPC   NC329507  43.918  25.299   9.450
 6560POPC   PO429508  43.910  25.278   9.150
 6560POPC   GL129509  43.903  25.245   8.850
 6560POPC   GL229510  43.857  25.130   8.850
 6560POPC   C1A29511  43.902  25.307   8.550
 6560POPC   D2A29512  43.928  25.305   8.250
 6560POPC   C3A29513  43.895  25.298   7.950
 6560POPC   C4A29514  43.920  25.246   7.650
 6560POPC   C1B29515  43.807  25.017   8.550
 6560POPC   C2B29516  43.789  25.017   8.250
 6560POPC   C3B29517  43.788  25.066   7.950
 6560POPC   C4B29518  43.784  25.010   7.650
 6561POPC   NC329519   5.068  24.445   9.450
 6561POPC   PO429520   5.058  24.442   9.150
 6561POPC   GL129521   5.127  24.502   8.850
 6561POPC   GL229522   5.246  24.508   8.850
 6561POPC   C1A29523   5.056  24.529   8.550
 6561POPC   D2A29524   5.130  24.514   8.250
 6561POPC   C3A29525   5.050  24.444   7.950
 6561POPC   C4A29526   5.076  24.522   7.650
 6561POPC   C1B29527   5.335  24.467   8.550
 6561POPC   C2B29528   5.320  24.459   8.250
 6561POPC   C3B29529   5.296  24.490   7.950
 6561POPC   C4B29530   5.372  24.469   7.650
 6562POPC   NC329531  35.335   5.835   9.450
 6562POPC   PO429532  35.343   5.901   9.150
 6562POPC   GL129533  35.381   5.895   8.850
 6562POPC   GL229534  35.426   5.741   8.850
 6562POPC   C1A29535  35.329   5.887   8.550
 6562POPC   D2A29536  35.356   5.863   8.250
 6562POPC   C3A29537  35.375   5.867   7.950
 6562POPC   C4A29538  35.370   5.891   7.650
 6562POPC   C1B29539  35.486   5.625   8.550
 6562POPC   C2B29540  35.451   5.695   8.250
 6562POPC   C3B29541  35.469   5.697   7.950
 6562POPC   C4B29542  35.477   5.678   7.650
 6563POPC   NC329543  10.518   6.607   9.450
 6563POPC   PO429544  10.515   6.627   9.150
 6563POPC   GL129545  10.486   6.671   8.850
 6563POPC   GL229546  10.563   6.745   8.850
 6563POPC   C1A29547  10.525   6.609   8.550
 6563POPC   D2A29548  10.504   6.666   8.250
 6563POPC   C3A29549  10.533   6.641   7.950
 6563POPC   C4A29550  10.520   6.684   7.650
 6563POPC   C1B29551  10.648   6.811   8.550
 6563POPC   C2B29552  10.672   6.829   8.250
 6563POPC   C3B29553  10.723   6.883   7.950
 6563POPC   C4B29554  10.684   6.842   7.650
 6564POPC   NC329555  37.723  19.805   9.450
 6564POPC   PO429556  37.718  19.862   9.150
 6564POPC   GL129557  37.702  19.822   8.850
 6564POPC   GL229558  37.727  19.755   8.850
 6564POPC   C1A29559  37.654  19.809   8.550
 6564POPC   D2A29560  37.704  19.852   8.250
 6564POPC   C3A29561  37.724  19.795   7.950
 6564POPC   C4A29562  37.664  19.834   7.650
 6564POPC   C1B29563  37.825  19.614   8.550
 6564POPC   C2B29564  37.870  19.658   8.250
 6564POPC   C3B29565  37.839  19.636   7.950
 6564POPC   C4B29566  37.808  19.633   7.650
 6565POPC   NC329567   9.721  39.208   9.450
 6565POPC   PO429568   9.762  39.244   9.150
 6565POPC   GL129569   9.748  39.255   8.850
 6565POPC   GL229570   9.847  39.266   8.850
 6565POPC   C1A29571   9.738  39.248   8.550
 6565POPC   D2A29572   9.785  39.193   8.250
 6565POPC   C3A29573   9.768  39.195   7.950
 6565POPC   C4A29574   9.725  39.248   7.650
 6565POPC   C1B29575   9.963  39.343   8.550
 6565POPC   C2B29576   9.941  39.324   8.250
 6565POPC   C3B29577   9.997  39.356   7.950
 6565POPC   C4B29578   9.972  39.358   7.650
 6566POPC   NC329579   7.442   8.203   9.450
 6566POPC   PO429580   7.446   8.197   9.150
 6566POPC   GL129581   7.412   8.228   8.850
 6566POPC   GL229582   7.408   8.064   8.850
 6566POPC   C1A29583   7.460   8.176   8.550
 6566POPC   D2A29584   7.388   8.243   8.250
 6566POPC   C3A29585   7.391   8.158   7.950
 6566POPC   C4A29586   7.424   8.185   7.650
 6566POPC   C1B29587   7.340   7.922   8.550
 6566POPC   C2B29588   7.294   7.979   8.250
 6566POPC   C3B29589   7.319   7.929   7.950
 6566POPC   C4B29590   7.290   7.941   7.650
 6567POPC   NC329591  44.656  35.330   9.450
 6567POPC   PO429592  44.684  35.393   9.150
 6567POPC   GL129593  44.687  35.345   8.850
 6567POPC   GL229594  44.751  35.279   8.850
 6567POPC   C1A29595  44.705  35.390   8.550
 6567POPC   D2A29596  44.697  35.383   8.250
 6567POPC   C3A29597  44.658  35.375   7.950
 6567POPC   C4A29598  44.656  35.393   7.650
 6567POPC   C1B29599  44.836  35.089   8.550
 6567POPC   C2B29600  44.834  35.164   8.250
 6567POPC   C3B29601  44.743  35.156   7.950
 6567POPC   C4B29602  44.827  35.169   7.650
 6568POPC   NC329603  13.624  43.918   9.450
 6568POPC   PO429604  13.655  43.895   9.150
 6568POPC   GL129605  13.589  43.872   8.850
 6568POPC   GL229606  13.531  43.812   8.850
 6568POPC   C1A29607  13.670  43.889   8.550
 6568POPC   D2A29608  13.653  43.837   8.250
 6568POPC   C3A29609  13.673  43.893   7.950
 6568POPC   C4A29610  13.579  43.897   7.650
 6568POPC   C1B29611  13.526  43.682   8.550
 6568POPC   C2B29612  13.481  43.677   8.250
 6568POPC   C3B29613  13.525  43.631   7.950
 6568POPC   C4B29614  13.522  43.657   7.650
 6569POPC   NC329615  14.447   1.211   9.450
 6569POPC   PO429616  14.396   1.261   9.150
 6569POPC   GL129617  14.388   1.229   8.850
 6569POPC   GL229618  14.430   1.049   8.850
 6569POPC   C1A29619  14.421   1.222   8.550
 6569POPC   D2A29620  14.449   1.193   8.250
 6569POPC   C3A29621  14.364   1.195   7.950
 6569POPC   C4A29622  14.368   1.262   7.650
 6569POPC   C1B29623  14.476   1.018   8.550
 6569POPC   C2B29624  14.498   0.984   8.250
 6569POPC   C3B29625  14.499   0.966   7.950
 6569POPC   C4B29626  14.460   0.957   7.650
 6570POPC   NC329627  26.805  16.734   9.450
 6570POPC   PO429628  26.828  16.718   9.150
 6570POPC   GL129629  26.867  16.763   8.850
 6570POPC   GL229630  26.675  16.828   8.850
 6570POPC   C1A29631  26.801  16.780   8.550
 6570POPC   D2A29632  26.798  16.738   8.250
 6570POPC   C3A29633  26.803  16.766   7.950
 6570POPC   C4A29634  26.783  16.701   7.650
 6570POPC   C1B29635  26.630  16.890   8.550
 6570POPC   C2B29636  26.645  16.883   8.250
 6570POPC   C3B29637  26.628  16.845   7.950
 6570POPC   C4B29638  26.647  16.824   7.650
 6571POPC   NC329639  17.519  27.581   9.450
 6571POPC   PO429640  17.482  27.616   9.150
 6571POPC   GL129641  17.516  27.560   8.850
 6571POPC   GL229642  17.435  27.712   8.850
 6571POPC   C1A29643  17.510  27.607   8.550
 6571POPC   D2A29644  17.554  27.588   8.250
 6571POPC   C3A29645  17.460  27.572   7.950
 6571POPC   C4A29646  17.494  27.556   7.650
 6571POPC   C1B29647  17.319  27.796   8.550
 6571POPC   C2B29648  17.313  27.746   8.250
 6571POPC   C3B29649  17.327  27.812   7.950
 6571POPC   C4B29650  17.326  27.778   7.650
 6572POPC   NC329651  24.504  39.961   9.450
 6572POPC   PO429652  24.441  39.989   9.150
 6572POPC   GL129653  24.506  40.032   8.850
 6572POPC   GL229654  24.518  39.880   8.850
 6572POPC   C1A29655  24.497  40.055   8.550
 6572POPC   D2A29656  24.514  40.049   8.250
 6572POPC   C3A29657  24.467  40.051   7.950
 6572POPC   C4A29658  24.527  39.964   7.650
 6572POPC   C1B29659  24.474  39.767   8.550
 6572POPC   C2B29660  24.439  39.795   8.250
 6572POPC   C3B29661  24.477  39.747   7.950
 6572POPC   C4B29662  24.478  39.757   7.650
 6573POPC   NC329663  13.594  28.336   9.450
 6573POPC   PO429664  13.648  28.359   9.150
 6573POPC   GL129665  13.646  28.405   8.850
 6573POPC   GL229666  13.613  28.530   8.850
 6573POPC   C1A29667  13.597  28.356   8.550
 6573POPC   D2A29668  13.658  28.363   8.250
 6573POPC   C3A29669  13.631  28.353   7.950
 6573POPC   C4A29670  13.628  28.364   7.650
 6573POPC   C1B29671  13.639  28.584   8.550
 6573POPC   C2B29672  13.662  28.605   8.250
 6573POPC   C3B29673  13.603  28.664   7.950
 6573POPC   C4B29674  13.643  28.600   7.650
 6574POPC   NC329675  24.445  43.112   9.450
 6574POPC   PO429676  24.444  43.063   9.150
 6574POPC   GL129677  24.450  43.141   8.850
 6574POPC   GL229678  24.499  43.262   8.850
 6574POPC   C1A29679  24.449  43.146   8.550
 6574POPC   D2A29680  24.537  43.156   8.250
 6574POPC   C3A29681  24.465  43.139   7.950
 6574POPC   C4A29682  24.464  43.127   7.650
 6574POPC   C1B29683  24.442  43.325   8.550
 6574POPC   C2B29684  24.479  43.349   8.250
 6574POPC   C3B29685  24.465  43.390   7.950
 6574POPC   C4B29686  24.477  43.397   7.650
 6575POPC   NC329687  41.578  41.562   9.450
 6575POPC   PO429688  41.528  41.516   9.150
 6575POPC   GL129689  41.516  41.594   8.850
 6575POPC   GL229690  41.445  41.495   8.850
 6575POPC   C1A29691  41.559  41.580   8.550
 6575POPC   D2A29692  41.562  41.534   8.250
 6575POPC   C3A29693  41.546  41.542   7.950
 6575POPC   C4A29694  41.574  41.541   7.650
 6575POPC   C1B29695  41.308  41.539   8.550
 6575POPC   C2B29696  41.319  41.505   8.250
 6575POPC   C3B29697  41.360  41.467   7.950
 6575POPC   C4B29698  41.327  41.472   7.650
 6576POPC   NC329699  40.769  16.772   9.450
 6576POPC   PO429700  40.769  16.711   9.150
 6576POPC   GL129701  40.800  16.724   8.850
 6576POPC   GL229702  40.634  16.648   8.850
 6576POPC   C1A29703  40.819  16.760   8.550
 6576POPC   D2A29704  40.775  16.694   8.250
 6576POPC   C3A29705  40.816  16.741   7.950
 6576POPC   C4A29706  40.775  16.771   7.650
 6576POPC   C1B29707  40.592  16.682   8.550
 6576POPC   C2B29708  40.588  16.639   8.250
 6576POPC   C3B29709  40.540  16.671   7.950
 6576POPC   C4B29710  40.600  16.679   7.650
 6577POPC   NC329711  30.688   8.243   9.450
 6577POPC   PO429712  30.730   8.228   9.150
 6577POPC   GL129713  30.733   8.194   8.850
 6577POPC   GL229714  30.660   8.354   8.850
 6577POPC   C1A29715  30.664   8.154   8.550
 6577POPC   D2A29716  30.716   8.205   8.250
 6577POPC   C3A29717  30.698   8.152   7.950
 6577POPC   C4A29718  30.670   8.152   7.650
 6577POPC   C1B29719  30.610   8.473   8.550
 6577POPC   C2B29720  30.664   8.403   8.250
 6577POPC   C3B29721  30.612   8.421   7.950
 6577POPC   C4B29722  30.657   8.407   7.650
 6578POPC   NC329723  43.076  42.308   9.450
 6578POPC   PO429724  43.082  42.348   9.150
 6578POPC   GL129725  43.072  42.309   8.850
 6578POPC   GL229726  43.173  42.164   8.850
 6578POPC   C1A29727  43.113  42.342   8.550
 6578POPC   D2A29728  43.108  42.373   8.250
 6578POPC   C3A29729  43.067  42.347   7.950
 6578POPC   C4A29730  43.111  42.327   7.650
 6578POPC   C1B29731  43.123  42.124   8.550
 6578POPC   C2B29732  43.181  42.100   8.250
 6578POPC   C3B29733  43.158  42.094   7.950
 6578POPC   C4B29734  43.099  42.046   7.650
 6579POPC   NC329735  22.937  33.060   9.450
 6579POPC   PO429736  22.919  33.035   9.150
 6579POPC   GL129737  22.976  32.998   8.850
 6579POPC   GL229738  23.056  32.923   8.850
 6579POPC   C1A29739  22.961  33.060   8.550
 6579POPC   D2A29740  22.896  33.052   8.250
 6579POPC   C3A29741  22.892  33.006   7.950
 6579POPC   C4A29742  22.892  33.064   7.650
 6579POPC   C1B29743  23.110  32.836   8.550
 6579POPC   C2B29744  23.105  32.897   8.250
 6579POPC   C3B29745  23.140  32.904   7.950
 6579POPC   C4B29746  23.181  32.873   7.650
 6580POPC   NC329747  32.294   5.064   9.450
 6580POPC   PO429748  32.212   5.072   9.150
 6580POPC   GL129749  32.219   5.090   8.850
 6580POPC   GL229750  32.361   5.037   8.850
 6580POPC   C1A29751  32.276   5.047   8.550
 6580POPC   D2A29752  32.203   5.120   8.250
 6580POPC   C3A29753  32.218   5.046   7.950
 6580POPC   C4A29754  32.209   5.138   7.650
 6580POPC   C1B29755  32.422   4.918   8.550
 6580POPC   C2B29756  32.424   4.850   8.250
 6580POPC   C3B29757  32.426   4.913   7.950
 6580POPC   C4B29758  32.405   4.865   7.650
 6581POPC   NC329759   1.227  44.676   9.450
 6581POPC   PO429760   1.215  44.660   9.150
 6581POPC   GL129761   1.200  44.679   8.850
 6581POPC   GL229762   1.096  44.677   8.850
 6581POPC   C1A29763   1.188  44.680   8.550
 6581POPC   D2A29764   1.188  44.680   8.250
 6581POPC   C3A29765   1.205  44.629   7.950
 6581POPC   C4A29766   1.189  44.668   7.650
 6581POPC   C1B29767   0.945  44.707   8.550
 6581POPC   C2B29768   0.972  44.713   8.250
 6581POPC   C3B29769   0.989  44.626   7.950
 6581POPC   C4B29770   0.975  44.648   7.650
 6582POPC   NC329771  41.529  16.724   9.450
 6582POPC   PO429772  41.553  16.707   9.150
 6582POPC   GL129773  41.555  16.763   8.850
 6582POPC   GL229774  41.482  16.769   8.850
 6582POPC   C1A29775  41.515  16.740   8.550
 6582POPC   D2A29776  41.582  16.710   8.250
 6582POPC   C3A29777  41.523  16.763   7.950
 6582POPC   C4A29778  41.555  16.707   7.650
 6582POPC   C1B29779  41.267  16.759   8.550
 6582POPC   C2B29780  41.352  16.720   8.250
 6582POPC   C3B29781  41.301  16.675   7.950
 6582POPC   C4B29782  41.312  16.688   7.650
 6583POPC   NC329783   8.238  21.384   9.450
 6583POPC   PO429784   8.213  21.374   9.150
 6583POPC   GL129785   8.240  21.403   8.850
 6583POPC   GL229786   8.256  21.311   8.850
 6583POPC   C1A29787   8.191  21.420   8.550
 6583POPC   D2A29788   8.236  21.389   8.250
 6583POPC   C3A29789   8.149  21.343   7.950
 6583POPC   C4A29790   8.195  21.353   7.650
 6583POPC   C1B29791   8.407  21.229   8.550
 6583POPC   C2B29792   8.373  21.278   8.250
 6583POPC   C3B29793   8.348  21.283   7.950
 6583POPC   C4B29794   8.367  21.200   7.650
 6584POPC   NC329795  19.808  26.790   9.450
 6584POPC   PO429796  19.806  26.858   9.150
 6584POPC   GL129797  19.787  26.864   8.850
 6584POPC   GL229798  19.904  26.698   8.850
 6584POPC   C1A29799  19.866  26.824   8.550
 6584POPC   D2A29800  19.788  26.768   8.250
 6584POPC   C3A29801  19.880  26.806   7.950
 6584POPC   C4A29802  19.837  26.772   7.650
 6584POPC   C1B29803  20.025  26.665   8.550
 6584POPC   C2B29804  20.049  26.650   8.250
 6584POPC   C3B29805  20.077  26.693   7.950
 6584POPC   C4B29806  20.003  26.723   7.650
 6585POPC   NC329807   0.478  34.609   9.450
 6585POPC   PO429808   0.419  34.612   9.150
 6585POPC   GL129809   0.479  34.537   8.850
 6585POPC   GL229810   0.573  34.629   8.850
 6585POPC   C1A29811   0.440  34.610   8.550
 6585POPC   D2A29812   0.481  34.583   8.250
 6585POPC   C3A29813   0.426  34.592   7.950
 6585POPC   C4A29814   0.426  34.594   7.650
 6585POPC   C1B29815   0.659  34.661   8.550
 6585POPC   C2B29816   0.621  34.628   8.250
 6585POPC   C3B29817   0.683  34.662   7.950
 6585POPC   C4B29818   0.619  34.661   7.650
 6586POPC   NC329819  30.672   5.907   9.450
 6586POPC   PO429820  30.678   5.905   9.150
 6586POPC   GL129821  30.732   5.836   8.850
 6586POPC   GL229822  30.572   5.900   8.850
 6586POPC   C1A29823  30.678   5.844   8.550
 6586POPC   D2A29824  30.728   5.845   8.250
 6586POPC   C3A29825  30.738   5.908   7.950
 6586POPC   C4A29826  30.739   5.819   7.650
 6586POPC   C1B29827  30.478   5.954   8.550
 6586POPC   C2B29828  30.452   5.942   8.250
 6586POPC   C3B29829  30.438   6.003   7.950
 6586POPC   C4B29830  30.488   6.001   7.650
 6587POPC   NC329831  33.823  34.584   9.450
 6587POPC   PO429832  33.838  34.616   9.150
 6587POPC   GL129833  33.834  34.571   8.850
 6587POPC   GL229834  33.855  34.424   8.850
 6587POPC   C1A29835  33.757  34.622   8.550
 6587POPC   D2A29836  33.850  34.535   8.250
 6587POPC   C3A29837  33.774  34.571   7.950
 6587POPC   C4A29838  33.789  34.609   7.650
 6587POPC   C1B29839  33.856  34.292   8.550
 6587POPC   C2B29840  33.874  34.354   8.250
 6587POPC   C3B29841  33.879  34.291   7.950
 6587POPC   C4B29842  33.865  34.301   7.650
 6588POPC   NC329843  28.370   5.093   9.450
 6588POPC   PO429844  28.331   5.049   9.150
 6588POPC   GL129845  28.342   5.096   8.850
 6588POPC   GL229846  28.270   5.003   8.850
 6588POPC   C1A29847  28.355   5.103   8.550
 6588POPC   D2A29848  28.363   5.138   8.250
 6588POPC   C3A29849  28.348   5.083   7.950
 6588POPC   C4A29850  28.327   5.131   7.650
 6588POPC   C1B29851  28.095   4.982   8.550
 6588POPC   C2B29852  28.122   4.975   8.250
 6588POPC   C3B29853  28.111   5.020   7.950
 6588POPC   C4B29854  28.178   4.947   7.650
 6589POPC   NC329855  29.161  25.228   9.450
 6589POPC   PO429856  29.160  25.277   9.150
 6589POPC   GL129857  29.138  25.252   8.850
 6589POPC   GL229858  29.216  25.393   8.850
 6589POPC   C1A29859  29.145  25.305   8.550
 6589POPC   D2A29860  29.158  25.273   8.250
 6589POPC   C3A29861  29.117  25.256   7.950
 6589POPC   C4A29862  29.104  25.296   7.650
 6589POPC   C1B29863  29.366  25.428   8.550
 6589POPC   C2B29864  29.290  25.464   8.250
 6589POPC   C3B29865  29.345  25.409   7.950
 6589POPC   C4B29866  29.344  25.437   7.650
 6590POPC   NC329867  22.141  41.550   9.450
 6590POPC   PO429868  22.180  41.534   9.150
 6590POPC   GL129869  22.199  41.570   8.850
 6590POPC   GL229870  22.127  41.467   8.850
 6590POPC   C1A29871  22.194  41.598   8.550
 6590POPC   D2A29872  22.168  41.547   8.250
 6590POPC   C3A29873  22.121  41.525   7.950
 6590POPC   C4A29874  22.206  41.584   7.650
 6590POPC   C1B29875  22.113  41.334   8.550
 6590POPC   C2B29876  22.075  41.328   8.250
 6590POPC   C3B29877  22.082  41.351   7.950
 6590POPC   C4B29878  22.118  41.272   7.650
 6591POPC   NC329879  36.879  12.899   9.450
 6591POPC   PO429880  36.942  12.821   9.150
 6591POPC   GL129881  36.881  12.815   8.850
 6591POPC   GL229882  37.062  12.803   8.850
 6591POPC   C1A29883  36.877  12.850   8.550
 6591POPC   D2A29884  36.938  12.884   8.250
 6591POPC   C3A29885  36.864  12.809   7.950
 6591POPC   C4A29886  36.862  12.890   7.650
 6591POPC   C1B29887  37.176  12.851   8.550
 6591POPC   C2B29888  37.153  12.805   8.250
 6591POPC   C3B29889  37.130  12.816   7.950
 6591POPC   C4B29890  37.186  12.809   7.650
 6592POPC   NC329891  15.204  19.841   9.450
 6592POPC   PO429892  15.153  19.798   9.150
 6592POPC   GL129893  15.176  19.876   8.850
 6592POPC   GL229894  15.192  19.977   8.850
 6592POPC   C1A29895  15.204  19.854   8.550
 6592POPC   D2A29896  15.154  19.877   8.250
 6592POPC   C3A29897  15.169  19.828   7.950
 6592POPC   C4A29898  15.212  19.867   7.650
 6592POPC   C1B29899  15.140  20.039   8.550
 6592POPC   C2B29900  15.203  20.106   8.250
 6592POPC   C3B29901  15.211  20.079   7.950
 6592POPC   C4B29902  15.173  20.120   7.650
 6593POPC   NC329903   6.669  19.815   9.450
 6593POPC   PO429904   6.646  19.864   9.150
 6593POPC   GL129905   6.682  19.821   8.850
 6593POPC   GL229906   6.734  19.776   8.850
 6593POPC   C1A29907   6.656  19.857   8.550
 6593POPC   D2A29908   6.657  19.792   8.250
 6593POPC   C3A29909   6.607  19.794   7.950
 6593POPC   C4A29910   6.682  19.883   7.650
 6593POPC   C1B29911   6.922  19.725   8.550
 6593POPC   C2B29912   6.914  19.784   8.250
 6593POPC   C3B29913   6.847  19.756   7.950
 6593POPC   C4B29914   6.891  19.753   7.650
 6594POPC   NC329915   0.485  39.188   9.450
 6594POPC   PO429916   0.394  39.260   9.150
 6594POPC   GL129917   0.408  39.255   8.850
 6594POPC   GL229918   0.486  39.117   8.850
 6594POPC   C1A29919   0.486  39.275   8.550
 6594POPC   D2A29920   0.397  39.232   8.250
 6594POPC   C3A29921   0.411  39.195   7.950
 6594POPC   C4A29922   0.472  39.205   7.650
 6594POPC   C1B29923   0.550  39.035   8.550
 6594POPC   C2B29924   0.595  39.027   8.250
 6594POPC   C3B29925   0.559  39.045   7.950
 6594POPC   C4B29926   0.565  39.006   7.650
 6595POPC   NC329927  20.592  14.363   9.450
 6595POPC   PO429928  20.564  14.396   9.150
 6595POPC   GL129929  20.604  14.397   8.850
 6595POPC   GL229930  20.491  14.309   8.850
 6595POPC   C1A29931  20.611  14.397   8.550
 6595POPC   D2A29932  20.618  14.425   8.250
 6595POPC   C3A29933  20.562  14.407   7.950
 6595POPC   C4A29934  20.564  14.422   7.650
 6595POPC   C1B29935  20.392  14.266   8.550
 6595POPC   C2B29936  20.416  14.317   8.250
 6595POPC   C3B29937  20.352  14.304   7.950
 6595POPC   C4B29938  20.410  14.313   7.650
 6596POPC   NC329939  32.285  12.095   9.450
 6596POPC   PO429940  32.292  12.113   9.150
 6596POPC   GL129941  32.265  12.091   8.850
 6596POPC   GL229942  32.132  12.183   8.850
 6596POPC   C1A29943  32.264  12.118   8.550
 6596POPC   D2A29944  32.286  12.071   8.250
 6596POPC   C3A29945  32.241  12.084   7.950
 6596POPC   C4A29946  32.200  12.083   7.650
 6596POPC   C1B29947  32.094  12.273   8.550
 6596POPC   C2B29948  32.143  12.253   8.250
 6596POPC   C3B29949  32.101  12.298   7.950
 6596POPC   C4B29950  32.075  12.258   7.650
 6597POPC   NC329951   4.365  44.621   9.450
 6597POPC   PO429952   4.280  44.690   9.150
 6597POPC   GL129953   4.284  44.694   8.850
 6597POPC   GL229954   4.336  44.564   8.850
 6597POPC   C1A29955   4.301  44.626   8.550
 6597POPC   D2A29956   4.344  44.699   8.250
 6597POPC   C3A29957   4.348  44.662   7.950
 6597POPC   C4A29958   4.308  44.678   7.650
 6597POPC   C1B29959   4.322  44.366   8.550
 6597POPC   C2B29960   4.278  44.431   8.250
 6597POPC   C3B29961   4.287  44.445   7.950
 6597POPC   C4B29962   4.267  44.413   7.650
 6598POPC   NC329963  35.374  21.432   9.450
 6598POPC   PO429964  35.342  21.365   9.150
 6598POPC   GL129965  35.376  21.429   8.850
 6598POPC   GL229966  35.416  21.496   8.850
 6598POPC   C1A29967  35.355  21.381   8.550
 6598POPC   D2A29968  35.340  21.396   8.250
 6598POPC   C3A29969  35.305  21.342   7.950
 6598POPC   C4A29970  35.360  21.353   7.650
 6598POPC   C1B29971  35.480  21.631   8.550
 6598POPC   C2B29972  35.420  21.580   8.250
 6598POPC   C3B29973  35.426  21.623   7.950
 6598POPC   C4B29974  35.448  21.620   7.650
 6599POPC   NC329975  41.534  35.355   9.450
 6599POPC   PO429976  41.560  35.329   9.150
 6599POPC   GL129977  41.597  35.354   8.850
 6599POPC   GL229978  41.561  35.485   8.850
 6599POPC   C1A29979  41.573  35.374   8.550
 6599POPC   D2A29980  41.528  35.378   8.250
 6599POPC   C3A29981  41.608  35.324   7.950
 6599POPC   C4A29982  41.606  35.330   7.650
 6599POPC   C1B29983  41.572  35.599   8.550
 6599POPC   C2B29984  41.540  35.610   8.250
 6599POPC   C3B29985  41.548  35.577   7.950
 6599POPC   C4B29986  41.614  35.632   7.650
 6600POPC   NC329987  14.399  14.425   9.450
 6600POPC   PO429988  14.368  14.390   9.150
 6600POPC   GL129989  14.431  14.384   8.850
 6600POPC   GL229990  14.318  14.399   8.850
 6600POPC   C1A29991  14.393  14.414   8.550
 6600POPC   D2A29992  14.447  14.390   8.250
 6600POPC   C3A29993  14.437  14.383   7.950
 6600POPC   C4A29994  14.368  14.386   7.650
 6600POPC   C1B29995  14.152  14.480   8.550
 6600POPC   C2B29996  14.149  14.489   8.250
 6600POPC   C3B29997  14.162  14.477   7.950
 6600POPC   C4B29998  14.209  14.449   7.650
 6601POPC   NC329999  14.439  11.312   9.450
 6601POPC   PO430000  14.406  11.273   9.150
 6601POPC   GL130001  14.408  11.332   8.850
 6601POPC   GL230002  14.528  11.352   8.850
 6601POPC   C1A30003  14.389  11.299   8.550
 6601POPC   D2A30004  14.374  11.304   8.250
 6601POPC   C3A30005  14.443  11.320   7.950
 6601POPC   C4A30006  14.379  11.298   7.650
 6601POPC   C1B30007  14.588  11.461   8.550
 6601POPC   C2B30008  14.603  11.425   8.250
 6601POPC   C3B30009  14.598  11.495   7.950
 6601POPC   C4B30010  14.638  11.464   7.650
 6602POPC   NC330011  10.495  36.871   9.450
 6602POPC   PO430012  10.509  36.908   9.150
 6602POPC   GL130013  10.534  36.884   8.850
 6602POPC   GL230014  10.450  37.044   8.850
 6602POPC   C1A30015  10.475  36.883   8.550
 6602POPC   D2A30016  10.500  36.877   8.250
 6602POPC   C3A30017  10.487  36.908   7.950
 6602POPC   C4A30018  10.532  36.939   7.650
 6602POPC   C1B30019  10.366  37.073   8.550
 6602POPC   C2B30020  10.419  37.155   8.250
 6602POPC   C3B30021  10.437  37.150   7.950
 6602POPC   C4B30022  10.361  37.131   7.650
 6603POPC   NC330023  41.559   2.776   9.450
 6603POPC   PO430024  41.516   2.726   9.150
 6603POPC   GL130025  41.556   2.718   8.850
 6603POPC   GL230026  41.490   2.813   8.850
 6603POPC   C1A30027  41.591   2.805   8.550
 6603POPC   D2A30028  41.603   2.746   8.250
 6603POPC   C3A30029  41.509   2.776   7.950
 6603POPC   C4A30030  41.510   2.802   7.650
 6603POPC   C1B30031  41.405   2.963   8.550
 6603POPC   C2B30032  41.420   2.906   8.250
 6603POPC   C3B30033  41.350   2.936   7.950
 6603POPC   C4B30034  41.428   2.975   7.650
 6604POPC   NC330035  22.183   0.450   9.450
 6604POPC   PO430036  22.196   0.478   9.150
 6604POPC   GL130037  22.195   0.463   8.850
 6604POPC   GL230038  22.222   0.517   8.850
 6604POPC   C1A30039  22.159   0.433   8.550
 6604POPC   D2A30040  22.191   0.424   8.250
 6604POPC   C3A30041  22.199   0.423   7.950
 6604POPC   C4A30042  22.140   0.394   7.650
 6604POPC   C1B30043  22.294   0.617   8.550
 6604POPC   C2B30044  22.335   0.630   8.250
 6604POPC   C3B30045  22.271   0.672   7.950
 6604POPC   C4B30046  22.314   0.623   7.650
 6605POPC   NC330047  40.026  20.615   9.450
 6605POPC   PO430048  40.024  20.614   9.150
 6605POPC   GL130049  39.980  20.577   8.850
 6605POPC   GL230050  40.081  20.696   8.850
 6605POPC   C1A30051  40.046  20.596   8.550
 6605POPC   D2A30052  40.031  20.653   8.250
 6605POPC   C3A30053  39.988  20.596   7.950
 6605POPC   C4A30054  40.023  20.620   7.650
 6605POPC   C1B30055  40.201  20.708   8.550
 6605POPC   C2B30056  40.202  20.679   8.250
 6605POPC   C3B30057  40.239  20.684   7.950
 6605POPC   C4B30058  40.208  20.639   7.650
 6606POPC   NC330059  18.308  14.387   9.450
 6606POPC   PO430060  18.282  14.381   9.150
 6606POPC   GL130061  18.255  14.420   8.850
 6606POPC   GL230062  18.362  14.341   8.850
 6606POPC   C1A30063  18.327  14.377   8.550
 6606POPC   D2A30064  18.296  14.412   8.250
 6606POPC   C3A30065  18.235  14.374   7.950
 6606POPC   C4A30066  18.318  14.424   7.650
 6606POPC   C1B30067  18.563  14.309   8.550
 6606POPC   C2B30068  18.466  14.332   8.250
 6606POPC   C3B30069  18.491  14.354   7.950
 6606POPC   C4B30070  18.507  14.299   7.650
 6607POPC   NC330071  23.738   2.782   9.450
 6607POPC   PO430072  23.743   2.783   9.150
 6607POPC   GL130073  23.751   2.794   8.850
 6607POPC   GL230074  23.658   2.878   8.850
 6607POPC   C1A30075  23.681   2.790   8.550
 6607POPC   D2A30076  23.729   2.792   8.250
 6607POPC   C3A30077  23.724   2.756   7.950
 6607POPC   C4A30078  23.742   2.749   7.650
 6607POPC   C1B30079  23.612   3.031   8.550
 6607POPC   C2B30080  23.595   2.973   8.250
 6607POPC   C3B30081  23.654   3.018   7.950
 6607POPC   C4B30082  23.576   3.015   7.650
 6608POPC   NC330083   0.471  18.312   9.450
 6608POPC   PO430084   0.433  18.322   9.150
 6608POPC   GL130085   0.484  18.303   8.850
 6608POPC   GL230086   0.457  18.416   8.850
 6608POPC   C1A30087   0.472  18.307   8.550
 6608POPC   D2A30088   0.456  18.276   8.250
 6608POPC   C3A30089   0.457  18.297   7.950
 6608POPC   C4A30090   0.461  18.248   7.650
 6608POPC   C1B30091   0.613  18.489   8.550
 6608POPC   C2B30092   0.580  18.521   8.250
 6608POPC   C3B30093   0.603  18.507   7.950
 6608POPC   C4B30094   0.610  18.445   7.650
 6609POPC   NC330095   5.823  43.926   9.450
 6609POPC   PO430096   5.867  43.861   9.150
 6609POPC   GL130097   5.884  43.914   8.850
 6609POPC   GL230098   5.862  44.032   8.850
 6609POPC   C1A30099   5.844  43.932   8.550
 6609POPC   D2A30100   5.908  43.923   8.250
 6609POPC   C3A30101   5.868  43.859   7.950
 6609POPC   C4A30102   5.899  43.919   7.650
 6609POPC   C1B30103   5.947  44.120   8.550
 6609POPC   C2B30104   5.897  44.088   8.250
 6609POPC   C3B30105   5.954  44.113   7.950
 6609POPC   C4B30106   5.909  44.093   7.650
 6610POPC   NC330107   8.206   0.460   9.450
 6610POPC   PO430108   8.237   0.455   9.150
 6610POPC   GL130109   8.232   0.414   8.850
 6610POPC   GL230110   8.165   0.513   8.850
 6610POPC   C1A30111   8.195   0.463   8.550
 6610POPC   D2A30112   8.163   0.467   8.250
 6610POPC   C3A30113   8.168   0.409   7.950
 6610POPC   C4A30114   8.188   0.477   7.650
 6610POPC   C1B30115   8.160   0.709   8.550
 6610POPC   C2B30116   8.174   0.681   8.250
 6610POPC   C3B30117   8.200   0.699   7.950
 6610POPC   C4B30118   8.192   0.690   7.650
 6611POPC   NC330119  15.198  12.067   9.450
 6611POPC   PO430120  15.181  12.092   9.150
 6611POPC   GL130121  15.214  12.075   8.850
 6611POPC   GL230122  15.154  12.248   8.850
 6611POPC   C1A30123  15.133  12.089   8.550
 6611POPC   D2A30124  15.213  12.119   8.250
 6611POPC   C3A30125  15.137  12.044   7.950
 6611POPC   C4A30126  15.153  12.118   7.650
 6611POPC   C1B30127  15.166  12.364   8.550
 6611POPC   C2B30128  15.164  12.316   8.250
 6611POPC   C3B30129  15.142  12.363   7.950
 6611POPC   C4B30130  15.121  12.313   7.650
 6612POPC   NC330131  39.202  36.890   9.450
 6612POPC   PO430132  39.280  36.878   9.150
 6612POPC   GL130133  39.217  36.873   8.850
 6612POPC   GL230134  39.236  37.017   8.850
 6612POPC   C1A30135  39.271  36.874   8.550
 6612POPC   D2A30136  39.211  36.860   8.250
 6612POPC   C3A30137  39.258  36.916   7.950
 6612POPC   C4A30138  39.231  36.898   7.650
 6612POPC   C1B30139  39.132  37.190   8.550
 6612POPC   C2B30140  39.176  37.142   8.250
 6612POPC   C3B30141  39.191  37.144   7.950
 6612POPC   C4B30142  39.151  37.100   7.650
 6613POPC   NC330143  29.904  43.837   9.450
 6613POPC   PO430144  29.903  43.857   9.150
 6613POPC   GL130145  29.923  43.876   8.850
 6613POPC   GL230146  29.861  44.017   8.850
 6613POPC   C1A30147  29.924  43.905   8.550
 6613POPC   D2A30148  29.926  43.902   8.250
 6613POPC   C3A30149  29.955  43.864   7.950
 6613POPC   C4A30150  29.953  43.838   7.650
 6613POPC   C1B30151  29.839  44.126   8.550
 6613POPC   C2B30152  29.831  44.140   8.250
 6613POPC   C3B30153  29.825  44.083   7.950
 6613POPC   C4B30154  29.872  44.116   7.650
 6614POPC   NC330155  37.684  41.560   9.450
 6614POPC   PO430156  37.682  41.579   9.150
 6614POPC   GL130157  37.724  41.549   8.850
 6614POPC   GL230158  37.539  41.445   8.850
 6614POPC   C1A30159  37.665  41.547   8.550
 6614POPC   D2A30160  37.651  41.571   8.250
 6614POPC   C3A30161  37.644  41.580   7.950
 6614POPC   C4A30162  37.657  41.566   7.650
 6614POPC   C1B30163  37.467  41.371   8.550
 6614POPC   C2B30164  37.507  41.376   8.250
 6614POPC   C3B30165  37.471  41.421   7.950
 6614POPC   C4B30166  37.504  41.383   7.650
 6615POPC   NC330167  33.818  18.251   9.450
 6615POPC   PO430168  33.781  18.305   9.150
 6615POPC   GL130169  33.785  18.249   8.850
 6615POPC   GL230170  33.948  18.215   8.850
 6615POPC   C1A30171  33.819  18.255   8.550
 6615POPC   D2A30172  33.794  18.245   8.250
 6615POPC   C3A30173  33.829  18.290   7.950
 6615POPC   C4A30174  33.785  18.238   7.650
 6615POPC   C1B30175  34.052  18.243   8.550
 6615POPC   C2B30176  34.050  18.237   8.250
 6615POPC   C3B30177  34.087  18.256   7.950
 6615POPC   C4B30178  34.015  18.216   7.650
 6616POPC   NC330179  26.790   0.476   9.450
 6616POPC   PO430180  26.846   0.461   9.150
 6616POPC   GL130181  26.867   0.466   8.850
 6616POPC   GL230182  26.801   0.610   8.850
 6616POPC   C1A30183  26.834   0.429   8.550
 6616POPC   D2A30184  26.833   0.430   8.250
 6616POPC   C3A30185  26.835   0.445   7.950
 6616POPC   C4A30186  26.850   0.458   7.650
 6616POPC   C1B30187  26.865   0.722   8.550
 6616POPC   C2B30188  26.817   0.643   8.250
 6616POPC   C3B30189  26.855   0.691   7.950
 6616POPC   C4B30190  26.831   0.648   7.650
 6617POPC   NC330191   9.794  42.352   9.450
 6617POPC   PO430192   9.725  42.303   9.150
 6617POPC   GL130193   9.741  42.375   8.850
 6617POPC   GL230194   9.633  42.406   8.850
 6617POPC   C1A30195   9.752  42.295   8.550
 6617POPC   D2A30196   9.742  42.369   8.250
 6617POPC   C3A30197   9.715  42.358   7.950
 6617POPC   C4A30198   9.794  42.293   7.650
 6617POPC   C1B30199   9.561  42.512   8.550
 6617POPC   C2B30200   9.539  42.527   8.250
 6617POPC   C3B30201   9.593  42.475   7.950
 6617POPC   C4B30202   9.517  42.450   7.650
 6618POPC   NC330203   5.059   3.512   9.450
 6618POPC   PO430204   5.085   3.505   9.150
 6618POPC   GL130205   5.101   3.560   8.850
 6618POPC   GL230206   5.147   3.444   8.850
 6618POPC   C1A30207   5.084   3.526   8.550
 6618POPC   D2A30208   5.088   3.544   8.250
 6618POPC   C3A30209   5.066   3.563   7.950
 6618POPC   C4A30210   5.097   3.562   7.650
 6618POPC   C1B30211   5.267   3.337   8.550
 6618POPC   C2B30212   5.283   3.296   8.250
 6618POPC   C3B30213   5.290   3.373   7.950
 6618POPC   C4B30214   5.288   3.292   7.650
 6619POPC   NC330215  35.315  25.272   9.450
 6619POPC   PO430216  35.394  25.252   9.150
 6619POPC   GL130217  35.356  25.262   8.850
 6619POPC   GL230218  35.323  25.121   8.850
 6619POPC   C1A30219  35.395  25.246   8.550
 6619POPC   D2A30220  35.371  25.310   8.250
 6619POPC   C3A30221  35.303  25.315   7.950
 6619POPC   C4A30222  35.323  25.238   7.650
 6619POPC   C1B30223  35.231  25.016   8.550
 6619POPC   C2B30224  35.234  25.112   8.250
 6619POPC   C3B30225  35.159  25.018   7.950
 6619POPC   C4B30226  35.162  25.049   7.650
 6620POPC   NC330227  33.796  39.196   9.450
 6620POPC   PO430228  33.755  39.190   9.150
 6620POPC   GL130229  33.818  39.246   8.850
 6620POPC   GL230230  33.774  39.367   8.850
 6620POPC   C1A30231  33.841  39.236   8.550
 6620POPC   D2A30232  33.849  39.193   8.250
 6620POPC   C3A30233  33.769  39.230   7.950
 6620POPC   C4A30234  33.774  39.241   7.650
 6620POPC   C1B30235  33.871  39.477   8.550
 6620POPC   C2B30236  33.869  39.493   8.250
 6620POPC   C3B30237  33.874  39.460   7.950
 6620POPC   C4B30238  33.831  39.525   7.650
 6621POPC   NC330239  38.502  12.026   9.450
 6621POPC   PO430240  38.452  12.029   9.150
 6621POPC   GL130241  38.420  12.045   8.850
 6621POPC   GL230242  38.384  12.144   8.850
 6621POPC   C1A30243  38.449  12.121   8.550
 6621POPC   D2A30244  38.448  12.114   8.250
 6621POPC   C3A30245  38.429  12.051   7.950
 6621POPC   C4A30246  38.431  12.035   7.650
 6621POPC   C1B30247  38.216  12.153   8.550
 6621POPC   C2B30248  38.273  12.162   8.250
 6621POPC   C3B30249  38.277  12.150   7.950
 6621POPC   C4B30250  38.191  12.146   7.650
 6622POPC   NC330251  23.683  44.633   9.450
 6622POPC   PO430252  23.717  44.705   9.150
 6622POPC   GL130253  23.717  44.668   8.850
 6622POPC   GL230254  23.572  44.741   8.850
 6622POPC   C1A30255  23.704  44.671   8.550
 6622POPC   D2A30256  23.665  44.702   8.250
 6622POPC   C3A30257  23.704  44.617   7.950
 6622POPC   C4A30258  23.727  44.672   7.650
 6622POPC   C1B30259  23.457  44.771   8.550
 6622POPC   C2B30260  23.527  44.784   8.250
 6622POPC   C3B30261  23.484  44.793   7.950
 6622POPC   C4B30262  23.442  44.749   7.650
 6623POPC   NC330263  29.937  26.806   9.450
 6623POPC   PO430264  29.890  26.860   9.150
 6623POPC   GL130265  29.939  26.848   8.850
 6623POPC   GL230266  29.882  26.929   8.850
 6623POPC   C1A30267  29.957  26.817   8.550
 6623POPC   D2A30268  29.881  26.772   8.250
 6623POPC   C3A30269  29.959  26.781   7.950
 6623POPC   C4A30270  29.875  26.846   7.650
 6623POPC   C1B30271  29.838  27.101   8.550
 6623POPC   C2B30272  29.840  27.064   8.250
 6623POPC   C3B30273  29.848  27.037   7.950
 6623POPC   C4B30274  29.835  27.013   7.650
 6624POPC   NC330275  34.623  25.260   9.450
 6624POPC   PO430276  34.547  25.302   9.150
 6624POPC   GL130277  34.602  25.271   8.850
 6624POPC   GL230278  34.696  25.283   8.850
 6624POPC   C1A30279  34.612  25.308   8.550
 6624POPC   D2A30280  34.541  25.253   8.250
 6624POPC   C3A30281  34.529  25.256   7.950
 6624POPC   C4A30282  34.586  25.245   7.650
 6624POPC   C1B30283  34.809  25.331   8.550
 6624POPC   C2B30284  34.853  25.352   8.250
 6624POPC   C3B30285  34.822  25.380   7.950
 6624POPC   C4B30286  34.785  25.385   7.650
 6625POPC   NC330287  12.862  17.553   9.450
 6625POPC   PO430288  12.871  17.473   9.150
 6625POPC   GL130289  12.894  17.543   8.850
 6625POPC   GL230290  12.768  17.560   8.850
 6625POPC   C1A30291  12.855  17.514   8.550
 6625POPC   D2A30292  12.891  17.545   8.250
 6625POPC   C3A30293  12.858  17.499   7.950
 6625POPC   C4A30294  12.830  17.508   7.650
 6625POPC   C1B30295  12.665  17.688   8.550
 6625POPC   C2B30296  12.716  17.674   8.250
 6625POPC   C3B30297  12.655  17.668   7.950
 6625POPC   C4B30298  12.749  17.675   7.650
 6626POPC   NC330299  12.108  29.913   9.450
 6626POPC   PO430300  12.113  29.916   9.150
 6626POPC   GL130301  12.080  29.965   8.850
 6626POPC   GL230302  12.225  29.995   8.850
 6626POPC   C1A30303  12.081  29.873   8.550
 6626POPC   D2A30304  12.114  29.892   8.250
 6626POPC   C3A30305  12.094  29.929   7.950
 6626POPC   C4A30306  12.026  29.953   7.650
 6626POPC   C1B30307  12.331  30.014   8.550
 6626POPC   C2B30308  12.353  29.937   8.250
 6626POPC   C3B30309  12.355  30.004   7.950
 6626POPC   C4B30310  12.273  29.971   7.650
 6627POPC   NC330311  34.591  22.909   9.450
 6627POPC   PO430312  34.603  22.986   9.150
 6627POPC   GL130313  34.592  22.898   8.850
 6627POPC   GL230314  34.518  23.037   8.850
 6627POPC   C1A30315  34.591  22.922   8.550
 6627POPC   D2A30316  34.618  22.911   8.250
 6627POPC   C3A30317  34.543  22.897   7.950
 6627POPC   C4A30318  34.561  22.892   7.650
 6627POPC   C1B30319  34.509  23.136   8.550
 6627POPC   C2B30320  34.475  23.159   8.250
 6627POPC   C3B30321  34.475  23.220   7.950
 6627POPC   C4B30322  34.481  23.168   7.650
 6628POPC   NC330323   8.972  30.737   9.450
 6628POPC   PO430324   8.962  30.671   9.150
 6628POPC   GL130325   9.005  30.654   8.850
 6628POPC   GL230326   9.094  30.627   8.850
 6628POPC   C1A30327   9.021  30.670   8.550
 6628POPC   D2A30328   8.925  30.715   8.250
 6628POPC   C3A30329   9.019  30.716   7.950
 6628POPC   C4A30330   9.021  30.744   7.650
 6628POPC   C1B30331   9.172  30.465   8.550
 6628POPC   C2B30332   9.169  30.517   8.250
 6628POPC   C3B30333   9.106  30.486   7.950
 6628POPC   C4B30334   9.096  30.491   7.650
 6629POPC   NC330335   2.009  42.295   9.450
 6629POPC   PO430336   1.988  42.334   9.150
 6629POPC   GL130337   2.020  42.377   8.850
 6629POPC   GL230338   2.135  42.258   8.850
 6629POPC   C1A30339   1.986  42.320   8.550
 6629POPC   D2A30340   1.967  42.287   8.250
 6629POPC   C3A30341   1.986  42.286   7.950
 6629POPC   C4A30342   2.003  42.369   7.650
 6629POPC   C1B30343   2.208  42.263   8.550
 6629POPC   C2B30344   2.231  42.263   8.250
 6629POPC   C3B30345   2.184  42.199   7.950
 6629POPC   C4B30346   2.263  42.216   7.650
 6630POPC   NC330347   7.410  40.024   9.450
 6630POPC   PO430348   7.453  39.985   9.150
 6630POPC   GL130349   7.456  40.003   8.850
 6630POPC   GL230350   7.277  40.080   8.850
 6630POPC   C1A30351   7.371  39.964   8.550
 6630POPC   D2A30352   7.438  40.025   8.250
 6630POPC   C3A30353   7.436  40.039   7.950
 6630POPC   C4A30354   7.384  39.985   7.650
 6630POPC   C1B30355   7.152  40.116   8.550
 6630POPC   C2B30356   7.155  40.027   8.250
 6630POPC   C3B30357   7.210  40.043   7.950
 6630POPC   C4B30358   7.208  40.054   7.650
 6631POPC   NC330359  37.666  40.817   9.450
 6631POPC   PO430360  37.654  40.799   9.150
 6631POPC   GL130361  37.690  40.820   8.850
 6631POPC   GL230362  37.546  40.739   8.850
 6631POPC   C1A30363  37.682  40.781   8.550
 6631POPC   D2A30364  37.703  40.797   8.250
 6631POPC   C3A30365  37.709  40.749   7.950
 6631POPC   C4A30366  37.723  40.740   7.650
 6631POPC   C1B30367  37.458  40.798   8.550
 6631POPC   C2B30368  37.473  40.748   8.250
 6631POPC   C3B30369  37.402  40.781   7.950
 6631POPC   C4B30370  37.437  40.769   7.650
 6632POPC   NC330371   2.031  26.813   9.450
 6632POPC   PO430372   2.029  26.817   9.150
 6632POPC   GL130373   2.033  26.774   8.850
 6632POPC   GL230374   2.090  26.860   8.850
 6632POPC   C1A30375   1.964  26.860   8.550
 6632POPC   D2A30376   1.956  26.830   8.250
 6632POPC   C3A30377   1.986  26.829   7.950
 6632POPC   C4A30378   1.959  26.814   7.650
 6632POPC   C1B30379   2.249  26.900   8.550
 6632POPC   C2B30380   2.209  26.899   8.250
 6632POPC   C3B30381   2.258  26.865   7.950
 6632POPC   C4B30382   2.185  26.874   7.650
 6633POPC   NC330383   1.252  19.101   9.450
 6633POPC   PO430384   1.214  19.061   9.150
 6633POPC   GL130385   1.165  19.090   8.850
 6633POPC   GL230386   1.129  18.982   8.850
 6633POPC   C1A30387   1.187  19.013   8.550
 6633POPC   D2A30388   1.259  19.076   8.250
 6633POPC   C3A30389   1.246  19.084   7.950
 6633POPC   C4A30390   1.173  19.032   7.650
 6633POPC   C1B30391   0.992  18.845   8.550
 6633POPC   C2B30392   1.061  18.908   8.250
 6633POPC   C3B30393   0.988  18.838   7.950
 6633POPC   C4B30394   1.006  18.860   7.650
 6634POPC   NC330395  17.490  32.978   9.450
 6634POPC   PO430396  17.490  33.033   9.150
 6634POPC   GL130397  17.506  33.046   8.850
 6634POPC   GL230398  17.539  32.914   8.850
 6634POPC   C1A30399  17.489  33.070   8.550
 6634POPC   D2A30400  17.512  33.054   8.250
 6634POPC   C3A30401  17.488  33.062   7.950
 6634POPC   C4A30402  17.549  33.018   7.650
 6634POPC   C1B30403  17.679  32.818   8.550
 6634POPC   C2B30404  17.627  32.783   8.250
 6634POPC   C3B30405  17.668  32.849   7.950
 6634POPC   C4B30406  17.669  32.814   7.650
 6635POPC   NC330407  20.577  16.749   9.450
 6635POPC   PO430408  20.568  16.709   9.150
 6635POPC   GL130409  20.630  16.685   8.850
 6635POPC   GL230410  20.495  16.788   8.850
 6635POPC   C1A30411  20.609  16.681   8.550
 6635POPC   D2A30412  20.621  16.741   8.250
 6635POPC   C3A30413  20.571  16.692   7.950
 6635POPC   C4A30414  20.590  16.734   7.650
 6635POPC   C1B30415  20.447  16.901   8.550
 6635POPC   C2B30416  20.430  16.948   8.250
 6635POPC   C3B30417  20.400  16.964   7.950
 6635POPC   C4B30418  20.463  16.896   7.650
 6636POPC   NC330419  22.116  26.045   9.450
 6636POPC   PO430420  22.159  26.059   9.150
 6636POPC   GL130421  22.137  26.058   8.850
 6636POPC   GL230422  22.238  26.023   8.850
 6636POPC   C1A30423  22.140  25.997   8.550
 6636POPC   D2A30424  22.129  26.083   8.250
 6636POPC   C3A30425  22.138  26.044   7.950
 6636POPC   C4A30426  22.122  26.059   7.650
 6636POPC   C1B30427  22.421  25.936   8.550
 6636POPC   C2B30428  22.371  25.961   8.250
 6636POPC   C3B30429  22.405  26.005   7.950
 6636POPC   C4B30430  22.370  26.016   7.650
 6637POPC   NC330431   2.806   1.984   9.450
 6637POPC   PO430432   2.761   2.018   9.150
 6637POPC   GL130433   2.761   2.017   8.850
 6637POPC   GL230434   2.753   1.838   8.850
 6637POPC   C1A30435   2.755   1.949   8.550
 6637POPC   D2A30436   2.798   2.010   8.250
 6637POPC   C3A30437   2.799   1.974   7.950
 6637POPC   C4A30438   2.752   2.019   7.650
 6637POPC   C1B30439   2.753   1.735   8.550
 6637POPC   C2B30440   2.759   1.720   8.250
 6637POPC   C3B30441   2.800   1.695   7.950
 6637POPC   C4B30442   2.769   1.718   7.650
 6638POPC   NC330443  15.933  37.669   9.450
 6638POPC   PO430444  15.940  37.646   9.150
 6638POPC   GL130445  15.923  37.676   8.850
 6638POPC   GL230446  15.971  37.564   8.850
 6638POPC   C1A30447  15.945  37.681   8.550
 6638POPC   D2A30448  15.912  37.660   8.250
 6638POPC   C3A30449  15.953  37.651   7.950
 6638POPC   C4A30450  15.946  37.680   7.650
 6638POPC   C1B30451  15.952  37.438   8.550
 6638POPC   C2B30452  15.978  37.414   8.250
 6638POPC   C3B30453  15.998  37.390   7.950
 6638POPC   C4B30454  16.006  37.483   7.650
 6639POPC   NC330455  32.292   5.852   9.450
 6639POPC   PO430456  32.231   5.840   9.150
 6639POPC   GL130457  32.235   5.830   8.850
 6639POPC   GL230458  32.338   5.977   8.850
 6639POPC   C1A30459  32.280   5.874   8.550
 6639POPC   D2A30460  32.212   5.914   8.250
 6639POPC   C3A30461  32.244   5.855   7.950
 6639POPC   C4A30462  32.204   5.863   7.650
 6639POPC   C1B30463  32.409   6.080   8.550
 6639POPC   C2B30464  32.466   6.040   8.250
 6639POPC   C3B30465  32.439   6.011   7.950
 6639POPC   C4B30466  32.452   6.035   7.650
 6640POPC   NC330467  43.138  15.915   9.450
 6640POPC   PO430468  43.087  15.975   9.150
 6640POPC   GL130469  43.142  15.977   8.850
 6640POPC   GL230470  43.196  15.901   8.850
 6640POPC   C1A30471  43.071  15.983   8.550
 6640POPC   D2A30472  43.074  15.988   8.250
 6640POPC   C3A30473  43.073  15.973   7.950
 6640POPC   C4A30474  43.086  15.964   7.650
 6640POPC   C1B30475  43.312  15.883   8.550
 6640POPC   C2B30476  43.309  15.867   8.250
 6640POPC   C3B30477  43.395  15.906   7.950
 6640POPC   C4B30478  43.373  15.862   7.650
 6641POPC   NC330479  22.900   0.397   9.450
 6641POPC   PO430480  22.973   0.478   9.150
 6641POPC   GL130481  22.914   0.399   8.850
 6641POPC   GL230482  22.952   0.328   8.850
 6641POPC   C1A30483  22.906   0.465   8.550
 6641POPC   D2A30484  22.927   0.467   8.250
 6641POPC   C3A30485  22.897   0.407   7.950
 6641POPC   C4A30486  22.923   0.404   7.650
 6641POPC   C1B30487  23.074   0.181   8.550
 6641POPC   C2B30488  23.044   0.259   8.250
 6641POPC   C3B30489  23.081   0.190   7.950
 6641POPC   C4B30490  23.050   0.165   7.650
 6642POPC   NC330491   9.739  22.936   9.450
 6642POPC   PO430492   9.748  22.921   9.150
 6642POPC   GL130493   9.754  22.901   8.850
 6642POPC   GL230494   9.608  22.941   8.850
 6642POPC   C1A30495   9.708  22.984   8.550
 6642POPC   D2A30496   9.774  22.964   8.250
 6642POPC   C3A30497   9.720  22.897   7.950
 6642POPC   C4A30498   9.733  22.891   7.650
 6642POPC   C1B30499   9.527  22.907   8.550
 6642POPC   C2B30500   9.539  22.906   8.250
 6642POPC   C3B30501   9.498  22.967   7.950
 6642POPC   C4B30502   9.514  22.990   7.650
 6643POPC   NC330503  19.066  21.371   9.450
 6643POPC   PO430504  19.084  21.387   9.150
 6643POPC   GL130505  19.036  21.400   8.850
 6643POPC   GL230506  18.903  21.341   8.850
 6643POPC   C1A30507  19.094  21.361   8.550
 6643POPC   D2A30508  19.039  21.366   8.250
 6643POPC   C3A30509  19.032  21.367   7.950
 6643POPC   C4A30510  19.069  21.366   7.650
 6643POPC   C1B30511  18.775  21.353   8.550
 6643POPC   C2B30512  18.812  21.381   8.250
 6643POPC   C3B30513  18.852  21.369   7.950
 6643POPC   C4B30514  18.771  21.371   7.650
 6644POPC   NC330515  42.316  41.575   9.450
 6644POPC   PO430516  42.332  41.563   9.150
 6644POPC   GL130517  42.316  41.514   8.850
 6644POPC   GL230518  42.455  41.627   8.850
 6644POPC   C1A30519  42.384  41.522   8.550
 6644POPC   D2A30520  42.353  41.581   8.250
 6644POPC   C3A30521  42.328  41.563   7.950
 6644POPC   C4A30522  42.355  41.601   7.650
 6644POPC   C1B30523  42.433  41.783   8.550
 6644POPC   C2B30524  42.447  41.800   8.250
 6644POPC   C3B30525  42.476  41.778   7.950
 6644POPC   C4B30526  42.461  41.770   7.650
 6645POPC   NC330527   5.101  20.579   9.450
 6645POPC   PO430528   5.126  20.572   9.150
 6645POPC   GL130529   5.118  20.581   8.850
 6645POPC   GL230530   4.928  20.602   8.850
 6645POPC   C1A30531   5.116  20.611   8.550
 6645POPC   D2A30532   5.049  20.565   8.250
 6645POPC   C3A30533   5.100  20.597   7.950
 6645POPC   C4A30534   5.102  20.609   7.650
 6645POPC   C1B30535   4.876  20.544   8.550
 6645POPC   C2B30536   4.876  20.515   8.250
 6645POPC   C3B30537   4.856  20.569   7.950
 6645POPC   C4B30538   4.879  20.502   7.650
 6646POPC   NC330539   4.341  34.573   9.450
 6646POPC   PO430540   4.351  34.571   9.150
 6646POPC   GL130541   4.304  34.579   8.850
 6646POPC   GL230542   4.404  34.664   8.850
 6646POPC   C1A30543   4.321  34.579   8.550
 6646POPC   D2A30544   4.317  34.612   8.250
 6646POPC   C3A30545   4.310  34.545   7.950
 6646POPC   C4A30546   4.363  34.567   7.650
 6646POPC   C1B30547   4.481  34.789   8.550
 6646POPC   C2B30548   4.498  34.806   8.250
 6646POPC   C3B30549   4.465  34.747   7.950
 6646POPC   C4B30550   4.452  34.732   7.650
 6647POPC   NC330551  33.003  29.958   9.450
 6647POPC   PO430552  33.020  29.942   9.150
 6647POPC   GL130553  33.065  29.872   8.850
 6647POPC   GL230554  33.038  29.777   8.850
 6647POPC   C1A30555  32.996  29.958   8.550
 6647POPC   D2A30556  33.066  29.944   8.250
 6647POPC   C3A30557  32.994  29.893   7.950
 6647POPC   C4A30558  33.013  29.935   7.650
 6647POPC   C1B30559  32.970  29.676   8.550
 6647POPC   C2B30560  32.966  29.701   8.250
 6647POPC   C3B30561  32.940  29.714   7.950
 6647POPC   C4B30562  32.952  29.719   7.650
 6648POPC   NC330563  19.023   1.188   9.450
 6648POPC   PO430564  19.041   1.164   9.150
 6648POPC   GL130565  19.010   1.237   8.850
 6648POPC   GL230566  18.929   1.197   8.850
 6648POPC   C1A30567  19.075   1.251   8.550
 6648POPC   D2A30568  19.082   1.259   8.250
 6648POPC   C3A30569  19.054   1.205   7.950
 6648POPC   C4A30570  19.057   1.182   7.650
 6648POPC   C1B30571  18.786   1.111   8.550
 6648POPC   C2B30572  18.827   1.071   8.250
 6648POPC   C3B30573  18.878   1.112   7.950
 6648POPC   C4B30574  18.798   1.102   7.650
 6649POPC   NC330575  33.021   0.468   9.450
 6649POPC   PO430576  33.008   0.408   9.150
 6649POPC   GL130577  32.986   0.402   8.850
 6649POPC   GL230578  32.870   0.489   8.850
 6649POPC   C1A30579  33.048   0.409   8.550
 6649POPC   D2A30580  33.062   0.409   8.250
 6649POPC   C3A30581  33.060   0.443   7.950
 6649POPC   C4A30582  33.054   0.422   7.650
 6649POPC   C1B30583  32.765   0.518   8.550
 6649POPC   C2B30584  32.776   0.568   8.250
 6649POPC   C3B30585  32.754   0.547   7.950
 6649POPC   C4B30586  32.838   0.542   7.650
 6650POPC   NC330587  41.544  29.144   9.450
 6650POPC   PO430588  41.513  29.187   9.150
 6650POPC   GL130589  41.535  29.096   8.850
 6650POPC   GL230590  41.637  29.034   8.850
 6650POPC   C1A30591  41.575  29.120   8.550
 6650POPC   D2A30592  41.531  29.170   8.250
 6650POPC   C3A30593  41.529  29.190   7.950
 6650POPC   C4A30594  41.544  29.183   7.650
 6650POPC   C1B30595  41.692  28.873   8.550
 6650POPC   C2B30596  41.686  28.959   8.250
 6650POPC   C3B30597  41.684  28.924   7.950
 6650POPC   C4B30598  41.678  28.921   7.650
 6651POPC   NC330599  19.094  23.684   9.450
 6651POPC   PO430600  19.040  23.703   9.150
 6651POPC   GL130601  19.062  23.688   8.850
 6651POPC   GL230602  19.032  23.848   8.850
 6651POPC   C1A30603  19.097  23.740   8.550
 6651POPC   D2A30604  19.020  23.731   8.250
 6651POPC   C3A30605  19.059  23.674   7.950
 6651POPC   C4A30606  19.094  23.687   7.650
 6651POPC   C1B30607  18.944  23.946   8.550
 6651POPC   C2B30608  18.989  23.975   8.250
 6651POPC   C3B30609  18.936  23.997   7.950
 6651POPC   C4B30610  18.955  23.906   7.650
 6652POPC   NC330611   5.089  39.211   9.450
 6652POPC   PO430612   5.105  39.204   9.150
 6652POPC   GL130613   5.079  39.202   8.850
 6652POPC   GL230614   5.138  39.160   8.850
 6652POPC   C1A30615   5.074  39.277   8.550
 6652POPC   D2A30616   5.086  39.235   8.250
 6652POPC   C3A30617   5.118  39.258   7.950
 6652POPC   C4A30618   5.066  39.266   7.650
 6652POPC   C1B30619   5.238  39.057   8.550
 6652POPC   C2B30620   5.204  39.053   8.250
 6652POPC   C3B30621   5.284  39.034   7.950
 6652POPC   C4B30622   5.219  39.038   7.650
 6653POPC   NC330623  38.446  19.829   9.450
 6653POPC   PO430624  38.449  19.869   9.150
 6653POPC   GL130625  38.457  19.797   8.850
 6653POPC   GL230626  38.395  19.676   8.850
 6653POPC   C1A30627  38.489  19.836   8.550
 6653POPC   D2A30628  38.464  19.836   8.250
 6653POPC   C3A30629  38.459  19.789   7.950
 6653POPC   C4A30630  38.498  19.794   7.650
 6653POPC   C1B30631  38.332  19.570   8.550
 6653POPC   C2B30632  38.420  19.596   8.250
 6653POPC   C3B30633  38.356  19.562   7.950
 6653POPC   C4B30634  38.330  19.559   7.650
 6654POPC   NC330635  41.564   4.305   9.450
 6654POPC   PO430636  41.588   4.355   9.150
 6654POPC   GL130637  41.582   4.362   8.850
 6654POPC   GL230638  41.470   4.231   8.850
 6654POPC   C1A30639  41.524   4.312   8.550
 6654POPC   D2A30640  41.572   4.271   8.250
 6654POPC   C3A30641  41.535   4.315   7.950
 6654POPC   C4A30642  41.566   4.282   7.650
 6654POPC   C1B30643  41.430   4.126   8.550
 6654POPC   C2B30644  41.486   4.048   8.250
 6654POPC   C3B30645  41.473   4.041   7.950
 6654POPC   C4B30646  41.498   4.097   7.650
 6655POPC   NC330647   2.787  19.044   9.450
 6655POPC   PO430648   2.742  19.069   9.150
 6655POPC   GL130649   2.749  19.081   8.850
 6655POPC   GL230650   2.865  19.123   8.850
 6655POPC   C1A30651   2.750  19.089   8.550
 6655POPC   D2A30652   2.787  19.074   8.250
 6655POPC   C3A30653   2.777  19.011   7.950
 6655POPC   C4A30654   2.798  19.075   7.650
 6655POPC   C1B30655   3.002  19.248   8.550
 6655POPC   C2B30656   2.921  19.233   8.250
 6655POPC   C3B30657   2.955  19.264   7.950
 6655POPC   C4B30658   2.928  19.224   7.650
 6656POPC   NC330659  37.726   7.378   9.450
 6656POPC   PO430660  37.643   7.376   9.150
 6656POPC   GL130661  37.682   7.433   8.850
 6656POPC   GL230662  37.666   7.586   8.850
 6656POPC   C1A30663  37.700   7.453   8.550
 6656POPC   D2A30664  37.708   7.429   8.250
 6656POPC   C3A30665  37.659   7.454   7.950
 6656POPC   C4A30666  37.648   7.469   7.650
 6656POPC   C1B30667  37.695   7.632   8.550
 6656POPC   C2B30668  37.702   7.656   8.250
 6656POPC   C3B30669  37.715   7.666   7.950
 6656POPC   C4B30670  37.729   7.706   7.650
 6657POPC   NC330671  10.509  21.339   9.450
 6657POPC   PO430672  10.507  21.419   9.150
 6657POPC   GL130673  10.515  21.418   8.850
 6657POPC   GL230674  10.443  21.471   8.850
 6657POPC   C1A30675  10.536  21.399   8.550
 6657POPC   D2A30676  10.526  21.375   8.250
 6657POPC   C3A30677  10.546  21.378   7.950
 6657POPC   C4A30678  10.507  21.391   7.650
 6657POPC   C1B30679  10.509  21.629   8.550
 6657POPC   C2B30680  10.458  21.644   8.250
 6657POPC   C3B30681  10.444  21.638   7.950
 6657POPC   C4B30682  10.493  21.617   7.650
 6658POPC   NC330683  27.556  18.293   9.450
 6658POPC   PO430684  27.557  18.277   9.150
 6658POPC   GL130685  27.643  18.320   8.850
 6658POPC   GL230686  27.701  18.345   8.850
 6658POPC   C1A30687  27.546  18.286   8.550
 6658POPC   D2A30688  27.550  18.272   8.250
 6658POPC   C3A30689  27.566  18.331   7.950
 6658POPC   C4A30690  27.577  18.266   7.650
 6658POPC   C1B30691  27.702  18.461   8.550
 6658POPC   C2B30692  27.771  18.489   8.250
 6658POPC   C3B30693  27.771  18.494   7.950
 6658POPC   C4B30694  27.709  18.531   7.650
 6659POPC   NC330695  44.666   4.355   9.450
 6659POPC   PO430696  44.658   4.330   9.150
 6659POPC   GL130697  44.643   4.319   8.850
 6659POPC   GL230698  44.546   4.362   8.850
 6659POPC   C1A30699  44.669   4.338   8.550
 6659POPC   D2A30700  44.668   4.276   8.250
 6659POPC   C3A30701  44.701   4.298   7.950
 6659POPC   C4A30702  44.673   4.324   7.650
 6659POPC   C1B30703  44.415   4.470   8.550
 6659POPC   C2B30704  44.401   4.449   8.250
 6659POPC   C3B30705  44.460   4.442   7.950
 6659POPC   C4B30706  44.389   4.409   7.650
 6660POPC   NC330707   7.381  18.304   9.450
 6660POPC   PO430708   7.443  18.322   9.150
 6660POPC   GL130709   7.384  18.254   8.850
 6660POPC   GL230710   7.518  18.314   8.850
 6660POPC   C1A30711   7.420  18.296   8.550
 6660POPC   D2A30712   7.426  18.248   8.250
 6660POPC   C3A30713   7.464  18.240   7.950
 6660POPC   C4A30714   7.389  18.332   7.650
 6660POPC   C1B30715   7.615  18.464   8.550
 6660POPC   C2B30716   7.658  18.398   8.250
 6660POPC   C3B30717   7.667  18.469   7.950
 6660POPC   C4B30718   7.674  18.454   7.650
 6661POPC   NC330719  13.586  32.297   9.450
 6661POPC   PO430720  13.632  32.202   9.150
 6661POPC   GL130721  13.653  32.227   8.850
 6661POPC   GL230722  13.644  32.388   8.850
 6661POPC   C1A30723  13.656  32.217   8.550
 6661POPC   D2A30724  13.662  32.250   8.250
 6661POPC   C3A30725  13.588  32.270   7.950
 6661POPC   C4A30726  13.667  32.292   7.650
 6661POPC   C1B30727  13.598  32.533   8.550
 6661POPC   C2B30728  13.573  32.458   8.250
 6661POPC   C3B30729  13.577  32.539   7.950
 6661POPC   C4B30730  13.627  32.458   7.650
 6662POPC   NC330731   0.477  36.878   9.450
 6662POPC   PO430732   0.486  36.947   9.150
 6662POPC   GL130733   0.393  36.934   8.850
 6662POPC   GL230734   0.315  36.806   8.850
 6662POPC   C1A30735   0.475  36.887   8.550
 6662POPC   D2A30736   0.418  36.928   8.250
 6662POPC   C3A30737   0.477  36.936   7.950
 6662POPC   C4A30738   0.436  36.951   7.650
 6662POPC   C1B30739   0.293  36.743   8.550
 6662POPC   C2B30740   0.203  36.729   8.250
 6662POPC   C3B30741   0.239  36.705   7.950
 6662POPC   C4B30742   0.282  36.778   7.650
 6663POPC   NC330743  40.043  38.465   9.450
 6663POPC   PO430744  39.969  38.505   9.150
 6663POPC   GL130745  40.037  38.447   8.850
 6663POPC   GL230746  40.072  38.530   8.850
 6663POPC   C1A30747  39.999  38.434   8.550
 6663POPC   D2A30748  40.025  38.474   8.250
 6663POPC   C3A30749  40.042  38.465   7.950
 6663POPC   C4A30750  39.959  38.495   7.650
 6663POPC   C1B30751  40.152  38.693   8.550
 6663POPC   C2B30752  40.117  38.700   8.250
 6663POPC   C3B30753  40.108  38.680   7.950
 6663POPC   C4B30754  40.163  38.646   7.650
 6664POPC   NC330755   4.358  35.307   9.450
 6664POPC   PO430756   4.362  35.327   9.150
 6664POPC   GL130757   4.285  35.330   8.850
 6664POPC   GL230758   4.395  35.323   8.850
 6664POPC   C1A30759   4.309  35.361   8.550
 6664POPC   D2A30760   4.363  35.399   8.250
 6664POPC   C3A30761   4.297  35.311   7.950
 6664POPC   C4A30762   4.363  35.334   7.650
 6664POPC   C1B30763   4.553  35.269   8.550
 6664POPC   C2B30764   4.526  35.231   8.250
 6664POPC   C3B30765   4.499  35.234   7.950
 6664POPC   C4B30766   4.493  35.190   7.650
 6665POPC   NC330767  21.341  25.220   9.450
 6665POPC   PO430768  21.424  25.287   9.150
 6665POPC   GL130769  21.382  25.289   8.850
 6665POPC   GL230770  21.558  25.319   8.850
 6665POPC   C1A30771  21.383  25.263   8.550
 6665POPC   D2A30772  21.409  25.294   8.250
 6665POPC   C3A30773  21.354  25.241   7.950
 6665POPC   C4A30774  21.389  25.287   7.650
 6665POPC   C1B30775  21.683  25.322   8.550
 6665POPC   C2B30776  21.599  25.295   8.250
 6665POPC   C3B30777  21.643  25.343   7.950
 6665POPC   C4B30778  21.649  25.351   7.650
 6666POPC   NC330779  12.879  13.673   9.450
 6666POPC   PO430780  12.855  13.598   9.150
 6666POPC   GL130781  12.841  13.622   8.850
 6666POPC   GL230782  12.764  13.617   8.850
 6666POPC   C1A30783  12.809  13.590   8.550
 6666POPC   D2A30784  12.810  13.614   8.250
 6666POPC   C3A30785  12.822  13.655   7.950
 6666POPC   C4A30786  12.830  13.631   7.650
 6666POPC   C1B30787  12.596  13.600   8.550
 6666POPC   C2B30788  12.604  13.690   8.250
 6666POPC   C3B30789  12.596  13.608   7.950
 6666POPC   C4B30790  12.580  13.694   7.650
 6667POPC   NC330791  40.024  12.885   9.450
 6667POPC   PO430792  39.992  12.892   9.150
 6667POPC   GL130793  39.976  12.896   8.850
 6667POPC   GL230794  40.041  12.926   8.850
 6667POPC   C1A30795  39.960  12.893   8.550
 6667POPC   D2A30796  39.976  12.889   8.250
 6667POPC   C3A30797  39.963  12.842   7.950
 6667POPC   C4A30798  39.993  12.899   7.650
 6667POPC   C1B30799  40.167  13.078   8.550
 6667POPC   C2B30800  40.124  13.079   8.250
 6667POPC   C3B30801  40.116  13.104   7.950
 6667POPC   C4B30802  40.193  13.047   7.650
 6668POPC   NC330803  35.324  43.087   9.450
 6668POPC   PO430804  35.360  43.074   9.150
 6668POPC   GL130805  35.318  43.142   8.850
 6668POPC   GL230806  35.284  42.988   8.850
 6668POPC   C1A30807  35.361  43.136   8.550
 6668POPC   D2A30808  35.402  43.104   8.250
 6668POPC   C3A30809  35.322  43.117   7.950
 6668POPC   C4A30810  35.327  43.070   7.650
 6668POPC   C1B30811  35.186  42.956   8.550
 6668POPC   C2B30812  35.218  42.980   8.250
 6668POPC   C3B30813  35.125  42.899   7.950
 6668POPC   C4B30814  35.163  42.950   7.650
 6669POPC   NC330815   2.781   5.899   9.450
 6669POPC   PO430816   2.734   5.886   9.150
 6669POPC   GL130817   2.717   5.865   8.850
 6669POPC   GL230818   2.825   5.742   8.850
 6669POPC   C1A30819   2.718   5.894   8.550
 6669POPC   D2A30820   2.774   5.891   8.250
 6669POPC   C3A30821   2.807   5.896   7.950
 6669POPC   C4A30822   2.719   5.889   7.650
 6669POPC   C1B30823   2.794   5.624   8.550
 6669POPC   C2B30824   2.780   5.654   8.250
 6669POPC   C3B30825   2.842   5.618   7.950
 6669POPC   C4B30826   2.754   5.589   7.650
 6670POPC   NC330827   2.736  10.540   9.450
 6670POPC   PO430828   2.724  10.552   9.150
 6670POPC   GL130829   2.717  10.546   8.850
 6670POPC   GL230830   2.724  10.416   8.850
 6670POPC   C1A30831   2.760  10.539   8.550
 6670POPC   D2A30832   2.770  10.491   8.250
 6670POPC   C3A30833   2.805  10.481   7.950
 6670POPC   C4A30834   2.779  10.546   7.650
 6670POPC   C1B30835   2.575  10.353   8.550
 6670POPC   C2B30836   2.599  10.303   8.250
 6670POPC   C3B30837   2.616  10.364   7.950
 6670POPC   C4B30838   2.624  10.382   7.650
 6671POPC   NC330839   4.316   2.768   9.450
 6671POPC   PO430840   4.332   2.754   9.150
 6671POPC   GL130841   4.362   2.730   8.850
 6671POPC   GL230842   4.250   2.618   8.850
 6671POPC   C1A30843   4.334   2.806   8.550
 6671POPC   D2A30844   4.335   2.787   8.250
 6671POPC   C3A30845   4.312   2.787   7.950
 6671POPC   C4A30846   4.327   2.760   7.650
 6671POPC   C1B30847   4.254   2.482   8.550
 6671POPC   C2B30848   4.276   2.557   8.250
 6671POPC   C3B30849   4.277   2.563   7.950
 6671POPC   C4B30850   4.290   2.569   7.650
 6672POPC   NC330851  30.657  30.663   9.450
 6672POPC   PO430852  30.673  30.668   9.150
 6672POPC   GL130853  30.657  30.681   8.850
 6672POPC   GL230854  30.841  30.700   8.850
 6672POPC   C1A30855  30.663  30.694   8.550
 6672POPC   D2A30856  30.722  30.742   8.250
 6672POPC   C3A30857  30.700  30.675   7.950
 6672POPC   C4A30858  30.728  30.670   7.650
 6672POPC   C1B30859  30.898  30.729   8.550
 6672POPC   C2B30860  30.901  30.694   8.250
 6672POPC   C3B30861  30.994  30.681   7.950
 6672POPC   C4B30862  30.989  30.707   7.650
 6673POPC   NC330863   6.597   1.994   9.450
 6673POPC   PO430864   6.606   1.941   9.150
 6673POPC   GL130865   6.659   1.958   8.850
 6673POPC   GL230866   6.783   1.936   8.850
 6673POPC   C1A30867   6.680   1.952   8.550
 6673POPC   D2A30868   6.633   2.018   8.250
 6673POPC   C3A30869   6.663   1.996   7.950
 6673POPC   C4A30870   6.630   1.997   7.650
 6673POPC   C1B30871   6.893   1.925   8.550
 6673POPC   C2B30872   6.864   1.861   8.250
 6673POPC   C3B30873   6.924   1.919   7.950
 6673POPC   C4B30874   6.879   1.898   7.650
 6674POPC   NC330875   2.765  36.910   9.450
 6674POPC   PO430876   2.791  36.951   9.150
 6674POPC   GL130877   2.794  36.856   8.850
 6674POPC   GL230878   2.667  36.929   8.850
 6674POPC   C1A30879   2.780  36.904   8.550
 6674POPC   D2A30880   2.761  36.856   8.250
 6674POPC   C3A30881   2.722  36.901   7.950
 6674POPC   C4A30882   2.790  36.937   7.650
 6674POPC   C1B30883   2.523  36.971   8.550
 6674POPC   C2B30884   2.536  36.942   8.250
 6674POPC   C3B30885   2.565  36.961   7.950
 6674POPC   C4B30886   2.547  37.030   7.650
 6675POPC   NC330887   7.390  42.303   9.450
 6675POPC   PO430888   7.398  42.367   9.150
 6675POPC   GL130889   7.394  42.382   8.850
 6675POPC   GL230890   7.280  42.263   8.850
 6675POPC   C1A30891   7.447  42.313   8.550
 6675POPC   D2A30892   7.413  42.360   8.250
 6675POPC   C3A30893   7.388  42.353   7.950
 6675POPC   C4A30894   7.406  42.286   7.650
 6675POPC   C1B30895   7.235  42.214   8.550
 6675POPC   C2B30896   7.184  42.247   8.250
 6675POPC   C3B30897   7.237  42.233   7.950
 6675POPC   C4B30898   7.245  42.186   7.650
 6676POPC   NC330899  30.673   0.404   9.450
 6676POPC   PO430900  30.671   0.435   9.150
 6676POPC   GL130901  30.719   0.469   8.850
 6676POPC   GL230902  30.549   0.506   8.850
 6676POPC   C1A30903  30.726   0.418   8.550
 6676POPC   D2A30904  30.711   0.445   8.250
 6676POPC   C3A30905  30.647   0.454   7.950
 6676POPC   C4A30906  30.647   0.400   7.650
 6676POPC   C1B30907  30.460   0.531   8.550
 6676POPC   C2B30908  30.433   0.507   8.250
 6676POPC   C3B30909  30.488   0.531   7.950
 6676POPC   C4B30910  30.507   0.524   7.650
 6677POPC   NC330911   9.008   0.421   9.450
 6677POPC   PO430912   8.994   0.473   9.150
 6677POPC   GL130913   8.990   0.441   8.850
 6677POPC   GL230914   8.830   0.488   8.850
 6677POPC   C1A30915   8.945   0.432   8.550
 6677POPC   D2A30916   9.015   0.400   8.250
 6677POPC   C3A30917   8.937   0.480   7.950
 6677POPC   C4A30918   8.998   0.435   7.650
 6677POPC   C1B30919   8.819   0.601   8.550
 6677POPC   C2B30920   8.802   0.631   8.250
 6677POPC   C3B30921   8.759   0.551   7.950
 6677POPC   C4B30922   8.800   0.633   7.650
 6678POPC   NC330923  25.314  42.294   9.450
 6678POPC   PO430924  25.234  42.355   9.150
 6678POPC   GL130925  25.302  42.368   8.850
 6678POPC   GL230926  25.355  42.304   8.850
 6678POPC   C1A30927  25.258  42.372   8.550
 6678POPC   D2A30928  25.302  42.377   8.250
 6678POPC   C3A30929  25.286  42.353   7.950
 6678POPC   C4A30930  25.312  42.315   7.650
 6678POPC   C1B30931  25.529  42.196   8.550
 6678POPC   C2B30932  25.516  42.274   8.250
 6678POPC   C3B30933  25.519  42.280   7.950
 6678POPC   C4B30934  25.460  42.227   7.650
 6679POPC   NC330935  11.262  39.188   9.450
 6679POPC   PO430936  11.268  39.217   9.150
 6679POPC   GL130937  11.306  39.214   8.850
 6679POPC   GL230938  11.376  39.234   8.850
 6679POPC   C1A30939  11.289  39.189   8.550
 6679POPC   D2A30940  11.282  39.235   8.250
 6679POPC   C3A30941  11.259  39.264   7.950
 6679POPC   C4A30942  11.346  39.228   7.650
 6679POPC   C1B30943  11.562  39.195   8.550
 6679POPC   C2B30944  11.580  39.190   8.250
 6679POPC   C3B30945  11.587  39.254   7.950
 6679POPC   C4B30946  11.590  39.262   7.650
 6680POPC   NC330947   1.189   9.014   9.450
 6680POPC   PO430948   1.220   8.953   9.150
 6680POPC   GL130949   1.249   8.960   8.850
 6680POPC   GL230950   1.137   9.024   8.850
 6680POPC   C1A30951   1.261   8.982   8.550
 6680POPC   D2A30952   1.202   8.998   8.250
 6680POPC   C3A30953   1.187   8.963   7.950
 6680POPC   C4A30954   1.179   9.014   7.650
 6680POPC   C1B30955   0.992   9.039   8.550
 6680POPC   C2B30956   1.020   9.122   8.250
 6680POPC   C3B30957   0.961   9.061   7.950
 6680POPC   C4B30958   1.008   9.079   7.650
 6681POPC   NC330959  31.504   6.639   9.450
 6681POPC   PO430960  31.509   6.665   9.150
 6681POPC   GL130961  31.515   6.688   8.850
 6681POPC   GL230962  31.480   6.797   8.850
 6681POPC   C1A30963  31.476   6.644   8.550
 6681POPC   D2A30964  31.522   6.661   8.250
 6681POPC   C3A30965  31.498   6.606   7.950
 6681POPC   C4A30966  31.444   6.638   7.650
 6681POPC   C1B30967  31.368   6.855   8.550
 6681POPC   C2B30968  31.386   6.884   8.250
 6681POPC   C3B30969  31.418   6.890   7.950
 6681POPC   C4B30970  31.381   6.866   7.650
 6682POPC   NC330971  26.007  35.378   9.450
 6682POPC   PO430972  26.038  35.352   9.150
 6682POPC   GL130973  26.071  35.325   8.850
 6682POPC   GL230974  25.992  35.426   8.850
 6682POPC   C1A30975  26.048  35.333   8.550
 6682POPC   D2A30976  26.013  35.380   8.250
 6682POPC   C3A30977  26.058  35.329   7.950
 6682POPC   C4A30978  26.016  35.356   7.650
 6682POPC   C1B30979  25.922  35.571   8.550
 6682POPC   C2B30980  25.960  35.575   8.250
 6682POPC   C3B30981  25.909  35.595   7.950
 6682POPC   C4B30982  25.917  35.535   7.650
 6683POPC   NC330983  22.918   2.722   9.450
 6683POPC   PO430984  22.928   2.728   9.150
 6683POPC   GL130985  22.970   2.807   8.850
 6683POPC   GL230986  22.854   2.830   8.850
 6683POPC   C1A30987  22.959   2.804   8.550
 6683POPC   D2A30988  22.930   2.756   8.250
 6683POPC   C3A30989  22.938   2.778   7.950
 6683POPC   C4A30990  22.896   2.794   7.650
 6683POPC   C1B30991  22.753   2.896   8.550
 6683POPC   C2B30992  22.666   2.903   8.250
 6683POPC   C3B30993  22.683   2.893   7.950
 6683POPC   C4B30994  22.744   2.838   7.650
 6684POPC   NC330995  37.688   1.236   9.450
 6684POPC   PO430996  37.713   1.238   9.150
 6684POPC   GL130997  37.669   1.263   8.850
 6684POPC   GL230998  37.558   1.268   8.850
 6684POPC   C1A30999  37.645   1.253   8.550
 6684POPC   D2A31000  37.687   1.244   8.250
 6684POPC   C3A31001  37.697   1.200   7.950
 6684POPC   C4A31002  37.694   1.261   7.650
 6684POPC   C1B31003  37.385   1.255   8.550
 6684POPC   C2B31004  37.401   1.267   8.250
 6684POPC   C3B31005  37.413   1.267   7.950
 6684POPC   C4B31006  37.391   1.305   7.650
 6685POPC   NC331007  19.021  37.649   9.450
 6685POPC   PO431008  19.046  37.703   9.150
 6685POPC   GL131009  19.039  37.639   8.850
 6685POPC   GL231010  19.180  37.656   8.850
 6685POPC   C1A31011  19.028  37.663   8.550
 6685POPC   D2A31012  19.053  37.696   8.250
 6685POPC   C3A31013  19.058  37.685   7.950
 6685POPC   C4A31014  19.032  37.654   7.650
 6685POPC   C1B31015  19.329  37.633   8.550
 6685POPC   C2B31016  19.285  37.588   8.250
 6685POPC   C3B31017  19.284  37.614   7.950
 6685POPC   C4B31018  19.298  37.551   7.650
 6686POPC   NC331019  10.536   5.900   9.450
 6686POPC   PO431020  10.526   5.856   9.150
 6686POPC   GL131021  10.571   5.883   8.850
 6686POPC   GL231022  10.500   5.746   8.850
 6686POPC   C1A31023  10.557   5.874   8.550
 6686POPC   D2A31024  10.480   5.882   8.250
 6686POPC   C3A31025  10.553   5.863   7.950
 6686POPC   C4A31026  10.540   5.854   7.650
 6686POPC   C1B31027  10.442   5.665   8.550
 6686POPC   C2B31028  10.476   5.668   8.250
 6686POPC   C3B31029  10.400   5.642   7.950
 6686POPC   C4B31030  10.469   5.654   7.650
 6687POPC   NC331031  12.108  16.772   9.450
 6687POPC   PO431032  12.069  16.693   9.150
 6687POPC   GL131033  12.098  16.748   8.850
 6687POPC   GL231034  12.040  16.817   8.850
 6687POPC   C1A31035  12.029  16.703   8.550
 6687POPC   D2A31036  12.114  16.743   8.250
 6687POPC   C3A31037  12.107  16.711   7.950
 6687POPC   C4A31038  12.093  16.685   7.650
 6687POPC   C1B31039  12.049  17.025   8.550
 6687POPC   C2B31040  12.034  17.023   8.250
 6687POPC   C3B31041  12.013  16.945   7.950
 6687POPC   C4B31042  12.088  17.007   7.650
 6688POPC   NC331043  36.936  36.081   9.450
 6688POPC   PO431044  36.885  36.117   9.150
 6688POPC   GL131045  36.864  36.130   8.850
 6688POPC   GL231046  37.042  36.130   8.850
 6688POPC   C1A31047  36.854  36.164   8.550
 6688POPC   D2A31048  36.901  36.097   8.250
 6688POPC   C3A31049  36.889  36.137   7.950
 6688POPC   C4A31050  36.938  36.128   7.650
 6688POPC   C1B31051  37.161  36.078   8.550
 6688POPC   C2B31052  37.191  36.156   8.250
 6688POPC   C3B31053  37.144  36.146   7.950
 6688POPC   C4B31054  37.123  36.086   7.650
 6689POPC   NC331055  19.870   4.277   9.450
 6689POPC   PO431056  19.785   4.318   9.150
 6689POPC   GL131057  19.789   4.323   8.850
 6689POPC   GL231058  19.706   4.292   8.850
 6689POPC   C1A31059  19.866   4.325   8.550
 6689POPC   D2A31060  19.880   4.355   8.250
 6689POPC   C3A31061  19.874   4.330   7.950
 6689POPC   C4A31062  19.819   4.333   7.650
 6689POPC   C1B31063  19.583   4.220   8.550
 6689POPC   C2B31064  19.582   4.266   8.250
 6689POPC   C3B31065  19.556   4.193   7.950
 6689POPC   C4B31066  19.570   4.196   7.650
 6690POPC   NC331067  15.933  29.874   9.450
 6690POPC   PO431068  15.973  29.958   9.150
 6690POPC   GL131069  16.002  29.899   8.850
 6690POPC   GL231070  16.033  29.995   8.850
 6690POPC   C1A31071  15.954  29.908   8.550
 6690POPC   D2A31072  15.976  29.882   8.250
 6690POPC   C3A31073  15.978  29.967   7.950
 6690POPC   C4A31074  15.910  29.880   7.650
 6690POPC   C1B31075  16.047  30.173   8.550
 6690POPC   C2B31076  16.060  30.161   8.250
 6690POPC   C3B31077  16.019  30.180   7.950
 6690POPC   C4B31078  16.080  30.117   7.650
 6691POPC   NC331079  36.870  23.695   9.450
 6691POPC   PO431080  36.874  23.704   9.150
 6691POPC   GL131081  36.916  23.674   8.850
 6691POPC   GL231082  36.876  23.828   8.850
 6691POPC   C1A31083  36.946  23.682   8.550
 6691POPC   D2A31084  36.889  23.744   8.250
 6691POPC   C3A31085  36.924  23.720   7.950
 6691POPC   C4A31086  36.928  23.694   7.650
 6691POPC   C1B31087  36.962  23.998   8.550
 6691POPC   C2B31088  36.936  23.914   8.250
 6691POPC   C3B31089  36.955  23.975   7.950
 6691POPC   C4B31090  36.964  23.993   7.650
 6692POPC   NC331091  17.537   0.440   9.450
 6692POPC   PO431092  17.472   0.457   9.150
 6692POPC   GL131093  17.470   0.407   8.850
 6692POPC   GL231094  17.461   0.568   8.850
 6692POPC   C1A31095  17.490   0.487   8.550
 6692POPC   D2A31096  17.493   0.407   8.250
 6692POPC   C3A31097  17.492   0.432   7.950
 6692POPC   C4A31098  17.482   0.429   7.650
 6692POPC   C1B31099  17.389   0.613   8.550
 6692POPC   C2B31100  17.403   0.604   8.250
 6692POPC   C3B31101  17.328   0.654   7.950
 6692POPC   C4B31102  17.402   0.607   7.650
 6693POPC   NC331103   5.109  13.622   9.450
 6693POPC   PO431104   5.066  13.675   9.150
 6693POPC   GL131105   5.097  13.596   8.850
 6693POPC   GL231106   5.014  13.617   8.850
 6693POPC   C1A31107   5.122  13.611   8.550
 6693POPC   D2A31108   5.104  13.674   8.250
 6693POPC   C3A31109   5.066  13.617   7.950
 6693POPC   C4A31110   5.052  13.631   7.650
 6693POPC   C1B31111   4.817  13.615   8.550
 6693POPC   C2B31112   4.825  13.623   8.250
 6693POPC   C3B31113   4.860  13.647   7.950
 6693POPC   C4B31114   4.861  13.620   7.650
 6694POPC   NC331115  20.564  32.202   9.450
 6694POPC   PO431116  20.619  32.249   9.150
 6694POPC   GL131117  20.564  32.252   8.850
 6694POPC   GL231118  20.565  32.133   8.850
 6694POPC   C1A31119  20.641  32.253   8.550
 6694POPC   D2A31120  20.562  32.269   8.250
 6694POPC   C3A31121  20.604  32.267   7.950
 6694POPC   C4A31122  20.625  32.250   7.650
 6694POPC   C1B31123  20.496  31.965   8.550
 6694POPC   C2B31124  20.517  32.045   8.250
 6694POPC   C3B31125  20.474  31.995   7.950
 6694POPC   C4B31126  20.526  31.983   7.650
 6695POPC   NC331127   9.716  44.700   9.450
 6695POPC   PO431128   9.771  44.687   9.150
 6695POPC   GL131129   9.762  44.690   8.850
 6695POPC   GL231130   9.627  44.569   8.850
 6695POPC   C1A31131   9.740  44.638   8.550
 6695POPC   D2A31132   9.762  44.668   8.250
 6695POPC   C3A31133   9.713  44.627   7.950
 6695POPC   C4A31134   9.755  44.638   7.650
 6695POPC   C1B31135   9.564  44.442   8.550
 6695POPC   C2B31136   9.544  44.538   8.250
 6695POPC   C3B31137   9.572  44.491   7.950
 6695POPC   C4B31138   9.599  44.463   7.650
 6696POPC   NC331139  23.737  34.585   9.450
 6696POPC   PO431140  23.725  34.531   9.150
 6696POPC   GL131141  23.736  34.591   8.850
 6696POPC   GL231142  23.633  34.569   8.850
 6696POPC   C1A31143  23.730  34.583   8.550
 6696POPC   D2A31144  23.712  34.599   8.250
 6696POPC   C3A31145  23.736  34.606   7.950
 6696POPC   C4A31146  23.716  34.582   7.650
 6696POPC   C1B31147  23.499  34.561   8.550
 6696POPC   C2B31148  23.441  34.569   8.250
 6696POPC   C3B31149  23.479  34.541   7.950
 6696POPC   C4B31150  23.460  34.558   7.650
 6697POPC   NC331151  16.768  41.534   9.450
 6697POPC   PO431152  16.730  41.531   9.150
 6697POPC   GL131153  16.759  41.585   8.850
 6697POPC   GL231154  16.629  41.598   8.850
 6697POPC   C1A31155  16.760  41.535   8.550
 6697POPC   D2A31156  16.736  41.582   8.250
 6697POPC   C3A31157  16.761  41.594   7.950
 6697POPC   C4A31158  16.754  41.606   7.650
 6697POPC   C1B31159  16.550  41.756   8.550
 6697POPC   C2B31160  16.505  41.751   8.250
 6697POPC   C3B31161  16.544  41.667   7.950
 6697POPC   C4B31162  16.526  41.683   7.650
 6698POPC   NC331163  34.598  41.536   9.450
 6698POPC   PO431164  34.575  41.565   9.150
 6698POPC   GL131165  34.578  41.587   8.850
 6698POPC   GL231166  34.709  41.605   8.850
 6698POPC   C1A31167  34.622  41.571   8.550
 6698POPC   D2A31168  34.620  41.589   8.250
 6698POPC   C3A31169  34.601  41.556   7.950
 6698POPC   C4A31170  34.570  41.549   7.650
 6698POPC   C1B31171  34.765  41.668   8.550
 6698POPC   C2B31172  34.758  41.612   8.250
 6698POPC   C3B31173  34.848  41.640   7.950
 6698POPC   C4B31174  34.771  41.682   7.650
 6699POPC   NC331175  16.750  44.663   9.450
 6699POPC   PO431176  16.755  44.624   9.150
 6699POPC   GL131177  16.776  44.703   8.850
 6699POPC   GL231178  16.896  44.675   8.850
 6699POPC   C1A31179  16.757  44.658   8.550
 6699POPC   D2A31180  16.720  44.670   8.250
 6699POPC   C3A31181  16.749  44.690   7.950
 6699POPC   C4A31182  16.729  44.635   7.650
 6699POPC   C1B31183  16.952  44.577   8.550
 6699POPC   C2B31184  16.954  44.632   8.250
 6699POPC   C3B31185  16.949  44.651   7.950
 6699POPC   C4B31186  16.983  44.589   7.650
 6700POPC   NC331187   0.453  12.827   9.450
 6700POPC   PO431188   0.427  12.838   9.150
 6700POPC   GL131189   0.397  12.818   8.850
 6700POPC   GL231190   0.452  13.019   8.850
 6700POPC   C1A31191   0.465  12.812   8.550
 6700POPC   D2A31192   0.416  12.819   8.250
 6700POPC   C3A31193   0.398  12.826   7.950
 6700POPC   C4A31194   0.440  12.809   7.650
 6700POPC   C1B31195   0.406  13.060   8.550
 6700POPC   C2B31196   0.420  13.080   8.250
 6700POPC   C3B31197   0.367  13.126   7.950
 6700POPC   C4B31198   0.423  13.126   7.650
 6701POPC   NC331199  44.659  11.288   9.450
 6701POPC   PO431200  44.643  11.290   9.150
 6701POPC   GL131201  44.702  11.279   8.850
 6701POPC   GL231202  44.587  11.218   8.850
 6701POPC   C1A31203  44.696  11.260   8.550
 6701POPC   D2A31204  44.616  11.338   8.250
 6701POPC   C3A31205  44.665  11.294   7.950
 6701POPC   C4A31206  44.630  11.258   7.650
 6701POPC   C1B31207  44.450  11.198   8.550
 6701POPC   C2B31208  44.458  11.164   8.250
 6701POPC   C3B31209  44.393  11.229   7.950
 6701POPC   C4B31210  44.403  11.142   7.650
 6702POPC   NC331211  20.638   4.286   9.450
 6702POPC   PO431212  20.585   4.269   9.150
 6702POPC   GL131213  20.578   4.315   8.850
 6702POPC   GL231214  20.485   4.411   8.850
 6702POPC   C1A31215  20.575   4.344   8.550
 6702POPC   D2A31216  20.565   4.293   8.250
 6702POPC   C3A31217  20.637   4.330   7.950
 6702POPC   C4A31218  20.660   4.332   7.650
 6702POPC   C1B31219  20.339   4.482   8.550
 6702POPC   C2B31220  20.376   4.416   8.250
 6702POPC   C3B31221  20.390   4.406   7.950
 6702POPC   C4B31222  20.377   4.389   7.650
 6703POPC   NC331223  14.444   3.521   9.450
 6703POPC   PO431224  14.376   3.523   9.150
 6703POPC   GL131225  14.445   3.575   8.850
 6703POPC   GL231226  14.311   3.603   8.850
 6703POPC   C1A31227  14.386   3.584   8.550
 6703POPC   D2A31228  14.372   3.524   8.250
 6703POPC   C3A31229  14.414   3.552   7.950
 6703POPC   C4A31230  14.389   3.510   7.650
 6703POPC   C1B31231  14.269   3.728   8.550
 6703POPC   C2B31232  14.290   3.729   8.250
 6703POPC   C3B31233  14.309   3.748   7.950
 6703POPC   C4B31234  14.270   3.753   7.650
 6704POPC   NC331235  16.736  21.391   9.450
 6704POPC   PO431236  16.780  21.361   9.150
 6704POPC   GL131237  16.688  21.346   8.850
 6704POPC   GL231238  16.655  21.477   8.850
 6704POPC   C1A31239  16.710  21.356   8.550
 6704POPC   D2A31240  16.724  21.413   8.250
 6704POPC   C3A31241  16.776  21.364   7.950
 6704POPC   C4A31242  16.758  21.365   7.650
 6704POPC   C1B31243  16.585  21.566   8.550
 6704POPC   C2B31244  16.518  21.524   8.250
 6704POPC   C3B31245  16.543  21.523   7.950
 6704POPC   C4B31246  16.490  21.521   7.650
 6705POPC   NC331247  41.558  12.882   9.450
 6705POPC   PO431248  41.565  12.865   9.150
 6705POPC   GL131249  41.572  12.891   8.850
 6705POPC   GL231250  41.624  12.923   8.850
 6705POPC   C1A31251  41.517  12.807   8.550
 6705POPC   D2A31252  41.607  12.849   8.250
 6705POPC   C3A31253  41.512  12.811   7.950
 6705POPC   C4A31254  41.580  12.866   7.650
 6705POPC   C1B31255  41.686  13.117   8.550
 6705POPC   C2B31256  41.704  13.038   8.250
 6705POPC   C3B31257  41.637  13.037   7.950
 6705POPC   C4B31258  41.647  13.112   7.650
 6706POPC   NC331259  36.128   5.046   9.450
 6706POPC   PO431260  36.114   5.128   9.150
 6706POPC   GL131261  36.145   5.090   8.850
 6706POPC   GL231262  36.012   4.994   8.850
 6706POPC   C1A31263  36.127   5.045   8.550
 6706POPC   D2A31264  36.098   5.051   8.250
 6706POPC   C3A31265  36.148   5.093   7.950
 6706POPC   C4A31266  36.113   5.135   7.650
 6706POPC   C1B31267  35.973   4.908   8.550
 6706POPC   C2B31268  35.883   4.928   8.250
 6706POPC   C3B31269  35.928   4.917   7.950
 6706POPC   C4B31270  35.946   4.896   7.650
 6707POPC   NC331271  36.177  37.708   9.450
 6707POPC   PO431272  36.091  37.651   9.150
 6707POPC   GL131273  36.095  37.653   8.850
 6707POPC   GL231274  36.096  37.766   8.850
 6707POPC   C1A31275  36.159  37.700   8.550
 6707POPC   D2A31276  36.167  37.631   8.250
 6707POPC   C3A31277  36.107  37.719   7.950
 6707POPC   C4A31278  36.176  37.719   7.650
 6707POPC   C1B31279  36.061  37.868   8.550
 6707POPC   C2B31280  36.041  37.899   8.250
 6707POPC   C3B31281  36.051  37.945   7.950
 6707POPC   C4B31282  36.071  37.868   7.650
 6708POPC   NC331283  34.606  24.453   9.450
 6708POPC   PO431284  34.616  24.483   9.150
 6708POPC   GL131285  34.602  24.457   8.850
 6708POPC   GL231286  34.462  24.480   8.850
 6708POPC   C1A31287  34.545  24.522   8.550
 6708POPC   D2A31288  34.579  24.464   8.250
 6708POPC   C3A31289  34.601  24.480   7.950
 6708POPC   C4A31290  34.574  24.482   7.650
 6708POPC   C1B31291  34.308  24.597   8.550
 6708POPC   C2B31292  34.301  24.604   8.250
 6708POPC   C3B31293  34.349  24.592   7.950
 6708POPC   C4B31294  34.295  24.515   7.650
 6709POPC   NC331295   4.315   0.454   9.450
 6709POPC   PO431296   4.360   0.452   9.150
 6709POPC   GL131297   4.341   0.445   8.850
 6709POPC   GL231298   4.256   0.405   8.850
 6709POPC   C1A31299   4.301   0.451   8.550
 6709POPC   D2A31300   4.300   0.419   8.250
 6709POPC   C3A31301   4.312   0.436   7.950
 6709POPC   C4A31302   4.275   0.457   7.650
 6709POPC   C1B31303   4.138   0.227   8.550
 6709POPC   C2B31304   4.123   0.267   8.250
 6709POPC   C3B31305   4.085   0.312   7.950
 6709POPC   C4B31306   4.160   0.242   7.650
 6710POPC   NC331307  21.410   2.740   9.450
 6710POPC   PO431308  21.364   2.727   9.150
 6710POPC   GL131309  21.370   2.739   8.850
 6710POPC   GL231310  21.557   2.766   8.850
 6710POPC   C1A31311  21.391   2.752   8.550
 6710POPC   D2A31312  21.422   2.790   8.250
 6710POPC   C3A31313  21.391   2.808   7.950
 6710POPC   C4A31314  21.346   2.790   7.650
 6710POPC   C1B31315  21.584   2.849   8.550
 6710POPC   C2B31316  21.603   2.873   8.250
 6710POPC   C3B31317  21.589   2.805   7.950
 6710POPC   C4B31318  21.612   2.844   7.650
 6711POPC   NC331319  40.808  24.496   9.450
 6711POPC   PO431320  40.809  24.484   9.150
 6711POPC   GL131321  40.810  24.480   8.850
 6711POPC   GL231322  40.733  24.330   8.850
 6711POPC   C1A31323  40.774  24.489   8.550
 6711POPC   D2A31324  40.775  24.521   8.250
 6711POPC   C3A31325  40.800  24.440   7.950
 6711POPC   C4A31326  40.823  24.460   7.650
 6711POPC   C1B31327  40.791  24.229   8.550
 6711POPC   C2B31328  40.756  24.264   8.250
 6711POPC   C3B31329  40.818  24.277   7.950
 6711POPC   C4B31330  40.751  24.236   7.650
 6712POPC   NC331331  30.715  14.371   9.450
 6712POPC   PO431332  30.682  14.418   9.150
 6712POPC   GL131333  30.658  14.368   8.850
 6712POPC   GL231334  30.630  14.476   8.850
 6712POPC   C1A31335  30.744  14.416   8.550
 6712POPC   D2A31336  30.685  14.436   8.250
 6712POPC   C3A31337  30.673  14.360   7.950
 6712POPC   C4A31338  30.741  14.356   7.650
 6712POPC   C1B31339  30.612  14.633   8.550
 6712POPC   C2B31340  30.632  14.621   8.250
 6712POPC   C3B31341  30.650  14.663   7.950
 6712POPC   C4B31342  30.637  14.640   7.650
 6713POPC   NC331343  23.709  38.437   9.450
 6713POPC   PO431344  23.751  38.414   9.150
 6713POPC   GL131345  23.668  38.461   8.850
 6713POPC   GL231346  23.797  38.612   8.850
 6713POPC   C1A31347  23.697  38.468   8.550
 6713POPC   D2A31348  23.715  38.496   8.250
 6713POPC   C3A31349  23.726  38.480   7.950
 6713POPC   C4A31350  23.758  38.471   7.650
 6713POPC   C1B31351  23.775  38.644   8.550
 6713POPC   C2B31352  23.784  38.713   8.250
 6713POPC   C3B31353  23.863  38.633   7.950
 6713POPC   C4B31354  23.834  38.653   7.650
 6714POPC   NC331355  30.665  31.458   9.450
 6714POPC   PO431356  30.735  31.498   9.150
 6714POPC   GL131357  30.699  31.473   8.850
 6714POPC   GL231358  30.672  31.322   8.850
 6714POPC   C1A31359  30.705  31.438   8.550
 6714POPC   D2A31360  30.712  31.439   8.250
 6714POPC   C3A31361  30.707  31.427   7.950
 6714POPC   C4A31362  30.694  31.503   7.650
 6714POPC   C1B31363  30.638  31.201   8.550
 6714POPC   C2B31364  30.661  31.256   8.250
 6714POPC   C3B31365  30.724  31.241   7.950
 6714POPC   C4B31366  30.680  31.179   7.650
 6715POPC   NC331367  26.041  25.285   9.450
 6715POPC   PO431368  26.019  25.250   9.150
 6715POPC   GL131369  26.076  25.220   8.850
 6715POPC   GL231370  25.914  25.302   8.850
 6715POPC   C1A31371  26.043  25.312   8.550
 6715POPC   D2A31372  26.031  25.227   8.250
 6715POPC   C3A31373  26.089  25.276   7.950
 6715POPC   C4A31374  26.006  25.218   7.650
 6715POPC   C1B31375  25.835  25.351   8.550
 6715POPC   C2B31376  25.817  25.338   8.250
 6715POPC   C3B31377  25.799  25.325   7.950
 6715POPC   C4B31378  25.790  25.284   7.650
 6716POPC   NC331379  15.179  40.769   9.450
 6716POPC   PO431380  15.145  40.813   9.150
 6716POPC   GL131381  15.137  40.823   8.850
 6716POPC   GL231382  15.054  40.720   8.850
 6716POPC   C1A31383  15.171  40.767   8.550
 6716POPC   D2A31384  15.160  40.832   8.250
 6716POPC   C3A31385  15.150  40.759   7.950
 6716POPC   C4A31386  15.171  40.752   7.650
 6716POPC   C1B31387  14.885  40.790   8.550
 6716POPC   C2B31388  14.980  40.699   8.250
 6716POPC   C3B31389  14.978  40.761   7.950
 6716POPC   C4B31390  14.964  40.766   7.650
 6717POPC   NC331391  11.300  40.772   9.450
 6717POPC   PO431392  11.331  40.749   9.150
 6717POPC   GL131393  11.263  40.772   8.850
 6717POPC   GL231394  11.471  40.716   8.850
 6717POPC   C1A31395  11.305  40.784   8.550
 6717POPC   D2A31396  11.342  40.800   8.250
 6717POPC   C3A31397  11.284  40.752   7.950
 6717POPC   C4A31398  11.279  40.832   7.650
 6717POPC   C1B31399  11.541  40.705   8.550
 6717POPC   C2B31400  11.566  40.760   8.250
 6717POPC   C3B31401  11.548  40.731   7.950
 6717POPC   C4B31402  11.519  40.731   7.650
 6718POPC   NC331403   2.032  14.385   9.450
 6718POPC   PO431404   1.962  14.430   9.150
 6718POPC   GL131405   2.008  14.449   8.850
 6718POPC   GL231406   2.061  14.497   8.850
 6718POPC   C1A31407   1.965  14.448   8.550
 6718POPC   D2A31408   1.981  14.394   8.250
 6718POPC   C3A31409   1.957  14.411   7.950
 6718POPC   C4A31410   1.991  14.412   7.650
 6718POPC   C1B31411   2.121  14.618   8.550
 6718POPC   C2B31412   2.066  14.626   8.250
 6718POPC   C3B31413   2.052  14.592   7.950
 6718POPC   C4B31414   2.062  14.594   7.650
 6719POPC   NC331415   5.118  23.684   9.450
 6719POPC   PO431416   5.091  23.745   9.150
 6719POPC   GL131417   5.134  23.742   8.850
 6719POPC   GL231418   5.033  23.781   8.850
 6719POPC   C1A31419   5.061  23.684   8.550
 6719POPC   D2A31420   5.128  23.691   8.250
 6719POPC   C3A31421   5.090  23.672   7.950
 6719POPC   C4A31422   5.052  23.727   7.650
 6719POPC   C1B31423   4.926  23.918   8.550
 6719POPC   C2B31424   4.947  23.931   8.250
 6719POPC   C3B31425   4.928  23.876   7.950
 6719POPC   C4B31426   4.928  23.931   7.650
 6720POPC   NC331427  25.293   5.899   9.450
 6720POPC   PO431428  25.244   5.850   9.150
 6720POPC   GL131429  25.283   5.868   8.850
 6720POPC   GL231430  25.309   5.734   8.850
 6720POPC   C1A31431  25.265   5.902   8.550
 6720POPC   D2A31432  25.248   5.916   8.250
 6720POPC   C3A31433  25.236   5.838   7.950
 6720POPC   C4A31434  25.254   5.851   7.650
 6720POPC   C1B31435  25.315   5.627   8.550
 6720POPC   C2B31436  25.286   5.673   8.250
 6720POPC   C3B31437  25.347   5.646   7.950
 6720POPC   C4B31438  25.355   5.602   7.650
 6721POPC   NC331439  29.137   1.256   9.450
 6721POPC   PO431440  29.152   1.204   9.150
 6721POPC   GL131441  29.178   1.204   8.850
 6721POPC   GL231442  29.034   1.208   8.850
 6721POPC   C1A31443  29.103   1.250   8.550
 6721POPC   D2A31444  29.149   1.207   8.250
 6721POPC   C3A31445  29.103   1.206   7.950
 6721POPC   C4A31446  29.096   1.248   7.650
 6721POPC   C1B31447  28.937   1.122   8.550
 6721POPC   C2B31448  28.912   1.176   8.250
 6721POPC   C3B31449  28.898   1.101   7.950
 6721POPC   C4B31450  28.890   1.135   7.650
 6722POPC   NC331451  12.851  15.998   9.450
 6722POPC   PO431452  12.888  15.935   9.150
 6722POPC   GL131453  12.846  15.914   8.850
 6722POPC   GL231454  12.732  15.914   8.850
 6722POPC   C1A31455  12.837  15.910   8.550
 6722POPC   D2A31456  12.825  15.912   8.250
 6722POPC   C3A31457  12.886  15.963   7.950
 6722POPC   C4A31458  12.843  15.941   7.650
 6722POPC   C1B31459  12.656  15.833   8.550
 6722POPC   C2B31460  12.631  15.844   8.250
 6722POPC   C3B31461  12.641  15.823   7.950
 6722POPC   C4B31462  12.651  15.834   7.650
 6723POPC   NC331463  39.182  43.149   9.450
 6723POPC   PO431464  39.279  43.085   9.150
 6723POPC   GL131465  39.235  43.122   8.850
 6723POPC   GL231466  39.107  43.107   8.850
 6723POPC   C1A31467  39.204  43.158   8.550
 6723POPC   D2A31468  39.265  43.117   8.250
 6723POPC   C3A31469  39.247  43.154   7.950
 6723POPC   C4A31470  39.220  43.118   7.650
 6723POPC   C1B31471  38.961  43.011   8.550
 6723POPC   C2B31472  38.943  43.072   8.250
 6723POPC   C3B31473  38.994  43.068   7.950
 6723POPC   C4B31474  38.940  43.067   7.650
 6724POPC   NC331475  42.336  32.257   9.450
 6724POPC   PO431476  42.358  32.206   9.150
 6724POPC   GL131477  42.321  32.264   8.850
 6724POPC   GL231478  42.434  32.150   8.850
 6724POPC   C1A31479  42.301  32.239   8.550
 6724POPC   D2A31480  42.380  32.211   8.250
 6724POPC   C3A31481  42.301  32.259   7.950
 6724POPC   C4A31482  42.344  32.278   7.650
 6724POPC   C1B31483  42.493  32.104   8.550
 6724POPC   C2B31484  42.529  32.043   8.250
 6724POPC   C3B31485  42.475  32.042   7.950
 6724POPC   C4B31486  42.484  32.100   7.650
 6725POPC   NC331487  26.063  33.020   9.450
 6725POPC   PO431488  26.077  33.059   9.150
 6725POPC   GL131489  26.055  32.996   8.850
 6725POPC   GL231490  26.089  32.941   8.850
 6725POPC   C1A31491  26.005  33.037   8.550
 6725POPC   D2A31492  26.072  33.038   8.250
 6725POPC   C3A31493  26.035  33.008   7.950
 6725POPC   C4A31494  26.061  33.013   7.650
 6725POPC   C1B31495  26.177  32.817   8.550
 6725POPC   C2B31496  26.174  32.809   8.250
 6725POPC   C3B31497  26.124  32.790   7.950
 6725POPC   C4B31498  26.162  32.816   7.650
 6726POPC   NC331499   3.522  15.932   9.450
 6726POPC   PO431500   3.507  15.975   9.150
 6726POPC   GL131501   3.577  15.960   8.850
 6726POPC   GL231502   3.596  16.093   8.850
 6726POPC   C1A31503   3.509  15.983   8.550
 6726POPC   D2A31504   3.503  15.990   8.250
 6726POPC   C3A31505   3.574  15.979   7.950
 6726POPC   C4A31506   3.584  15.975   7.650
 6726POPC   C1B31507   3.668  16.104   8.550
 6726POPC   C2B31508   3.662  16.188   8.250
 6726POPC   C3B31509   3.692  16.159   7.950
 6726POPC   C4B31510   3.691  16.166   7.650
 6727POPC   NC331511   1.179  15.982   9.450
 6727POPC   PO431512   1.214  15.910   9.150
 6727POPC   GL131513   1.263  15.951   8.850
 6727POPC   GL231514   1.361  15.862   8.850
 6727POPC   C1A31515   1.198  15.999   8.550
 6727POPC   D2A31516   1.209  15.983   8.250
 6727POPC   C3A31517   1.232  15.999   7.950
 6727POPC   C4A31518   1.170  15.989   7.650
 6727POPC   C1B31519   1.390  15.789   8.550
 6727POPC   C2B31520   1.439  15.841   8.250
 6727POPC   C3B31521   1.390  15.781   7.950
 6727POPC   C4B31522   1.405  15.839   7.650
 6728POPC   NC331523  41.531  25.991   9.450
 6728POPC   PO431524  41.587  26.009   9.150
 6728POPC   GL131525  41.586  26.078   8.850
 6728POPC   GL231526  41.403  26.028   8.850
 6728POPC   C1A31527  41.546  26.005   8.550
 6728POPC   D2A31528  41.556  25.996   8.250
 6728POPC   C3A31529  41.529  26.075   7.950
 6728POPC   C4A31530  41.515  26.049   7.650
 6728POPC   C1B31531  41.315  25.948   8.550
 6728POPC   C2B31532  41.308  25.929   8.250
 6728POPC   C3B31533  41.355  25.926   7.950
 6728POPC   C4B31534  41.344  25.953   7.650
 6729POPC   NC331535   2.724   3.501   9.450
 6729POPC   PO431536   2.734   3.502   9.150
 6729POPC   GL131537   2.776   3.530   8.850
 6729POPC   GL231538   2.618   3.539   8.850
 6729POPC   C1A31539   2.756   3.528   8.550
 6729POPC   D2A31540   2.755   3.589   8.250
 6729POPC   C3A31541   2.744   3.519   7.950
 6729POPC   C4A31542   2.787   3.558   7.650
 6729POPC   C1B31543   2.526   3.552   8.550
 6729POPC   C2B31544   2.470   3.524   8.250
 6729POPC   C3B31545   2.525   3.524   7.950
 6729POPC   C4B31546   2.500   3.533   7.650
 6730POPC   NC331547  10.491  26.858   9.450
 6730POPC   PO431548  10.528  26.838   9.150
 6730POPC   GL131549  10.549  26.808   8.850
 6730POPC   GL231550  10.495  26.912   8.850
 6730POPC   C1A31551  10.477  26.847   8.550
 6730POPC   D2A31552  10.566  26.828   8.250
 6730POPC   C3A31553  10.491  26.820   7.950
 6730POPC   C4A31554  10.497  26.811   7.650
 6730POPC   C1B31555  10.377  27.082   8.550
 6730POPC   C2B31556  10.356  26.994   8.250
 6730POPC   C3B31557  10.433  27.051   7.950
 6730POPC   C4B31558  10.397  26.994   7.650
 6731POPC   NC331559  33.020  18.330   9.450
 6731POPC   PO431560  32.995  18.244   9.150
 6731POPC   GL131561  33.044  18.315   8.850
 6731POPC   GL231562  32.925  18.359   8.850
 6731POPC   C1A31563  33.014  18.269   8.550
 6731POPC   D2A31564  33.054  18.247   8.250
 6731POPC   C3A31565  32.991  18.288   7.950
 6731POPC   C4A31566  33.069  18.279   7.650
 6731POPC   C1B31567  32.849  18.477   8.550
 6731POPC   C2B31568  32.839  18.476   8.250
 6731POPC   C3B31569  32.860  18.444   7.950
 6731POPC   C4B31570  32.797  18.424   7.650
 6732POPC   NC331571   2.779  29.959   9.450
 6732POPC   PO431572   2.786  29.921   9.150
 6732POPC   GL131573   2.755  29.924   8.850
 6732POPC   GL231574   2.768  30.071   8.850
 6732POPC   C1A31575   2.766  29.874   8.550
 6732POPC   D2A31576   2.786  29.893   8.250
 6732POPC   C3A31577   2.771  29.930   7.950
 6732POPC   C4A31578   2.754  29.887   7.650
 6732POPC   C1B31579   2.765  30.187   8.550
 6732POPC   C2B31580   2.831  30.125   8.250
 6732POPC   C3B31581   2.779  30.160   7.950
 6732POPC   C4B31582   2.796  30.135   7.650
 6733POPC   NC331583  41.552  38.413   9.450
 6733POPC   PO431584  41.600  38.420   9.150
 6733POPC   GL131585  41.581  38.492   8.850
 6733POPC   GL231586  41.535  38.314   8.850
 6733POPC   C1A31587  41.533  38.478   8.550
 6733POPC   D2A31588  41.575  38.455   8.250
 6733POPC   C3A31589  41.550  38.442   7.950
 6733POPC   C4A31590  41.536  38.443   7.650
 6733POPC   C1B31591  41.570  38.175   8.550
 6733POPC   C2B31592  41.525  38.206   8.250
 6733POPC   C3B31593  41.568  38.246   7.950
 6733POPC   C4B31594  41.538  38.208   7.650
 6734POPC   NC331595  35.379  22.211   9.450
 6734POPC   PO431596  35.388  22.175   9.150
 6734POPC   GL131597  35.330  22.158   8.850
 6734POPC   GL231598  35.497  22.160   8.850
 6734POPC   C1A31599  35.328  22.196   8.550
 6734POPC   D2A31600  35.348  22.194   8.250
 6734POPC   C3A31601  35.318  22.128   7.950
 6734POPC   C4A31602  35.310  22.166   7.650
 6734POPC   C1B31603  35.635  22.202   8.550
 6734POPC   C2B31604  35.580  22.193   8.250
 6734POPC   C3B31605  35.648  22.171   7.950
 6734POPC   C4B31606  35.624  22.202   7.650
 6735POPC   NC331607  10.525  40.030   9.450
 6735POPC   PO431608  10.563  39.995   9.150
 6735POPC   GL131609  10.491  40.023   8.850
 6735POPC   GL231610  10.481  39.882   8.850
 6735POPC   C1A31611  10.475  39.962   8.550
 6735POPC   D2A31612  10.497  39.963   8.250
 6735POPC   C3A31613  10.486  40.028   7.950
 6735POPC   C4A31614  10.514  40.055   7.650
 6735POPC   C1B31615  10.475  39.795   8.550
 6735POPC   C2B31616  10.531  39.723   8.250
 6735POPC   C3B31617  10.476  39.730   7.950
 6735POPC   C4B31618  10.471  39.753   7.650
 6736POPC   NC331619  23.680  15.215   9.450
 6736POPC   PO431620  23.733  15.208   9.150
 6736POPC   GL131621  23.708  15.173   8.850
 6736POPC   GL231622  23.687  15.053   8.850
 6736POPC   C1A31623  23.737  15.215   8.550
 6736POPC   D2A31624  23.688  15.229   8.250
 6736POPC   C3A31625  23.726  15.164   7.950
 6736POPC   C4A31626  23.669  15.139   7.650
 6736POPC   C1B31627  23.632  14.970   8.550
 6736POPC   C2B31628  23.636  14.980   8.250
 6736POPC   C3B31629  23.640  14.983   7.950
 6736POPC   C4B31630  23.546  14.952   7.650
 6737POPC   NC331631  24.467  44.632   9.450
 6737POPC   PO431632  24.528  44.710   9.150
 6737POPC   GL131633  24.443  44.622   8.850
 6737POPC   GL231634  24.486  44.766   8.850
 6737POPC   C1A31635  24.533  44.635   8.550
 6737POPC   D2A31636  24.516  44.639   8.250
 6737POPC   C3A31637  24.471  44.662   7.950
 6737POPC   C4A31638  24.483  44.646   7.650
 6737POPC   C1B31639  24.421  44.931   8.550
 6737POPC   C2B31640  24.455  44.946   8.250
 6737POPC   C3B31641  24.464  44.958   7.950
 6737POPC   C4B31642  24.427  44.906   7.650
 6738POPC   NC331643  24.516  16.743   9.450
 6738POPC   PO431644  24.533  16.697   9.150
 6738POPC   GL131645  24.479  16.691   8.850
 6738POPC   GL231646  24.415  16.811   8.850
 6738POPC   C1A31647  24.487  16.736   8.550
 6738POPC   D2A31648  24.528  16.682   8.250
 6738POPC   C3A31649  24.492  16.746   7.950
 6738POPC   C4A31650  24.491  16.708   7.650
 6738POPC   C1B31651  24.443  16.966   8.550
 6738POPC   C2B31652  24.437  16.966   8.250
 6738POPC   C3B31653  24.392  16.952   7.950
 6738POPC   C4B31654  24.439  16.948   7.650
 6739POPC   NC331655   5.128   8.984   9.450
 6739POPC   PO431656   5.139   8.985   9.150
 6739POPC   GL131657   5.128   8.959   8.850
 6739POPC   GL231658   4.979   8.978   8.850
 6739POPC   C1A31659   5.121   8.997   8.550
 6739POPC   D2A31660   5.100   8.985   8.250
 6739POPC   C3A31661   5.116   8.980   7.950
 6739POPC   C4A31662   5.123   8.944   7.650
 6739POPC   C1B31663   4.856   9.027   8.550
 6739POPC   C2B31664   4.807   9.031   8.250
 6739POPC   C3B31665   4.828   9.082   7.950
 6739POPC   C4B31666   4.877   9.081   7.650
 6740POPC   NC331667  40.043  21.357   9.450
 6740POPC   PO431668  39.991  21.397   9.150
 6740POPC   GL131669  39.974  21.426   8.850
 6740POPC   GL231670  40.139  21.331   8.850
 6740POPC   C1A31671  39.992  21.383   8.550
 6740POPC   D2A31672  40.021  21.419   8.250
 6740POPC   C3A31673  39.965  21.409   7.950
 6740POPC   C4A31674  39.964  21.344   7.650
 6740POPC   C1B31675  40.198  21.283   8.550
 6740POPC   C2B31676  40.253  21.222   8.250
 6740POPC   C3B31677  40.175  21.291   7.950
 6740POPC   C4B31678  40.242  21.265   7.650
 6741POPC   NC331679  38.468  36.902   9.450
 6741POPC   PO431680  38.435  36.919   9.150
 6741POPC   GL131681  38.499  36.893   8.850
 6741POPC   GL231682  38.288  36.911   8.850
 6741POPC   C1A31683  38.488  36.894   8.550
 6741POPC   D2A31684  38.440  36.886   8.250
 6741POPC   C3A31685  38.496  36.900   7.950
 6741POPC   C4A31686  38.488  36.918   7.650
 6741POPC   C1B31687  38.221  36.941   8.550
 6741POPC   C2B31688  38.178  36.897   8.250
 6741POPC   C3B31689  38.188  36.913   7.950
 6741POPC   C4B31690  38.238  36.852   7.650
 6742POPC   NC331691   4.360  39.228   9.450
 6742POPC   PO431692   4.289  39.183   9.150
 6742POPC   GL131693   4.366  39.208   8.850
 6742POPC   GL231694   4.273  39.308   8.850
 6742POPC   C1A31695   4.363  39.188   8.550
 6742POPC   D2A31696   4.358  39.196   8.250
 6742POPC   C3A31697   4.331  39.215   7.950
 6742POPC   C4A31698   4.323  39.273   7.650
 6742POPC   C1B31699   4.357  39.493   8.550
 6742POPC   C2B31700   4.274  39.459   8.250
 6742POPC   C3B31701   4.310  39.436   7.950
 6742POPC   C4B31702   4.316  39.490   7.650
 6743POPC   NC331703  38.472  39.251   9.450
 6743POPC   PO431704  38.479  39.199   9.150
 6743POPC   GL131705  38.472  39.254   8.850
 6743POPC   GL231706  38.495  39.113   8.850
 6743POPC   C1A31707  38.429  39.271   8.550
 6743POPC   D2A31708  38.438  39.201   8.250
 6743POPC   C3A31709  38.447  39.272   7.950
 6743POPC   C4A31710  38.487  39.224   7.650
 6743POPC   C1B31711  38.553  38.992   8.550
 6743POPC   C2B31712  38.627  39.003   8.250
 6743POPC   C3B31713  38.561  38.968   7.950
 6743POPC   C4B31714  38.614  38.968   7.650
 6744POPC   NC331715  17.514   7.453   9.450
 6744POPC   PO431716  17.537   7.456   9.150
 6744POPC   GL131717  17.527   7.423   8.850
 6744POPC   GL231718  17.651   7.363   8.850
 6744POPC   C1A31719  17.497   7.391   8.550
 6744POPC   D2A31720  17.505   7.392   8.250
 6744POPC   C3A31721  17.504   7.427   7.950
 6744POPC   C4A31722  17.539   7.441   7.650
 6744POPC   C1B31723  17.804   7.374   8.550
 6744POPC   C2B31724  17.764   7.399   8.250
 6744POPC   C3B31725  17.727   7.415   7.950
 6744POPC   C4B31726  17.729   7.360   7.650
 6745POPC   NC331727   3.564  26.067   9.450
 6745POPC   PO431728   3.554  26.061   9.150
 6745POPC   GL131729   3.534  26.018   8.850
 6745POPC   GL231730   3.476  26.074   8.850
 6745POPC   C1A31731   3.506  26.036   8.550
 6745POPC   D2A31732   3.565  26.061   8.250
 6745POPC   C3A31733   3.524  26.022   7.950
 6745POPC   C4A31734   3.570  26.057   7.650
 6745POPC   C1B31735   3.354  26.189   8.550
 6745POPC   C2B31736   3.309  26.135   8.250
 6745POPC   C3B31737   3.330  26.122   7.950
 6745POPC   C4B31738   3.299  26.179   7.650
 6746POPC   NC331739   2.796   4.311   9.450
 6746POPC   PO431740   2.732   4.299   9.150
 6746POPC   GL131741   2.777   4.277   8.850
 6746POPC   GL231742   2.738   4.441   8.850
 6746POPC   C1A31743   2.780   4.280   8.550
 6746POPC   D2A31744   2.719   4.343   8.250
 6746POPC   C3A31745   2.763   4.280   7.950
 6746POPC   C4A31746   2.775   4.268   7.650
 6746POPC   C1B31747   2.754   4.550   8.550
 6746POPC   C2B31748   2.781   4.568   8.250
 6746POPC   C3B31749   2.754   4.613   7.950
 6746POPC   C4B31750   2.751   4.540   7.650
 6747POPC   NC331751  15.173  30.694   9.450
 6747POPC   PO431752  15.137  30.714   9.150
 6747POPC   GL131753  15.133  30.729   8.850
 6747POPC   GL231754  15.087  30.818   8.850
 6747POPC   C1A31755  15.211  30.711   8.550
 6747POPC   D2A31756  15.152  30.745   8.250
 6747POPC   C3A31757  15.196  30.746   7.950
 6747POPC   C4A31758  15.222  30.735   7.650
 6747POPC   C1B31759  15.008  30.923   8.550
 6747POPC   C2B31760  15.049  30.911   8.250
 6747POPC   C3B31761  15.053  30.909   7.950
 6747POPC   C4B31762  14.984  30.856   7.650
 6748POPC   NC331763  17.468  14.411   9.450
 6748POPC   PO431764  17.532  14.368   9.150
 6748POPC   GL131765  17.492  14.364   8.850
 6748POPC   GL231766  17.636  14.400   8.850
 6748POPC   C1A31767  17.491  14.414   8.550
 6748POPC   D2A31768  17.533  14.373   8.250
 6748POPC   C3A31769  17.549  14.420   7.950
 6748POPC   C4A31770  17.505  14.411   7.650
 6748POPC   C1B31771  17.759  14.343   8.550
 6748POPC   C2B31772  17.774  14.334   8.250
 6748POPC   C3B31773  17.714  14.362   7.950
 6748POPC   C4B31774  17.782  14.337   7.650
 6749POPC   NC331775  22.135   9.016   9.450
 6749POPC   PO431776  22.125   8.937   9.150
 6749POPC   GL131777  22.121   8.931   8.850
 6749POPC   GL231778  22.133   9.109   8.850
 6749POPC   C1A31779  22.183   8.992   8.550
 6749POPC   D2A31780  22.158   9.016   8.250
 6749POPC   C3A31781  22.153   8.971   7.950
 6749POPC   C4A31782  22.211   8.999   7.650
 6749POPC   C1B31783  22.007   9.189   8.550
 6749POPC   C2B31784  22.036   9.220   8.250
 6749POPC   C3B31785  22.001   9.204   7.950
 6749POPC   C4B31786  22.010   9.194   7.650
 6750POPC   NC331787   6.663  43.126   9.450
 6750POPC   PO431788   6.684  43.128   9.150
 6750POPC   GL131789   6.613  43.107   8.850
 6750POPC   GL231790   6.653  42.995   8.850
 6750POPC   C1A31791   6.621  43.113   8.550
 6750POPC   D2A31792   6.672  43.081   8.250
 6750POPC   C3A31793   6.654  43.130   7.950
 6750POPC   C4A31794   6.595  43.108   7.650
 6750POPC   C1B31795   6.693  42.851   8.550
 6750POPC   C2B31796   6.642  42.858   8.250
 6750POPC   C3B31797   6.652  42.868   7.950
 6750POPC   C4B31798   6.693  42.836   7.650
 6751POPC   NC331799  32.294  26.068   9.450
 6751POPC   PO431800  32.293  26.089   9.150
 6751POPC   GL131801  32.242  26.029   8.850
 6751POPC   GL231802  32.401  25.968   8.850
 6751POPC   C1A31803  32.214  26.040   8.550
 6751POPC   D2A31804  32.296  26.068   8.250
 6751POPC   C3A31805  32.248  26.047   7.950
 6751POPC   C4A31806  32.217  26.090   7.650
 6751POPC   C1B31807  32.523  25.956   8.550
 6751POPC   C2B31808  32.457  25.925   8.250
 6751POPC   C3B31809  32.471  25.947   7.950
 6751POPC   C4B31810  32.473  25.926   7.650
 6752POPC   NC331811  40.831  38.481   9.450
 6752POPC   PO431812  40.830  38.474   9.150
 6752POPC   GL131813  40.744  38.424   8.850
 6752POPC   GL231814  40.775  38.327   8.850
 6752POPC   C1A31815  40.828  38.472   8.550
 6752POPC   D2A31816  40.801  38.499   8.250
 6752POPC   C3A31817  40.734  38.450   7.950
 6752POPC   C4A31818  40.779  38.407   7.650
 6752POPC   C1B31819  40.782  38.217   8.550
 6752POPC   C2B31820  40.756  38.192   8.250
 6752POPC   C3B31821  40.695  38.175   7.950
 6752POPC   C4B31822  40.757  38.230   7.650
 6753POPC   NC331823  19.032  44.703   9.450
 6753POPC   PO431824  19.106  44.712   9.150
 6753POPC   GL131825  19.040  44.627   8.850
 6753POPC   GL231826  19.198  44.725   8.850
 6753POPC   C1A31827  19.095  44.622   8.550
 6753POPC   D2A31828  19.069  44.692   8.250
 6753POPC   C3A31829  19.086  44.655   7.950
 6753POPC   C4A31830  19.099  44.636   7.650
 6753POPC   C1B31831  19.255  44.775   8.550
 6753POPC   C2B31832  19.317  44.691   8.250
 6753POPC   C3B31833  19.286  44.776   7.950
 6753POPC   C4B31834  19.259  44.704   7.650
 6754POPC   NC331835  25.270  16.689   9.450
 6754POPC   PO431836  25.269  16.739   9.150
 6754POPC   GL131837  25.262  16.760   8.850
 6754POPC   GL231838  25.397  16.646   8.850
 6754POPC   C1A31839  25.257  16.710   8.550
 6754POPC   D2A31840  25.286  16.681   8.250
 6754POPC   C3A31841  25.254  16.712   7.950
 6754POPC   C4A31842  25.222  16.762   7.650
 6754POPC   C1B31843  25.474  16.667   8.550
 6754POPC   C2B31844  25.463  16.617   8.250
 6754POPC   C3B31845  25.540  16.616   7.950
 6754POPC   C4B31846  25.485  16.642   7.650
 6755POPC   NC331847  12.896  37.659   9.450
 6755POPC   PO431848  12.821  37.678   9.150
 6755POPC   GL131849  12.847  37.638   8.850
 6755POPC   GL231850  12.993  37.635   8.850
 6755POPC   C1A31851  12.867  37.728   8.550
 6755POPC   D2A31852  12.826  37.727   8.250
 6755POPC   C3A31853  12.888  37.660   7.950
 6755POPC   C4A31854  12.868  37.716   7.650
 6755POPC   C1B31855  13.144  37.712   8.550
 6755POPC   C2B31856  13.094  37.646   8.250
 6755POPC   C3B31857  13.053  37.635   7.950
 6755POPC   C4B31858  13.124  37.614   7.650
 6756POPC   NC331859  40.813  12.841   9.450
 6756POPC   PO431860  40.810  12.863   9.150
 6756POPC   GL131861  40.739  12.830   8.850
 6756POPC   GL231862  40.653  12.878   8.850
 6756POPC   C1A31863  40.819  12.879   8.550
 6756POPC   D2A31864  40.769  12.812   8.250
 6756POPC   C3A31865  40.744  12.857   7.950
 6756POPC   C4A31866  40.819  12.889   7.650
 6756POPC   C1B31867  40.545  12.988   8.550
 6756POPC   C2B31868  40.588  13.040   8.250
 6756POPC   C3B31869  40.607  13.009   7.950
 6756POPC   C4B31870  40.542  12.986   7.650
 6757POPC   NC331871  28.329  32.203   9.450
 6757POPC   PO431872  28.356  32.251   9.150
 6757POPC   GL131873  28.319  32.238   8.850
 6757POPC   GL231874  28.255  32.158   8.850
 6757POPC   C1A31875  28.390  32.227   8.550
 6757POPC   D2A31876  28.376  32.214   8.250
 6757POPC   C3A31877  28.320  32.226   7.950
 6757POPC   C4A31878  28.360  32.250   7.650
 6757POPC   C1B31879  28.179  32.190   8.550
 6757POPC   C2B31880  28.187  32.197   8.250
 6757POPC   C3B31881  28.141  32.111   7.950
 6757POPC   C4B31882  28.190  32.126   7.650
 6758POPC   NC331883  43.089   1.967   9.450
 6758POPC   PO431884  43.129   2.010   9.150
 6758POPC   GL131885  43.136   2.001   8.850
 6758POPC   GL231886  43.196   1.873   8.850
 6758POPC   C1A31887  43.083   1.947   8.550
 6758POPC   D2A31888  43.132   2.002   8.250
 6758POPC   C3A31889  43.114   1.989   7.950
 6758POPC   C4A31890  43.118   1.998   7.650
 6758POPC   C1B31891  43.252   1.810   8.550
 6758POPC   C2B31892  43.247   1.768   8.250
 6758POPC   C3B31893  43.305   1.784   7.950
 6758POPC   C4B31894  43.277   1.791   7.650
 6759POPC   NC331895  17.476   2.779   9.450
 6759POPC   PO431896  17.473   2.737   9.150
 6759POPC   GL131897  17.478   2.786   8.850
 6759POPC   GL231898  17.570   2.924   8.850
 6759POPC   C1A31899  17.485   2.803   8.550
 6759POPC   D2A31900  17.474   2.792   8.250
 6759POPC   C3A31901  17.523   2.798   7.950
 6759POPC   C4A31902  17.503   2.758   7.650
 6759POPC   C1B31903  17.535   2.984   8.550
 6759POPC   C2B31904  17.516   3.023   8.250
 6759POPC   C3B31905  17.501   3.028   7.950
 6759POPC   C4B31906  17.588   3.041   7.650
 6760POPC   NC331907   3.513  30.699   9.450
 6760POPC   PO431908   3.493  30.651   9.150
 6760POPC   GL131909   3.520  30.733   8.850
 6760POPC   GL231910   3.446  30.823   8.850
 6760POPC   C1A31911   3.541  30.656   8.550
 6760POPC   D2A31912   3.568  30.671   8.250
 6760POPC   C3A31913   3.516  30.723   7.950
 6760POPC   C4A31914   3.507  30.708   7.650
 6760POPC   C1B31915   3.334  30.862   8.550
 6760POPC   C2B31916   3.391  30.898   8.250
 6760POPC   C3B31917   3.373  30.857   7.950
 6760POPC   C4B31918   3.359  30.859   7.650
 6761POPC   NC331919  19.867  22.190   9.450
 6761POPC   PO431920  19.861  22.129   9.150
 6761POPC   GL131921  19.878  22.138   8.850
 6761POPC   GL231922  19.902  22.209   8.850
 6761POPC   C1A31923  19.822  22.200   8.550
 6761POPC   D2A31924  19.868  22.174   8.250
 6761POPC   C3A31925  19.859  22.181   7.950
 6761POPC   C4A31926  19.826  22.143   7.650
 6761POPC   C1B31927  20.051  22.319   8.550
 6761POPC   C2B31928  20.012  22.271   8.250
 6761POPC   C3B31929  20.031  22.327   7.950
 6761POPC   C4B31930  20.097  22.313   7.650
 6762POPC   NC331931   5.122  28.349   9.450
 6762POPC   PO431932   5.050  28.322   9.150
 6762POPC   GL131933   5.139  28.382   8.850
 6762POPC   GL231934   4.963  28.260   8.850
 6762POPC   C1A31935   5.060  28.338   8.550
 6762POPC   D2A31936   5.066  28.332   8.250
 6762POPC   C3A31937   5.120  28.408   7.950
 6762POPC   C4A31938   5.048  28.321   7.650
 6762POPC   C1B31939   4.897  28.168   8.550
 6762POPC   C2B31940   4.888  28.216   8.250
 6762POPC   C3B31941   4.861  28.233   7.950
 6762POPC   C4B31942   4.861  28.184   7.650
 6763POPC   NC331943  33.825   5.882   9.450
 6763POPC   PO431944  33.752   5.846   9.150
 6763POPC   GL131945  33.800   5.864   8.850
 6763POPC   GL231946  33.669   5.873   8.850
 6763POPC   C1A31947  33.809   5.889   8.550
 6763POPC   D2A31948  33.792   5.915   8.250
 6763POPC   C3A31949  33.766   5.873   7.950
 6763POPC   C4A31950  33.822   5.862   7.650
 6763POPC   C1B31951  33.598   5.811   8.550
 6763POPC   C2B31952  33.604   5.768   8.250
 6763POPC   C3B31953  33.615   5.820   7.950
 6763POPC   C4B31954  33.592   5.826   7.650
 6764POPC   NC331955  32.217  19.788   9.450
 6764POPC   PO431956  32.239  19.798   9.150
 6764POPC   GL131957  32.235  19.826   8.850
 6764POPC   GL231958  32.193  19.754   8.850
 6764POPC   C1A31959  32.239  19.862   8.550
 6764POPC   D2A31960  32.214  19.824   8.250
 6764POPC   C3A31961  32.237  19.791   7.950
 6764POPC   C4A31962  32.212  19.870   7.650
 6764POPC   C1B31963  32.116  19.685   8.550
 6764POPC   C2B31964  32.048  19.696   8.250
 6764POPC   C3B31965  32.123  19.679   7.950
 6764POPC   C4B31966  32.046  19.679   7.650
 6765POPC   NC331967  39.237  20.619   9.450
 6765POPC   PO431968  39.224  20.598   9.150
 6765POPC   GL131969  39.228  20.620   8.850
 6765POPC   GL231970  39.333  20.675   8.850
 6765POPC   C1A31971  39.267  20.615   8.550
 6765POPC   D2A31972  39.245  20.590   8.250
 6765POPC   C3A31973  39.217  20.608   7.950
 6765POPC   C4A31974  39.234  20.631   7.650
 6765POPC   C1B31975  39.435  20.785   8.550
 6765POPC   C2B31976  39.450  20.799   8.250
 6765POPC   C3B31977  39.450  20.770   7.950
 6765POPC   C4B31978  39.433  20.749   7.650
 6766POPC   NC331979  25.235  35.321   9.450
 6766POPC   PO431980  25.308  35.376   9.150
 6766POPC   GL131981  25.261  35.363   8.850
 6766POPC   GL231982  25.292  35.238   8.850
 6766POPC   C1A31983  25.273  35.347   8.550
 6766POPC   D2A31984  25.306  35.400   8.250
 6766POPC   C3A31985  25.263  35.349   7.950
 6766POPC   C4A31986  25.287  35.323   7.650
 6766POPC   C1B31987  25.415  35.139   8.550
 6766POPC   C2B31988  25.435  35.119   8.250
 6766POPC   C3B31989  25.436  35.118   7.950
 6766POPC   C4B31990  25.424  35.197   7.650
 6767POPC   NC331991  44.680  40.750   9.450
 6767POPC   PO431992  44.684  40.750   9.150
 6767POPC   GL131993  44.626  40.801   8.850
 6767POPC   GL231994  44.626  40.688   8.850
 6767POPC   C1A31995  44.700  40.823   8.550
 6767POPC   D2A31996  44.692  40.822   8.250
 6767POPC   C3A31997  44.656  40.818   7.950
 6767POPC   C4A31998  44.634  40.816   7.650
 6767POPC   C1B31999  44.499  40.596   8.550
 6767POPC   C2B32000  44.542  40.589   8.250
 6767POPC   C3B32001  44.546  40.538   7.950
 6767POPC   C4B32002  44.488  40.621   7.650
 6768POPC   NC332003  27.581  27.630   9.450
 6768POPC   PO432004  27.596  27.584   9.150
 6768POPC   GL132005  27.550  27.631   8.850
 6768POPC   GL232006  27.677  27.724   8.850
 6768POPC   C1A32007  27.637  27.622   8.550
 6768POPC   D2A32008  27.620  27.614   8.250
 6768POPC   C3A32009  27.631  27.593   7.950
 6768POPC   C4A32010  27.637  27.595   7.650
 6768POPC   C1B32011  27.696  27.763   8.550
 6768POPC   C2B32012  27.714  27.794   8.250
 6768POPC   C3B32013  27.789  27.758   7.950
 6768POPC   C4B32014  27.709  27.835   7.650
 6769POPC   NC332015  36.174  39.978   9.450
 6769POPC   PO432016  36.108  40.022   9.150
 6769POPC   GL132017  36.125  39.977   8.850
 6769POPC   GL232018  36.168  40.105   8.850
 6769POPC   C1A32019  36.165  39.982   8.550
 6769POPC   D2A32020  36.118  40.016   8.250
 6769POPC   C3A32021  36.174  40.029   7.950
 6769POPC   C4A32022  36.162  39.983   7.650
 6769POPC   C1B32023  36.140  40.275   8.550
 6769POPC   C2B32024  36.133  40.283   8.250
 6769POPC   C3B32025  36.175  40.216   7.950
 6769POPC   C4B32026  36.145  40.271   7.650
 6770POPC   NC332027   6.693  23.705   9.450
 6770POPC   PO432028   6.626  23.694   9.150
 6770POPC   GL132029   6.679  23.702   8.850
 6770POPC   GL232030   6.716  23.822   8.850
 6770POPC   C1A32031   6.673  23.759   8.550
 6770POPC   D2A32032   6.673  23.756   8.250
 6770POPC   C3A32033   6.603  23.759   7.950
 6770POPC   C4A32034   6.680  23.697   7.650
 6770POPC   C1B32035   6.844  23.858   8.550
 6770POPC   C2B32036   6.902  23.879   8.250
 6770POPC   C3B32037   6.830  23.877   7.950
 6770POPC   C4B32038   6.852  23.819   7.650
 6771POPC   NC332039  42.301  26.835   9.450
 6771POPC   PO432040  42.380  26.787   9.150
 6771POPC   GL132041  42.334  26.838   8.850
 6771POPC   GL232042  42.360  26.715   8.850
 6771POPC   C1A32043  42.289  26.842   8.550
 6771POPC   D2A32044  42.309  26.814   8.250
 6771POPC   C3A32045  42.347  26.837   7.950
 6771POPC   C4A32046  42.351  26.847   7.650
 6771POPC   C1B32047  42.295  26.553   8.550
 6771POPC   C2B32048  42.315  26.613   8.250
 6771POPC   C3B32049  42.290  26.593   7.950
 6771POPC   C4B32050  42.315  26.531   7.650
 6772POPC   NC332051   5.865  42.302   9.450
 6772POPC   PO432052   5.837  42.354   9.150
 6772POPC   GL132053   5.903  42.368   8.850
 6772POPC   GL232054   5.912  42.244   8.850
 6772POPC   C1A32055   5.899  42.286   8.550
 6772POPC   D2A32056   5.887  42.378   8.250
 6772POPC   C3A32057   5.885  42.382   7.950
 6772POPC   C4A32058   5.915  42.355   7.650
 6772POPC   C1B32059   5.958  42.094   8.550
 6772POPC   C2B32060   5.925  42.138   8.250
 6772POPC   C3B32061   5.877  42.092   7.950
 6772POPC   C4B32062   5.940  42.045   7.650
 6773POPC   NC332063  25.998  26.792   9.450
 6773POPC   PO432064  26.026  26.814   9.150
 6773POPC   GL132065  26.027  26.798   8.850
 6773POPC   GL232066  26.156  26.945   8.850
 6773POPC   C1A32067  26.085  26.816   8.550
 6773POPC   D2A32068  26.075  26.839   8.250
 6773POPC   C3A32069  26.088  26.804   7.950
 6773POPC   C4A32070  26.027  26.834   7.650
 6773POPC   C1B32071  26.205  26.953   8.550
 6773POPC   C2B32072  26.256  26.966   8.250
 6773POPC   C3B32073  26.204  26.977   7.950
 6773POPC   C4B32074  26.212  26.955   7.650
 6774POPC   NC332075  36.119  26.038   9.450
 6774POPC   PO432076  36.129  26.087   9.150
 6774POPC   GL132077  36.144  26.032   8.850
 6774POPC   GL232078  36.057  25.990   8.850
 6774POPC   C1A32079  36.099  26.084   8.550
 6774POPC   D2A32080  36.079  26.086   8.250
 6774POPC   C3A32081  36.164  26.058   7.950
 6774POPC   C4A32082  36.149  26.040   7.650
 6774POPC   C1B32083  35.851  25.963   8.550
 6774POPC   C2B32084  35.871  25.956   8.250
 6774POPC   C3B32085  35.859  25.934   7.950
 6774POPC   C4B32086  35.846  25.993   7.650
 6775POPC   NC332087  32.214  31.429   9.450
 6775POPC   PO432088  32.293  31.465   9.150
 6775POPC   GL132089  32.283  31.459   8.850
 6775POPC   GL232090  32.326  31.442   8.850
 6775POPC   C1A32091  32.226  31.485   8.550
 6775POPC   D2A32092  32.219  31.488   8.250
 6775POPC   C3A32093  32.221  31.494   7.950
 6775POPC   C4A32094  32.243  31.470   7.650
 6775POPC   C1B32095  32.420  31.373   8.550
 6775POPC   C2B32096  32.461  31.387   8.250
 6775POPC   C3B32097  32.491  31.351   7.950
 6775POPC   C4B32098  32.442  31.309   7.650
 6776POPC   NC332099   0.425  43.144   9.450
 6776POPC   PO432100   0.458  43.102   9.150
 6776POPC   GL132101   0.404  43.131   8.850
 6776POPC   GL232102   0.458  42.957   8.850
 6776POPC   C1A32103   0.390  43.065   8.550
 6776POPC   D2A32104   0.456  43.094   8.250
 6776POPC   C3A32105   0.424  43.100   7.950
 6776POPC   C4A32106   0.419  43.114   7.650
 6776POPC   C1B32107   0.508  42.924   8.550
 6776POPC   C2B32108   0.510  42.848   8.250
 6776POPC   C3B32109   0.543  42.896   7.950
 6776POPC   C4B32110   0.524  42.936   7.650
 6777POPC   NC332111  26.030   8.191   9.450
 6777POPC   PO432112  26.025   8.202   9.150
 6777POPC   GL132113  26.024   8.235   8.850
 6777POPC   GL232114  26.111   8.275   8.850
 6777POPC   C1A32115  26.082   8.200   8.550
 6777POPC   D2A32116  26.081   8.245   8.250
 6777POPC   C3A32117  26.091   8.147   7.950
 6777POPC   C4A32118  26.036   8.148   7.650
 6777POPC   C1B32119  26.158   8.380   8.550
 6777POPC   C2B32120  26.196   8.390   8.250
 6777POPC   C3B32121  26.152   8.360   7.950
 6777POPC   C4B32122  26.198   8.396   7.650
 6778POPC   NC332123  36.877  38.454   9.450
 6778POPC   PO432124  36.933  38.409   9.150
 6778POPC   GL132125  36.882  38.504   8.850
 6778POPC   GL232126  37.057  38.448   8.850
 6778POPC   C1A32127  36.871  38.439   8.550
 6778POPC   D2A32128  36.907  38.470   8.250
 6778POPC   C3A32129  36.909  38.489   7.950
 6778POPC   C4A32130  36.941  38.461   7.650
 6778POPC   C1B32131  37.199  38.458   8.550
 6778POPC   C2B32132  37.163  38.445   8.250
 6778POPC   C3B32133  37.149  38.437   7.950
 6778POPC   C4B32134  37.191  38.456   7.650
 6779POPC   NC332135   2.728   8.931   9.450
 6779POPC   PO432136   2.722   8.944   9.150
 6779POPC   GL132137   2.758   8.935   8.850
 6779POPC   GL232138   2.719   9.020   8.850
 6779POPC   C1A32139   2.793   8.929   8.550
 6779POPC   D2A32140   2.747   8.945   8.250
 6779POPC   C3A32141   2.727   9.001   7.950
 6779POPC   C4A32142   2.765   8.999   7.650
 6779POPC   C1B32143   2.557   9.112   8.550
 6779POPC   C2B32144   2.575   9.113   8.250
 6779POPC   C3B32145   2.538   9.164   7.950
 6779POPC   C4B32146   2.534   9.097   7.650
 6780POPC   NC332147   6.681   8.193   9.450
 6780POPC   PO432148   6.650   8.201   9.150
 6780POPC   GL132149   6.666   8.189   8.850
 6780POPC   GL232150   6.774   8.155   8.850
 6780POPC   C1A32151   6.626   8.156   8.550
 6780POPC   D2A32152   6.633   8.184   8.250
 6780POPC   C3A32153   6.674   8.205   7.950
 6780POPC   C4A32154   6.626   8.166   7.650
 6780POPC   C1B32155   6.903   8.147   8.550
 6780POPC   C2B32156   6.863   8.127   8.250
 6780POPC   C3B32157   6.912   8.184   7.950
 6780POPC   C4B32158   6.888   8.174   7.650
 6781POPC   NC332159   0.402  21.408   9.450
 6781POPC   PO432160   0.462  21.376   9.150
 6781POPC   GL132161   0.485  21.420   8.850
 6781POPC   GL232162   0.341  21.405   8.850
 6781POPC   C1A32163   0.420  21.352   8.550
 6781POPC   D2A32164   0.440  21.409   8.250
 6781POPC   C3A32165   0.441  21.345   7.950
 6781POPC   C4A32166   0.434  21.346   7.650
 6781POPC   C1B32167   0.237  21.378   8.550
 6781POPC   C2B32168   0.185  21.357   8.250
 6781POPC   C3B32169   0.154  21.402   7.950
 6781POPC   C4B32170   0.161  21.416   7.650
 6782POPC   NC332171  11.339   3.583   9.450
 6782POPC   PO432172  11.263   3.497   9.150
 6782POPC   GL132173  11.257   3.575   8.850
 6782POPC   GL232174  11.343   3.622   8.850
 6782POPC   C1A32175  11.302   3.556   8.550
 6782POPC   D2A32176  11.279   3.557   8.250
 6782POPC   C3A32177  11.305   3.588   7.950
 6782POPC   C4A32178  11.331   3.555   7.650
 6782POPC   C1B32179  11.514   3.745   8.550
 6782POPC   C2B32180  11.491   3.751   8.250
 6782POPC   C3B32181  11.469   3.682   7.950
 6782POPC   C4B32182  11.446   3.671   7.650
 6783POPC   NC332183   3.551  43.867   9.450
 6783POPC   PO432184   3.518  43.846   9.150
 6783POPC   GL132185   3.576  43.864   8.850
 6783POPC   GL232186   3.659  43.813   8.850
 6783POPC   C1A32187   3.523  43.932   8.550
 6783POPC   D2A32188   3.507  43.894   8.250
 6783POPC   C3A32189   3.538  43.851   7.950
 6783POPC   C4A32190   3.541  43.855   7.650
 6783POPC   C1B32191   3.681  43.729   8.550
 6783POPC   C2B32192   3.649  43.676   8.250
 6783POPC   C3B32193   3.659  43.704   7.950
 6783POPC   C4B32194   3.684  43.649   7.650
 6784POPC   NC332195  31.473  12.079   9.450
 6784POPC   PO432196  31.465  12.101   9.150
 6784POPC   GL132197  31.490  12.102   8.850
 6784POPC   GL232198  31.381  12.027   8.850
 6784POPC   C1A32199  31.497  12.065   8.550
 6784POPC   D2A32200  31.454  12.066   8.250
 6784POPC   C3A32201  31.493  12.124   7.950
 6784POPC   C4A32202  31.434  12.093   7.650
 6784POPC   C1B32203  31.257  11.915   8.550
 6784POPC   C2B32204  31.269  11.959   8.250
 6784POPC   C3B32205  31.291  11.890   7.950
 6784POPC   C4B32206  31.299  11.905   7.650
 6785POPC   NC332207   7.393  16.693   9.450
 6785POPC   PO432208   7.392  16.689   9.150
 6785POPC   GL132209   7.376  16.689   8.850
 6785POPC   GL232210   7.338  16.799   8.850
 6785POPC   C1A32211   7.378  16.695   8.550
 6785POPC   D2A32212   7.424  16.690   8.250
 6785POPC   C3A32213   7.373  16.770   7.950
 6785POPC   C4A32214   7.371  16.748   7.650
 6785POPC   C1B32215   7.198  16.806   8.550
 6785POPC   C2B32216   7.186  16.746   8.250
 6785POPC   C3B32217   7.216  16.783   7.950
 6785POPC   C4B32218   7.175  16.802   7.650
 6786POPC   NC332219  14.425  37.644   9.450
 6786POPC   PO432220  14.450  37.664   9.150
 6786POPC   GL132221  14.408  37.676   8.850
 6786POPC   GL232222  14.296  37.742   8.850
 6786POPC   C1A32223  14.415  37.692   8.550
 6786POPC   D2A32224  14.418  37.655   8.250
 6786POPC   C3A32225  14.421  37.698   7.950
 6786POPC   C4A32226  14.440  37.680   7.650
 6786POPC   C1B32227  14.127  37.706   8.550
 6786POPC   C2B32228  14.183  37.723   8.250
 6786POPC   C3B32229  14.192  37.723   7.950
 6786POPC   C4B32230  14.139  37.693   7.650
 6787POPC   NC332231   6.688  15.150   9.450
 6787POPC   PO432232   6.630  15.140   9.150
 6787POPC   GL132233   6.646  15.161   8.850
 6787POPC   GL232234   6.730  15.155   8.850
 6787POPC   C1A32235   6.596  15.220   8.550
 6787POPC   D2A32236   6.693  15.135   8.250
 6787POPC   C3A32237   6.694  15.139   7.950
 6787POPC   C4A32238   6.645  15.170   7.650
 6787POPC   C1B32239   6.877  15.098   8.550
 6787POPC   C2B32240   6.837  15.060   8.250
 6787POPC   C3B32241   6.829  15.109   7.950
 6787POPC   C4B32242   6.911  15.083   7.650
 6788POPC   NC332243   1.982  12.890   9.450
 6788POPC   PO432244   1.973  12.852   9.150
 6788POPC   GL132245   2.039  12.838   8.850
 6788POPC   GL232246   2.056  12.978   8.850
 6788POPC   C1A32247   1.987  12.860   8.550
 6788POPC   D2A32248   2.019  12.889   8.250
 6788POPC   C3A32249   2.021  12.808   7.950
 6788POPC   C4A32250   2.005  12.804   7.650
 6788POPC   C1B32251   2.160  13.055   8.550
 6788POPC   C2B32252   2.091  13.074   8.250
 6788POPC   C3B32253   2.148  13.060   7.950
 6788POPC   C4B32254   2.129  13.022   7.650
 6789POPC   NC332255  13.635   1.212   9.450
 6789POPC   PO432256  13.617   1.192   9.150
 6789POPC   GL132257  13.582   1.230   8.850
 6789POPC   GL232258  13.685   1.270   8.850
 6789POPC   C1A32259  13.580   1.221   8.550
 6789POPC   D2A32260  13.623   1.252   8.250
 6789POPC   C3A32261  13.584   1.258   7.950
 6789POPC   C4A32262  13.613   1.218   7.650
 6789POPC   C1B32263  13.814   1.320   8.550
 6789POPC   C2B32264  13.818   1.394   8.250
 6789POPC   C3B32265  13.821   1.334   7.950
 6789POPC   C4B32266  13.874   1.369   7.650
 6790POPC   NC332267  14.408  34.601   9.450
 6790POPC   PO432268  14.410  34.595   9.150
 6790POPC   GL132269  14.383  34.555   8.850
 6790POPC   GL232270  14.251  34.526   8.850
 6790POPC   C1A32271  14.393  34.612   8.550
 6790POPC   D2A32272  14.423  34.593   8.250
 6790POPC   C3A32273  14.359  34.591   7.950
 6790POPC   C4A32274  14.444  34.547   7.650
 6790POPC   C1B32275  14.134  34.546   8.550
 6790POPC   C2B32276  14.187  34.580   8.250
 6790POPC   C3B32277  14.118  34.552   7.950
 6790POPC   C4B32278  14.149  34.559   7.650
 6791POPC   NC332279  34.575  23.718   9.450
 6791POPC   PO432280  34.595  23.710   9.150
 6791POPC   GL132281  34.551  23.732   8.850
 6791POPC   GL232282  34.742  23.682   8.850
 6791POPC   C1A32283  34.603  23.696   8.550
 6791POPC   D2A32284  34.613  23.758   8.250
 6791POPC   C3A32285  34.611  23.688   7.950
 6791POPC   C4A32286  34.534  23.751   7.650
 6791POPC   C1B32287  34.848  23.701   8.550
 6791POPC   C2B32288  34.774  23.664   8.250
 6791POPC   C3B32289  34.824  23.662   7.950
 6791POPC   C4B32290  34.865  23.689   7.650
 6792POPC   NC332291  10.573  30.673   9.450
 6792POPC   PO432292  10.500  30.701   9.150
 6792POPC   GL132293  10.518  30.736   8.850
 6792POPC   GL232294  10.585  30.611   8.850
 6792POPC   C1A32295  10.508  30.692   8.550
 6792POPC   D2A32296  10.534  30.665   8.250
 6792POPC   C3A32297  10.545  30.647   7.950
 6792POPC   C4A32298  10.528  30.661   7.650
 6792POPC   C1B32299  10.598  30.412   8.550
 6792POPC   C2B32300  10.510  30.416   8.250
 6792POPC   C3B32301  10.544  30.425   7.950
 6792POPC   C4B32302  10.586  30.455   7.650
 6793POPC   NC332303   6.648   0.471   9.450
 6793POPC   PO432304   6.613   0.389   9.150
 6793POPC   GL132305   6.676   0.488   8.850
 6793POPC   GL232306   6.689   0.305   8.850
 6793POPC   C1A32307   6.685   0.472   8.550
 6793POPC   D2A32308   6.635   0.451   8.250
 6793POPC   C3A32309   6.639   0.396   7.950
 6793POPC   C4A32310   6.609   0.445   7.650
 6793POPC   C1B32311   6.750   0.180   8.550
 6793POPC   C2B32312   6.696   0.234   8.250
 6793POPC   C3B32313   6.783   0.166   7.950
 6793POPC   C4B32314   6.775   0.171   7.650
 6794POPC   NC332315   4.288  28.325   9.450
 6794POPC   PO432316   4.364  28.342   9.150
 6794POPC   GL132317   4.327  28.337   8.850
 6794POPC   GL232318   4.439  28.409   8.850
 6794POPC   C1A32319   4.274  28.361   8.550
 6794POPC   D2A32320   4.269  28.340   8.250
 6794POPC   C3A32321   4.321  28.390   7.950
 6794POPC   C4A32322   4.312  28.325   7.650
 6794POPC   C1B32323   4.464  28.527   8.550
 6794POPC   C2B32324   4.539  28.505   8.250
 6794POPC   C3B32325   4.479  28.502   7.950
 6794POPC   C4B32326   4.479  28.548   7.650
 6795POPC   NC332327  17.481  34.570   9.450
 6795POPC   PO432328  17.499  34.587   9.150
 6795POPC   GL132329  17.502  34.565   8.850
 6795POPC   GL232330  17.563  34.672   8.850
 6795POPC   C1A32331  17.458  34.604   8.550
 6795POPC   D2A32332  17.490  34.606   8.250
 6795POPC   C3A32333  17.541  34.555   7.950
 6795POPC   C4A32334  17.511  34.589   7.650
 6795POPC   C1B32335  17.509  34.793   8.550
 6795POPC   C2B32336  17.595  34.857   8.250
 6795POPC   C3B32337  17.551  34.781   7.950
 6795POPC   C4B32338  17.536  34.835   7.650
 6796POPC   NC332339   1.981  40.027   9.450
 6796POPC   PO432340   2.031  39.968   9.150
 6796POPC   GL132341   2.032  40.035   8.850
 6796POPC   GL232342   2.085  39.939   8.850
 6796POPC   C1A32343   1.988  40.015   8.550
 6796POPC   D2A32344   1.962  39.966   8.250
 6796POPC   C3A32345   1.957  40.012   7.950
 6796POPC   C4A32346   1.948  40.033   7.650
 6796POPC   C1B32347   2.180  39.845   8.550
 6796POPC   C2B32348   2.240  39.883   8.250
 6796POPC   C3B32349   2.205  39.910   7.950
 6796POPC   C4B32350   2.181  39.889   7.650
 6797POPC   NC332351  12.061  26.826   9.450
 6797POPC   PO432352  12.070  26.867   9.150
 6797POPC   GL132353  12.076  26.834   8.850
 6797POPC   GL232354  12.162  26.968   8.850
 6797POPC   C1A32355  12.092  26.845   8.550
 6797POPC   D2A32356  12.100  26.864   8.250
 6797POPC   C3A32357  12.065  26.841   7.950
 6797POPC   C4A32358  12.039  26.822   7.650
 6797POPC   C1B32359  12.200  27.003   8.550
 6797POPC   C2B32360  12.247  27.030   8.250
 6797POPC   C3B32361  12.234  27.020   7.950
 6797POPC   C4B32362  12.213  27.062   7.650
 6798POPC   NC332363  35.373  16.715   9.450
 6798POPC   PO432364  35.385  16.702   9.150
 6798POPC   GL132365  35.330  16.772   8.850
 6798POPC   GL232366  35.455  16.794   8.850
 6798POPC   C1A32367  35.344  16.681   8.550
 6798POPC   D2A32368  35.378  16.745   8.250
 6798POPC   C3A32369  35.397  16.708   7.950
 6798POPC   C4A32370  35.341  16.759   7.650
 6798POPC   C1B32371  35.628  16.830   8.550
 6798POPC   C2B32372  35.620  16.832   8.250
 6798POPC   C3B32373  35.592  16.834   7.950
 6798POPC   C4B32374  35.640  16.843   7.650
 6799POPC   NC332375   5.836   0.409   9.450
 6799POPC   PO432376   5.880   0.463   9.150
 6799POPC   GL132377   5.885   0.468   8.850
 6799POPC   GL232378   5.742   0.456   8.850
 6799POPC   C1A32379   5.880   0.431   8.550
 6799POPC   D2A32380   5.901   0.439   8.250
 6799POPC   C3A32381   5.827   0.451   7.950
 6799POPC   C4A32382   5.837   0.475   7.650
 6799POPC   C1B32383   5.630   0.502   8.550
 6799POPC   C2B32384   5.617   0.476   8.250
 6799POPC   C3B32385   5.632   0.464   7.950
 6799POPC   C4B32386   5.657   0.460   7.650
 6800POPC   NC332387   6.690  31.441   9.450
 6800POPC   PO432388   6.650  31.436   9.150
 6800POPC   GL132389   6.625  31.448   8.850
 6800POPC   GL232390   6.777  31.404   8.850
 6800POPC   C1A32391   6.687  31.510   8.550
 6800POPC   D2A32392   6.675  31.495   8.250
 6800POPC   C3A32393   6.598  31.472   7.950
 6800POPC   C4A32394   6.657  31.448   7.650
 6800POPC   C1B32395   6.819  31.317   8.550
 6800POPC   C2B32396   6.801  31.359   8.250
 6800POPC   C3B32397   6.835  31.343   7.950
 6800POPC   C4B32398   6.885  31.272   7.650
 6801POPC   NC332399  29.142  17.474   9.450
 6801POPC   PO432400  29.140  17.514   9.150
 6801POPC   GL132401  29.170  17.488   8.850
 6801POPC   GL232402  29.009  17.524   8.850
 6801POPC   C1A32403  29.141  17.474   8.550
 6801POPC   D2A32404  29.117  17.539   8.250
 6801POPC   C3A32405  29.125  17.469   7.950
 6801POPC   C4A32406  29.164  17.479   7.650
 6801POPC   C1B32407  28.861  17.533   8.550
 6801POPC   C2B32408  28.924  17.538   8.250
 6801POPC   C3B32409  28.940  17.570   7.950
 6801POPC   C4B32410  28.886  17.566   7.650
 6802POPC   NC332411  40.810  27.602   9.450
 6802POPC   PO432412  40.745  27.556   9.150
 6802POPC   GL132413  40.752  27.566   8.850
 6802POPC   GL232414  40.890  27.682   8.850
 6802POPC   C1A32415  40.781  27.574   8.550
 6802POPC   D2A32416  40.770  27.556   8.250
 6802POPC   C3A32417  40.817  27.592   7.950
 6802POPC   C4A32418  40.783  27.636   7.650
 6802POPC   C1B32419  41.002  27.797   8.550
 6802POPC   C2B32420  41.026  27.733   8.250
 6802POPC   C3B32421  40.979  27.715   7.950
 6802POPC   C4B32422  40.977  27.708   7.650
 6803POPC   NC332423  21.405   2.025   9.450
 6803POPC   PO432424  21.360   2.035   9.150
 6803POPC   GL132425  21.403   2.004   8.850
 6803POPC   GL232426  21.216   1.938   8.850
 6803POPC   C1A32427  21.415   2.033   8.550
 6803POPC   D2A32428  21.394   1.973   8.250
 6803POPC   C3A32429  21.358   2.000   7.950
 6803POPC   C4A32430  21.400   1.998   7.650
 6803POPC   C1B32431  21.130   1.970   8.550
 6803POPC   C2B32432  21.132   1.991   8.250
 6803POPC   C3B32433  21.142   1.929   7.950
 6803POPC   C4B32434  21.118   1.936   7.650
 6804POPC   NC332435  14.378   5.918   9.450
 6804POPC   PO432436  14.416   5.905   9.150
 6804POPC   GL132437  14.402   5.916   8.850
 6804POPC   GL232438  14.565   5.875   8.850
 6804POPC   C1A32439  14.395   5.905   8.550
 6804POPC   D2A32440  14.390   5.825   8.250
 6804POPC   C3A32441  14.355   5.863   7.950
 6804POPC   C4A32442  14.432   5.914   7.650
 6804POPC   C1B32443  14.657   5.901   8.550
 6804POPC   C2B32444  14.691   5.894   8.250
 6804POPC   C3B32445  14.643   5.857   7.950
 6804POPC   C4B32446  14.659   5.879   7.650
 6805POPC   NC332447   7.393  26.802   9.450
 6805POPC   PO432448   7.391  26.770   9.150
 6805POPC   GL132449   7.413  26.810   8.850
 6805POPC   GL232450   7.364  26.902   8.850
 6805POPC   C1A32451   7.437  26.835   8.550
 6805POPC   D2A32452   7.459  26.797   8.250
 6805POPC   C3A32453   7.423  26.798   7.950
 6805POPC   C4A32454   7.408  26.839   7.650
 6805POPC   C1B32455   7.390  27.090   8.550
 6805POPC   C2B32456   7.348  27.083   8.250
 6805POPC   C3B32457   7.357  27.039   7.950
 6805POPC   C4B32458   7.351  27.015   7.650
 6806POPC   NC332459  22.943  19.844   9.450
 6806POPC   PO432460  22.892  19.790   9.150
 6806POPC   GL132461  22.908  19.824   8.850
 6806POPC   GL232462  22.963  19.698   8.850
 6806POPC   C1A32463  22.964  19.800   8.550
 6806POPC   D2A32464  22.895  19.856   8.250
 6806POPC   C3A32465  22.899  19.884   7.950
 6806POPC   C4A32466  22.938  19.868   7.650
 6806POPC   C1B32467  23.045  19.583   8.550
 6806POPC   C2B32468  23.071  19.588   8.250
 6806POPC   C3B32469  23.021  19.656   7.950
 6806POPC   C4B32470  23.064  19.569   7.650
 6807POPC   NC332471  35.331  29.122   9.450
 6807POPC   PO432472  35.313  29.112   9.150
 6807POPC   GL132473  35.358  29.142   8.850
 6807POPC   GL232474  35.464  29.128   8.850
 6807POPC   C1A32475  35.322  29.161   8.550
 6807POPC   D2A32476  35.302  29.130   8.250
 6807POPC   C3A32477  35.333  29.112   7.950
 6807POPC   C4A32478  35.311  29.183   7.650
 6807POPC   C1B32479  35.576  29.136   8.550
 6807POPC   C2B32480  35.602  29.131   8.250
 6807POPC   C3B32481  35.568  29.207   7.950
 6807POPC   C4B32482  35.620  29.188   7.650
 6808POPC   NC332483  21.418  16.753   9.450
 6808POPC   PO432484  21.422  16.753   9.150
 6808POPC   GL132485  21.342  16.738   8.850
 6808POPC   GL232486  21.507  16.631   8.850
 6808POPC   C1A32487  21.408  16.691   8.550
 6808POPC   D2A32488  21.399  16.736   8.250
 6808POPC   C3A32489  21.374  16.763   7.950
 6808POPC   C4A32490  21.352  16.750   7.650
 6808POPC   C1B32491  21.504  16.502   8.550
 6808POPC   C2B32492  21.577  16.508   8.250
 6808POPC   C3B32493  21.539  16.499   7.950
 6808POPC   C4B32494  21.518  16.491   7.650
 6809POPC   NC332495   0.421  40.002   9.450
 6809POPC   PO432496   0.398  39.974   9.150
 6809POPC   GL132497   0.470  39.978   8.850
 6809POPC   GL232498   0.479  39.933   8.850
 6809POPC   C1A32499   0.414  40.008   8.550
 6809POPC   D2A32500   0.405  40.022   8.250
 6809POPC   C3A32501   0.398  40.047   7.950
 6809POPC   C4A32502   0.434  39.964   7.650
 6809POPC   C1B32503   0.518  39.817   8.550
 6809POPC   C2B32504   0.529  39.803   8.250
 6809POPC   C3B32505   0.572  39.807   7.950
 6809POPC   C4B32506   0.566  39.749   7.650
 6810POPC   NC332507  26.849  13.654   9.450
 6810POPC   PO432508  26.801  13.665   9.150
 6810POPC   GL132509  26.858  13.639   8.850
 6810POPC   GL232510  26.855  13.542   8.850
 6810POPC   C1A32511  26.768  13.635   8.550
 6810POPC   D2A32512  26.819  13.588   8.250
 6810POPC   C3A32513  26.797  13.620   7.950
 6810POPC   C4A32514  26.822  13.578   7.650
 6810POPC   C1B32515  26.828  13.411   8.550
 6810POPC   C2B32516  26.844  13.365   8.250
 6810POPC   C3B32517  26.780  13.392   7.950
 6810POPC   C4B32518  26.799  13.366   7.650
 6811POPC   NC332519   1.969  20.571   9.450
 6811POPC   PO432520   2.039  20.638   9.150
 6811POPC   GL132521   2.014  20.636   8.850
 6811POPC   GL232522   2.029  20.544   8.850
 6811POPC   C1A32523   1.974  20.637   8.550
 6811POPC   D2A32524   1.971  20.615   8.250
 6811POPC   C3A32525   2.030  20.627   7.950
 6811POPC   C4A32526   2.027  20.583   7.650
 6811POPC   C1B32527   2.122  20.391   8.550
 6811POPC   C2B32528   2.172  20.395   8.250
 6811POPC   C3B32529   2.097  20.414   7.950
 6811POPC   C4B32530   2.152  20.415   7.650
 6812POPC   NC332531  16.752  36.913   9.450
 6812POPC   PO432532  16.686  36.926   9.150
 6812POPC   GL132533  16.739  36.857   8.850
 6812POPC   GL232534  16.780  36.806   8.850
 6812POPC   C1A32535  16.697  36.918   8.550
 6812POPC   D2A32536  16.747  36.865   8.250
 6812POPC   C3A32537  16.731  36.949   7.950
 6812POPC   C4A32538  16.700  36.886   7.650
 6812POPC   C1B32539  16.798  36.671   8.550
 6812POPC   C2B32540  16.867  36.690   8.250
 6812POPC   C3B32541  16.839  36.694   7.950
 6812POPC   C4B32542  16.856  36.671   7.650
 6813POPC   NC332543   1.946  17.505   9.450
 6813POPC   PO432544   1.950  17.498   9.150
 6813POPC   GL132545   1.975  17.537   8.850
 6813POPC   GL232546   1.822  17.543   8.850
 6813POPC   C1A32547   2.028  17.497   8.550
 6813POPC   D2A32548   1.965  17.488   8.250
 6813POPC   C3A32549   1.997  17.527   7.950
 6813POPC   C4A32550   1.950  17.519   7.650
 6813POPC   C1B32551   1.778  17.519   8.550
 6813POPC   C2B32552   1.773  17.598   8.250
 6813POPC   C3B32553   1.706  17.508   7.950
 6813POPC   C4B32554   1.716  17.594   7.650
 6814POPC   NC332555  36.901  13.597   9.450
 6814POPC   PO432556  36.896  13.615   9.150
 6814POPC   GL132557  36.951  13.656   8.850
 6814POPC   GL232558  36.986  13.487   8.850
 6814POPC   C1A32559  36.886  13.658   8.550
 6814POPC   D2A32560  36.946  13.603   8.250
 6814POPC   C3A32561  36.921  13.612   7.950
 6814POPC   C4A32562  36.934  13.669   7.650
 6814POPC   C1B32563  37.007  13.403   8.550
 6814POPC   C2B32564  37.014  13.386   8.250
 6814POPC   C3B32565  37.013  13.433   7.950
 6814POPC   C4B32566  37.033  13.359   7.650
 6815POPC   NC332567  29.880  43.144   9.450
 6815POPC   PO432568  29.930  43.119   9.150
 6815POPC   GL132569  29.905  43.062   8.850
 6815POPC   GL232570  29.809  43.062   8.850
 6815POPC   C1A32571  29.883  43.143   8.550
 6815POPC   D2A32572  29.913  43.116   8.250
 6815POPC   C3A32573  29.887  43.113   7.950
 6815POPC   C4A32574  29.942  43.152   7.650
 6815POPC   C1B32575  29.667  43.078   8.550
 6815POPC   C2B32576  29.664  43.009   8.250
 6815POPC   C3B32577  29.630  43.004   7.950
 6815POPC   C4B32578  29.676  43.041   7.650
 6816POPC   NC332579  25.225  26.003   9.450
 6816POPC   PO432580  25.225  25.997   9.150
 6816POPC   GL132581  25.265  26.027   8.850
 6816POPC   GL232582  25.121  26.001   8.850
 6816POPC   C1A32583  25.236  26.083   8.550
 6816POPC   D2A32584  25.295  26.052   8.250
 6816POPC   C3A32585  25.301  26.057   7.950
 6816POPC   C4A32586  25.294  26.072   7.650
 6816POPC   C1B32587  25.024  25.930   8.550
 6816POPC   C2B32588  25.047  25.897   8.250
 6816POPC   C3B32589  25.045  25.929   7.950
 6816POPC   C4B32590  25.016  25.931   7.650
 6817POPC   NC332591  39.183  24.457   9.450
 6817POPC   PO432592  39.181  24.523   9.150
 6817POPC   GL132593  39.274  24.463   8.850
 6817POPC   GL232594  39.279  24.426   8.850
 6817POPC   C1A32595  39.201  24.513   8.550
 6817POPC   D2A32596  39.228  24.471   8.250
 6817POPC   C3A32597  39.255  24.537   7.950
 6817POPC   C4A32598  39.251  24.456   7.650
 6817POPC   C1B32599  39.406  24.315   8.550
 6817POPC   C2B32600  39.466  24.325   8.250
 6817POPC   C3B32601  39.384  24.316   7.950
 6817POPC   C4B32602  39.407  24.287   7.650
 6818POPC   NC332603  36.135  43.872   9.450
 6818POPC   PO432604  36.151  43.848   9.150
 6818POPC   GL132605  36.154  43.893   8.850
 6818POPC   GL232606  36.194  43.920   8.850
 6818POPC   C1A32607  36.088  43.896   8.550
 6818POPC   D2A32608  36.135  43.881   8.250
 6818POPC   C3A32609  36.126  43.923   7.950
 6818POPC   C4A32610  36.148  43.913   7.650
 6818POPC   C1B32611  36.392  44.019   8.550
 6818POPC   C2B32612  36.348  43.956   8.250
 6818POPC   C3B32613  36.311  43.970   7.950
 6818POPC   C4B32614  36.347  43.987   7.650
 6819POPC   NC332615  27.594  35.356   9.450
 6819POPC   PO432616  27.577  35.365   9.150
 6819POPC   GL132617  27.606  35.338   8.850
 6819POPC   GL232618  27.632  35.457   8.850
 6819POPC   C1A32619  27.608  35.311   8.550
 6819POPC   D2A32620  27.605  35.389   8.250
 6819POPC   C3A32621  27.613  35.343   7.950
 6819POPC   C4A32622  27.628  35.339   7.650
 6819POPC   C1B32623  27.709  35.515   8.550
 6819POPC   C2B32624  27.765  35.532   8.250
 6819POPC   C3B32625  27.759  35.609   7.950
 6819POPC   C4B32626  27.741  35.574   7.650
 6820POPC   NC332627  19.810  19.804   9.450
 6820POPC   PO432628  19.823  19.785   9.150
 6820POPC   GL132629  19.873  19.811   8.850
 6820POPC   GL232630  19.912  19.917   8.850
 6820POPC   C1A32631  19.797  19.843   8.550
 6820POPC   D2A32632  19.809  19.882   8.250
 6820POPC   C3A32633  19.874  19.857   7.950
 6820POPC   C4A32634  19.878  19.884   7.650
 6820POPC   C1B32635  20.029  20.018   8.550
 6820POPC   C2B32636  20.054  20.035   8.250
 6820POPC   C3B32637  20.001  19.952   7.950
 6820POPC   C4B32638  20.000  19.972   7.650
 6821POPC   NC332639   1.974   2.769   9.450
 6821POPC   PO432640   1.978   2.768   9.150
 6821POPC   GL132641   1.963   2.806   8.850
 6821POPC   GL232642   2.098   2.805   8.850
 6821POPC   C1A32643   2.028   2.814   8.550
 6821POPC   D2A32644   1.989   2.738   8.250
 6821POPC   C3A32645   1.960   2.725   7.950
 6821POPC   C4A32646   1.977   2.729   7.650
 6821POPC   C1B32647   2.271   2.783   8.550
 6821POPC   C2B32648   2.239   2.793   8.250
 6821POPC   C3B32649   2.207   2.832   7.950
 6821POPC   C4B32650   2.274   2.779   7.650
 6822POPC   NC332651  34.576   0.475   9.450
 6822POPC   PO432652  34.542   0.445   9.150
 6822POPC   GL132653  34.526   0.457   8.850
 6822POPC   GL232654  34.633   0.365   8.850
 6822POPC   C1A32655  34.538   0.474   8.550
 6822POPC   D2A32656  34.608   0.464   8.250
 6822POPC   C3A32657  34.567   0.425   7.950
 6822POPC   C4A32658  34.610   0.467   7.650
 6822POPC   C1B32659  34.706   0.185   8.550
 6822POPC   C2B32660  34.640   0.156   8.250
 6822POPC   C3B32661  34.631   0.175   7.950
 6822POPC   C4B32662  34.640   0.212   7.650
 6823POPC   NC332663   3.498  35.315   9.450
 6823POPC   PO432664   3.560  35.394   9.150
 6823POPC   GL132665   3.521  35.329   8.850
 6823POPC   GL232666   3.606  35.215   8.850
 6823POPC   C1A32667   3.552  35.351   8.550
 6823POPC   D2A32668   3.553  35.337   8.250
 6823POPC   C3A32669   3.532  35.354   7.950
 6823POPC   C4A32670   3.570  35.328   7.650
 6823POPC   C1B32671   3.732  35.127   8.550
 6823POPC   C2B32672   3.650  35.157   8.250
 6823POPC   C3B32673   3.718  35.113   7.950
 6823POPC   C4B32674   3.708  35.143   7.650
 6824POPC   NC332675   8.924  26.798   9.450
 6824POPC   PO432676   8.986  26.798   9.150
 6824POPC   GL132677   9.001  26.794   8.850
 6824POPC   GL232678   8.863  26.709   8.850
 6824POPC   C1A32679   9.016  26.773   8.550
 6824POPC   D2A32680   8.977  26.845   8.250
 6824POPC   C3A32681   8.953  26.829   7.950
 6824POPC   C4A32682   8.950  26.865   7.650
 6824POPC   C1B32683   8.818  26.700   8.550
 6824POPC   C2B32684   8.745  26.686   8.250
 6824POPC   C3B32685   8.767  26.656   7.950
 6824POPC   C4B32686   8.754  26.665   7.650
 6825POPC   NC332687  10.489  39.216   9.450
 6825POPC   PO432688  10.573  39.184   9.150
 6825POPC   GL132689  10.494  39.224   8.850
 6825POPC   GL232690  10.526  39.362   8.850
 6825POPC   C1A32691  10.542  39.219   8.550
 6825POPC   D2A32692  10.543  39.276   8.250
 6825POPC   C3A32693  10.536  39.228   7.950
 6825POPC   C4A32694  10.570  39.246   7.650
 6825POPC   C1B32695  10.452  39.446   8.550
 6825POPC   C2B32696  10.490  39.479   8.250
 6825POPC   C3B32697  10.440  39.495   7.950
 6825POPC   C4B32698  10.505  39.479   7.650
 6826POPC   NC332699  15.923  35.307   9.450
 6826POPC   PO432700  15.947  35.331   9.150
 6826POPC   GL132701  15.930  35.330   8.850
 6826POPC   GL232702  16.028  35.239   8.850
 6826POPC   C1A32703  15.921  35.342   8.550
 6826POPC   D2A32704  15.961  35.401   8.250
 6826POPC   C3A32705  15.929  35.372   7.950
 6826POPC   C4A32706  15.994  35.316   7.650
 6826POPC   C1B32707  16.025  35.165   8.550
 6826POPC   C2B32708  16.067  35.093   8.250
 6826POPC   C3B32709  16.095  35.132   7.950
 6826POPC   C4B32710  16.074  35.170   7.650
 6827POPC   NC332711   8.966  40.002   9.450
 6827POPC   PO432712   9.001  40.009   9.150
 6827POPC   GL132713   8.941  40.035   8.850
 6827POPC   GL232714   9.119  40.031   8.850
 6827POPC   C1A32715   8.945  40.042   8.550
 6827POPC   D2A32716   8.954  40.052   8.250
 6827POPC   C3A32717   8.942  40.032   7.950
 6827POPC   C4A32718   8.992  39.963   7.650
 6827POPC   C1B32719   9.215  40.151   8.550
 6827POPC   C2B32720   9.214  40.121   8.250
 6827POPC   C3B32721   9.247  40.064   7.950
 6827POPC   C4B32722   9.204  40.155   7.650
 6828POPC   NC332723  40.826  22.118   9.450
 6828POPC   PO432724  40.821  22.153   9.150
 6828POPC   GL132725  40.829  22.205   8.850
 6828POPC   GL232726  40.671  22.217   8.850
 6828POPC   C1A32727  40.734  22.200   8.550
 6828POPC   D2A32728  40.785  22.189   8.250
 6828POPC   C3A32729  40.770  22.186   7.950
 6828POPC   C4A32730  40.829  22.204   7.650
 6828POPC   C1B32731  40.586  22.262   8.550
 6828POPC   C2B32732  40.567  22.343   8.250
 6828POPC   C3B32733  40.552  22.333   7.950
 6828POPC   C4B32734  40.614  22.272   7.650
 6829POPC   NC332735  17.514  21.400   9.450
 6829POPC   PO432736  17.486  21.345   9.150
 6829POPC   GL132737  17.459  21.414   8.850
 6829POPC   GL232738  17.620  21.330   8.850
 6829POPC   C1A32739  17.539  21.418   8.550
 6829POPC   D2A32740  17.495  21.398   8.250
 6829POPC   C3A32741  17.470  21.353   7.950
 6829POPC   C4A32742  17.457  21.392   7.650
 6829POPC   C1B32743  17.704  21.248   8.550
 6829POPC   C2B32744  17.689  21.274   8.250
 6829POPC   C3B32745  17.747  21.292   7.950
 6829POPC   C4B32746  17.711  21.295   7.650
 6830POPC   NC332747  11.311  41.581   9.450
 6830POPC   PO432748  11.276  41.545   9.150
 6830POPC   GL132749  11.274  41.602   8.850
 6830POPC   GL232750  11.291  41.642   8.850
 6830POPC   C1A32751  11.262  41.602   8.550
 6830POPC   D2A32752  11.273  41.539   8.250
 6830POPC   C3A32753  11.322  41.541   7.950
 6830POPC   C4A32754  11.301  41.567   7.650
 6830POPC   C1B32755  11.261  41.760   8.550
 6830POPC   C2B32756  11.293  41.848   8.250
 6830POPC   C3B32757  11.336  41.788   7.950
 6830POPC   C4B32758  11.268  41.835   7.650
 6831POPC   NC332759   8.996  20.625   9.450
 6831POPC   PO432760   8.929  20.639   9.150
 6831POPC   GL132761   8.923  20.586   8.850
 6831POPC   GL232762   9.125  20.632   8.850
 6831POPC   C1A32763   8.975  20.598   8.550
 6831POPC   D2A32764   9.020  20.570   8.250
 6831POPC   C3A32765   9.002  20.578   7.950
 6831POPC   C4A32766   8.957  20.648   7.650
 6831POPC   C1B32767   9.208  20.726   8.550
 6831POPC   C2B32768   9.228  20.760   8.250
 6831POPC   C3B32769   9.190  20.762   7.950
 6831POPC   C4B32770   9.139  20.787   7.650
 6832POPC   NC332771  22.114  22.205   9.450
 6832POPC   PO432772  22.174  22.139   9.150
 6832POPC   GL132773  22.151  22.202   8.850
 6832POPC   GL232774  22.135  22.082   8.850
 6832POPC   C1A32775  22.201  22.173   8.550
 6832POPC   D2A32776  22.161  22.121   8.250
 6832POPC   C3A32777  22.117  22.125   7.950
 6832POPC   C4A32778  22.133  22.131   7.650
 6832POPC   C1B32779  22.041  22.012   8.550
 6832POPC   C2B32780  21.978  21.922   8.250
 6832POPC   C3B32781  22.022  21.974   7.950
 6832POPC   C4B32782  21.972  21.928   7.650
 6833POPC   NC332783  25.285  27.608   9.450
 6833POPC   PO432784  25.217  27.638   9.150
 6833POPC   GL132785  25.312  27.642   8.850
 6833POPC   GL232786  25.106  27.588   8.850
 6833POPC   C1A32787  25.290  27.591   8.550
 6833POPC   D2A32788  25.242  27.572   8.250
 6833POPC   C3A32789  25.242  27.594   7.950
 6833POPC   C4A32790  25.220  27.554   7.650
 6833POPC   C1B32791  25.043  27.545   8.550
 6833POPC   C2B32792  25.061  27.491   8.250
 6833POPC   C3B32793  25.058  27.493   7.950
 6833POPC   C4B32794  25.052  27.483   7.650
 6834POPC   NC332795  44.631  18.313   9.450
 6834POPC   PO432796  44.697  18.244   9.150
 6834POPC   GL132797  44.693  18.319   8.850
 6834POPC   GL232798  44.570  18.156   8.850
 6834POPC   C1A32799  44.690  18.316   8.550
 6834POPC   D2A32800  44.615  18.290   8.250
 6834POPC   C3A32801  44.693  18.262   7.950
 6834POPC   C4A32802  44.671  18.323   7.650
 6834POPC   C1B32803  44.563  18.090   8.550
 6834POPC   C2B32804  44.574  18.027   8.250
 6834POPC   C3B32805  44.590  18.018   7.950
 6834POPC   C4B32806  44.585  18.070   7.650
 6835POPC   NC332807   1.203  40.017   9.450
 6835POPC   PO432808   1.198  40.053   9.150
 6835POPC   GL132809   1.167  40.012   8.850
 6835POPC   GL232810   1.085  40.021   8.850
 6835POPC   C1A32811   1.246  39.982   8.550
 6835POPC   D2A32812   1.220  40.054   8.250
 6835POPC   C3A32813   1.191  40.034   7.950
 6835POPC   C4A32814   1.226  40.012   7.650
 6835POPC   C1B32815   0.956  40.008   8.550
 6835POPC   C2B32816   0.995  40.046   8.250
 6835POPC   C3B32817   0.997  40.009   7.950
 6835POPC   C4B32818   0.936  39.965   7.650
 6836POPC   NC332819  18.258  23.737   9.450
 6836POPC   PO432820  18.307  23.665   9.150
 6836POPC   GL132821  18.255  23.741   8.850
 6836POPC   GL232822  18.139  23.800   8.850
 6836POPC   C1A32823  18.253  23.735   8.550
 6836POPC   D2A32824  18.239  23.757   8.250
 6836POPC   C3A32825  18.272  23.692   7.950
 6836POPC   C4A32826  18.281  23.754   7.650
 6836POPC   C1B32827  18.099  23.877   8.550
 6836POPC   C2B32828  18.088  23.826   8.250
 6836POPC   C3B32829  18.066  23.802   7.950
 6836POPC   C4B32830  18.099  23.865   7.650
 6837POPC   NC332831   3.495  33.070   9.450
 6837POPC   PO432832   3.574  33.060   9.150
 6837POPC   GL132833   3.539  32.984   8.850
 6837POPC   GL232834   3.588  33.088   8.850
 6837POPC   C1A32835   3.492  33.015   8.550
 6837POPC   D2A32836   3.523  33.038   8.250
 6837POPC   C3A32837   3.556  33.015   7.950
 6837POPC   C4A32838   3.506  33.043   7.650
 6837POPC   C1B32839   3.735  33.239   8.550
 6837POPC   C2B32840   3.727  33.199   8.250
 6837POPC   C3B32841   3.716  33.236   7.950
 6837POPC   C4B32842   3.707  33.164   7.650
 6838POPC   NC332843  22.168  34.527   9.450
 6838POPC   PO432844  22.178  34.537   9.150
 6838POPC   GL132845  22.162  34.590   8.850
 6838POPC   GL232846  22.249  34.673   8.850
 6838POPC   C1A32847  22.127  34.621   8.550
 6838POPC   D2A32848  22.197  34.579   8.250
 6838POPC   C3A32849  22.152  34.572   7.950
 6838POPC   C4A32850  22.202  34.552   7.650
 6838POPC   C1B32851  22.365  34.684   8.550
 6838POPC   C2B32852  22.426  34.683   8.250
 6838POPC   C3B32853  22.415  34.720   7.950
 6838POPC   C4B32854  22.386  34.735   7.650
 6839POPC   NC332855  15.198  33.038   9.450
 6839POPC   PO432856  15.211  33.048   9.150
 6839POPC   GL132857  15.179  32.993   8.850
 6839POPC   GL232858  15.073  33.096   8.850
 6839POPC   C1A32859  15.207  33.006   8.550
 6839POPC   D2A32860  15.226  33.064   8.250
 6839POPC   C3A32861  15.183  33.039   7.950
 6839POPC   C4A32862  15.194  33.032   7.650
 6839POPC   C1B32863  14.988  33.141   8.550
 6839POPC   C2B32864  14.949  33.117   8.250
 6839POPC   C3B32865  14.929  33.094   7.950
 6839POPC   C4B32866  14.968  33.117   7.650
 6840POPC   NC332867  34.551  29.162   9.450
 6840POPC   PO432868  34.602  29.162   9.150
 6840POPC   GL132869  34.582  29.100   8.850
 6840POPC   GL232870  34.492  29.112   8.850
 6840POPC   C1A32871  34.536  29.107   8.550
 6840POPC   D2A32872  34.584  29.190   8.250
 6840POPC   C3A32873  34.592  29.157   7.950
 6840POPC   C4A32874  34.597  29.131   7.650
 6840POPC   C1B32875  34.391  29.051   8.550
 6840POPC   C2B32876  34.354  29.056   8.250
 6840POPC   C3B32877  34.333  29.005   7.950
 6840POPC   C4B32878  34.382  29.014   7.650
 6841POPC   NC332879  28.382   1.215   9.450
 6841POPC   PO432880  28.333   1.209   9.150
 6841POPC   GL132881  28.374   1.175   8.850
 6841POPC   GL232882  28.428   1.357   8.850
 6841POPC   C1A32883  28.337   1.223   8.550
 6841POPC   D2A32884  28.337   1.219   8.250
 6841POPC   C3A32885  28.326   1.191   7.950
 6841POPC   C4A32886  28.325   1.176   7.650
 6841POPC   C1B32887  28.406   1.455   8.550
 6841POPC   C2B32888  28.440   1.408   8.250
 6841POPC   C3B32889  28.487   1.415   7.950
 6841POPC   C4B32890  28.462   1.490   7.650
 6842POPC   NC332891  24.461   5.847   9.450
 6842POPC   PO432892  24.517   5.838   9.150
 6842POPC   GL132893  24.476   5.903   8.850
 6842POPC   GL232894  24.393   5.741   8.850
 6842POPC   C1A32895  24.524   5.894   8.550
 6842POPC   D2A32896  24.447   5.877   8.250
 6842POPC   C3A32897  24.520   5.893   7.950
 6842POPC   C4A32898  24.447   5.879   7.650
 6842POPC   C1B32899  24.373   5.624   8.550
 6842POPC   C2B32900  24.341   5.647   8.250
 6842POPC   C3B32901  24.398   5.679   7.950
 6842POPC   C4B32902  24.364   5.605   7.650
 6843POPC   NC332903  32.994  35.386   9.450
 6843POPC   PO432904  33.073  35.303   9.150
 6843POPC   GL132905  32.985  35.331   8.850
 6843POPC   GL232906  33.101  35.386   8.850
 6843POPC   C1A32907  33.034  35.371   8.550
 6843POPC   D2A32908  32.978  35.323   8.250
 6843POPC   C3A32909  32.979  35.365   7.950
 6843POPC   C4A32910  32.994  35.353   7.650
 6843POPC   C1B32911  33.240  35.290   8.550
 6843POPC   C2B32912  33.256  35.320   8.250
 6843POPC   C3B32913  33.281  35.367   7.950
 6843POPC   C4B32914  33.320  35.348   7.650
 6844POPC   NC332915  26.041  13.672   9.450
 6844POPC   PO432916  26.084  13.645   9.150
 6844POPC   GL132917  26.079  13.633   8.850
 6844POPC   GL232918  26.039  13.726   8.850
 6844POPC   C1A32919  26.042  13.578   8.550
 6844POPC   D2A32920  26.023  13.675   8.250
 6844POPC   C3A32921  26.030  13.640   7.950
 6844POPC   C4A32922  26.087  13.582   7.650
 6844POPC   C1B32923  26.076  13.924   8.550
 6844POPC   C2B32924  26.038  13.901   8.250
 6844POPC   C3B32925  26.028  13.900   7.950
 6844POPC   C4B32926  26.030  13.834   7.650
 6845POPC   NC332927  19.798  12.889   9.450
 6845POPC   PO432928  19.850  12.868   9.150
 6845POPC   GL132929  19.836  12.838   8.850
 6845POPC   GL232930  19.964  12.958   8.850
 6845POPC   C1A32931  19.827  12.894   8.550
 6845POPC   D2A32932  19.796  12.884   8.250
 6845POPC   C3A32933  19.858  12.850   7.950
 6845POPC   C4A32934  19.804  12.901   7.650
 6845POPC   C1B32935  20.003  12.980   8.550
 6845POPC   C2B32936  20.054  13.033   8.250
 6845POPC   C3B32937  20.018  13.013   7.950
 6845POPC   C4B32938  20.049  13.004   7.650
 6846POPC   NC332939  38.423   1.215   9.450
 6846POPC   PO432940  38.423   1.217   9.150
 6846POPC   GL132941  38.466   1.170   8.850
 6846POPC   GL232942  38.493   1.077   8.850
 6846POPC   C1A32943  38.433   1.227   8.550
 6846POPC   D2A32944  38.431   1.183   8.250
 6846POPC   C3A32945  38.498   1.190   7.950
 6846POPC   C4A32946  38.434   1.211   7.650
 6846POPC   C1B32947  38.461   0.957   8.550
 6846POPC   C2B32948  38.493   0.979   8.250
 6846POPC   C3B32949  38.493   0.928   7.950
 6846POPC   C4B32950  38.496   0.915   7.650
 6847POPC   NC332951  13.621  19.793   9.450
 6847POPC   PO432952  13.625  19.873   9.150
 6847POPC   GL132953  13.588  19.881   8.850
 6847POPC   GL232954  13.645  19.673   8.850
 6847POPC   C1A32955  13.656  19.820   8.550
 6847POPC   D2A32956  13.665  19.797   8.250
 6847POPC   C3A32957  13.600  19.797   7.950
 6847POPC   C4A32958  13.657  19.804   7.650
 6847POPC   C1B32959  13.656  19.554   8.550
 6847POPC   C2B32960  13.671  19.645   8.250
 6847POPC   C3B32961  13.659  19.571   7.950
 6847POPC   C4B32962  13.712  19.629   7.650
 6848POPC   NC332963  16.744  33.072   9.450
 6848POPC   PO432964  16.691  33.002   9.150
 6848POPC   GL132965  16.684  33.032   8.850
 6848POPC   GL232966  16.665  32.922   8.850
 6848POPC   C1A32967  16.696  33.062   8.550
 6848POPC   D2A32968  16.706  33.054   8.250
 6848POPC   C3A32969  16.716  33.023   7.950
 6848POPC   C4A32970  16.741  32.975   7.650
 6848POPC   C1B32971  16.578  32.774   8.550
 6848POPC   C2B32972  16.593  32.839   8.250
 6848POPC   C3B32973  16.647  32.833   7.950
 6848POPC   C4B32974  16.624  32.822   7.650
 6849POPC   NC332975  11.317  26.859   9.450
 6849POPC   PO432976  11.316  26.774   9.150
 6849POPC   GL132977  11.296  26.832   8.850
 6849POPC   GL232978  11.177  26.843   8.850
 6849POPC   C1A32979  11.324  26.774   8.550
 6849POPC   D2A32980  11.326  26.844   8.250
 6849POPC   C3A32981  11.307  26.780   7.950
 6849POPC   C4A32982  11.271  26.768   7.650
 6849POPC   C1B32983  11.114  26.925   8.550
 6849POPC   C2B32984  11.047  26.969   8.250
 6849POPC   C3B32985  11.118  26.889   7.950
 6849POPC   C4B32986  11.043  26.891   7.650
 6850POPC   NC332987  43.107  19.853   9.450
 6850POPC   PO432988  43.074  19.842   9.150
 6850POPC   GL132989  43.088  19.797   8.850
 6850POPC   GL232990  43.027  19.776   8.850
 6850POPC   C1A32991  43.132  19.823   8.550
 6850POPC   D2A32992  43.070  19.788   8.250
 6850POPC   C3A32993  43.155  19.828   7.950
 6850POPC   C4A32994  43.062  19.884   7.650
 6850POPC   C1B32995  42.864  19.724   8.550
 6850POPC   C2B32996  42.902  19.721   8.250
 6850POPC   C3B32997  42.828  19.723   7.950
 6850POPC   C4B32998  42.863  19.707   7.650
 6851POPC   NC332999  22.151  26.837   9.450
 6851POPC   PO433000  22.193  26.859   9.150
 6851POPC   GL133001  22.152  26.829   8.850
 6851POPC   GL233002  22.254  26.742   8.850
 6851POPC   C1A33003  22.149  26.819   8.550
 6851POPC   D2A33004  22.181  26.810   8.250
 6851POPC   C3A33005  22.158  26.778   7.950
 6851POPC   C4A33006  22.172  26.807   7.650
 6851POPC   C1B33007  22.246  26.560   8.550
 6851POPC   C2B33008  22.326  26.610   8.250
 6851POPC   C3B33009  22.253  26.617   7.950
 6851POPC   C4B33010  22.312  26.602   7.650
 6852POPC   NC333011   3.590  31.494   9.450
 6852POPC   PO433012   3.550  31.443   9.150
 6852POPC   GL133013   3.528  31.509   8.850
 6852POPC   GL233014   3.571  31.317   8.850
 6852POPC   C1A33015   3.503  31.458   8.550
 6852POPC   D2A33016   3.528  31.428   8.250
 6852POPC   C3A33017   3.564  31.486   7.950
 6852POPC   C4A33018   3.575  31.489   7.650
 6852POPC   C1B33019   3.677  31.233   8.550
 6852POPC   C2B33020   3.661  31.236   8.250
 6852POPC   C3B33021   3.623  31.297   7.950
 6852POPC   C4B33022   3.703  31.286   7.650
 6853POPC   NC333023  30.729  13.677   9.450
 6853POPC   PO433024  30.677  13.677   9.150
 6853POPC   GL133025  30.670  13.657   8.850
 6853POPC   GL233026  30.783  13.557   8.850
 6853POPC   C1A33027  30.729  13.593   8.550
 6853POPC   D2A33028  30.712  13.592   8.250
 6853POPC   C3A33029  30.744  13.661   7.950
 6853POPC   C4A33030  30.715  13.624   7.650
 6853POPC   C1B33031  30.814  13.382   8.550
 6853POPC   C2B33032  30.860  13.432   8.250
 6853POPC   C3B33033  30.842  13.409   7.950
 6853POPC   C4B33034  30.792  13.429   7.650
 6854POPC   NC333035  26.015  36.079   9.450
 6854POPC   PO433036  26.086  36.170   9.150
 6854POPC   GL133037  26.066  36.177   8.850
 6854POPC   GL233038  25.953  36.192   8.850
 6854POPC   C1A33039  26.001  36.156   8.550
 6854POPC   D2A33040  26.043  36.139   8.250
 6854POPC   C3A33041  26.064  36.099   7.950
 6854POPC   C4A33042  26.078  36.081   7.650
 6854POPC   C1B33043  25.865  36.278   8.550
 6854POPC   C2B33044  25.826  36.317   8.250
 6854POPC   C3B33045  25.870  36.326   7.950
 6854POPC   C4B33046  25.809  36.259   7.650
 6855POPC   NC333047  29.906   3.498   9.450
 6855POPC   PO433048  29.953   3.549   9.150
 6855POPC   GL133049  29.926   3.540   8.850
 6855POPC   GL233050  29.966   3.407   8.850
 6855POPC   C1A33051  29.958   3.578   8.550
 6855POPC   D2A33052  29.892   3.537   8.250
 6855POPC   C3A33053  29.924   3.519   7.950
 6855POPC   C4A33054  29.900   3.539   7.650
 6855POPC   C1B33055  30.098   3.331   8.550
 6855POPC   C2B33056  30.060   3.370   8.250
 6855POPC   C3B33057  30.089   3.337   7.950
 6855POPC   C4B33058  30.093   3.329   7.650
 6856POPC   NC333059  33.840  13.588   9.450
 6856POPC   PO433060  33.811  13.651   9.150
 6856POPC   GL133061  33.846  13.656   8.850
 6856POPC   GL233062  33.925  13.632   8.850
 6856POPC   C1A33063  33.807  13.582   8.550
 6856POPC   D2A33064  33.752  13.626   8.250
 6856POPC   C3A33065  33.808  13.603   7.950
 6856POPC   C4A33066  33.814  13.639   7.650
 6856POPC   C1B33067  33.992  13.727   8.550
 6856POPC   C2B33068  34.053  13.704   8.250
 6856POPC   C3B33069  34.070  13.641   7.950
 6856POPC   C4B33070  34.080  13.730   7.650
 6857POPC   NC333071  25.229  25.290   9.450
 6857POPC   PO433072  25.219  25.224   9.150
 6857POPC   GL133073  25.272  25.216   8.850
 6857POPC   GL233074  25.346  25.424   8.850
 6857POPC   C1A33075  25.313  25.229   8.550
 6857POPC   D2A33076  25.217  25.217   8.250
 6857POPC   C3A33077  25.228  25.253   7.950
 6857POPC   C4A33078  25.315  25.248   7.650
 6857POPC   C1B33079  25.424  25.470   8.550
 6857POPC   C2B33080  25.342  25.519   8.250
 6857POPC   C3B33081  25.410  25.538   7.950
 6857POPC   C4B33082  25.356  25.484   7.650
 6858POPC   NC333083   1.193  36.947   9.450
 6858POPC   PO433084   1.233  36.925   9.150
 6858POPC   GL133085   1.168  36.881   8.850
 6858POPC   GL233086   1.336  36.799   8.850
 6858POPC   C1A33087   1.203  36.926   8.550
 6858POPC   D2A33088   1.226  36.906   8.250
 6858POPC   C3A33089   1.220  36.890   7.950
 6858POPC   C4A33090   1.232  36.940   7.650
 6858POPC   C1B33091   1.416  36.715   8.550
 6858POPC   C2B33092   1.401  36.796   8.250
 6858POPC   C3B33093   1.436  36.774   7.950
 6858POPC   C4B33094   1.445  36.771   7.650
 6859POPC   NC333095   2.742   8.207   9.450
 6859POPC   PO433096   2.811   8.222   9.150
 6859POPC   GL133097   2.729   8.175   8.850
 6859POPC   GL233098   2.670   8.275   8.850
 6859POPC   C1A33099   2.812   8.244   8.550
 6859POPC   D2A33100   2.811   8.217   8.250
 6859POPC   C3A33101   2.747   8.149   7.950
 6859POPC   C4A33102   2.737   8.214   7.650
 6859POPC   C1B33103   2.592   8.339   8.550
 6859POPC   C2B33104   2.597   8.404   8.250
 6859POPC   C3B33105   2.598   8.371   7.950
 6859POPC   C4B33106   2.648   8.419   7.650
 6860POPC   NC333107  14.383  12.086   9.450
 6860POPC   PO433108  14.354  12.055   9.150
 6860POPC   GL133109  14.439  12.050   8.850
 6860POPC   GL233110  14.484  12.099   8.850
 6860POPC   C1A33111  14.406  12.037   8.550
 6860POPC   D2A33112  14.379  12.080   8.250
 6860POPC   C3A33113  14.354  12.092   7.950
 6860POPC   C4A33114  14.435  12.092   7.650
 6860POPC   C1B33115  14.622  12.090   8.550
 6860POPC   C2B33116  14.618  12.068   8.250
 6860POPC   C3B33117  14.673  12.010   7.950
 6860POPC   C4B33118  14.629  12.008   7.650
 6861POPC   NC333119  18.283  18.271   9.450
 6861POPC   PO433120  18.281  18.305   9.150
 6861POPC   GL133121  18.332  18.323   8.850
 6861POPC   GL233122  18.198  18.354   8.850
 6861POPC   C1A33123  18.278  18.281   8.550
 6861POPC   D2A33124  18.303  18.321   8.250
 6861POPC   C3A33125  18.307  18.309   7.950
 6861POPC   C4A33126  18.243  18.258   7.650
 6861POPC   C1B33127  18.088  18.501   8.550
 6861POPC   C2B33128  18.149  18.477   8.250
 6861POPC   C3B33129  18.150  18.483   7.950
 6861POPC   C4B33130  18.145  18.449   7.650
 6862POPC   NC333131   4.325   3.539   9.450
 6862POPC   PO433132   4.341   3.495   9.150
 6862POPC   GL133133   4.320   3.560   8.850
 6862POPC   GL233134   4.414   3.697   8.850
 6862POPC   C1A33135   4.271   3.561   8.550
 6862POPC   D2A33136   4.367   3.500   8.250
 6862POPC   C3A33137   4.337   3.519   7.950
 6862POPC   C4A33138   4.321   3.516   7.650
 6862POPC   C1B33139   4.387   3.805   8.550
 6862POPC   C2B33140   4.460   3.751   8.250
 6862POPC   C3B33141   4.381   3.731   7.950
 6862POPC   C4B33142   4.395   3.747   7.650
 6863POPC   NC333143  23.689   1.965   9.450
 6863POPC   PO433144  23.723   1.961   9.150
 6863POPC   GL133145  23.684   1.964   8.850
 6863POPC   GL233146  23.790   2.101   8.850
 6863POPC   C1A33147  23.682   1.943   8.550
 6863POPC   D2A33148  23.754   2.001   8.250
 6863POPC   C3A33149  23.673   1.985   7.950
 6863POPC   C4A33150  23.720   2.030   7.650
 6863POPC   C1B33151  23.901   2.175   8.550
 6863POPC   C2B33152  23.901   2.131   8.250
 6863POPC   C3B33153  23.909   2.171   7.950
 6863POPC   C4B33154  23.931   2.134   7.650
 6864POPC   NC333155   9.755   1.943   9.450
 6864POPC   PO433156   9.775   1.990   9.150
 6864POPC   GL133157   9.703   2.003   8.850
 6864POPC   GL233158   9.635   2.120   8.850
 6864POPC   C1A33159   9.712   2.015   8.550
 6864POPC   D2A33160   9.709   1.976   8.250
 6864POPC   C3A33161   9.735   2.039   7.950
 6864POPC   C4A33162   9.720   2.012   7.650
 6864POPC   C1B33163   9.643   2.176   8.550
 6864POPC   C2B33164   9.597   2.231   8.250
 6864POPC   C3B33165   9.587   2.158   7.950
 6864POPC   C4B33166   9.627   2.246   7.650
 6865POPC   NC333167  16.781  40.036   9.450
 6865POPC   PO433168  16.717  39.975   9.150
 6865POPC   GL133169  16.726  40.026   8.850
 6865POPC   GL233170  16.754  39.934   8.850
 6865POPC   C1A33171  16.730  39.989   8.550
 6865POPC   D2A33172  16.729  40.018   8.250
 6865POPC   C3A33173  16.729  40.003   7.950
 6865POPC   C4A33174  16.723  39.969   7.650
 6865POPC   C1B33175  16.909  39.820   8.550
 6865POPC   C2B33176  16.844  39.792   8.250
 6865POPC   C3B33177  16.813  39.791   7.950
 6865POPC   C4B33178  16.823  39.841   7.650
 6866POPC   NC333179  28.413  31.449   9.450
 6866POPC   PO433180  28.335  31.436   9.150
 6866POPC   GL133181  28.418  31.449   8.850
 6866POPC   GL233182  28.274  31.508   8.850
 6866POPC   C1A33183  28.352  31.441   8.550
 6866POPC   D2A33184  28.400  31.517   8.250
 6866POPC   C3A33185  28.405  31.516   7.950
 6866POPC   C4A33186  28.367  31.456   7.650
 6866POPC   C1B33187  28.186  31.600   8.550
 6866POPC   C2B33188  28.157  31.605   8.250
 6866POPC   C3B33189  28.184  31.592   7.950
 6866POPC   C4B33190  28.175  31.621   7.650
 6867POPC   NC333191   7.374  28.414   9.450
 6867POPC   PO433192   7.415  28.347   9.150
 6867POPC   GL133193   7.423  28.320   8.850
 6867POPC   GL233194   7.283  28.344   8.850
 6867POPC   C1A33195   7.416  28.403   8.550
 6867POPC   D2A33196   7.433  28.401   8.250
 6867POPC   C3A33197   7.460  28.387   7.950
 6867POPC   C4A33198   7.431  28.399   7.650
 6867POPC   C1B33199   7.179  28.328   8.550
 6867POPC   C2B33200   7.133  28.383   8.250
 6867POPC   C3B33201   7.192  28.328   7.950
 6867POPC   C4B33202   7.144  28.404   7.650
 6868POPC   NC333203  25.252  26.808   9.450
 6868POPC   PO433204  25.217  26.827   9.150
 6868POPC   GL133205  25.258  26.838   8.850
 6868POPC   GL233206  25.176  26.882   8.850
 6868POPC   C1A33207  25.311  26.849   8.550
 6868POPC   D2A33208  25.267  26.774   8.250
 6868POPC   C3A33209  25.224  26.788   7.950
 6868POPC   C4A33210  25.237  26.796   7.650
 6868POPC   C1B33211  25.137  27.042   8.550
 6868POPC   C2B33212  25.138  27.041   8.250
 6868POPC   C3B33213  25.056  27.037   7.950
 6868POPC   C4B33214  25.115  27.044   7.650
 6869POPC   NC333215   8.947  32.235   9.450
 6869POPC   PO433216   9.020  32.205   9.150
 6869POPC   GL133217   8.956  32.220   8.850
 6869POPC   GL233218   8.869  32.361   8.850
 6869POPC   C1A33219   8.998  32.270   8.550
 6869POPC   D2A33220   8.988  32.292   8.250
 6869POPC   C3A33221   8.950  32.255   7.950
 6869POPC   C4A33222   8.961  32.200   7.650
 6869POPC   C1B33223   8.810  32.457   8.550
 6869POPC   C2B33224   8.798  32.379   8.250
 6869POPC   C3B33225   8.821  32.407   7.950
 6869POPC   C4B33226   8.835  32.431   7.650
 6870POPC   NC333227  19.844  20.637   9.450
 6870POPC   PO433228  19.861  20.647   9.150
 6870POPC   GL133229  19.798  20.593   8.850
 6870POPC   GL233230  19.893  20.477   8.850
 6870POPC   C1A33231  19.860  20.574   8.550
 6870POPC   D2A33232  19.859  20.599   8.250
 6870POPC   C3A33233  19.785  20.649   7.950
 6870POPC   C4A33234  19.844  20.618   7.650
 6870POPC   C1B33235  19.845  20.391   8.550
 6870POPC   C2B33236  19.902  20.328   8.250
 6870POPC   C3B33237  19.858  20.366   7.950
 6870POPC   C4B33238  19.906  20.334   7.650
 6871POPC   NC333239   3.499  18.330   9.450
 6871POPC   PO433240   3.506  18.315   9.150
 6871POPC   GL133241   3.520  18.265   8.850
 6871POPC   GL233242   3.619  18.215   8.850
 6871POPC   C1A33243   3.517  18.252   8.550
 6871POPC   D2A33244   3.569  18.289   8.250
 6871POPC   C3A33245   3.578  18.331   7.950
 6871POPC   C4A33246   3.540  18.299   7.650
 6871POPC   C1B33247   3.829  18.257   8.550
 6871POPC   C2B33248   3.757  18.211   8.250
 6871POPC   C3B33249   3.829  18.265   7.950
 6871POPC   C4B33250   3.735  18.243   7.650
 6872POPC   NC333251  31.504  43.933   9.450
 6872POPC   PO433252  31.426  43.929   9.150
 6872POPC   GL133253  31.446  43.852   8.850
 6872POPC   GL233254  31.543  43.729   8.850
 6872POPC   C1A33255  31.453  43.923   8.550
 6872POPC   D2A33256  31.456  43.879   8.250
 6872POPC   C3A33257  31.450  43.906   7.950
 6872POPC   C4A33258  31.475  43.899   7.650
 6872POPC   C1B33259  31.568  43.648   8.550
 6872POPC   C2B33260  31.549  43.651   8.250
 6872POPC   C3B33261  31.577  43.706   7.950
 6872POPC   C4B33262  31.566  43.629   7.650
 6873POPC   NC333263  43.926   7.408   9.450
 6873POPC   PO433264  43.873   7.371   9.150
 6873POPC   GL133265  43.933   7.395   8.850
 6873POPC   GL233266  43.975   7.539   8.850
 6873POPC   C1A33267  43.916   7.456   8.550
 6873POPC   D2A33268  43.836   7.466   8.250
 6873POPC   C3A33269  43.874   7.452   7.950
 6873POPC   C4A33270  43.867   7.402   7.650
 6873POPC   C1B33271  43.953   7.628   8.550
 6873POPC   C2B33272  43.956   7.603   8.250
 6873POPC   C3B33273  44.015   7.659   7.950
 6873POPC   C4B33274  43.992   7.651   7.650
 6874POPC   NC333275  39.213  36.173   9.450
 6874POPC   PO433276  39.209  36.085   9.150
 6874POPC   GL133277  39.233  36.169   8.850
 6874POPC   GL233278  39.153  36.139   8.850
 6874POPC   C1A33279  39.250  36.170   8.550
 6874POPC   D2A33280  39.183  36.084   8.250
 6874POPC   C3A33281  39.261  36.144   7.950
 6874POPC   C4A33282  39.207  36.087   7.650
 6874POPC   C1B33283  38.942  36.074   8.550
 6874POPC   C2B33284  39.002  36.026   8.250
 6874POPC   C3B33285  38.975  36.019   7.950
 6874POPC   C4B33286  39.029  36.059   7.650
 6875POPC   NC333287  37.680  19.023   9.450
 6875POPC   PO433288  37.728  19.056   9.150
 6875POPC   GL133289  37.636  19.045   8.850
 6875POPC   GL233290  37.700  19.185   8.850
 6875POPC   C1A33291  37.681  19.031   8.550
 6875POPC   D2A33292  37.713  19.057   8.250
 6875POPC   C3A33293  37.646  19.015   7.950
 6875POPC   C4A33294  37.704  19.103   7.650
 6875POPC   C1B33295  37.651  19.309   8.550
 6875POPC   C2B33296  37.716  19.353   8.250
 6875POPC   C3B33297  37.636  19.285   7.950
 6875POPC   C4B33298  37.647  19.308   7.650
 6876POPC   NC333299   5.871   6.614   9.450
 6876POPC   PO433300   5.826   6.622   9.150
 6876POPC   GL133301   5.887   6.655   8.850
 6876POPC   GL233302   5.962   6.530   8.850
 6876POPC   C1A33303   5.905   6.606   8.550
 6876POPC   D2A33304   5.875   6.684   8.250
 6876POPC   C3A33305   5.834   6.640   7.950
 6876POPC   C4A33306   5.881   6.603   7.650
 6876POPC   C1B33307   6.029   6.430   8.550
 6876POPC   C2B33308   6.003   6.467   8.250
 6876POPC   C3B33309   6.001   6.416   7.950
 6876POPC   C4B33310   6.069   6.425   7.650
 6877POPC   NC333311  29.174  12.840   9.450
 6877POPC   PO433312  29.113  12.868   9.150
 6877POPC   GL133313  29.171  12.841   8.850
 6877POPC   GL233314  29.007  12.837   8.850
 6877POPC   C1A33315  29.133  12.844   8.550
 6877POPC   D2A33316  29.182  12.891   8.250
 6877POPC   C3A33317  29.183  12.849   7.950
 6877POPC   C4A33318  29.114  12.815   7.650
 6877POPC   C1B33319  28.927  12.880   8.550
 6877POPC   C2B33320  28.941  12.830   8.250
 6877POPC   C3B33321  28.933  12.821   7.950
 6877POPC   C4B33322  28.911  12.859   7.650
 6878POPC   NC333323  43.125   3.554   9.450
 6878POPC   PO433324  43.108   3.550   9.150
 6878POPC   GL133325  43.142   3.497   8.850
 6878POPC   GL233326  43.093   3.621   8.850
 6878POPC   C1A33327  43.090   3.589   8.550
 6878POPC   D2A33328  43.088   3.568   8.250
 6878POPC   C3A33329  43.146   3.581   7.950
 6878POPC   C4A33330  43.104   3.523   7.650
 6878POPC   C1B33331  43.036   3.808   8.550
 6878POPC   C2B33332  43.041   3.768   8.250
 6878POPC   C3B33333  42.997   3.745   7.950
 6878POPC   C4B33334  43.048   3.766   7.650
 6879POPC   NC333335  39.262   5.846   9.450
 6879POPC   PO433336  39.277   5.849   9.150
 6879POPC   GL133337  39.206   5.884   8.850
 6879POPC   GL233338  39.083   5.842   8.850
 6879POPC   C1A33339  39.249   5.912   8.550
 6879POPC   D2A33340  39.275   5.819   8.250
 6879POPC   C3A33341  39.243   5.860   7.950
 6879POPC   C4A33342  39.280   5.845   7.650
 6879POPC   C1B33343  39.032   5.752   8.550
 6879POPC   C2B33344  39.027   5.774   8.250
 6879POPC   C3B33345  39.041   5.743   7.950
 6879POPC   C4B33346  38.990   5.687   7.650
 6880POPC   NC333347   1.165  36.090   9.450
 6880POPC   PO433348   1.240  36.167   9.150
 6880POPC   GL133349   1.260  36.121   8.850
 6880POPC   GL233350   1.157  36.283   8.850
 6880POPC   C1A33351   1.216  36.112   8.550
 6880POPC   D2A33352   1.213  36.171   8.250
 6880POPC   C3A33353   1.204  36.078   7.950
 6880POPC   C4A33354   1.191  36.134   7.650
 6880POPC   C1B33355   1.053  36.351   8.550
 6880POPC   C2B33356   1.146  36.349   8.250
 6880POPC   C3B33357   1.139  36.308   7.950
 6880POPC   C4B33358   1.098  36.327   7.650
 6881POPC   NC333359  44.669  10.544   9.450
 6881POPC   PO433360  44.646  10.479   9.150
 6881POPC   GL133361  44.695  10.559   8.850
 6881POPC   GL233362  44.702  10.471   8.850
 6881POPC   C1A33363  44.632  10.478   8.550
 6881POPC   D2A33364  44.694  10.508   8.250
 6881POPC   C3A33365  44.689  10.544   7.950
 6881POPC   C4A33366  44.681  10.516   7.650
 6881POPC   C1B33367  44.845  10.351   8.550
 6881POPC   C2B33368  44.819  10.329   8.250
 6881POPC   C3B33369  44.872  10.379   7.950
 6881POPC   C4B33370  44.870  10.298   7.650
 6882POPC   NC333371  14.364   0.409   9.450
 6882POPC   PO433372  14.397   0.435   9.150
 6882POPC   GL133373  14.353   0.450   8.850
 6882POPC   GL233374  14.331   0.568   8.850
 6882POPC   C1A33375  14.415   0.442   8.550
 6882POPC   D2A33376  14.405   0.450   8.250
 6882POPC   C3A33377  14.392   0.450   7.950
 6882POPC   C4A33378  14.356   0.464   7.650
 6882POPC   C1B33379  14.359   0.683   8.550
 6882POPC   C2B33380  14.340   0.700   8.250
 6882POPC   C3B33381  14.282   0.722   7.950
 6882POPC   C4B33382  14.299   0.635   7.650
 6883POPC   NC333383   2.754  34.536   9.450
 6883POPC   PO433384   2.783  34.568   9.150
 6883POPC   GL133385   2.793  34.620   8.850
 6883POPC   GL233386   2.652  34.538   8.850
 6883POPC   C1A33387   2.810  34.582   8.550
 6883POPC   D2A33388   2.769  34.566   8.250
 6883POPC   C3A33389   2.766  34.555   7.950
 6883POPC   C4A33390   2.815  34.591   7.650
 6883POPC   C1B33391   2.525  34.465   8.550
 6883POPC   C2B33392   2.505  34.477   8.250
 6883POPC   C3B33393   2.563  34.434   7.950
 6883POPC   C4B33394   2.546  34.431   7.650
 6884POPC   NC333395  33.765  31.424   9.450
 6884POPC   PO433396  33.811  31.446   9.150
 6884POPC   GL133397  33.815  31.467   8.850
 6884POPC   GL233398  33.746  31.596   8.850
 6884POPC   C1A33399  33.831  31.451   8.550
 6884POPC   D2A33400  33.827  31.437   8.250
 6884POPC   C3A33401  33.833  31.446   7.950
 6884POPC   C4A33402  33.843  31.451   7.650
 6884POPC   C1B33403  33.674  31.630   8.550
 6884POPC   C2B33404  33.666  31.678   8.250
 6884POPC   C3B33405  33.641  31.631   7.950
 6884POPC   C4B33406  33.599  31.708   7.650
 6885POPC   NC333407  26.015  44.689   9.450
 6885POPC   PO433408  26.066  44.700   9.150
 6885POPC   GL133409  26.075  44.623   8.850
 6885POPC   GL233410  26.107  44.806   8.850
 6885POPC   C1A33411  26.009  44.652   8.550
 6885POPC   D2A33412  26.012  44.704   8.250
 6885POPC   C3A33413  26.029  44.615   7.950
 6885POPC   C4A33414  26.066  44.681   7.650
 6885POPC   C1B33415  26.126  44.926   8.550
 6885POPC   C2B33416  26.178  44.862   8.250
 6885POPC   C3B33417  26.210  44.903   7.950
 6885POPC   C4B33418  26.204  44.911   7.650
 6886POPC   NC333419  26.773  34.620   9.450
 6886POPC   PO433420  26.843  34.574   9.150
 6886POPC   GL133421  26.784  34.605   8.850
 6886POPC   GL233422  26.966  34.581   8.850
 6886POPC   C1A33423  26.852  34.604   8.550
 6886POPC   D2A33424  26.815  34.598   8.250
 6886POPC   C3A33425  26.795  34.588   7.950
 6886POPC   C4A33426  26.859  34.622   7.650
 6886POPC   C1B33427  27.090  34.442   8.550
 6886POPC   C2B33428  27.009  34.527   8.250
 6886POPC   C3B33429  27.062  34.477   7.950
 6886POPC   C4B33430  27.070  34.497   7.650
 6887POPC   NC333431  21.369  34.528   9.450
 6887POPC   PO433432  21.415  34.557   9.150
 6887POPC   GL133433  21.383  34.539   8.850
 6887POPC   GL233434  21.476  34.504   8.850
 6887POPC   C1A33435  21.416  34.560   8.550
 6887POPC   D2A33436  21.339  34.537   8.250
 6887POPC   C3A33437  21.432  34.623   7.950
 6887POPC   C4A33438  21.367  34.602   7.650
 6887POPC   C1B33439  21.546  34.335   8.550
 6887POPC   C2B33440  21.485  34.322   8.250
 6887POPC   C3B33441  21.559  34.399   7.950
 6887POPC   C4B33442  21.502  34.388   7.650
 6888POPC   NC333443  43.069  25.218   9.450
 6888POPC   PO433444  43.096  25.302   9.150
 6888POPC   GL133445  43.114  25.301   8.850
 6888POPC   GL233446  43.030  25.397   8.850
 6888POPC   C1A33447  43.106  25.264   8.550
 6888POPC   D2A33448  43.149  25.279   8.250
 6888POPC   C3A33449  43.096  25.229   7.950
 6888POPC   C4A33450  43.064  25.309   7.650
 6888POPC   C1B33451  42.875  25.440   8.550
 6888POPC   C2B33452  42.973  25.482   8.250
 6888POPC   C3B33453  42.882  25.448   7.950
 6888POPC   C4B33454  42.942  25.475   7.650
 6889POPC   NC333455  12.876  43.156   9.450
 6889POPC   PO433456  12.884  43.070   9.150
 6889POPC   GL133457  12.875  43.119   8.850
 6889POPC   GL233458  12.984  43.115   8.850
 6889POPC   C1A33459  12.815  43.160   8.550
 6889POPC   D2A33460  12.885  43.133   8.250
 6889POPC   C3A33461  12.827  43.141   7.950
 6889POPC   C4A33462  12.881  43.109   7.650
 6889POPC   C1B33463  13.084  43.166   8.550
 6889POPC   C2B33464  13.045  43.202   8.250
 6889POPC   C3B33465  13.044  43.205   7.950
 6889POPC   C4B33466  13.094  43.191   7.650
 6890POPC   NC333467  43.925  12.881   9.450
 6890POPC   PO433468  43.859  12.879   9.150
 6890POPC   GL133469  43.860  12.857   8.850
 6890POPC   GL233470  43.816  12.769   8.850
 6890POPC   C1A33471  43.882  12.822   8.550
 6890POPC   D2A33472  43.842  12.849   8.250
 6890POPC   C3A33473  43.857  12.810   7.950
 6890POPC   C4A33474  43.872  12.874   7.650
 6890POPC   C1B33475  43.785  12.634   8.550
 6890POPC   C2B33476  43.829  12.579   8.250
 6890POPC   C3B33477  43.807  12.604   7.950
 6890POPC   C4B33478  43.794  12.566   7.650
 6891POPC   NC333479  29.895  10.478   9.450
 6891POPC   PO433480  29.954  10.485   9.150
 6891POPC   GL133481  29.967  10.527   8.850
 6891POPC   GL233482  29.808  10.475   8.850
 6891POPC   C1A33483  29.873  10.511   8.550
 6891POPC   D2A33484  29.895  10.560   8.250
 6891POPC   C3A33485  29.943  10.566   7.950
 6891POPC   C4A33486  29.932  10.496   7.650
 6891POPC   C1B33487  29.649  10.437   8.550
 6891POPC   C2B33488  29.655  10.385   8.250
 6891POPC   C3B33489  29.644  10.387   7.950
 6891POPC   C4B33490  29.679  10.394   7.650
 6892POPC   NC333491  12.841  31.429   9.450
 6892POPC   PO433492  12.871  31.484   9.150
 6892POPC   GL133493  12.838  31.440   8.850
 6892POPC   GL233494  12.931  31.354   8.850
 6892POPC   C1A33495  12.829  31.450   8.550
 6892POPC   D2A33496  12.833  31.438   8.250
 6892POPC   C3A33497  12.867  31.429   7.950
 6892POPC   C4A33498  12.834  31.426   7.650
 6892POPC   C1B33499  13.054  31.346   8.550
 6892POPC   C2B33500  13.033  31.284   8.250
 6892POPC   C3B33501  13.009  31.322   7.950
 6892POPC   C4B33502  13.078  31.287   7.650
 6893POPC   NC333503  18.287  22.168   9.450
 6893POPC   PO433504  18.285  22.176   9.150
 6893POPC   GL133505  18.294  22.181   8.850
 6893POPC   GL233506  18.414  22.253   8.850
 6893POPC   C1A33507  18.277  22.206   8.550
 6893POPC   D2A33508  18.319  22.170   8.250
 6893POPC   C3A33509  18.257  22.156   7.950
 6893POPC   C4A33510  18.326  22.178   7.650
 6893POPC   C1B33511  18.495  22.381   8.550
 6893POPC   C2B33512  18.459  22.307   8.250
 6893POPC   C3B33513  18.431  22.314   7.950
 6893POPC   C4B33514  18.413  22.305   7.650
 6894POPC   NC333515  17.469  22.909   9.450
 6894POPC   PO433516  17.501  22.907   9.150
 6894POPC   GL133517  17.507  22.957   8.850
 6894POPC   GL233518  17.471  22.810   8.850
 6894POPC   C1A33519  17.536  22.900   8.550
 6894POPC   D2A33520  17.496  22.906   8.250
 6894POPC   C3A33521  17.537  22.984   7.950
 6894POPC   C4A33522  17.529  22.948   7.650
 6894POPC   C1B33523  17.349  22.674   8.550
 6894POPC   C2B33524  17.427  22.751   8.250
 6894POPC   C3B33525  17.397  22.744   7.950
 6894POPC   C4B33526  17.411  22.736   7.650
 6895POPC   NC333527  19.840  40.017   9.450
 6895POPC   PO433528  19.823  40.040   9.150
 6895POPC   GL133529  19.809  40.041   8.850
 6895POPC   GL233530  19.894  39.888   8.850
 6895POPC   C1A33531  19.829  40.051   8.550
 6895POPC   D2A33532  19.832  39.993   8.250
 6895POPC   C3A33533  19.841  39.978   7.950
 6895POPC   C4A33534  19.849  39.964   7.650
 6895POPC   C1B33535  19.918  39.763   8.550
 6895POPC   C2B33536  19.868  39.771   8.250
 6895POPC   C3B33537  19.895  39.760   7.950
 6895POPC   C4B33538  19.928  39.725   7.650
 6896POPC   NC333539  14.363  36.165   9.450
 6896POPC   PO433540  14.416  36.154   9.150
 6896POPC   GL133541  14.432  36.138   8.850
 6896POPC   GL233542  14.314  36.036   8.850
 6896POPC   C1A33543  14.430  36.148   8.550
 6896POPC   D2A33544  14.443  36.154   8.250
 6896POPC   C3A33545  14.426  36.112   7.950
 6896POPC   C4A33546  14.415  36.104   7.650
 6896POPC   C1B33547  14.302  35.909   8.550
 6896POPC   C2B33548  14.310  35.909   8.250
 6896POPC   C3B33549  14.290  35.898   7.950
 6896POPC   C4B33550  14.299  35.876   7.650
 6897POPC   NC333551   9.743  43.887   9.450
 6897POPC   PO433552   9.762  43.881   9.150
 6897POPC   GL133553   9.778  43.924   8.850
 6897POPC   GL233554   9.824  43.775   8.850
 6897POPC   C1A33555   9.699  43.905   8.550
 6897POPC   D2A33556   9.754  43.868   8.250
 6897POPC   C3A33557   9.719  43.860   7.950
 6897POPC   C4A33558   9.725  43.890   7.650
 6897POPC   C1B33559   9.887  43.647   8.550
 6897POPC   C2B33560   9.889  43.701   8.250
 6897POPC   C3B33561   9.912  43.649   7.950
 6897POPC   C4B33562   9.920  43.672   7.650
 6898POPC   NC333563   2.814  22.911   9.450
 6898POPC   PO433564   2.764  22.893   9.150
 6898POPC   GL133565   2.813  22.978   8.850
 6898POPC   GL233566   2.649  22.986   8.850
 6898POPC   C1A33567   2.788  22.963   8.550
 6898POPC   D2A33568   2.735  22.918   8.250
 6898POPC   C3A33569   2.719  22.939   7.950
 6898POPC   C4A33570   2.759  22.972   7.650
 6898POPC   C1B33571   2.499  22.996   8.550
 6898POPC   C2B33572   2.528  23.000   8.250
 6898POPC   C3B33573   2.472  22.932   7.950
 6898POPC   C4B33574   2.493  23.003   7.650
 6899POPC   NC333575  36.905  43.124   9.450
 6899POPC   PO433576  36.877  43.091   9.150
 6899POPC   GL133577  36.933  43.068   8.850
 6899POPC   GL233578  36.904  43.188   8.850
 6899POPC   C1A33579  36.872  43.126   8.550
 6899POPC   D2A33580  36.924  43.140   8.250
 6899POPC   C3A33581  36.887  43.117   7.950
 6899POPC   C4A33582  36.880  43.111   7.650
 6899POPC   C1B33583  36.859  43.320   8.550
 6899POPC   C2B33584  36.899  43.409   8.250
 6899POPC   C3B33585  36.870  43.395   7.950
 6899POPC   C4B33586  36.879  43.361   7.650
 6900POPC   NC333587  36.894  17.507   9.450
 6900POPC   PO433588  36.941  17.528   9.150
 6900POPC   GL133589  36.935  17.521   8.850
 6900POPC   GL233590  36.745  17.528   8.850
 6900POPC   C1A33591  36.909  17.547   8.550
 6900POPC   D2A33592  36.927  17.523   8.250
 6900POPC   C3A33593  36.876  17.461   7.950
 6900POPC   C4A33594  36.878  17.536   7.650
 6900POPC   C1B33595  36.649  17.514   8.550
 6900POPC   C2B33596  36.702  17.518   8.250
 6900POPC   C3B33597  36.703  17.500   7.950
 6900POPC   C4B33598  36.664  17.533   7.650
 6901POPC   NC333599  17.518  43.142   9.450
 6901POPC   PO433600  17.555  43.076   9.150
 6901POPC   GL133601  17.514  43.096   8.850
 6901POPC   GL233602  17.563  43.018   8.850
 6901POPC   C1A33603  17.479  43.123   8.550
 6901POPC   D2A33604  17.477  43.144   8.250
 6901POPC   C3A33605  17.486  43.109   7.950
 6901POPC   C4A33606  17.507  43.064   7.650
 6901POPC   C1B33607  17.724  42.908   8.550
 6901POPC   C2B33608  17.739  42.947   8.250
 6901POPC   C3B33609  17.668  42.977   7.950
 6901POPC   C4B33610  17.729  42.932   7.650
 6902POPC   NC333611   3.525   6.655   9.450
 6902POPC   PO433612   3.497   6.662   9.150
 6902POPC   GL133613   3.543   6.634   8.850
 6902POPC   GL233614   3.601   6.734   8.850
 6902POPC   C1A33615   3.530   6.663   8.550
 6902POPC   D2A33616   3.497   6.660   8.250
 6902POPC   C3A33617   3.574   6.623   7.950
 6902POPC   C4A33618   3.568   6.614   7.650
 6902POPC   C1B33619   3.701   6.831   8.550
 6902POPC   C2B33620   3.756   6.816   8.250
 6902POPC   C3B33621   3.724   6.811   7.950
 6902POPC   C4B33622   3.753   6.781   7.650
 6903POPC   NC333623   4.295  36.866   9.450
 6903POPC   PO433624   4.362  36.867   9.150
 6903POPC   GL133625   4.342  36.953   8.850
 6903POPC   GL233626   4.446  36.932   8.850
 6903POPC   C1A33627   4.286  36.862   8.550
 6903POPC   D2A33628   4.337  36.947   8.250
 6903POPC   C3A33629   4.294  36.949   7.950
 6903POPC   C4A33630   4.309  36.946   7.650
 6903POPC   C1B33631   4.565  36.886   8.550
 6903POPC   C2B33632   4.614  36.910   8.250
 6903POPC   C3B33633   4.536  36.876   7.950
 6903POPC   C4B33634   4.553  36.888   7.650
 6904POPC   NC333635  13.646  31.494   9.450
 6904POPC   PO433636  13.629  31.478   9.150
 6904POPC   GL133637  13.653  31.464   8.850
 6904POPC   GL233638  13.517  31.544   8.850
 6904POPC   C1A33639  13.618  31.505   8.550
 6904POPC   D2A33640  13.599  31.424   8.250
 6904POPC   C3A33641  13.657  31.502   7.950
 6904POPC   C4A33642  13.582  31.426   7.650
 6904POPC   C1B33643  13.539  31.663   8.550
 6904POPC   C2B33644  13.529  31.634   8.250
 6904POPC   C3B33645  13.516  31.644   7.950
 6904POPC   C4B33646  13.541  31.696   7.650
 6905POPC   NC333647  20.580  41.542   9.450
 6905POPC   PO433648  20.640  41.595   9.150
 6905POPC   GL133649  20.631  41.578   8.850
 6905POPC   GL233650  20.635  41.662   8.850
 6905POPC   C1A33651  20.566  41.604   8.550
 6905POPC   D2A33652  20.583  41.554   8.250
 6905POPC   C3A33653  20.581  41.556   7.950
 6905POPC   C4A33654  20.659  41.598   7.650
 6905POPC   C1B33655  20.731  41.740   8.550
 6905POPC   C2B33656  20.722  41.766   8.250
 6905POPC   C3B33657  20.708  41.813   7.950
 6905POPC   C4B33658  20.676  41.801   7.650
 6906POPC   NC333659  35.325  29.950   9.450
 6906POPC   PO433660  35.401  29.915   9.150
 6906POPC   GL133661  35.389  29.969   8.850
 6906POPC   GL233662  35.478  29.983   8.850
 6906POPC   C1A33663  35.385  29.930   8.550
 6906POPC   D2A33664  35.382  29.947   8.250
 6906POPC   C3A33665  35.362  29.893   7.950
 6906POPC   C4A33666  35.308  29.962   7.650
 6906POPC   C1B33667  35.573  29.937   8.550
 6906POPC   C2B33668  35.632  29.953   8.250
 6906POPC   C3B33669  35.620  29.934   7.950
 6906POPC   C4B33670  35.572  29.969   7.650
 6907POPC   NC333671  15.212  37.682   9.450
 6907POPC   PO433672  15.166  37.689   9.150
 6907POPC   GL133673  15.182  37.659   8.850
 6907POPC   GL233674  15.240  37.729   8.850
 6907POPC   C1A33675  15.211  37.665   8.550
 6907POPC   D2A33676  15.133  37.683   8.250
 6907POPC   C3A33677  15.193  37.648   7.950
 6907POPC   C4A33678  15.167  37.635   7.650
 6907POPC   C1B33679  15.421  37.880   8.550
 6907POPC   C2B33680  15.366  37.883   8.250
 6907POPC   C3B33681  15.385  37.832   7.950
 6907POPC   C4B33682  15.369  37.826   7.650
 6908POPC   NC333683  16.682  26.021   9.450
 6908POPC   PO433684  16.727  26.081   9.150
 6908POPC   GL133685  16.768  26.065   8.850
 6908POPC   GL233686  16.752  26.174   8.850
 6908POPC   C1A33687  16.736  26.000   8.550
 6908POPC   D2A33688  16.744  26.029   8.250
 6908POPC   C3A33689  16.683  26.073   7.950
 6908POPC   C4A33690  16.724  26.082   7.650
 6908POPC   C1B33691  16.688  26.272   8.550
 6908POPC   C2B33692  16.669  26.336   8.250
 6908POPC   C3B33693  16.662  26.313   7.950
 6908POPC   C4B33694  16.648  26.244   7.650
 6909POPC   NC333695  25.254  17.541   9.450
 6909POPC   PO433696  25.306  17.511   9.150
 6909POPC   GL133697  25.300  17.461   8.850
 6909POPC   GL233698  25.394  17.489   8.850
 6909POPC   C1A33699  25.234  17.484   8.550
 6909POPC   D2A33700  25.293  17.484   8.250
 6909POPC   C3A33701  25.265  17.464   7.950
 6909POPC   C4A33702  25.286  17.470   7.650
 6909POPC   C1B33703  25.492  17.497   8.550
 6909POPC   C2B33704  25.526  17.541   8.250
 6909POPC   C3B33705  25.536  17.491   7.950
 6909POPC   C4B33706  25.517  17.531   7.650
 6910POPC   NC333707   5.129  27.640   9.450
 6910POPC   PO433708   5.052  27.553   9.150
 6910POPC   GL133709   5.090  27.603   8.850
 6910POPC   GL233710   4.945  27.498   8.850
 6910POPC   C1A33711   5.113  27.632   8.550
 6910POPC   D2A33712   5.056  27.585   8.250
 6910POPC   C3A33713   5.046  27.577   7.950
 6910POPC   C4A33714   5.071  27.601   7.650
 6910POPC   C1B33715   4.875  27.481   8.550
 6910POPC   C2B33716   4.934  27.480   8.250
 6910POPC   C3B33717   4.927  27.421   7.950
 6910POPC   C4B33718   4.838  27.407   7.650
 6911POPC   NC333719  29.128  42.333   9.450
 6911POPC   PO433720  29.141  42.342   9.150
 6911POPC   GL133721  29.117  42.296   8.850
 6911POPC   GL233722  29.266  42.324   8.850
 6911POPC   C1A33723  29.099  42.356   8.550
 6911POPC   D2A33724  29.149  42.375   8.250
 6911POPC   C3A33725  29.166  42.340   7.950
 6911POPC   C4A33726  29.189  42.309   7.650
 6911POPC   C1B33727  29.441  42.344   8.550
 6911POPC   C2B33728  29.424  42.373   8.250
 6911POPC   C3B33729  29.344  42.347   7.950
 6911POPC   C4B33730  29.390  42.422   7.650
 6912POPC   NC333731  29.162  15.964   9.450
 6912POPC   PO433732  29.167  15.906   9.150
 6912POPC   GL133733  29.150  15.997   8.850
 6912POPC   GL233734  29.055  16.037   8.850
 6912POPC   C1A33735  29.152  15.922   8.550
 6912POPC   D2A33736  29.177  15.968   8.250
 6912POPC   C3A33737  29.130  15.935   7.950
 6912POPC   C4A33738  29.187  15.949   7.650
 6912POPC   C1B33739  28.912  16.058   8.550
 6912POPC   C2B33740  28.966  16.042   8.250
 6912POPC   C3B33741  28.887  16.085   7.950
 6912POPC   C4B33742  28.883  16.056   7.650
 6913POPC   NC333743  24.453  29.925   9.450
 6913POPC   PO433744  24.516  29.922   9.150
 6913POPC   GL133745  24.441  29.905   8.850
 6913POPC   GL233746  24.571  29.922   8.850
 6913POPC   C1A33747  24.516  29.955   8.550
 6913POPC   D2A33748  24.471  29.910   8.250
 6913POPC   C3A33749  24.491  29.895   7.950
 6913POPC   C4A33750  24.502  29.970   7.650
 6913POPC   C1B33751  24.710  30.020   8.550
 6913POPC   C2B33752  24.731  30.038   8.250
 6913POPC   C3B33753  24.766  30.017   7.950
 6913POPC   C4B33754  24.771  29.989   7.650
 6914POPC   NC333755  40.820  10.541   9.450
 6914POPC   PO433756  40.830  10.513   9.150
 6914POPC   GL133757  40.805  10.504   8.850
 6914POPC   GL233758  40.700  10.515   8.850
 6914POPC   C1A33759  40.768  10.481   8.550
 6914POPC   D2A33760  40.755  10.488   8.250
 6914POPC   C3A33761  40.744  10.483   7.950
 6914POPC   C4A33762  40.830  10.487   7.650
 6914POPC   C1B33763  40.551  10.609   8.550
 6914POPC   C2B33764  40.511  10.591   8.250
 6914POPC   C3B33765  40.571  10.596   7.950
 6914POPC   C4B33766  40.517  10.562   7.650
 6915POPC   NC333767  19.843  12.079   9.450
 6915POPC   PO433768  19.873  12.087   9.150
 6915POPC   GL133769  19.852  12.079   8.850
 6915POPC   GL233770  19.948  12.002   8.850
 6915POPC   C1A33771  19.874  12.085   8.550
 6915POPC   D2A33772  19.884  12.100   8.250
 6915POPC   C3A33773  19.880  12.063   7.950
 6915POPC   C4A33774  19.835  12.060   7.650
 6915POPC   C1B33775  19.927  11.823   8.550
 6915POPC   C2B33776  20.019  11.853   8.250
 6915POPC   C3B33777  19.950  11.854   7.950
 6915POPC   C4B33778  19.990  11.849   7.650
 6916POPC   NC333779  40.018  39.246   9.450
 6916POPC   PO433780  40.035  39.198   9.150
 6916POPC   GL133781  40.039  39.253   8.850
 6916POPC   GL233782  39.888  39.179   8.850
 6916POPC   C1A33783  39.965  39.264   8.550
 6916POPC   D2A33784  40.049  39.189   8.250
 6916POPC   C3A33785  40.039  39.266   7.950
 6916POPC   C4A33786  39.967  39.240   7.650
 6916POPC   C1B33787  39.846  39.010   8.550
 6916POPC   C2B33788  39.840  39.031   8.250
 6916POPC   C3B33789  39.822  39.061   7.950
 6916POPC   C4B33790  39.839  39.041   7.650
 6917POPC   NC333791  12.068  40.055   9.450
 6917POPC   PO433792  12.045  39.966   9.150
 6917POPC   GL133793  12.037  39.996   8.850
 6917POPC   GL233794  12.106  39.915   8.850
 6917POPC   C1A33795  12.027  40.004   8.550
 6917POPC   D2A33796  12.107  39.979   8.250
 6917POPC   C3A33797  12.097  40.054   7.950
 6917POPC   C4A33798  12.067  40.037   7.650
 6917POPC   C1B33799  12.165  39.810   8.550
 6917POPC   C2B33800  12.192  39.801   8.250
 6917POPC   C3B33801  12.176  39.763   7.950
 6917POPC   C4B33802  12.095  39.793   7.650
 6918POPC   NC333803   6.667  27.547   9.450
 6918POPC   PO433804   6.619  27.546   9.150
 6918POPC   GL133805   6.599  27.626   8.850
 6918POPC   GL233806   6.579  27.711   8.850
 6918POPC   C1A33807   6.595  27.629   8.550
 6918POPC   D2A33808   6.684  27.561   8.250
 6918POPC   C3A33809   6.653  27.604   7.950
 6918POPC   C4A33810   6.613  27.585   7.650
 6918POPC   C1B33811   6.645  27.808   8.550
 6918POPC   C2B33812   6.579  27.867   8.250
 6918POPC   C3B33813   6.581  27.808   7.950
 6918POPC   C4B33814   6.568  27.879   7.650
 6919POPC   NC333815  31.491  26.796   9.450
 6919POPC   PO433816  31.514  26.816   9.150
 6919POPC   GL133817  31.507  26.785   8.850
 6919POPC   GL233818  31.386  26.851   8.850
 6919POPC   C1A33819  31.513  26.795   8.550
 6919POPC   D2A33820  31.511  26.805   8.250
 6919POPC   C3A33821  31.463  26.775   7.950
 6919POPC   C4A33822  31.473  26.811   7.650
 6919POPC   C1B33823  31.217  26.872   8.550
 6919POPC   C2B33824  31.239  26.941   8.250
 6919POPC   C3B33825  31.262  26.860   7.950
 6919POPC   C4B33826  31.272  26.853   7.650
 6920POPC   NC333827  19.073   2.736   9.450
 6920POPC   PO433828  19.094   2.813   9.150
 6920POPC   GL133829  19.086   2.717   8.850
 6920POPC   GL233830  19.036   2.925   8.850
 6920POPC   C1A33831  19.064   2.792   8.550
 6920POPC   D2A33832  19.063   2.766   8.250
 6920POPC   C3A33833  19.070   2.751   7.950
 6920POPC   C4A33834  19.080   2.786   7.650
 6920POPC   C1B33835  18.968   2.983   8.550
 6920POPC   C2B33836  18.958   2.947   8.250
 6920POPC   C3B33837  18.965   3.034   7.950
 6920POPC   C4B33838  18.904   2.994   7.650
 6921POPC   NC333839  44.641  42.324   9.450
 6921POPC   PO433840  44.642  42.291   9.150
 6921POPC   GL133841  44.649  42.359   8.850
 6921POPC   GL233842  44.585  42.322   8.850
 6921POPC   C1A33843  44.657  42.361   8.550
 6921POPC   D2A33844  44.665  42.314   8.250
 6921POPC   C3A33845  44.706  42.310   7.950
 6921POPC   C4A33846  44.620  42.359   7.650
 6921POPC   C1B33847  44.379  42.396   8.550
 6921POPC   C2B33848  44.366  42.422   8.250
 6921POPC   C3B33849  44.391  42.376   7.950
 6921POPC   C4B33850  44.445  42.350   7.650
 6922POPC   NC333851  39.202  22.906   9.450
 6922POPC   PO433852  39.274  22.907   9.150
 6922POPC   GL133853  39.182  22.895   8.850
 6922POPC   GL233854  39.278  22.800   8.850
 6922POPC   C1A33855  39.232  22.956   8.550
 6922POPC   D2A33856  39.249  22.975   8.250
 6922POPC   C3A33857  39.275  22.915   7.950
 6922POPC   C4A33858  39.218  22.890   7.650
 6922POPC   C1B33859  39.282  22.679   8.550
 6922POPC   C2B33860  39.294  22.681   8.250
 6922POPC   C3B33861  39.312  22.673   7.950
 6922POPC   C4B33862  39.270  22.664   7.650
 6923POPC   NC333863  11.327  29.958   9.450
 6923POPC   PO433864  11.332  29.887   9.150
 6923POPC   GL133865  11.302  29.942   8.850
 6923POPC   GL233866  11.265  30.046   8.850
 6923POPC   C1A33867  11.324  29.922   8.550
 6923POPC   D2A33868  11.294  29.915   8.250
 6923POPC   C3A33869  11.335  29.967   7.950
 6923POPC   C4A33870  11.293  29.875   7.650
 6923POPC   C1B33871  11.216  30.187   8.550
 6923POPC   C2B33872  11.142  30.108   8.250
 6923POPC   C3B33873  11.176  30.189   7.950
 6923POPC   C4B33874  11.226  30.190   7.650
 6924POPC   NC333875  43.866  12.101   9.450
 6924POPC   PO433876  43.921  12.078   9.150
 6924POPC   GL133877  43.881  12.027   8.850
 6924POPC   GL233878  43.974  12.197   8.850
 6924POPC   C1A33879  43.926  12.082   8.550
 6924POPC   D2A33880  43.905  12.077   8.250
 6924POPC   C3A33881  43.916  12.066   7.950
 6924POPC   C4A33882  43.867  12.126   7.650
 6924POPC   C1B33883  44.109  12.231   8.550
 6924POPC   C2B33884  44.103  12.225   8.250
 6924POPC   C3B33885  44.104  12.239   7.950
 6924POPC   C4B33886  44.067  12.196   7.650
 6925POPC   NC333887  14.448  29.119   9.450
 6925POPC   PO433888  14.433  29.099   9.150
 6925POPC   GL133889  14.423  29.150   8.850
 6925POPC   GL233890  14.273  29.132   8.850
 6925POPC   C1A33891  14.354  29.108   8.550
 6925POPC   D2A33892  14.392  29.163   8.250
 6925POPC   C3A33893  14.407  29.140   7.950
 6925POPC   C4A33894  14.359  29.152   7.650
 6925POPC   C1B33895  14.140  29.189   8.550
 6925POPC   C2B33896  14.207  29.212   8.250
 6925POPC   C3B33897  14.192  29.234   7.950
 6925POPC   C4B33898  14.185  29.224   7.650
 6926POPC   NC333899   7.388  13.634   9.450
 6926POPC   PO433900   7.456  13.675   9.150
 6926POPC   GL133901   7.423  13.658   8.850
 6926POPC   GL233902   7.335  13.589   8.850
 6926POPC   C1A33903   7.428  13.643   8.550
 6926POPC   D2A33904   7.444  13.623   8.250
 6926POPC   C3A33905   7.460  13.667   7.950
 6926POPC   C4A33906   7.399  13.601   7.650
 6926POPC   C1B33907   7.193  13.607   8.550
 6926POPC   C2B33908   7.128  13.612   8.250
 6926POPC   C3B33909   7.121  13.639   7.950
 6926POPC   C4B33910   7.127  13.591   7.650
 6927POPC   NC333911  12.126  43.069   9.450
 6927POPC   PO433912  12.125  43.129   9.150
 6927POPC   GL133913  12.027  43.135   8.850
 6927POPC   GL233914  12.046  42.992   8.850
 6927POPC   C1A33915  12.113  43.112   8.550
 6927POPC   D2A33916  12.041  43.088   8.250
 6927POPC   C3A33917  12.121  43.089   7.950
 6927POPC   C4A33918  12.097  43.139   7.650
 6927POPC   C1B33919  12.077  42.828   8.550
 6927POPC   C2B33920  12.063  42.884   8.250
 6927POPC   C3B33921  12.100  42.837   7.950
 6927POPC   C4B33922  12.066  42.905   7.650
 6928POPC   NC333923  42.356   3.541   9.450
 6928POPC   PO433924  42.325   3.544   9.150
 6928POPC   GL133925  42.318   3.496   8.850
 6928POPC   GL233926  42.261   3.420   8.850
 6928POPC   C1A33927  42.364   3.551   8.550
 6928POPC   D2A33928  42.326   3.496   8.250
 6928POPC   C3A33929  42.297   3.566   7.950
 6928POPC   C4A33930  42.317   3.502   7.650
 6928POPC   C1B33931  42.282   3.284   8.550
 6928POPC   C2B33932  42.309   3.282   8.250
 6928POPC   C3B33933  42.304   3.269   7.950
 6928POPC   C4B33934  42.244   3.281   7.650
 6929POPC   NC333935  36.878  28.345   9.450
 6929POPC   PO433936  36.878  28.391   9.150
 6929POPC   GL133937  36.940  28.397   8.850
 6929POPC   GL233938  37.046  28.460   8.850
 6929POPC   C1A33939  36.940  28.330   8.550
 6929POPC   D2A33940  36.895  28.367   8.250
 6929POPC   C3A33941  36.921  28.329   7.950
 6929POPC   C4A33942  36.870  28.324   7.650
 6929POPC   C1B33943  37.062  28.485   8.550
 6929POPC   C2B33944  37.111  28.563   8.250
 6929POPC   C3B33945  37.098  28.503   7.950
 6929POPC   C4B33946  37.080  28.527   7.650
 6930POPC   NC333947  12.833  10.488   9.450
 6930POPC   PO433948  12.816  10.557   9.150
 6930POPC   GL133949  12.810  10.494   8.850
 6930POPC   GL233950  13.002  10.409   8.850
 6930POPC   C1A33951  12.890  10.520   8.550
 6930POPC   D2A33952  12.834  10.533   8.250
 6930POPC   C3A33953  12.857  10.562   7.950
 6930POPC   C4A33954  12.818  10.484   7.650
 6930POPC   C1B33955  13.043  10.400   8.550
 6930POPC   C2B33956  13.113  10.426   8.250
 6930POPC   C3B33957  13.017  10.353   7.950
 6930POPC   C4B33958  13.018  10.365   7.650
 6931POPC   NC333959   1.978   4.283   9.450
 6931POPC   PO433960   2.019   4.334   9.150
 6931POPC   GL133961   2.018   4.272   8.850
 6931POPC   GL233962   2.102   4.185   8.850
 6931POPC   C1A33963   1.983   4.366   8.550
 6931POPC   D2A33964   2.008   4.310   8.250
 6931POPC   C3A33965   1.957   4.290   7.950
 6931POPC   C4A33966   1.985   4.279   7.650
 6931POPC   C1B33967   2.193   4.122   8.550
 6931POPC   C2B33968   2.187   4.176   8.250
 6931POPC   C3B33969   2.216   4.097   7.950
 6931POPC   C4B33970   2.161   4.172   7.650
 6932POPC   NC333971  19.064   8.218   9.450
 6932POPC   PO433972  19.069   8.170   9.150
 6932POPC   GL133973  19.100   8.213   8.850
 6932POPC   GL233974  19.152   8.299   8.850
 6932POPC   C1A33975  19.028   8.204   8.550
 6932POPC   D2A33976  19.094   8.183   8.250
 6932POPC   C3A33977  19.091   8.160   7.950
 6932POPC   C4A33978  19.028   8.214   7.650
 6932POPC   C1B33979  19.270   8.295   8.550
 6932POPC   C2B33980  19.288   8.363   8.250
 6932POPC   C3B33981  19.255   8.334   7.950
 6932POPC   C4B33982  19.280   8.350   7.650
 6933POPC   NC333983   3.501  34.604   9.450
 6933POPC   PO433984   3.534  34.592   9.150
 6933POPC   GL133985   3.519  34.533   8.850
 6933POPC   GL233986   3.667  34.562   8.850
 6933POPC   C1A33987   3.527  34.543   8.550
 6933POPC   D2A33988   3.554  34.582   8.250
 6933POPC   C3A33989   3.577  34.613   7.950
 6933POPC   C4A33990   3.538  34.564   7.650
 6933POPC   C1B33991   3.789  34.562   8.550
 6933POPC   C2B33992   3.744  34.508   8.250
 6933POPC   C3B33993   3.760  34.572   7.950
 6933POPC   C4B33994   3.810  34.552   7.650
 6934POPC   NC333995  32.210  14.377   9.450
 6934POPC   PO433996  32.205  14.366   9.150
 6934POPC   GL133997  32.282  14.368   8.850
 6934POPC   GL233998  32.170  14.527   8.850
 6934POPC   C1A33999  32.220  14.445   8.550
 6934POPC   D2A34000  32.257  14.405   8.250
 6934POPC   C3A34001  32.234  14.381   7.950
 6934POPC   C4A34002  32.278  14.380   7.650
 6934POPC   C1B34003  32.098  14.639   8.550
 6934POPC   C2B34004  32.139  14.636   8.250
 6934POPC   C3B34005  32.151  14.625   7.950
 6934POPC   C4B34006  32.091  14.602   7.650
 6935POPC   NC334007   6.687  38.413   9.450
 6935POPC   PO434008   6.666  38.442   9.150
 6935POPC   GL134009   6.693  38.420   8.850
 6935POPC   GL234010   6.522  38.489   8.850
 6935POPC   C1A34011   6.611  38.478   8.550
 6935POPC   D2A34012   6.606  38.405   8.250
 6935POPC   C3A34013   6.690  38.495   7.950
 6935POPC   C4A34014   6.624  38.499   7.650
 6935POPC   C1B34015   6.416  38.546   8.550
 6935POPC   C2B34016   6.444  38.552   8.250
 6935POPC   C3B34017   6.398  38.550   7.950
 6935POPC   C4B34018   6.372  38.522   7.650
 6936POPC   NC334019   1.942   1.940   9.450
 6936POPC   PO434020   2.008   1.987   9.150
 6936POPC   GL134021   2.038   1.941   8.850
 6936POPC   GL234022   2.012   1.909   8.850
 6936POPC   C1A34023   1.995   1.983   8.550
 6936POPC   D2A34024   2.023   2.029   8.250
 6936POPC   C3A34025   2.014   1.989   7.950
 6936POPC   C4A34026   1.986   2.038   7.650
 6936POPC   C1B34027   1.990   1.754   8.550
 6936POPC   C2B34028   1.966   1.790   8.250
 6936POPC   C3B34029   1.958   1.729   7.950
 6936POPC   C4B34030   1.942   1.691   7.650
 6937POPC   NC334031   3.576   8.213   9.450
 6937POPC   PO434032   3.577   8.158   9.150
 6937POPC   GL134033   3.502   8.233   8.850
 6937POPC   GL234034   3.488   8.087   8.850
 6937POPC   C1A34035   3.590   8.203   8.550
 6937POPC   D2A34036   3.503   8.175   8.250
 6937POPC   C3A34037   3.574   8.166   7.950
 6937POPC   C4A34038   3.493   8.189   7.650
 6937POPC   C1B34039   3.372   8.026   8.550
 6937POPC   C2B34040   3.350   8.089   8.250
 6937POPC   C3B34041   3.364   8.017   7.950
 6937POPC   C4B34042   3.373   8.002   7.650
 6938POPC   NC334043  10.527  19.810   9.450
 6938POPC   PO434044  10.486  19.795   9.150
 6938POPC   GL134045  10.504  19.871   8.850
 6938POPC   GL234046  10.621  19.755   8.850
 6938POPC   C1A34047  10.483  19.803   8.550
 6938POPC   D2A34048  10.534  19.860   8.250
 6938POPC   C3A34049  10.568  19.841   7.950
 6938POPC   C4A34050  10.510  19.810   7.650
 6938POPC   C1B34051  10.651  19.659   8.550
 6938POPC   C2B34052  10.650  19.629   8.250
 6938POPC   C3B34053  10.633  19.646   7.950
 6938POPC   C4B34054  10.660  19.583   7.650
 6939POPC   NC334055  34.589  29.957   9.450
 6939POPC   PO434056  34.601  29.914   9.150
 6939POPC   GL134057  34.566  29.929   8.850
 6939POPC   GL234058  34.576  30.010   8.850
 6939POPC   C1A34059  34.547  29.928   8.550
 6939POPC   D2A34060  34.555  29.891   8.250
 6939POPC   C3A34061  34.565  29.886   7.950
 6939POPC   C4A34062  34.545  29.889   7.650
 6939POPC   C1B34063  34.563  30.145   8.550
 6939POPC   C2B34064  34.568  30.144   8.250
 6939POPC   C3B34065  34.578  30.178   7.950
 6939POPC   C4B34066  34.560  30.167   7.650
 6940POPC   NC334067  38.468   5.828   9.450
 6940POPC   PO434068  38.407   5.830   9.150
 6940POPC   GL134069  38.447   5.881   8.850
 6940POPC   GL234070  38.605   5.842   8.850
 6940POPC   C1A34071  38.407   5.835   8.550
 6940POPC   D2A34072  38.481   5.887   8.250
 6940POPC   C3A34073  38.454   5.851   7.950
 6940POPC   C4A34074  38.416   5.890   7.650
 6940POPC   C1B34075  38.714   5.792   8.550
 6940POPC   C2B34076  38.637   5.769   8.250
 6940POPC   C3B34077  38.720   5.810   7.950
 6940POPC   C4B34078  38.645   5.782   7.650
 6941POPC   NC334079  22.172  44.622   9.450
 6941POPC   PO434080  22.179  44.620   9.150
 6941POPC   GL134081  22.146  44.660   8.850
 6941POPC   GL234082  22.286  44.697   8.850
 6941POPC   C1A34083  22.173  44.673   8.550
 6941POPC   D2A34084  22.133  44.700   8.250
 6941POPC   C3A34085  22.113  44.695   7.950
 6941POPC   C4A34086  22.181  44.641   7.650
 6941POPC   C1B34087  22.425  44.694   8.550
 6941POPC   C2B34088  22.367  44.789   8.250
 6941POPC   C3B34089  22.440  44.716   7.950
 6941POPC   C4B34090  22.366  44.715   7.650
 6942POPC   NC334091   5.055  26.012   9.450
 6942POPC   PO434092   5.096  26.090   9.150
 6942POPC   GL134093   5.044  25.994   8.850
 6942POPC   GL234094   5.048  26.128   8.850
 6942POPC   C1A34095   5.061  26.064   8.550
 6942POPC   D2A34096   5.060  25.999   8.250
 6942POPC   C3A34097   5.059  26.043   7.950
 6942POPC   C4A34098   5.109  26.072   7.650
 6942POPC   C1B34099   5.057  26.312   8.550
 6942POPC   C2B34100   5.057  26.310   8.250
 6942POPC   C3B34101   4.972  26.239   7.950
 6942POPC   C4B34102   4.992  26.295   7.650
 6943POPC   NC334103  24.518   3.557   9.450
 6943POPC   PO434104  24.461   3.493   9.150
 6943POPC   GL134105  24.528   3.499   8.850
 6943POPC   GL234106  24.433   3.467   8.850
 6943POPC   C1A34107  24.530   3.498   8.550
 6943POPC   D2A34108  24.495   3.590   8.250
 6943POPC   C3A34109  24.470   3.500   7.950
 6943POPC   C4A34110  24.522   3.540   7.650
 6943POPC   C1B34111  24.505   3.274   8.550
 6943POPC   C2B34112  24.445   3.342   8.250
 6943POPC   C3B34113  24.446   3.304   7.950
 6943POPC   C4B34114  24.483   3.312   7.650
 6944POPC   NC334115  35.382  35.330   9.450
 6944POPC   PO434116  35.316  35.354   9.150
 6944POPC   GL134117  35.316  35.339   8.850
 6944POPC   GL234118  35.432  35.219   8.850
 6944POPC   C1A34119  35.390  35.393   8.550
 6944POPC   D2A34120  35.345  35.356   8.250
 6944POPC   C3A34121  35.372  35.306   7.950
 6944POPC   C4A34122  35.315  35.389   7.650
 6944POPC   C1B34123  35.453  35.152   8.550
 6944POPC   C2B34124  35.529  35.104   8.250
 6944POPC   C3B34125  35.447  35.162   7.950
 6944POPC   C4B34126  35.527  35.168   7.650
 6945POPC   NC334127  31.433  34.527   9.450
 6945POPC   PO434128  31.424  34.593   9.150
 6945POPC   GL134129  31.438  34.609   8.850
 6945POPC   GL234130  31.395  34.718   8.850
 6945POPC   C1A34131  31.494  34.580   8.550
 6945POPC   D2A34132  31.507  34.529   8.250
 6945POPC   C3A34133  31.508  34.548   7.950
 6945POPC   C4A34134  31.495  34.565   7.650
 6945POPC   C1B34135  31.375  34.846   8.550
 6945POPC   C2B34136  31.446  34.767   8.250
 6945POPC   C3B34137  31.422  34.839   7.950
 6945POPC   C4B34138  31.364  34.801   7.650
 6946POPC   NC334139  38.418  21.356   9.450
 6946POPC   PO434140  38.486  21.415   9.150
 6946POPC   GL134141  38.467  21.397   8.850
 6946POPC   GL234142  38.487  21.324   8.850
 6946POPC   C1A34143  38.425  21.382   8.550
 6946POPC   D2A34144  38.467  21.382   8.250
 6946POPC   C3A34145  38.489  21.387   7.950
 6946POPC   C4A34146  38.434  21.414   7.650
 6946POPC   C1B34147  38.596  21.211   8.550
 6946POPC   C2B34148  38.572  21.163   8.250
 6946POPC   C3B34149  38.619  21.189   7.950
 6946POPC   C4B34150  38.587  21.153   7.650
 6947POPC   NC334151   7.398  38.428   9.450
 6947POPC   PO434152   7.377  38.474   9.150
 6947POPC   GL134153   7.404  38.480   8.850
 6947POPC   GL234154   7.348  38.453   8.850
 6947POPC   C1A34155   7.375  38.460   8.550
 6947POPC   D2A34156   7.454  38.442   8.250
 6947POPC   C3A34157   7.390  38.423   7.950
 6947POPC   C4A34158   7.397  38.460   7.650
 6947POPC   C1B34159   7.209  38.351   8.550
 6947POPC   C2B34160   7.207  38.365   8.250
 6947POPC   C3B34161   7.145  38.381   7.950
 6947POPC   C4B34162   7.226  38.354   7.650
 6948POPC   NC334163  41.583  22.212   9.450
 6948POPC   PO434164  41.595  22.172   9.150
 6948POPC   GL134165  41.554  22.158   8.850
 6948POPC   GL234166  41.551  21.997   8.850
 6948POPC   C1A34167  41.556  22.117   8.550
 6948POPC   D2A34168  41.537  22.121   8.250
 6948POPC   C3A34169  41.575  22.127   7.950
 6948POPC   C4A34170  41.607  22.175   7.650
 6948POPC   C1B34171  41.583  21.927   8.550
 6948POPC   C2B34172  41.555  21.903   8.250
 6948POPC   C3B34173  41.595  21.926   7.950
 6948POPC   C4B34174  41.599  21.944   7.650
 6949POPC   NC334175   6.691  12.090   9.450
 6949POPC   PO434176   6.669  12.114   9.150
 6949POPC   GL134177   6.642  12.070   8.850
 6949POPC   GL234178   6.697  12.144   8.850
 6949POPC   C1A34179   6.622  12.059   8.550
 6949POPC   D2A34180   6.625  12.059   8.250
 6949POPC   C3A34181   6.684  12.049   7.950
 6949POPC   C4A34182   6.604  12.102   7.650
 6949POPC   C1B34183   6.870  12.183   8.550
 6949POPC   C2B34184   6.805  12.195   8.250
 6949POPC   C3B34185   6.838  12.266   7.950
 6949POPC   C4B34186   6.807  12.239   7.650
 6950POPC   NC334187   9.775  19.054   9.450
 6950POPC   PO434188   9.720  19.025   9.150
 6950POPC   GL134189   9.743  19.028   8.850
 6950POPC   GL234190   9.593  18.996   8.850
 6950POPC   C1A34191   9.783  19.054   8.550
 6950POPC   D2A34192   9.735  19.070   8.250
 6950POPC   C3A34193   9.752  19.026   7.950
 6950POPC   C4A34194   9.775  19.088   7.650
 6950POPC   C1B34195   9.491  18.965   8.550
 6950POPC   C2B34196   9.470  18.977   8.250
 6950POPC   C3B34197   9.481  18.961   7.950
 6950POPC   C4B34198   9.519  19.007   7.650
 6951POPC   NC334199  14.406  28.384   9.450
 6951POPC   PO434200  14.449  28.379   9.150
 6951POPC   GL134201  14.437  28.333   8.850
 6951POPC   GL234202  14.306  28.434   8.850
 6951POPC   C1A34203  14.440  28.349   8.550
 6951POPC   D2A34204  14.425  28.352   8.250
 6951POPC   C3A34205  14.443  28.348   7.950
 6951POPC   C4A34206  14.396  28.376   7.650
 6951POPC   C1B34207  14.311  28.568   8.550
 6951POPC   C2B34208  14.249  28.625   8.250
 6951POPC   C3B34209  14.300  28.616   7.950
 6951POPC   C4B34210  14.262  28.548   7.650
 6952POPC   NC334211   6.597  41.568   9.450
 6952POPC   PO434212   6.613  41.608   9.150
 6952POPC   GL134213   6.659  41.589   8.850
 6952POPC   GL234214   6.572  41.469   8.850
 6952POPC   C1A34215   6.685  41.538   8.550
 6952POPC   D2A34216   6.656  41.559   8.250
 6952POPC   C3A34217   6.693  41.553   7.950
 6952POPC   C4A34218   6.691  41.608   7.650
 6952POPC   C1B34219   6.530  41.328   8.550
 6952POPC   C2B34220   6.486  41.324   8.250
 6952POPC   C3B34221   6.554  41.303   7.950
 6952POPC   C4B34222   6.512  41.389   7.650
 6953POPC   NC334223  20.606  26.033   9.450
 6953POPC   PO434224  20.644  26.047   9.150
 6953POPC   GL134225  20.634  26.041   8.850
 6953POPC   GL234226  20.677  26.180   8.850
 6953POPC   C1A34227  20.654  26.061   8.550
 6953POPC   D2A34228  20.566  26.050   8.250
 6953POPC   C3A34229  20.604  26.078   7.950
 6953POPC   C4A34230  20.609  26.090   7.650
 6953POPC   C1B34231  20.721  26.287   8.550
 6953POPC   C2B34232  20.713  26.301   8.250
 6953POPC   C3B34233  20.708  26.252   7.950
 6953POPC   C4B34234  20.694  26.315   7.650
 6954POPC   NC334235   1.217  26.780   9.450
 6954POPC   PO434236   1.170  26.835   9.150
 6954POPC   GL134237   1.199  26.810   8.850
 6954POPC   GL234238   1.290  26.762   8.850
 6954POPC   C1A34239   1.182  26.774   8.550
 6954POPC   D2A34240   1.195  26.799   8.250
 6954POPC   C3A34241   1.172  26.782   7.950
 6954POPC   C4A34242   1.204  26.860   7.650
 6954POPC   C1B34243   1.353  26.633   8.550
 6954POPC   C2B34244   1.414  26.585   8.250
 6954POPC   C3B34245   1.409  26.639   7.950
 6954POPC   C4B34246   1.354  26.599   7.650
 6955POPC   NC334247   7.389   7.411   9.450
 6955POPC   PO434248   7.400   7.460   9.150
 6955POPC   GL134249   7.448   7.461   8.850
 6955POPC   GL234250   7.428   7.296   8.850
 6955POPC   C1A34251   7.425   7.391   8.550
 6955POPC   D2A34252   7.441   7.450   8.250
 6955POPC   C3A34253   7.453   7.465   7.950
 6955POPC   C4A34254   7.446   7.468   7.650
 6955POPC   C1B34255   7.348   7.177   8.550
 6955POPC   C2B34256   7.301   7.207   8.250
 6955POPC   C3B34257   7.355   7.155   7.950
 6955POPC   C4B34258   7.329   7.151   7.650
 6956POPC   NC334259  30.668  15.989   9.450
 6956POPC   PO434260  30.649  15.962   9.150
 6956POPC   GL134261  30.737  15.994   8.850
 6956POPC   GL234262  30.733  15.884   8.850
 6956POPC   C1A34263  30.719  15.950   8.550
 6956POPC   D2A34264  30.696  15.997   8.250
 6956POPC   C3A34265  30.728  15.917   7.950
 6956POPC   C4A34266  30.709  15.911   7.650
 6956POPC   C1B34267  30.801  15.714   8.550
 6956POPC   C2B34268  30.782  15.742   8.250
 6956POPC   C3B34269  30.763  15.709   7.950
 6956POPC   C4B34270  30.753  15.679   7.650
 6957POPC   NC334271   6.663  30.671   9.450
 6957POPC   PO434272   6.626  30.682   9.150
 6957POPC   GL134273   6.653  30.660   8.850
 6957POPC   GL234274   6.618  30.822   8.850
 6957POPC   C1A34275   6.690  30.668   8.550
 6957POPC   D2A34276   6.634  30.686   8.250
 6957POPC   C3A34277   6.653  30.659   7.950
 6957POPC   C4A34278   6.694  30.666   7.650
 6957POPC   C1B34279   6.552  30.873   8.550
 6957POPC   C2B34280   6.507  30.925   8.250
 6957POPC   C3B34281   6.550  30.871   7.950
 6957POPC   C4B34282   6.506  30.856   7.650
 6958POPC   NC334283  29.916   9.762   9.450
 6958POPC   PO434284  29.914   9.785   9.150
 6958POPC   GL134285  29.969   9.709   8.850
 6958POPC   GL234286  29.836   9.662   8.850
 6958POPC   C1A34287  29.900   9.724   8.550
 6958POPC   D2A34288  29.879   9.700   8.250
 6958POPC   C3A34289  29.969   9.736   7.950
 6958POPC   C4A34290  29.925   9.741   7.650
 6958POPC   C1B34291  29.698   9.623   8.550
 6958POPC   C2B34292  29.705   9.600   8.250
 6958POPC   C3B34293  29.688   9.628   7.950
 6958POPC   C4B34294  29.693   9.671   7.650
 6959POPC   NC334295  43.894  43.108   9.450
 6959POPC   PO434296  43.897  43.091   9.150
 6959POPC   GL134297  43.840  43.126   8.850
 6959POPC   GL234298  43.809  43.228   8.850
 6959POPC   C1A34299  43.932  43.100   8.550
 6959POPC   D2A34300  43.906  43.064   8.250
 6959POPC   C3A34301  43.876  43.140   7.950
 6959POPC   C4A34302  43.862  43.100   7.650
 6959POPC   C1B34303  43.685  43.243   8.550
 6959POPC   C2B34304  43.647  43.214   8.250
 6959POPC   C3B34305  43.722  43.215   7.950
 6959POPC   C4B34306  43.722  43.236   7.650
 6960POPC   NC334307   2.766  20.606   9.450
 6960POPC   PO434308   2.729  20.630   9.150
 6960POPC   GL134309   2.748  20.654   8.850
 6960POPC   GL234310   2.825  20.695   8.850
 6960POPC   C1A34311   2.804  20.610   8.550
 6960POPC   D2A34312   2.747  20.588   8.250
 6960POPC   C3A34313   2.784  20.564   7.950
 6960POPC   C4A34314   2.805  20.642   7.650
 6960POPC   C1B34315   2.905  20.843   8.550
 6960POPC   C2B34316   2.843  20.888   8.250
 6960POPC   C3B34317   2.914  20.838   7.950
 6960POPC   C4B34318   2.890  20.824   7.650
 6961POPC   NC334319  21.408  38.503   9.450
 6961POPC   PO434320  21.349  38.502   9.150
 6961POPC   GL134321  21.425  38.463   8.850
 6961POPC   GL234322  21.540  38.378   8.850
 6961POPC   C1A34323  21.431  38.496   8.550
 6961POPC   D2A34324  21.399  38.457   8.250
 6961POPC   C3A34325  21.391  38.422   7.950
 6961POPC   C4A34326  21.432  38.451   7.650
 6961POPC   C1B34327  21.641  38.421   8.550
 6961POPC   C2B34328  21.594  38.404   8.250
 6961POPC   C3B34329  21.584  38.394   7.950
 6961POPC   C4B34330  21.603  38.331   7.650
 6962POPC   NC334331   1.963  33.774   9.450
 6962POPC   PO434332   1.979  33.754   9.150
 6962POPC   GL134333   2.023  33.795   8.850
 6962POPC   GL234334   1.850  33.827   8.850
 6962POPC   C1A34335   2.007  33.796   8.550
 6962POPC   D2A34336   1.976  33.812   8.250
 6962POPC   C3A34337   1.958  33.792   7.950
 6962POPC   C4A34338   2.011  33.807   7.650
 6962POPC   C1B34339   1.743  33.747   8.550
 6962POPC   C2B34340   1.744  33.749   8.250
 6962POPC   C3B34341   1.701  33.743   7.950
 6962POPC   C4B34342   1.706  33.723   7.650
 6963POPC   NC334343  23.721  25.999   9.450
 6963POPC   PO434344  23.719  26.072   9.150
 6963POPC   GL134345  23.746  26.020   8.850
 6963POPC   GL234346  23.713  26.202   8.850
 6963POPC   C1A34347  23.702  26.015   8.550
 6963POPC   D2A34348  23.699  26.058   8.250
 6963POPC   C3A34349  23.709  26.037   7.950
 6963POPC   C4A34350  23.675  26.000   7.650
 6963POPC   C1B34351  23.754  26.264   8.550
 6963POPC   C2B34352  23.755  26.291   8.250
 6963POPC   C3B34353  23.751  26.326   7.950
 6963POPC   C4B34354  23.707  26.269   7.650
 6964POPC   NC334355  29.126  34.547   9.450
 6964POPC   PO434356  29.110  34.542   9.150
 6964POPC   GL134357  29.168  34.526   8.850
 6964POPC   GL234358  29.256  34.515   8.850
 6964POPC   C1A34359  29.114  34.619   8.550
 6964POPC   D2A34360  29.126  34.595   8.250
 6964POPC   C3A34361  29.096  34.601   7.950
 6964POPC   C4A34362  29.133  34.534   7.650
 6964POPC   C1B34363  29.429  34.528   8.550
 6964POPC   C2B34364  29.391  34.493   8.250
 6964POPC   C3B34365  29.400  34.517   7.950
 6964POPC   C4B34366  29.396  34.457   7.650
 6965POPC   NC334367  26.802  29.163   9.450
 6965POPC   PO434368  26.838  29.097   9.150
 6965POPC   GL134369  26.861  29.120   8.850
 6965POPC   GL234370  26.943  29.071   8.850
 6965POPC   C1A34371  26.784  29.110   8.550
 6965POPC   D2A34372  26.812  29.175   8.250
 6965POPC   C3A34373  26.798  29.174   7.950
 6965POPC   C4A34374  26.824  29.161   7.650
 6965POPC   C1B34375  27.077  29.040   8.550
 6965POPC   C2B34376  27.038  29.113   8.250
 6965POPC   C3B34377  27.051  29.063   7.950
 6965POPC   C4B34378  27.011  29.074   7.650
 6966POPC   NC334379   0.401  26.860   9.450
 6966POPC   PO434380   0.414  26.804   9.150
 6966POPC   GL134381   0.391  26.787   8.850
 6966POPC   GL234382   0.448  26.985   8.850
 6966POPC   C1A34383   0.431  26.827   8.550
 6966POPC   D2A34384   0.401  26.822   8.250
 6966POPC   C3A34385   0.394  26.850   7.950
 6966POPC   C4A34386   0.399  26.814   7.650
 6966POPC   C1B34387   0.372  27.042   8.550
 6966POPC   C2B34388   0.363  27.036   8.250
 6966POPC   C3B34389   0.453  27.062   7.950
 6966POPC   C4B34390   0.358  27.027   7.650
 6967POPC   NC334391  29.108  31.466   9.450
 6967POPC   PO434392  29.167  31.495   9.150
 6967POPC   GL134393  29.175  31.492   8.850
 6967POPC   GL234394  29.307  31.533   8.850
 6967POPC   C1A34395  29.189  31.512   8.550
 6967POPC   D2A34396  29.156  31.522   8.250
 6967POPC   C3A34397  29.114  31.512   7.950
 6967POPC   C4A34398  29.105  31.451   7.650
 6967POPC   C1B34399  29.341  31.483   8.550
 6967POPC   C2B34400  29.382  31.562   8.250
 6967POPC   C3B34401  29.352  31.566   7.950
 6967POPC   C4B34402  29.434  31.539   7.650
 6968POPC   NC334403  31.441  21.386   9.450
 6968POPC   PO434404  31.483  21.420   9.150
 6968POPC   GL134405  31.488  21.429   8.850
 6968POPC   GL234406  31.356  21.414   8.850
 6968POPC   C1A34407  31.437  21.340   8.550
 6968POPC   D2A34408  31.511  21.434   8.250
 6968POPC   C3A34409  31.509  21.392   7.950
 6968POPC   C4A34410  31.469  21.381   7.650
 6968POPC   C1B34411  31.203  21.490   8.550
 6968POPC   C2B34412  31.202  21.484   8.250
 6968POPC   C3B34413  31.214  21.472   7.950
 6968POPC   C4B34414  31.231  21.420   7.650
 6969POPC   NC334415  36.174   4.273   9.450
 6969POPC   PO434416  36.145   4.357   9.150
 6969POPC   GL134417  36.126   4.295   8.850
 6969POPC   GL234418  36.077   4.367   8.850
 6969POPC   C1A34419  36.141   4.278   8.550
 6969POPC   D2A34420  36.165   4.314   8.250
 6969POPC   C3A34421  36.095   4.335   7.950
 6969POPC   C4A34422  36.148   4.281   7.650
 6969POPC   C1B34423  36.015   4.516   8.550
 6969POPC   C2B34424  35.929   4.491   8.250
 6969POPC   C3B34425  35.938   4.522   7.950
 6969POPC   C4B34426  35.996   4.481   7.650
 6970POPC   NC334427  15.908   3.557   9.450
 6970POPC   PO434428  15.934   3.581   9.150
 6970POPC   GL134429  15.981   3.585   8.850
 6970POPC   GL234430  15.951   3.714   8.850
 6970POPC   C1A34431  15.965   3.527   8.550
 6970POPC   D2A34432  15.956   3.566   8.250
 6970POPC   C3A34433  15.975   3.575   7.950
 6970POPC   C4A34434  15.980   3.590   7.650
 6970POPC   C1B34435  16.003   3.812   8.550
 6970POPC   C2B34436  16.031   3.790   8.250
 6970POPC   C3B34437  16.003   3.769   7.950
 6970POPC   C4B34438  16.047   3.816   7.650
 6971POPC   NC334439  40.785   0.464   9.450
 6971POPC   PO434440  40.752   0.430   9.150
 6971POPC   GL134441  40.786   0.391   8.850
 6971POPC   GL234442  40.692   0.417   8.850
 6971POPC   C1A34443  40.814   0.435   8.550
 6971POPC   D2A34444  40.742   0.471   8.250
 6971POPC   C3A34445  40.772   0.449   7.950
 6971POPC   C4A34446  40.809   0.395   7.650
 6971POPC   C1B34447  40.543   0.325   8.550
 6971POPC   C2B34448  40.577   0.382   8.250
 6971POPC   C3B34449  40.535   0.359   7.950
 6971POPC   C4B34450  40.534   0.360   7.650
 6972POPC   NC334451  38.480   3.511   9.450
 6972POPC   PO434452  38.504   3.544   9.150
 6972POPC   GL134453  38.461   3.511   8.850
 6972POPC   GL234454  38.441   3.398   8.850
 6972POPC   C1A34455  38.469   3.524   8.550
 6972POPC   D2A34456  38.495   3.545   8.250
 6972POPC   C3A34457  38.416   3.529   7.950
 6972POPC   C4A34458  38.441   3.564   7.650
 6972POPC   C1B34459  38.459   3.275   8.550
 6972POPC   C2B34460  38.480   3.334   8.250
 6972POPC   C3B34461  38.477   3.300   7.950
 6972POPC   C4B34462  38.471   3.273   7.650
 6973POPC   NC334463   8.935  19.814   9.450
 6973POPC   PO434464   8.950  19.814   9.150
 6973POPC   GL134465   8.982  19.817   8.850
 6973POPC   GL234466   8.966  19.941   8.850
 6973POPC   C1A34467   8.998  19.846   8.550
 6973POPC   D2A34468   8.937  19.864   8.250
 6973POPC   C3A34469   8.958  19.811   7.950
 6973POPC   C4A34470   8.990  19.838   7.650
 6973POPC   C1B34471   8.871  20.040   8.550
 6973POPC   C2B34472   8.847  20.022   8.250
 6973POPC   C3B34473   8.927  20.110   7.950
 6973POPC   C4B34474   8.844  20.082   7.650
 6974POPC   NC334475   5.142  25.219   9.450
 6974POPC   PO434476   5.137  25.229   9.150
 6974POPC   GL134477   5.066  25.309   8.850
 6974POPC   GL234478   5.002  25.347   8.850
 6974POPC   C1A34479   5.122  25.275   8.550
 6974POPC   D2A34480   5.049  25.251   8.250
 6974POPC   C3A34481   5.072  25.300   7.950
 6974POPC   C4A34482   5.061  25.230   7.650
 6974POPC   C1B34483   4.907  25.413   8.550
 6974POPC   C2B34484   4.855  25.450   8.250
 6974POPC   C3B34485   4.886  25.393   7.950
 6974POPC   C4B34486   4.838  25.359   7.650
 6975POPC   NC334487   9.773  26.789   9.450
 6975POPC   PO434488   9.720  26.818   9.150
 6975POPC   GL134489   9.727  26.786   8.850
 6975POPC   GL234490   9.814  26.960   8.850
 6975POPC   C1A34491   9.708  26.814   8.550
 6975POPC   D2A34492   9.771  26.794   8.250
 6975POPC   C3A34493   9.742  26.816   7.950
 6975POPC   C4A34494   9.708  26.837   7.650
 6975POPC   C1B34495   9.904  27.012   8.550
 6975POPC   C2B34496   9.915  27.001   8.250
 6975POPC   C3B34497   9.914  27.053   7.950
 6975POPC   C4B34498   9.888  26.987   7.650
 6976POPC   NC334499  13.622   1.968   9.450
 6976POPC   PO434500  13.637   1.940   9.150
 6976POPC   GL134501  13.603   1.994   8.850
 6976POPC   GL234502  13.513   2.114   8.850
 6976POPC   C1A34503  13.667   2.013   8.550
 6976POPC   D2A34504  13.598   1.993   8.250
 6976POPC   C3A34505  13.624   1.967   7.950
 6976POPC   C4A34506  13.613   1.962   7.650
 6976POPC   C1B34507  13.512   2.233   8.550
 6976POPC   C2B34508  13.539   2.212   8.250
 6976POPC   C3B34509  13.470   2.237   7.950
 6976POPC   C4B34510  13.479   2.164   7.650
 6977POPC   NC334511  21.435  36.122   9.450
 6977POPC   PO434512  21.336  36.145   9.150
 6977POPC   GL134513  21.394  36.171   8.850
 6977POPC   GL234514  21.548  36.154   8.850
 6977POPC   C1A34515  21.378  36.176   8.550
 6977POPC   D2A34516  21.408  36.122   8.250
 6977POPC   C3A34517  21.391  36.142   7.950
 6977POPC   C4A34518  21.424  36.083   7.650
 6977POPC   C1B34519  21.659  36.208   8.550
 6977POPC   C2B34520  21.602  36.233   8.250
 6977POPC   C3B34521  21.601  36.198   7.950
 6977POPC   C4B34522  21.652  36.231   7.650
 6978POPC   NC334523  13.636  18.269   9.450
 6978POPC   PO434524  13.615  18.298   9.150
 6978POPC   GL134525  13.606  18.249   8.850
 6978POPC   GL234526  13.631  18.172   8.850
 6978POPC   C1A34527  13.626  18.268   8.550
 6978POPC   D2A34528  13.640  18.261   8.250
 6978POPC   C3A34529  13.585  18.261   7.950
 6978POPC   C4A34530  13.605  18.296   7.650
 6978POPC   C1B34531  13.699  18.063   8.550
 6978POPC   C2B34532  13.684  18.064   8.250
 6978POPC   C3B34533  13.704  18.046   7.950
 6978POPC   C4B34534  13.668  18.037   7.650
 6979POPC   NC334535   1.255  22.205   9.450
 6979POPC   PO434536   1.189  22.211   9.150
 6979POPC   GL134537   1.246  22.160   8.850
 6979POPC   GL234538   1.195  22.297   8.850
 6979POPC   C1A34539   1.172  22.188   8.550
 6979POPC   D2A34540   1.174  22.205   8.250
 6979POPC   C3A34541   1.210  22.146   7.950
 6979POPC   C4A34542   1.216  22.212   7.650
 6979POPC   C1B34543   1.254  22.430   8.550
 6979POPC   C2B34544   1.243  22.384   8.250
 6979POPC   C3B34545   1.233  22.384   7.950
 6979POPC   C4B34546   1.304  22.417   7.650
 6980POPC   NC334547  26.034  33.754   9.450
 6980POPC   PO434548  26.063  33.824   9.150
 6980POPC   GL134549  26.049  33.772   8.850
 6980POPC   GL234550  26.053  33.680   8.850
 6980POPC   C1A34551  26.063  33.767   8.550
 6980POPC   D2A34552  26.036  33.762   8.250
 6980POPC   C3A34553  26.072  33.775   7.950
 6980POPC   C4A34554  25.993  33.754   7.650
 6980POPC   C1B34555  26.065  33.565   8.550
 6980POPC   C2B34556  26.098  33.585   8.250
 6980POPC   C3B34557  26.099  33.590   7.950
 6980POPC   C4B34558  26.038  33.601   7.650
 6981POPC   NC334559  29.918  44.706   9.450
 6981POPC   PO434560  29.901  44.702   9.150
 6981POPC   GL134561  29.961  44.655   8.850
 6981POPC   GL234562  30.016  44.745   8.850
 6981POPC   C1A34563  29.889  44.686   8.550
 6981POPC   D2A34564  29.921  44.626   8.250
 6981POPC   C3A34565  29.912  44.641   7.950
 6981POPC   C4A34566  29.943  44.615   7.650
 6981POPC   C1B34567  30.196  44.790   8.550
 6981POPC   C2B34568  30.157  44.740   8.250
 6981POPC   C3B34569  30.131  44.771   7.950
 6981POPC   C4B34570  30.162  44.802   7.650
 6982POPC   NC334571  37.669   6.658   9.450
 6982POPC   PO434572  37.678   6.694   9.150
 6982POPC   GL134573  37.690   6.670   8.850
 6982POPC   GL234574  37.769   6.616   8.850
 6982POPC   C1A34575  37.679   6.607   8.550
 6982POPC   D2A34576  37.716   6.638   8.250
 6982POPC   C3A34577  37.702   6.645   7.950
 6982POPC   C4A34578  37.705   6.657   7.650
 6982POPC   C1B34579  37.922   6.533   8.550
 6982POPC   C2B34580  37.834   6.492   8.250
 6982POPC   C3B34581  37.898   6.475   7.950
 6982POPC   C4B34582  37.904   6.486   7.650
 6983POPC   NC334583  32.202  15.165   9.450
 6983POPC   PO434584  32.205  15.201   9.150
 6983POPC   GL134585  32.240  15.167   8.850
 6983POPC   GL234586  32.345  15.193   8.850
 6983POPC   C1A34587  32.219  15.171   8.550
 6983POPC   D2A34588  32.213  15.197   8.250
 6983POPC   C3A34589  32.219  15.190   7.950
 6983POPC   C4A34590  32.283  15.164   7.650
 6983POPC   C1B34591  32.489  15.301   8.550
 6983POPC   C2B34592  32.493  15.253   8.250
 6983POPC   C3B34593  32.459  15.255   7.950
 6983POPC   C4B34594  32.522  15.325   7.650
 6984POPC   NC334595  20.577  43.152   9.450
 6984POPC   PO434596  20.565  43.080   9.150
 6984POPC   GL134597  20.619  43.086   8.850
 6984POPC   GL234598  20.553  43.236   8.850
 6984POPC   C1A34599  20.632  43.066   8.550
 6984POPC   D2A34600  20.616  43.088   8.250
 6984POPC   C3A34601  20.622  43.138   7.950
 6984POPC   C4A34602  20.650  43.119   7.650
 6984POPC   C1B34603  20.372  43.253   8.550
 6984POPC   C2B34604  20.434  43.307   8.250
 6984POPC   C3B34605  20.379  43.250   7.950
 6984POPC   C4B34606  20.389  43.254   7.650
 6985POPC   NC334607  27.553  30.686   9.450
 6985POPC   PO434608  27.642  30.671   9.150
 6985POPC   GL134609  27.559  30.666   8.850
 6985POPC   GL234610  27.488  30.727   8.850
 6985POPC   C1A34611  27.579  30.650   8.550
 6985POPC   D2A34612  27.566  30.700   8.250
 6985POPC   C3A34613  27.608  30.740   7.950
 6985POPC   C4A34614  27.625  30.675   7.650
 6985POPC   C1B34615  27.391  30.811   8.550
 6985POPC   C2B34616  27.438  30.876   8.250
 6985POPC   C3B34617  27.352  30.810   7.950
 6985POPC   C4B34618  27.411  30.888   7.650
 6986POPC   NC334619  18.273  41.544   9.450
 6986POPC   PO434620  18.236  41.596   9.150
 6986POPC   GL134621  18.269  41.585   8.850
 6986POPC   GL234622  18.214  41.459   8.850
 6986POPC   C1A34623  18.287  41.543   8.550
 6986POPC   D2A34624  18.281  41.525   8.250
 6986POPC   C3A34625  18.308  41.539   7.950
 6986POPC   C4A34626  18.245  41.521   7.650
 6986POPC   C1B34627  18.130  41.377   8.550
 6986POPC   C2B34628  18.161  41.395   8.250
 6986POPC   C3B34629  18.109  41.367   7.950
 6986POPC   C4B34630  18.156  41.389   7.650
 6987POPC   NC334631  19.031   5.903   9.450
 6987POPC   PO434632  19.060   5.838   9.150
 6987POPC   GL134633  19.086   5.905   8.850
 6987POPC   GL234634  18.973   5.777   8.850
 6987POPC   C1A34635  19.103   5.906   8.550
 6987POPC   D2A34636  19.013   5.879   8.250
 6987POPC   C3A34637  19.021   5.845   7.950
 6987POPC   C4A34638  19.076   5.863   7.650
 6987POPC   C1B34639  18.936   5.698   8.550
 6987POPC   C2B34640  18.903   5.639   8.250
 6987POPC   C3B34641  18.853   5.673   7.950
 6987POPC   C4B34642  18.901   5.686   7.650
 6988POPC   NC334643   3.495  29.101   9.450
 6988POPC   PO434644   3.567  29.099   9.150
 6988POPC   GL134645   3.558  29.195   8.850
 6988POPC   GL234646   3.612  29.168   8.850
 6988POPC   C1A34647   3.532  29.126   8.550
 6988POPC   D2A34648   3.529  29.125   8.250
 6988POPC   C3A34649   3.580  29.103   7.950
 6988POPC   C4A34650   3.549  29.095   7.650
 6988POPC   C1B34651   3.711  29.315   8.550
 6988POPC   C2B34652   3.759  29.280   8.250
 6988POPC   C3B34653   3.782  29.243   7.950
 6988POPC   C4B34654   3.803  29.261   7.650
 6989POPC   NC334655   2.017   9.740   9.450
 6989POPC   PO434656   1.968   9.775   9.150
 6989POPC   GL134657   1.967   9.703   8.850
 6989POPC   GL234658   2.014   9.592   8.850
 6989POPC   C1A34659   1.967   9.751   8.550
 6989POPC   D2A34660   1.984   9.729   8.250
 6989POPC   C3A34661   2.018   9.757   7.950
 6989POPC   C4A34662   1.972   9.701   7.650
 6989POPC   C1B34663   1.933   9.493   8.550
 6989POPC   C2B34664   1.907   9.511   8.250
 6989POPC   C3B34665   1.952   9.505   7.950
 6989POPC   C4B34666   1.925   9.534   7.650
 6990POPC   NC334667  23.744  20.627   9.450
 6990POPC   PO434668  23.729  20.574   9.150
 6990POPC   GL134669  23.667  20.656   8.850
 6990POPC   GL234670  23.765  20.462   8.850
 6990POPC   C1A34671  23.665  20.610   8.550
 6990POPC   D2A34672  23.707  20.570   8.250
 6990POPC   C3A34673  23.751  20.654   7.950
 6990POPC   C4A34674  23.747  20.600   7.650
 6990POPC   C1B34675  23.784  20.392   8.550
 6990POPC   C2B34676  23.756  20.359   8.250
 6990POPC   C3B34677  23.823  20.411   7.950
 6990POPC   C4B34678  23.783  20.344   7.650
 6991POPC   NC334679  26.089  15.977   9.450
 6991POPC   PO434680  26.081  15.975   9.150
 6991POPC   GL134681  26.008  15.953   8.850
 6991POPC   GL234682  25.922  15.895   8.850
 6991POPC   C1A34683  26.079  15.970   8.550
 6991POPC   D2A34684  26.028  15.980   8.250
 6991POPC   C3A34685  26.062  15.950   7.950
 6991POPC   C4A34686  26.051  15.934   7.650
 6991POPC   C1B34687  25.920  15.767   8.550
 6991POPC   C2B34688  25.924  15.717   8.250
 6991POPC   C3B34689  25.870  15.757   7.950
 6991POPC   C4B34690  25.865  15.779   7.650
 6992POPC   NC334691  19.099  18.256   9.450
 6992POPC   PO434692  19.074  18.280   9.150
 6992POPC   GL134693  19.029  18.302   8.850
 6992POPC   GL234694  19.159  18.261   8.850
 6992POPC   C1A34695  19.099  18.289   8.550
 6992POPC   D2A34696  19.069  18.306   8.250
 6992POPC   C3A34697  19.034  18.312   7.950
 6992POPC   C4A34698  19.109  18.239   7.650
 6992POPC   C1B34699  19.280  18.140   8.550
 6992POPC   C2B34700  19.284  18.126   8.250
 6992POPC   C3B34701  19.276  18.172   7.950
 6992POPC   C4B34702  19.241  18.130   7.650
 6993POPC   NC334703   9.006   1.954   9.450
 6993POPC   PO434704   8.988   1.952   9.150
 6993POPC   GL134705   8.927   1.958   8.850
 6993POPC   GL234706   8.898   2.052   8.850
 6993POPC   C1A34707   8.927   2.038   8.550
 6993POPC   D2A34708   8.941   2.011   8.250
 6993POPC   C3A34709   8.939   2.038   7.950
 6993POPC   C4A34710   8.951   1.943   7.650
 6993POPC   C1B34711   8.728   2.101   8.550
 6993POPC   C2B34712   8.768   2.175   8.250
 6993POPC   C3B34713   8.751   2.115   7.950
 6993POPC   C4B34714   8.741   2.124   7.650
 6994POPC   NC334715  11.251   1.172   9.450
 6994POPC   PO434716  11.265   1.260   9.150
 6994POPC   GL134717  11.335   1.203   8.850
 6994POPC   GL234718  11.300   1.131   8.850
 6994POPC   C1A34719  11.283   1.221   8.550
 6994POPC   D2A34720  11.339   1.169   8.250
 6994POPC   C3A34721  11.290   1.255   7.950
 6994POPC   C4A34722  11.277   1.188   7.650
 6994POPC   C1B34723  11.340   0.977   8.550
 6994POPC   C2B34724  11.412   1.011   8.250
 6994POPC   C3B34725  11.405   0.939   7.950
 6994POPC   C4B34726  11.356   0.956   7.650
 6995POPC   NC334727   4.353  33.833   9.450
 6995POPC   PO434728   4.334  33.770   9.150
 6995POPC   GL134729   4.327  33.843   8.850
 6995POPC   GL234730   4.467  33.736   8.850
 6995POPC   C1A34731   4.309  33.785   8.550
 6995POPC   D2A34732   4.304  33.762   8.250
 6995POPC   C3A34733   4.268  33.848   7.950
 6995POPC   C4A34734   4.314  33.842   7.650
 6995POPC   C1B34735   4.497  33.607   8.550
 6995POPC   C2B34736   4.478  33.614   8.250
 6995POPC   C3B34737   4.527  33.630   7.950
 6995POPC   C4B34738   4.485  33.644   7.650
 6996POPC   NC334739  10.504  41.590   9.450
 6996POPC   PO434740  10.483  41.603   9.150
 6996POPC   GL134741  10.573  41.600   8.850
 6996POPC   GL234742  10.672  41.583   8.850
 6996POPC   C1A34743  10.552  41.576   8.550
 6996POPC   D2A34744  10.570  41.592   8.250
 6996POPC   C3A34745  10.496  41.553   7.950
 6996POPC   C4A34746  10.509  41.521   7.650
 6996POPC   C1B34747  10.759  41.683   8.550
 6996POPC   C2B34748  10.700  41.635   8.250
 6996POPC   C3B34749  10.698  41.719   7.950
 6996POPC   C4B34750  10.739  41.726   7.650
 6997POPC   NC334751  29.892   8.985   9.450
 6997POPC   PO434752  29.891   8.926   9.150
 6997POPC   GL134753  29.902   9.012   8.850
 6997POPC   GL234754  29.794   9.054   8.850
 6997POPC   C1A34755  29.962   8.972   8.550
 6997POPC   D2A34756  29.886   8.977   8.250
 6997POPC   C3A34757  29.879   8.937   7.950
 6997POPC   C4A34758  29.952   9.012   7.650
 6997POPC   C1B34759  29.708   9.000   8.550
 6997POPC   C2B34760  29.707   9.068   8.250
 6997POPC   C3B34761  29.720   9.046   7.950
 6997POPC   C4B34762  29.690   9.053   7.650
 6998POPC   NC334763   0.397  13.632   9.450
 6998POPC   PO434764   0.485  13.589   9.150
 6998POPC   GL134765   0.418  13.581   8.850
 6998POPC   GL234766   0.574  13.561   8.850
 6998POPC   C1A34767   0.401  13.623   8.550
 6998POPC   D2A34768   0.430  13.645   8.250
 6998POPC   C3A34769   0.456  13.637   7.950
 6998POPC   C4A34770   0.457  13.633   7.650
 6998POPC   C1B34771   0.696  13.598   8.550
 6998POPC   C2B34772   0.677  13.537   8.250
 6998POPC   C3B34773   0.665  13.518   7.950
 6998POPC   C4B34774   0.725  13.601   7.650
 6999POPC   NC334775  44.659  31.473   9.450
 6999POPC   PO434776  44.659  31.426   9.150
 6999POPC   GL134777  44.693  31.472   8.850
 6999POPC   GL234778  44.691  31.632   8.850
 6999POPC   C1A34779  44.671  31.521   8.550
 6999POPC   D2A34780  44.701  31.510   8.250
 6999POPC   C3A34781  44.649  31.425   7.950
 6999POPC   C4A34782  44.612  31.503   7.650
 6999POPC   C1B34783  44.710  31.749   8.550
 6999POPC   C2B34784  44.679  31.757   8.250
 6999POPC   C3B34785  44.736  31.701   7.950
 6999POPC   C4B34786  44.743  31.751   7.650
 7000POPC   NC334787   0.393  29.143   9.450
 7000POPC   PO434788   0.408  29.132   9.150
 7000POPC   GL134789   0.445  29.106   8.850
 7000POPC   GL234790   0.279  29.180   8.850
 7000POPC   C1A34791   0.389  29.148   8.550
 7000POPC   D2A34792   0.436  29.099   8.250
 7000POPC   C3A34793   0.465  29.109   7.950
 7000POPC   C4A34794   0.487  29.161   7.650
 7000POPC   C1B34795   0.169  29.165   8.550
 7000POPC   C2B34796   0.194  29.205   8.250
 7000POPC   C3B34797   0.159  29.165   7.950
 7000POPC   C4B34798   0.161  29.140   7.650
 7001POPC   NC334799   7.400  32.994   9.450
 7001POPC   PO434800   7.456  32.985   9.150
 7001POPC   GL134801   7.468  33.018   8.850
 7001POPC   GL234802   7.389  32.888   8.850
 7001POPC   C1A34803   7.390  33.003   8.550
 7001POPC   D2A34804   7.450  32.978   8.250
 7001POPC   C3A34805   7.435  33.017   7.950
 7001POPC   C4A34806   7.455  33.037   7.650
 7001POPC   C1B34807   7.233  32.843   8.550
 7001POPC   C2B34808   7.242  32.840   8.250
 7001POPC   C3B34809   7.288  32.804   7.950
 7001POPC   C4B34810   7.237  32.841   7.650
 7002POPC   NC334811  41.521  29.913   9.450
 7002POPC   PO434812  41.526  29.947   9.150
 7002POPC   GL134813  41.541  29.922   8.850
 7002POPC   GL234814  41.388  29.940   8.850
 7002POPC   C1A34815  41.512  29.886   8.550
 7002POPC   D2A34816  41.564  29.970   8.250
 7002POPC   C3A34817  41.568  29.902   7.950
 7002POPC   C4A34818  41.562  29.883   7.650
 7002POPC   C1B34819  41.269  29.908   8.550
 7002POPC   C2B34820  41.332  29.955   8.250
 7002POPC   C3B34821  41.269  29.908   7.950
 7002POPC   C4B34822  41.279  29.948   7.650
 7003POPC   NC334823  40.802  14.453   9.450
 7003POPC   PO434824  40.829  14.421   9.150
 7003POPC   GL134825  40.795  14.450   8.850
 7003POPC   GL234826  40.729  14.321   8.850
 7003POPC   C1A34827  40.789  14.439   8.550
 7003POPC   D2A34828  40.760  14.417   8.250
 7003POPC   C3A34829  40.811  14.450   7.950
 7003POPC   C4A34830  40.789  14.389   7.650
 7003POPC   C1B34831  40.737  14.177   8.550
 7003POPC   C2B34832  40.736  14.115   8.250
 7003POPC   C3B34833  40.754  14.185   7.950
 7003POPC   C4B34834  40.670  14.165   7.650
 7004POPC   NC334835  32.241  21.389   9.450
 7004POPC   PO434836  32.286  21.399   9.150
 7004POPC   GL134837  32.211  21.422   8.850
 7004POPC   GL234838  32.262  21.503   8.850
 7004POPC   C1A34839  32.253  21.351   8.550
 7004POPC   D2A34840  32.260  21.372   8.250
 7004POPC   C3A34841  32.212  21.346   7.950
 7004POPC   C4A34842  32.226  21.367   7.650
 7004POPC   C1B34843  32.259  21.624   8.550
 7004POPC   C2B34844  32.251  21.655   8.250
 7004POPC   C3B34845  32.321  21.665   7.950
 7004POPC   C4B34846  32.290  21.659   7.650
 7005POPC   NC334847  35.347   2.741   9.450
 7005POPC   PO434848  35.337   2.732   9.150
 7005POPC   GL134849  35.315   2.794   8.850
 7005POPC   GL234850  35.270   2.729   8.850
 7005POPC   C1A34851  35.382   2.814   8.550
 7005POPC   D2A34852  35.364   2.722   8.250
 7005POPC   C3A34853  35.358   2.730   7.950
 7005POPC   C4A34854  35.380   2.784   7.650
 7005POPC   C1B34855  35.073   2.747   8.550
 7005POPC   C2B34856  35.125   2.714   8.250
 7005POPC   C3B34857  35.103   2.672   7.950
 7005POPC   C4B34858  35.119   2.675   7.650
 7006POPC   NC334859  22.929  34.613   9.450
 7006POPC   PO434860  22.929  34.563   9.150
 7006POPC   GL134861  22.983  34.563   8.850
 7006POPC   GL234862  22.963  34.470   8.850
 7006POPC   C1A34863  22.964  34.624   8.550
 7006POPC   D2A34864  22.899  34.536   8.250
 7006POPC   C3A34865  22.895  34.592   7.950
 7006POPC   C4A34866  22.888  34.550   7.650
 7006POPC   C1B34867  22.905  34.337   8.550
 7006POPC   C2B34868  22.962  34.284   8.250
 7006POPC   C3B34869  22.912  34.311   7.950
 7006POPC   C4B34870  22.953  34.350   7.650
 7007POPC   NC334871  39.206   0.421   9.450
 7007POPC   PO434872  39.248   0.410   9.150
 7007POPC   GL134873  39.256   0.424   8.850
 7007POPC   GL234874  39.219   0.582   8.850
 7007POPC   C1A34875  39.263   0.398   8.550
 7007POPC   D2A34876  39.255   0.405   8.250
 7007POPC   C3A34877  39.259   0.434   7.950
 7007POPC   C4A34878  39.241   0.478   7.650
 7007POPC   C1B34879  39.125   0.654   8.550
 7007POPC   C2B34880  39.161   0.696   8.250
 7007POPC   C3B34881  39.142   0.692   7.950
 7007POPC   C4B34882  39.155   0.653   7.650
 7008POPC   NC334883  40.763  43.061   9.450
 7008POPC   PO434884  40.782  43.131   9.150
 7008POPC   GL134885  40.761  43.106   8.850
 7008POPC   GL234886  40.906  43.046   8.850
 7008POPC   C1A34887  40.799  43.140   8.550
 7008POPC   D2A34888  40.759  43.074   8.250
 7008POPC   C3A34889  40.788  43.119   7.950
 7008POPC   C4A34890  40.829  43.086   7.650
 7008POPC   C1B34891  41.028  43.013   8.550
 7008POPC   C2B34892  40.999  43.058   8.250
 7008POPC   C3B34893  41.013  43.023   7.950
 7008POPC   C4B34894  41.028  42.998   7.650
 7009POPC   NC334895   1.211  21.383   9.450
 7009POPC   PO434896   1.223  21.375   9.150
 7009POPC   GL134897   1.208  21.382   8.850
 7009POPC   GL234898   1.131  21.532   8.850
 7009POPC   C1A34899   1.242  21.367   8.550
 7009POPC   D2A34900   1.198  21.409   8.250
 7009POPC   C3A34901   1.243  21.353   7.950
 7009POPC   C4A34902   1.215  21.397   7.650
 7009POPC   C1B34903   1.103  21.581   8.550
 7009POPC   C2B34904   1.098  21.644   8.250
 7009POPC   C3B34905   1.071  21.599   7.950
 7009POPC   C4B34906   1.069  21.565   7.650
 7010POPC   NC334907  16.739  43.114   9.450
 7010POPC   PO434908  16.715  43.141   9.150
 7010POPC   GL134909  16.685  43.073   8.850
 7010POPC   GL234910  16.799  42.950   8.850
 7010POPC   C1A34911  16.703  43.124   8.550
 7010POPC   D2A34912  16.776  43.091   8.250
 7010POPC   C3A34913  16.683  43.091   7.950
 7010POPC   C4A34914  16.713  43.132   7.650
 7010POPC   C1B34915  16.833  42.890   8.550
 7010POPC   C2B34916  16.772  42.893   8.250
 7010POPC   C3B34917  16.826  42.830   7.950
 7010POPC   C4B34918  16.773  42.914   7.650
 7011POPC   NC334919  38.449  19.071   9.450
 7011POPC   PO434920  38.440  19.023   9.150
 7011POPC   GL134921  38.462  19.010   8.850
 7011POPC   GL234922  38.578  19.042   8.850
 7011POPC   C1A34923  38.417  19.093   8.550
 7011POPC   D2A34924  38.497  19.104   8.250
 7011POPC   C3A34925  38.446  19.073   7.950
 7011POPC   C4A34926  38.484  19.027   7.650
 7011POPC   C1B34927  38.697  19.082   8.550
 7011POPC   C2B34928  38.683  19.057   8.250
 7011POPC   C3B34929  38.729  19.093   7.950
 7011POPC   C4B34930  38.689  19.052   7.650
 7012POPC   NC334931   1.997  35.312   9.450
 7012POPC   PO434932   1.943  35.306   9.150
 7012POPC   GL134933   2.002  35.313   8.850
 7012POPC   GL234934   1.829  35.298   8.850
 7012POPC   C1A34935   1.963  35.320   8.550
 7012POPC   D2A34936   1.964  35.368   8.250
 7012POPC   C3A34937   1.966  35.340   7.950
 7012POPC   C4A34938   2.006  35.307   7.650
 7012POPC   C1B34939   1.736  35.288   8.550
 7012POPC   C2B34940   1.727  35.332   8.250
 7012POPC   C3B34941   1.756  35.275   7.950
 7012POPC   C4B34942   1.745  35.326   7.650
 7013POPC   NC334943  18.312  39.185   9.450
 7013POPC   PO434944  18.272  39.270   9.150
 7013POPC   GL134945  18.236  39.201   8.850
 7013POPC   GL234946  18.372  39.200   8.850
 7013POPC   C1A34947  18.287  39.239   8.550
 7013POPC   D2A34948  18.255  39.250   8.250
 7013POPC   C3A34949  18.314  39.202   7.950
 7013POPC   C4A34950  18.332  39.245   7.650
 7013POPC   C1B34951  18.504  39.181   8.550
 7013POPC   C2B34952  18.529  39.200   8.250
 7013POPC   C3B34953  18.509  39.130   7.950
 7013POPC   C4B34954  18.523  39.128   7.650
 7014POPC   NC334955  31.471   2.017   9.450
 7014POPC   PO434956  31.453   1.959   9.150
 7014POPC   GL134957  31.451   2.033   8.850
 7014POPC   GL234958  31.551   2.142   8.850
 7014POPC   C1A34959  31.505   1.972   8.550
 7014POPC   D2A34960  31.482   2.011   8.250
 7014POPC   C3A34961  31.509   1.958   7.950
 7014POPC   C4A34962  31.441   1.945   7.650
 7014POPC   C1B34963  31.599   2.234   8.550
 7014POPC   C2B34964  31.605   2.218   8.250
 7014POPC   C3B34965  31.536   2.234   7.950
 7014POPC   C4B34966  31.548   2.263   7.650
 7015POPC   NC334967   8.956   2.767   9.450
 7015POPC   PO434968   8.980   2.811   9.150
 7015POPC   GL134969   9.004   2.798   8.850
 7015POPC   GL234970   9.075   2.883   8.850
 7015POPC   C1A34971   8.925   2.791   8.550
 7015POPC   D2A34972   9.004   2.751   8.250
 7015POPC   C3A34973   8.956   2.763   7.950
 7015POPC   C4A34974   9.009   2.811   7.650
 7015POPC   C1B34975   9.184   2.984   8.550
 7015POPC   C2B34976   9.159   2.941   8.250
 7015POPC   C3B34977   9.187   2.933   7.950
 7015POPC   C4B34978   9.165   2.987   7.650
 7016POPC   NC334979   9.723  20.629   9.450
 7016POPC   PO434980   9.782  20.638   9.150
 7016POPC   GL134981   9.707  20.604   8.850
 7016POPC   GL234982   9.574  20.625   8.850
 7016POPC   C1A34983   9.743  20.648   8.550
 7016POPC   D2A34984   9.756  20.584   8.250
 7016POPC   C3A34985   9.702  20.617   7.950
 7016POPC   C4A34986   9.739  20.622   7.650
 7016POPC   C1B34987   9.466  20.638   8.550
 7016POPC   C2B34988   9.525  20.619   8.250
 7016POPC   C3B34989   9.507  20.604   7.950
 7016POPC   C4B34990   9.497  20.554   7.650
 7017POPC   NC334991   8.151  36.884   9.450
 7017POPC   PO434992   8.222  36.953   9.150
 7017POPC   GL134993   8.246  36.907   8.850
 7017POPC   GL234994   8.209  37.057   8.850
 7017POPC   C1A34995   8.164  36.927   8.550
 7017POPC   D2A34996   8.240  36.865   8.250
 7017POPC   C3A34997   8.187  36.884   7.950
 7017POPC   C4A34998   8.203  36.873   7.650
 7017POPC   C1B34999   8.339  37.090   8.550
 7017POPC   C2B35000   8.266  37.100   8.250
 7017POPC   C3B35001   8.329  37.160   7.950
 7017POPC   C4B35002   8.259  37.130   7.650
 7018POPC   NC335003   5.841  18.262   9.450
 7018POPC   PO435004   5.880  18.312   9.150
 7018POPC   GL135005   5.840  18.237   8.850
 7018POPC   GL235006   5.774  18.326   8.850
 7018POPC   C1A35007   5.837  18.318   8.550
 7018POPC   D2A35008   5.831  18.314   8.250
 7018POPC   C3A35009   5.834  18.261   7.950
 7018POPC   C4A35010   5.824  18.243   7.650
 7018POPC   C1B35011   5.626  18.421   8.550
 7018POPC   C2B35012   5.618  18.415   8.250
 7018POPC   C3B35013   5.672  18.367   7.950
 7018POPC   C4B35014   5.613  18.439   7.650
 7019POPC   NC335015  42.317  18.279   9.450
 7019POPC   PO435016  42.297  18.318   9.150
 7019POPC   GL135017  42.377  18.282   8.850
 7019POPC   GL235018  42.343  18.119   8.850
 7019POPC   C1A35019  42.366  18.330   8.550
 7019POPC   D2A35020  42.354  18.285   8.250
 7019POPC   C3A35021  42.348  18.299   7.950
 7019POPC   C4A35022  42.349  18.249   7.650
 7019POPC   C1B35023  42.356  17.988   8.550
 7019POPC   C2B35024  42.307  17.996   8.250
 7019POPC   C3B35025  42.332  18.068   7.950
 7019POPC   C4B35026  42.334  18.069   7.650
 7020POPC   NC335027  37.690  26.821   9.450
 7020POPC   PO435028  37.678  26.781   9.150
 7020POPC   GL135029  37.699  26.790   8.850
 7020POPC   GL235030  37.549  26.875   8.850
 7020POPC   C1A35031  37.702  26.823   8.550
 7020POPC   D2A35032  37.692  26.807   8.250
 7020POPC   C3A35033  37.662  26.862   7.950
 7020POPC   C4A35034  37.701  26.849   7.650
 7020POPC   C1B35035  37.496  26.979   8.550
 7020POPC   C2B35036  37.547  27.033   8.250
 7020POPC   C3B35037  37.525  27.013   7.950
 7020POPC   C4B35038  37.540  26.952   7.650
 7021POPC   NC335039   8.180   8.928   9.450
 7021POPC   PO435040   8.160   8.995   9.150
 7021POPC   GL135041   8.194   9.015   8.850
 7021POPC   GL235042   8.192   9.098   8.850
 7021POPC   C1A35043   8.162   8.953   8.550
 7021POPC   D2A35044   8.202   8.952   8.250
 7021POPC   C3A35045   8.190   8.978   7.950
 7021POPC   C4A35046   8.154   8.993   7.650
 7021POPC   C1B35047   8.253   9.238   8.550
 7021POPC   C2B35048   8.212   9.254   8.250
 7021POPC   C3B35049   8.227   9.270   7.950
 7021POPC   C4B35050   8.249   9.261   7.650
 7022POPC   NC335051   7.454   1.948   9.450
 7022POPC   PO435052   7.469   2.039   9.150
 7022POPC   GL135053   7.454   1.962   8.850
 7022POPC   GL235054   7.463   1.910   8.850
 7022POPC   C1A35055   7.380   1.981   8.550
 7022POPC   D2A35056   7.421   1.947   8.250
 7022POPC   C3A35057   7.460   1.954   7.950
 7022POPC   C4A35058   7.451   1.970   7.650
 7022POPC   C1B35059   7.463   1.794   8.550
 7022POPC   C2B35060   7.535   1.765   8.250
 7022POPC   C3B35061   7.493   1.718   7.950
 7022POPC   C4B35062   7.501   1.712   7.650
 7023POPC   NC335063  15.156  11.346   9.450
 7023POPC   PO435064  15.137  11.321   9.150
 7023POPC   GL135065  15.209  11.343   8.850
 7023POPC   GL235066  15.288  11.264   8.850
 7023POPC   C1A35067  15.166  11.334   8.550
 7023POPC   D2A35068  15.175  11.296   8.250
 7023POPC   C3A35069  15.220  11.281   7.950
 7023POPC   C4A35070  15.169  11.347   7.650
 7023POPC   C1B35071  15.410  11.259   8.550
 7023POPC   C2B35072  15.432  11.220   8.250
 7023POPC   C3B35073  15.432  11.268   7.950
 7023POPC   C4B35074  15.435  11.282   7.650
 7024POPC   NC335075   1.178  20.616   9.450
 7024POPC   PO435076   1.247  20.655   9.150
 7024POPC   GL135077   1.201  20.654   8.850
 7024POPC   GL235078   1.151  20.750   8.850
 7024POPC   C1A35079   1.178  20.645   8.550
 7024POPC   D2A35080   1.169  20.586   8.250
 7024POPC   C3A35081   1.239  20.582   7.950
 7024POPC   C4A35082   1.239  20.653   7.650
 7024POPC   C1B35083   1.058  20.835   8.550
 7024POPC   C2B35084   1.024  20.795   8.250
 7024POPC   C3B35085   1.029  20.847   7.950
 7024POPC   C4B35086   1.049  20.775   7.650
 7025POPC   NC335087  22.905  43.915   9.450
 7025POPC   PO435088  22.891  43.845   9.150
 7025POPC   GL135089  22.947  43.919   8.850
 7025POPC   GL235090  22.956  43.983   8.850
 7025POPC   C1A35091  22.908  43.919   8.550
 7025POPC   D2A35092  22.890  43.923   8.250
 7025POPC   C3A35093  22.986  43.875   7.950
 7025POPC   C4A35094  22.934  43.877   7.650
 7025POPC   C1B35095  23.024  44.136   8.550
 7025POPC   C2B35096  23.011  44.091   8.250
 7025POPC   C3B35097  23.024  44.107   7.950
 7025POPC   C4B35098  22.949  44.142   7.650
 7026POPC   NC335099   8.165  24.517   9.450
 7026POPC   PO435100   8.182  24.491   9.150
 7026POPC   GL135101   8.213  24.513   8.850
 7026POPC   GL235102   8.057  24.436   8.850
 7026POPC   C1A35103   8.173  24.472   8.550
 7026POPC   D2A35104   8.223  24.529   8.250
 7026POPC   C3A35105   8.167  24.523   7.950
 7026POPC   C4A35106   8.170  24.467   7.650
 7026POPC   C1B35107   7.950  24.361   8.550
 7026POPC   C2B35108   7.953  24.347   8.250
 7026POPC   C3B35109   7.988  24.406   7.950
 7026POPC   C4B35110   7.998  24.386   7.650
 7027POPC   NC335111  35.306  41.607   9.450
 7027POPC   PO435112  35.340  41.510   9.150
 7027POPC   GL135113  35.396  41.587   8.850
 7027POPC   GL235114  35.446  41.582   8.850
 7027POPC   C1A35115  35.313  41.526   8.550
 7027POPC   D2A35116  35.353  41.590   8.250
 7027POPC   C3A35117  35.396  41.554   7.950
 7027POPC   C4A35118  35.385  41.514   7.650
 7027POPC   C1B35119  35.609  41.588   8.550
 7027POPC   C2B35120  35.640  41.510   8.250
 7027POPC   C3B35121  35.615  41.507   7.950
 7027POPC   C4B35122  35.624  41.592   7.650
 7028POPC   NC335123  42.325  43.155   9.450
 7028POPC   PO435124  42.369  43.073   9.150
 7028POPC   GL135125  42.317  43.075   8.850
 7028POPC   GL235126  42.316  42.992   8.850
 7028POPC   C1A35127  42.288  43.147   8.550
 7028POPC   D2A35128  42.298  43.154   8.250
 7028POPC   C3A35129  42.384  43.085   7.950
 7028POPC   C4A35130  42.322  43.133   7.650
 7028POPC   C1B35131  42.354  42.896   8.550
 7028POPC   C2B35132  42.363  42.827   8.250
 7028POPC   C3B35133  42.400  42.895   7.950
 7028POPC   C4B35134  42.438  42.823   7.650
 7029POPC   NC335135   5.918  22.201   9.450
 7029POPC   PO435136   5.883  22.115   9.150
 7029POPC   GL135137   5.890  22.188   8.850
 7029POPC   GL235138   5.790  22.035   8.850
 7029POPC   C1A35139   5.839  22.132   8.550
 7029POPC   D2A35140   5.860  22.189   8.250
 7029POPC   C3A35141   5.877  22.139   7.950
 7029POPC   C4A35142   5.854  22.113   7.650
 7029POPC   C1B35143   5.666  22.028   8.550
 7029POPC   C2B35144   5.733  22.008   8.250
 7029POPC   C3B35145   5.691  21.957   7.950
 7029POPC   C4B35146   5.686  21.947   7.650
 7030POPC   NC335147  33.780  26.792   9.450
 7030POPC   PO435148  33.816  26.818   9.150
 7030POPC   GL135149  33.766  26.817   8.850
 7030POPC   GL235150  33.802  26.942   8.850
 7030POPC   C1A35151  33.822  26.851   8.550
 7030POPC   D2A35152  33.788  26.830   8.250
 7030POPC   C3A35153  33.755  26.809   7.950
 7030POPC   C4A35154  33.837  26.776   7.650
 7030POPC   C1B35155  33.715  27.016   8.550
 7030POPC   C2B35156  33.761  27.014   8.250
 7030POPC   C3B35157  33.794  27.077   7.950
 7030POPC   C4B35158  33.704  27.025   7.650
 7031POPC   NC335159   5.094  10.548   9.450
 7031POPC   PO435160   5.075  10.488   9.150
 7031POPC   GL135161   5.125  10.516   8.850
 7031POPC   GL235162   5.119  10.399   8.850
 7031POPC   C1A35163   5.101  10.515   8.550
 7031POPC   D2A35164   5.133  10.488   8.250
 7031POPC   C3A35165   5.134  10.496   7.950
 7031POPC   C4A35166   5.125  10.548   7.650
 7031POPC   C1B35167   5.159  10.313   8.550
 7031POPC   C2B35168   5.099  10.304   8.250
 7031POPC   C3B35169   5.142  10.258   7.950
 7031POPC   C4B35170   5.114  10.319   7.650
 7032POPC   NC335171  29.918  29.894   9.450
 7032POPC   PO435172  29.902  29.951   9.150
 7032POPC   GL135173  29.943  29.894   8.850
 7032POPC   GL235174  29.991  30.022   8.850
 7032POPC   C1A35175  29.910  29.918   8.550
 7032POPC   D2A35176  29.960  29.960   8.250
 7032POPC   C3A35177  29.911  29.926   7.950
 7032POPC   C4A35178  29.943  29.942   7.650
 7032POPC   C1B35179  29.953  30.213   8.550
 7032POPC   C2B35180  29.936  30.175   8.250
 7032POPC   C3B35181  29.926  30.183   7.950
 7032POPC   C4B35182  29.980  30.123   7.650
 7033POPC   NC335183  43.913   2.012   9.450
 7033POPC   PO435184  43.867   1.980   9.150
 7033POPC   GL135185  43.896   1.943   8.850
 7033POPC   GL235186  43.956   1.959   8.850
 7033POPC   C1A35187  43.914   1.973   8.550
 7033POPC   D2A35188  43.855   2.030   8.250
 7033POPC   C3A35189  43.920   1.949   7.950
 7033POPC   C4A35190  43.852   1.989   7.650
 7033POPC   C1B35191  44.061   1.848   8.550
 7033POPC   C2B35192  44.112   1.857   8.250
 7033POPC   C3B35193  44.093   1.879   7.950
 7033POPC   C4B35194  44.102   1.889   7.650
 7034POPC   NC335195  44.670  21.400   9.450
 7034POPC   PO435196  44.666  21.419   9.150
 7034POPC   GL135197  44.693  21.416   8.850
 7034POPC   GL235198  44.712  21.462   8.850
 7034POPC   C1A35199  44.656  21.391   8.550
 7034POPC   D2A35200  44.698  21.345   8.250
 7034POPC   C3A35201  44.684  21.338   7.950
 7034POPC   C4A35202  44.670  21.372   7.650
 7034POPC   C1B35203  44.689  21.614   8.550
 7034POPC   C2B35204  44.731  21.638   8.250
 7034POPC   C3B35205  44.734  21.673   7.950
 7034POPC   C4B35206  44.718  21.610   7.650
 7035POPC   NC335207  44.644  13.578   9.450
 7035POPC   PO435208  44.656  13.620   9.150
 7035POPC   GL135209  44.657  13.600   8.850
 7035POPC   GL235210  44.686  13.518   8.850
 7035POPC   C1A35211  44.666  13.623   8.550
 7035POPC   D2A35212  44.650  13.670   8.250
 7035POPC   C3A35213  44.694  13.597   7.950
 7035POPC   C4A35214  44.697  13.638   7.650
 7035POPC   C1B35215  44.688  13.375   8.550
 7035POPC   C2B35216  44.685  13.379   8.250
 7035POPC   C3B35217  44.669  13.365   7.950
 7035POPC   C4B35218  44.688  13.419   7.650
 7036POPC   NC335219  27.603   5.846   9.450
 7036POPC   PO435220  27.614   5.847   9.150
 7036POPC   GL135221  27.550   5.912   8.850
 7036POPC   GL235222  27.516   5.889   8.850
 7036POPC   C1A35223  27.558   5.829   8.550
 7036POPC   D2A35224  27.643   5.869   8.250
 7036POPC   C3A35225  27.556   5.904   7.950
 7036POPC   C4A35226  27.575   5.894   7.650
 7036POPC   C1B35227  27.395   6.013   8.550
 7036POPC   C2B35228  27.415   6.021   8.250
 7036POPC   C3B35229  27.399   6.003   7.950
 7036POPC   C4B35230  27.386   5.950   7.650
 7037POPC   NC335231   4.362  43.862   9.450
 7037POPC   PO435232   4.280  43.856   9.150
 7037POPC   GL135233   4.287  43.849   8.850
 7037POPC   GL235234   4.476  43.888   8.850
 7037POPC   C1A35235   4.357  43.914   8.550
 7037POPC   D2A35236   4.312  43.842   8.250
 7037POPC   C3A35237   4.268  43.921   7.950
 7037POPC   C4A35238   4.290  43.917   7.650
 7037POPC   C1B35239   4.577  43.889   8.550
 7037POPC   C2B35240   4.587  43.938   8.250
 7037POPC   C3B35241   4.540  43.868   7.950
 7037POPC   C4B35242   4.584  43.958   7.650
 7038POPC   NC335243  35.361  39.259   9.450
 7038POPC   PO435244  35.312  39.211   9.150
 7038POPC   GL135245  35.356  39.254   8.850
 7038POPC   GL235246  35.225  39.331   8.850
 7038POPC   C1A35247  35.378  39.223   8.550
 7038POPC   D2A35248  35.320  39.242   8.250
 7038POPC   C3A35249  35.331  39.226   7.950
 7038POPC   C4A35250  35.336  39.280   7.650
 7038POPC   C1B35251  35.163  39.356   8.550
 7038POPC   C2B35252  35.175  39.311   8.250
 7038POPC   C3B35253  35.131  39.317   7.950
 7038POPC   C4B35254  35.147  39.387   7.650
 7039POPC   NC335255  22.926  24.447   9.450
 7039POPC   PO435256  22.921  24.500   9.150
 7039POPC   GL135257  22.933  24.537   8.850
 7039POPC   GL235258  22.846  24.561   8.850
 7039POPC   C1A35259  22.948  24.516   8.550
 7039POPC   D2A35260  22.949  24.467   8.250
 7039POPC   C3A35261  22.977  24.468   7.950
 7039POPC   C4A35262  22.941  24.451   7.650
 7039POPC   C1B35263  22.858  24.659   8.550
 7039POPC   C2B35264  22.796  24.674   8.250
 7039POPC   C3B35265  22.786  24.734   7.950
 7039POPC   C4B35266  22.837  24.665   7.650
 7040POPC   NC335267   8.242  23.735   9.450
 7040POPC   PO435268   8.215  23.725   9.150
 7040POPC   GL135269   8.208  23.678   8.850
 7040POPC   GL235270   8.120  23.763   8.850
 7040POPC   C1A35271   8.186  23.763   8.550
 7040POPC   D2A35272   8.243  23.737   8.250
 7040POPC   C3A35273   8.216  23.738   7.950
 7040POPC   C4A35274   8.200  23.688   7.650
 7040POPC   C1B35275   8.033  23.814   8.550
 7040POPC   C2B35276   8.028  23.845   8.250
 7040POPC   C3B35277   8.012  23.817   7.950
 7040POPC   C4B35278   8.036  23.862   7.650
 7041POPC   NC335279   4.307  10.550   9.450
 7041POPC   PO435280   4.341  10.506   9.150
 7041POPC   GL135281   4.345  10.549   8.850
 7041POPC   GL235282   4.372  10.392   8.850
 7041POPC   C1A35283   4.295  10.499   8.550
 7041POPC   D2A35284   4.328  10.510   8.250
 7041POPC   C3A35285   4.319  10.478   7.950
 7041POPC   C4A35286   4.337  10.518   7.650
 7041POPC   C1B35287   4.361  10.315   8.550
 7041POPC   C2B35288   4.423  10.244   8.250
 7041POPC   C3B35289   4.434  10.335   7.950
 7041POPC   C4B35290   4.364  10.327   7.650
 7042POPC   NC335291   3.590  12.847   9.450
 7042POPC   PO435292   3.496  12.847   9.150
 7042POPC   GL135293   3.537  12.858   8.850
 7042POPC   GL235294   3.602  12.904   8.850
 7042POPC   C1A35295   3.518  12.858   8.550
 7042POPC   D2A35296   3.508  12.821   8.250
 7042POPC   C3A35297   3.562  12.879   7.950
 7042POPC   C4A35298   3.519  12.862   7.650
 7042POPC   C1B35299   3.671  13.096   8.550
 7042POPC   C2B35300   3.667  13.013   8.250
 7042POPC   C3B35301   3.723  13.081   7.950
 7042POPC   C4B35302   3.700  13.069   7.650
 7043POPC   NC335303  39.968   2.746   9.450
 7043POPC   PO435304  40.002   2.795   9.150
 7043POPC   GL135305  39.983   2.749   8.850
 7043POPC   GL235306  39.930   2.891   8.850
 7043POPC   C1A35307  39.999   2.753   8.550
 7043POPC   D2A35308  39.981   2.799   8.250
 7043POPC   C3A35309  39.961   2.734   7.950
 7043POPC   C4A35310  40.045   2.792   7.650
 7043POPC   C1B35311  39.816   2.920   8.550
 7043POPC   C2B35312  39.814   2.949   8.250
 7043POPC   C3B35313  39.831   2.971   7.950
 7043POPC   C4B35314  39.872   2.925   7.650
 7044POPC   NC335315  42.376  12.850   9.450
 7044POPC   PO435316  42.287  12.853   9.150
 7044POPC   GL135317  42.339  12.842   8.850
 7044POPC   GL235318  42.209  12.776   8.850
 7044POPC   C1A35319  42.306  12.871   8.550
 7044POPC   D2A35320  42.331  12.830   8.250
 7044POPC   C3A35321  42.307  12.889   7.950
 7044POPC   C4A35322  42.307  12.825   7.650
 7044POPC   C1B35323  42.122  12.766   8.550
 7044POPC   C2B35324  42.115  12.773   8.250
 7044POPC   C3B35325  42.049  12.776   7.950
 7044POPC   C4B35326  42.068  12.772   7.650
 7045POPC   NC335327   5.112  37.684   9.450
 7045POPC   PO435328   5.043  37.699   9.150
 7045POPC   GL135329   5.049  37.720   8.850
 7045POPC   GL235330   5.226  37.703   8.850
 7045POPC   C1A35331   5.133  37.710   8.550
 7045POPC   D2A35332   5.140  37.684   8.250
 7045POPC   C3A35333   5.098  37.683   7.950
 7045POPC   C4A35334   5.136  37.630   7.650
 7045POPC   C1B35335   5.314  37.793   8.550
 7045POPC   C2B35336   5.347  37.726   8.250
 7045POPC   C3B35337   5.307  37.800   7.950
 7045POPC   C4B35338   5.338  37.770   7.650
 7046POPC   NC335339  38.425  39.982   9.450
 7046POPC   PO435340  38.465  40.054   9.150
 7046POPC   GL135341  38.407  39.977   8.850
 7046POPC   GL235342  38.535  40.157   8.850
 7046POPC   C1A35343  38.476  40.046   8.550
 7046POPC   D2A35344  38.491  40.031   8.250
 7046POPC   C3A35345  38.497  40.049   7.950
 7046POPC   C4A35346  38.455  40.033   7.650
 7046POPC   C1B35347  38.538  40.261   8.550
 7046POPC   C2B35348  38.543  40.247   8.250
 7046POPC   C3B35349  38.522  40.225   7.950
 7046POPC   C4B35350  38.526  40.203   7.650
 7047POPC   NC335351   9.787   9.759   9.450
 7047POPC   PO435352   9.715   9.738   9.150
 7047POPC   GL135353   9.750   9.743   8.850
 7047POPC   GL235354   9.879   9.701   8.850
 7047POPC   C1A35355   9.738   9.794   8.550
 7047POPC   D2A35356   9.727   9.785   8.250
 7047POPC   C3A35357   9.791   9.737   7.950
 7047POPC   C4A35358   9.762   9.780   7.650
 7047POPC   C1B35359   9.989   9.686   8.550
 7047POPC   C2B35360   9.991   9.692   8.250
 7047POPC   C3B35361   9.981   9.719   7.950
 7047POPC   C4B35362  10.041   9.759   7.650
 7048POPC   NC335363  24.530  43.883   9.450
 7048POPC   PO435364  24.529  43.858   9.150
 7048POPC   GL135365  24.483  43.862   8.850
 7048POPC   GL235366  24.550  43.790   8.850
 7048POPC   C1A35367  24.494  43.886   8.550
 7048POPC   D2A35368  24.535  43.895   8.250
 7048POPC   C3A35369  24.508  43.872   7.950
 7048POPC   C4A35370  24.527  43.873   7.650
 7048POPC   C1B35371  24.651  43.654   8.550
 7048POPC   C2B35372  24.581  43.721   8.250
 7048POPC   C3B35373  24.668  43.660   7.950
 7048POPC   C4B35374  24.608  43.650   7.650
 7049POPC   NC335375  32.202  18.316   9.450
 7049POPC   PO435376  32.295  18.288   9.150
 7049POPC   GL135377  32.281  18.331   8.850
 7049POPC   GL235378  32.153  18.385   8.850
 7049POPC   C1A35379  32.259  18.261   8.550
 7049POPC   D2A35380  32.292  18.309   8.250
 7049POPC   C3A35381  32.218  18.272   7.950
 7049POPC   C4A35382  32.269  18.329   7.650
 7049POPC   C1B35383  32.096  18.459   8.550
 7049POPC   C2B35384  32.087  18.431   8.250
 7049POPC   C3B35385  32.083  18.423   7.950
 7049POPC   C4B35386  32.041  18.482   7.650
 7050POPC   NC335387  21.369  14.423   9.450
 7050POPC   PO435388  21.375  14.431   9.150
 7050POPC   GL135389  21.371  14.371   8.850
 7050POPC   GL235390  21.365  14.524   8.850
 7050POPC   C1A35391  21.356  14.377   8.550
 7050POPC   D2A35392  21.407  14.387   8.250
 7050POPC   C3A35393  21.356  14.447   7.950
 7050POPC   C4A35394  21.432  14.438   7.650
 7050POPC   C1B35395  21.422  14.683   8.550
 7050POPC   C2B35396  21.419  14.603   8.250
 7050POPC   C3B35397  21.402  14.688   7.950
 7050POPC   C4B35398  21.409  14.622   7.650
 7051POPC   NC335399  12.823  27.577   9.450
 7051POPC   PO435400  12.897  27.564   9.150
 7051POPC   GL135401  12.847  27.606   8.850
 7051POPC   GL235402  12.980  27.534   8.850
 7051POPC   C1A35403  12.820  27.637   8.550
 7051POPC   D2A35404  12.835  27.559   8.250
 7051POPC   C3A35405  12.883  27.642   7.950
 7051POPC   C4A35406  12.813  27.625   7.650
 7051POPC   C1B35407  13.075  27.474   8.550
 7051POPC   C2B35408  13.003  27.386   8.250
 7051POPC   C3B35409  13.039  27.402   7.950
 7051POPC   C4B35410  13.043  27.439   7.650
 7052POPC   NC335411   9.701   3.554   9.450
 7052POPC   PO435412   9.781   3.586   9.150
 7052POPC   GL135413   9.755   3.549   8.850
 7052POPC   GL235414   9.795   3.684   8.850
 7052POPC   C1A35415   9.750   3.575   8.550
 7052POPC   D2A35416   9.711   3.543   8.250
 7052POPC   C3A35417   9.797   3.542   7.950
 7052POPC   C4A35418   9.713   3.513   7.650
 7052POPC   C1B35419   9.748   3.817   8.550
 7052POPC   C2B35420   9.828   3.742   8.250
 7052POPC   C3B35421   9.834   3.799   7.950
 7052POPC   C4B35422   9.798   3.742   7.650
 7053POPC   NC335423  14.389   1.981   9.450
 7053POPC   PO435424  14.391   2.002   9.150
 7053POPC   GL135425  14.398   1.942   8.850
 7053POPC   GL235426  14.513   1.899   8.850
 7053POPC   C1A35427  14.415   2.006   8.550
 7053POPC   D2A35428  14.386   2.011   8.250
 7053POPC   C3A35429  14.449   2.018   7.950
 7053POPC   C4A35430  14.450   2.035   7.650
 7053POPC   C1B35431  14.506   1.744   8.550
 7053POPC   C2B35432  14.521   1.724   8.250
 7053POPC   C3B35433  14.548   1.731   7.950
 7053POPC   C4B35434  14.534   1.771   7.650
 7054POPC   NC335435   5.917  19.840   9.450
 7054POPC   PO435436   5.844  19.843   9.150
 7054POPC   GL135437   5.894  19.870   8.850
 7054POPC   GL235438   5.936  19.985   8.850
 7054POPC   C1A35439   5.851  19.868   8.550
 7054POPC   D2A35440   5.825  19.878   8.250
 7054POPC   C3A35441   5.840  19.803   7.950
 7054POPC   C4A35442   5.888  19.816   7.650
 7054POPC   C1B35443   5.947  20.083   8.550
 7054POPC   C2B35444   5.963  20.037   8.250
 7054POPC   C3B35445   5.971  20.011   7.950
 7054POPC   C4B35446   5.985  20.064   7.650
 7055POPC   NC335447  36.151  14.451   9.450
 7055POPC   PO435448  36.088  14.434   9.150
 7055POPC   GL135449  36.097  14.364   8.850
 7055POPC   GL235450  36.097  14.265   8.850
 7055POPC   C1A35451  36.112  14.387   8.550
 7055POPC   D2A35452  36.109  14.431   8.250
 7055POPC   C3A35453  36.146  14.420   7.950
 7055POPC   C4A35454  36.083  14.383   7.650
 7055POPC   C1B35455  36.018  14.153   8.550
 7055POPC   C2B35456  36.014  14.170   8.250
 7055POPC   C3B35457  36.083  14.164   7.950
 7055POPC   C4B35458  36.020  14.183   7.650
 7056POPC   NC335459  35.379  19.073   9.450
 7056POPC   PO435460  35.333  19.060   9.150
 7056POPC   GL135461  35.370  19.105   8.850
 7056POPC   GL235462  35.455  19.121   8.850
 7056POPC   C1A35463  35.306  19.092   8.550
 7056POPC   D2A35464  35.303  19.017   8.250
 7056POPC   C3A35465  35.320  19.045   7.950
 7056POPC   C4A35466  35.373  19.064   7.650
 7056POPC   C1B35467  35.593  19.142   8.550
 7056POPC   C2B35468  35.580  19.089   8.250
 7056POPC   C3B35469  35.619  19.131   7.950
 7056POPC   C4B35470  35.621  19.093   7.650
 7057POPC   NC335471  16.693   1.946   9.450
 7057POPC   PO435472  16.728   1.941   9.150
 7057POPC   GL135473  16.741   1.990   8.850
 7057POPC   GL235474  16.611   1.938   8.850
 7057POPC   C1A35475  16.699   1.970   8.550
 7057POPC   D2A35476  16.746   2.014   8.250
 7057POPC   C3A35477  16.763   1.986   7.950
 7057POPC   C4A35478  16.769   2.006   7.650
 7057POPC   C1B35479  16.612   1.759   8.550
 7057POPC   C2B35480  16.572   1.797   8.250
 7057POPC   C3B35481  16.605   1.777   7.950
 7057POPC   C4B35482  16.567   1.825   7.650
 7058POPC   NC335483  22.945  26.059   9.450
 7058POPC   PO435484  22.977  26.024   9.150
 7058POPC   GL135485  22.979  26.006   8.850
 7058POPC   GL235486  22.998  26.013   8.850
 7058POPC   C1A35487  22.919  26.091   8.550
 7058POPC   D2A35488  22.961  26.008   8.250
 7058POPC   C3A35489  22.931  26.002   7.950
 7058POPC   C4A35490  22.970  26.081   7.650
 7058POPC   C1B35491  23.149  25.875   8.550
 7058POPC   C2B35492  23.177  25.874   8.250
 7058POPC   C3B35493  23.181  25.889   7.950
 7058POPC   C4B35494  23.159  25.967   7.650
 7059POPC   NC335495  28.415  15.166   9.450
 7059POPC   PO435496  28.359  15.206   9.150
 7059POPC   GL135497  28.362  15.200   8.850
 7059POPC   GL235498  28.223  15.260   8.850
 7059POPC   C1A35499  28.416  15.212   8.550
 7059POPC   D2A35500  28.362  15.140   8.250
 7059POPC   C3A35501  28.411  15.192   7.950
 7059POPC   C4A35502  28.341  15.217   7.650
 7059POPC   C1B35503  28.123  15.210   8.550
 7059POPC   C2B35504  28.171  15.204   8.250
 7059POPC   C3B35505  28.159  15.225   7.950
 7059POPC   C4B35506  28.080  15.236   7.650
 7060POPC   NC335507  32.256  36.139   9.450
 7060POPC   PO435508  32.218  36.170   9.150
 7060POPC   GL135509  32.252  36.093   8.850
 7060POPC   GL235510  32.353  36.259   8.850
 7060POPC   C1A35511  32.233  36.124   8.550
 7060POPC   D2A35512  32.243  36.123   8.250
 7060POPC   C3A35513  32.254  36.115   7.950
 7060POPC   C4A35514  32.238  36.102   7.650
 7060POPC   C1B35515  32.349  36.366   8.550
 7060POPC   C2B35516  32.365  36.374   8.250
 7060POPC   C3B35517  32.346  36.387   7.950
 7060POPC   C4B35518  32.412  36.313   7.650
 7061POPC   NC335519  40.807  35.327   9.450
 7061POPC   PO435520  40.765  35.385   9.150
 7061POPC   GL135521  40.831  35.378   8.850
 7061POPC   GL235522  40.689  35.314   8.850
 7061POPC   C1A35523  40.749  35.309   8.550
 7061POPC   D2A35524  40.776  35.388   8.250
 7061POPC   C3A35525  40.775  35.356   7.950
 7061POPC   C4A35526  40.752  35.318   7.650
 7061POPC   C1B35527  40.511  35.257   8.550
 7061POPC   C2B35528  40.562  35.233   8.250
 7061POPC   C3B35529  40.565  35.283   7.950
 7061POPC   C4B35530  40.580  35.270   7.650
 7062POPC   NC335531  22.186  36.079   9.450
 7062POPC   PO435532  22.178  36.112   9.150
 7062POPC   GL135533  22.120  36.154   8.850
 7062POPC   GL235534  22.022  36.227   8.850
 7062POPC   C1A35535  22.140  36.117   8.550
 7062POPC   D2A35536  22.115  36.091   8.250
 7062POPC   C3A35537  22.115  36.135   7.950
 7062POPC   C4A35538  22.149  36.134   7.650
 7062POPC   C1B35539  21.936  36.287   8.550
 7062POPC   C2B35540  21.900  36.250   8.250
 7062POPC   C3B35541  21.900  36.291   7.950
 7062POPC   C4B35542  21.985  36.227   7.650
 7063POPC   NC335543   2.019   3.551   9.450
 7063POPC   PO435544   2.010   3.494   9.150
 7063POPC   GL135545   2.013   3.545   8.850
 7063POPC   GL235546   2.119   3.600   8.850
 7063POPC   C1A35547   1.981   3.537   8.550
 7063POPC   D2A35548   1.954   3.534   8.250
 7063POPC   C3A35549   2.018   3.551   7.950
 7063POPC   C4A35550   2.034   3.552   7.650
 7063POPC   C1B35551   2.284   3.631   8.550
 7063POPC   C2B35552   2.222   3.544   8.250
 7063POPC   C3B35553   2.211   3.619   7.950
 7063POPC   C4B35554   2.274   3.596   7.650
 7064POPC   NC335555  17.478  12.847   9.450
 7064POPC   PO435556  17.522  12.816   9.150
 7064POPC   GL135557  17.544  12.813   8.850
 7064POPC   GL235558  17.528  12.949   8.850
 7064POPC   C1A35559  17.486  12.812   8.550
 7064POPC   D2A35560  17.478  12.896   8.250
 7064POPC   C3A35561  17.460  12.874   7.950
 7064POPC   C4A35562  17.478  12.830   7.650
 7064POPC   C1B35563  17.570  13.107   8.550
 7064POPC   C2B35564  17.584  13.127   8.250
 7064POPC   C3B35565  17.595  13.056   7.950
 7064POPC   C4B35566  17.595  13.102   7.650
 7065POPC   NC335567  16.726   0.424   9.450
 7065POPC   PO435568  16.712   0.445   9.150
 7065POPC   GL135569  16.780   0.404   8.850
 7065POPC   GL235570  16.735   0.274   8.850
 7065POPC   C1A35571  16.696   0.397   8.550
 7065POPC   D2A35572  16.752   0.466   8.250
 7065POPC   C3A35573  16.751   0.454   7.950
 7065POPC   C4A35574  16.748   0.404   7.650
 7065POPC   C1B35575  16.687   0.216   8.550
 7065POPC   C2B35576  16.764   0.145   8.250
 7065POPC   C3B35577  16.691   0.151   7.950
 7065POPC   C4B35578  16.759   0.168   7.650
 7066POPC   NC335579  28.368   2.721   9.450
 7066POPC   PO435580  28.324   2.786   9.150
 7066POPC   GL135581  28.380   2.774   8.850
 7066POPC   GL235582  28.217   2.779   8.850
 7066POPC   C1A35583  28.391   2.799   8.550
 7066POPC   D2A35584  28.373   2.755   8.250
 7066POPC   C3A35585  28.319   2.745   7.950
 7066POPC   C4A35586  28.409   2.765   7.650
 7066POPC   C1B35587  28.162   2.767   8.550
 7066POPC   C2B35588  28.085   2.753   8.250
 7066POPC   C3B35589  28.095   2.812   7.950
 7066POPC   C4B35590  28.161   2.798   7.650
 7067POPC   NC335591  14.364  12.834   9.450
 7067POPC   PO435592  14.403  12.819   9.150
 7067POPC   GL135593  14.407  12.853   8.850
 7067POPC   GL235594  14.380  12.993   8.850
 7067POPC   C1A35595  14.391  12.819   8.550
 7067POPC   D2A35596  14.359  12.845   8.250
 7067POPC   C3A35597  14.361  12.844   7.950
 7067POPC   C4A35598  14.402  12.804   7.650
 7067POPC   C1B35599  14.477  13.107   8.550
 7067POPC   C2B35600  14.482  13.129   8.250
 7067POPC   C3B35601  14.450  13.114   7.950
 7067POPC   C4B35602  14.408  13.052   7.650
 7068POPC   NC335603  40.817  31.481   9.450
 7068POPC   PO435604  40.819  31.452   9.150
 7068POPC   GL135605  40.733  31.447   8.850
 7068POPC   GL235606  40.693  31.452   8.850
 7068POPC   C1A35607  40.764  31.486   8.550
 7068POPC   D2A35608  40.789  31.495   8.250
 7068POPC   C3A35609  40.749  31.498   7.950
 7068POPC   C4A35610  40.817  31.460   7.650
 7068POPC   C1B35611  40.549  31.415   8.550
 7068POPC   C2B35612  40.582  31.451   8.250
 7068POPC   C3B35613  40.545  31.380   7.950
 7068POPC   C4B35614  40.544  31.394   7.650
 7069POPC   NC335615  26.781  14.432   9.450
 7069POPC   PO435616  26.783  14.415   9.150
 7069POPC   GL135617  26.785  14.386   8.850
 7069POPC   GL235618  26.909  14.332   8.850
 7069POPC   C1A35619  26.849  14.442   8.550
 7069POPC   D2A35620  26.778  14.402   8.250
 7069POPC   C3A35621  26.833  14.377   7.950
 7069POPC   C4A35622  26.839  14.451   7.650
 7069POPC   C1B35623  27.035  14.318   8.550
 7069POPC   C2B35624  27.037  14.384   8.250
 7069POPC   C3B35625  27.057  14.326   7.950
 7069POPC   C4B35626  27.104  14.334   7.650
 7070POPC   NC335627   5.048   8.165   9.450
 7070POPC   PO435628   5.110   8.199   9.150
 7070POPC   GL135629   5.061   8.198   8.850
 7070POPC   GL235630   5.194   8.274   8.850
 7070POPC   C1A35631   5.119   8.188   8.550
 7070POPC   D2A35632   5.108   8.241   8.250
 7070POPC   C3A35633   5.072   8.238   7.950
 7070POPC   C4A35634   5.100   8.154   7.650
 7070POPC   C1B35635   5.317   8.297   8.550
 7070POPC   C2B35636   5.308   8.329   8.250
 7070POPC   C3B35637   5.313   8.332   7.950
 7070POPC   C4B35638   5.276   8.310   7.650
 7071POPC   NC335639  36.926  26.796   9.450
 7071POPC   PO435640  36.877  26.843   9.150
 7071POPC   GL135641  36.918  26.816   8.850
 7071POPC   GL235642  36.795  26.727   8.850
 7071POPC   C1A35643  36.947  26.849   8.550
 7071POPC   D2A35644  36.867  26.783   8.250
 7071POPC   C3A35645  36.880  26.867   7.950
 7071POPC   C4A35646  36.933  26.816   7.650
 7071POPC   C1B35647  36.737  26.682   8.550
 7071POPC   C2B35648  36.689  26.653   8.250
 7071POPC   C3B35649  36.662  26.664   7.950
 7071POPC   C4B35650  36.740  26.638   7.650
 7072POPC   NC335651   6.630  36.128   9.450
 7072POPC   PO435652   6.606  36.079   9.150
 7072POPC   GL135653   6.596  36.099   8.850
 7072POPC   GL235654   6.689  36.250   8.850
 7072POPC   C1A35655   6.640  36.150   8.550
 7072POPC   D2A35656   6.663  36.101   8.250
 7072POPC   C3A35657   6.690  36.089   7.950
 7072POPC   C4A35658   6.644  36.165   7.650
 7072POPC   C1B35659   6.798  36.298   8.550
 7072POPC   C2B35660   6.849  36.303   8.250
 7072POPC   C3B35661   6.802  36.307   7.950
 7072POPC   C4B35662   6.788  36.328   7.650
 7073POPC   NC335663  16.723  20.638   9.450
 7073POPC   PO435664  16.771  20.572   9.150
 7073POPC   GL135665  16.724  20.564   8.850
 7073POPC   GL235666  16.679  20.497   8.850
 7073POPC   C1A35667  16.700  20.636   8.550
 7073POPC   D2A35668  16.684  20.629   8.250
 7073POPC   C3A35669  16.734  20.630   7.950
 7073POPC   C4A35670  16.709  20.639   7.650
 7073POPC   C1B35671  16.576  20.434   8.550
 7073POPC   C2B35672  16.586  20.351   8.250
 7073POPC   C3B35673  16.662  20.435   7.950
 7073POPC   C4B35674  16.570  20.345   7.650
 7074POPC   NC335675   5.831   3.526   9.450
 7074POPC   PO435676   5.915   3.572   9.150
 7074POPC   GL135677   5.829   3.496   8.850
 7074POPC   GL235678   5.900   3.601   8.850
 7074POPC   C1A35679   5.868   3.516   8.550
 7074POPC   D2A35680   5.879   3.537   8.250
 7074POPC   C3A35681   5.908   3.570   7.950
 7074POPC   C4A35682   5.893   3.513   7.650
 7074POPC   C1B35683   5.992   3.783   8.550
 7074POPC   C2B35684   6.034   3.763   8.250
 7074POPC   C3B35685   6.023   3.711   7.950
 7074POPC   C4B35686   5.991   3.771   7.650
 7075POPC   NC335687  44.673  24.483   9.450
 7075POPC   PO435688  44.616  24.492   9.150
 7075POPC   GL135689  44.669  24.475   8.850
 7075POPC   GL235690  44.653  24.384   8.850
 7075POPC   C1A35691  44.655  24.485   8.550
 7075POPC   D2A35692  44.671  24.499   8.250
 7075POPC   C3A35693  44.615  24.454   7.950
 7075POPC   C4A35694  44.619  24.495   7.650
 7075POPC   C1B35695  44.611  24.261   8.550
 7075POPC   C2B35696  44.671  24.243   8.250
 7075POPC   C3B35697  44.636  24.280   7.950
 7075POPC   C4B35698  44.590  24.218   7.650
 7076POPC   NC335699  42.291  40.824   9.450
 7076POPC   PO435700  42.377  40.745   9.150
 7076POPC   GL135701  42.320  40.736   8.850
 7076POPC   GL235702  42.372  40.634   8.850
 7076POPC   C1A35703  42.319  40.752   8.550
 7076POPC   D2A35704  42.372  40.799   8.250
 7076POPC   C3A35705  42.364  40.792   7.950
 7076POPC   C4A35706  42.306  40.810   7.650
 7076POPC   C1B35707  42.514  40.533   8.550
 7076POPC   C2B35708  42.490  40.592   8.250
 7076POPC   C3B35709  42.469  40.596   7.950
 7076POPC   C4B35710  42.503  40.577   7.650
 7077POPC   NC335711  35.311  36.160   9.450
 7077POPC   PO435712  35.358  36.089   9.150
 7077POPC   GL135713  35.319  36.127   8.850
 7077POPC   GL235714  35.397  36.218   8.850
 7077POPC   C1A35715  35.381  36.093   8.550
 7077POPC   D2A35716  35.353  36.137   8.250
 7077POPC   C3A35717  35.370  36.082   7.950
 7077POPC   C4A35718  35.356  36.129   7.650
 7077POPC   C1B35719  35.520  36.354   8.550
 7077POPC   C2B35720  35.480  36.367   8.250
 7077POPC   C3B35721  35.510  36.283   7.950
 7077POPC   C4B35722  35.508  36.291   7.650
 7078POPC   NC335723  36.173  20.592   9.450
 7078POPC   PO435724  36.079  20.606   9.150
 7078POPC   GL135725  36.111  20.604   8.850
 7078POPC   GL235726  36.229  20.506   8.850
 7078POPC   C1A35727  36.102  20.565   8.550
 7078POPC   D2A35728  36.107  20.594   8.250
 7078POPC   C3A35729  36.082  20.646   7.950
 7078POPC   C4A35730  36.112  20.603   7.650
 7078POPC   C1B35731  36.225  20.395   8.550
 7078POPC   C2B35732  36.251  20.430   8.250
 7078POPC   C3B35733  36.194  20.341   7.950
 7078POPC   C4B35734  36.241  20.399   7.650
 7079POPC   NC335735  34.543  36.917   9.450
 7079POPC   PO435736  34.585  36.895   9.150
 7079POPC   GL135737  34.612  36.937   8.850
 7079POPC   GL235738  34.557  37.044   8.850
 7079POPC   C1A35739  34.598  36.867   8.550
 7079POPC   D2A35740  34.583  36.941   8.250
 7079POPC   C3A35741  34.569  36.896   7.950
 7079POPC   C4A35742  34.576  36.929   7.650
 7079POPC   C1B35743  34.531  37.179   8.550
 7079POPC   C2B35744  34.584  37.177   8.250
 7079POPC   C3B35745  34.490  37.174   7.950
 7079POPC   C4B35746  34.524  37.180   7.650
 7080POPC   NC335747   0.393  44.635   9.450
 7080POPC   PO435748   0.442  44.639   9.150
 7080POPC   GL135749   0.484  44.677   8.850
 7080POPC   GL235750   0.293  44.659   8.850
 7080POPC   C1A35751   0.470  44.625   8.550
 7080POPC   D2A35752   0.393  44.613   8.250
 7080POPC   C3A35753   0.392  44.672   7.950
 7080POPC   C4A35754   0.468  44.630   7.650
 7080POPC   C1B35755   0.178  44.649   8.550
 7080POPC   C2B35756   0.150  44.646   8.250
 7080POPC   C3B35757   0.213  44.711   7.950
 7080POPC   C4B35758   0.170  44.633   7.650
 7081POPC   NC335759  30.661  33.761   9.450
 7081POPC   PO435760  30.744  33.771   9.150
 7081POPC   GL135761  30.674  33.761   8.850
 7081POPC   GL235762  30.716  33.955   8.850
 7081POPC   C1A35763  30.656  33.773   8.550
 7081POPC   D2A35764  30.659  33.800   8.250
 7081POPC   C3A35765  30.678  33.793   7.950
 7081POPC   C4A35766  30.744  33.788   7.650
 7081POPC   C1B35767  30.745  34.030   8.550
 7081POPC   C2B35768  30.757  34.044   8.250
 7081POPC   C3B35769  30.727  34.007   7.950
 7081POPC   C4B35770  30.760  34.074   7.650
 7082POPC   NC335771  30.676  35.375   9.450
 7082POPC   PO435772  30.679  35.328   9.150
 7082POPC   GL135773  30.663  35.333   8.850
 7082POPC   GL235774  30.656  35.225   8.850
 7082POPC   C1A35775  30.734  35.313   8.550
 7082POPC   D2A35776  30.668  35.365   8.250
 7082POPC   C3A35777  30.707  35.387   7.950
 7082POPC   C4A35778  30.682  35.328   7.650
 7082POPC   C1B35779  30.555  35.196   8.550
 7082POPC   C2B35780  30.581  35.112   8.250
 7082POPC   C3B35781  30.504  35.141   7.950
 7082POPC   C4B35782  30.501  35.200   7.650
 7083POPC   NC335783  14.451  15.198   9.450
 7083POPC   PO435784  14.429  15.169   9.150
 7083POPC   GL135785  14.370  15.168   8.850
 7083POPC   GL235786  14.446  15.284   8.850
 7083POPC   C1A35787  14.446  15.168   8.550
 7083POPC   D2A35788  14.440  15.142   8.250
 7083POPC   C3A35789  14.407  15.159   7.950
 7083POPC   C4A35790  14.368  15.146   7.650
 7083POPC   C1B35791  14.534  15.385   8.550
 7083POPC   C2B35792  14.578  15.353   8.250
 7083POPC   C3B35793  14.534  15.348   7.950
 7083POPC   C4B35794  14.582  15.367   7.650
 7084POPC   NC335795   2.024  11.294   9.450
 7084POPC   PO435796   1.994  11.339   9.150
 7084POPC   GL135797   1.966  11.338   8.850
 7084POPC   GL235798   2.022  11.421   8.850
 7084POPC   C1A35799   2.035  11.251   8.550
 7084POPC   D2A35800   2.008  11.287   8.250
 7084POPC   C3A35801   2.030  11.252   7.950
 7084POPC   C4A35802   1.948  11.288   7.650
 7084POPC   C1B35803   2.056  11.542   8.550
 7084POPC   C2B35804   2.016  11.525   8.250
 7084POPC   C3B35805   2.040  11.560   7.950
 7084POPC   C4B35806   2.059  11.557   7.650
 7085POPC   NC335807   5.826  37.692   9.450
 7085POPC   PO435808   5.829  37.728   9.150
 7085POPC   GL135809   5.890  37.716   8.850
 7085POPC   GL235810   5.981  37.686   8.850
 7085POPC   C1A35811   5.844  37.715   8.550
 7085POPC   D2A35812   5.864  37.686   8.250
 7085POPC   C3A35813   5.916  37.717   7.950
 7085POPC   C4A35814   5.837  37.690   7.650
 7085POPC   C1B35815   6.071  37.645   8.550
 7085POPC   C2B35816   6.071  37.694   8.250
 7085POPC   C3B35817   6.149  37.637   7.950
 7085POPC   C4B35818   6.073  37.658   7.650
 7086POPC   NC335819  43.884  22.151   9.450
 7086POPC   PO435820  43.875  22.126   9.150
 7086POPC   GL135821  43.871  22.202   8.850
 7086POPC   GL235822  44.026  22.141   8.850
 7086POPC   C1A35823  43.883  22.198   8.550
 7086POPC   D2A35824  43.916  22.186   8.250
 7086POPC   C3A35825  43.889  22.148   7.950
 7086POPC   C4A35826  43.847  22.157   7.650
 7086POPC   C1B35827  44.098  22.115   8.550
 7086POPC   C2B35828  44.184  22.155   8.250
 7086POPC   C3B35829  44.135  22.126   7.950
 7086POPC   C4B35830  44.184  22.133   7.650
 7087POPC   NC335831  25.253   7.456   9.450
 7087POPC   PO435832  25.312   7.428   9.150
 7087POPC   GL135833  25.224   7.376   8.850
 7087POPC   GL235834  25.375   7.270   8.850
 7087POPC   C1A35835  25.269   7.412   8.550
 7087POPC   D2A35836  25.243   7.386   8.250
 7087POPC   C3A35837  25.300   7.435   7.950
 7087POPC   C4A35838  25.302   7.458   7.650
 7087POPC   C1B35839  25.406   7.160   8.550
 7087POPC   C2B35840  25.415   7.179   8.250
 7087POPC   C3B35841  25.393   7.185   7.950
 7087POPC   C4B35842  25.424   7.243   7.650
 7088POPC   NC335843  16.767  11.270   9.450
 7088POPC   PO435844  16.731  11.270   9.150
 7088POPC   GL135845  16.768  11.283   8.850
 7088POPC   GL235846  16.703  11.157   8.850
 7088POPC   C1A35847  16.695  11.330   8.550
 7088POPC   D2A35848  16.780  11.315   8.250
 7088POPC   C3A35849  16.747  11.334   7.950
 7088POPC   C4A35850  16.770  11.280   7.650
 7088POPC   C1B35851  16.632  11.074   8.550
 7088POPC   C2B35852  16.597  11.082   8.250
 7088POPC   C3B35853  16.592  11.088   7.950
 7088POPC   C4B35854  16.662  11.035   7.650
 7089POPC   NC335855  16.769  22.133   9.450
 7089POPC   PO435856  16.700  22.160   9.150
 7089POPC   GL135857  16.759  22.123   8.850
 7089POPC   GL235858  16.685  22.290   8.850
 7089POPC   C1A35859  16.730  22.144   8.550
 7089POPC   D2A35860  16.770  22.195   8.250
 7089POPC   C3A35861  16.745  22.130   7.950
 7089POPC   C4A35862  16.772  22.158   7.650
 7089POPC   C1B35863  16.638  22.331   8.550
 7089POPC   C2B35864  16.570  22.427   8.250
 7089POPC   C3B35865  16.596  22.390   7.950
 7089POPC   C4B35866  16.566  22.419   7.650
 7090POPC   NC335867  13.677  14.423   9.450
 7090POPC   PO435868  13.641  14.372   9.150
 7090POPC   GL135869  13.629  14.413   8.850
 7090POPC   GL235870  13.499  14.512   8.850
 7090POPC   C1A35871  13.640  14.430   8.550
 7090POPC   D2A35872  13.630  14.373   8.250
 7090POPC   C3A35873  13.657  14.435   7.950
 7090POPC   C4A35874  13.673  14.371   7.650
 7090POPC   C1B35875  13.379  14.554   8.550
 7090POPC   C2B35876  13.375  14.560   8.250
 7090POPC   C3B35877  13.385  14.528   7.950
 7090POPC   C4B35878  13.415  14.551   7.650
 7091POPC   NC335879  18.242  24.462   9.450
 7091POPC   PO435880  18.283  24.519   9.150
 7091POPC   GL135881  18.326  24.494   8.850
 7091POPC   GL235882  18.192  24.406   8.850
 7091POPC   C1A35883  18.307  24.461   8.550
 7091POPC   D2A35884  18.242  24.495   8.250
 7091POPC   C3A35885  18.297  24.462   7.950
 7091POPC   C4A35886  18.327  24.468   7.650
 7091POPC   C1B35887  18.018  24.414   8.550
 7091POPC   C2B35888  18.085  24.402   8.250
 7091POPC   C3B35889  18.048  24.387   7.950
 7091POPC   C4B35890  18.026  24.380   7.650
 7092POPC   NC335891  30.688   1.168   9.450
 7092POPC   PO435892  30.737   1.246   9.150
 7092POPC   GL135893  30.728   1.251   8.850
 7092POPC   GL235894  30.831   1.110   8.850
 7092POPC   C1A35895  30.703   1.181   8.550
 7092POPC   D2A35896  30.716   1.257   8.250
 7092POPC   C3A35897  30.732   1.214   7.950
 7092POPC   C4A35898  30.690   1.221   7.650
 7092POPC   C1B35899  30.886   1.090   8.550
 7092POPC   C2B35900  30.880   1.104   8.250
 7092POPC   C3B35901  30.945   1.057   7.950
 7092POPC   C4B35902  30.882   1.084   7.650
 7093POPC   NC335903  18.319   5.072   9.450
 7093POPC   PO435904  18.318   5.080   9.150
 7093POPC   GL135905  18.244   5.044   8.850
 7093POPC   GL235906  18.141   5.174   8.850
 7093POPC   C1A35907  18.304   5.061   8.550
 7093POPC   D2A35908  18.312   5.053   8.250
 7093POPC   C3A35909  18.272   5.067   7.950
 7093POPC   C4A35910  18.312   5.139   7.650
 7093POPC   C1B35911  18.091   5.203   8.550
 7093POPC   C2B35912  18.010   5.219   8.250
 7093POPC   C3B35913  18.068   5.149   7.950
 7093POPC   C4B35914  17.996   5.213   7.650
 7094POPC   NC335915   4.330   1.980   9.450
 7094POPC   PO435916   4.292   1.952   9.150
 7094POPC   GL135917   4.344   1.988   8.850
 7094POPC   GL235918   4.281   2.077   8.850
 7094POPC   C1A35919   4.276   2.037   8.550
 7094POPC   D2A35920   4.303   1.974   8.250
 7094POPC   C3A35921   4.304   1.998   7.950
 7094POPC   C4A35922   4.284   1.970   7.650
 7094POPC   C1B35923   4.223   2.155   8.550
 7094POPC   C2B35924   4.205   2.224   8.250
 7094POPC   C3B35925   4.207   2.243   7.950
 7094POPC   C4B35926   4.209   2.206   7.650
 7095POPC   NC335927  42.372  21.425   9.450
 7095POPC   PO435928  42.356  21.356   9.150
 7095POPC   GL135929  42.308  21.392   8.850
 7095POPC   GL235930  42.381  21.467   8.850
 7095POPC   C1A35931  42.298  21.343   8.550
 7095POPC   D2A35932  42.342  21.425   8.250
 7095POPC   C3A35933  42.339  21.348   7.950
 7095POPC   C4A35934  42.321  21.350   7.650
 7095POPC   C1B35935  42.339  21.656   8.550
 7095POPC   C2B35936  42.315  21.628   8.250
 7095POPC   C3B35937  42.341  21.611   7.950
 7095POPC   C4B35938  42.326  21.614   7.650
 7096POPC   NC335939  42.287  44.613   9.450
 7096POPC   PO435940  42.334  44.696   9.150
 7096POPC   GL135941  42.368  44.657   8.850
 7096POPC   GL235942  42.372  44.567   8.850
 7096POPC   C1A35943  42.325  44.662   8.550
 7096POPC   D2A35944  42.373  44.614   8.250
 7096POPC   C3A35945  42.360  44.698   7.950
 7096POPC   C4A35946  42.338  44.618   7.650
 7096POPC   C1B35947  42.401  44.471   8.550
 7096POPC   C2B35948  42.404  44.410   8.250
 7096POPC   C3B35949  42.355  44.441   7.950
 7096POPC   C4B35950  42.408  44.410   7.650
 7097POPC   NC335951  12.883  40.799   9.450
 7097POPC   PO435952  12.803  40.738   9.150
 7097POPC   GL135953  12.891  40.743   8.850
 7097POPC   GL235954  12.902  40.667   8.850
 7097POPC   C1A35955  12.821  40.796   8.550
 7097POPC   D2A35956  12.862  40.799   8.250
 7097POPC   C3A35957  12.897  40.777   7.950
 7097POPC   C4A35958  12.879  40.820   7.650
 7097POPC   C1B35959  12.937  40.542   8.550
 7097POPC   C2B35960  12.991  40.519   8.250
 7097POPC   C3B35961  12.940  40.552   7.950
 7097POPC   C4B35962  13.000  40.537   7.650
 7098POPC   NC335963   5.073  26.816   9.450
 7098POPC   PO435964   5.138  26.831   9.150
 7098POPC   GL135965   5.132  26.774   8.850
 7098POPC   GL235966   5.074  26.973   8.850
 7098POPC   C1A35967   5.071  26.785   8.550
 7098POPC   D2A35968   5.117  26.828   8.250
 7098POPC   C3A35969   5.073  26.791   7.950
 7098POPC   C4A35970   5.112  26.803   7.650
 7098POPC   C1B35971   4.985  27.081   8.550
 7098POPC   C2B35972   5.034  27.059   8.250
 7098POPC   C3B35973   4.980  27.053   7.950
 7098POPC   C4B35974   5.057  27.044   7.650
 7099POPC   NC335975  24.526  27.576   9.450
 7099POPC   PO435976  24.454  27.619   9.150
 7099POPC   GL135977  24.535  27.631   8.850
 7099POPC   GL235978  24.575  27.580   8.850
 7099POPC   C1A35979  24.506  27.550   8.550
 7099POPC   D2A35980  24.488  27.583   8.250
 7099POPC   C3A35981  24.516  27.590   7.950
 7099POPC   C4A35982  24.516  27.586   7.650
 7099POPC   C1B35983  24.689  27.661   8.550
 7099POPC   C2B35984  24.718  27.636   8.250
 7099POPC   C3B35985  24.757  27.570   7.950
 7099POPC   C4B35986  24.771  27.605   7.650
 7100POPC   NC335987   8.230   3.529   9.450
 7100POPC   PO435988   8.165   3.512   9.150
 7100POPC   GL135989   8.198   3.584   8.850
 7100POPC   GL235990   8.190   3.710   8.850
 7100POPC   C1A35991   8.204   3.556   8.550
 7100POPC   D2A35992   8.147   3.521   8.250
 7100POPC   C3A35993   8.194   3.570   7.950
 7100POPC   C4A35994   8.187   3.518   7.650
 7100POPC   C1B35995   8.192   3.799   8.550
 7100POPC   C2B35996   8.184   3.802   8.250
 7100POPC   C3B35997   8.235   3.778   7.950
 7100POPC   C4B35998   8.246   3.745   7.650
 7101POPC   NC335999   9.752   2.777   9.450
 7101POPC   PO436000   9.716   2.754   9.150
 7101POPC   GL136001   9.744   2.777   8.850
 7101POPC   GL236002   9.737   2.644   8.850
 7101POPC   C1A36003   9.747   2.759   8.550
 7101POPC   D2A36004   9.738   2.785   8.250
 7101POPC   C3A36005   9.796   2.753   7.950
 7101POPC   C4A36006   9.748   2.734   7.650
 7101POPC   C1B36007   9.675   2.492   8.550
 7101POPC   C2B36008   9.635   2.505   8.250
 7101POPC   C3B36009   9.661   2.501   7.950
 7101POPC   C4B36010   9.621   2.579   7.650
 7102POPC   NC336011  30.654  28.348   9.450
 7102POPC   PO436012  30.720  28.389   9.150
 7102POPC   GL136013  30.687  28.369   8.850
 7102POPC   GL236014  30.619  28.442   8.850
 7102POPC   C1A36015  30.660  28.415   8.550
 7102POPC   D2A36016  30.685  28.330   8.250
 7102POPC   C3A36017  30.708  28.361   7.950
 7102POPC   C4A36018  30.674  28.411   7.650
 7102POPC   C1B36019  30.455  28.530   8.550
 7102POPC   C2B36020  30.431  28.532   8.250
 7102POPC   C3B36021  30.493  28.526   7.950
 7102POPC   C4B36022  30.512  28.459   7.650
 7103POPC   NC336023  44.686   0.392   9.450
 7103POPC   PO436024  44.707   0.485   9.150
 7103POPC   GL136025  44.657   0.407   8.850
 7103POPC   GL236026  44.619   0.330   8.850
 7103POPC   C1A36027  44.705   0.433   8.550
 7103POPC   D2A36028  44.619   0.485   8.250
 7103POPC   C3A36029  44.696   0.432   7.950
 7103POPC   C4A36030  44.656   0.456   7.650
 7103POPC   C1B36031  44.564   0.273   8.550
 7103POPC   C2B36032  44.515   0.217   8.250
 7103POPC   C3B36033  44.494   0.197   7.950
 7103POPC   C4B36034  44.569   0.261   7.650
 7104POPC   NC336035  11.270  18.306   9.450
 7104POPC   PO436036  11.338  18.272   9.150
 7104POPC   GL136037  11.275  18.283   8.850
 7104POPC   GL236038  11.271  18.386   8.850
 7104POPC   C1A36039  11.332  18.294   8.550
 7104POPC   D2A36040  11.314  18.245   8.250
 7104POPC   C3A36041  11.306  18.242   7.950
 7104POPC   C4A36042  11.304  18.305   7.650
 7104POPC   C1B36043  11.237  18.470   8.550
 7104POPC   C2B36044  11.222  18.464   8.250
 7104POPC   C3B36045  11.225  18.555   7.950
 7104POPC   C4B36046  11.184  18.477   7.650
 7105POPC   NC336047  26.072   1.166   9.450
 7105POPC   PO436048  26.024   1.234   9.150
 7105POPC   GL136049  26.047   1.237   8.850
 7105POPC   GL236050  25.985   1.341   8.850
 7105POPC   C1A36051  26.014   1.221   8.550
 7105POPC   D2A36052  26.057   1.219   8.250
 7105POPC   C3A36053  26.003   1.228   7.950
 7105POPC   C4A36054  26.068   1.231   7.650
 7105POPC   C1B36055  25.906   1.359   8.550
 7105POPC   C2B36056  25.929   1.393   8.250
 7105POPC   C3B36057  25.851   1.421   7.950
 7105POPC   C4B36058  25.919   1.393   7.650
 7106POPC   NC336059  40.826   1.194   9.450
 7106POPC   PO436060  40.755   1.241   9.150
 7106POPC   GL136061  40.765   1.214   8.850
 7106POPC   GL236062  40.832   1.054   8.850
 7106POPC   C1A36063  40.804   1.238   8.550
 7106POPC   D2A36064  40.799   1.179   8.250
 7106POPC   C3A36065  40.818   1.204   7.950
 7106POPC   C4A36066  40.748   1.211   7.650
 7106POPC   C1B36067  40.863   1.005   8.550
 7106POPC   C2B36068  40.849   0.992   8.250
 7106POPC   C3B36069  40.837   1.028   7.950
 7106POPC   C4B36070  40.837   0.948   7.650
 7107POPC   NC336071  35.379  19.884   9.450
 7107POPC   PO436072  35.395  19.819   9.150
 7107POPC   GL136073  35.317  19.872   8.850
 7107POPC   GL236074  35.290  19.932   8.850
 7107POPC   C1A36075  35.363  19.826   8.550
 7107POPC   D2A36076  35.382  19.881   8.250
 7107POPC   C3A36077  35.345  19.813   7.950
 7107POPC   C4A36078  35.381  19.851   7.650
 7107POPC   C1B36079  35.171  19.977   8.550
 7107POPC   C2B36080  35.126  20.007   8.250
 7107POPC   C3B36081  35.191  19.957   7.950
 7107POPC   C4B36082  35.117  19.967   7.650
 7108POPC   NC336083   1.987  25.219   9.450
 7108POPC   PO436084   2.006  25.250   9.150
 7108POPC   GL136085   2.022  25.252   8.850
 7108POPC   GL236086   1.883  25.154   8.850
 7108POPC   C1A36087   2.030  25.220   8.550
 7108POPC   D2A36088   1.963  25.236   8.250
 7108POPC   C3A36089   1.972  25.282   7.950
 7108POPC   C4A36090   1.944  25.247   7.650
 7108POPC   C1B36091   1.793  25.112   8.550
 7108POPC   C2B36092   1.788  25.029   8.250
 7108POPC   C3B36093   1.873  25.108   7.950
 7108POPC   C4B36094   1.880  25.046   7.650
 7109POPC   NC336095  18.256  43.143   9.450
 7109POPC   PO436096  18.252  43.068   9.150
 7109POPC   GL136097  18.294  43.068   8.850
 7109POPC   GL236098  18.268  43.227   8.850
 7109POPC   C1A36099  18.301  43.066   8.550
 7109POPC   D2A36100  18.330  43.074   8.250
 7109POPC   C3A36101  18.239  43.074   7.950
 7109POPC   C4A36102  18.255  43.091   7.650
 7109POPC   C1B36103  18.195  43.294   8.550
 7109POPC   C2B36104  18.157  43.305   8.250
 7109POPC   C3B36105  18.191  43.350   7.950
 7109POPC   C4B36106  18.168  43.356   7.650
 7110POPC   NC336107  21.339  12.122   9.450
 7110POPC   PO436108  21.398  12.117   9.150
 7110POPC   GL136109  21.341  12.066   8.850
 7110POPC   GL236110  21.483  12.132   8.850
 7110POPC   C1A36111  21.400  12.107   8.550
 7110POPC   D2A36112  21.397  12.066   8.250
 7110POPC   C3A36113  21.384  12.092   7.950
 7110POPC   C4A36114  21.338  12.053   7.650
 7110POPC   C1B36115  21.548  12.257   8.550
 7110POPC   C2B36116  21.551  12.266   8.250
 7110POPC   C3B36117  21.579  12.199   7.950
 7110POPC   C4B36118  21.555  12.229   7.650
 7111POPC   NC336119   5.905  43.146   9.450
 7111POPC   PO436120   5.835  43.160   9.150
 7111POPC   GL136121   5.873  43.124   8.850
 7111POPC   GL236122   5.814  43.191   8.850
 7111POPC   C1A36123   5.837  43.136   8.550
 7111POPC   D2A36124   5.855  43.139   8.250
 7111POPC   C3A36125   5.860  43.087   7.950
 7111POPC   C4A36126   5.847  43.096   7.650
 7111POPC   C1B36127   5.761  43.260   8.550
 7111POPC   C2B36128   5.732  43.333   8.250
 7111POPC   C3B36129   5.674  43.260   7.950
 7111POPC   C4B36130   5.727  43.260   7.650
 7112POPC   NC336131   7.394  40.746   9.450
 7112POPC   PO436132   7.453  40.736   9.150
 7112POPC   GL136133   7.421  40.752   8.850
 7112POPC   GL236134   7.280  40.674   8.850
 7112POPC   C1A36135   7.454  40.776   8.550
 7112POPC   D2A36136   7.407  40.745   8.250
 7112POPC   C3A36137   7.379  40.752   7.950
 7112POPC   C4A36138   7.397  40.768   7.650
 7112POPC   C1B36139   7.207  40.706   8.550
 7112POPC   C2B36140   7.185  40.712   8.250
 7112POPC   C3B36141   7.186  40.626   7.950
 7112POPC   C4B36142   7.231  40.662   7.650
 7113POPC   NC336143  36.089  15.923   9.450
 7113POPC   PO436144  36.177  16.004   9.150
 7113POPC   GL136145  36.148  15.965   8.850
 7113POPC   GL236146  36.214  15.889   8.850
 7113POPC   C1A36147  36.156  15.930   8.550
 7113POPC   D2A36148  36.085  15.919   8.250
 7113POPC   C3A36149  36.168  15.942   7.950
 7113POPC   C4A36150  36.130  16.003   7.650
 7113POPC   C1B36151  36.181  15.757   8.550
 7113POPC   C2B36152  36.262  15.758   8.250
 7113POPC   C3B36153  36.176  15.760   7.950
 7113POPC   C4B36154  36.234  15.745   7.650
 7114POPC   NC336155  27.579   1.952   9.450
 7114POPC   PO436156  27.565   2.035   9.150
 7114POPC   GL136157  27.617   1.953   8.850
 7114POPC   GL236158  27.492   1.989   8.850
 7114POPC   C1A36159  27.566   2.022   8.550
 7114POPC   D2A36160  27.579   1.958   8.250
 7114POPC   C3A36161  27.566   1.979   7.950
 7114POPC   C4A36162  27.549   2.012   7.650
 7114POPC   C1B36163  27.335   2.076   8.550
 7114POPC   C2B36164  27.399   2.020   8.250
 7114POPC   C3B36165  27.377   2.025   7.950
 7114POPC   C4B36166  27.357   2.041   7.650
 7115POPC   NC336167  27.629  19.847   9.450
 7115POPC   PO436168  27.588  19.868   9.150
 7115POPC   GL136169  27.641  19.851   8.850
 7115POPC   GL236170  27.628  19.759   8.850
 7115POPC   C1A36171  27.616  19.791   8.550
 7115POPC   D2A36172  27.551  19.818   8.250
 7115POPC   C3A36173  27.613  19.788   7.950
 7115POPC   C4A36174  27.617  19.794   7.650
 7115POPC   C1B36175  27.636  19.568   8.550
 7115POPC   C2B36176  27.721  19.555   8.250
 7115POPC   C3B36177  27.726  19.601   7.950
 7115POPC   C4B36178  27.638  19.642   7.650
 7116POPC   NC336179   4.352  33.064   9.450
 7116POPC   PO436180   4.330  33.021   9.150
 7116POPC   GL136181   4.311  33.027   8.850
 7116POPC   GL236182   4.371  33.127   8.850
 7116POPC   C1A36183   4.309  32.994   8.550
 7116POPC   D2A36184   4.285  33.031   8.250
 7116POPC   C3A36185   4.282  33.072   7.950
 7116POPC   C4A36186   4.270  33.014   7.650
 7116POPC   C1B36187   4.506  33.202   8.550
 7116POPC   C2B36188   4.511  33.236   8.250
 7116POPC   C3B36189   4.535  33.155   7.950
 7116POPC   C4B36190   4.552  33.209   7.650
 7117POPC   NC336191  22.896   1.990   9.450
 7117POPC   PO436192  22.987   2.006   9.150
 7117POPC   GL136193  22.971   2.011   8.850
 7117POPC   GL236194  23.000   1.879   8.850
 7117POPC   C1A36195  22.907   2.034   8.550
 7117POPC   D2A36196  22.927   1.971   8.250
 7117POPC   C3A36197  22.969   1.956   7.950
 7117POPC   C4A36198  22.938   1.955   7.650
 7117POPC   C1B36199  23.157   1.873   8.550
 7117POPC   C2B36200  23.112   1.856   8.250
 7117POPC   C3B36201  23.104   1.902   7.950
 7117POPC   C4B36202  23.153   1.858   7.650
 7118POPC   NC336203  19.805  25.247   9.450
 7118POPC   PO436204  19.831  25.290   9.150
 7118POPC   GL136205  19.792  25.251   8.850
 7118POPC   GL236206  19.717  25.348   8.850
 7118POPC   C1A36207  19.804  25.260   8.550
 7118POPC   D2A36208  19.811  25.268   8.250
 7118POPC   C3A36209  19.883  25.266   7.950
 7118POPC   C4A36210  19.862  25.276   7.650
 7118POPC   C1B36211  19.622  25.422   8.550
 7118POPC   C2B36212  19.619  25.419   8.250
 7118POPC   C3B36213  19.671  25.373   7.950
 7118POPC   C4B36214  19.603  25.380   7.650
 7119POPC   NC336215   5.845  15.955   9.450
 7119POPC   PO436216   5.901  15.931   9.150
 7119POPC   GL136217   5.837  15.906   8.850
 7119POPC   GL236218   5.963  15.969   8.850
 7119POPC   C1A36219   5.857  15.907   8.550
 7119POPC   D2A36220   5.878  15.957   8.250
 7119POPC   C3A36221   5.889  15.958   7.950
 7119POPC   C4A36222   5.837  15.944   7.650
 7119POPC   C1B36223   6.148  15.923   8.550
 7119POPC   C2B36224   6.114  15.878   8.250
 7119POPC   C3B36225   6.146  15.925   7.950
 7119POPC   C4B36226   6.143  15.938   7.650
 7120POPC   NC336227   1.960  19.009   9.450
 7120POPC   PO436228   2.034  19.010   9.150
 7120POPC   GL136229   1.955  19.088   8.850
 7120POPC   GL236230   2.072  18.899   8.850
 7120POPC   C1A36231   1.940  19.097   8.550
 7120POPC   D2A36232   2.015  19.095   8.250
 7120POPC   C3A36233   2.017  19.105   7.950
 7120POPC   C4A36234   1.998  19.107   7.650
 7120POPC   C1B36235   2.055  18.852   8.550
 7120POPC   C2B36236   2.080  18.798   8.250
 7120POPC   C3B36237   2.035  18.784   7.950
 7120POPC   C4B36238   2.119  18.778   7.650
 7121POPC   NC336239  19.805  39.261   9.450
 7121POPC   PO436240  19.819  39.257   9.150
 7121POPC   GL136241  19.841  39.203   8.850
 7121POPC   GL236242  19.893  39.317   8.850
 7121POPC   C1A36243  19.868  39.268   8.550
 7121POPC   D2A36244  19.825  39.210   8.250
 7121POPC   C3A36245  19.799  39.199   7.950
 7121POPC   C4A36246  19.805  39.215   7.650
 7121POPC   C1B36247  19.882  39.451   8.550
 7121POPC   C2B36248  19.877  39.428   8.250
 7121POPC   C3B36249  19.864  39.437   7.950
 7121POPC   C4B36250  19.871  39.492   7.650
 7122POPC   NC336251   6.667  25.999   9.450
 7122POPC   PO436252   6.635  26.080   9.150
 7122POPC   GL136253   6.618  26.002   8.850
 7122POPC   GL236254   6.710  26.117   8.850
 7122POPC   C1A36255   6.653  26.064   8.550
 7122POPC   D2A36256   6.641  26.088   8.250
 7122POPC   C3A36257   6.613  26.011   7.950
 7122POPC   C4A36258   6.662  26.046   7.650
 7122POPC   C1B36259   6.756  26.314   8.550
 7122POPC   C2B36260   6.700  26.235   8.250
 7122POPC   C3B36261   6.737  26.306   7.950
 7122POPC   C4B36262   6.717  26.274   7.650
 7123POPC   NC336263  27.547  13.601   9.450
 7123POPC   PO436264  27.561  13.594   9.150
 7123POPC   GL136265  27.573  13.602   8.850
 7123POPC   GL236266  27.708  13.754   8.850
 7123POPC   C1A36267  27.586  13.634   8.550
 7123POPC   D2A36268  27.595  13.625   8.250
 7123POPC   C3A36269  27.548  13.612   7.950
 7123POPC   C4A36270  27.639  13.624   7.650
 7123POPC   C1B36271  27.803  13.812   8.550
 7123POPC   C2B36272  27.767  13.745   8.250
 7123POPC   C3B36273  27.787  13.786   7.950
 7123POPC   C4B36274  27.752  13.783   7.650
 7124POPC   NC336275  40.030   1.178   9.450
 7124POPC   PO436276  39.988   1.244   9.150
 7124POPC   GL136277  39.963   1.258   8.850
 7124POPC   GL236278  40.118   1.270   8.850
 7124POPC   C1A36279  39.960   1.249   8.550
 7124POPC   D2A36280  40.012   1.169   8.250
 7124POPC   C3A36281  40.009   1.189   7.950
 7124POPC   C4A36282  39.972   1.200   7.650
 7124POPC   C1B36283  40.193   1.379   8.550
 7124POPC   C2B36284  40.145   1.389   8.250
 7124POPC   C3B36285  40.114   1.447   7.950
 7124POPC   C4B36286  40.182   1.413   7.650
 7125POPC   NC336287  39.230  29.115   9.450
 7125POPC   PO436288  39.195  29.184   9.150
 7125POPC   GL136289  39.183  29.189   8.850
 7125POPC   GL236290  39.236  29.009   8.850
 7125POPC   C1A36291  39.278  29.134   8.550
 7125POPC   D2A36292  39.272  29.193   8.250
 7125POPC   C3A36293  39.236  29.195   7.950
 7125POPC   C4A36294  39.191  29.147   7.650
 7125POPC   C1B36295  39.253  28.901   8.550
 7125POPC   C2B36296  39.199  28.867   8.250
 7125POPC   C3B36297  39.224  28.857   7.950
 7125POPC   C4B36298  39.288  28.890   7.650
 7126POPC   NC336299  29.902  12.049   9.450
 7126POPC   PO436300  29.908  12.042   9.150
 7126POPC   GL136301  29.906  12.082   8.850
 7126POPC   GL236302  29.850  11.991   8.850
 7126POPC   C1A36303  29.921  12.059   8.550
 7126POPC   D2A36304  29.879  12.092   8.250
 7126POPC   C3A36305  29.939  12.078   7.950
 7126POPC   C4A36306  29.961  12.085   7.650
 7126POPC   C1B36307  29.800  11.817   8.550
 7126POPC   C2B36308  29.818  11.901   8.250
 7126POPC   C3B36309  29.846  11.839   7.950
 7126POPC   C4B36310  29.803  11.845   7.650
 7127POPC   NC336311  17.513   8.159   9.450
 7127POPC   PO436312  17.537   8.162   9.150
 7127POPC   GL136313  17.459   8.215   8.850
 7127POPC   GL236314  17.647   8.232   8.850
 7127POPC   C1A36315  17.541   8.246   8.550
 7127POPC   D2A36316  17.547   8.177   8.250
 7127POPC   C3A36317  17.533   8.198   7.950
 7127POPC   C4A36318  17.469   8.224   7.650
 7127POPC   C1B36319  17.727   8.246   8.550
 7127POPC   C2B36320  17.709   8.303   8.250
 7127POPC   C3B36321  17.760   8.274   7.950
 7127POPC   C4B36322  17.724   8.277   7.650
 7128POPC   NC336323   1.167  38.488   9.450
 7128POPC   PO436324   1.198  38.474   9.150
 7128POPC   GL136325   1.214  38.411   8.850
 7128POPC   GL236326   1.167  38.338   8.850
 7128POPC   C1A36327   1.217  38.501   8.550
 7128POPC   D2A36328   1.171  38.480   8.250
 7128POPC   C3A36329   1.226  38.452   7.950
 7128POPC   C4A36330   1.197  38.451   7.650
 7128POPC   C1B36331   1.027  38.216   8.550
 7128POPC   C2B36332   1.032  38.260   8.250
 7128POPC   C3B36333   1.030  38.245   7.950
 7128POPC   C4B36334   1.015  38.274   7.650
 7129POPC   NC336335  29.965  23.738   9.450
 7129POPC   PO436336  29.908  23.714   9.150
 7129POPC   GL136337  29.887  23.700   8.850
 7129POPC   GL236338  29.972  23.613   8.850
 7129POPC   C1A36339  29.888  23.714   8.550
 7129POPC   D2A36340  29.929  23.702   8.250
 7129POPC   C3A36341  29.943  23.698   7.950
 7129POPC   C4A36342  29.887  23.701   7.650
 7129POPC   C1B36343  29.995  23.511   8.550
 7129POPC   C2B36344  29.975  23.458   8.250
 7129POPC   C3B36345  29.980  23.464   7.950
 7129POPC   C4B36346  30.002  23.498   7.650
 7130POPC   NC336347  15.939  34.545   9.450
 7130POPC   PO436348  15.997  34.579   9.150
 7130POPC   GL136349  15.910  34.612   8.850
 7130POPC   GL236350  16.039  34.599   8.850
 7130POPC   C1A36351  15.922  34.543   8.550
 7130POPC   D2A36352  15.985  34.542   8.250
 7130POPC   C3A36353  15.950  34.576   7.950
 7130POPC   C4A36354  15.912  34.539   7.650
 7130POPC   C1B36355  16.213  34.682   8.550
 7130POPC   C2B36356  16.217  34.657   8.250
 7130POPC   C3B36357  16.143  34.628   7.950
 7130POPC   C4B36358  16.191  34.693   7.650
 7131POPC   NC336359  31.498  29.908   9.450
 7131POPC   PO436360  31.465  29.897   9.150
 7131POPC   GL136361  31.470  29.950   8.850
 7131POPC   GL236362  31.367  29.896   8.850
 7131POPC   C1A36363  31.507  29.875   8.550
 7131POPC   D2A36364  31.443  29.956   8.250
 7131POPC   C3A36365  31.439  29.892   7.950
 7131POPC   C4A36366  31.475  29.900   7.650
 7131POPC   C1B36367  31.262  29.813   8.550
 7131POPC   C2B36368  31.222  29.832   8.250
 7131POPC   C3B36369  31.272  29.826   7.950
 7131POPC   C4B36370  31.243  29.862   7.650
 7132POPC   NC336371  43.121  40.821   9.450
 7132POPC   PO436372  43.117  40.741   9.150
 7132POPC   GL136373  43.069  40.744   8.850
 7132POPC   GL236374  42.950  40.798   8.850
 7132POPC   C1A36375  43.093  40.786   8.550
 7132POPC   D2A36376  43.110  40.822   8.250
 7132POPC   C3A36377  43.081  40.831   7.950
 7132POPC   C4A36378  43.159  40.826   7.650
 7132POPC   C1B36379  42.879  40.832   8.550
 7132POPC   C2B36380  42.879  40.843   8.250
 7132POPC   C3B36381  42.835  40.889   7.950
 7132POPC   C4B36382  42.841  40.898   7.650
 7133POPC   NC336383  19.789  33.759   9.450
 7133POPC   PO436384  19.877  33.774   9.150
 7133POPC   GL136385  19.832  33.776   8.850
 7133POPC   GL236386  19.676  33.713   8.850
 7133POPC   C1A36387  19.828  33.834   8.550
 7133POPC   D2A36388  19.882  33.783   8.250
 7133POPC   C3A36389  19.843  33.846   7.950
 7133POPC   C4A36390  19.859  33.844   7.650
 7133POPC   C1B36391  19.564  33.700   8.550
 7133POPC   C2B36392  19.641  33.736   8.250
 7133POPC   C3B36393  19.640  33.739   7.950
 7133POPC   C4B36394  19.604  33.715   7.650
 7134POPC   NC336395  39.260  27.604   9.450
 7134POPC   PO436396  39.276  27.569   9.150
 7134POPC   GL136397  39.201  27.597   8.850
 7134POPC   GL236398  39.116  27.486   8.850
 7134POPC   C1A36399  39.189  27.555   8.550
 7134POPC   D2A36400  39.201  27.610   8.250
 7134POPC   C3A36401  39.209  27.601   7.950
 7134POPC   C4A36402  39.212  27.574   7.650
 7134POPC   C1B36403  39.008  27.431   8.550
 7134POPC   C2B36404  39.051  27.452   8.250
 7134POPC   C3B36405  39.024  27.495   7.950
 7134POPC   C4B36406  39.005  27.433   7.650
 7135POPC   NC336407   5.918  41.572   9.450
 7135POPC   PO436408   5.916  41.581   9.150
 7135POPC   GL136409   5.855  41.537   8.850
 7135POPC   GL236410   5.749  41.647   8.850
 7135POPC   C1A36411   5.861  41.604   8.550
 7135POPC   D2A36412   5.850  41.550   8.250
 7135POPC   C3A36413   5.843  41.543   7.950
 7135POPC   C4A36414   5.876  41.591   7.650
 7135POPC   C1B36415   5.623  41.673   8.550
 7135POPC   C2B36416   5.631  41.755   8.250
 7135POPC   C3B36417   5.619  41.745   7.950
 7135POPC   C4B36418   5.672  41.750   7.650
 7136POPC   NC336419  14.452  17.485   9.450
 7136POPC   PO436420  14.392  17.459   9.150
 7136POPC   GL136421  14.370  17.512   8.850
 7136POPC   GL236422  14.394  17.422   8.850
 7136POPC   C1A36423  14.418  17.534   8.550
 7136POPC   D2A36424  14.355  17.472   8.250
 7136POPC   C3A36425  14.382  17.470   7.950
 7136POPC   C4A36426  14.373  17.527   7.650
 7136POPC   C1B36427  14.492  17.247   8.550
 7136POPC   C2B36428  14.427  17.292   8.250
 7136POPC   C3B36429  14.488  17.248   7.950
 7136POPC   C4B36430  14.495  17.266   7.650
 7137POPC   NC336431  16.684  14.380   9.450
 7137POPC   PO436432  16.681  14.420   9.150
 7137POPC   GL136433  16.682  14.429   8.850
 7137POPC   GL236434  16.709  14.282   8.850
 7137POPC   C1A36435  16.685  14.362   8.550
 7137POPC   D2A36436  16.682  14.355   8.250
 7137POPC   C3A36437  16.684  14.371   7.950
 7137POPC   C4A36438  16.746  14.410   7.650
 7137POPC   C1B36439  16.769  14.187   8.550
 7137POPC   C2B36440  16.731  14.173   8.250
 7137POPC   C3B36441  16.783  14.142   7.950
 7137POPC   C4B36442  16.788  14.117   7.650
 7138POPC   NC336443  24.530  26.818   9.450
 7138POPC   PO436444  24.513  26.836   9.150
 7138POPC   GL136445  24.529  26.822   8.850
 7138POPC   GL236446  24.560  26.654   8.850
 7138POPC   C1A36447  24.443  26.780   8.550
 7138POPC   D2A36448  24.456  26.807   8.250
 7138POPC   C3A36449  24.487  26.794   7.950
 7138POPC   C4A36450  24.504  26.862   7.650
 7138POPC   C1B36451  24.606  26.594   8.550
 7138POPC   C2B36452  24.589  26.609   8.250
 7138POPC   C3B36453  24.542  26.570   7.950
 7138POPC   C4B36454  24.544  26.620   7.650
 7139POPC   NC336455   4.346   6.682   9.450
 7139POPC   PO436456   4.334   6.688   9.150
 7139POPC   GL136457   4.311   6.660   8.850
 7139POPC   GL236458   4.372   6.553   8.850
 7139POPC   C1A36459   4.288   6.680   8.550
 7139POPC   D2A36460   4.299   6.603   8.250
 7139POPC   C3A36461   4.279   6.668   7.950
 7139POPC   C4A36462   4.276   6.672   7.650
 7139POPC   C1B36463   4.342   6.358   8.550
 7139POPC   C2B36464   4.337   6.362   8.250
 7139POPC   C3B36465   4.345   6.412   7.950
 7139POPC   C4B36466   4.389   6.444   7.650
 7140POPC   NC336467  37.689  29.960   9.450
 7140POPC   PO436468  37.671  29.921   9.150
 7140POPC   GL136469  37.703  29.884   8.850
 7140POPC   GL236470  37.653  30.021   8.850
 7140POPC   C1A36471  37.720  29.909   8.550
 7140POPC   D2A36472  37.723  29.876   8.250
 7140POPC   C3A36473  37.653  29.873   7.950
 7140POPC   C4A36474  37.638  29.915   7.650
 7140POPC   C1B36475  37.593  30.198   8.550
 7140POPC   C2B36476  37.648  30.207   8.250
 7140POPC   C3B36477  37.642  30.146   7.950
 7140POPC   C4B36478  37.657  30.194   7.650
 7141POPC   NC336479   1.219  12.033   9.450
 7141POPC   PO436480   1.187  12.113   9.150
 7141POPC   GL136481   1.188  12.030   8.850
 7141POPC   GL236482   1.298  12.158   8.850
 7141POPC   C1A36483   1.232  12.077   8.550
 7141POPC   D2A36484   1.202  12.115   8.250
 7141POPC   C3A36485   1.192  12.106   7.950
 7141POPC   C4A36486   1.183  12.095   7.650
 7141POPC   C1B36487   1.296  12.303   8.550
 7141POPC   C2B36488   1.338  12.262   8.250
 7141POPC   C3B36489   1.315  12.256   7.950
 7141POPC   C4B36490   1.269  12.335   7.650
 7142POPC   NC336491  39.971   5.079   9.450
 7142POPC   PO436492  39.987   5.054   9.150
 7142POPC   GL136493  40.001   5.102   8.850
 7142POPC   GL236494  40.159   5.091   8.850
 7142POPC   C1A36495  40.015   5.054   8.550
 7142POPC   D2A36496  39.984   5.109   8.250
 7142POPC   C3A36497  40.016   5.056   7.950
 7142POPC   C4A36498  40.056   5.078   7.650
 7142POPC   C1B36499  40.282   5.079   8.550
 7142POPC   C2B36500  40.263   5.073   8.250
 7142POPC   C3B36501  40.240   5.081   7.950
 7142POPC   C4B36502  40.230   5.125   7.650
 7143POPC   NC336503  27.642  40.735   9.450
 7143POPC   PO436504  27.623  40.830   9.150
 7143POPC   GL136505  27.588  40.788   8.850
 7143POPC   GL236506  27.522  40.870   8.850
 7143POPC   C1A36507  27.608  40.813   8.550
 7143POPC   D2A36508  27.613  40.762   8.250
 7143POPC   C3A36509  27.609  40.776   7.950
 7143POPC   C4A36510  27.588  40.807   7.650
 7143POPC   C1B36511  27.559  41.055   8.550
 7143POPC   C2B36512  27.513  41.037   8.250
 7143POPC   C3B36513  27.505  41.052   7.950
 7143POPC   C4B36514  27.589  41.055   7.650
 7144POPC   NC336515  43.128  33.771   9.450
 7144POPC   PO436516  43.130  33.774   9.150
 7144POPC   GL136517  43.074  33.799   8.850
 7144POPC   GL236518  43.161  33.685   8.850
 7144POPC   C1A36519  43.142  33.814   8.550
 7144POPC   D2A36520  43.074  33.843   8.250
 7144POPC   C3A36521  43.140  33.810   7.950
 7144POPC   C4A36522  43.069  33.832   7.650
 7144POPC   C1B36523  43.234  33.619   8.550
 7144POPC   C2B36524  43.240  33.631   8.250
 7144POPC   C3B36525  43.253  33.616   7.950
 7144POPC   C4B36526  43.239  33.614   7.650
 7145POPC   NC336527   8.240  19.852   9.450
 7145POPC   PO436528   8.229  19.804   9.150
 7145POPC   GL136529   8.182  19.820   8.850
 7145POPC   GL236530   8.089  19.801   8.850
 7145POPC   C1A36531   8.147  19.800   8.550
 7145POPC   D2A36532   8.163  19.878   8.250
 7145POPC   C3A36533   8.169  19.789   7.950
 7145POPC   C4A36534   8.153  19.842   7.650
 7145POPC   C1B36535   7.946  19.814   8.550
 7145POPC   C2B36536   7.937  19.776   8.250
 7145POPC   C3B36537   7.910  19.847   7.950
 7145POPC   C4B36538   7.996  19.812   7.650
 7146POPC   NC336539  14.421  13.629   9.450
 7146POPC   PO436540  14.377  13.602   9.150
 7146POPC   GL136541  14.373  13.616   8.850
 7146POPC   GL236542  14.479  13.566   8.850
 7146POPC   C1A36543  14.402  13.651   8.550
 7146POPC   D2A36544  14.400  13.606   8.250
 7146POPC   C3A36545  14.412  13.668   7.950
 7146POPC   C4A36546  14.453  13.606   7.650
 7146POPC   C1B36547  14.596  13.465   8.550
 7146POPC   C2B36548  14.542  13.424   8.250
 7146POPC   C3B36549  14.599  13.460   7.950
 7146POPC   C4B36550  14.587  13.469   7.650
 7147POPC   NC336551   2.730  13.676   9.450
 7147POPC   PO436552   2.723  13.642   9.150
 7147POPC   GL136553   2.801  13.662   8.850
 7147POPC   GL236554   2.681  13.530   8.850
 7147POPC   C1A36555   2.768  13.643   8.550
 7147POPC   D2A36556   2.754  13.588   8.250
 7147POPC   C3A36557   2.795  13.611   7.950
 7147POPC   C4A36558   2.726  13.596   7.650
 7147POPC   C1B36559   2.666  13.399   8.550
 7147POPC   C2B36560   2.684  13.350   8.250
 7147POPC   C3B36561   2.688  13.411   7.950
 7147POPC   C4B36562   2.675  13.423   7.650
 7148POPC   NC336563  19.816  34.572   9.450
 7148POPC   PO436564  19.846  34.530   9.150
 7148POPC   GL136565  19.860  34.541   8.850
 7148POPC   GL236566  19.857  34.714   8.850
 7148POPC   C1A36567  19.818  34.626   8.550
 7148POPC   D2A36568  19.811  34.598   8.250
 7148POPC   C3A36569  19.837  34.623   7.950
 7148POPC   C4A36570  19.858  34.617   7.650
 7148POPC   C1B36571  19.775  34.823   8.550
 7148POPC   C2B36572  19.834  34.825   8.250
 7148POPC   C3B36573  19.776  34.850   7.950
 7148POPC   C4B36574  19.790  34.791   7.650
 7149POPC   NC336575  10.492  43.848   9.450
 7149POPC   PO436576  10.518  43.909   9.150
 7149POPC   GL136577  10.535  43.843   8.850
 7149POPC   GL236578  10.447  43.928   8.850
 7149POPC   C1A36579  10.563  43.872   8.550
 7149POPC   D2A36580  10.562  43.935   8.250
 7149POPC   C3A36581  10.561  43.936   7.950
 7149POPC   C4A36582  10.561  43.927   7.650
 7149POPC   C1B36583  10.291  43.949   8.550
 7149POPC   C2B36584  10.301  43.882   8.250
 7149POPC   C3B36585  10.240  43.930   7.950
 7149POPC   C4B36586  10.286  43.892   7.650
 7150POPC   NC336587  21.425  32.976   9.450
 7150POPC   PO436588  21.349  33.066   9.150
 7150POPC   GL136589  21.343  33.048   8.850
 7150POPC   GL236590  21.281  32.930   8.850
 7150POPC   C1A36591  21.430  33.025   8.550
 7150POPC   D2A36592  21.414  32.994   8.250
 7150POPC   C3A36593  21.434  33.064   7.950
 7150POPC   C4A36594  21.371  32.982   7.650
 7150POPC   C1B36595  21.237  32.791   8.550
 7150POPC   C2B36596  21.216  32.861   8.250
 7150POPC   C3B36597  21.258  32.859   7.950
 7150POPC   C4B36598  21.231  32.850   7.650
 7151POPC   NC336599  40.008   9.791   9.450
 7151POPC   PO436600  39.982   9.751   9.150
 7151POPC   GL136601  39.999   9.745   8.850
 7151POPC   GL236602  39.938   9.840   8.850
 7151POPC   C1A36603  40.041   9.745   8.550
 7151POPC   D2A36604  40.029   9.710   8.250
 7151POPC   C3A36605  40.049   9.790   7.950
 7151POPC   C4A36606  39.983   9.798   7.650
 7151POPC   C1B36607  39.949   9.960   8.550
 7151POPC   C2B36608  39.906  10.002   8.250
 7151POPC   C3B36609  39.895   9.951   7.950
 7151POPC   C4B36610  39.948   9.981   7.650
 7152POPC   NC336611  40.053  26.050   9.450
 7152POPC   PO436612  40.020  26.060   9.150
 7152POPC   GL136613  39.958  26.013   8.850
 7152POPC   GL236614  39.993  25.888   8.850
 7152POPC   C1A36615  40.039  26.013   8.550
 7152POPC   D2A36616  39.990  26.085   8.250
 7152POPC   C3A36617  40.046  26.007   7.950
 7152POPC   C4A36618  40.028  26.063   7.650
 7152POPC   C1B36619  40.000  25.812   8.550
 7152POPC   C2B36620  39.942  25.792   8.250
 7152POPC   C3B36621  39.947  25.825   7.950
 7152POPC   C4B36622  39.976  25.759   7.650
 7153POPC   NC336623  43.873  10.499   9.450
 7153POPC   PO436624  43.920  10.559   9.150
 7153POPC   GL136625  43.918  10.572   8.850
 7153POPC   GL236626  43.908  10.350   8.850
 7153POPC   C1A36627  43.857  10.569   8.550
 7153POPC   D2A36628  43.927  10.566   8.250
 7153POPC   C3A36629  43.899  10.531   7.950
 7153POPC   C4A36630  43.901  10.567   7.650
 7153POPC   C1B36631  43.887  10.252   8.550
 7153POPC   C2B36632  43.847  10.309   8.250
 7153POPC   C3B36633  43.856  10.295   7.950
 7153POPC   C4B36634  43.898  10.286   7.650
 7154POPC   NC336635  44.675  41.580   9.450
 7154POPC   PO436636  44.694  41.520   9.150
 7154POPC   GL136637  44.644  41.511   8.850
 7154POPC   GL236638  44.638  41.703   8.850
 7154POPC   C1A36639  44.682  41.565   8.550
 7154POPC   D2A36640  44.639  41.583   8.250
 7154POPC   C3A36641  44.640  41.540   7.950
 7154POPC   C4A36642  44.635  41.585   7.650
 7154POPC   C1B36643  44.592  41.769   8.550
 7154POPC   C2B36644  44.604  41.817   8.250
 7154POPC   C3B36645  44.588  41.809   7.950
 7154POPC   C4B36646  44.597  41.808   7.650
 7155POPC   NC336647  29.898  17.477   9.450
 7155POPC   PO436648  29.921  17.480   9.150
 7155POPC   GL136649  29.910  17.545   8.850
 7155POPC   GL236650  30.001  17.453   8.850
 7155POPC   C1A36651  29.920  17.543   8.550
 7155POPC   D2A36652  29.872  17.540   8.250
 7155POPC   C3A36653  29.895  17.553   7.950
 7155POPC   C4A36654  29.906  17.503   7.650
 7155POPC   C1B36655  30.147  17.321   8.550
 7155POPC   C2B36656  30.150  17.310   8.250
 7155POPC   C3B36657  30.074  17.381   7.950
 7155POPC   C4B36658  30.139  17.358   7.650
 7156POPC   NC336659  33.032   4.303   9.450
 7156POPC   PO436660  33.057   4.359   9.150
 7156POPC   GL136661  32.994   4.317   8.850
 7156POPC   GL236662  33.138   4.364   8.850
 7156POPC   C1A36663  33.038   4.338   8.550
 7156POPC   D2A36664  33.013   4.292   8.250
 7156POPC   C3A36665  32.978   4.313   7.950
 7156POPC   C4A36666  32.981   4.357   7.650
 7156POPC   C1B36667  33.250   4.447   8.550
 7156POPC   C2B36668  33.177   4.458   8.250
 7156POPC   C3B36669  33.193   4.514   7.950
 7156POPC   C4B36670  33.267   4.473   7.650
 7157POPC   NC336671  32.989  23.670   9.450
 7157POPC   PO436672  32.981  23.668   9.150
 7157POPC   GL136673  32.986  23.691   8.850
 7157POPC   GL236674  33.159  23.702   8.850
 7157POPC   C1A36675  33.069  23.719   8.550
 7157POPC   D2A36676  33.026  23.746   8.250
 7157POPC   C3A36677  33.009  23.674   7.950
 7157POPC   C4A36678  33.050  23.683   7.650
 7157POPC   C1B36679  33.266  23.705   8.550
 7157POPC   C2B36680  33.259  23.660   8.250
 7157POPC   C3B36681  33.233  23.660   7.950
 7157POPC   C4B36682  33.236  23.731   7.650
 7158POPC   NC336683  24.450  29.127   9.450
 7158POPC   PO436684  24.486  29.175   9.150
 7158POPC   GL136685  24.479  29.195   8.850
 7158POPC   GL236686  24.348  29.119   8.850
 7158POPC   C1A36687  24.501  29.147   8.550
 7158POPC   D2A36688  24.501  29.131   8.250
 7158POPC   C3A36689  24.442  29.172   7.950
 7158POPC   C4A36690  24.471  29.109   7.650
 7158POPC   C1B36691  24.256  29.128   8.550
 7158POPC   C2B36692  24.271  29.147   8.250
 7158POPC   C3B36693  24.233  29.140   7.950
 7158POPC   C4B36694  24.268  29.083   7.650
 7159POPC   NC336695  37.644   5.860   9.450
 7159POPC   PO436696  37.707   5.908   9.150
 7159POPC   GL136697  37.720   5.862   8.850
 7159POPC   GL236698  37.807   5.811   8.850
 7159POPC   C1A36699  37.645   5.856   8.550
 7159POPC   D2A36700  37.683   5.889   8.250
 7159POPC   C3A36701  37.723   5.917   7.950
 7159POPC   C4A36702  37.729   5.831   7.650
 7159POPC   C1B36703  37.906   5.680   8.550
 7159POPC   C2B36704  37.898   5.684   8.250
 7159POPC   C3B36705  37.853   5.704   7.950
 7159POPC   C4B36706  37.928   5.763   7.650
 7160POPC   NC336707  22.184   8.203   9.450
 7160POPC   PO436708  22.140   8.216   9.150
 7160POPC   GL136709  22.208   8.220   8.850
 7160POPC   GL236710  22.285   8.110   8.850
 7160POPC   C1A36711  22.207   8.205   8.550
 7160POPC   D2A36712  22.134   8.169   8.250
 7160POPC   C3A36713  22.176   8.190   7.950
 7160POPC   C4A36714  22.145   8.221   7.650
 7160POPC   C1B36715  22.379   7.968   8.550
 7160POPC   C2B36716  22.363   8.001   8.250
 7160POPC   C3B36717  22.306   7.998   7.950
 7160POPC   C4B36718  22.323   7.981   7.650
 7161POPC   NC336719  28.384  35.315   9.450
 7161POPC   PO436720  28.354  35.378   9.150
 7161POPC   GL136721  28.330  35.401   8.850
 7161POPC   GL236722  28.372  35.447   8.850
 7161POPC   C1A36723  28.402  35.350   8.550
 7161POPC   D2A36724  28.410  35.342   8.250
 7161POPC   C3A36725  28.416  35.302   7.950
 7161POPC   C4A36726  28.357  35.322   7.650
 7161POPC   C1B36727  28.481  35.632   8.550
 7161POPC   C2B36728  28.445  35.605   8.250
 7161POPC   C3B36729  28.404  35.639   7.950
 7161POPC   C4B36730  28.483  35.551   7.650
 7162POPC   NC336731   1.187  11.260   9.450
 7162POPC   PO436732   1.227  11.344   9.150
 7162POPC   GL136733   1.178  11.307   8.850
 7162POPC   GL236734   1.356  11.229   8.850
 7162POPC   C1A36735   1.226  11.348   8.550
 7162POPC   D2A36736   1.219  11.289   8.250
 7162POPC   C3A36737   1.184  11.291   7.950
 7162POPC   C4A36738   1.243  11.336   7.650
 7162POPC   C1B36739   1.477  11.203   8.550
 7162POPC   C2B36740   1.423  11.263   8.250
 7162POPC   C3B36741   1.464  11.267   7.950
 7162POPC   C4B36742   1.441  11.266   7.650
 7163POPC   NC336743  39.278  26.797   9.450
 7163POPC   PO436744  39.195  26.856   9.150
 7163POPC   GL136745  39.182  26.825   8.850
 7163POPC   GL236746  39.095  26.913   8.850
 7163POPC   C1A36747  39.231  26.794   8.550
 7163POPC   D2A36748  39.259  26.803   8.250
 7163POPC   C3A36749  39.253  26.809   7.950
 7163POPC   C4A36750  39.208  26.854   7.650
 7163POPC   C1B36751  39.066  26.976   8.550
 7163POPC   C2B36752  39.030  27.006   8.250
 7163POPC   C3B36753  38.996  26.928   7.950
 7163POPC   C4B36754  39.067  26.936   7.650
 7164POPC   NC336755   1.182  43.142   9.450
 7164POPC   PO436756   1.252  43.141   9.150
 7164POPC   GL136757   1.258  43.159   8.850
 7164POPC   GL236758   1.195  43.224   8.850
 7164POPC   C1A36759   1.259  43.121   8.550
 7164POPC   D2A36760   1.223  43.127   8.250
 7164POPC   C3A36761   1.166  43.076   7.950
 7164POPC   C4A36762   1.182  43.146   7.650
 7164POPC   C1B36763   1.171  43.325   8.550
 7164POPC   C2B36764   1.145  43.336   8.250
 7164POPC   C3B36765   1.155  43.389   7.950
 7164POPC   C4B36766   1.229  43.374   7.650
 7165POPC   NC336767  35.338  14.407   9.450
 7165POPC   PO436768  35.320  14.440   9.150
 7165POPC   GL136769  35.320  14.403   8.850
 7165POPC   GL236770  35.281  14.562   8.850
 7165POPC   C1A36771  35.328  14.387   8.550
 7165POPC   D2A36772  35.392  14.416   8.250
 7165POPC   C3A36773  35.395  14.393   7.950
 7165POPC   C4A36774  35.324  14.370   7.650
 7165POPC   C1B36775  35.274  14.598   8.550
 7165POPC   C2B36776  35.273  14.614   8.250
 7165POPC   C3B36777  35.279  14.628   7.950
 7165POPC   C4B36778  35.205  14.609   7.650
 7166POPC   NC336779  32.271   0.390   9.450
 7166POPC   PO436780  32.211   0.410   9.150
 7166POPC   GL136781  32.289   0.443   8.850
 7166POPC   GL236782  32.212   0.567   8.850
 7166POPC   C1A36783  32.298   0.399   8.550
 7166POPC   D2A36784  32.232   0.468   8.250
 7166POPC   C3A36785  32.222   0.400   7.950
 7166POPC   C4A36786  32.290   0.444   7.650
 7166POPC   C1B36787  32.167   0.673   8.550
 7166POPC   C2B36788  32.207   0.636   8.250
 7166POPC   C3B36789  32.161   0.713   7.950
 7166POPC   C4B36790  32.183   0.679   7.650
 7167POPC   NC336791   9.736  43.112   9.450
 7167POPC   PO436792   9.781  43.159   9.150
 7167POPC   GL136793   9.702  43.100   8.850
 7167POPC   GL236794   9.834  42.989   8.850
 7167POPC   C1A36795   9.725  43.119   8.550
 7167POPC   D2A36796   9.789  43.109   8.250
 7167POPC   C3A36797   9.719  43.062   7.950
 7167POPC   C4A36798   9.724  43.072   7.650
 7167POPC   C1B36799   9.927  42.870   8.550
 7167POPC   C2B36800   9.890  42.947   8.250
 7167POPC   C3B36801   9.943  42.896   7.950
 7167POPC   C4B36802   9.934  42.906   7.650
 7168POPC   NC336803  29.180  43.837   9.450
 7168POPC   PO436804  29.112  43.851   9.150
 7168POPC   GL136805  29.141  43.895   8.850
 7168POPC   GL236806  29.278  43.922   8.850
 7168POPC   C1A36807  29.178  43.865   8.550
 7168POPC   D2A36808  29.156  43.894   8.250
 7168POPC   C3A36809  29.101  43.871   7.950
 7168POPC   C4A36810  29.158  43.898   7.650
 7168POPC   C1B36811  29.311  44.073   8.550
 7168POPC   C2B36812  29.321  44.069   8.250
 7168POPC   C3B36813  29.339  44.091   7.950
 7168POPC   C4B36814  29.348  44.008   7.650
 7169POPC   NC336815  42.372  19.064   9.450
 7169POPC   PO436816  42.287  19.073   9.150
 7169POPC   GL136817  42.362  19.083   8.850
 7169POPC   GL236818  42.326  19.154   8.850
 7169POPC   C1A36819  42.344  19.017   8.550
 7169POPC   D2A36820  42.328  19.077   8.250
 7169POPC   C3A36821  42.343  19.068   7.950
 7169POPC   C4A36822  42.329  19.015   7.650
 7169POPC   C1B36823  42.385  19.354   8.550
 7169POPC   C2B36824  42.406  19.327   8.250
 7169POPC   C3B36825  42.345  19.282   7.950
 7169POPC   C4B36826  42.407  19.291   7.650
 7170POPC   NC336827  15.185  36.130   9.450
 7170POPC   PO436828  15.228  36.123   9.150
 7170POPC   GL136829  15.203  36.082   8.850
 7170POPC   GL236830  15.050  36.211   8.850
 7170POPC   C1A36831  15.225  36.145   8.550
 7170POPC   D2A36832  15.137  36.116   8.250
 7170POPC   C3A36833  15.176  36.164   7.950
 7170POPC   C4A36834  15.190  36.110   7.650
 7170POPC   C1B36835  14.995  36.333   8.550
 7170POPC   C2B36836  15.007  36.257   8.250
 7170POPC   C3B36837  14.982  36.299   7.950
 7170POPC   C4B36838  14.967  36.300   7.650
 7171POPC   NC336839  29.103   2.739   9.450
 7171POPC   PO436840  29.186   2.784   9.150
 7171POPC   GL136841  29.147   2.756   8.850
 7171POPC   GL236842  29.000   2.757   8.850
 7171POPC   C1A36843  29.169   2.772   8.550
 7171POPC   D2A36844  29.105   2.748   8.250
 7171POPC   C3A36845  29.187   2.773   7.950
 7171POPC   C4A36846  29.159   2.812   7.650
 7171POPC   C1B36847  28.891   2.635   8.550
 7171POPC   C2B36848  28.947   2.629   8.250
 7171POPC   C3B36849  28.938   2.673   7.950
 7171POPC   C4B36850  28.941   2.689   7.650
 7172POPC   NC336851  13.650   4.318   9.450
 7172POPC   PO436852  13.611   4.309   9.150
 7172POPC   GL136853  13.674   4.356   8.850
 7172POPC   GL236854  13.496   4.355   8.850
 7172POPC   C1A36855  13.616   4.339   8.550
 7172POPC   D2A36856  13.643   4.338   8.250
 7172POPC   C3A36857  13.627   4.366   7.950
 7172POPC   C4A36858  13.611   4.286   7.650
 7172POPC   C1B36859  13.396   4.491   8.550
 7172POPC   C2B36860  13.429   4.473   8.250
 7172POPC   C3B36861  13.372   4.418   7.950
 7172POPC   C4B36862  13.449   4.435   7.650
 7173POPC   NC336863  20.617  38.419   9.450
 7173POPC   PO436864  20.569  38.503   9.150
 7173POPC   GL136865  20.574  38.471   8.850
 7173POPC   GL236866  20.477  38.386   8.850
 7173POPC   C1A36867  20.634  38.433   8.550
 7173POPC   D2A36868  20.587  38.472   8.250
 7173POPC   C3A36869  20.564  38.467   7.950
 7173POPC   C4A36870  20.581  38.485   7.650
 7173POPC   C1B36871  20.350  38.340   8.550
 7173POPC   C2B36872  20.412  38.378   8.250
 7173POPC   C3B36873  20.336  38.340   7.950
 7173POPC   C4B36874  20.372  38.426   7.650
 7174POPC   NC336875   9.735  27.552   9.450
 7174POPC   PO436876   9.709  27.600   9.150
 7174POPC   GL136877   9.770  27.546   8.850
 7174POPC   GL236878   9.655  27.613   8.850
 7174POPC   C1A36879   9.715  27.566   8.550
 7174POPC   D2A36880   9.747  27.553   8.250
 7174POPC   C3A36881   9.705  27.620   7.950
 7174POPC   C4A36882   9.724  27.632   7.650
 7174POPC   C1B36883   9.551  27.689   8.550
 7174POPC   C2B36884   9.538  27.666   8.250
 7174POPC   C3B36885   9.565  27.723   7.950
 7174POPC   C4B36886   9.542  27.681   7.650
 7175POPC   NC336887  36.123  43.141   9.450
 7175POPC   PO436888  36.111  43.069   9.150
 7175POPC   GL136889  36.117  43.114   8.850
 7175POPC   GL236890  36.230  43.138   8.850
 7175POPC   C1A36891  36.130  43.093   8.550
 7175POPC   D2A36892  36.095  43.133   8.250
 7175POPC   C3A36893  36.142  43.069   7.950
 7175POPC   C4A36894  36.112  43.122   7.650
 7175POPC   C1B36895  36.409  43.109   8.550
 7175POPC   C2B36896  36.360  43.142   8.250
 7175POPC   C3B36897  36.369  43.164   7.950
 7175POPC   C4B36898  36.371  43.119   7.650
 7176POPC   NC336899  40.830  39.228   9.450
 7176POPC   PO436900  40.787  39.268   9.150
 7176POPC   GL136901  40.743  39.267   8.850
 7176POPC   GL236902  40.696  39.127   8.850
 7176POPC   C1A36903  40.816  39.195   8.550
 7176POPC   D2A36904  40.754  39.244   8.250
 7176POPC   C3A36905  40.811  39.213   7.950
 7176POPC   C4A36906  40.789  39.188   7.650
 7176POPC   C1B36907  40.647  38.957   8.550
 7176POPC   C2B36908  40.681  38.971   8.250
 7176POPC   C3B36909  40.643  39.043   7.950
 7176POPC   C4B36910  40.642  39.008   7.650
 7177POPC   NC336911  37.695  29.167   9.450
 7177POPC   PO436912  37.722  29.118   9.150
 7177POPC   GL136913  37.649  29.177   8.850
 7177POPC   GL236914  37.629  29.010   8.850
 7177POPC   C1A36915  37.638  29.098   8.550
 7177POPC   D2A36916  37.633  29.132   8.250
 7177POPC   C3A36917  37.718  29.112   7.950
 7177POPC   C4A36918  37.679  29.169   7.650
 7177POPC   C1B36919  37.501  29.017   8.550
 7177POPC   C2B36920  37.456  28.945   8.250
 7177POPC   C3B36921  37.530  28.938   7.950
 7177POPC   C4B36922  37.520  28.986   7.650
 7178POPC   NC336923  29.916  15.220   9.450
 7178POPC   PO436924  29.905  15.136   9.150
 7178POPC   GL136925  29.945  15.136   8.850
 7178POPC   GL236926  29.886  15.330   8.850
 7178POPC   C1A36927  29.901  15.217   8.550
 7178POPC   D2A36928  29.926  15.138   8.250
 7178POPC   C3A36929  29.892  15.217   7.950
 7178POPC   C4A36930  29.934  15.155   7.650
 7178POPC   C1B36931  29.939  15.417   8.550
 7178POPC   C2B36932  29.949  15.454   8.250
 7178POPC   C3B36933  29.942  15.446   7.950
 7178POPC   C4B36934  29.942  15.435   7.650
 7179POPC   NC336935  36.097  36.088   9.450
 7179POPC   PO436936  36.108  36.156   9.150
 7179POPC   GL136937  36.092  36.088   8.850
 7179POPC   GL236938  36.154  36.043   8.850
 7179POPC   C1A36939  36.114  36.106   8.550
 7179POPC   D2A36940  36.132  36.171   8.250
 7179POPC   C3A36941  36.106  36.173   7.950
 7179POPC   C4A36942  36.165  36.144   7.650
 7179POPC   C1B36943  36.242  35.909   8.550
 7179POPC   C2B36944  36.263  35.875   8.250
 7179POPC   C3B36945  36.280  35.949   7.950
 7179POPC   C4B36946  36.233  35.875   7.650
 7180POPC   NC336947  22.119  16.687   9.450
 7180POPC   PO436948  22.206  16.732   9.150
 7180POPC   GL136949  22.179  16.754   8.850
 7180POPC   GL236950  22.260  16.640   8.850
 7180POPC   C1A36951  22.118  16.769   8.550
 7180POPC   D2A36952  22.166  16.701   8.250
 7180POPC   C3A36953  22.158  16.690   7.950
 7180POPC   C4A36954  22.131  16.771   7.650
 7180POPC   C1B36955  22.372  16.653   8.550
 7180POPC   C2B36956  22.373  16.660   8.250
 7180POPC   C3B36957  22.414  16.655   7.950
 7180POPC   C4B36958  22.417  16.632   7.650
 7181POPC   NC336959  20.639  15.976   9.450
 7181POPC   PO436960  20.621  15.939   9.150
 7181POPC   GL136961  20.634  15.915   8.850
 7181POPC   GL236962  20.513  15.928   8.850
 7181POPC   C1A36963  20.634  16.000   8.550
 7181POPC   D2A36964  20.571  15.949   8.250
 7181POPC   C3A36965  20.655  15.995   7.950
 7181POPC   C4A36966  20.658  16.000   7.650
 7181POPC   C1B36967  20.418  15.864   8.550
 7181POPC   C2B36968  20.410  15.826   8.250
 7181POPC   C3B36969  20.364  15.831   7.950
 7181POPC   C4B36970  20.426  15.812   7.650
 7182POPC   NC336971   4.332  30.744   9.450
 7182POPC   PO436972   4.281  30.675   9.150
 7182POPC   GL136973   4.307  30.699   8.850
 7182POPC   GL236974   4.213  30.569   8.850
 7182POPC   C1A36975   4.290  30.708   8.550
 7182POPC   D2A36976   4.307  30.707   8.250
 7182POPC   C3A36977   4.344  30.667   7.950
 7182POPC   C4A36978   4.319  30.665   7.650
 7182POPC   C1B36979   4.199  30.474   8.550
 7182POPC   C2B36980   4.191  30.454   8.250
 7182POPC   C3B36981   4.158  30.519   7.950
 7182POPC   C4B36982   4.124  30.512   7.650
 7183POPC   NC336983  37.706  13.630   9.450
 7183POPC   PO436984  37.683  13.646   9.150
 7183POPC   GL136985  37.661  13.628   8.850
 7183POPC   GL236986  37.839  13.662   8.850
 7183POPC   C1A36987  37.656  13.626   8.550
 7183POPC   D2A36988  37.648  13.647   8.250
 7183POPC   C3A36989  37.668  13.636   7.950
 7183POPC   C4A36990  37.642  13.611   7.650
 7183POPC   C1B36991  37.866  13.685   8.550
 7183POPC   C2B36992  37.938  13.739   8.250
 7183POPC   C3B36993  37.934  13.735   7.950
 7183POPC   C4B36994  37.927  13.758   7.650
 7184POPC   NC336995  43.064   6.642   9.450
 7184POPC   PO436996  43.138   6.619   9.150
 7184POPC   GL136997  43.064   6.661   8.850
 7184POPC   GL236998  43.181   6.545   8.850
 7184POPC   C1A36999  43.103   6.664   8.550
 7184POPC   D2A37000  43.101   6.605   8.250
 7184POPC   C3A37001  43.072   6.658   7.950
 7184POPC   C4A37002  43.137   6.673   7.650
 7184POPC   C1B37003  43.159   6.399   8.550
 7184POPC   C2B37004  43.191   6.398   8.250
 7184POPC   C3B37005  43.187   6.390   7.950
 7184POPC   C4B37006  43.206   6.449   7.650
 7185POPC   NC337007  41.554   9.002   9.450
 7185POPC   PO437008  41.561   8.951   9.150
 7185POPC   GL137009  41.602   8.929   8.850
 7185POPC   GL237010  41.435   9.002   8.850
 7185POPC   C1A37011  41.528   8.931   8.550
 7185POPC   D2A37012  41.547   8.977   8.250
 7185POPC   C3A37013  41.598   8.962   7.950
 7185POPC   C4A37014  41.608   9.012   7.650
 7185POPC   C1B37015  41.368   9.056   8.550
 7185POPC   C2B37016  41.337   9.078   8.250
 7185POPC   C3B37017  41.336   9.143   7.950
 7185POPC   C4B37018  41.303   9.136   7.650
 7186POPC   NC337019  40.735  21.382   9.450
 7186POPC   PO437020  40.735  21.373   9.150
 7186POPC   GL137021  40.762  21.422   8.850
 7186POPC   GL237022  40.734  21.557   8.850
 7186POPC   C1A37023  40.757  21.364   8.550
 7186POPC   D2A37024  40.782  21.353   8.250
 7186POPC   C3A37025  40.797  21.421   7.950
 7186POPC   C4A37026  40.819  21.337   7.650
 7186POPC   C1B37027  40.677  21.615   8.550
 7186POPC   C2B37028  40.765  21.659   8.250
 7186POPC   C3B37029  40.724  21.659   7.950
 7186POPC   C4B37030  40.744  21.615   7.650
 7187POPC   NC337031   1.943  29.171   9.450
 7187POPC   PO437032   2.014  29.184   9.150
 7187POPC   GL137033   2.038  29.121   8.850
 7187POPC   GL237034   2.114  29.168   8.850
 7187POPC   C1A37035   1.993  29.173   8.550
 7187POPC   D2A37036   2.020  29.136   8.250
 7187POPC   C3A37037   1.955  29.194   7.950
 7187POPC   C4A37038   1.993  29.151   7.650
 7187POPC   C1B37039   2.250  29.180   8.550
 7187POPC   C2B37040   2.218  29.129   8.250
 7187POPC   C3B37041   2.243  29.161   7.950
 7187POPC   C4B37042   2.234  29.179   7.650
 7188POPC   NC337043  27.632  40.053   9.450
 7188POPC   PO437044  27.641  40.035   9.150
 7188POPC   GL137045  27.582  40.004   8.850
 7188POPC   GL237046  27.590  39.916   8.850
 7188POPC   C1A37047  27.594  40.001   8.550
 7188POPC   D2A37048  27.605  40.038   8.250
 7188POPC   C3A37049  27.565  40.014   7.950
 7188POPC   C4A37050  27.554  40.022   7.650
 7188POPC   C1B37051  27.675  39.817   8.550
 7188POPC   C2B37052  27.718  39.725   8.250
 7188POPC   C3B37053  27.678  39.756   7.950
 7188POPC   C4B37054  27.690  39.730   7.650
 7189POPC   NC337055  23.741  26.788   9.450
 7189POPC   PO437056  23.759  26.855   9.150
 7189POPC   GL137057  23.687  26.859   8.850
 7189POPC   GL237058  23.579  26.815   8.850
 7189POPC   C1A37059  23.761  26.804   8.550
 7189POPC   D2A37060  23.753  26.843   8.250
 7189POPC   C3A37061  23.675  26.794   7.950
 7189POPC   C4A37062  23.676  26.847   7.650
 7189POPC   C1B37063  23.475  26.694   8.550
 7189POPC   C2B37064  23.494  26.685   8.250
 7189POPC   C3B37065  23.452  26.759   7.950
 7189POPC   C4B37066  23.500  26.767   7.650
 7190POPC   NC337067  29.164   5.885   9.450
 7190POPC   PO437068  29.115   5.856   9.150
 7190POPC   GL137069  29.165   5.895   8.850
 7190POPC   GL237070  29.003   5.782   8.850
 7190POPC   C1A37071  29.108   5.843   8.550
 7190POPC   D2A37072  29.167   5.876   8.250
 7190POPC   C3A37073  29.103   5.893   7.950
 7190POPC   C4A37074  29.158   5.860   7.650
 7190POPC   C1B37075  28.892   5.766   8.550
 7190POPC   C2B37076  28.893   5.771   8.250
 7190POPC   C3B37077  28.939   5.708   7.950
 7190POPC   C4B37078  28.885   5.707   7.650
 7191POPC   NC337079  41.577   7.375   9.450
 7191POPC   PO437080  41.542   7.426   9.150
 7191POPC   GL137081  41.552   7.401   8.850
 7191POPC   GL237082  41.515   7.310   8.850
 7191POPC   C1A37083  41.565   7.407   8.550
 7191POPC   D2A37084  41.561   7.468   8.250
 7191POPC   C3A37085  41.539   7.443   7.950
 7191POPC   C4A37086  41.576   7.432   7.650
 7191POPC   C1B37087  41.535   7.131   8.550
 7191POPC   C2B37088  41.529   7.134   8.250
 7191POPC   C3B37089  41.541   7.146   7.950
 7191POPC   C4B37090  41.528   7.151   7.650
 7192POPC   NC337091  15.148  12.878   9.450
 7192POPC   PO437092  15.199  12.814   9.150
 7192POPC   GL137093  15.210  12.804   8.850
 7192POPC   GL237094  15.200  12.998   8.850
 7192POPC   C1A37095  15.184  12.847   8.550
 7192POPC   D2A37096  15.198  12.892   8.250
 7192POPC   C3A37097  15.193  12.832   7.950
 7192POPC   C4A37098  15.214  12.874   7.650
 7192POPC   C1B37099  15.286  13.080   8.550
 7192POPC   C2B37100  15.278  13.080   8.250
 7192POPC   C3B37101  15.324  13.064   7.950
 7192POPC   C4B37102  15.358  13.079   7.650
 7193POPC   NC337103  26.054  24.498   9.450
 7193POPC   PO437104  26.087  24.483   9.150
 7193POPC   GL137105  26.001  24.503   8.850
 7193POPC   GL237106  25.871  24.482   8.850
 7193POPC   C1A37107  26.006  24.488   8.550
 7193POPC   D2A37108  26.088  24.498   8.250
 7193POPC   C3A37109  26.073  24.512   7.950
 7193POPC   C4A37110  26.041  24.469   7.650
 7193POPC   C1B37111  25.777  24.517   8.550
 7193POPC   C2B37112  25.800  24.500   8.250
 7193POPC   C3B37113  25.839  24.444   7.950
 7193POPC   C4B37114  25.837  24.461   7.650
 7194POPC   NC337115  35.365   7.424   9.450
 7194POPC   PO437116  35.399   7.388   9.150
 7194POPC   GL137117  35.328   7.465   8.850
 7194POPC   GL237118  35.481   7.379   8.850
 7194POPC   C1A37119  35.343   7.428   8.550
 7194POPC   D2A37120  35.306   7.416   8.250
 7194POPC   C3A37121  35.377   7.463   7.950
 7194POPC   C4A37122  35.396   7.380   7.650
 7194POPC   C1B37123  35.571   7.258   8.550
 7194POPC   C2B37124  35.557   7.290   8.250
 7194POPC   C3B37125  35.502   7.217   7.950
 7194POPC   C4B37126  35.534   7.204   7.650
 7195POPC   NC337127  21.416  33.778   9.450
 7195POPC   PO437128  21.364  33.786   9.150
 7195POPC   GL137129  21.403  33.774   8.850
 7195POPC   GL237130  21.327  33.668   8.850
 7195POPC   C1A37131  21.362  33.764   8.550
 7195POPC   D2A37132  21.431  33.783   8.250
 7195POPC   C3A37133  21.345  33.784   7.950
 7195POPC   C4A37134  21.353  33.793   7.650
 7195POPC   C1B37135  21.209  33.630   8.550
 7195POPC   C2B37136  21.226  33.623   8.250
 7195POPC   C3B37137  21.162  33.588   7.950
 7195POPC   C4B37138  21.206  33.607   7.650
 7196POPC   NC337139   3.578   7.377   9.450
 7196POPC   PO437140   3.584   7.388   9.150
 7196POPC   GL137141   3.577   7.396   8.850
 7196POPC   GL237142   3.601   7.375   8.850
 7196POPC   C1A37143   3.549   7.465   8.550
 7196POPC   D2A37144   3.499   7.430   8.250
 7196POPC   C3A37145   3.520   7.445   7.950
 7196POPC   C4A37146   3.577   7.436   7.650
 7196POPC   C1B37147   3.763   7.284   8.550
 7196POPC   C2B37148   3.708   7.215   8.250
 7196POPC   C3B37149   3.759   7.251   7.950
 7196POPC   C4B37150   3.740   7.219   7.650
 7197POPC   NC337151   0.417  32.261   9.450
 7197POPC   PO437152   0.419  32.260   9.150
 7197POPC   GL137153   0.464  32.289   8.850
 7197POPC   GL237154   0.533  32.321   8.850
 7197POPC   C1A37155   0.390  32.266   8.550
 7197POPC   D2A37156   0.468  32.261   8.250
 7197POPC   C3A37157   0.477  32.270   7.950
 7197POPC   C4A37158   0.473  32.234   7.650
 7197POPC   C1B37159   0.526  32.460   8.550
 7197POPC   C2B37160   0.548  32.439   8.250
 7197POPC   C3B37161   0.511  32.469   7.950
 7197POPC   C4B37162   0.498  32.452   7.650
 7198POPC   NC337163   6.609  29.966   9.450
 7198POPC   PO437164   6.641  29.943   9.150
 7198POPC   GL137165   6.673  29.935   8.850
 7198POPC   GL237166   6.770  30.014   8.850
 7198POPC   C1A37167   6.610  29.881   8.550
 7198POPC   D2A37168   6.652  29.894   8.250
 7198POPC   C3A37169   6.649  29.963   7.950
 7198POPC   C4A37170   6.604  29.944   7.650
 7198POPC   C1B37171   6.842  30.069   8.550
 7198POPC   C2B37172   6.884  30.017   8.250
 7198POPC   C3B37173   6.846  30.065   7.950
 7198POPC   C4B37174   6.897  30.001   7.650
 7199POPC   NC337175  42.353  10.493   9.450
 7199POPC   PO437176  42.344  10.550   9.150
 7199POPC   GL137177  42.349  10.553   8.850
 7199POPC   GL237178  42.266  10.610   8.850
 7199POPC   C1A37179  42.315  10.511   8.550
 7199POPC   D2A37180  42.368  10.524   8.250
 7199POPC   C3A37181  42.348  10.515   7.950
 7199POPC   C4A37182  42.304  10.571   7.650
 7199POPC   C1B37183  42.256  10.795   8.550
 7199POPC   C2B37184  42.275  10.792   8.250
 7199POPC   C3B37185  42.287  10.793   7.950
 7199POPC   C4B37186  42.317  10.767   7.650
 7200POPC   NC337187   9.732   4.299   9.450
 7200POPC   PO437188   9.772   4.338   9.150
 7200POPC   GL137189   9.717   4.358   8.850
 7200POPC   GL237190   9.632   4.343   8.850
 7200POPC   C1A37191   9.762   4.329   8.550
 7200POPC   D2A37192   9.730   4.335   8.250
 7200POPC   C3A37193   9.711   4.361   7.950
 7200POPC   C4A37194   9.766   4.343   7.650
 7200POPC   C1B37195   9.491   4.364   8.550
 7200POPC   C2B37196   9.531   4.349   8.250
 7200POPC   C3B37197   9.460   4.364   7.950
 7200POPC   C4B37198   9.487   4.358   7.650
 7201POPC   NC337199  39.256   5.121   9.450
 7201POPC   PO437200  39.246   5.118   9.150
 7201POPC   GL137201  39.243   5.136   8.850
 7201POPC   GL237202  39.358   5.056   8.850
 7201POPC   C1A37203  39.270   5.065   8.550
 7201POPC   D2A37204  39.277   5.070   8.250
 7201POPC   C3A37205  39.182   5.080   7.950
 7201POPC   C4A37206  39.245   5.139   7.650
 7201POPC   C1B37207  39.500   5.070   8.550
 7201POPC   C2B37208  39.488   5.110   8.250
 7201POPC   C3B37209  39.514   5.108   7.950
 7201POPC   C4B37210  39.507   5.128   7.650
 7202POPC   NC337211  38.406  20.582   9.450
 7202POPC   PO437212  38.490  20.562   9.150
 7202POPC   GL137213  38.495  20.596   8.850
 7202POPC   GL237214  38.350  20.479   8.850
 7202POPC   C1A37215  38.422  20.657   8.550
 7202POPC   D2A37216  38.441  20.654   8.250
 7202POPC   C3A37217  38.488  20.659   7.950
 7202POPC   C4A37218  38.467  20.603   7.650
 7202POPC   C1B37219  38.317  20.479   8.550
 7202POPC   C2B37220  38.281  20.392   8.250
 7202POPC   C3B37221  38.310  20.427   7.950
 7202POPC   C4B37222  38.286  20.397   7.650
 7203POPC   NC337223  40.764   1.964   9.450
 7203POPC   PO437224  40.750   1.950   9.150
 7203POPC   GL137225  40.823   1.966   8.850
 7203POPC   GL237226  40.896   2.007   8.850
 7203POPC   C1A37227  40.773   1.957   8.550
 7203POPC   D2A37228  40.789   1.992   8.250
 7203POPC   C3A37229  40.825   1.995   7.950
 7203POPC   C4A37230  40.775   1.986   7.650
 7203POPC   C1B37231  40.993   2.062   8.550
 7203POPC   C2B37232  41.043   2.143   8.250
 7203POPC   C3B37233  41.003   2.107   7.950
 7203POPC   C4B37234  41.026   2.131   7.650
 7204POPC   NC337235   8.174  10.515   9.450
 7204POPC   PO437236   8.239  10.512   9.150
 7204POPC   GL137237   8.220  10.530   8.850
 7204POPC   GL237238   8.232  10.621   8.850
 7204POPC   C1A37239   8.228  10.498   8.550
 7204POPC   D2A37240   8.243  10.482   8.250
 7204POPC   C3A37241   8.240  10.565   7.950
 7204POPC   C4A37242   8.229  10.556   7.650
 7204POPC   C1B37243   8.335  10.797   8.550
 7204POPC   C2B37244   8.335  10.791   8.250
 7204POPC   C3B37245   8.324  10.762   7.950
 7204POPC   C4B37246   8.301  10.777   7.650
 7205POPC   NC337247   2.748  43.888   9.450
 7205POPC   PO437248   2.796  43.887   9.150
 7205POPC   GL137249   2.757  43.928   8.850
 7205POPC   GL237250   2.612  43.971   8.850
 7205POPC   C1A37251   2.723  43.858   8.550
 7205POPC   D2A37252   2.727  43.883   8.250
 7205POPC   C3A37253   2.801  43.890   7.950
 7205POPC   C4A37254   2.722  43.861   7.650
 7205POPC   C1B37255   2.600  43.988   8.550
 7205POPC   C2B37256   2.571  44.009   8.250
 7205POPC   C3B37257   2.536  43.969   7.950
 7205POPC   C4B37258   2.537  43.987   7.650
 7206POPC   NC337259  17.487   1.200   9.450
 7206POPC   PO437260  17.510   1.169   9.150
 7206POPC   GL137261  17.465   1.240   8.850
 7206POPC   GL237262  17.382   1.230   8.850
 7206POPC   C1A37263  17.554   1.259   8.550
 7206POPC   D2A37264  17.499   1.192   8.250
 7206POPC   C3A37265  17.532   1.230   7.950
 7206POPC   C4A37266  17.535   1.224   7.650
 7206POPC   C1B37267  17.271   1.266   8.550
 7206POPC   C2B37268  17.258   1.245   8.250
 7206POPC   C3B37269  17.289   1.224   7.950
 7206POPC   C4B37270  17.222   1.274   7.650
 7207POPC   NC337271  29.110   6.639   9.450
 7207POPC   PO437272  29.181   6.650   9.150
 7207POPC   GL137273  29.153   6.649   8.850
 7207POPC   GL237274  29.117   6.793   8.850
 7207POPC   C1A37275  29.116   6.652   8.550
 7207POPC   D2A37276  29.141   6.671   8.250
 7207POPC   C3A37277  29.173   6.663   7.950
 7207POPC   C4A37278  29.124   6.672   7.650
 7207POPC   C1B37279  29.118   6.920   8.550
 7207POPC   C2B37280  29.104   6.931   8.250
 7207POPC   C3B37281  29.123   6.911   7.950
 7207POPC   C4B37282  29.133   6.905   7.650
 7208POPC   NC337283  28.335  19.073   9.450
 7208POPC   PO437284  28.377  19.068   9.150
 7208POPC   GL137285  28.363  19.090   8.850
 7208POPC   GL237286  28.292  19.020   8.850
 7208POPC   C1A37287  28.351  19.010   8.550
 7208POPC   D2A37288  28.382  19.081   8.250
 7208POPC   C3A37289  28.327  19.038   7.950
 7208POPC   C4A37290  28.383  19.024   7.650
 7208POPC   C1B37291  28.126  19.026   8.550
 7208POPC   C2B37292  28.141  19.034   8.250
 7208POPC   C3B37293  28.161  18.984   7.950
 7208POPC   C4B37294  28.126  18.945   7.650
 7209POPC   NC337295  29.916  22.186   9.450
 7209POPC   PO437296  29.949  22.113   9.150
 7209POPC   GL137297  29.947  22.124   8.850
 7209POPC   GL237298  30.039  22.251   8.850
 7209POPC   C1A37299  29.949  22.119   8.550
 7209POPC   D2A37300  29.875  22.200   8.250
 7209POPC   C3A37301  29.871  22.168   7.950
 7209POPC   C4A37302  29.905  22.165   7.650
 7209POPC   C1B37303  30.026  22.394   8.550
 7209POPC   C2B37304  30.050  22.313   8.250
 7209POPC   C3B37305  30.091  22.320   7.950
 7209POPC   C4B37306  30.093  22.339   7.650
 7210POPC   NC337307  23.665   5.087   9.450
 7210POPC   PO437308  23.675   5.053   9.150
 7210POPC   GL137309  23.670   5.121   8.850
 7210POPC   GL237310  23.788   5.024   8.850
 7210POPC   C1A37311  23.762   5.058   8.550
 7210POPC   D2A37312  23.759   5.053   8.250
 7210POPC   C3A37313  23.674   5.054   7.950
 7210POPC   C4A37314  23.691   5.103   7.650
 7210POPC   C1B37315  23.916   4.954   8.550
 7210POPC   C2B37316  23.908   4.917   8.250
 7210POPC   C3B37317  23.954   4.992   7.950
 7210POPC   C4B37318  23.868   4.988   7.650
 7211POPC   NC337319  29.124  43.097   9.450
 7211POPC   PO437320  29.148  43.080   9.150
 7211POPC   GL137321  29.180  43.155   8.850
 7211POPC   GL237322  29.052  43.209   8.850
 7211POPC   C1A37323  29.156  43.067   8.550
 7211POPC   D2A37324  29.177  43.152   8.250
 7211POPC   C3A37325  29.112  43.135   7.950
 7211POPC   C4A37326  29.143  43.155   7.650
 7211POPC   C1B37327  28.948  43.215   8.550
 7211POPC   C2B37328  28.878  43.175   8.250
 7211POPC   C3B37329  28.923  43.243   7.950
 7211POPC   C4B37330  28.936  43.186   7.650
 7212POPC   NC337331   2.033  15.136   9.450
 7212POPC   PO437332   1.964  15.178   9.150
 7212POPC   GL137333   2.019  15.190   8.850
 7212POPC   GL237334   2.022  15.330   8.850
 7212POPC   C1A37335   2.018  15.215   8.550
 7212POPC   D2A37336   2.028  15.201   8.250
 7212POPC   C3A37337   1.990  15.135   7.950
 7212POPC   C4A37338   1.988  15.144   7.650
 7212POPC   C1B37339   2.006  15.440   8.550
 7212POPC   C2B37340   1.991  15.398   8.250
 7212POPC   C3B37341   2.008  15.466   7.950
 7212POPC   C4B37342   1.981  15.380   7.650
 7213POPC   NC337343   7.386  17.485   9.450
 7213POPC   PO437344   7.427  17.473   9.150
 7213POPC   GL137345   7.412  17.475   8.850
 7213POPC   GL237346   7.587  17.488   8.850
 7213POPC   C1A37347   7.421  17.514   8.550
 7213POPC   D2A37348   7.430  17.506   8.250
 7213POPC   C3A37349   7.372  17.498   7.950
 7213POPC   C4A37350   7.373  17.474   7.650
 7213POPC   C1B37351   7.624  17.497   8.550
 7213POPC   C2B37352   7.714  17.520   8.250
 7213POPC   C3B37353   7.642  17.467   7.950
 7213POPC   C4B37354   7.711  17.548   7.650
 7214POPC   NC337355   5.106  17.504   9.450
 7214POPC   PO437356   5.088  17.552   9.150
 7214POPC   GL137357   5.058  17.550   8.850
 7214POPC   GL237358   5.166  17.527   8.850
 7214POPC   C1A37359   5.063  17.460   8.550
 7214POPC   D2A37360   5.133  17.491   8.250
 7214POPC   C3A37361   5.112  17.554   7.950
 7214POPC   C4A37362   5.100  17.461   7.650
 7214POPC   C1B37363   5.311  17.582   8.550
 7214POPC   C2B37364   5.292  17.563   8.250
 7214POPC   C3B37365   5.296  17.587   7.950
 7214POPC   C4B37366   5.288  17.577   7.650
 7215POPC   NC337367  18.243  42.371   9.450
 7215POPC   PO437368  18.242  42.332   9.150
 7215POPC   GL137369  18.284  42.301   8.850
 7215POPC   GL237370  18.235  42.202   8.850
 7215POPC   C1A37371  18.238  42.304   8.550
 7215POPC   D2A37372  18.295  42.372   8.250
 7215POPC   C3A37373  18.327  42.343   7.950
 7215POPC   C4A37374  18.262  42.341   7.650
 7215POPC   C1B37375  18.194  42.133   8.550
 7215POPC   C2B37376  18.219  42.122   8.250
 7215POPC   C3B37377  18.223  42.148   7.950
 7215POPC   C4B37378  18.150  42.139   7.650
 7216POPC   NC337379  34.539  16.746   9.450
 7216POPC   PO437380  34.595  16.690   9.150
 7216POPC   GL137381  34.583  16.755   8.850
 7216POPC   GL237382  34.714  16.769   8.850
 7216POPC   C1A37383  34.529  16.705   8.550
 7216POPC   D2A37384  34.579  16.747   8.250
 7216POPC   C3A37385  34.619  16.743   7.950
 7216POPC   C4A37386  34.561  16.714   7.650
 7216POPC   C1B37387  34.753  16.854   8.550
 7216POPC   C2B37388  34.779  16.869   8.250
 7216POPC   C3B37389  34.732  16.930   7.950
 7216POPC   C4B37390  34.750  16.873   7.650
 7217POPC   NC337391  12.074  10.544   9.450
 7217POPC   PO437392  12.112  10.487   9.150
 7217POPC   GL137393  12.117  10.538   8.850
 7217POPC   GL237394  12.161  10.497   8.850
 7217POPC   C1A37395  12.101  10.491   8.550
 7217POPC   D2A37396  12.036  10.560   8.250
 7217POPC   C3A37397  12.075  10.498   7.950
 7217POPC   C4A37398  12.092  10.506   7.650
 7217POPC   C1B37399  12.325  10.491   8.550
 7217POPC   C2B37400  12.336  10.419   8.250
 7217POPC   C3B37401  12.316  10.473   7.950
 7217POPC   C4B37402  12.302  10.452   7.650
 7218POPC   NC337403  18.269  44.640   9.450
 7218POPC   PO437404  18.289  44.624   9.150
 7218POPC   GL137405  18.298  44.673   8.850
 7218POPC   GL237406  18.360  44.495   8.850
 7218POPC   C1A37407  18.250  44.697   8.550
 7218POPC   D2A37408  18.256  44.697   8.250
 7218POPC   C3A37409  18.333  44.622   7.950
 7218POPC   C4A37410  18.274  44.657   7.650
 7218POPC   C1B37411  18.373  44.422   8.550
 7218POPC   C2B37412  18.341  44.435   8.250
 7218POPC   C3B37413  18.354  44.391   7.950
 7218POPC   C4B37414  18.401  44.410   7.650
 7219POPC   NC337415  19.016  35.344   9.450
 7219POPC   PO437416  19.049  35.349   9.150
 7219POPC   GL137417  19.106  35.319   8.850
 7219POPC   GL237418  19.107  35.428   8.850
 7219POPC   C1A37419  19.070  35.326   8.550
 7219POPC   D2A37420  19.047  35.302   8.250
 7219POPC   C3A37421  19.037  35.388   7.950
 7219POPC   C4A37422  19.048  35.316   7.650
 7219POPC   C1B37423  19.215  35.498   8.550
 7219POPC   C2B37424  19.196  35.492   8.250
 7219POPC   C3B37425  19.189  35.584   7.950
 7219POPC   C4B37426  19.255  35.560   7.650
 7220POPC   NC337427  32.263  12.812   9.450
 7220POPC   PO437428  32.208  12.882   9.150
 7220POPC   GL137429  32.246  12.826   8.850
 7220POPC   GL237430  32.371  12.838   8.850
 7220POPC   C1A37431  32.226  12.859   8.550
 7220POPC   D2A37432  32.248  12.845   8.250
 7220POPC   C3A37433  32.254  12.886   7.950
 7220POPC   C4A37434  32.245  12.897   7.650
 7220POPC   C1B37435  32.526  12.879   8.550
 7220POPC   C2B37436  32.522  12.889   8.250
 7220POPC   C3B37437  32.533  12.864   7.950
 7220POPC   C4B37438  32.544  12.852   7.650
 7221POPC   NC337439   5.856  40.744   9.450
 7221POPC   PO437440   5.847  40.829   9.150
 7221POPC   GL137441   5.847  40.831   8.850
 7221POPC   GL237442   6.001  40.830   8.850
 7221POPC   C1A37443   5.885  40.736   8.550
 7221POPC   D2A37444   5.870  40.753   8.250
 7221POPC   C3A37445   5.834  40.756   7.950
 7221POPC   C4A37446   5.895  40.823   7.650
 7221POPC   C1B37447   6.054  40.954   8.550
 7221POPC   C2B37448   6.021  40.973   8.250
 7221POPC   C3B37449   6.038  40.890   7.950
 7221POPC   C4B37450   6.047  40.929   7.650
 7222POPC   NC337451   5.880  39.997   9.450
 7222POPC   PO437452   5.850  40.047   9.150
 7222POPC   GL137453   5.830  39.993   8.850
 7222POPC   GL237454   5.727  39.965   8.850
 7222POPC   C1A37455   5.829  39.976   8.550
 7222POPC   D2A37456   5.842  40.033   8.250
 7222POPC   C3A37457   5.852  39.970   7.950
 7222POPC   C4A37458   5.865  39.993   7.650
 7222POPC   C1B37459   5.698  39.874   8.550
 7222POPC   C2B37460   5.610  39.890   8.250
 7222POPC   C3B37461   5.644  39.833   7.950
 7222POPC   C4B37462   5.673  39.905   7.650
 7223POPC   NC337463  12.884  19.818   9.450
 7223POPC   PO437464  12.883  19.830   9.150
 7223POPC   GL137465  12.829  19.789   8.850
 7223POPC   GL237466  12.838  19.740   8.850
 7223POPC   C1A37467  12.833  19.870   8.550
 7223POPC   D2A37468  12.824  19.849   8.250
 7223POPC   C3A37469  12.864  19.858   7.950
 7223POPC   C4A37470  12.887  19.813   7.650
 7223POPC   C1B37471  12.781  19.581   8.550
 7223POPC   C2B37472  12.733  19.658   8.250
 7223POPC   C3B37473  12.760  19.592   7.950
 7223POPC   C4B37474  12.770  19.576   7.650
 7224POPC   NC337475  19.797  38.416   9.450
 7224POPC   PO437476  19.791  38.451   9.150
 7224POPC   GL137477  19.847  38.448   8.850
 7224POPC   GL237478  19.764  38.545   8.850
 7224POPC   C1A37479  19.811  38.504   8.550
 7224POPC   D2A37480  19.794  38.429   8.250
 7224POPC   C3A37481  19.863  38.439   7.950
 7224POPC   C4A37482  19.848  38.461   7.650
 7224POPC   C1B37483  19.689  38.697   8.550
 7224POPC   C2B37484  19.725  38.663   8.250
 7224POPC   C3B37485  19.672  38.649   7.950
 7224POPC   C4B37486  19.654  38.705   7.650
 7225POPC   NC337487  31.505  30.677   9.450
 7225POPC   PO437488  31.502  30.672   9.150
 7225POPC   GL137489  31.477  30.694   8.850
 7225POPC   GL237490  31.427  30.543   8.850
 7225POPC   C1A37491  31.443  30.718   8.550
 7225POPC   D2A37492  31.522  30.724   8.250
 7225POPC   C3A37493  31.473  30.739   7.950
 7225POPC   C4A37494  31.509  30.710   7.650
 7225POPC   C1B37495  31.362  30.421   8.550
 7225POPC   C2B37496  31.400  30.468   8.250
 7225POPC   C3B37497  31.435  30.420   7.950
 7225POPC   C4B37498  31.397  30.419   7.650
 7226POPC   NC337499  19.015   3.532   9.450
 7226POPC   PO437500  19.037   3.581   9.150
 7226POPC   GL137501  19.104   3.578   8.850
 7226POPC   GL237502  19.039   3.636   8.850
 7226POPC   C1A37503  19.100   3.549   8.550
 7226POPC   D2A37504  19.045   3.535   8.250
 7226POPC   C3A37505  19.070   3.571   7.950
 7226POPC   C4A37506  19.070   3.578   7.650
 7226POPC   C1B37507  19.165   3.834   8.550
 7226POPC   C2B37508  19.125   3.775   8.250
 7226POPC   C3B37509  19.075   3.747   7.950
 7226POPC   C4B37510  19.100   3.800   7.650
 7227POPC   NC337511  32.976   5.119   9.450
 7227POPC   PO437512  33.024   5.048   9.150
 7227POPC   GL137513  33.024   5.060   8.850
 7227POPC   GL237514  32.950   5.213   8.850
 7227POPC   C1A37515  33.012   5.119   8.550
 7227POPC   D2A37516  33.050   5.052   8.250
 7227POPC   C3A37517  33.057   5.087   7.950
 7227POPC   C4A37518  33.043   5.076   7.650
 7227POPC   C1B37519  32.848   5.336   8.550
 7227POPC   C2B37520  32.885   5.309   8.250
 7227POPC   C3B37521  32.920   5.283   7.950
 7227POPC   C4B37522  32.889   5.285   7.650
 7228POPC   NC337523   8.245  33.007   9.450
 7228POPC   PO437524   8.223  33.000   9.150
 7228POPC   GL137525   8.167  33.015   8.850
 7228POPC   GL237526   8.044  33.055   8.850
 7228POPC   C1A37527   8.171  33.060   8.550
 7228POPC   D2A37528   8.179  33.030   8.250
 7228POPC   C3A37529   8.159  32.991   7.950
 7228POPC   C4A37530   8.242  33.048   7.650
 7228POPC   C1B37531   7.978  33.158   8.550
 7228POPC   C2B37532   7.962  33.104   8.250
 7228POPC   C3B37533   7.957  33.102   7.950
 7228POPC   C4B37534   7.951  33.161   7.650
 7229POPC   NC337535  40.011  33.034   9.450
 7229POPC   PO437536  40.022  33.069   9.150
 7229POPC   GL137537  39.964  33.055   8.850
 7229POPC   GL237538  40.082  32.866   8.850
 7229POPC   C1A37539  40.036  33.001   8.550
 7229POPC   D2A37540  39.972  33.048   8.250
 7229POPC   C3A37541  40.012  33.013   7.950
 7229POPC   C4A37542  39.958  33.023   7.650
 7229POPC   C1B37543  40.145  32.791   8.550
 7229POPC   C2B37544  40.149  32.796   8.250
 7229POPC   C3B37545  40.097  32.767   7.950
 7229POPC   C4B37546  40.089  32.769   7.650
 7230POPC   NC337547   5.854  29.117   9.450
 7230POPC   PO437548   5.865  29.193   9.150
 7230POPC   GL137549   5.826  29.137   8.850
 7230POPC   GL237550   5.764  29.180   8.850
 7230POPC   C1A37551   5.917  29.147   8.550
 7230POPC   D2A37552   5.860  29.103   8.250
 7230POPC   C3A37553   5.823  29.171   7.950
 7230POPC   C4A37554   5.885  29.176   7.650
 7230POPC   C1B37555   5.583  29.104   8.550
 7230POPC   C2B37556   5.604  29.126   8.250
 7230POPC   C3B37557   5.645  29.184   7.950
 7230POPC   C4B37558   5.588  29.094   7.650
 7231POPC   NC337559  43.849  24.509   9.450
 7231POPC   PO437560  43.916  24.535   9.150
 7231POPC   GL137561  43.896  24.506   8.850
 7231POPC   GL237562  44.018  24.540   8.850
 7231POPC   C1A37563  43.883  24.497   8.550
 7231POPC   D2A37564  43.876  24.450   8.250
 7231POPC   C3A37565  43.898  24.472   7.950
 7231POPC   C4A37566  43.896  24.488   7.650
 7231POPC   C1B37567  44.035  24.680   8.550
 7231POPC   C2B37568  44.129  24.678   8.250
 7231POPC   C3B37569  44.091  24.604   7.950
 7231POPC   C4B37570  44.069  24.609   7.650
 7232POPC   NC337571  44.632  43.865   9.450
 7232POPC   PO437572  44.687  43.897   9.150
 7232POPC   GL137573  44.616  43.838   8.850
 7232POPC   GL237574  44.635  44.016   8.850
 7232POPC   C1A37575  44.626  43.890   8.550
 7232POPC   D2A37576  44.681  43.858   8.250
 7232POPC   C3A37577  44.702  43.852   7.950
 7232POPC   C4A37578  44.683  43.859   7.650
 7232POPC   C1B37579  44.586  44.105   8.550
 7232POPC   C2B37580  44.587  44.170   8.250
 7232POPC   C3B37581  44.562  44.137   7.950
 7232POPC   C4B37582  44.621  44.153   7.650
 7233POPC   NC337583  32.292  32.261   9.450
 7233POPC   PO437584  32.273  32.258   9.150
 7233POPC   GL137585  32.269  32.230   8.850
 7233POPC   GL237586  32.178  32.158   8.850
 7233POPC   C1A37587  32.199  32.239   8.550
 7233POPC   D2A37588  32.271  32.209   8.250
 7233POPC   C3A37589  32.220  32.238   7.950
 7233POPC   C4A37590  32.236  32.218   7.650
 7233POPC   C1B37591  32.238  32.016   8.550
 7233POPC   C2B37592  32.237  32.006   8.250
 7233POPC   C3B37593  32.197  31.955   7.950
 7233POPC   C4B37594  32.196  32.004   7.650
 7234POPC   NC337595  42.383   7.460   9.450
 7234POPC   PO437596  42.333   7.450   9.150
 7234POPC   GL137597  42.328   7.415   8.850
 7234POPC   GL237598  42.349   7.296   8.850
 7234POPC   C1A37599  42.340   7.427   8.550
 7234POPC   D2A37600  42.372   7.423   8.250
 7234POPC   C3A37601  42.303   7.427   7.950
 7234POPC   C4A37602  42.303   7.423   7.650
 7234POPC   C1B37603  42.437   7.152   8.550
 7234POPC   C2B37604  42.388   7.169   8.250
 7234POPC   C3B37605  42.422   7.234   7.950
 7234POPC   C4B37606  42.426   7.139   7.650
 7235POPC   NC337607  20.625   7.445   9.450
 7235POPC   PO437608  20.627   7.420   9.150
 7235POPC   GL137609  20.611   7.441   8.850
 7235POPC   GL237610  20.546   7.360   8.850
 7235POPC   C1A37611  20.641   7.384   8.550
 7235POPC   D2A37612  20.611   7.441   8.250
 7235POPC   C3A37613  20.620   7.394   7.950
 7235POPC   C4A37614  20.581   7.401   7.650
 7235POPC   C1B37615  20.409   7.286   8.550
 7235POPC   C2B37616  20.384   7.279   8.250
 7235POPC   C3B37617  20.427   7.293   7.950
 7235POPC   C4B37618  20.419   7.298   7.650
 7236POPC   NC337619  38.419  12.886   9.450
 7236POPC   PO437620  38.458  12.810   9.150
 7236POPC   GL137621  38.454  12.841   8.850
 7236POPC   GL237622  38.353  12.886   8.850
 7236POPC   C1A37623  38.493  12.831   8.550
 7236POPC   D2A37624  38.483  12.884   8.250
 7236POPC   C3A37625  38.410  12.847   7.950
 7236POPC   C4A37626  38.436  12.825   7.650
 7236POPC   C1B37627  38.254  12.817   8.550
 7236POPC   C2B37628  38.180  12.848   8.250
 7236POPC   C3B37629  38.225  12.898   7.950
 7236POPC   C4B37630  38.250  12.893   7.650
 7237POPC   NC337631  26.823  35.373   9.450
 7237POPC   PO437632  26.803  35.333   9.150
 7237POPC   GL137633  26.834  35.383   8.850
 7237POPC   GL237634  26.719  35.419   8.850
 7237POPC   C1A37635  26.816  35.384   8.550
 7237POPC   D2A37636  26.828  35.368   8.250
 7237POPC   C3A37637  26.799  35.359   7.950
 7237POPC   C4A37638  26.779  35.339   7.650
 7237POPC   C1B37639  26.571  35.497   8.550
 7237POPC   C2B37640  26.605  35.491   8.250
 7237POPC   C3B37641  26.648  35.453   7.950
 7237POPC   C4B37642  26.635  35.480   7.650
 7238POPC   NC337643  15.963  17.488   9.450
 7238POPC   PO437644  15.947  17.470   9.150
 7238POPC   GL137645  15.943  17.538   8.850
 7238POPC   GL237646  15.962  17.336   8.850
 7238POPC   C1A37647  15.940  17.555   8.550
 7238POPC   D2A37648  15.939  17.493   8.250
 7238POPC   C3A37649  15.934  17.528   7.950
 7238POPC   C4A37650  15.906  17.479   7.650
 7238POPC   C1B37651  16.005  17.246   8.550
 7238POPC   C2B37652  15.945  17.260   8.250
 7238POPC   C3B37653  16.041  17.210   7.950
 7238POPC   C4B37654  15.965  17.305   7.650
 7239POPC   NC337655  30.673  33.033   9.450
 7239POPC   PO437656  30.735  33.036   9.150
 7239POPC   GL137657  30.666  33.023   8.850
 7239POPC   GL237658  30.628  32.962   8.850
 7239POPC   C1A37659  30.715  32.988   8.550
 7239POPC   D2A37660  30.729  32.976   8.250
 7239POPC   C3A37661  30.704  32.999   7.950
 7239POPC   C4A37662  30.685  32.994   7.650
 7239POPC   C1B37663  30.439  32.901   8.550
 7239POPC   C2B37664  30.485  32.968   8.250
 7239POPC   C3B37665  30.443  32.893   7.950
 7239POPC   C4B37666  30.496  32.969   7.650
 7240POPC   NC337667  18.276  26.011   9.450
 7240POPC   PO437668  18.270  25.995   9.150
 7240POPC   GL137669  18.234  26.042   8.850
 7240POPC   GL237670  18.144  26.123   8.850
 7240POPC   C1A37671  18.273  25.992   8.550
 7240POPC   D2A37672  18.255  26.089   8.250
 7240POPC   C3A37673  18.316  26.027   7.950
 7240POPC   C4A37674  18.308  26.073   7.650
 7240POPC   C1B37675  18.007  26.118   8.550
 7240POPC   C2B37676  18.061  26.138   8.250
 7240POPC   C3B37677  18.078  26.080   7.950
 7240POPC   C4B37678  17.998  26.093   7.650
 7241POPC   NC337679   9.005  25.264   9.450
 7241POPC   PO437680   8.972  25.267   9.150
 7241POPC   GL137681   8.957  25.275   8.850
 7241POPC   GL237682   8.977  25.351   8.850
 7241POPC   C1A37683   8.942  25.303   8.550
 7241POPC   D2A37684   9.007  25.254   8.250
 7241POPC   C3A37685   8.961  25.276   7.950
 7241POPC   C4A37686   9.002  25.276   7.650
 7241POPC   C1B37687   8.878  25.471   8.550
 7241POPC   C2B37688   8.879  25.491   8.250
 7241POPC   C3B37689   8.880  25.497   7.950
 7241POPC   C4B37690   8.963  25.480   7.650
 7242POPC   NC337691   1.186   6.636   9.450
 7242POPC   PO437692   1.216   6.659   9.150
 7242POPC   GL137693   1.233   6.610   8.850
 7242POPC   GL237694   1.126   6.521   8.850
 7242POPC   C1A37695   1.228   6.634   8.550
 7242POPC   D2A37696   1.253   6.680   8.250
 7242POPC   C3A37697   1.239   6.674   7.950
 7242POPC   C4A37698   1.236   6.599   7.650
 7242POPC   C1B37699   1.085   6.403   8.550
 7242POPC   C2B37700   1.127   6.391   8.250
 7242POPC   C3B37701   1.170   6.416   7.950
 7242POPC   C4B37702   1.114   6.448   7.650
 7243POPC   NC337703  33.764  25.235   9.450
 7243POPC   PO437704  33.760  25.280   9.150
 7243POPC   GL137705  33.762  25.291   8.850
 7243POPC   GL237706  33.893  25.262   8.850
 7243POPC   C1A37707  33.780  25.315   8.550
 7243POPC   D2A37708  33.797  25.308   8.250
 7243POPC   C3A37709  33.778  25.285   7.950
 7243POPC   C4A37710  33.806  25.253   7.650
 7243POPC   C1B37711  34.072  25.299   8.550
 7243POPC   C2B37712  34.012  25.297   8.250
 7243POPC   C3B37713  34.028  25.321   7.950
 7243POPC   C4B37714  34.092  25.352   7.650
 7244POPC   NC337715  26.794  33.064   9.450
 7244POPC   PO437716  26.806  32.991   9.150
 7244POPC   GL137717  26.787  32.985   8.850
 7244POPC   GL237718  26.882  32.933   8.850
 7244POPC   C1A37719  26.796  33.054   8.550
 7244POPC   D2A37720  26.785  33.069   8.250
 7244POPC   C3A37721  26.813  32.983   7.950
 7244POPC   C4A37722  26.795  32.986   7.650
 7244POPC   C1B37723  26.856  32.818   8.550
 7244POPC   C2B37724  26.861  32.762   8.250
 7244POPC   C3B37725  26.931  32.770   7.950
 7244POPC   C4B37726  26.904  32.766   7.650
 7245POPC   NC337727  43.157  14.367   9.450
 7245POPC   PO437728  43.141  14.383   9.150
 7245POPC   GL137729  43.147  14.369   8.850
 7245POPC   GL237730  43.164  14.307   8.850
 7245POPC   C1A37731  43.135  14.447   8.550
 7245POPC   D2A37732  43.102  14.397   8.250
 7245POPC   C3A37733  43.111  14.452   7.950
 7245POPC   C4A37734  43.102  14.415   7.650
 7245POPC   C1B37735  43.196  14.124   8.550
 7245POPC   C2B37736  43.184  14.218   8.250
 7245POPC   C3B37737  43.235  14.133   7.950
 7245POPC   C4B37738  43.172  14.182   7.650
 7246POPC   NC337739  16.719   5.090   9.450
 7246POPC   PO437740  16.695   5.124   9.150
 7246POPC   GL137741  16.704   5.055   8.850
 7246POPC   GL237742  16.747   5.169   8.850
 7246POPC   C1A37743  16.684   5.132   8.550
 7246POPC   D2A37744  16.697   5.067   8.250
 7246POPC   C3A37745  16.732   5.141   7.950
 7246POPC   C4A37746  16.688   5.105   7.650
 7246POPC   C1B37747  16.797   5.366   8.550
 7246POPC   C2B37748  16.786   5.318   8.250
 7246POPC   C3B37749  16.806   5.325   7.950
 7246POPC   C4B37750  16.781   5.313   7.650
 7247POPC   NC337751  38.496  14.362   9.450
 7247POPC   PO437752  38.486  14.372   9.150
 7247POPC   GL137753  38.496  14.440   8.850
 7247POPC   GL237754  38.560  14.289   8.850
 7247POPC   C1A37755  38.487  14.399   8.550
 7247POPC   D2A37756  38.458  14.435   8.250
 7247POPC   C3A37757  38.444  14.435   7.950
 7247POPC   C4A37758  38.497  14.378   7.650
 7247POPC   C1B37759  38.570  14.232   8.550
 7247POPC   C2B37760  38.627  14.232   8.250
 7247POPC   C3B37761  38.642  14.167   7.950
 7247POPC   C4B37762  38.633  14.252   7.650
 7248POPC   NC337763  33.830  22.913   9.450
 7248POPC   PO437764  33.786  22.927   9.150
 7248POPC   GL137765  33.758  22.935   8.850
 7248POPC   GL237766  33.952  22.967   8.850
 7248POPC   C1A37767  33.762  22.898   8.550
 7248POPC   D2A37768  33.789  22.984   8.250
 7248POPC   C3A37769  33.782  22.912   7.950
 7248POPC   C4A37770  33.800  22.982   7.650
 7248POPC   C1B37771  34.010  22.995   8.550
 7248POPC   C2B37772  34.078  22.965   8.250
 7248POPC   C3B37773  34.060  22.953   7.950
 7248POPC   C4B37774  34.014  22.942   7.650
 7249POPC   NC337775  38.471  38.427   9.450
 7249POPC   PO437776  38.494  38.478   9.150
 7249POPC   GL137777  38.410  38.471   8.850
 7249POPC   GL237778  38.556  38.403   8.850
 7249POPC   C1A37779  38.433  38.439   8.550
 7249POPC   D2A37780  38.464  38.452   8.250
 7249POPC   C3A37781  38.435  38.452   7.950
 7249POPC   C4A37782  38.416  38.465   7.650
 7249POPC   C1B37783  38.674  38.463   8.550
 7249POPC   C2B37784  38.720  38.492   8.250
 7249POPC   C3B37785  38.719  38.431   7.950
 7249POPC   C4B37786  38.676  38.403   7.650
 7250POPC   NC337787  25.307  32.238   9.450
 7250POPC   PO437788  25.289  32.231   9.150
 7250POPC   GL137789  25.295  32.209   8.850
 7250POPC   GL237790  25.298  32.170   8.850
 7250POPC   C1A37791  25.271  32.265   8.550
 7250POPC   D2A37792  25.257  32.207   8.250
 7250POPC   C3A37793  25.283  32.262   7.950
 7250POPC   C4A37794  25.282  32.216   7.650
 7250POPC   C1B37795  25.389  32.020   8.550
 7250POPC   C2B37796  25.393  31.979   8.250
 7250POPC   C3B37797  25.350  32.025   7.950
 7250POPC   C4B37798  25.318  31.999   7.650
 7251POPC   NC337799  15.202  29.895   9.450
 7251POPC   PO437800  15.140  29.931   9.150
 7251POPC   GL137801  15.183  29.879   8.850
 7251POPC   GL237802  15.022  29.923   8.850
 7251POPC   C1A37803  15.188  29.940   8.550
 7251POPC   D2A37804  15.188  29.925   8.250
 7251POPC   C3A37805  15.166  29.927   7.950
 7251POPC   C4A37806  15.163  29.955   7.650
 7251POPC   C1B37807  14.977  29.894   8.550
 7251POPC   C2B37808  14.914  29.916   8.250
 7251POPC   C3B37809  14.953  29.898   7.950
 7251POPC   C4B37810  14.955  29.876   7.650
 7252POPC   NC337811  38.440  37.632   9.450
 7252POPC   PO437812  38.471  37.719   9.150
 7252POPC   GL137813  38.451  37.681   8.850
 7252POPC   GL237814  38.505  37.521   8.850
 7252POPC   C1A37815  38.482  37.724   8.550
 7252POPC   D2A37816  38.444  37.663   8.250
 7252POPC   C3A37817  38.418  37.660   7.950
 7252POPC   C4A37818  38.495  37.677   7.650
 7252POPC   C1B37819  38.458  37.472   8.550
 7252POPC   C2B37820  38.455  37.413   8.250
 7252POPC   C3B37821  38.503  37.407   7.950
 7252POPC   C4B37822  38.481  37.455   7.650
 7253POPC   NC337823  43.071  20.620   9.450
 7253POPC   PO437824  43.093  20.601   9.150
 7253POPC   GL137825  43.100  20.588   8.850
 7253POPC   GL237826  43.216  20.519   8.850
 7253POPC   C1A37827  43.118  20.597   8.550
 7253POPC   D2A37828  43.142  20.596   8.250
 7253POPC   C3A37829  43.107  20.577   7.950
 7253POPC   C4A37830  43.144  20.607   7.650
 7253POPC   C1B37831  43.312  20.407   8.550
 7253POPC   C2B37832  43.269  20.384   8.250
 7253POPC   C3B37833  43.257  20.464   7.950
 7253POPC   C4B37834  43.315  20.402   7.650
 7254POPC   NC337835  15.955  36.157   9.450
 7254POPC   PO437836  16.004  36.174   9.150
 7254POPC   GL137837  15.959  36.174   8.850
 7254POPC   GL237838  15.950  36.005   8.850
 7254POPC   C1A37839  15.997  36.114   8.550
 7254POPC   D2A37840  15.942  36.165   8.250
 7254POPC   C3A37841  15.933  36.127   7.950
 7254POPC   C4A37842  15.981  36.100   7.650
 7254POPC   C1B37843  16.021  35.842   8.550
 7254POPC   C2B37844  15.995  35.842   8.250
 7254POPC   C3B37845  15.948  35.882   7.950
 7254POPC   C4B37846  16.004  35.870   7.650
 7255POPC   NC337847  32.278   4.277   9.450
 7255POPC   PO437848  32.211   4.340   9.150
 7255POPC   GL137849  32.215   4.317   8.850
 7255POPC   GL237850  32.327   4.283   8.850
 7255POPC   C1A37851  32.238   4.322   8.550
 7255POPC   D2A37852  32.208   4.291   8.250
 7255POPC   C3A37853  32.209   4.296   7.950
 7255POPC   C4A37854  32.235   4.344   7.650
 7255POPC   C1B37855  32.498   4.249   8.550
 7255POPC   C2B37856  32.467   4.208   8.250
 7255POPC   C3B37857  32.518   4.210   7.950
 7255POPC   C4B37858  32.492   4.214   7.650
 7256POPC   NC337859  13.610  19.035   9.450
 7256POPC   PO437860  13.615  19.057   9.150
 7256POPC   GL137861  13.658  19.024   8.850
 7256POPC   GL237862  13.468  19.076   8.850
 7256POPC   C1A37863  13.668  19.091   8.550
 7256POPC   D2A37864  13.581  19.026   8.250
 7256POPC   C3A37865  13.635  19.107   7.950
 7256POPC   C4A37866  13.634  19.066   7.650
 7256POPC   C1B37867  13.403  19.029   8.550
 7256POPC   C2B37868  13.344  18.983   8.250
 7256POPC   C3B37869  13.398  19.028   7.950
 7256POPC   C4B37870  13.422  18.978   7.650
 7257POPC   NC337871  44.695   9.773   9.450
 7257POPC   PO437872  44.710   9.745   9.150
 7257POPC   GL137873  44.632   9.742   8.850
 7257POPC   GL237874  44.779   9.760   8.850
 7257POPC   C1A37875  44.653   9.735   8.550
 7257POPC   D2A37876  44.619   9.704   8.250
 7257POPC   C3A37877  44.685   9.798   7.950
 7257POPC   C4A37878  44.659   9.729   7.650
 7257POPC   C1B37879  44.941   9.754   8.550
 7257POPC   C2B37880  44.909   9.812   8.250
 7257POPC   C3B37881  44.946   9.822   7.950
 7257POPC   C4B37882  44.889   9.797   7.650
 7258POPC   NC337883  39.271  29.953   9.450
 7258POPC   PO437884  39.271  29.922   9.150
 7258POPC   GL137885  39.182  29.926   8.850
 7258POPC   GL237886  39.057  29.914   8.850
 7258POPC   C1A37887  39.270  29.956   8.550
 7258POPC   D2A37888  39.217  29.904   8.250
 7258POPC   C3A37889  39.197  29.906   7.950
 7258POPC   C4A37890  39.203  29.922   7.650
 7258POPC   C1B37891  38.951  29.935   8.550
 7258POPC   C2B37892  38.948  29.925   8.250
 7258POPC   C3B37893  38.992  29.898   7.950
 7258POPC   C4B37894  39.020  29.897   7.650
 7259POPC   NC337895  22.979   4.303   9.450
 7259POPC   PO437896  22.923   4.285   9.150
 7259POPC   GL137897  22.980   4.273   8.850
 7259POPC   GL237898  22.789   4.334   8.850
 7259POPC   C1A37899  22.897   4.325   8.550
 7259POPC   D2A37900  22.954   4.351   8.250
 7259POPC   C3A37901  22.970   4.349   7.950
 7259POPC   C4A37902  22.960   4.339   7.650
 7259POPC   C1B37903  22.768   4.479   8.550
 7259POPC   C2B37904  22.681   4.495   8.250
 7259POPC   C3B37905  22.731   4.420   7.950
 7259POPC   C4B37906  22.701   4.426   7.650
 7260POPC   NC337907  33.022  31.441   9.450
 7260POPC   PO437908  33.047  31.444   9.150
 7260POPC   GL137909  33.050  31.462   8.850
 7260POPC   GL237910  32.975  31.366   8.850
 7260POPC   C1A37911  33.021  31.460   8.550
 7260POPC   D2A37912  32.975  31.436   8.250
 7260POPC   C3A37913  32.984  31.492   7.950
 7260POPC   C4A37914  33.057  31.475   7.650
 7260POPC   C1B37915  32.796  31.278   8.550
 7260POPC   C2B37916  32.793  31.286   8.250
 7260POPC   C3B37917  32.841  31.305   7.950
 7260POPC   C4B37918  32.860  31.312   7.650
 7261POPC   NC337919  26.035   5.906   9.450
 7261POPC   PO437920  25.998   5.917   9.150
 7261POPC   GL137921  26.088   5.838   8.850
 7261POPC   GL237922  25.996   5.780   8.850
 7261POPC   C1A37923  26.024   5.853   8.550
 7261POPC   D2A37924  26.036   5.847   8.250
 7261POPC   C3A37925  26.021   5.851   7.950
 7261POPC   C4A37926  26.051   5.841   7.650
 7261POPC   C1B37927  25.963   5.648   8.550
 7261POPC   C2B37928  25.911   5.657   8.250
 7261POPC   C3B37929  25.929   5.666   7.950
 7261POPC   C4B37930  25.984   5.617   7.650
 7262POPC   NC337931  33.753  43.854   9.450
 7262POPC   PO437932  33.788  43.893   9.150
 7262POPC   GL137933  33.781  43.886   8.850
 7262POPC   GL237934  33.851  44.056   8.850
 7262POPC   C1A37935  33.772  43.837   8.550
 7262POPC   D2A37936  33.762  43.845   8.250
 7262POPC   C3A37937  33.765  43.928   7.950
 7262POPC   C4A37938  33.768  43.887   7.650
 7262POPC   C1B37939  33.908  44.121   8.550
 7262POPC   C2B37940  33.886  44.149   8.250
 7262POPC   C3B37941  33.851  44.125   7.950
 7262POPC   C4B37942  33.874  44.168   7.650
 7263POPC   NC337943  40.036  42.350   9.450
 7263POPC   PO437944  39.969  42.375   9.150
 7263POPC   GL137945  40.028  42.363   8.850
 7263POPC   GL237946  39.891  42.372   8.850
 7263POPC   C1A37947  40.004  42.356   8.550
 7263POPC   D2A37948  40.031  42.312   8.250
 7263POPC   C3A37949  40.057  42.356   7.950
 7263POPC   C4A37950  40.020  42.383   7.650
 7263POPC   C1B37951  39.812  42.462   8.550
 7263POPC   C2B37952  39.822  42.464   8.250
 7263POPC   C3B37953  39.823  42.409   7.950
 7263POPC   C4B37954  39.796  42.471   7.650
 7264POPC   NC337955  24.490  31.435   9.450
 7264POPC   PO437956  24.522  31.504   9.150
 7264POPC   GL137957  24.485  31.434   8.850
 7264POPC   GL237958  24.554  31.425   8.850
 7264POPC   C1A37959  24.481  31.464   8.550
 7264POPC   D2A37960  24.529  31.520   8.250
 7264POPC   C3A37961  24.459  31.424   7.950
 7264POPC   C4A37962  24.529  31.451   7.650
 7264POPC   C1B37963  24.666  31.289   8.550
 7264POPC   C2B37964  24.648  31.253   8.250
 7264POPC   C3B37965  24.633  31.319   7.950
 7264POPC   C4B37966  24.621  31.287   7.650
 7265POPC   NC337967  13.668  40.007   9.450
 7265POPC   PO437968  13.586  39.981   9.150
 7265POPC   GL137969  13.635  40.016   8.850
 7265POPC   GL237970  13.498  39.930   8.850
 7265POPC   C1A37971  13.641  40.013   8.550
 7265POPC   D2A37972  13.629  40.010   8.250
 7265POPC   C3A37973  13.617  40.018   7.950
 7265POPC   C4A37974  13.606  40.012   7.650
 7265POPC   C1B37975  13.391  39.896   8.550
 7265POPC   C2B37976  13.371  39.911   8.250
 7265POPC   C3B37977  13.423  39.849   7.950
 7265POPC   C4B37978  13.408  39.925   7.650
 7266POPC   NC337979  44.645  16.778   9.450
 7266POPC   PO437980  44.636  16.721   9.150
 7266POPC   GL137981  44.709  16.708   8.850
 7266POPC   GL237982  44.559  16.745   8.850
 7266POPC   C1A37983  44.635  16.774   8.550
 7266POPC   D2A37984  44.623  16.766   8.250
 7266POPC   C3A37985  44.626  16.743   7.950
 7266POPC   C4A37986  44.683  16.762   7.650
 7266POPC   C1B37987  44.433  16.682   8.550
 7266POPC   C2B37988  44.402  16.771   8.250
 7266POPC   C3B37989  44.379  16.722   7.950
 7266POPC   C4B37990  44.408  16.744   7.650
 7267POPC   NC337991   5.833  21.400   9.450
 7267POPC   PO437992   5.861  21.357   9.150
 7267POPC   GL137993   5.912  21.417   8.850
 7267POPC   GL237994   5.829  21.241   8.850
 7267POPC   C1A37995   5.897  21.411   8.550
 7267POPC   D2A37996   5.904  21.382   8.250
 7267POPC   C3A37997   5.866  21.390   7.950
 7267POPC   C4A37998   5.827  21.406   7.650
 7267POPC   C1B37999   5.696  21.201   8.550
 7267POPC   C2B38000   5.787  21.167   8.250
 7267POPC   C3B38001   5.767  21.163   7.950
 7267POPC   C4B38002   5.764  21.211   7.650
 7268POPC   NC338003   3.583   1.961   9.450
 7268POPC   PO438004   3.521   1.968   9.150
 7268POPC   GL138005   3.514   2.029   8.850
 7268POPC   GL238006   3.453   1.996   8.850
 7268POPC   C1A38007   3.539   1.944   8.550
 7268POPC   D2A38008   3.495   1.988   8.250
 7268POPC   C3A38009   3.501   1.960   7.950
 7268POPC   C4A38010   3.541   1.946   7.650
 7268POPC   C1B38011   3.307   2.138   8.550
 7268POPC   C2B38012   3.294   2.108   8.250
 7268POPC   C3B38013   3.354   2.093   7.950
 7268POPC   C4B38014   3.304   2.110   7.650
 7269POPC   NC338015  37.659  27.589   9.450
 7269POPC   PO438016  37.700  27.612   9.150
 7269POPC   GL138017  37.724  27.578   8.850
 7269POPC   GL238018  37.644  27.443   8.850
 7269POPC   C1A38019  37.642  27.639   8.550
 7269POPC   D2A38020  37.640  27.633   8.250
 7269POPC   C3A38021  37.633  27.600   7.950
 7269POPC   C4A38022  37.671  27.601   7.650
 7269POPC   C1B38023  37.544  27.392   8.550
 7269POPC   C2B38024  37.561  27.363   8.250
 7269POPC   C3B38025  37.568  27.404   7.950
 7269POPC   C4B38026  37.595  27.386   7.650
 7270POPC   NC338027  33.772  24.529   9.450
 7270POPC   PO438028  33.783  24.450   9.150
 7270POPC   GL138029  33.761  24.524   8.850
 7270POPC   GL238030  33.651  24.437   8.850
 7270POPC   C1A38031  33.802  24.534   8.550
 7270POPC   D2A38032  33.825  24.524   8.250
 7270POPC   C3A38033  33.760  24.522   7.950
 7270POPC   C4A38034  33.838  24.487   7.650
 7270POPC   C1B38035  33.619  24.380   8.550
 7270POPC   C2B38036  33.607  24.321   8.250
 7270POPC   C3B38037  33.581  24.325   7.950
 7270POPC   C4B38038  33.611  24.324   7.650
 7271POPC   NC338039  44.675  15.163   9.450
 7271POPC   PO438040  44.687  15.205   9.150
 7271POPC   GL138041  44.617  15.145   8.850
 7271POPC   GL238042  44.771  15.169   8.850
 7271POPC   C1A38043  44.645  15.145   8.550
 7271POPC   D2A38044  44.701  15.138   8.250
 7271POPC   C3A38045  44.633  15.217   7.950
 7271POPC   C4A38046  44.618  15.188   7.650
 7271POPC   C1B38047  44.868  15.253   8.550
 7271POPC   C2B38048  44.899  15.197   8.250
 7271POPC   C3B38049  44.933  15.239   7.950
 7271POPC   C4B38050  44.921  15.242   7.650
 7272POPC   NC338051  28.352   4.279   9.450
 7272POPC   PO438052  28.336   4.309   9.150
 7272POPC   GL138053  28.403   4.362   8.850
 7272POPC   GL238054  28.253   4.224   8.850
 7272POPC   C1A38055  28.326   4.301   8.550
 7272POPC   D2A38056  28.340   4.330   8.250
 7272POPC   C3A38057  28.351   4.334   7.950
 7272POPC   C4A38058  28.416   4.288   7.650
 7272POPC   C1B38059  28.100   4.183   8.550
 7272POPC   C2B38060  28.167   4.248   8.250
 7272POPC   C3B38061  28.163   4.207   7.950
 7272POPC   C4B38062  28.133   4.194   7.650
 7273POPC   NC338063  33.002  33.061   9.450
 7273POPC   PO438064  32.984  33.033   9.150
 7273POPC   GL138065  33.051  32.998   8.850
 7273POPC   GL238066  33.085  33.099   8.850
 7273POPC   C1A38067  33.009  32.993   8.550
 7273POPC   D2A38068  33.015  32.993   8.250
 7273POPC   C3A38069  33.042  33.015   7.950
 7273POPC   C4A38070  32.985  33.051   7.650
 7273POPC   C1B38071  33.265  33.134   8.550
 7273POPC   C2B38072  33.209  33.114   8.250
 7273POPC   C3B38073  33.196  33.126   7.950
 7273POPC   C4B38074  33.222  33.210   7.650
 7274POPC   NC338075   1.247  24.524   9.450
 7274POPC   PO438076   1.196  24.459   9.150
 7274POPC   GL138077   1.260  24.500   8.850
 7274POPC   GL238078   1.096  24.603   8.850
 7274POPC   C1A38079   1.206  24.492   8.550
 7274POPC   D2A38080   1.189  24.481   8.250
 7274POPC   C3A38081   1.211  24.471   7.950
 7274POPC   C4A38082   1.218  24.477   7.650
 7274POPC   C1B38083   1.108  24.647   8.550
 7274POPC   C2B38084   1.100  24.716   8.250
 7274POPC   C3B38085   1.059  24.725   7.950
 7274POPC   C4B38086   1.075  24.744   7.650
 7275POPC   NC338087   1.229  10.560   9.450
 7275POPC   PO438088   1.241  10.507   9.150
 7275POPC   GL138089   1.217  10.523   8.850
 7275POPC   GL238090   1.310  10.541   8.850
 7275POPC   C1A38091   1.229  10.551   8.550
 7275POPC   D2A38092   1.232  10.535   8.250
 7275POPC   C3A38093   1.176  10.539   7.950
 7275POPC   C4A38094   1.262  10.514   7.650
 7275POPC   C1B38095   1.437  10.524   8.550
 7275POPC   C2B38096   1.439  10.551   8.250
 7275POPC   C3B38097   1.486  10.500   7.950
 7275POPC   C4B38098   1.433  10.582   7.650
 7276POPC   NC338099   2.024  12.124   9.450
 7276POPC   PO438100   1.955  12.083   9.150
 7276POPC   GL138101   1.969  12.054   8.850
 7276POPC   GL238102   1.939  11.996   8.850
 7276POPC   C1A38103   2.005  12.064   8.550
 7276POPC   D2A38104   2.013  12.075   8.250
 7276POPC   C3A38105   1.954  12.119   7.950
 7276POPC   C4A38106   1.981  12.088   7.650
 7276POPC   C1B38107   1.901  11.821   8.550
 7276POPC   C2B38108   1.885  11.817   8.250
 7276POPC   C3B38109   1.948  11.856   7.950
 7276POPC   C4B38110   1.882  11.805   7.650
 7277POPC   NC338111  23.734   1.262   9.450
 7277POPC   PO438112  23.699   1.239   9.150
 7277POPC   GL138113  23.698   1.261   8.850
 7277POPC   GL238114  23.686   1.111   8.850
 7277POPC   C1A38115  23.709   1.184   8.550
 7277POPC   D2A38116  23.762   1.260   8.250
 7277POPC   C3A38117  23.686   1.241   7.950
 7277POPC   C4A38118  23.754   1.243   7.650
 7277POPC   C1B38119  23.643   1.001   8.550
 7277POPC   C2B38120  23.681   0.960   8.250
 7277POPC   C3B38121  23.626   1.002   7.950
 7277POPC   C4B38122  23.690   1.017   7.650
 7278POPC   NC338123  36.142  22.208   9.450
 7278POPC   PO438124  36.120  22.180   9.150
 7278POPC   GL138125  36.109  22.134   8.850
 7278POPC   GL238126  36.179  22.043   8.850
 7278POPC   C1A38127  36.108  22.184   8.550
 7278POPC   D2A38128  36.095  22.154   8.250
 7278POPC   C3A38129  36.151  22.125   7.950
 7278POPC   C4A38130  36.167  22.172   7.650
 7278POPC   C1B38131  36.152  21.883   8.550
 7278POPC   C2B38132  36.172  21.909   8.250
 7278POPC   C3B38133  36.131  21.885   7.950
 7278POPC   C4B38134  36.193  21.938   7.650
 7279POPC   NC338135  15.934   1.969   9.450
 7279POPC   PO438136  15.909   1.965   9.150
 7279POPC   GL138137  15.989   2.022   8.850
 7279POPC   GL238138  15.897   1.830   8.850
 7279POPC   C1A38139  15.968   1.969   8.550
 7279POPC   D2A38140  15.954   2.026   8.250
 7279POPC   C3A38141  16.002   2.024   7.950
 7279POPC   C4A38142  16.002   1.984   7.650
 7279POPC   C1B38143  15.845   1.742   8.550
 7279POPC   C2B38144  15.818   1.804   8.250
 7279POPC   C3B38145  15.859   1.724   7.950
 7279POPC   C4B38146  15.877   1.726   7.650
 7280POPC   NC338147  13.633  38.501   9.450
 7280POPC   PO438148  13.601  38.414   9.150
 7280POPC   GL138149  13.639  38.471   8.850
 7280POPC   GL238150  13.578  38.607   8.850
 7280POPC   C1A38151  13.586  38.417   8.550
 7280POPC   D2A38152  13.615  38.503   8.250
 7280POPC   C3A38153  13.639  38.416   7.950
 7280POPC   C4A38154  13.614  38.476   7.650
 7280POPC   C1B38155  13.562  38.661   8.550
 7280POPC   C2B38156  13.595  38.693   8.250
 7280POPC   C3B38157  13.542  38.667   7.950
 7280POPC   C4B38158  13.527  38.665   7.650
 7281POPC   NC338159  18.293  12.876   9.450
 7281POPC   PO438160  18.302  12.855   9.150
 7281POPC   GL138161  18.286  12.871   8.850
 7281POPC   GL238162  18.405  12.830   8.850
 7281POPC   C1A38163  18.298  12.824   8.550
 7281POPC   D2A38164  18.266  12.872   8.250
 7281POPC   C3A38165  18.310  12.831   7.950
 7281POPC   C4A38166  18.265  12.862   7.650
 7281POPC   C1B38167  18.546  12.838   8.550
 7281POPC   C2B38168  18.524  12.850   8.250
 7281POPC   C3B38169  18.556  12.831   7.950
 7281POPC   C4B38170  18.536  12.896   7.650
 7282POPC   NC338171  32.983  34.593   9.450
 7282POPC   PO438172  33.059  34.550   9.150
 7282POPC   GL138173  32.992  34.592   8.850
 7282POPC   GL238174  33.113  34.539   8.850
 7282POPC   C1A38175  33.016  34.595   8.550
 7282POPC   D2A38176  32.979  34.622   8.250
 7282POPC   C3A38177  33.043  34.603   7.950
 7282POPC   C4A38178  33.066  34.563   7.650
 7282POPC   C1B38179  33.255  34.524   8.550
 7282POPC   C2B38180  33.262  34.556   8.250
 7282POPC   C3B38181  33.274  34.519   7.950
 7282POPC   C4B38182  33.243  34.547   7.650
 7283POPC   NC338183  20.614  21.367   9.450
 7283POPC   PO438184  20.577  21.393   9.150
 7283POPC   GL138185  20.636  21.394   8.850
 7283POPC   GL238186  20.560  21.302   8.850
 7283POPC   C1A38187  20.582  21.375   8.550
 7283POPC   D2A38188  20.580  21.341   8.250
 7283POPC   C3A38189  20.658  21.365   7.950
 7283POPC   C4A38190  20.628  21.348   7.650
 7283POPC   C1B38191  20.480  21.142   8.550
 7283POPC   C2B38192  20.499  21.212   8.250
 7283POPC   C3B38193  20.489  21.225   7.950
 7283POPC   C4B38194  20.456  21.171   7.650
 7284POPC   NC338195  14.362  33.064   9.450
 7284POPC   PO438196  14.373  33.041   9.150
 7284POPC   GL138197  14.447  33.038   8.850
 7284POPC   GL238198  14.431  33.131   8.850
 7284POPC   C1A38199  14.370  32.987   8.550
 7284POPC   D2A38200  14.397  33.019   8.250
 7284POPC   C3A38201  14.421  33.054   7.950
 7284POPC   C4A38202  14.383  33.007   7.650
 7284POPC   C1B38203  14.411  33.230   8.550
 7284POPC   C2B38204  14.370  33.278   8.250
 7284POPC   C3B38205  14.405  33.272   7.950
 7284POPC   C4B38206  14.437  33.234   7.650
 7285POPC   NC338207   3.573  39.279   9.450
 7285POPC   PO438208   3.535  39.186   9.150
 7285POPC   GL138209   3.527  39.258   8.850
 7285POPC   GL238210   3.605  39.317   8.850
 7285POPC   C1A38211   3.524  39.278   8.550
 7285POPC   D2A38212   3.568  39.184   8.250
 7285POPC   C3A38213   3.539  39.270   7.950
 7285POPC   C4A38214   3.515  39.254   7.650
 7285POPC   C1B38215   3.682  39.367   8.550
 7285POPC   C2B38216   3.751  39.362   8.250
 7285POPC   C3B38217   3.738  39.373   7.950
 7285POPC   C4B38218   3.741  39.436   7.650
 7286POPC   NC338219  42.321  20.659   9.450
 7286POPC   PO438220  42.359  20.577   9.150
 7286POPC   GL138221  42.340  20.578   8.850
 7286POPC   GL238222  42.199  20.549   8.850
 7286POPC   C1A38223  42.319  20.619   8.550
 7286POPC   D2A38224  42.380  20.615   8.250
 7286POPC   C3A38225  42.303  20.643   7.950
 7286POPC   C4A38226  42.310  20.593   7.650
 7286POPC   C1B38227  42.137  20.581   8.550
 7286POPC   C2B38228  42.113  20.588   8.250
 7286POPC   C3B38229  42.134  20.595   7.950
 7286POPC   C4B38230  42.136  20.565   7.650
 7287POPC   NC338231   2.753   1.207   9.450
 7287POPC   PO438232   2.757   1.178   9.150
 7287POPC   GL138233   2.799   1.191   8.850
 7287POPC   GL238234   2.594   1.247   8.850
 7287POPC   C1A38235   2.787   1.250   8.550
 7287POPC   D2A38236   2.741   1.251   8.250
 7287POPC   C3A38237   2.815   1.241   7.950
 7287POPC   C4A38238   2.805   1.201   7.650
 7287POPC   C1B38239   2.548   1.209   8.550
 7287POPC   C2B38240   2.479   1.246   8.250
 7287POPC   C3B38241   2.539   1.198   7.950
 7287POPC   C4B38242   2.504   1.206   7.650
 7288POPC   NC338243  33.848  36.131   9.450
 7288POPC   PO438244  33.843  36.100   9.150
 7288POPC   GL138245  33.779  36.122   8.850
 7288POPC   GL238246  33.855  36.062   8.850
 7288POPC   C1A38247  33.821  36.125   8.550
 7288POPC   D2A38248  33.793  36.161   8.250
 7288POPC   C3A38249  33.765  36.090   7.950
 7288POPC   C4A38250  33.785  36.167   7.650
 7288POPC   C1B38251  33.910  35.917   8.550
 7288POPC   C2B38252  33.916  35.928   8.250
 7288POPC   C3B38253  33.931  35.876   7.950
 7288POPC   C4B38254  33.968  35.918   7.650
 7289POPC   NC338255  44.661  22.171   9.450
 7289POPC   PO438256  44.656  22.203   9.150
 7289POPC   GL138257  44.625  22.136   8.850
 7289POPC   GL238258  44.796  22.102   8.850
 7289POPC   C1A38259  44.706  22.146   8.550
 7289POPC   D2A38260  44.651  22.191   8.250
 7289POPC   C3A38261  44.671  22.210   7.950
 7289POPC   C4A38262  44.664  22.131   7.650
 7289POPC   C1B38263  44.912  22.139   8.550
 7289POPC   C2B38264  44.932  22.147   8.250
 7289POPC   C3B38265  44.952  22.071   7.950
 7289POPC   C4B38266  44.921  22.112   7.650
 7290POPC   NC338267  14.426  15.930   9.450
 7290POPC   PO438268  14.396  15.909   9.150
 7290POPC   GL138269  14.418  15.940   8.850
 7290POPC   GL238270  14.285  15.909   8.850
 7290POPC   C1A38271  14.362  15.983   8.550
 7290POPC   D2A38272  14.364  15.931   8.250
 7290POPC   C3A38273  14.362  15.943   7.950
 7290POPC   C4A38274  14.405  15.956   7.650
 7290POPC   C1B38275  14.179  15.862   8.550
 7290POPC   C2B38276  14.140  15.834   8.250
 7290POPC   C3B38277  14.150  15.894   7.950
 7290POPC   C4B38278  14.121  15.870   7.650
 7291POPC   NC338279  26.818   6.674   9.450
 7291POPC   PO438280  26.774   6.640   9.150
 7291POPC   GL138281  26.797   6.653   8.850
 7291POPC   GL238282  26.841   6.485   8.850
 7291POPC   C1A38283  26.772   6.611   8.550
 7291POPC   D2A38284  26.795   6.687   8.250
 7291POPC   C3A38285  26.786   6.691   7.950
 7291POPC   C4A38286  26.784   6.659   7.650
 7291POPC   C1B38287  26.774   6.399   8.550
 7291POPC   C2B38288  26.772   6.387   8.250
 7291POPC   C3B38289  26.845   6.412   7.950
 7291POPC   C4B38290  26.795   6.372   7.650
 7292POPC   NC338291  17.507  22.134   9.450
 7292POPC   PO438292  17.518  22.162   9.150
 7292POPC   GL138293  17.554  22.162   8.850
 7292POPC   GL238294  17.576  21.999   8.850
 7292POPC   C1A38295  17.487  22.187   8.550
 7292POPC   D2A38296  17.516  22.185   8.250
 7292POPC   C3A38297  17.548  22.146   7.950
 7292POPC   C4A38298  17.464  22.189   7.650
 7292POPC   C1B38299  17.565  21.935   8.550
 7292POPC   C2B38300  17.601  21.954   8.250
 7292POPC   C3B38301  17.563  21.958   7.950
 7292POPC   C4B38302  17.600  21.882   7.650
 7293POPC   NC338303  26.791  27.626   9.450
 7293POPC   PO438304  26.847  27.575   9.150
 7293POPC   GL138305  26.857  27.573   8.850
 7293POPC   GL238306  26.785  27.742   8.850
 7293POPC   C1A38307  26.803  27.608   8.550
 7293POPC   D2A38308  26.797  27.544   8.250
 7293POPC   C3A38309  26.842  27.577   7.950
 7293POPC   C4A38310  26.799  27.620   7.650
 7293POPC   C1B38311  26.760  27.807   8.550
 7293POPC   C2B38312  26.810  27.886   8.250
 7293POPC   C3B38313  26.754  27.834   7.950
 7293POPC   C4B38314  26.784  27.826   7.650
 7294POPC   NC338315   4.299   8.945   9.450
 7294POPC   PO438316   4.321   8.931   9.150
 7294POPC   GL138317   4.364   8.963   8.850
 7294POPC   GL238318   4.244   8.921   8.850
 7294POPC   C1A38319   4.268   8.943   8.550
 7294POPC   D2A38320   4.363   9.022   8.250
 7294POPC   C3A38321   4.359   8.991   7.950
 7294POPC   C4A38322   4.352   8.994   7.650
 7294POPC   C1B38323   4.065   8.946   8.550
 7294POPC   C2B38324   4.037   8.871   8.250
 7294POPC   C3B38325   4.077   8.853   7.950
 7294POPC   C4B38326   4.129   8.880   7.650
 7295POPC   NC338327  44.704  26.838   9.450
 7295POPC   PO438328  44.674  26.865   9.150
 7295POPC   GL138329  44.623  26.865   8.850
 7295POPC   GL238330  44.637  26.966   8.850
 7295POPC   C1A38331  44.666  26.778   8.550
 7295POPC   D2A38332  44.635  26.789   8.250
 7295POPC   C3A38333  44.690  26.837   7.950
 7295POPC   C4A38334  44.641  26.816   7.650
 7295POPC   C1B38335  44.671  27.097   8.550
 7295POPC   C2B38336  44.720  27.060   8.250
 7295POPC   C3B38337  44.650  27.116   7.950
 7295POPC   C4B38338  44.676  27.116   7.650
 7296POPC   NC338339   0.412  24.529   9.450
 7296POPC   PO438340   0.485  24.440   9.150
 7296POPC   GL138341   0.480  24.474   8.850
 7296POPC   GL238342   0.497  24.609   8.850
 7296POPC   C1A38343   0.488  24.452   8.550
 7296POPC   D2A38344   0.427  24.521   8.250
 7296POPC   C3A38345   0.477  24.497   7.950
 7296POPC   C4A38346   0.408  24.480   7.650
 7296POPC   C1B38347   0.590  24.665   8.550
 7296POPC   C2B38348   0.640  24.646   8.250
 7296POPC   C3B38349   0.669  24.642   7.950
 7296POPC   C4B38350   0.612  24.660   7.650
 7297POPC   NC338351  18.241   3.582   9.450
 7297POPC   PO438352  18.310   3.558   9.150
 7297POPC   GL138353  18.316   3.524   8.850
 7297POPC   GL238354  18.229   3.396   8.850
 7297POPC   C1A38355  18.321   3.570   8.550
 7297POPC   D2A38356  18.268   3.527   8.250
 7297POPC   C3A38357  18.264   3.548   7.950
 7297POPC   C4A38358  18.247   3.538   7.650
 7297POPC   C1B38359  18.239   3.278   8.550
 7297POPC   C2B38360  18.275   3.338   8.250
 7297POPC   C3B38361  18.206   3.274   7.950
 7297POPC   C4B38362  18.268   3.270   7.650
 7298POPC   NC338363  33.781  35.340   9.450
 7298POPC   PO438364  33.781  35.361   9.150
 7298POPC   GL138365  33.808  35.343   8.850
 7298POPC   GL238366  33.775  35.250   8.850
 7298POPC   C1A38367  33.803  35.391   8.550
 7298POPC   D2A38368  33.751  35.344   8.250
 7298POPC   C3A38369  33.752  35.333   7.950
 7298POPC   C4A38370  33.811  35.398   7.650
 7298POPC   C1B38371  33.799  35.068   8.550
 7298POPC   C2B38372  33.833  35.136   8.250
 7298POPC   C3B38373  33.825  35.098   7.950
 7298POPC   C4B38374  33.859  35.118   7.650
 7299POPC   NC338375   3.506   5.082   9.450
 7299POPC   PO438376   3.526   5.103   9.150
 7299POPC   GL138377   3.529   5.116   8.850
 7299POPC   GL238378   3.641   5.146   8.850
 7299POPC   C1A38379   3.522   5.122   8.550
 7299POPC   D2A38380   3.591   5.101   8.250
 7299POPC   C3A38381   3.506   5.134   7.950
 7299POPC   C4A38382   3.531   5.102   7.650
 7299POPC   C1B38383   3.779   5.194   8.550
 7299POPC   C2B38384   3.800   5.249   8.250
 7299POPC   C3B38385   3.729   5.175   7.950
 7299POPC   C4B38386   3.781   5.190   7.650
 7300POPC   NC338387  43.909  39.220   9.450
 7300POPC   PO438388  43.921  39.198   9.150
 7300POPC   GL138389  43.897  39.260   8.850
 7300POPC   GL238390  43.996  39.158   8.850
 7300POPC   C1A38391  43.872  39.258   8.550
 7300POPC   D2A38392  43.860  39.210   8.250
 7300POPC   C3A38393  43.905  39.210   7.950
 7300POPC   C4A38394  43.911  39.230   7.650
 7300POPC   C1B38395  44.050  39.072   8.550
 7300POPC   C2B38396  44.096  39.036   8.250
 7300POPC   C3B38397  44.094  39.079   7.950
 7300POPC   C4B38398  44.050  39.094   7.650
 7301POPC   NC338399  42.364  33.065   9.450
 7301POPC   PO438400  42.353  32.988   9.150
 7301POPC   GL138401  42.380  33.001   8.850
 7301POPC   GL238402  42.375  32.883   8.850
 7301POPC   C1A38403  42.349  32.992   8.550
 7301POPC   D2A38404  42.288  33.000   8.250
 7301POPC   C3A38405  42.293  33.016   7.950
 7301POPC   C4A38406  42.371  33.040   7.650
 7301POPC   C1B38407  42.403  32.793   8.550
 7301POPC   C2B38408  42.403  32.814   8.250
 7301POPC   C3B38409  42.438  32.765   7.950
 7301POPC   C4B38410  42.441  32.833   7.650
 7302POPC   NC338411   8.237  30.720   9.450
 7302POPC   PO438412   8.199  30.681   9.150
 7302POPC   GL138413   8.190  30.690   8.850
 7302POPC   GL238414   8.243  30.758   8.850
 7302POPC   C1A38415   8.174  30.662   8.550
 7302POPC   D2A38416   8.246  30.719   8.250
 7302POPC   C3A38417   8.207  30.742   7.950
 7302POPC   C4A38418   8.180  30.664   7.650
 7302POPC   C1B38419   8.401  30.884   8.550
 7302POPC   C2B38420   8.360  30.894   8.250
 7302POPC   C3B38421   8.356  30.899   7.950
 7302POPC   C4B38422   8.415  30.909   7.650
 7303POPC   NC338423  38.499  28.397   9.450
 7303POPC   PO438424  38.446  28.418   9.150
 7303POPC   GL138425  38.475  28.347   8.850
 7303POPC   GL238426  38.547  28.349   8.850
 7303POPC   C1A38427  38.437  28.376   8.550
 7303POPC   D2A38428  38.456  28.386   8.250
 7303POPC   C3A38429  38.476  28.324   7.950
 7303POPC   C4A38430  38.468  28.340   7.650
 7303POPC   C1B38431  38.663  28.356   8.550
 7303POPC   C2B38432  38.681  28.314   8.250
 7303POPC   C3B38433  38.702  28.292   7.950
 7303POPC   C4B38434  38.698  28.317   7.650
 7304POPC   NC338435  29.875   4.335   9.450
 7304POPC   PO438436  29.879   4.273   9.150
 7304POPC   GL138437  29.945   4.334   8.850
 7304POPC   GL238438  30.080   4.318   8.850
 7304POPC   C1A38439  29.918   4.323   8.550
 7304POPC   D2A38440  29.913   4.294   8.250
 7304POPC   C3A38441  29.892   4.331   7.950
 7304POPC   C4A38442  29.889   4.355   7.650
 7304POPC   C1B38443  30.190   4.237   8.550
 7304POPC   C2B38444  30.156   4.295   8.250
 7304POPC   C3B38445  30.185   4.284   7.950
 7304POPC   C4B38446  30.169   4.295   7.650
 7305POPC   NC338447  39.998  23.692   9.450
 7305POPC   PO438448  39.997  23.760   9.150
 7305POPC   GL138449  39.973  23.694   8.850
 7305POPC   GL238450  40.133  23.656   8.850
 7305POPC   C1A38451  39.999  23.724   8.550
 7305POPC   D2A38452  40.008  23.675   8.250
 7305POPC   C3A38453  39.959  23.671   7.950
 7305POPC   C4A38454  39.960  23.759   7.650
 7305POPC   C1B38455  40.227  23.515   8.550
 7305POPC   C2B38456  40.245  23.526   8.250
 7305POPC   C3B38457  40.172  23.595   7.950
 7305POPC   C4B38458  40.240  23.515   7.650
 7306POPC   NC338459   1.947  44.630   9.450
 7306POPC   PO438460   2.035  44.644   9.150
 7306POPC   GL138461   1.981  44.706   8.850
 7306POPC   GL238462   2.092  44.663   8.850
 7306POPC   C1A38463   2.022  44.708   8.550
 7306POPC   D2A38464   1.958  44.648   8.250
 7306POPC   C3A38465   1.970  44.700   7.950
 7306POPC   C4A38466   2.022  44.672   7.650
 7306POPC   C1B38467   2.239  44.608   8.550
 7306POPC   C2B38468   2.188  44.607   8.250
 7306POPC   C3B38469   2.250  44.654   7.950
 7306POPC   C4B38470   2.217  44.643   7.650
 7307POPC   NC338471   5.103  36.109   9.450
 7307POPC   PO438472   5.052  36.154   9.150
 7307POPC   GL138473   5.094  36.125   8.850
 7307POPC   GL238474   5.220  36.131   8.850
 7307POPC   C1A38475   5.128  36.152   8.550
 7307POPC   D2A38476   5.090  36.096   8.250
 7307POPC   C3A38477   5.050  36.088   7.950
 7307POPC   C4A38478   5.105  36.139   7.650
 7307POPC   C1B38479   5.306  36.203   8.550
 7307POPC   C2B38480   5.379  36.166   8.250
 7307POPC   C3B38481   5.310  36.209   7.950
 7307POPC   C4B38482   5.318  36.230   7.650
 7308POPC   NC338483  34.547  28.353   9.450
 7308POPC   PO438484  34.624  28.380   9.150
 7308POPC   GL138485  34.580  28.351   8.850
 7308POPC   GL238486  34.462  28.488   8.850
 7308POPC   C1A38487  34.534  28.414   8.550
 7308POPC   D2A38488  34.564  28.391   8.250
 7308POPC   C3A38489  34.624  28.396   7.950
 7308POPC   C4A38490  34.539  28.332   7.650
 7308POPC   C1B38491  34.398  28.590   8.550
 7308POPC   C2B38492  34.394  28.618   8.250
 7308POPC   C3B38493  34.458  28.569   7.950
 7308POPC   C4B38494  34.424  28.618   7.650
 7309POPC   NC338495  29.889  31.515   9.450
 7309POPC   PO438496  29.965  31.520   9.150
 7309POPC   GL138497  29.921  31.485   8.850
 7309POPC   GL238498  29.928  31.351   8.850
 7309POPC   C1A38499  29.949  31.446   8.550
 7309POPC   D2A38500  29.949  31.504   8.250
 7309POPC   C3A38501  29.919  31.501   7.950
 7309POPC   C4A38502  29.906  31.451   7.650
 7309POPC   C1B38503  30.005  31.219   8.550
 7309POPC   C2B38504  30.014  31.241   8.250
 7309POPC   C3B38505  30.020  31.192   7.950
 7309POPC   C4B38506  29.982  31.272   7.650
 7310POPC   NC338507  44.697  29.904   9.450
 7310POPC   PO438508  44.666  29.941   9.150
 7310POPC   GL138509  44.631  29.942   8.850
 7310POPC   GL238510  44.615  30.022   8.850
 7310POPC   C1A38511  44.623  29.934   8.550
 7310POPC   D2A38512  44.667  29.911   8.250
 7310POPC   C3A38513  44.620  29.910   7.950
 7310POPC   C4A38514  44.704  29.891   7.650
 7310POPC   C1B38515  44.583  30.129   8.550
 7310POPC   C2B38516  44.528  30.144   8.250
 7310POPC   C3B38517  44.529  30.152   7.950
 7310POPC   C4B38518  44.513  30.156   7.650
 7311POPC   NC338519  17.553   6.617   9.450
 7311POPC   PO438520  17.470   6.616   9.150
 7311POPC   GL138521  17.485   6.611   8.850
 7311POPC   GL238522  17.601   6.637   8.850
 7311POPC   C1A38523  17.527   6.654   8.550
 7311POPC   D2A38524  17.458   6.681   8.250
 7311POPC   C3A38525  17.545   6.607   7.950
 7311POPC   C4A38526  17.542   6.658   7.650
 7311POPC   C1B38527  17.786   6.732   8.550
 7311POPC   C2B38528  17.761   6.701   8.250
 7311POPC   C3B38529  17.720   6.698   7.950
 7311POPC   C4B38530  17.799   6.664   7.650
 7312POPC   NC338531  18.273  25.293   9.450
 7312POPC   PO438532  18.262  25.226   9.150
 7312POPC   GL138533  18.290  25.223   8.850
 7312POPC   GL238534  18.414  25.261   8.850
 7312POPC   C1A38535  18.236  25.235   8.550
 7312POPC   D2A38536  18.237  25.267   8.250
 7312POPC   C3A38537  18.265  25.260   7.950
 7312POPC   C4A38538  18.306  25.287   7.650
 7312POPC   C1B38539  18.495  25.275   8.550
 7312POPC   C2B38540  18.526  25.277   8.250
 7312POPC   C3B38541  18.495  25.257   7.950
 7312POPC   C4B38542  18.560  25.289   7.650
 7313POPC   NC338543  20.606  35.400   9.450
 7313POPC   PO438544  20.572  35.343   9.150
 7313POPC   GL138545  20.580  35.373   8.850
 7313POPC   GL238546  20.550  35.287   8.850
 7313POPC   C1A38547  20.614  35.360   8.550
 7313POPC   D2A38548  20.649  35.338   8.250
 7313POPC   C3A38549  20.620  35.380   7.950
 7313POPC   C4A38550  20.571  35.323   7.650
 7313POPC   C1B38551  20.437  35.228   8.550
 7313POPC   C2B38552  20.370  35.232   8.250
 7313POPC   C3B38553  20.413  35.174   7.950
 7313POPC   C4B38554  20.455  35.171   7.650
 7314POPC   NC338555   1.230   5.844   9.450
 7314POPC   PO438556   1.182   5.909   9.150
 7314POPC   GL138557   1.216   5.833   8.850
 7314POPC   GL238558   1.248   5.934   8.850
 7314POPC   C1A38559   1.255   5.904   8.550
 7314POPC   D2A38560   1.208   5.824   8.250
 7314POPC   C3A38561   1.179   5.819   7.950
 7314POPC   C4A38562   1.180   5.885   7.650
 7314POPC   C1B38563   1.345   6.056   8.550
 7314POPC   C2B38564   1.419   6.019   8.250
 7314POPC   C3B38565   1.398   6.048   7.950
 7314POPC   C4B38566   1.406   6.047   7.650
 7315POPC   NC338567   8.976  40.735   9.450
 7315POPC   PO438568   8.955  40.785   9.150
 7315POPC   GL138569   8.923  40.752   8.850
 7315POPC   GL238570   9.026  40.854   8.850
 7315POPC   C1A38571   8.956  40.829   8.550
 7315POPC   D2A38572   8.966  40.828   8.250
 7315POPC   C3A38573   9.007  40.753   7.950
 7315POPC   C4A38574   8.990  40.743   7.650
 7315POPC   C1B38575   9.051  40.967   8.550
 7315POPC   C2B38576   9.043  41.005   8.250
 7315POPC   C3B38577   9.113  40.992   7.950
 7315POPC   C4B38578   9.032  41.035   7.650
 7316POPC   NC338579   2.777  12.809   9.450
 7316POPC   PO438580   2.808  12.854   9.150
 7316POPC   GL138581   2.754  12.866   8.850
 7316POPC   GL238582   2.713  12.776   8.850
 7316POPC   C1A38583   2.764  12.826   8.550
 7316POPC   D2A38584   2.785  12.889   8.250
 7316POPC   C3A38585   2.724  12.826   7.950
 7316POPC   C4A38586   2.738  12.871   7.650
 7316POPC   C1B38587   2.673  12.635   8.550
 7316POPC   C2B38588   2.668  12.602   8.250
 7316POPC   C3B38589   2.679  12.606   7.950
 7316POPC   C4B38590   2.602  12.672   7.650
 7317POPC   NC338591  40.802  34.605   9.450
 7317POPC   PO438592  40.802  34.566   9.150
 7317POPC   GL138593  40.790  34.582   8.850
 7317POPC   GL238594  40.892  34.481   8.850
 7317POPC   C1A38595  40.758  34.588   8.550
 7317POPC   D2A38596  40.822  34.536   8.250
 7317POPC   C3A38597  40.803  34.549   7.950
 7317POPC   C4A38598  40.814  34.623   7.650
 7317POPC   C1B38599  40.882  34.358   8.550
 7317POPC   C2B38600  40.914  34.364   8.250
 7317POPC   C3B38601  40.939  34.368   7.950
 7317POPC   C4B38602  40.885  34.339   7.650
 7318POPC   NC338603   9.718  25.245   9.450
 7318POPC   PO438604   9.726  25.274   9.150
 7318POPC   GL138605   9.772  25.227   8.850
 7318POPC   GL238606   9.615  25.173   8.850
 7318POPC   C1A38607   9.746  25.264   8.550
 7318POPC   D2A38608   9.770  25.260   8.250
 7318POPC   C3A38609   9.734  25.278   7.950
 7318POPC   C4A38610   9.788  25.262   7.650
 7318POPC   C1B38611   9.566  25.191   8.550
 7318POPC   C2B38612   9.528  25.216   8.250
 7318POPC   C3B38613   9.479  25.153   7.950
 7318POPC   C4B38614   9.508  25.207   7.650
 7319POPC   NC338615  40.747   8.175   9.450
 7319POPC   PO438616  40.831   8.198   9.150
 7319POPC   GL138617  40.792   8.181   8.850
 7319POPC   GL238618  40.696   8.189   8.850
 7319POPC   C1A38619  40.777   8.185   8.550
 7319POPC   D2A38620  40.776   8.172   8.250
 7319POPC   C3A38621  40.801   8.179   7.950
 7319POPC   C4A38622  40.819   8.182   7.650
 7319POPC   C1B38623  40.501   8.100   8.550
 7319POPC   C2B38624  40.531   8.079   8.250
 7319POPC   C3B38625  40.562   8.154   7.950
 7319POPC   C4B38626  40.544   8.118   7.650
 7320POPC   NC338627  31.457  22.978   9.450
 7320POPC   PO438628  31.484  22.973   9.150
 7320POPC   GL138629  31.444  22.963   8.850
 7320POPC   GL238630  31.490  23.086   8.850
 7320POPC   C1A38631  31.453  22.922   8.550
 7320POPC   D2A38632  31.507  22.978   8.250
 7320POPC   C3A38633  31.426  22.975   7.950
 7320POPC   C4A38634  31.457  22.961   7.650
 7320POPC   C1B38635  31.539  23.197   8.550
 7320POPC   C2B38636  31.496  23.204   8.250
 7320POPC   C3B38637  31.523  23.224   7.950
 7320POPC   C4B38638  31.457  23.166   7.650
 7321POPC   NC338639   6.682  34.529   9.450
 7321POPC   PO438640   6.684  34.601   9.150
 7321POPC   GL138641   6.648  34.573   8.850
 7321POPC   GL238642   6.632  34.489   8.850
 7321POPC   C1A38643   6.678  34.609   8.550
 7321POPC   D2A38644   6.620  34.603   8.250
 7321POPC   C3A38645   6.601  34.587   7.950
 7321POPC   C4A38646   6.596  34.564   7.650
 7321POPC   C1B38647   6.556  34.289   8.550
 7321POPC   C2B38648   6.583  34.324   8.250
 7321POPC   C3B38649   6.563  34.329   7.950
 7321POPC   C4B38650   6.594  34.344   7.650
 7322POPC   NC338651  32.200  29.959   9.450
 7322POPC   PO438652  32.240  29.948   9.150
 7322POPC   GL138653  32.279  29.890   8.850
 7322POPC   GL238654  32.280  29.836   8.850
 7322POPC   C1A38655  32.230  29.948   8.550
 7322POPC   D2A38656  32.228  29.939   8.250
 7322POPC   C3A38657  32.295  29.929   7.950
 7322POPC   C4A38658  32.233  29.953   7.650
 7322POPC   C1B38659  32.403  29.708   8.550
 7322POPC   C2B38660  32.361  29.753   8.250
 7322POPC   C3B38661  32.435  29.699   7.950
 7322POPC   C4B38662  32.408  29.701   7.650
 7323POPC   NC338663   0.445   1.261   9.450
 7323POPC   PO438664   0.442   1.216   9.150
 7323POPC   GL138665   0.450   1.256   8.850
 7323POPC   GL238666   0.588   1.218   8.850
 7323POPC   C1A38667   0.469   1.233   8.550
 7323POPC   D2A38668   0.480   1.177   8.250
 7323POPC   C3A38669   0.443   1.257   7.950
 7323POPC   C4A38670   0.438   1.205   7.650
 7323POPC   C1B38671   0.643   1.205   8.550
 7323POPC   C2B38672   0.653   1.239   8.250
 7323POPC   C3B38673   0.672   1.183   7.950
 7323POPC   C4B38674   0.709   1.202   7.650
 7324POPC   NC338675  41.544  20.596   9.450
 7324POPC   PO438676  41.546  20.652   9.150
 7324POPC   GL138677  41.514  20.619   8.850
 7324POPC   GL238678  41.681  20.529   8.850
 7324POPC   C1A38679  41.606  20.620   8.550
 7324POPC   D2A38680  41.595  20.602   8.250
 7324POPC   C3A38681  41.510  20.601   7.950
 7324POPC   C4A38682  41.531  20.658   7.650
 7324POPC   C1B38683  41.749  20.531   8.550
 7324POPC   C2B38684  41.761  20.470   8.250
 7324POPC   C3B38685  41.788  20.545   7.950
 7324POPC   C4B38686  41.756  20.513   7.650
 7325POPC   NC338687  40.764  19.020   9.450
 7325POPC   PO438688  40.761  19.025   9.150
 7325POPC   GL138689  40.788  19.012   8.850
 7325POPC   GL238690  40.715  18.965   8.850
 7325POPC   C1A38691  40.768  19.079   8.550
 7325POPC   D2A38692  40.803  19.094   8.250
 7325POPC   C3A38693  40.824  19.044   7.950
 7325POPC   C4A38694  40.785  19.064   7.650
 7325POPC   C1B38695  40.591  18.860   8.550
 7325POPC   C2B38696  40.666  18.877   8.250
 7325POPC   C3B38697  40.630  18.886   7.950
 7325POPC   C4B38698  40.584  18.893   7.650
 7326POPC   NC338699   1.179  40.780   9.450
 7326POPC   PO438700   1.212  40.819   9.150
 7326POPC   GL138701   1.222  40.760   8.850
 7326POPC   GL238702   1.353  40.818   8.850
 7326POPC   C1A38703   1.199  40.829   8.550
 7326POPC   D2A38704   1.234  40.756   8.250
 7326POPC   C3A38705   1.223  40.756   7.950
 7326POPC   C4A38706   1.189  40.780   7.650
 7326POPC   C1B38707   1.417  40.746   8.550
 7326POPC   C2B38708   1.440  40.801   8.250
 7326POPC   C3B38709   1.457  40.784   7.950
 7326POPC   C4B38710   1.450  40.744   7.650
 7327POPC   NC338711   1.999   8.204   9.450
 7327POPC   PO438712   1.986   8.234   9.150
 7327POPC   GL138713   2.006   8.216   8.850
 7327POPC   GL238714   2.098   8.250   8.850
 7327POPC   C1A38715   1.981   8.245   8.550
 7327POPC   D2A38716   1.984   8.209   8.250
 7327POPC   C3A38717   1.960   8.192   7.950
 7327POPC   C4A38718   1.980   8.196   7.650
 7327POPC   C1B38719   2.183   8.362   8.550
 7327POPC   C2B38720   2.162   8.328   8.250
 7327POPC   C3B38721   2.158   8.361   7.950
 7327POPC   C4B38722   2.246   8.293   7.650
 7328POPC   NC338723  30.699   4.342   9.450
 7328POPC   PO438724  30.658   4.343   9.150
 7328POPC   GL138725  30.712   4.269   8.850
 7328POPC   GL238726  30.620   4.218   8.850
 7328POPC   C1A38727  30.649   4.324   8.550
 7328POPC   D2A38728  30.663   4.337   8.250
 7328POPC   C3A38729  30.746   4.276   7.950
 7328POPC   C4A38730  30.665   4.342   7.650
 7328POPC   C1B38731  30.519   4.229   8.550
 7328POPC   C2B38732  30.483   4.197   8.250
 7328POPC   C3B38733  30.492   4.202   7.950
 7328POPC   C4B38734  30.498   4.173   7.650
 7329POPC   NC338735  37.724  21.390   9.450
 7329POPC   PO438736  37.704  21.425   9.150
 7329POPC   GL138737  37.720  21.376   8.850
 7329POPC   GL238738  37.716  21.278   8.850
 7329POPC   C1A38739  37.680  21.418   8.550
 7329POPC   D2A38740  37.728  21.399   8.250
 7329POPC   C3A38741  37.687  21.352   7.950
 7329POPC   C4A38742  37.690  21.373   7.650
 7329POPC   C1B38743  37.832  21.153   8.550
 7329POPC   C2B38744  37.808  21.120   8.250
 7329POPC   C3B38745  37.807  21.203   7.950
 7329POPC   C4B38746  37.785  21.159   7.650
 7330POPC   NC338747  20.641  12.837   9.450
 7330POPC   PO438748  20.610  12.802   9.150
 7330POPC   GL138749  20.643  12.857   8.850
 7330POPC   GL238750  20.456  12.877   8.850
 7330POPC   C1A38751  20.587  12.882   8.550
 7330POPC   D2A38752  20.599  12.879   8.250
 7330POPC   C3A38753  20.592  12.853   7.950
 7330POPC   C4A38754  20.587  12.873   7.650
 7330POPC   C1B38755  20.377  12.887   8.550
 7330POPC   C2B38756  20.348  12.848   8.250
 7330POPC   C3B38757  20.344  12.914   7.950
 7330POPC   C4B38758  20.410  12.887   7.650
 7331POPC   NC338759  26.057  15.167   9.450
 7331POPC   PO438760  26.022  15.146   9.150
 7331POPC   GL138761  26.065  15.210   8.850
 7331POPC   GL238762  26.071  15.330   8.850
 7331POPC   C1A38763  26.044  15.181   8.550
 7331POPC   D2A38764  26.029  15.187   8.250
 7331POPC   C3A38765  26.073  15.131   7.950
 7331POPC   C4A38766  26.040  15.153   7.650
 7331POPC   C1B38767  26.238  15.428   8.550
 7331POPC   C2B38768  26.151  15.417   8.250
 7331POPC   C3B38769  26.151  15.403   7.950
 7331POPC   C4B38770  26.233  15.409   7.650
 7332POPC   NC338771  20.618   0.444   9.450
 7332POPC   PO438772  20.623   0.397   9.150
 7332POPC   GL138773  20.603   0.468   8.850
 7332POPC   GL238774  20.456   0.452   8.850
 7332POPC   C1A38775  20.617   0.486   8.550
 7332POPC   D2A38776  20.635   0.426   8.250
 7332POPC   C3A38777  20.626   0.431   7.950
 7332POPC   C4A38778  20.626   0.466   7.650
 7332POPC   C1B38779  20.335   0.342   8.550
 7332POPC   C2B38780  20.334   0.384   8.250
 7332POPC   C3B38781  20.404   0.383   7.950
 7332POPC   C4B38782  20.357   0.344   7.650
 7333POPC   NC338783   5.905   1.188   9.450
 7333POPC   PO438784   5.915   1.226   9.150
 7333POPC   GL138785   5.881   1.172   8.850
 7333POPC   GL238786   5.800   1.330   8.850
 7333POPC   C1A38787   5.864   1.170   8.550
 7333POPC   D2A38788   5.844   1.218   8.250
 7333POPC   C3A38789   5.836   1.216   7.950
 7333POPC   C4A38790   5.897   1.229   7.650
 7333POPC   C1B38791   5.748   1.387   8.550
 7333POPC   C2B38792   5.707   1.460   8.250
 7333POPC   C3B38793   5.746   1.404   7.950
 7333POPC   C4B38794   5.722   1.402   7.650
 7334POPC   NC338795  32.975  42.289   9.450
 7334POPC   PO438796  33.063  42.307   9.150
 7334POPC   GL138797  32.995  42.323   8.850
 7334POPC   GL238798  32.943  42.483   8.850
 7334POPC   C1A38799  32.998  42.368   8.550
 7334POPC   D2A38800  33.033  42.325   8.250
 7334POPC   C3A38801  32.976  42.296   7.950
 7334POPC   C4A38802  32.992  42.310   7.650
 7334POPC   C1B38803  32.963  42.553   8.550
 7334POPC   C2B38804  33.006  42.540   8.250
 7334POPC   C3B38805  32.945  42.612   7.950
 7334POPC   C4B38806  32.965  42.623   7.650
 7335POPC   NC338807  23.727  36.134   9.450
 7335POPC   PO438808  23.700  36.124   9.150
 7335POPC   GL138809  23.707  36.136   8.850
 7335POPC   GL238810  23.861  36.117   8.850
 7335POPC   C1A38811  23.756  36.168   8.550
 7335POPC   D2A38812  23.681  36.115   8.250
 7335POPC   C3A38813  23.676  36.162   7.950
 7335POPC   C4A38814  23.701  36.175   7.650
 7335POPC   C1B38815  23.917  36.087   8.550
 7335POPC   C2B38816  23.997  36.118   8.250
 7335POPC   C3B38817  23.957  36.134   7.950
 7335POPC   C4B38818  23.934  36.108   7.650
 7336POPC   NC338819  33.772  33.819   9.450
 7336POPC   PO438820  33.764  33.819   9.150
 7336POPC   GL138821  33.796  33.822   8.850
 7336POPC   GL238822  33.883  33.731   8.850
 7336POPC   C1A38823  33.839  33.764   8.550
 7336POPC   D2A38824  33.812  33.817   8.250
 7336POPC   C3A38825  33.816  33.837   7.950
 7336POPC   C4A38826  33.796  33.757   7.650
 7336POPC   C1B38827  34.024  33.708   8.550
 7336POPC   C2B38828  34.053  33.699   8.250
 7336POPC   C3B38829  34.039  33.737   7.950
 7336POPC   C4B38830  34.005  33.707   7.650
 7337POPC   NC338831  19.067  33.784   9.450
 7337POPC   PO438832  19.050  33.814   9.150
 7337POPC   GL138833  19.102  33.757   8.850
 7337POPC   GL238834  18.990  33.845   8.850
 7337POPC   C1A38835  19.047  33.813   8.550
 7337POPC   D2A38836  19.026  33.777   8.250
 7337POPC   C3A38837  19.108  33.809   7.950
 7337POPC   C4A38838  19.101  33.830   7.650
 7337POPC   C1B38839  18.799  33.921   8.550
 7337POPC   C2B38840  18.863  33.930   8.250
 7337POPC   C3B38841  18.821  33.968   7.950
 7337POPC   C4B38842  18.828  33.906   7.650
 7338POPC   NC338843  30.732  12.813   9.450
 7338POPC   PO438844  30.722  12.836   9.150
 7338POPC   GL138845  30.703  12.841   8.850
 7338POPC   GL238846  30.816  12.849   8.850
 7338POPC   C1A38847  30.669  12.832   8.550
 7338POPC   D2A38848  30.685  12.809   8.250
 7338POPC   C3A38849  30.697  12.857   7.950
 7338POPC   C4A38850  30.704  12.889   7.650
 7338POPC   C1B38851  30.928  12.901   8.550
 7338POPC   C2B38852  30.964  12.887   8.250
 7338POPC   C3B38853  30.899  12.940   7.950
 7338POPC   C4B38854  30.985  12.890   7.650
 7339POPC   NC338855  12.891  41.522   9.450
 7339POPC   PO438856  12.805  41.559   9.150
 7339POPC   GL138857  12.893  41.597   8.850
 7339POPC   GL238858  12.890  41.465   8.850
 7339POPC   C1A38859  12.876  41.580   8.550
 7339POPC   D2A38860  12.861  41.537   8.250
 7339POPC   C3A38861  12.837  41.567   7.950
 7339POPC   C4A38862  12.901  41.543   7.650
 7339POPC   C1B38863  13.026  41.408   8.550
 7339POPC   C2B38864  12.984  41.415   8.250
 7339POPC   C3B38865  13.031  41.357   7.950
 7339POPC   C4B38866  13.033  41.422   7.650
 7340POPC   NC338867   5.057  40.764   9.450
 7340POPC   PO438868   5.117  40.759   9.150
 7340POPC   GL138869   5.122  40.789   8.850
 7340POPC   GL238870   5.076  40.695   8.850
 7340POPC   C1A38871   5.132  40.808   8.550
 7340POPC   D2A38872   5.115  40.810   8.250
 7340POPC   C3A38873   5.107  40.764   7.950
 7340POPC   C4A38874   5.099  40.739   7.650
 7340POPC   C1B38875   4.982  40.501   8.550
 7340POPC   C2B38876   5.015  40.513   8.250
 7340POPC   C3B38877   5.015  40.498   7.950
 7340POPC   C4B38878   5.027  40.558   7.650
 7341POPC   NC338879   8.951  17.512   9.450
 7341POPC   PO438880   8.952  17.553   9.150
 7341POPC   GL138881   8.976  17.551   8.850
 7341POPC   GL238882   8.878  17.416   8.850
 7341POPC   C1A38883   8.944  17.472   8.550
 7341POPC   D2A38884   8.968  17.474   8.250
 7341POPC   C3A38885   8.931  17.536   7.950
 7341POPC   C4A38886   8.969  17.513   7.650
 7341POPC   C1B38887   8.705  17.397   8.550
 7341POPC   C2B38888   8.725  17.409   8.250
 7341POPC   C3B38889   8.739  17.445   7.950
 7341POPC   C4B38890   8.726  17.376   7.650
 7342POPC   NC338891  28.413   8.246   9.450
 7342POPC   PO438892  28.363   8.245   9.150
 7342POPC   GL138893  28.378   8.148   8.850
 7342POPC   GL238894  28.497   8.338   8.850
 7342POPC   C1A38895  28.327   8.180   8.550
 7342POPC   D2A38896  28.332   8.166   8.250
 7342POPC   C3A38897  28.354   8.236   7.950
 7342POPC   C4A38898  28.373   8.166   7.650
 7342POPC   C1B38899  28.571   8.438   8.550
 7342POPC   C2B38900  28.509   8.431   8.250
 7342POPC   C3B38901  28.542   8.359   7.950
 7342POPC   C4B38902  28.519   8.412   7.650
 7343POPC   NC338903  13.665  16.686   9.450
 7343POPC   PO438904  13.660  16.770   9.150
 7343POPC   GL138905  13.604  16.698   8.850
 7343POPC   GL238906  13.536  16.664   8.850
 7343POPC   C1A38907  13.602  16.714   8.550
 7343POPC   D2A38908  13.635  16.775   8.250
 7343POPC   C3A38909  13.582  16.758   7.950
 7343POPC   C4A38910  13.628  16.733   7.650
 7343POPC   C1B38911  13.466  16.592   8.550
 7343POPC   C2B38912  13.450  16.579   8.250
 7343POPC   C3B38913  13.434  16.591   7.950
 7343POPC   C4B38914  13.405  16.579   7.650
 7344POPC   NC338915  23.684  19.041   9.450
 7344POPC   PO438916  23.727  19.031   9.150
 7344POPC   GL138917  23.738  19.029   8.850
 7344POPC   GL238918  23.778  18.987   8.850
 7344POPC   C1A38919  23.680  19.051   8.550
 7344POPC   D2A38920  23.692  19.049   8.250
 7344POPC   C3A38921  23.734  19.025   7.950
 7344POPC   C4A38922  23.724  19.040   7.650
 7344POPC   C1B38923  23.968  18.937   8.550
 7344POPC   C2B38924  23.949  18.915   8.250
 7344POPC   C3B38925  23.886  18.935   7.950
 7344POPC   C4B38926  23.977  18.920   7.650
 7345POPC   NC338927   4.290  21.426   9.450
 7345POPC   PO438928   4.282  21.404   9.150
 7345POPC   GL138929   4.289  21.346   8.850
 7345POPC   GL238930   4.404  21.301   8.850
 7345POPC   C1A38931   4.284  21.392   8.550
 7345POPC   D2A38932   4.316  21.346   8.250
 7345POPC   C3A38933   4.294  21.358   7.950
 7345POPC   C4A38934   4.320  21.367   7.650
 7345POPC   C1B38935   4.513  21.302   8.550
 7345POPC   C2B38936   4.538  21.303   8.250
 7345POPC   C3B38937   4.544  21.301   7.950
 7345POPC   C4B38938   4.532  21.253   7.650
 7346POPC   NC338939   5.097  33.009   9.450
 7346POPC   PO438940   5.067  33.051   9.150
 7346POPC   GL138941   5.107  33.032   8.850
 7346POPC   GL238942   4.980  32.999   8.850
 7346POPC   C1A38943   5.094  33.008   8.550
 7346POPC   D2A38944   5.089  33.068   8.250
 7346POPC   C3A38945   5.086  33.009   7.950
 7346POPC   C4A38946   5.119  33.060   7.650
 7346POPC   C1B38947   4.870  33.026   8.550
 7346POPC   C2B38948   4.865  33.048   8.250
 7346POPC   C3B38949   4.799  33.045   7.950
 7346POPC   C4B38950   4.799  33.032   7.650
 7347POPC   NC338951  21.337   6.676   9.450
 7347POPC   PO438952  21.385   6.678   9.150
 7347POPC   GL138953  21.373   6.694   8.850
 7347POPC   GL238954  21.368   6.724   8.850
 7347POPC   C1A38955  21.410   6.618   8.550
 7347POPC   D2A38956  21.395   6.671   8.250
 7347POPC   C3A38957  21.411   6.671   7.950
 7347POPC   C4A38958  21.411   6.657   7.650
 7347POPC   C1B38959  21.295   6.911   8.550
 7347POPC   C2B38960  21.345   6.910   8.250
 7347POPC   C3B38961  21.372   6.860   7.950
 7347POPC   C4B38962  21.313   6.867   7.650
 7348POPC   NC338963  33.829   0.426   9.450
 7348POPC   PO438964  33.850   0.440   9.150
 7348POPC   GL138965  33.840   0.391   8.850
 7348POPC   GL238966  33.790   0.536   8.850
 7348POPC   C1A38967  33.849   0.428   8.550
 7348POPC   D2A38968  33.811   0.401   8.250
 7348POPC   C3A38969  33.809   0.477   7.950
 7348POPC   C4A38970  33.829   0.419   7.650
 7348POPC   C1B38971  33.751   0.673   8.550
 7348POPC   C2B38972  33.773   0.684   8.250
 7348POPC   C3B38973  33.729   0.692   7.950
 7348POPC   C4B38974  33.737   0.635   7.650
 7349POPC   NC338975  22.133  43.063   9.450
 7349POPC   PO438976  22.187  43.097   9.150
 7349POPC   GL138977  22.115  43.075   8.850
 7349POPC   GL238978  22.025  43.208   8.850
 7349POPC   C1A38979  22.205  43.094   8.550
 7349POPC   D2A38980  22.202  43.079   8.250
 7349POPC   C3A38981  22.162  43.158   7.950
 7349POPC   C4A38982  22.155  43.097   7.650
 7349POPC   C1B38983  21.943  43.266   8.550
 7349POPC   C2B38984  21.972  43.303   8.250
 7349POPC   C3B38985  21.942  43.303   7.950
 7349POPC   C4B38986  21.992  43.265   7.650
 7350POPC   NC338987  28.382  36.880   9.450
 7350POPC   PO438988  28.321  36.901   9.150
 7350POPC   GL138989  28.400  36.908   8.850
 7350POPC   GL238990  28.344  36.821   8.850
 7350POPC   C1A38991  28.384  36.881   8.550
 7350POPC   D2A38992  28.330  36.898   8.250
 7350POPC   C3A38993  28.358  36.907   7.950
 7350POPC   C4A38994  28.412  36.883   7.650
 7350POPC   C1B38995  28.345  36.695   8.550
 7350POPC   C2B38996  28.277  36.712   8.250
 7350POPC   C3B38997  28.336  36.709   7.950
 7350POPC   C4B38998  28.266  36.697   7.650
 7351POPC   NC338999  14.383  15.954   5.550
 7351POPC   PO439000  14.384  15.999   5.850
 7351POPC   GL139001  14.435  15.936   6.150
 7351POPC   GL239002  14.299  16.097   6.150
 7351POPC   C1A39003  14.380  15.935   6.450
 7351POPC   D2A39004  14.368  15.933   6.750
 7351POPC   C3A39005  14.401  15.974   7.050
 7351POPC   C4A39006  14.355  15.971   7.350
 7351POPC   C1B39007  14.246  16.124   6.450
 7351POPC   C2B39008  14.323  16.123   6.750
 7351POPC   C3B39009  14.243  16.187   7.050
 7351POPC   C4B39010  14.239  16.186   7.350
 7352POPC   NC339011  14.422  31.472   5.550
 7352POPC   PO439012  14.388  31.491   5.850
 7352POPC   GL139013  14.422  31.429   6.150
 7352POPC   GL239014  14.314  31.462   6.150
 7352POPC   C1A39015  14.403  31.432   6.450
 7352POPC   D2A39016  14.375  31.454   6.750
 7352POPC   C3A39017  14.367  31.505   7.050
 7352POPC   C4A39018  14.359  31.496   7.350
 7352POPC   C1B39019  14.150  31.442   6.450
 7352POPC   C2B39020  14.140  31.449   6.750
 7352POPC   C3B39021  14.190  31.401   7.050
 7352POPC   C4B39022  14.126  31.448   7.350
 7353POPC   NC339023   3.553  13.603   5.550
 7353POPC   PO439024   3.588  13.609   5.850
 7353POPC   GL139025   3.577  13.583   6.150
 7353POPC   GL239026   3.487  13.518   6.150
 7353POPC   C1A39027   3.509  13.626   6.450
 7353POPC   D2A39028   3.536  13.638   6.750
 7353POPC   C3A39029   3.519  13.582   7.050
 7353POPC   C4A39030   3.552  13.672   7.350
 7353POPC   C1B39031   3.415  13.436   6.450
 7353POPC   C2B39032   3.454  13.360   6.750
 7353POPC   C3B39033   3.424  13.399   7.050
 7353POPC   C4B39034   3.496  13.403   7.350
 7354POPC   NC339035  24.512  40.757   5.550
 7354POPC   PO439036  24.539  40.787   5.850
 7354POPC   GL139037  24.444  40.744   6.150
 7354POPC   GL239038  24.599  40.689   6.150
 7354POPC   C1A39039  24.476  40.765   6.450
 7354POPC   D2A39040  24.484  40.811   6.750
 7354POPC   C3A39041  24.454  40.762   7.050
 7354POPC   C4A39042  24.529  40.795   7.350
 7354POPC   C1B39043  24.655  40.570   6.450
 7354POPC   C2B39044  24.589  40.538   6.750
 7354POPC   C3B39045  24.595  40.571   7.050
 7354POPC   C4B39046  24.661  40.518   7.350
 7355POPC   NC339047  29.912  27.602   5.550
 7355POPC   PO439048  29.956  27.641   5.850
 7355POPC   GL139049  29.911  27.618   6.150
 7355POPC   GL239050  30.028  27.527   6.150
 7355POPC   C1A39051  29.908  27.578   6.450
 7355POPC   D2A39052  29.881  27.609   6.750
 7355POPC   C3A39053  29.959  27.595   7.050
 7355POPC   C4A39054  29.959  27.543   7.350
 7355POPC   C1B39055  30.095  27.420   6.450
 7355POPC   C2B39056  30.067  27.442   6.750
 7355POPC   C3B39057  30.062  27.392   7.050
 7355POPC   C4B39058  30.092  27.409   7.350
 7356POPC   NC339059   4.350  12.805   5.550
 7356POPC   PO439060   4.363  12.897   5.850
 7356POPC   GL139061   4.310  12.869   6.150
 7356POPC   GL239062   4.201  12.864   6.150
 7356POPC   C1A39063   4.292  12.821   6.450
 7356POPC   D2A39064   4.340  12.846   6.750
 7356POPC   C3A39065   4.335  12.842   7.050
 7356POPC   C4A39066   4.358  12.899   7.350
 7356POPC   C1B39067   4.036  12.825   6.450
 7356POPC   C2B39068   4.027  12.826   6.750
 7356POPC   C3B39069   4.116  12.857   7.050
 7356POPC   C4B39070   4.117  12.896   7.350
 7357POPC   NC339071  30.693   9.759   5.550
 7357POPC   PO439072  30.709   9.783   5.850
 7357POPC   GL139073  30.720   9.742   6.150
 7357POPC   GL239074  30.673   9.893   6.150
 7357POPC   C1A39075  30.663   9.769   6.450
 7357POPC   D2A39076  30.652   9.782   6.750
 7357POPC   C3A39077  30.672   9.718   7.050
 7357POPC   C4A39078  30.702   9.792   7.350
 7357POPC   C1B39079  30.613   9.981   6.450
 7357POPC   C2B39080  30.613   9.937   6.750
 7357POPC   C3B39081  30.591   9.978   7.050
 7357POPC   C4B39082  30.574   9.944   7.350
 7358POPC   NC339083  36.137  28.348   5.550
 7358POPC   PO439084  36.115  28.387   5.850
 7358POPC   GL139085  36.164  28.416   6.150
 7358POPC   GL239086  35.959  28.344   6.150
 7358POPC   C1A39087  36.164  28.397   6.450
 7358POPC   D2A39088  36.147  28.368   6.750
 7358POPC   C3A39089  36.134  28.376   7.050
 7358POPC   C4A39090  36.106  28.363   7.350
 7358POPC   C1B39091  35.853  28.300   6.450
 7358POPC   C2B39092  35.848  28.360   6.750
 7358POPC   C3B39093  35.875  28.302   7.050
 7358POPC   C4B39094  35.873  28.314   7.350
 7359POPC   NC339095  15.984  38.407   5.550
 7359POPC   PO439096  15.998  38.481   5.850
 7359POPC   GL139097  15.962  38.436   6.150
 7359POPC   GL239098  16.041  38.556   6.150
 7359POPC   C1A39099  15.940  38.468   6.450
 7359POPC   D2A39100  15.995  38.473   6.750
 7359POPC   C3A39101  15.959  38.454   7.050
 7359POPC   C4A39102  15.952  38.419   7.350
 7359POPC   C1B39103  16.094  38.682   6.450
 7359POPC   C2B39104  16.122  38.638   6.750
 7359POPC   C3B39105  16.135  38.662   7.050
 7359POPC   C4B39106  16.060  38.709   7.350
 7360POPC   NC339107   5.857  22.942   5.550
 7360POPC   PO439108   5.880  22.932   5.850
 7360POPC   GL139109   5.864  22.930   6.150
 7360POPC   GL239110   5.930  22.827   6.150
 7360POPC   C1A39111   5.828  22.959   6.450
 7360POPC   D2A39112   5.884  22.949   6.750
 7360POPC   C3A39113   5.845  22.983   7.050
 7360POPC   C4A39114   5.852  22.907   7.350
 7360POPC   C1B39115   6.040  22.844   6.450
 7360POPC   C2B39116   6.088  22.836   6.750
 7360POPC   C3B39117   6.051  22.804   7.050
 7360POPC   C4B39118   6.043  22.777   7.350
 7361POPC   NC339119  29.898  26.063   5.550
 7361POPC   PO439120  29.916  26.048   5.850
 7361POPC   GL139121  29.891  26.043   6.150
 7361POPC   GL239122  29.898  26.127   6.150
 7361POPC   C1A39123  29.900  26.083   6.450
 7361POPC   D2A39124  29.893  26.061   6.750
 7361POPC   C3A39125  29.899  26.057   7.050
 7361POPC   C4A39126  29.951  26.023   7.350
 7361POPC   C1B39127  29.936  26.269   6.450
 7361POPC   C2B39128  29.869  26.328   6.750
 7361POPC   C3B39129  29.874  26.297   7.050
 7361POPC   C4B39130  29.943  26.241   7.350
 7362POPC   NC339131  23.672  20.600   5.550
 7362POPC   PO439132  23.747  20.612   5.850
 7362POPC   GL139133  23.749  20.628   6.150
 7362POPC   GL239134  23.836  20.735   6.150
 7362POPC   C1A39135  23.683  20.617   6.450
 7362POPC   D2A39136  23.710  20.599   6.750
 7362POPC   C3A39137  23.739  20.616   7.050
 7362POPC   C4A39138  23.757  20.630   7.350
 7362POPC   C1B39139  23.873  20.722   6.450
 7362POPC   C2B39140  23.925  20.762   6.750
 7362POPC   C3B39141  23.876  20.736   7.050
 7362POPC   C4B39142  23.924  20.807   7.350
 7363POPC   NC339143  27.636  15.211   5.550
 7363POPC   PO439144  27.556  15.146   5.850
 7363POPC   GL139145  27.561  15.133   6.150
 7363POPC   GL239146  27.681  15.240   6.150
 7363POPC   C1A39147  27.585  15.197   6.450
 7363POPC   D2A39148  27.622  15.218   6.750
 7363POPC   C3A39149  27.624  15.185   7.050
 7363POPC   C4A39150  27.615  15.140   7.350
 7363POPC   C1B39151  27.760  15.381   6.450
 7363POPC   C2B39152  27.775  15.335   6.750
 7363POPC   C3B39153  27.729  15.377   7.050
 7363POPC   C4B39154  27.758  15.317   7.350
 7364POPC   NC339155  34.610  36.078   5.550
 7364POPC   PO439156  34.615  36.160   5.850
 7364POPC   GL139157  34.593  36.144   6.150
 7364POPC   GL239158  34.469  36.122   6.150
 7364POPC   C1A39159  34.567  36.143   6.450
 7364POPC   D2A39160  34.600  36.165   6.750
 7364POPC   C3A39161  34.535  36.163   7.050
 7364POPC   C4A39162  34.529  36.168   7.350
 7364POPC   C1B39163  34.293  36.200   6.450
 7364POPC   C2B39164  34.335  36.178   6.750
 7364POPC   C3B39165  34.344  36.147   7.050
 7364POPC   C4B39166  34.363  36.136   7.350
 7365POPC   NC339167  15.916  15.180   5.550
 7365POPC   PO439168  15.920  15.210   5.850
 7365POPC   GL139169  15.916  15.211   6.150
 7365POPC   GL239170  16.069  15.054   6.150
 7365POPC   C1A39171  15.972  15.187   6.450
 7365POPC   D2A39172  15.911  15.222   6.750
 7365POPC   C3A39173  15.930  15.172   7.050
 7365POPC   C4A39174  15.984  15.199   7.350
 7365POPC   C1B39175  16.141  14.952   6.450
 7365POPC   C2B39176  16.084  14.970   6.750
 7365POPC   C3B39177  16.108  15.012   7.050
 7365POPC   C4B39178  16.133  14.996   7.350
 7366POPC   NC339179   7.380   3.499   5.550
 7366POPC   PO439180   7.402   3.526   5.850
 7366POPC   GL139181   7.399   3.574   6.150
 7366POPC   GL239182   7.282   3.594   6.150
 7366POPC   C1A39183   7.383   3.573   6.450
 7366POPC   D2A39184   7.458   3.591   6.750
 7366POPC   C3A39185   7.384   3.575   7.050
 7366POPC   C4A39186   7.381   3.567   7.350
 7366POPC   C1B39187   7.210   3.617   6.450
 7366POPC   C2B39188   7.161   3.525   6.750
 7366POPC   C3B39189   7.192   3.615   7.050
 7366POPC   C4B39190   7.158   3.545   7.350
 7367POPC   NC339191  21.354  15.139   5.550
 7367POPC   PO439192  21.408  15.163   5.850
 7367POPC   GL139193  21.375  15.213   6.150
 7367POPC   GL239194  21.215  15.233   6.150
 7367POPC   C1A39195  21.386  15.217   6.450
 7367POPC   D2A39196  21.422  15.150   6.750
 7367POPC   C3A39197  21.394  15.146   7.050
 7367POPC   C4A39198  21.422  15.145   7.350
 7367POPC   C1B39199  21.096  15.240   6.450
 7367POPC   C2B39200  21.102  15.194   6.750
 7367POPC   C3B39201  21.187  15.254   7.050
 7367POPC   C4B39202  21.160  15.218   7.350
 7368POPC   NC339203  19.791  22.914   5.550
 7368POPC   PO439204  19.787  22.961   5.850
 7368POPC   GL139205  19.785  22.954   6.150
 7368POPC   GL239206  19.768  22.990   6.150
 7368POPC   C1A39207  19.822  22.911   6.450
 7368POPC   D2A39208  19.849  22.951   6.750
 7368POPC   C3A39209  19.825  22.951   7.050
 7368POPC   C4A39210  19.802  22.923   7.350
 7368POPC   C1B39211  19.597  23.096   6.450
 7368POPC   C2B39212  19.669  23.078   6.750
 7368POPC   C3B39213  19.602  23.077   7.050
 7368POPC   C4B39214  19.603  23.116   7.350
 7369POPC   NC339215  34.571  34.561   5.550
 7369POPC   PO439216  34.607  34.574   5.850
 7369POPC   GL139217  34.556  34.574   6.150
 7369POPC   GL239218  34.681  34.616   6.150
 7369POPC   C1A39219  34.612  34.532   6.450
 7369POPC   D2A39220  34.596  34.616   6.750
 7369POPC   C3A39221  34.615  34.568   7.050
 7369POPC   C4A39222  34.581  34.572   7.350
 7369POPC   C1B39223  34.777  34.636   6.450
 7369POPC   C2B39224  34.822  34.581   6.750
 7369POPC   C3B39225  34.776  34.628   7.050
 7369POPC   C4B39226  34.785  34.629   7.350
 7370POPC   NC339227  21.384  38.440   5.550
 7370POPC   PO439228  21.383  38.467   5.850
 7370POPC   GL139229  21.393  38.425   6.150
 7370POPC   GL239230  21.530  38.478   6.150
 7370POPC   C1A39231  21.376  38.416   6.450
 7370POPC   D2A39232  21.352  38.427   6.750
 7370POPC   C3A39233  21.372  38.458   7.050
 7370POPC   C4A39234  21.367  38.497   7.350
 7370POPC   C1B39235  21.612  38.495   6.450
 7370POPC   C2B39236  21.642  38.487   6.750
 7370POPC   C3B39237  21.654  38.530   7.050
 7370POPC   C4B39238  21.603  38.463   7.350
 7371POPC   NC339239   1.175  12.047   5.550
 7371POPC   PO439240   1.228  12.122   5.850
 7371POPC   GL139241   1.192  12.042   6.150
 7371POPC   GL239242   1.309  11.935   6.150
 7371POPC   C1A39243   1.237  12.107   6.450
 7371POPC   D2A39244   1.207  12.065   6.750
 7371POPC   C3A39245   1.180  12.061   7.050
 7371POPC   C4A39246   1.166  12.084   7.350
 7371POPC   C1B39247   1.323  11.892   6.450
 7371POPC   C2B39248   1.348  11.906   6.750
 7371POPC   C3B39249   1.351  11.897   7.050
 7371POPC   C4B39250   1.293  11.820   7.350
 7372POPC   NC339251  43.106   2.731   5.550
 7372POPC   PO439252  43.159   2.756   5.850
 7372POPC   GL139253  43.068   2.742   6.150
 7372POPC   GL239254  42.969   2.900   6.150
 7372POPC   C1A39255  43.087   2.800   6.450
 7372POPC   D2A39256  43.125   2.741   6.750
 7372POPC   C3A39257  43.076   2.761   7.050
 7372POPC   C4A39258  43.131   2.749   7.350
 7372POPC   C1B39259  42.954   2.949   6.450
 7372POPC   C2B39260  42.879   2.959   6.750
 7372POPC   C3B39261  42.930   2.937   7.050
 7372POPC   C4B39262  42.967   2.887   7.350
 7373POPC   NC339263  32.218  33.819   5.550
 7373POPC   PO439264  32.238  33.773   5.850
 7373POPC   GL139265  32.235  33.754   6.150
 7373POPC   GL239266  32.344  33.877   6.150
 7373POPC   C1A39267  32.269  33.835   6.450
 7373POPC   D2A39268  32.257  33.753   6.750
 7373POPC   C3A39269  32.284  33.785   7.050
 7373POPC   C4A39270  32.267  33.847   7.350
 7373POPC   C1B39271  32.458  33.817   6.450
 7373POPC   C2B39272  32.518  33.849   6.750
 7373POPC   C3B39273  32.517  33.814   7.050
 7373POPC   C4B39274  32.504  33.830   7.350
 7374POPC   NC339275  40.032  15.163   5.550
 7374POPC   PO439276  39.981  15.169   5.850
 7374POPC   GL139277  39.966  15.189   6.150
 7374POPC   GL239278  40.126  15.251   6.150
 7374POPC   C1A39279  39.972  15.135   6.450
 7374POPC   D2A39280  40.040  15.225   6.750
 7374POPC   C3A39281  40.045  15.136   7.050
 7374POPC   C4A39282  40.023  15.207   7.350
 7374POPC   C1B39283  40.213  15.295   6.450
 7374POPC   C2B39284  40.171  15.311   6.750
 7374POPC   C3B39285  40.191  15.353   7.050
 7374POPC   C4B39286  40.206  15.342   7.350
 7375POPC   NC339287  29.955   5.833   5.550
 7375POPC   PO439288  29.937   5.837   5.850
 7375POPC   GL139289  29.953   5.843   6.150
 7375POPC   GL239290  30.016   6.006   6.150
 7375POPC   C1A39291  29.964   5.918   6.450
 7375POPC   D2A39292  29.954   5.866   6.750
 7375POPC   C3A39293  29.921   5.899   7.050
 7375POPC   C4A39294  29.922   5.822   7.350
 7375POPC   C1B39295  30.057   6.051   6.450
 7375POPC   C2B39296  30.048   6.077   6.750
 7375POPC   C3B39297  30.051   6.085   7.050
 7375POPC   C4B39298  29.999   6.080   7.350
 7376POPC   NC339299   0.449  44.679   5.550
 7376POPC   PO439300   0.433  44.668   5.850
 7376POPC   GL139301   0.475  44.631   6.150
 7376POPC   GL239302   0.361  44.817   6.150
 7376POPC   C1A39303   0.456  44.631   6.450
 7376POPC   D2A39304   0.445  44.634   6.750
 7376POPC   C3A39305   0.448  44.622   7.050
 7376POPC   C4A39306   0.420  44.678   7.350
 7376POPC   C1B39307   0.403  44.912   6.450
 7376POPC   C2B39308   0.427  44.936   6.750
 7376POPC   C3B39309   0.363  44.887   7.050
 7376POPC   C4B39310   0.375  44.954   7.350
 7377POPC   NC339311  29.942  43.139   5.550
 7377POPC   PO439312  29.957  43.155   5.850
 7377POPC   GL139313  29.904  43.068   6.150
 7377POPC   GL239314  30.052  43.167   6.150
 7377POPC   C1A39315  29.966  43.150   6.450
 7377POPC   D2A39316  29.927  43.082   6.750
 7377POPC   C3A39317  29.944  43.062   7.050
 7377POPC   C4A39318  29.926  43.086   7.350
 7377POPC   C1B39319  30.150  43.270   6.450
 7377POPC   C2B39320  30.182  43.287   6.750
 7377POPC   C3B39321  30.165  43.209   7.050
 7377POPC   C4B39322  30.177  43.273   7.350
 7378POPC   NC339323   6.685  15.922   5.550
 7378POPC   PO439324   6.680  15.983   5.850
 7378POPC   GL139325   6.631  15.952   6.150
 7378POPC   GL239326   6.697  16.051   6.150
 7378POPC   C1A39327   6.639  15.967   6.450
 7378POPC   D2A39328   6.612  15.927   6.750
 7378POPC   C3A39329   6.676  15.990   7.050
 7378POPC   C4A39330   6.667  15.994   7.350
 7378POPC   C1B39331   6.798  16.196   6.450
 7378POPC   C2B39332   6.791  16.175   6.750
 7378POPC   C3B39333   6.755  16.219   7.050
 7378POPC   C4B39334   6.746  16.194   7.350
 7379POPC   NC339335  27.579  13.589   5.550
 7379POPC   PO439336  27.622  13.611   5.850
 7379POPC   GL139337  27.576  13.602   6.150
 7379POPC   GL239338  27.617  13.495   6.150
 7379POPC   C1A39339  27.614  13.657   6.450
 7379POPC   D2A39340  27.632  13.637   6.750
 7379POPC   C3A39341  27.577  13.661   7.050
 7379POPC   C4A39342  27.628  13.593   7.350
 7379POPC   C1B39343  27.632  13.368   6.450
 7379POPC   C2B39344  27.579  13.361   6.750
 7379POPC   C3B39345  27.634  13.389   7.050
 7379POPC   C4B39346  27.564  13.380   7.350
 7380POPC   NC339347  35.351  20.576   5.550
 7380POPC   PO439348  35.325  20.570   5.850
 7380POPC   GL139349  35.330  20.596   6.150
 7380POPC   GL239350  35.493  20.621   6.150
 7380POPC   C1A39351  35.371  20.570   6.450
 7380POPC   D2A39352  35.304  20.625   6.750
 7380POPC   C3A39353  35.314  20.562   7.050
 7380POPC   C4A39354  35.371  20.562   7.350
 7380POPC   C1B39355  35.581  20.663   6.450
 7380POPC   C2B39356  35.551  20.645   6.750
 7380POPC   C3B39357  35.595  20.675   7.050
 7380POPC   C4B39358  35.578  20.693   7.350
 7381POPC   NC339359  39.992  41.599   5.550
 7381POPC   PO439360  40.015  41.512   5.850
 7381POPC   GL139361  39.990  41.592   6.150
 7381POPC   GL239362  40.118  41.618   6.150
 7381POPC   C1A39363  40.030  41.565   6.450
 7381POPC   D2A39364  40.008  41.566   6.750
 7381POPC   C3A39365  39.970  41.588   7.050
 7381POPC   C4A39366  39.963  41.578   7.350
 7381POPC   C1B39367  40.262  41.566   6.450
 7381POPC   C2B39368  40.287  41.577   6.750
 7381POPC   C3B39369  40.220  41.558   7.050
 7381POPC   C4B39370  40.293  41.573   7.350
 7382POPC   NC339371  19.844   1.176   5.550
 7382POPC   PO439372  19.845   1.252   5.850
 7382POPC   GL139373  19.786   1.200   6.150
 7382POPC   GL239374  19.939   1.299   6.150
 7382POPC   C1A39375  19.864   1.181   6.450
 7382POPC   D2A39376  19.797   1.206   6.750
 7382POPC   C3A39377  19.793   1.244   7.050
 7382POPC   C4A39378  19.809   1.251   7.350
 7382POPC   C1B39379  20.059   1.312   6.450
 7382POPC   C2B39380  20.077   1.332   6.750
 7382POPC   C3B39381  20.058   1.315   7.050
 7382POPC   C4B39382  20.112   1.267   7.350
 7383POPC   NC339383  40.007  37.708   5.550
 7383POPC   PO439384  40.014  37.667   5.850
 7383POPC   GL139385  40.055  37.685   6.150
 7383POPC   GL239386  39.901  37.616   6.150
 7383POPC   C1A39387  40.007  37.688   6.450
 7383POPC   D2A39388  40.012  37.715   6.750
 7383POPC   C3A39389  40.035  37.672   7.050
 7383POPC   C4A39390  40.052  37.692   7.350
 7383POPC   C1B39391  39.768  37.509   6.450
 7383POPC   C2B39392  39.756  37.590   6.750
 7383POPC   C3B39393  39.814  37.526   7.050
 7383POPC   C4B39394  39.761  37.586   7.350
 7384POPC   NC339395   2.000  33.039   5.550
 7384POPC   PO439396   2.019  33.071   5.850
 7384POPC   GL139397   1.944  33.058   6.150
 7384POPC   GL239398   2.080  33.062   6.150
 7384POPC   C1A39399   1.981  33.010   6.450
 7384POPC   D2A39400   2.002  32.991   6.750
 7384POPC   C3A39401   2.023  33.033   7.050
 7384POPC   C4A39402   1.965  32.979   7.350
 7384POPC   C1B39403   2.265  32.977   6.450
 7384POPC   C2B39404   2.281  33.018   6.750
 7384POPC   C3B39405   2.240  33.035   7.050
 7384POPC   C4B39406   2.213  33.027   7.350
 7385POPC   NC339407  32.212  19.097   5.550
 7385POPC   PO439408  32.215  19.079   5.850
 7385POPC   GL139409  32.240  19.107   6.150
 7385POPC   GL239410  32.302  19.087   6.150
 7385POPC   C1A39411  32.237  19.042   6.450
 7385POPC   D2A39412  32.255  19.100   6.750
 7385POPC   C3A39413  32.294  19.104   7.050
 7385POPC   C4A39414  32.202  19.092   7.350
 7385POPC   C1B39415  32.478  19.188   6.450
 7385POPC   C2B39416  32.455  19.207   6.750
 7385POPC   C3B39417  32.404  19.169   7.050
 7385POPC   C4B39418  32.406  19.173   7.350
 7386POPC   NC339419  19.846  11.301   5.550
 7386POPC   PO439420  19.852  11.325   5.850
 7386POPC   GL139421  19.856  11.268   6.150
 7386POPC   GL239422  19.717  11.326   6.150
 7386POPC   C1A39423  19.820  11.324   6.450
 7386POPC   D2A39424  19.883  11.274   6.750
 7386POPC   C3A39425  19.843  11.344   7.050
 7386POPC   C4A39426  19.807  11.322   7.350
 7386POPC   C1B39427  19.668  11.427   6.450
 7386POPC   C2B39428  19.599  11.413   6.750
 7386POPC   C3B39429  19.672  11.389   7.050
 7386POPC   C4B39430  19.622  11.406   7.350
 7387POPC   NC339431  15.140   5.110   5.550
 7387POPC   PO439432  15.192   5.065   5.850
 7387POPC   GL139433  15.139   5.140   6.150
 7387POPC   GL239434  15.271   5.060   6.150
 7387POPC   C1A39435  15.202   5.124   6.450
 7387POPC   D2A39436  15.163   5.103   6.750
 7387POPC   C3A39437  15.214   5.047   7.050
 7387POPC   C4A39438  15.166   5.086   7.350
 7387POPC   C1B39439  15.412   5.005   6.450
 7387POPC   C2B39440  15.375   5.019   6.750
 7387POPC   C3B39441  15.433   5.086   7.050
 7387POPC   C4B39442  15.436   5.094   7.350
 7388POPC   NC339443  30.655  27.559   5.550
 7388POPC   PO439444  30.741  27.553   5.850
 7388POPC   GL139445  30.667  27.566   6.150
 7388POPC   GL239446  30.801  27.711   6.150
 7388POPC   C1A39447  30.653  27.568   6.450
 7388POPC   D2A39448  30.723  27.623   6.750
 7388POPC   C3A39449  30.709  27.550   7.050
 7388POPC   C4A39450  30.736  27.565   7.350
 7388POPC   C1B39451  30.781  27.771   6.450
 7388POPC   C2B39452  30.761  27.838   6.750
 7388POPC   C3B39453  30.782  27.797   7.050
 7388POPC   C4B39454  30.829  27.790   7.350
 7389POPC   NC339455  36.120  19.096   5.550
 7389POPC   PO439456  36.155  19.105   5.850
 7389POPC   GL139457  36.078  19.037   6.150
 7389POPC   GL239458  36.097  18.971   6.150
 7389POPC   C1A39459  36.150  19.052   6.450
 7389POPC   D2A39460  36.166  19.103   6.750
 7389POPC   C3A39461  36.132  19.076   7.050
 7389POPC   C4A39462  36.108  19.095   7.350
 7389POPC   C1B39463  36.034  18.789   6.450
 7389POPC   C2B39464  35.975  18.868   6.750
 7389POPC   C3B39465  36.067  18.870   7.050
 7389POPC   C4B39466  36.009  18.790   7.350
 7390POPC   NC339467  43.849  30.738   5.550
 7390POPC   PO439468  43.841  30.685   5.850
 7390POPC   GL139469  43.862  30.717   6.150
 7390POPC   GL239470  43.722  30.672   6.150
 7390POPC   C1A39471  43.872  30.655   6.450
 7390POPC   D2A39472  43.936  30.650   6.750
 7390POPC   C3A39473  43.927  30.663   7.050
 7390POPC   C4A39474  43.922  30.657   7.350
 7390POPC   C1B39475  43.593  30.745   6.450
 7390POPC   C2B39476  43.672  30.762   6.750
 7390POPC   C3B39477  43.634  30.716   7.050
 7390POPC   C4B39478  43.593  30.730   7.350
 7391POPC   NC339479  23.736   2.749   5.550
 7391POPC   PO439480  23.711   2.735   5.850
 7391POPC   GL139481  23.757   2.739   6.150
 7391POPC   GL239482  23.642   2.839   6.150
 7391POPC   C1A39483  23.747   2.726   6.450
 7391POPC   D2A39484  23.716   2.813   6.750
 7391POPC   C3A39485  23.709   2.740   7.050
 7391POPC   C4A39486  23.719   2.717   7.350
 7391POPC   C1B39487  23.494   2.891   6.450
 7391POPC   C2B39488  23.495   2.883   6.750
 7391POPC   C3B39489  23.518   2.951   7.050
 7391POPC   C4B39490  23.478   2.882   7.350
 7392POPC   NC339491  41.588  17.555   5.550
 7392POPC   PO439492  41.518  17.495   5.850
 7392POPC   GL139493  41.541  17.539   6.150
 7392POPC   GL239494  41.535  17.377   6.150
 7392POPC   C1A39495  41.580  17.512   6.450
 7392POPC   D2A39496  41.519  17.467   6.750
 7392POPC   C3A39497  41.546  17.478   7.050
 7392POPC   C4A39498  41.581  17.485   7.350
 7392POPC   C1B39499  41.649  17.253   6.450
 7392POPC   C2B39500  41.649  17.259   6.750
 7392POPC   C3B39501  41.596  17.291   7.050
 7392POPC   C4B39502  41.648  17.298   7.350
 7393POPC   NC339503   4.274  16.691   5.550
 7393POPC   PO439504   4.347  16.760   5.850
 7393POPC   GL139505   4.308  16.718   6.150
 7393POPC   GL239506   4.223  16.877   6.150
 7393POPC   C1A39507   4.361  16.749   6.450
 7393POPC   D2A39508   4.275  16.751   6.750
 7393POPC   C3A39509   4.278  16.779   7.050
 7393POPC   C4A39510   4.357  16.765   7.350
 7393POPC   C1B39511   4.199  16.965   6.450
 7393POPC   C2B39512   4.178  16.998   6.750
 7393POPC   C3B39513   4.242  16.985   7.050
 7393POPC   C4B39514   4.188  16.918   7.350
 7394POPC   NC339515  40.793  12.832   5.550
 7394POPC   PO439516  40.789  12.877   5.850
 7394POPC   GL139517  40.766  12.817   6.150
 7394POPC   GL239518  40.820  12.780   6.150
 7394POPC   C1A39519  40.784  12.865   6.450
 7394POPC   D2A39520  40.799  12.889   6.750
 7394POPC   C3A39521  40.777  12.869   7.050
 7394POPC   C4A39522  40.749  12.866   7.350
 7394POPC   C1B39523  40.863  12.580   6.450
 7394POPC   C2B39524  40.877  12.624   6.750
 7394POPC   C3B39525  40.857  12.615   7.050
 7394POPC   C4B39526  40.906  12.659   7.350
 7395POPC   NC339527  41.562   0.484   5.550
 7395POPC   PO439528  41.590   0.399   5.850
 7395POPC   GL139529  41.537   0.482   6.150
 7395POPC   GL239530  41.677   0.410   6.150
 7395POPC   C1A39531  41.596   0.390   6.450
 7395POPC   D2A39532  41.544   0.400   6.750
 7395POPC   C3A39533  41.547   0.405   7.050
 7395POPC   C4A39534  41.547   0.434   7.350
 7395POPC   C1B39535  41.851   0.451   6.450
 7395POPC   C2B39536  41.799   0.521   6.750
 7395POPC   C3B39537  41.825   0.519   7.050
 7395POPC   C4B39538  41.782   0.453   7.350
 7396POPC   NC339539  15.150  30.682   5.550
 7396POPC   PO439540  15.202  30.680   5.850
 7396POPC   GL139541  15.207  30.695   6.150
 7396POPC   GL239542  15.334  30.647   6.150
 7396POPC   C1A39543  15.189  30.735   6.450
 7396POPC   D2A39544  15.130  30.704   6.750
 7396POPC   C3A39545  15.202  30.715   7.050
 7396POPC   C4A39546  15.218  30.738   7.350
 7396POPC   C1B39547  15.398  30.572   6.450
 7396POPC   C2B39548  15.391  30.568   6.750
 7396POPC   C3B39549  15.377  30.606   7.050
 7396POPC   C4B39550  15.434  30.554   7.350
 7397POPC   NC339551   8.985   8.981   5.550
 7397POPC   PO439552   8.930   8.977   5.850
 7397POPC   GL139553   8.926   9.005   6.150
 7397POPC   GL239554   8.857   8.993   6.150
 7397POPC   C1A39555   8.986   8.944   6.450
 7397POPC   D2A39556   8.924   8.953   6.750
 7397POPC   C3A39557   8.948   8.998   7.050
 7397POPC   C4A39558   9.011   9.020   7.350
 7397POPC   C1B39559   8.705   9.071   6.450
 7397POPC   C2B39560   8.697   9.044   6.750
 7397POPC   C3B39561   8.738   9.021   7.050
 7397POPC   C4B39562   8.733   9.043   7.350
 7398POPC   NC339563  40.777  35.357   5.550
 7398POPC   PO439564  40.766  35.391   5.850
 7398POPC   GL139565  40.827  35.387   6.150
 7398POPC   GL239566  40.917  35.354   6.150
 7398POPC   C1A39567  40.756  35.323   6.450
 7398POPC   D2A39568  40.818  35.302   6.750
 7398POPC   C3A39569  40.830  35.308   7.050
 7398POPC   C4A39570  40.831  35.311   7.350
 7398POPC   C1B39571  41.042  35.301   6.450
 7398POPC   C2B39572  41.032  35.293   6.750
 7398POPC   C3B39573  41.023  35.352   7.050
 7398POPC   C4B39574  41.055  35.337   7.350
 7399POPC   NC339575  43.116  32.202   5.550
 7399POPC   PO439576  43.114  32.265   5.850
 7399POPC   GL139577  43.089  32.287   6.150
 7399POPC   GL239578  43.205  32.327   6.150
 7399POPC   C1A39579  43.081  32.238   6.450
 7399POPC   D2A39580  43.136  32.298   6.750
 7399POPC   C3A39581  43.140  32.223   7.050
 7399POPC   C4A39582  43.069  32.253   7.350
 7399POPC   C1B39583  43.348  32.315   6.450
 7399POPC   C2B39584  43.330  32.379   6.750
 7399POPC   C3B39585  43.379  32.376   7.050
 7399POPC   C4B39586  43.347  32.366   7.350
 7400POPC   NC339587  28.418  42.318   5.550
 7400POPC   PO439588  28.351  42.348   5.850
 7400POPC   GL139589  28.401  42.376   6.150
 7400POPC   GL239590  28.501  42.428   6.150
 7400POPC   C1A39591  28.347  42.341   6.450
 7400POPC   D2A39592  28.401  42.296   6.750
 7400POPC   C3A39593  28.379  42.324   7.050
 7400POPC   C4A39594  28.349  42.318   7.350
 7400POPC   C1B39595  28.545  42.412   6.450
 7400POPC   C2B39596  28.582  42.458   6.750
 7400POPC   C3B39597  28.637  42.418   7.050
 7400POPC   C4B39598  28.570  42.424   7.350
 7401POPC   NC339599  18.305   8.983   5.550
 7401POPC   PO439600  18.279   8.985   5.850
 7401POPC   GL139601  18.262   8.931   6.150
 7401POPC   GL239602  18.221   9.084   6.150
 7401POPC   C1A39603  18.322   8.934   6.450
 7401POPC   D2A39604  18.281   9.021   6.750
 7401POPC   C3A39605  18.325   8.927   7.050
 7401POPC   C4A39606  18.319   8.957   7.350
 7401POPC   C1B39607  18.202   9.186   6.450
 7401POPC   C2B39608  18.151   9.220   6.750
 7401POPC   C3B39609  18.195   9.146   7.050
 7401POPC   C4B39610  18.181   9.172   7.350
 7402POPC   NC339611  19.097  38.472   5.550
 7402POPC   PO439612  19.017  38.445   5.850
 7402POPC   GL139613  19.077  38.420   6.150
 7402POPC   GL239614  19.175  38.484   6.150
 7402POPC   C1A39615  19.094  38.417   6.450
 7402POPC   D2A39616  19.088  38.463   6.750
 7402POPC   C3A39617  19.093  38.457   7.050
 7402POPC   C4A39618  19.057  38.486   7.350
 7402POPC   C1B39619  19.312  38.428   6.450
 7402POPC   C2B39620  19.355  38.505   6.750
 7402POPC   C3B39621  19.323  38.422   7.050
 7402POPC   C4B39622  19.350  38.417   7.350
 7403POPC   NC339623   5.072   7.466   5.550
 7403POPC   PO439624   5.062   7.383   5.850
 7403POPC   GL139625   5.048   7.381   6.150
 7403POPC   GL239626   4.955   7.385   6.150
 7403POPC   C1A39627   5.053   7.372   6.450
 7403POPC   D2A39628   5.107   7.398   6.750
 7403POPC   C3A39629   5.134   7.466   7.050
 7403POPC   C4A39630   5.143   7.439   7.350
 7403POPC   C1B39631   4.805   7.436   6.450
 7403POPC   C2B39632   4.794   7.364   6.750
 7403POPC   C3B39633   4.857   7.395   7.050
 7403POPC   C4B39634   4.871   7.371   7.350
 7404POPC   NC339635   3.570  16.746   5.550
 7404POPC   PO439636   3.507  16.756   5.850
 7404POPC   GL139637   3.539  16.724   6.150
 7404POPC   GL239638   3.511  16.810   6.150
 7404POPC   C1A39639   3.510  16.692   6.450
 7404POPC   D2A39640   3.519  16.711   6.750
 7404POPC   C3A39641   3.502  16.717   7.050
 7404POPC   C4A39642   3.549  16.724   7.350
 7404POPC   C1B39643   3.476  16.977   6.450
 7404POPC   C2B39644   3.472  16.954   6.750
 7404POPC   C3B39645   3.495  16.992   7.050
 7404POPC   C4B39646   3.465  17.028   7.350
 7405POPC   NC339647  21.377  17.526   5.550
 7405POPC   PO439648  21.342  17.501   5.850
 7405POPC   GL139649  21.413  17.501   6.150
 7405POPC   GL239650  21.340  17.661   6.150
 7405POPC   C1A39651  21.353  17.493   6.450
 7405POPC   D2A39652  21.414  17.509   6.750
 7405POPC   C3A39653  21.411  17.486   7.050
 7405POPC   C4A39654  21.380  17.460   7.350
 7405POPC   C1B39655  21.326  17.749   6.450
 7405POPC   C2B39656  21.297  17.696   6.750
 7405POPC   C3B39657  21.346  17.755   7.050
 7405POPC   C4B39658  21.330  17.704   7.350
 7406POPC   NC339659  14.440  38.408   5.550
 7406POPC   PO439660  14.403  38.448   5.850
 7406POPC   GL139661  14.433  38.480   6.150
 7406POPC   GL239662  14.448  38.314   6.150
 7406POPC   C1A39663  14.442  38.466   6.450
 7406POPC   D2A39664  14.391  38.492   6.750
 7406POPC   C3A39665  14.400  38.416   7.050
 7406POPC   C4A39666  14.435  38.463   7.350
 7406POPC   C1B39667  14.532  38.227   6.450
 7406POPC   C2B39668  14.547  38.192   6.750
 7406POPC   C3B39669  14.543  38.253   7.050
 7406POPC   C4B39670  14.491  38.201   7.350
 7407POPC   NC339671  43.851   6.667   5.550
 7407POPC   PO439672  43.912   6.626   5.850
 7407POPC   GL139673  43.911   6.656   6.150
 7407POPC   GL239674  43.815   6.737   6.150
 7407POPC   C1A39675  43.886   6.659   6.450
 7407POPC   D2A39676  43.881   6.673   6.750
 7407POPC   C3A39677  43.864   6.670   7.050
 7407POPC   C4A39678  43.890   6.611   7.350
 7407POPC   C1B39679  43.803   6.874   6.450
 7407POPC   C2B39680  43.735   6.909   6.750
 7407POPC   C3B39681  43.761   6.865   7.050
 7407POPC   C4B39682  43.733   6.825   7.350
 7408POPC   NC339683  19.864  36.894   5.550
 7408POPC   PO439684  19.806  36.887   5.850
 7408POPC   GL139685  19.863  36.866   6.150
 7408POPC   GL239686  19.718  36.899   6.150
 7408POPC   C1A39687  19.802  36.889   6.450
 7408POPC   D2A39688  19.850  36.894   6.750
 7408POPC   C3A39689  19.811  36.857   7.050
 7408POPC   C4A39690  19.843  36.899   7.350
 7408POPC   C1B39691  19.616  36.981   6.450
 7408POPC   C2B39692  19.637  36.982   6.750
 7408POPC   C3B39693  19.564  36.993   7.050
 7408POPC   C4B39694  19.586  36.951   7.350
 7409POPC   NC339695  19.860  14.378   5.550
 7409POPC   PO439696  19.879  14.432   5.850
 7409POPC   GL139697  19.791  14.414   6.150
 7409POPC   GL239698  19.896  14.250   6.150
 7409POPC   C1A39699  19.865  14.444   6.450
 7409POPC   D2A39700  19.882  14.415   6.750
 7409POPC   C3A39701  19.849  14.378   7.050
 7409POPC   C4A39702  19.827  14.403   7.350
 7409POPC   C1B39703  19.889  14.130   6.450
 7409POPC   C2B39704  19.866  14.162   6.750
 7409POPC   C3B39705  19.913  14.155   7.050
 7409POPC   C4B39706  19.911  14.158   7.350
 7410POPC   NC339707  14.390  21.362   5.550
 7410POPC   PO439708  14.421  21.398   5.850
 7410POPC   GL139709  14.426  21.414   6.150
 7410POPC   GL239710  14.419  21.465   6.150
 7410POPC   C1A39711  14.407  21.352   6.450
 7410POPC   D2A39712  14.384  21.422   6.750
 7410POPC   C3A39713  14.375  21.414   7.050
 7410POPC   C4A39714  14.383  21.427   7.350
 7410POPC   C1B39715  14.529  21.634   6.450
 7410POPC   C2B39716  14.476  21.628   6.750
 7410POPC   C3B39717  14.491  21.599   7.050
 7410POPC   C4B39718  14.522  21.642   7.350
 7411POPC   NC339719   3.555   9.701   5.550
 7411POPC   PO439720   3.553   9.732   5.850
 7411POPC   GL139721   3.554   9.781   6.150
 7411POPC   GL239722   3.410   9.861   6.150
 7411POPC   C1A39723   3.579   9.742   6.450
 7411POPC   D2A39724   3.543   9.766   6.750
 7411POPC   C3A39725   3.519   9.793   7.050
 7411POPC   C4A39726   3.492   9.751   7.350
 7411POPC   C1B39727   3.300   9.885   6.450
 7411POPC   C2B39728   3.360   9.922   6.750
 7411POPC   C3B39729   3.324   9.931   7.050
 7411POPC   C4B39730   3.306   9.918   7.350
 7412POPC   NC339731   9.755   9.729   5.550
 7412POPC   PO439732   9.723   9.699   5.850
 7412POPC   GL139733   9.779   9.769   6.150
 7412POPC   GL239734   9.899   9.739   6.150
 7412POPC   C1A39735   9.716   9.773   6.450
 7412POPC   D2A39736   9.707   9.749   6.750
 7412POPC   C3A39737   9.742   9.716   7.050
 7412POPC   C4A39738   9.707   9.781   7.350
 7412POPC   C1B39739   9.958   9.738   6.450
 7412POPC   C2B39740   9.949   9.710   6.750
 7412POPC   C3B39741   9.971   9.775   7.050
 7412POPC   C4B39742   9.958   9.776   7.350
 7413POPC   NC339743  16.761  11.301   5.550
 7413POPC   PO439744  16.740  11.322   5.850
 7413POPC   GL139745  16.687  11.275   6.150
 7413POPC   GL239746  16.614  11.368   6.150
 7413POPC   C1A39747  16.754  11.300   6.450
 7413POPC   D2A39748  16.718  11.271   6.750
 7413POPC   C3A39749  16.756  11.336   7.050
 7413POPC   C4A39750  16.728  11.287   7.350
 7413POPC   C1B39751  16.552  11.454   6.450
 7413POPC   C2B39752  16.515  11.444   6.750
 7413POPC   C3B39753  16.492  11.410   7.050
 7413POPC   C4B39754  16.560  11.475   7.350
 7414POPC   NC339755   4.328  29.103   5.550
 7414POPC   PO439756   4.356  29.176   5.850
 7414POPC   GL139757   4.364  29.114   6.150
 7414POPC   GL239758   4.236  29.078   6.150
 7414POPC   C1A39759   4.291  29.148   6.450
 7414POPC   D2A39760   4.285  29.142   6.750
 7414POPC   C3A39761   4.327  29.134   7.050
 7414POPC   C4A39762   4.351  29.115   7.350
 7414POPC   C1B39763   4.063  29.054   6.450
 7414POPC   C2B39764   4.045  29.086   6.750
 7414POPC   C3B39765   4.059  29.121   7.050
 7414POPC   C4B39766   4.043  29.055   7.350
 7415POPC   NC339767  41.602  19.819   5.550
 7415POPC   PO439768  41.545  19.805   5.850
 7415POPC   GL139769  41.588  19.881   6.150
 7415POPC   GL239770  41.588  19.930   6.150
 7415POPC   C1A39771  41.591  19.844   6.450
 7415POPC   D2A39772  41.594  19.798   6.750
 7415POPC   C3A39773  41.581  19.807   7.050
 7415POPC   C4A39774  41.524  19.854   7.350
 7415POPC   C1B39775  41.567  20.051   6.450
 7415POPC   C2B39776  41.564  20.095   6.750
 7415POPC   C3B39777  41.536  20.042   7.050
 7415POPC   C4B39778  41.567  20.128   7.350
 7416POPC   NC339779   0.439  29.153   5.550
 7416POPC   PO439780   0.415  29.126   5.850
 7416POPC   GL139781   0.469  29.110   6.150
 7416POPC   GL239782   0.358  29.231   6.150
 7416POPC   C1A39783   0.393  29.110   6.450
 7416POPC   D2A39784   0.403  29.193   6.750
 7416POPC   C3A39785   0.469  29.194   7.050
 7416POPC   C4A39786   0.473  29.175   7.350
 7416POPC   C1B39787   0.256  29.345   6.450
 7416POPC   C2B39788   0.306  29.282   6.750
 7416POPC   C3B39789   0.265  29.274   7.050
 7416POPC   C4B39790   0.250  29.270   7.350
 7417POPC   NC339791  36.855  27.543   5.550
 7417POPC   PO439792  36.929  27.605   5.850
 7417POPC   GL139793  36.948  27.561   6.150
 7417POPC   GL239794  36.773  27.653   6.150
 7417POPC   C1A39795  36.943  27.557   6.450
 7417POPC   D2A39796  36.860  27.592   6.750
 7417POPC   C3A39797  36.923  27.600   7.050
 7417POPC   C4A39798  36.887  27.558   7.350
 7417POPC   C1B39799  36.706  27.790   6.450
 7417POPC   C2B39800  36.766  27.768   6.750
 7417POPC   C3B39801  36.736  27.809   7.050
 7417POPC   C4B39802  36.713  27.731   7.350
 7418POPC   NC339803  16.694  15.202   5.550
 7418POPC   PO439804  16.720  15.173   5.850
 7418POPC   GL139805  16.700  15.131   6.150
 7418POPC   GL239806  16.878  15.143   6.150
 7418POPC   C1A39807  16.780  15.160   6.450
 7418POPC   D2A39808  16.707  15.193   6.750
 7418POPC   C3A39809  16.701  15.166   7.050
 7418POPC   C4A39810  16.725  15.171   7.350
 7418POPC   C1B39811  16.981  15.061   6.450
 7418POPC   C2B39812  16.958  14.998   6.750
 7418POPC   C3B39813  16.930  15.057   7.050
 7418POPC   C4B39814  16.973  15.080   7.350
 7419POPC   NC339815  28.353   7.410   5.550
 7419POPC   PO439816  28.365   7.412   5.850
 7419POPC   GL139817  28.371   7.427   6.150
 7419POPC   GL239818  28.450   7.348   6.150
 7419POPC   C1A39819  28.407   7.421   6.450
 7419POPC   D2A39820  28.320   7.407   6.750
 7419POPC   C3A39821  28.351   7.439   7.050
 7419POPC   C4A39822  28.333   7.390   7.350
 7419POPC   C1B39823  28.567   7.322   6.450
 7419POPC   C2B39824  28.556   7.279   6.750
 7419POPC   C3B39825  28.603   7.271   7.050
 7419POPC   C4B39826  28.548   7.293   7.350
 7420POPC   NC339827  23.758  41.576   5.550
 7420POPC   PO439828  23.722  41.594   5.850
 7420POPC   GL139829  23.668  41.549   6.150
 7420POPC   GL239830  23.877  41.520   6.150
 7420POPC   C1A39831  23.692  41.546   6.450
 7420POPC   D2A39832  23.696  41.603   6.750
 7420POPC   C3A39833  23.684  41.572   7.050
 7420POPC   C4A39834  23.711  41.560   7.350
 7420POPC   C1B39835  23.918  41.445   6.450
 7420POPC   C2B39836  23.922  41.449   6.750
 7420POPC   C3B39837  23.936  41.455   7.050
 7420POPC   C4B39838  23.967  41.468   7.350
 7421POPC   NC339839   5.902  32.989   5.550
 7421POPC   PO439840   5.908  33.058   5.850
 7421POPC   GL139841   5.908  33.040   6.150
 7421POPC   GL239842   5.750  32.968   6.150
 7421POPC   C1A39843   5.869  33.061   6.450
 7421POPC   D2A39844   5.851  33.025   6.750
 7421POPC   C3A39845   5.892  33.023   7.050
 7421POPC   C4A39846   5.899  33.005   7.350
 7421POPC   C1B39847   5.629  32.950   6.450
 7421POPC   C2B39848   5.619  33.019   6.750
 7421POPC   C3B39849   5.634  33.031   7.050
 7421POPC   C4B39850   5.573  32.979   7.350
 7422POPC   NC339851  40.755  28.351   5.550
 7422POPC   PO439852  40.733  28.325   5.850
 7422POPC   GL139853  40.771  28.367   6.150
 7422POPC   GL239854  40.723  28.295   6.150
 7422POPC   C1A39855  40.763  28.375   6.450
 7422POPC   D2A39856  40.740  28.356   6.750
 7422POPC   C3A39857  40.812  28.369   7.050
 7422POPC   C4A39858  40.736  28.345   7.350
 7422POPC   C1B39859  40.662  28.173   6.450
 7422POPC   C2B39860  40.602  28.206   6.750
 7422POPC   C3B39861  40.644  28.207   7.050
 7422POPC   C4B39862  40.583  28.140   7.350
 7423POPC   NC339863  10.523  44.677   5.550
 7423POPC   PO439864  10.554  44.705   5.850
 7423POPC   GL139865  10.536  44.645   6.150
 7423POPC   GL239866  10.542  44.504   6.150
 7423POPC   C1A39867  10.509  44.614   6.450
 7423POPC   D2A39868  10.526  44.702   6.750
 7423POPC   C3A39869  10.484  44.646   7.050
 7423POPC   C4A39870  10.505  44.638   7.350
 7423POPC   C1B39871  10.481  44.383   6.450
 7423POPC   C2B39872  10.524  44.393   6.750
 7423POPC   C3B39873  10.511  44.377   7.050
 7423POPC   C4B39874  10.478  44.409   7.350
 7424POPC   NC339875  35.354  15.140   5.550
 7424POPC   PO439876  35.362  15.155   5.850
 7424POPC   GL139877  35.314  15.187   6.150
 7424POPC   GL239878  35.501  15.235   6.150
 7424POPC   C1A39879  35.318  15.171   6.450
 7424POPC   D2A39880  35.312  15.158   6.750
 7424POPC   C3A39881  35.302  15.157   7.050
 7424POPC   C4A39882  35.386  15.177   7.350
 7424POPC   C1B39883  35.631  15.192   6.450
 7424POPC   C2B39884  35.590  15.213   6.750
 7424POPC   C3B39885  35.575  15.246   7.050
 7424POPC   C4B39886  35.623  15.233   7.350
 7425POPC   NC339887  31.432  19.851   5.550
 7425POPC   PO439888  31.432  19.879   5.850
 7425POPC   GL139889  31.478  19.857   6.150
 7425POPC   GL239890  31.548  19.983   6.150
 7425POPC   C1A39891  31.503  19.825   6.450
 7425POPC   D2A39892  31.466  19.814   6.750
 7425POPC   C3A39893  31.435  19.840   7.050
 7425POPC   C4A39894  31.468  19.832   7.350
 7425POPC   C1B39895  31.626  20.085   6.450
 7425POPC   C2B39896  31.629  20.027   6.750
 7425POPC   C3B39897  31.654  20.080   7.050
 7425POPC   C4B39898  31.659  20.059   7.350
 7426POPC   NC339899  14.422  29.921   5.550
 7426POPC   PO439900  14.448  29.948   5.850
 7426POPC   GL139901  14.383  29.954   6.150
 7426POPC   GL239902  14.507  29.922   6.150
 7426POPC   C1A39903  14.405  29.924   6.450
 7426POPC   D2A39904  14.364  29.941   6.750
 7426POPC   C3A39905  14.392  29.895   7.050
 7426POPC   C4A39906  14.452  29.953   7.350
 7426POPC   C1B39907  14.653  29.925   6.450
 7426POPC   C2B39908  14.666  29.879   6.750
 7426POPC   C3B39909  14.697  29.878   7.050
 7426POPC   C4B39910  14.628  29.935   7.350
 7427POPC   NC339911  40.004  35.372   5.550
 7427POPC   PO439912  40.018  35.360   5.850
 7427POPC   GL139913  40.036  35.367   6.150
 7427POPC   GL239914  40.125  35.282   6.150
 7427POPC   C1A39915  40.028  35.400   6.450
 7427POPC   D2A39916  39.958  35.326   6.750
 7427POPC   C3A39917  40.011  35.392   7.050
 7427POPC   C4A39918  40.030  35.396   7.350
 7427POPC   C1B39919  40.289  35.272   6.450
 7427POPC   C2B39920  40.293  35.358   6.750
 7427POPC   C3B39921  40.271  35.315   7.050
 7427POPC   C4B39922  40.215  35.333   7.350
 7428POPC   NC339923  39.199   0.454   5.550
 7428POPC   PO439924  39.185   0.425   5.850
 7428POPC   GL139925  39.234   0.410   6.150
 7428POPC   GL239926  39.087   0.440   6.150
 7428POPC   C1A39927  39.243   0.403   6.450
 7428POPC   D2A39928  39.255   0.480   6.750
 7428POPC   C3A39929  39.219   0.460   7.050
 7428POPC   C4A39930  39.261   0.435   7.350
 7428POPC   C1B39931  38.943   0.358   6.450
 7428POPC   C2B39932  38.993   0.392   6.750
 7428POPC   C3B39933  39.013   0.363   7.050
 7428POPC   C4B39934  38.960   0.332   7.350
 7429POPC   NC339935  36.107  39.982   5.550
 7429POPC   PO439936  36.170  40.002   5.850
 7429POPC   GL139937  36.115  40.027   6.150
 7429POPC   GL239938  36.085  39.950   6.150
 7429POPC   C1A39939  36.106  40.053   6.450
 7429POPC   D2A39940  36.137  40.010   6.750
 7429POPC   C3A39941  36.154  40.036   7.050
 7429POPC   C4A39942  36.165  40.012   7.350
 7429POPC   C1B39943  35.985  39.769   6.450
 7429POPC   C2B39944  35.946  39.757   6.750
 7429POPC   C3B39945  36.017  39.816   7.050
 7429POPC   C4B39946  36.024  39.788   7.350
 7430POPC   NC339947  23.712  37.715   5.550
 7430POPC   PO439948  23.664  37.693   5.850
 7430POPC   GL139949  23.749  37.720   6.150
 7430POPC   GL239950  23.781  37.603   6.150
 7430POPC   C1A39951  23.665  37.632   6.450
 7430POPC   D2A39952  23.749  37.657   6.750
 7430POPC   C3A39953  23.688  37.709   7.050
 7430POPC   C4A39954  23.739  37.652   7.350
 7430POPC   C1B39955  23.880  37.511   6.450
 7430POPC   C2B39956  23.964  37.520   6.750
 7430POPC   C3B39957  23.955  37.560   7.050
 7430POPC   C4B39958  23.899  37.573   7.350
 7431POPC   NC339959  19.038   6.660   5.550
 7431POPC   PO439960  19.029   6.684   5.850
 7431POPC   GL139961  19.043   6.640   6.150
 7431POPC   GL239962  19.021   6.763   6.150
 7431POPC   C1A39963  19.079   6.630   6.450
 7431POPC   D2A39964  19.071   6.641   6.750
 7431POPC   C3A39965  19.024   6.668   7.050
 7431POPC   C4A39966  19.019   6.602   7.350
 7431POPC   C1B39967  18.993   6.909   6.450
 7431POPC   C2B39968  18.995   6.911   6.750
 7431POPC   C3B39969  18.962   6.916   7.050
 7431POPC   C4B39970  18.958   6.854   7.350
 7432POPC   NC339971  24.534  42.355   5.550
 7432POPC   PO439972  24.518  42.325   5.850
 7432POPC   GL139973  24.488  42.322   6.150
 7432POPC   GL239974  24.621  42.308   6.150
 7432POPC   C1A39975  24.469  42.352   6.450
 7432POPC   D2A39976  24.498  42.343   6.750
 7432POPC   C3A39977  24.451  42.332   7.050
 7432POPC   C4A39978  24.452  42.313   7.350
 7432POPC   C1B39979  24.724  42.242   6.450
 7432POPC   C2B39980  24.772  42.242   6.750
 7432POPC   C3B39981  24.683  42.248   7.050
 7432POPC   C4B39982  24.737  42.269   7.350
 7433POPC   NC339983  15.922  26.843   5.550
 7433POPC   PO439984  15.993  26.780   5.850
 7433POPC   GL139985  15.957  26.829   6.150
 7433POPC   GL239986  15.968  26.737   6.150
 7433POPC   C1A39987  15.927  26.787   6.450
 7433POPC   D2A39988  15.994  26.822   6.750
 7433POPC   C3A39989  15.925  26.816   7.050
 7433POPC   C4A39990  15.914  26.843   7.350
 7433POPC   C1B39991  15.910  26.619   6.450
 7433POPC   C2B39992  15.913  26.617   6.750
 7433POPC   C3B39993  15.938  26.552   7.050
 7433POPC   C4B39994  15.893  26.578   7.350
 7434POPC   NC339995  13.623  43.839   5.550
 7434POPC   PO439996  13.608  43.868   5.850
 7434POPC   GL139997  13.614  43.934   6.150
 7434POPC   GL239998  13.669  44.033   6.150
 7434POPC   C1A39999  13.646  43.933   6.450
 7434POPC   D2A40000  13.606  43.897   6.750
 7434POPC   C3A40001  13.651  43.863   7.050
 7434POPC   C4A40002  13.674  43.854   7.350
 7434POPC   C1B40003  13.724  44.066   6.450
 7434POPC   C2B40004  13.774  44.111   6.750
 7434POPC   C3B40005  13.716  44.085   7.050
 7434POPC   C4B40006  13.803  44.113   7.350
 7435POPC   NC340007  26.014  14.405   5.550
 7435POPC   PO440008  26.091  14.405   5.850
 7435POPC   GL140009  26.002  14.402   6.150
 7435POPC   GL240010  26.078  14.525   6.150
 7435POPC   C1A40011  26.031  14.432   6.450
 7435POPC   D2A40012  26.084  14.358   6.750
 7435POPC   C3A40013  26.067  14.407   7.050
 7435POPC   C4A40014  26.049  14.403   7.350
 7435POPC   C1B40015  26.198  14.576   6.450
 7435POPC   C2B40016  26.213  14.601   6.750
 7435POPC   C3B40017  26.145  14.640   7.050
 7435POPC   C4B40018  26.188  14.608   7.350
 7436POPC   NC340019  41.571  15.217   5.550
 7436POPC   PO440020  41.526  15.179   5.850
 7436POPC   GL140021  41.590  15.203   6.150
 7436POPC   GL240022  41.713  15.125   6.150
 7436POPC   C1A40023  41.568  15.163   6.450
 7436POPC   D2A40024  41.605  15.201   6.750
 7436POPC   C3A40025  41.540  15.201   7.050
 7436POPC   C4A40026  41.524  15.211   7.350
 7436POPC   C1B40027  41.828  15.074   6.450
 7436POPC   C2B40028  41.812  15.137   6.750
 7436POPC   C3B40029  41.761  15.127   7.050
 7436POPC   C4B40030  41.811  15.067   7.350
 7437POPC   NC340031   7.459  15.178   5.550
 7437POPC   PO440032   7.374  15.223   5.850
 7437POPC   GL140033   7.407  15.209   6.150
 7437POPC   GL240034   7.579  15.270   6.150
 7437POPC   C1A40035   7.459  15.177   6.450
 7437POPC   D2A40036   7.427  15.171   6.750
 7437POPC   C3A40037   7.393  15.142   7.050
 7437POPC   C4A40038   7.414  15.189   7.350
 7437POPC   C1B40039   7.657  15.272   6.450
 7437POPC   C2B40040   7.618  15.226   6.750
 7437POPC   C3B40041   7.684  15.283   7.050
 7437POPC   C4B40042   7.670  15.266   7.350
 7438POPC   NC340043  33.802  27.618   5.550
 7438POPC   PO440044  33.799  27.585   5.850
 7438POPC   GL140045  33.825  27.571   6.150
 7438POPC   GL240046  33.855  27.550   6.150
 7438POPC   C1A40047  33.767  27.594   6.450
 7438POPC   D2A40048  33.831  27.587   6.750
 7438POPC   C3A40049  33.842  27.548   7.050
 7438POPC   C4A40050  33.784  27.633   7.350
 7438POPC   C1B40051  33.975  27.438   6.450
 7438POPC   C2B40052  33.994  27.491   6.750
 7438POPC   C3B40053  34.033  27.499   7.050
 7438POPC   C4B40054  34.036  27.471   7.350
 7439POPC   NC340055   4.365  26.811   5.550
 7439POPC   PO440056   4.278  26.792   5.850
 7439POPC   GL140057   4.311  26.816   6.150
 7439POPC   GL240058   4.354  26.724   6.150
 7439POPC   C1A40059   4.307  26.865   6.450
 7439POPC   D2A40060   4.284  26.771   6.750
 7439POPC   C3A40061   4.328  26.790   7.050
 7439POPC   C4A40062   4.363  26.840   7.350
 7439POPC   C1B40063   4.412  26.612   6.450
 7439POPC   C2B40064   4.437  26.575   6.750
 7439POPC   C3B40065   4.370  26.607   7.050
 7439POPC   C4B40066   4.458  26.579   7.350
 7440POPC   NC340067  38.449  22.971   5.550
 7440POPC   PO440068  38.434  22.958   5.850
 7440POPC   GL140069  38.447  22.948   6.150
 7440POPC   GL240070  38.516  23.007   6.150
 7440POPC   C1A40071  38.468  22.924   6.450
 7440POPC   D2A40072  38.412  22.943   6.750
 7440POPC   C3A40073  38.475  22.966   7.050
 7440POPC   C4A40074  38.415  22.987   7.350
 7440POPC   C1B40075  38.603  23.161   6.450
 7440POPC   C2B40076  38.579  23.148   6.750
 7440POPC   C3B40077  38.590  23.133   7.050
 7440POPC   C4B40078  38.647  23.125   7.350
 7441POPC   NC340079  33.775  31.501   5.550
 7441POPC   PO440080  33.768  31.485   5.850
 7441POPC   GL140081  33.797  31.457   6.150
 7441POPC   GL240082  33.919  31.409   6.150
 7441POPC   C1A40083  33.814  31.431   6.450
 7441POPC   D2A40084  33.765  31.499   6.750
 7441POPC   C3A40085  33.837  31.439   7.050
 7441POPC   C4A40086  33.845  31.520   7.350
 7441POPC   C1B40087  33.994  31.371   6.450
 7441POPC   C2B40088  34.009  31.371   6.750
 7441POPC   C3B40089  34.086  31.410   7.050
 7441POPC   C4B40090  33.993  31.371   7.350
 7442POPC   NC340091  33.797  29.103   5.550
 7442POPC   PO440092  33.764  29.194   5.850
 7442POPC   GL140093  33.806  29.190   6.150
 7442POPC   GL240094  33.901  29.008   6.150
 7442POPC   C1A40095  33.760  29.158   6.450
 7442POPC   D2A40096  33.778  29.154   6.750
 7442POPC   C3A40097  33.810  29.124   7.050
 7442POPC   C4A40098  33.795  29.099   7.350
 7442POPC   C1B40099  33.934  28.898   6.450
 7442POPC   C2B40100  33.887  28.912   6.750
 7442POPC   C3B40101  33.938  28.888   7.050
 7442POPC   C4B40102  33.917  28.949   7.350
 7443POPC   NC340103  43.064  34.580   5.550
 7443POPC   PO440104  43.115  34.589   5.850
 7443POPC   GL140105  43.118  34.592   6.150
 7443POPC   GL240106  43.197  34.633   6.150
 7443POPC   C1A40107  43.067  34.533   6.450
 7443POPC   D2A40108  43.120  34.579   6.750
 7443POPC   C3A40109  43.078  34.607   7.050
 7443POPC   C4A40110  43.145  34.620   7.350
 7443POPC   C1B40111  43.368  34.708   6.450
 7443POPC   C2B40112  43.341  34.735   6.750
 7443POPC   C3B40113  43.348  34.727   7.050
 7443POPC   C4B40114  43.323  34.692   7.350
 7444POPC   NC340115  27.609   1.196   5.550
 7444POPC   PO440116  27.618   1.253   5.850
 7444POPC   GL140117  27.594   1.237   6.150
 7444POPC   GL240118  27.709   1.194   6.150
 7444POPC   C1A40119  27.583   1.172   6.450
 7444POPC   D2A40120  27.625   1.239   6.750
 7444POPC   C3A40121  27.560   1.240   7.050
 7444POPC   C4A40122  27.560   1.189   7.350
 7444POPC   C1B40123  27.855   1.249   6.450
 7444POPC   C2B40124  27.885   1.220   6.750
 7444POPC   C3B40125  27.855   1.203   7.050
 7444POPC   C4B40126  27.798   1.247   7.350
 7445POPC   NC340127   1.250  16.776   5.550
 7445POPC   PO440128   1.257  16.742   5.850
 7445POPC   GL140129   1.215  16.689   6.150
 7445POPC   GL240130   1.134  16.702   6.150
 7445POPC   C1A40131   1.244  16.778   6.450
 7445POPC   D2A40132   1.199  16.702   6.750
 7445POPC   C3A40133   1.196  16.775   7.050
 7445POPC   C4A40134   1.263  16.689   7.350
 7445POPC   C1B40135   1.015  16.694   6.450
 7445POPC   C2B40136   0.995  16.636   6.750
 7445POPC   C3B40137   0.979  16.694   7.050
 7445POPC   C4B40138   1.020  16.668   7.350
 7446POPC   NC340139  19.040   5.057   5.550
 7446POPC   PO440140  19.052   5.133   5.850
 7446POPC   GL140141  19.029   5.102   6.150
 7446POPC   GL240142  19.167   5.143   6.150
 7446POPC   C1A40143  19.058   5.143   6.450
 7446POPC   D2A40144  19.077   5.043   6.750
 7446POPC   C3A40145  19.033   5.124   7.050
 7446POPC   C4A40146  19.098   5.139   7.350
 7446POPC   C1B40147  19.193   5.233   6.450
 7446POPC   C2B40148  19.185   5.230   6.750
 7446POPC   C3B40149  19.201   5.315   7.050
 7446POPC   C4B40150  19.245   5.320   7.350
 7447POPC   NC340151   0.394  15.961   5.550
 7447POPC   PO440152   0.483  15.963   5.850
 7447POPC   GL140153   0.440  15.950   6.150
 7447POPC   GL240154   0.529  15.957   6.150
 7447POPC   C1A40155   0.420  15.941   6.450
 7447POPC   D2A40156   0.466  15.979   6.750
 7447POPC   C3A40157   0.430  15.964   7.050
 7447POPC   C4A40158   0.437  15.941   7.350
 7447POPC   C1B40159   0.627  15.924   6.450
 7447POPC   C2B40160   0.641  15.916   6.750
 7447POPC   C3B40161   0.708  15.835   7.050
 7447POPC   C4B40162   0.654  15.932   7.350
 7448POPC   NC340163  29.917  42.312   5.550
 7448POPC   PO440164  29.936  42.320   5.850
 7448POPC   GL140165  29.916  42.364   6.150
 7448POPC   GL240166  30.009  42.369   6.150
 7448POPC   C1A40167  29.908  42.369   6.450
 7448POPC   D2A40168  29.909  42.375   6.750
 7448POPC   C3A40169  29.915  42.358   7.050
 7448POPC   C4A40170  29.958  42.305   7.350
 7448POPC   C1B40171  30.189  42.375   6.450
 7448POPC   C2B40172  30.121  42.339   6.750
 7448POPC   C3B40173  30.170  42.304   7.050
 7448POPC   C4B40174  30.124  42.302   7.350
 7449POPC   NC340175  43.160   5.132   5.550
 7449POPC   PO440176  43.140   5.138   5.850
 7449POPC   GL140177  43.070   5.079   6.150
 7449POPC   GL240178  43.155   4.979   6.150
 7449POPC   C1A40179  43.091   5.070   6.450
 7449POPC   D2A40180  43.139   5.079   6.750
 7449POPC   C3A40181  43.109   5.082   7.050
 7449POPC   C4A40182  43.134   5.092   7.350
 7449POPC   C1B40183  43.255   4.915   6.450
 7449POPC   C2B40184  43.342   4.961   6.750
 7449POPC   C3B40185  43.286   4.949   7.050
 7449POPC   C4B40186  43.298   4.912   7.350
 7450POPC   NC340187  42.300  21.348   5.550
 7450POPC   PO440188  42.304  21.436   5.850
 7450POPC   GL140189  42.346  21.434   6.150
 7450POPC   GL240190  42.243  21.363   6.150
 7450POPC   C1A40191  42.325  21.405   6.450
 7450POPC   D2A40192  42.357  21.418   6.750
 7450POPC   C3A40193  42.370  21.361   7.050
 7450POPC   C4A40194  42.338  21.371   7.350
 7450POPC   C1B40195  42.104  21.380   6.450
 7450POPC   C2B40196  42.082  21.367   6.750
 7450POPC   C3B40197  42.097  21.341   7.050
 7450POPC   C4B40198  42.116  21.394   7.350
 7451POPC   NC340199   0.422  26.800   5.550
 7451POPC   PO440200   0.486  26.795   5.850
 7451POPC   GL140201   0.404  26.833   6.150
 7451POPC   GL240202   0.350  26.787   6.150
 7451POPC   C1A40203   0.420  26.818   6.450
 7451POPC   D2A40204   0.436  26.861   6.750
 7451POPC   C3A40205   0.470  26.846   7.050
 7451POPC   C4A40206   0.487  26.812   7.350
 7451POPC   C1B40207   0.285  26.700   6.450
 7451POPC   C2B40208   0.193  26.701   6.750
 7451POPC   C3B40209   0.230  26.634   7.050
 7451POPC   C4B40210   0.250  26.655   7.350
 7452POPC   NC340211  25.994  25.218   5.550
 7452POPC   PO440212  26.086  25.225   5.850
 7452POPC   GL140213  26.073  25.264   6.150
 7452POPC   GL240214  25.925  25.205   6.150
 7452POPC   C1A40215  26.031  25.279   6.450
 7452POPC   D2A40216  25.994  25.260   6.750
 7452POPC   C3A40217  26.054  25.300   7.050
 7452POPC   C4A40218  26.040  25.296   7.350
 7452POPC   C1B40219  25.829  25.197   6.450
 7452POPC   C2B40220  25.777  25.225   6.750
 7452POPC   C3B40221  25.772  25.183   7.050
 7452POPC   C4B40222  25.765  25.176   7.350
 7453POPC   NC340223   0.416   1.980   5.550
 7453POPC   PO440224   0.433   1.976   5.850
 7453POPC   GL140225   0.471   1.991   6.150
 7453POPC   GL240226   0.536   1.907   6.150
 7453POPC   C1A40227   0.479   1.947   6.450
 7453POPC   D2A40228   0.397   2.029   6.750
 7453POPC   C3A40229   0.457   1.975   7.050
 7453POPC   C4A40230   0.423   1.977   7.350
 7453POPC   C1B40231   0.683   1.839   6.450
 7453POPC   C2B40232   0.706   1.845   6.750
 7453POPC   C3B40233   0.633   1.915   7.050
 7453POPC   C4B40234   0.678   1.880   7.350
 7454POPC   NC340235   6.652  21.413   5.550
 7454POPC   PO440236   6.649  21.406   5.850
 7454POPC   GL140237   6.628  21.340   6.150
 7454POPC   GL240238   6.669  21.520   6.150
 7454POPC   C1A40239   6.677  21.373   6.450
 7454POPC   D2A40240   6.687  21.418   6.750
 7454POPC   C3A40241   6.666  21.414   7.050
 7454POPC   C4A40242   6.690  21.432   7.350
 7454POPC   C1B40243   6.686  21.617   6.450
 7454POPC   C2B40244   6.747  21.622   6.750
 7454POPC   C3B40245   6.687  21.657   7.050
 7454POPC   C4B40246   6.715  21.655   7.350
 7455POPC   NC340247  27.577  42.333   5.550
 7455POPC   PO440248  27.586  42.333   5.850
 7455POPC   GL140249  27.543  42.355   6.150
 7455POPC   GL240250  27.653  42.247   6.150
 7455POPC   C1A40251  27.610  42.379   6.450
 7455POPC   D2A40252  27.567  42.350   6.750
 7455POPC   C3A40253  27.638  42.360   7.050
 7455POPC   C4A40254  27.595  42.331   7.350
 7455POPC   C1B40255  27.616  42.069   6.450
 7455POPC   C2B40256  27.619  42.095   6.750
 7455POPC   C3B40257  27.676  42.127   7.050
 7455POPC   C4B40258  27.589  42.105   7.350
 7456POPC   NC340259  22.178  38.493   5.550
 7456POPC   PO440260  22.181  38.416   5.850
 7456POPC   GL140261  22.191  38.415   6.150
 7456POPC   GL240262  22.124  38.354   6.150
 7456POPC   C1A40263  22.211  38.456   6.450
 7456POPC   D2A40264  22.197  38.493   6.750
 7456POPC   C3A40265  22.176  38.489   7.050
 7456POPC   C4A40266  22.172  38.427   7.350
 7456POPC   C1B40267  22.037  38.226   6.450
 7456POPC   C2B40268  22.045  38.267   6.750
 7456POPC   C3B40269  22.087  38.214   7.050
 7456POPC   C4B40270  22.110  38.177   7.350
 7457POPC   NC340271   4.304  14.379   5.550
 7457POPC   PO440272   4.282  14.368   5.850
 7457POPC   GL140273   4.342  14.359   6.150
 7457POPC   GL240274   4.333  14.240   6.150
 7457POPC   C1A40275   4.340  14.446   6.450
 7457POPC   D2A40276   4.273  14.389   6.750
 7457POPC   C3A40277   4.314  14.391   7.050
 7457POPC   C4A40278   4.277  14.397   7.350
 7457POPC   C1B40279   4.381  14.187   6.450
 7457POPC   C2B40280   4.355  14.131   6.750
 7457POPC   C3B40281   4.365  14.148   7.050
 7457POPC   C4B40282   4.375  14.115   7.350
 7458POPC   NC340283  19.025  23.707   5.550
 7458POPC   PO440284  19.055  23.721   5.850
 7458POPC   GL140285  19.011  23.705   6.150
 7458POPC   GL240286  18.987  23.833   6.150
 7458POPC   C1A40287  19.024  23.682   6.450
 7458POPC   D2A40288  19.098  23.714   6.750
 7458POPC   C3A40289  19.027  23.750   7.050
 7458POPC   C4A40290  19.066  23.678   7.350
 7458POPC   C1B40291  18.902  23.861   6.450
 7458POPC   C2B40292  18.886  23.841   6.750
 7458POPC   C3B40293  18.843  23.894   7.050
 7458POPC   C4B40294  18.865  23.901   7.350
 7459POPC   NC340295  11.293   2.734   5.550
 7459POPC   PO440296  11.310   2.756   5.850
 7459POPC   GL140297  11.262   2.745   6.150
 7459POPC   GL240298  11.421   2.792   6.150
 7459POPC   C1A40299  11.318   2.745   6.450
 7459POPC   D2A40300  11.317   2.774   6.750
 7459POPC   C3A40301  11.302   2.723   7.050
 7459POPC   C4A40302  11.262   2.815   7.350
 7459POPC   C1B40303  11.570   2.743   6.450
 7459POPC   C2B40304  11.506   2.719   6.750
 7459POPC   C3B40305  11.565   2.761   7.050
 7459POPC   C4B40306  11.553   2.759   7.350
 7460POPC   NC340307  29.957  44.651   5.550
 7460POPC   PO440308  29.901  44.639   5.850
 7460POPC   GL140309  29.941  44.688   6.150
 7460POPC   GL240310  29.984  44.811   6.150
 7460POPC   C1A40311  29.887  44.624   6.450
 7460POPC   D2A40312  29.970  44.676   6.750
 7460POPC   C3A40313  29.919  44.643   7.050
 7460POPC   C4A40314  29.933  44.638   7.350
 7460POPC   C1B40315  30.012  44.875   6.450
 7460POPC   C2B40316  29.938  44.911   6.750
 7460POPC   C3B40317  29.961  44.921   7.050
 7460POPC   C4B40318  29.943  44.923   7.350
 7461POPC   NC340319  19.815   5.854   5.550
 7461POPC   PO440320  19.872   5.917   5.850
 7461POPC   GL140321  19.832   5.876   6.150
 7461POPC   GL240322  19.956   5.890   6.150
 7461POPC   C1A40323  19.874   5.833   6.450
 7461POPC   D2A40324  19.880   5.896   6.750
 7461POPC   C3A40325  19.806   5.831   7.050
 7461POPC   C4A40326  19.856   5.878   7.350
 7461POPC   C1B40327  20.075   5.917   6.450
 7461POPC   C2B40328  20.096   5.867   6.750
 7461POPC   C3B40329  20.120   5.884   7.050
 7461POPC   C4B40330  20.039   5.876   7.350
 7462POPC   NC340331  23.706  24.453   5.550
 7462POPC   PO440332  23.695  24.494   5.850
 7462POPC   GL140333  23.701  24.513   6.150
 7462POPC   GL240334  23.819  24.431   6.150
 7462POPC   C1A40335  23.723  24.485   6.450
 7462POPC   D2A40336  23.733  24.493   6.750
 7462POPC   C3A40337  23.700  24.514   7.050
 7462POPC   C4A40338  23.737  24.469   7.350
 7462POPC   C1B40339  23.979  24.490   6.450
 7462POPC   C2B40340  23.931  24.503   6.750
 7462POPC   C3B40341  23.922  24.505   7.050
 7462POPC   C4B40342  23.918  24.451   7.350
 7463POPC   NC340343   1.231  36.145   5.550
 7463POPC   PO440344   1.186  36.146   5.850
 7463POPC   GL140345   1.219  36.129   6.150
 7463POPC   GL240346   1.223  35.970   6.150
 7463POPC   C1A40347   1.194  36.170   6.450
 7463POPC   D2A40348   1.173  36.169   6.750
 7463POPC   C3A40349   1.181  36.095   7.050
 7463POPC   C4A40350   1.198  36.159   7.350
 7463POPC   C1B40351   1.189  35.874   6.450
 7463POPC   C2B40352   1.202  35.901   6.750
 7463POPC   C3B40353   1.162  35.886   7.050
 7463POPC   C4B40354   1.176  35.897   7.350
 7464POPC   NC340355   8.965   0.414   5.550
 7464POPC   PO440356   8.988   0.430   5.850
 7464POPC   GL140357   9.010   0.476   6.150
 7464POPC   GL240358   8.909   0.355   6.150
 7464POPC   C1A40359   8.968   0.402   6.450
 7464POPC   D2A40360   8.999   0.477   6.750
 7464POPC   C3A40361   8.925   0.476   7.050
 7464POPC   C4A40362   8.989   0.407   7.350
 7464POPC   C1B40363   8.811   0.246   6.450
 7464POPC   C2B40364   8.821   0.237   6.750
 7464POPC   C3B40365   8.870   0.235   7.050
 7464POPC   C4B40366   8.814   0.275   7.350
 7465POPC   NC340367  40.743  39.263   5.550
 7465POPC   PO440368  40.762  39.277   5.850
 7465POPC   GL140369  40.811  39.188   6.150
 7465POPC   GL240370  40.688  39.301   6.150
 7465POPC   C1A40371  40.756  39.257   6.450
 7465POPC   D2A40372  40.748  39.233   6.750
 7465POPC   C3A40373  40.788  39.272   7.050
 7465POPC   C4A40374  40.818  39.200   7.350
 7465POPC   C1B40375  40.585  39.464   6.450
 7465POPC   C2B40376  40.669  39.445   6.750
 7465POPC   C3B40377  40.665  39.458   7.050
 7465POPC   C4B40378  40.601  39.454   7.350
 7466POPC   NC340379  30.672  17.529   5.550
 7466POPC   PO440380  30.736  17.518   5.850
 7466POPC   GL140381  30.677  17.458   6.150
 7466POPC   GL240382  30.780  17.381   6.150
 7466POPC   C1A40383  30.699  17.531   6.450
 7466POPC   D2A40384  30.663  17.528   6.750
 7466POPC   C3A40385  30.689  17.473   7.050
 7466POPC   C4A40386  30.690  17.465   7.350
 7466POPC   C1B40387  30.885  17.312   6.450
 7466POPC   C2B40388  30.886  17.385   6.750
 7466POPC   C3B40389  30.927  17.375   7.050
 7466POPC   C4B40390  30.886  17.349   7.350
 7467POPC   NC340391  26.085   2.716   5.550
 7467POPC   PO440392  26.058   2.809   5.850
 7467POPC   GL140393  26.031   2.750   6.150
 7467POPC   GL240394  25.889   2.668   6.150
 7467POPC   C1A40395  26.077   2.744   6.450
 7467POPC   D2A40396  26.069   2.770   6.750
 7467POPC   C3A40397  26.012   2.808   7.050
 7467POPC   C4A40398  25.999   2.811   7.350
 7467POPC   C1B40399  25.868   2.619   6.450
 7467POPC   C2B40400  25.853   2.671   6.750
 7467POPC   C3B40401  25.829   2.586   7.050
 7467POPC   C4B40402  25.843   2.671   7.350
 7468POPC   NC340403  27.551  12.102   5.550
 7468POPC   PO440404  27.590  12.106   5.850
 7468POPC   GL140405  27.597  12.105   6.150
 7468POPC   GL240406  27.438  12.021   6.150
 7468POPC   C1A40407  27.622  12.053   6.450
 7468POPC   D2A40408  27.617  12.085   6.750
 7468POPC   C3A40409  27.608  12.084   7.050
 7468POPC   C4A40410  27.634  12.051   7.350
 7468POPC   C1B40411  27.337  12.007   6.450
 7468POPC   C2B40412  27.348  12.052   6.750
 7468POPC   C3B40413  27.337  12.003   7.050
 7468POPC   C4B40414  27.335  12.081   7.350
 7469POPC   NC340415  17.484  38.416   5.550
 7469POPC   PO440416  17.551  38.458   5.850
 7469POPC   GL140417  17.516  38.483   6.150
 7469POPC   GL240418  17.394  38.500   6.150
 7469POPC   C1A40419  17.492  38.440   6.450
 7469POPC   D2A40420  17.523  38.468   6.750
 7469POPC   C3A40421  17.468  38.477   7.050
 7469POPC   C4A40422  17.546  38.445   7.350
 7469POPC   C1B40423  17.322  38.646   6.450
 7469POPC   C2B40424  17.372  38.677   6.750
 7469POPC   C3B40425  17.306  38.601   7.050
 7469POPC   C4B40426  17.376  38.640   7.350
 7470POPC   NC340427  42.374  15.138   5.550
 7470POPC   PO440428  42.285  15.167   5.850
 7470POPC   GL140429  42.311  15.207   6.150
 7470POPC   GL240430  42.381  15.041   6.150
 7470POPC   C1A40431  42.359  15.136   6.450
 7470POPC   D2A40432  42.303  15.171   6.750
 7470POPC   C3A40433  42.351  15.200   7.050
 7470POPC   C4A40434  42.358  15.196   7.350
 7470POPC   C1B40435  42.472  14.976   6.450
 7470POPC   C2B40436  42.395  14.968   6.750
 7470POPC   C3B40437  42.395  14.966   7.050
 7470POPC   C4B40438  42.426  14.972   7.350
 7471POPC   NC340439   6.681  41.584   5.550
 7471POPC   PO440440   6.596  41.512   5.850
 7471POPC   GL140441   6.658  41.595   6.150
 7471POPC   GL240442   6.588  41.641   6.150
 7471POPC   C1A40443   6.619  41.566   6.450
 7471POPC   D2A40444   6.694  41.591   6.750
 7471POPC   C3A40445   6.619  41.510   7.050
 7471POPC   C4A40446   6.633  41.566   7.350
 7471POPC   C1B40447   6.506  41.772   6.450
 7471POPC   C2B40448   6.462  41.726   6.750
 7471POPC   C3B40449   6.529  41.767   7.050
 7471POPC   C4B40450   6.461  41.720   7.350
 7472POPC   NC340451  15.949   3.494   5.550
 7472POPC   PO440452  15.921   3.539   5.850
 7472POPC   GL140453  15.968   3.538   6.150
 7472POPC   GL240454  15.896   3.619   6.150
 7472POPC   C1A40455  16.005   3.584   6.450
 7472POPC   D2A40456  15.940   3.555   6.750
 7472POPC   C3A40457  15.979   3.538   7.050
 7472POPC   C4A40458  15.928   3.497   7.350
 7472POPC   C1B40459  15.844   3.751   6.450
 7472POPC   C2B40460  15.849   3.797   6.750
 7472POPC   C3B40461  15.824   3.710   7.050
 7472POPC   C4B40462  15.824   3.786   7.350
 7473POPC   NC340463  36.950  38.414   5.550
 7473POPC   PO440464  36.900  38.461   5.850
 7473POPC   GL140465  36.869  38.440   6.150
 7473POPC   GL240466  36.853  38.340   6.150
 7473POPC   C1A40467  36.937  38.458   6.450
 7473POPC   D2A40468  36.891  38.484   6.750
 7473POPC   C3A40469  36.895  38.442   7.050
 7473POPC   C4A40470  36.948  38.427   7.350
 7473POPC   C1B40471  36.671  38.311   6.450
 7473POPC   C2B40472  36.750  38.309   6.750
 7473POPC   C3B40473  36.667  38.275   7.050
 7473POPC   C4B40474  36.666  38.334   7.350
 7474POPC   NC340475   7.407  23.742   5.550
 7474POPC   PO440476   7.459  23.665   5.850
 7474POPC   GL140477   7.463  23.736   6.150
 7474POPC   GL240478   7.508  23.663   6.150
 7474POPC   C1A40479   7.434  23.711   6.450
 7474POPC   D2A40480   7.394  23.762   6.750
 7474POPC   C3A40481   7.400  23.745   7.050
 7474POPC   C4A40482   7.471  23.740   7.350
 7474POPC   C1B40483   7.658  23.584   6.450
 7474POPC   C2B40484   7.649  23.585   6.750
 7474POPC   C3B40485   7.658  23.576   7.050
 7474POPC   C4B40486   7.615  23.544   7.350
 7475POPC   NC340487  26.062  35.349   5.550
 7475POPC   PO440488  26.029  35.321   5.850
 7475POPC   GL140489  26.043  35.322   6.150
 7475POPC   GL240490  25.886  35.290   6.150
 7475POPC   C1A40491  26.027  35.379   6.450
 7475POPC   D2A40492  26.008  35.334   6.750
 7475POPC   C3A40493  26.062  35.392   7.050
 7475POPC   C4A40494  26.075  35.329   7.350
 7475POPC   C1B40495  25.784  35.260   6.450
 7475POPC   C2B40496  25.795  35.198   6.750
 7475POPC   C3B40497  25.839  35.254   7.050
 7475POPC   C4B40498  25.835  35.235   7.350
 7476POPC   NC340499  23.686  43.097   5.550
 7476POPC   PO440500  23.744  43.118   5.850
 7476POPC   GL140501  23.708  43.077   6.150
 7476POPC   GL240502  23.773  43.172   6.150
 7476POPC   C1A40503  23.699  43.098   6.450
 7476POPC   D2A40504  23.705  43.072   6.750
 7476POPC   C3A40505  23.745  43.123   7.050
 7476POPC   C4A40506  23.706  43.084   7.350
 7476POPC   C1B40507  23.838  43.316   6.450
 7476POPC   C2B40508  23.871  43.265   6.750
 7476POPC   C3B40509  23.832  43.262   7.050
 7476POPC   C4B40510  23.883  43.335   7.350
 7477POPC   NC340511  41.583  13.664   5.550
 7477POPC   PO440512  41.608  13.634   5.850
 7477POPC   GL140513  41.555  13.673   6.150
 7477POPC   GL240514  41.596  13.510   6.150
 7477POPC   C1A40515  41.520  13.625   6.450
 7477POPC   D2A40516  41.522  13.596   6.750
 7477POPC   C3A40517  41.608  13.588   7.050
 7477POPC   C4A40518  41.520  13.623   7.350
 7477POPC   C1B40519  41.609  13.430   6.450
 7477POPC   C2B40520  41.559  13.400   6.750
 7477POPC   C3B40521  41.591  13.397   7.050
 7477POPC   C4B40522  41.561  13.402   7.350
 7478POPC   NC340523  14.364  34.595   5.550
 7478POPC   PO440524  14.416  34.599   5.850
 7478POPC   GL140525  14.357  34.608   6.150
 7478POPC   GL240526  14.330  34.706   6.150
 7478POPC   C1A40527  14.402  34.597   6.450
 7478POPC   D2A40528  14.402  34.535   6.750
 7478POPC   C3A40529  14.370  34.530   7.050
 7478POPC   C4A40530  14.366  34.607   7.350
 7478POPC   C1B40531  14.391  34.863   6.450
 7478POPC   C2B40532  14.358  34.863   6.750
 7478POPC   C3B40533  14.307  34.775   7.050
 7478POPC   C4B40534  14.345  34.793   7.350
 7479POPC   NC340535  31.471  25.286   5.550
 7479POPC   PO440536  31.427  25.220   5.850
 7479POPC   GL140537  31.482  25.303   6.150
 7479POPC   GL240538  31.521  25.371   6.150
 7479POPC   C1A40539  31.485  25.273   6.450
 7479POPC   D2A40540  31.448  25.218   6.750
 7479POPC   C3A40541  31.483  25.269   7.050
 7479POPC   C4A40542  31.497  25.241   7.350
 7479POPC   C1B40543  31.514  25.556   6.450
 7479POPC   C2B40544  31.498  25.486   6.750
 7479POPC   C3B40545  31.524  25.533   7.050
 7479POPC   C4B40546  31.483  25.479   7.350
 7480POPC   NC340547  35.400  25.260   5.550
 7480POPC   PO440548  35.305  25.309   5.850
 7480POPC   GL140549  35.361  25.280   6.150
 7480POPC   GL240550  35.479  25.227   6.150
 7480POPC   C1A40551  35.395  25.230   6.450
 7480POPC   D2A40552  35.322  25.252   6.750
 7480POPC   C3A40553  35.320  25.255   7.050
 7480POPC   C4A40554  35.305  25.259   7.350
 7480POPC   C1B40555  35.548  25.207   6.450
 7480POPC   C2B40556  35.628  25.211   6.750
 7480POPC   C3B40557  35.625  25.158   7.050
 7480POPC   C4B40558  35.601  25.221   7.350
 7481POPC   NC340559  12.858  39.182   5.550
 7481POPC   PO440560  12.895  39.188   5.850
 7481POPC   GL140561  12.829  39.200   6.150
 7481POPC   GL240562  12.943  39.305   6.150
 7481POPC   C1A40563  12.881  39.278   6.450
 7481POPC   D2A40564  12.856  39.227   6.750
 7481POPC   C3A40565  12.892  39.238   7.050
 7481POPC   C4A40566  12.814  39.281   7.350
 7481POPC   C1B40567  13.085  39.406   6.450
 7481POPC   C2B40568  13.026  39.380   6.750
 7481POPC   C3B40569  13.076  39.387   7.050
 7481POPC   C4B40570  13.083  39.336   7.350
 7482POPC   NC340571   8.187  17.479   5.550
 7482POPC   PO440572   8.205  17.484   5.850
 7482POPC   GL140573   8.190  17.459   6.150
 7482POPC   GL240574   8.297  17.395   6.150
 7482POPC   C1A40575   8.153  17.460   6.450
 7482POPC   D2A40576   8.224  17.542   6.750
 7482POPC   C3A40577   8.159  17.486   7.050
 7482POPC   C4A40578   8.205  17.517   7.350
 7482POPC   C1B40579   8.336  17.358   6.450
 7482POPC   C2B40580   8.382  17.296   6.750
 7482POPC   C3B40581   8.394  17.296   7.050
 7482POPC   C4B40582   8.353  17.294   7.350
 7483POPC   NC340583  32.226  16.719   5.550
 7483POPC   PO440584  32.276  16.696   5.850
 7483POPC   GL140585  32.232  16.772   6.150
 7483POPC   GL240586  32.360  16.619   6.150
 7483POPC   C1A40587  32.220  16.722   6.450
 7483POPC   D2A40588  32.221  16.691   6.750
 7483POPC   C3A40589  32.214  16.725   7.050
 7483POPC   C4A40590  32.267  16.720   7.350
 7483POPC   C1B40591  32.329  16.552   6.450
 7483POPC   C2B40592  32.381  16.478   6.750
 7483POPC   C3B40593  32.371  16.560   7.050
 7483POPC   C4B40594  32.384  16.518   7.350
 7484POPC   NC340595  26.079  36.152   5.550
 7484POPC   PO440596  26.082  36.119   5.850
 7484POPC   GL140597  26.023  36.134   6.150
 7484POPC   GL240598  26.016  36.043   6.150
 7484POPC   C1A40599  26.005  36.137   6.450
 7484POPC   D2A40600  26.054  36.136   6.750
 7484POPC   C3A40601  26.083  36.167   7.050
 7484POPC   C4A40602  26.061  36.146   7.350
 7484POPC   C1B40603  25.899  35.942   6.450
 7484POPC   C2B40604  25.927  35.880   6.750
 7484POPC   C3B40605  25.880  35.912   7.050
 7484POPC   C4B40606  25.972  35.909   7.350
 7485POPC   NC340607  32.201  12.112   5.550
 7485POPC   PO440608  32.222  12.114   5.850
 7485POPC   GL140609  32.248  12.125   6.150
 7485POPC   GL240610  32.267  12.183   6.150
 7485POPC   C1A40611  32.232  12.085   6.450
 7485POPC   D2A40612  32.199  12.042   6.750
 7485POPC   C3A40613  32.284  12.098   7.050
 7485POPC   C4A40614  32.220  12.122   7.350
 7485POPC   C1B40615  32.368  12.332   6.450
 7485POPC   C2B40616  32.367  12.337   6.750
 7485POPC   C3B40617  32.304  12.358   7.050
 7485POPC   C4B40618  32.296  12.337   7.350
 7486POPC   NC340619  44.653  32.218   5.550
 7486POPC   PO440620  44.627  32.201   5.850
 7486POPC   GL140621  44.659  32.257   6.150
 7486POPC   GL240622  44.586  32.379   6.150
 7486POPC   C1A40623  44.623  32.261   6.450
 7486POPC   D2A40624  44.642  32.242   6.750
 7486POPC   C3A40625  44.653  32.248   7.050
 7486POPC   C4A40626  44.654  32.208   7.350
 7486POPC   C1B40627  44.527  32.478   6.450
 7486POPC   C2B40628  44.602  32.442   6.750
 7486POPC   C3B40629  44.515  32.506   7.050
 7486POPC   C4B40630  44.591  32.483   7.350
 7487POPC   NC340631  20.614   1.975   5.550
 7487POPC   PO440632  20.574   1.975   5.850
 7487POPC   GL140633  20.583   1.977   6.150
 7487POPC   GL240634  20.716   2.058   6.150
 7487POPC   C1A40635  20.611   1.950   6.450
 7487POPC   D2A40636  20.638   1.984   6.750
 7487POPC   C3A40637  20.652   1.978   7.050
 7487POPC   C4A40638  20.626   1.974   7.350
 7487POPC   C1B40639  20.854   2.067   6.450
 7487POPC   C2B40640  20.830   2.015   6.750
 7487POPC   C3B40641  20.855   2.107   7.050
 7487POPC   C4B40642  20.803   2.064   7.350
 7488POPC   NC340643  28.405  16.705   5.550
 7488POPC   PO440644  28.351  16.758   5.850
 7488POPC   GL140645  28.378  16.740   6.150
 7488POPC   GL240646  28.252  16.832   6.150
 7488POPC   C1A40647  28.405  16.682   6.450
 7488POPC   D2A40648  28.369  16.719   6.750
 7488POPC   C3A40649  28.364  16.721   7.050
 7488POPC   C4A40650  28.406  16.728   7.350
 7488POPC   C1B40651  28.203  16.901   6.450
 7488POPC   C2B40652  28.268  16.981   6.750
 7488POPC   C3B40653  28.260  16.911   7.050
 7488POPC   C4B40654  28.199  16.971   7.350
 7489POPC   NC340655   9.705  26.808   5.550
 7489POPC   PO440656   9.703  26.866   5.850
 7489POPC   GL140657   9.728  26.783   6.150
 7489POPC   GL240658   9.811  26.894   6.150
 7489POPC   C1A40659   9.762  26.831   6.450
 7489POPC   D2A40660   9.715  26.835   6.750
 7489POPC   C3A40661   9.711  26.861   7.050
 7489POPC   C4A40662   9.749  26.829   7.350
 7489POPC   C1B40663   9.867  27.003   6.450
 7489POPC   C2B40664   9.845  27.028   6.750
 7489POPC   C3B40665   9.821  27.062   7.050
 7489POPC   C4B40666   9.804  27.000   7.350
 7490POPC   NC340667  30.672  33.009   5.550
 7490POPC   PO440668  30.698  32.984   5.850
 7490POPC   GL140669  30.650  33.013   6.150
 7490POPC   GL240670  30.632  32.867   6.150
 7490POPC   C1A40671  30.649  32.993   6.450
 7490POPC   D2A40672  30.654  33.013   6.750
 7490POPC   C3A40673  30.729  32.975   7.050
 7490POPC   C4A40674  30.717  33.009   7.350
 7490POPC   C1B40675  30.612  32.798   6.450
 7490POPC   C2B40676  30.699  32.769   6.750
 7490POPC   C3B40677  30.695  32.755   7.050
 7490POPC   C4B40678  30.626  32.758   7.350
 7491POPC   NC340679   6.627   8.958   5.550
 7491POPC   PO440680   6.647   9.016   5.850
 7491POPC   GL140681   6.654   8.982   6.150
 7491POPC   GL240682   6.536   9.060   6.150
 7491POPC   C1A40683   6.642   8.993   6.450
 7491POPC   D2A40684   6.600   8.983   6.750
 7491POPC   C3A40685   6.634   8.989   7.050
 7491POPC   C4A40686   6.658   9.015   7.350
 7491POPC   C1B40687   6.405   9.162   6.450
 7491POPC   C2B40688   6.425   9.165   6.750
 7491POPC   C3B40689   6.421   9.097   7.050
 7491POPC   C4B40690   6.434   9.171   7.350
 7492POPC   NC340691  22.974   5.829   5.550
 7492POPC   PO440692  22.916   5.838   5.850
 7492POPC   GL140693  22.897   5.883   6.150
 7492POPC   GL240694  22.781   5.816   6.150
 7492POPC   C1A40695  22.958   5.918   6.450
 7492POPC   D2A40696  22.902   5.914   6.750
 7492POPC   C3A40697  22.906   5.896   7.050
 7492POPC   C4A40698  22.945   5.850   7.350
 7492POPC   C1B40699  22.684   5.758   6.450
 7492POPC   C2B40700  22.727   5.797   6.750
 7492POPC   C3B40701  22.684   5.796   7.050
 7492POPC   C4B40702  22.750   5.816   7.350
 7493POPC   NC340703  34.626  41.522   5.550
 7493POPC   PO440704  34.583  41.573   5.850
 7493POPC   GL140705  34.599  41.514   6.150
 7493POPC   GL240706  34.575  41.422   6.150
 7493POPC   C1A40707  34.562  41.510   6.450
 7493POPC   D2A40708  34.573  41.533   6.750
 7493POPC   C3A40709  34.539  41.541   7.050
 7493POPC   C4A40710  34.600  41.585   7.350
 7493POPC   C1B40711  34.500  41.363   6.450
 7493POPC   C2B40712  34.477  41.347   6.750
 7493POPC   C3B40713  34.497  41.346   7.050
 7493POPC   C4B40714  34.482  41.288   7.350
 7494POPC   NC340715   9.782  20.634   5.550
 7494POPC   PO440716   9.798  20.646   5.850
 7494POPC   GL140717   9.704  20.635   6.150
 7494POPC   GL240718   9.666  20.686   6.150
 7494POPC   C1A40719   9.708  20.622   6.450
 7494POPC   D2A40720   9.751  20.602   6.750
 7494POPC   C3A40721   9.749  20.589   7.050
 7494POPC   C4A40722   9.777  20.585   7.350
 7494POPC   C1B40723   9.459  20.679   6.450
 7494POPC   C2B40724   9.550  20.680   6.750
 7494POPC   C3B40725   9.467  20.614   7.050
 7494POPC   C4B40726   9.544  20.691   7.350
 7495POPC   NC340727  21.371  10.551   5.550
 7495POPC   PO440728  21.422  10.543   5.850
 7495POPC   GL140729  21.376  10.567   6.150
 7495POPC   GL240730  21.226  10.614   6.150
 7495POPC   C1A40731  21.384  10.493   6.450
 7495POPC   D2A40732  21.415  10.543   6.750
 7495POPC   C3A40733  21.346  10.500   7.050
 7495POPC   C4A40734  21.410  10.491   7.350
 7495POPC   C1B40735  21.150  10.645   6.450
 7495POPC   C2B40736  21.135  10.660   6.750
 7495POPC   C3B40737  21.131  10.632   7.050
 7495POPC   C4B40738  21.182  10.603   7.350
 7496POPC   NC340739  32.984  31.451   5.550
 7496POPC   PO440740  32.977  31.445   5.850
 7496POPC   GL140741  32.978  31.480   6.150
 7496POPC   GL240742  32.893  31.377   6.150
 7496POPC   C1A40743  33.019  31.467   6.450
 7496POPC   D2A40744  33.044  31.482   6.750
 7496POPC   C3A40745  32.977  31.445   7.050
 7496POPC   C4A40746  33.010  31.473   7.350
 7496POPC   C1B40747  32.887  31.333   6.450
 7496POPC   C2B40748  32.824  31.285   6.750
 7496POPC   C3B40749  32.857  31.241   7.050
 7496POPC   C4B40750  32.827  31.286   7.350
 7497POPC   NC340751  29.880  31.487   5.550
 7497POPC   PO440752  29.913  31.427   5.850
 7497POPC   GL140753  29.899  31.448   6.150
 7497POPC   GL240754  29.914  31.350   6.150
 7497POPC   C1A40755  29.934  31.461   6.450
 7497POPC   D2A40756  29.891  31.491   6.750
 7497POPC   C3A40757  29.939  31.471   7.050
 7497POPC   C4A40758  29.948  31.522   7.350
 7497POPC   C1B40759  29.941  31.219   6.450
 7497POPC   C2B40760  29.890  31.203   6.750
 7497POPC   C3B40761  29.925  31.242   7.050
 7497POPC   C4B40762  29.927  31.229   7.350
 7498POPC   NC340763  28.362  10.560   5.550
 7498POPC   PO440764  28.370  10.481   5.850
 7498POPC   GL140765  28.382  10.562   6.150
 7498POPC   GL240766  28.491  10.546   6.150
 7498POPC   C1A40767  28.384  10.558   6.450
 7498POPC   D2A40768  28.404  10.506   6.750
 7498POPC   C3A40769  28.357  10.497   7.050
 7498POPC   C4A40770  28.334  10.526   7.350
 7498POPC   C1B40771  28.582  10.544   6.450
 7498POPC   C2B40772  28.623  10.591   6.750
 7498POPC   C3B40773  28.598  10.538   7.050
 7498POPC   C4B40774  28.626  10.595   7.350
 7499POPC   NC340775   0.454   9.772   5.550
 7499POPC   PO440776   0.474   9.772   5.850
 7499POPC   GL140777   0.424   9.759   6.150
 7499POPC   GL240778   0.469   9.583   6.150
 7499POPC   C1A40779   0.447   9.774   6.450
 7499POPC   D2A40780   0.474   9.719   6.750
 7499POPC   C3A40781   0.411   9.798   7.050
 7499POPC   C4A40782   0.466   9.724   7.350
 7499POPC   C1B40783   0.480   9.510   6.450
 7499POPC   C2B40784   0.437   9.452   6.750
 7499POPC   C3B40785   0.429   9.542   7.050
 7499POPC   C4B40786   0.504   9.476   7.350
 7500POPC   NC340787  22.949  22.177   5.550
 7500POPC   PO440788  22.954  22.144   5.850
 7500POPC   GL140789  22.951  22.162   6.150
 7500POPC   GL240790  22.936  22.239   6.150
 7500POPC   C1A40791  22.904  22.116   6.450
 7500POPC   D2A40792  22.897  22.120   6.750
 7500POPC   C3A40793  22.955  22.187   7.050
 7500POPC   C4A40794  22.906  22.210   7.350
 7500POPC   C1B40795  23.032  22.435   6.450
 7500POPC   C2B40796  22.962  22.421   6.750
 7500POPC   C3B40797  22.982  22.398   7.050
 7500POPC   C4B40798  22.949  22.374   7.350
 7501POPC   NC340799  22.150  15.940   5.550
 7501POPC   PO440800  22.158  15.917   5.850
 7501POPC   GL140801  22.204  16.002   6.150
 7501POPC   GL240802  22.007  15.892   6.150
 7501POPC   C1A40803  22.169  15.983   6.450
 7501POPC   D2A40804  22.202  15.923   6.750
 7501POPC   C3A40805  22.211  15.998   7.050
 7501POPC   C4A40806  22.139  15.953   7.350
 7501POPC   C1B40807  21.952  15.941   6.450
 7501POPC   C2B40808  21.900  15.849   6.750
 7501POPC   C3B40809  21.870  15.899   7.050
 7501POPC   C4B40810  21.875  15.855   7.350
 7502POPC   NC340811  22.152  37.654   5.550
 7502POPC   PO440812  22.206  37.702   5.850
 7502POPC   GL140813  22.134  37.728   6.150
 7502POPC   GL240814  22.063  37.551   6.150
 7502POPC   C1A40815  22.185  37.649   6.450
 7502POPC   D2A40816  22.124  37.663   6.750
 7502POPC   C3A40817  22.200  37.659   7.050
 7502POPC   C4A40818  22.187  37.709   7.350
 7502POPC   C1B40819  21.970  37.446   6.450
 7502POPC   C2B40820  21.965  37.455   6.750
 7502POPC   C3B40821  21.954  37.480   7.050
 7502POPC   C4B40822  21.997  37.472   7.350
 7503POPC   NC340823   4.286   7.374   5.550
 7503POPC   PO440824   4.324   7.427   5.850
 7503POPC   GL140825   4.275   7.454   6.150
 7503POPC   GL240826   4.295   7.320   6.150
 7503POPC   C1A40827   4.272   7.377   6.450
 7503POPC   D2A40828   4.290   7.435   6.750
 7503POPC   C3A40829   4.348   7.445   7.050
 7503POPC   C4A40830   4.283   7.443   7.350
 7503POPC   C1B40831   4.319   7.216   6.450
 7503POPC   C2B40832   4.337   7.198   6.750
 7503POPC   C3B40833   4.282   7.168   7.050
 7503POPC   C4B40834   4.283   7.162   7.350
 7504POPC   NC340835   3.534  32.216   5.550
 7504POPC   PO440836   3.495  32.274   5.850
 7504POPC   GL140837   3.544  32.208   6.150
 7504POPC   GL240838   3.500  32.113   6.150
 7504POPC   C1A40839   3.557  32.297   6.450
 7504POPC   D2A40840   3.581  32.292   6.750
 7504POPC   C3A40841   3.564  32.203   7.050
 7504POPC   C4A40842   3.579  32.255   7.350
 7504POPC   C1B40843   3.520  31.993   6.450
 7504POPC   C2B40844   3.528  31.987   6.750
 7504POPC   C3B40845   3.496  32.004   7.050
 7504POPC   C4B40846   3.505  32.031   7.350
 7505POPC   NC340847  36.920  22.925   5.550
 7505POPC   PO440848  36.870  22.948   5.850
 7505POPC   GL140849  36.890  22.899   6.150
 7505POPC   GL240850  36.990  22.905   6.150
 7505POPC   C1A40851  36.936  22.933   6.450
 7505POPC   D2A40852  36.932  22.895   6.750
 7505POPC   C3A40853  36.862  22.926   7.050
 7505POPC   C4A40854  36.857  22.985   7.350
 7505POPC   C1B40855  37.172  22.873   6.450
 7505POPC   C2B40856  37.166  22.916   6.750
 7505POPC   C3B40857  37.102  22.903   7.050
 7505POPC   C4B40858  37.177  22.889   7.350
 7506POPC   NC340859   8.988   1.250   5.550
 7506POPC   PO440860   9.017   1.228   5.850
 7506POPC   GL140861   9.001   1.181   6.150
 7506POPC   GL240862   9.080   1.293   6.150
 7506POPC   C1A40863   9.003   1.181   6.450
 7506POPC   D2A40864   9.001   1.240   6.750
 7506POPC   C3A40865   8.947   1.205   7.050
 7506POPC   C4A40866   9.000   1.254   7.350
 7506POPC   C1B40867   9.232   1.297   6.450
 7506POPC   C2B40868   9.157   1.337   6.750
 7506POPC   C3B40869   9.183   1.303   7.050
 7506POPC   C4B40870   9.183   1.352   7.350
 7507POPC   NC340871  17.477  25.277   5.550
 7507POPC   PO440872  17.526  25.244   5.850
 7507POPC   GL140873  17.519  25.314   6.150
 7507POPC   GL240874  17.372  25.380   6.150
 7507POPC   C1A40875  17.465  25.253   6.450
 7507POPC   D2A40876  17.511  25.222   6.750
 7507POPC   C3A40877  17.477  25.288   7.050
 7507POPC   C4A40878  17.474  25.283   7.350
 7507POPC   C1B40879  17.269  25.460   6.450
 7507POPC   C2B40880  17.302  25.395   6.750
 7507POPC   C3B40881  17.331  25.451   7.050
 7507POPC   C4B40882  17.292  25.399   7.350
 7508POPC   NC340883  33.758  39.239   5.550
 7508POPC   PO440884  33.758  39.202   5.850
 7508POPC   GL140885  33.844  39.190   6.150
 7508POPC   GL240886  33.897  39.213   6.150
 7508POPC   C1A40887  33.846  39.243   6.450
 7508POPC   D2A40888  33.828  39.211   6.750
 7508POPC   C3A40889  33.798  39.187   7.050
 7508POPC   C4A40890  33.807  39.191   7.350
 7508POPC   C1B40891  34.025  39.221   6.450
 7508POPC   C2B40892  34.025  39.221   6.750
 7508POPC   C3B40893  33.998  39.200   7.050
 7508POPC   C4B40894  34.040  39.143   7.350
 7509POPC   NC340895  27.608   8.188   5.550
 7509POPC   PO440896  27.593   8.203   5.850
 7509POPC   GL140897  27.596   8.157   6.150
 7509POPC   GL240898  27.519   8.248   6.150
 7509POPC   C1A40899  27.567   8.229   6.450
 7509POPC   D2A40900  27.581   8.240   6.750
 7509POPC   C3A40901  27.593   8.216   7.050
 7509POPC   C4A40902  27.637   8.181   7.350
 7509POPC   C1B40903  27.357   8.286   6.450
 7509POPC   C2B40904  27.318   8.255   6.750
 7509POPC   C3B40905  27.381   8.262   7.050
 7509POPC   C4B40906  27.396   8.261   7.350
 7510POPC   NC340907  19.009  36.915   5.550
 7510POPC   PO440908  19.108  36.888   5.850
 7510POPC   GL140909  19.018  36.928   6.150
 7510POPC   GL240910  18.914  36.823   6.150
 7510POPC   C1A40911  19.059  36.901   6.450
 7510POPC   D2A40912  19.053  36.951   6.750
 7510POPC   C3A40913  19.061  36.895   7.050
 7510POPC   C4A40914  19.089  36.932   7.350
 7510POPC   C1B40915  18.836  36.799   6.450
 7510POPC   C2B40916  18.842  36.734   6.750
 7510POPC   C3B40917  18.845  36.781   7.050
 7510POPC   C4B40918  18.885  36.788   7.350
 7511POPC   NC340919  23.669  38.489   5.550
 7511POPC   PO440920  23.702  38.481   5.850
 7511POPC   GL140921  23.670  38.482   6.150
 7511POPC   GL240922  23.805  38.343   6.150
 7511POPC   C1A40923  23.670  38.504   6.450
 7511POPC   D2A40924  23.666  38.470   6.750
 7511POPC   C3A40925  23.685  38.499   7.050
 7511POPC   C4A40926  23.709  38.488   7.350
 7511POPC   C1B40927  23.802  38.229   6.450
 7511POPC   C2B40928  23.843  38.189   6.750
 7511POPC   C3B40929  23.818  38.257   7.050
 7511POPC   C4B40930  23.761  38.215   7.350
 7512POPC   NC340931  33.764  22.172   5.550
 7512POPC   PO440932  33.775  22.139   5.850
 7512POPC   GL140933  33.819  22.176   6.150
 7512POPC   GL240934  33.779  22.265   6.150
 7512POPC   C1A40935  33.751  22.128   6.450
 7512POPC   D2A40936  33.823  22.200   6.750
 7512POPC   C3A40937  33.762  22.172   7.050
 7512POPC   C4A40938  33.816  22.199   7.350
 7512POPC   C1B40939  33.732  22.383   6.450
 7512POPC   C2B40940  33.744  22.450   6.750
 7512POPC   C3B40941  33.761  22.401   7.050
 7512POPC   C4B40942  33.764  22.438   7.350
 7513POPC   NC340943  27.640  14.412   5.550
 7513POPC   PO440944  27.573  14.435   5.850
 7513POPC   GL140945  27.637  14.452   6.150
 7513POPC   GL240946  27.635  14.513   6.150
 7513POPC   C1A40947  27.565  14.452   6.450
 7513POPC   D2A40948  27.557  14.421   6.750
 7513POPC   C3A40949  27.601  14.416   7.050
 7513POPC   C4A40950  27.606  14.374   7.350
 7513POPC   C1B40951  27.662  14.695   6.450
 7513POPC   C2B40952  27.621  14.636   6.750
 7513POPC   C3B40953  27.597  14.687   7.050
 7513POPC   C4B40954  27.613  14.627   7.350
 7514POPC   NC340955   8.960  38.413   5.550
 7514POPC   PO440956   8.926  38.502   5.850
 7514POPC   GL140957   8.993  38.414   6.150
 7514POPC   GL240958   9.127  38.490   6.150
 7514POPC   C1A40959   8.942  38.445   6.450
 7514POPC   D2A40960   8.960  38.418   6.750
 7514POPC   C3A40961   8.992  38.455   7.050
 7514POPC   C4A40962   9.002  38.482   7.350
 7514POPC   C1B40963   9.267  38.459   6.450
 7514POPC   C2B40964   9.185  38.474   6.750
 7514POPC   C3B40965   9.227  38.389   7.050
 7514POPC   C4B40966   9.205  38.466   7.350
 7515POPC   NC340967   5.083   4.355   5.550
 7515POPC   PO440968   5.141   4.328   5.850
 7515POPC   GL140969   5.093   4.320   6.150
 7515POPC   GL240970   4.945   4.336   6.150
 7515POPC   C1A40971   5.051   4.339   6.450
 7515POPC   D2A40972   5.048   4.286   6.750
 7515POPC   C3A40973   5.063   4.298   7.050
 7515POPC   C4A40974   5.100   4.345   7.350
 7515POPC   C1B40975   4.803   4.365   6.450
 7515POPC   C2B40976   4.827   4.345   6.750
 7515POPC   C3B40977   4.878   4.327   7.050
 7515POPC   C4B40978   4.841   4.367   7.350
 7516POPC   NC340979  19.072  24.451   5.550
 7516POPC   PO440980  19.042  24.478   5.850
 7516POPC   GL140981  19.088  24.443   6.150
 7516POPC   GL240982  19.011  24.359   6.150
 7516POPC   C1A40983  19.018  24.535   6.450
 7516POPC   D2A40984  19.046  24.520   6.750
 7516POPC   C3A40985  19.063  24.476   7.050
 7516POPC   C4A40986  19.074  24.492   7.350
 7516POPC   C1B40987  18.992  24.240   6.450
 7516POPC   C2B40988  18.992  24.275   6.750
 7516POPC   C3B40989  18.988  24.198   7.050
 7516POPC   C4B40990  19.064  24.273   7.350
 7517POPC   NC340991  34.577  27.583   5.550
 7517POPC   PO440992  34.584  27.603   5.850
 7517POPC   GL140993  34.613  27.551   6.150
 7517POPC   GL240994  34.546  27.522   6.150
 7517POPC   C1A40995  34.588  27.642   6.450
 7517POPC   D2A40996  34.580  27.636   6.750
 7517POPC   C3A40997  34.609  27.623   7.050
 7517POPC   C4A40998  34.539  27.572   7.350
 7517POPC   C1B40999  34.449  27.428   6.450
 7517POPC   C2B41000  34.457  27.399   6.750
 7517POPC   C3B41001  34.474  27.386   7.050
 7517POPC   C4B41002  34.454  27.347   7.350
 7518POPC   NC341003  41.583  22.932   5.550
 7518POPC   PO441004  41.540  22.985   5.850
 7518POPC   GL141005  41.606  22.920   6.150
 7518POPC   GL241006  41.592  23.072   6.150
 7518POPC   C1A41007  41.536  22.896   6.450
 7518POPC   D2A41008  41.538  22.957   6.750
 7518POPC   C3A41009  41.572  22.926   7.050
 7518POPC   C4A41010  41.541  22.936   7.350
 7518POPC   C1B41011  41.656  23.145   6.450
 7518POPC   C2B41012  41.574  23.136   6.750
 7518POPC   C3B41013  41.635  23.191   7.050
 7518POPC   C4B41014  41.629  23.143   7.350
 7519POPC   NC341015  12.078  20.568   5.550
 7519POPC   PO441016  12.080  20.561   5.850
 7519POPC   GL141017  12.124  20.591   6.150
 7519POPC   GL241018  12.030  20.698   6.150
 7519POPC   C1A41019  12.088  20.594   6.450
 7519POPC   D2A41020  12.124  20.644   6.750
 7519POPC   C3A41021  12.093  20.606   7.050
 7519POPC   C4A41022  12.090  20.562   7.350
 7519POPC   C1B41023  11.998  20.884   6.450
 7519POPC   C2B41024  11.981  20.855   6.750
 7519POPC   C3B41025  12.018  20.894   7.050
 7519POPC   C4B41026  11.972  20.897   7.350
 7520POPC   NC341027  30.722  26.775   5.550
 7520POPC   PO441028  30.660  26.816   5.850
 7520POPC   GL141029  30.649  26.820   6.150
 7520POPC   GL241030  30.842  26.741   6.150
 7520POPC   C1A41031  30.714  26.785   6.450
 7520POPC   D2A41032  30.709  26.816   6.750
 7520POPC   C3A41033  30.731  26.780   7.050
 7520POPC   C4A41034  30.673  26.847   7.350
 7520POPC   C1B41035  30.910  26.694   6.450
 7520POPC   C2B41036  30.949  26.771   6.750
 7520POPC   C3B41037  30.921  26.724   7.050
 7520POPC   C4B41038  30.903  26.719   7.350
 7521POPC   NC341039  42.331  36.917   5.550
 7521POPC   PO441040  42.369  36.877   5.850
 7521POPC   GL141041  42.356  36.915   6.150
 7521POPC   GL241042  42.260  37.013   6.150
 7521POPC   C1A41043  42.332  36.863   6.450
 7521POPC   D2A41044  42.286  36.886   6.750
 7521POPC   C3A41045  42.288  36.879   7.050
 7521POPC   C4A41046  42.374  36.926   7.350
 7521POPC   C1B41047  42.159  37.062   6.450
 7521POPC   C2B41048  42.123  37.068   6.750
 7521POPC   C3B41049  42.107  37.074   7.050
 7521POPC   C4B41050  42.158  37.013   7.350
 7522POPC   NC341051  28.339  33.825   5.550
 7522POPC   PO441052  28.354  33.847   5.850
 7522POPC   GL141053  28.394  33.753   6.150
 7522POPC   GL241054  28.330  33.679   6.150
 7522POPC   C1A41055  28.369  33.850   6.450
 7522POPC   D2A41056  28.402  33.770   6.750
 7522POPC   C3A41057  28.339  33.829   7.050
 7522POPC   C4A41058  28.407  33.829   7.350
 7522POPC   C1B41059  28.228  33.572   6.450
 7522POPC   C2B41060  28.326  33.552   6.750
 7522POPC   C3B41061  28.257  33.543   7.050
 7522POPC   C4B41062  28.269  33.543   7.350
 7523POPC   NC341063  23.732   4.273   5.550
 7523POPC   PO441064  23.719   4.337   5.850
 7523POPC   GL141065  23.762   4.364   6.150
 7523POPC   GL241066  23.636   4.196   6.150
 7523POPC   C1A41067  23.679   4.349   6.450
 7523POPC   D2A41068  23.701   4.314   6.750
 7523POPC   C3A41069  23.736   4.307   7.050
 7523POPC   C4A41070  23.722   4.280   7.350
 7523POPC   C1B41071  23.474   4.212   6.450
 7523POPC   C2B41072  23.561   4.187   6.750
 7523POPC   C3B41073  23.488   4.167   7.050
 7523POPC   C4B41074  23.500   4.199   7.350
 7524POPC   NC341075  27.605  44.627   5.550
 7524POPC   PO441076  27.613  44.679   5.850
 7524POPC   GL141077  27.590  44.637   6.150
 7524POPC   GL241078  27.714  44.716   6.150
 7524POPC   C1A41079  27.597  44.711   6.450
 7524POPC   D2A41080  27.616  44.644   6.750
 7524POPC   C3A41081  27.615  44.629   7.050
 7524POPC   C4A41082  27.578  44.692   7.350
 7524POPC   C1B41083  27.783  44.738   6.450
 7524POPC   C2B41084  27.800  44.835   6.750
 7524POPC   C3B41085  27.766  44.811   7.050
 7524POPC   C4B41086  27.781  44.758   7.350
 7525POPC   NC341087  34.593  21.435   5.550
 7525POPC   PO441088  34.616  21.424   5.850
 7525POPC   GL141089  34.621  21.417   6.150
 7525POPC   GL241090  34.606  21.244   6.150
 7525POPC   C1A41091  34.623  21.343   6.450
 7525POPC   D2A41092  34.614  21.336   6.750
 7525POPC   C3A41093  34.577  21.411   7.050
 7525POPC   C4A41094  34.571  21.338   7.350
 7525POPC   C1B41095  34.630  21.095   6.450
 7525POPC   C2B41096  34.590  21.178   6.750
 7525POPC   C3B41097  34.631  21.124   7.050
 7525POPC   C4B41098  34.569  21.184   7.350
 7526POPC   NC341099   4.354  39.982   5.550
 7526POPC   PO441100   4.307  40.045   5.850
 7526POPC   GL141101   4.291  40.016   6.150
 7526POPC   GL241102   4.205  40.043   6.150
 7526POPC   C1A41103   4.309  39.999   6.450
 7526POPC   D2A41104   4.322  40.051   6.750
 7526POPC   C3A41105   4.344  39.999   7.050
 7526POPC   C4A41106   4.332  39.986   7.350
 7526POPC   C1B41107   4.072  39.966   6.450
 7526POPC   C2B41108   4.087  40.014   6.750
 7526POPC   C3B41109   4.077  39.999   7.050
 7526POPC   C4B41110   4.093  40.006   7.350
 7527POPC   NC341111  10.543  42.382   5.550
 7527POPC   PO441112  10.483  42.369   5.850
 7527POPC   GL141113  10.550  42.309   6.150
 7527POPC   GL241114  10.466  42.242   6.150
 7527POPC   C1A41115  10.475  42.357   6.450
 7527POPC   D2A41116  10.484  42.290   6.750
 7527POPC   C3A41117  10.546  42.381   7.050
 7527POPC   C4A41118  10.518  42.360   7.350
 7527POPC   C1B41119  10.442  42.130   6.450
 7527POPC   C2B41120  10.427  42.078   6.750
 7527POPC   C3B41121  10.487  42.142   7.050
 7527POPC   C4B41122  10.409  42.093   7.350
 7528POPC   NC341123  28.319   2.002   5.550
 7528POPC   PO441124  28.376   2.006   5.850
 7528POPC   GL141125  28.413   1.963   6.150
 7528POPC   GL241126  28.291   1.919   6.150
 7528POPC   C1A41127  28.411   2.029   6.450
 7528POPC   D2A41128  28.349   2.021   6.750
 7528POPC   C3A41129  28.362   1.968   7.050
 7528POPC   C4A41130  28.331   2.012   7.350
 7528POPC   C1B41131  28.155   1.836   6.450
 7528POPC   C2B41132  28.112   1.906   6.750
 7528POPC   C3B41133  28.184   1.839   7.050
 7528POPC   C4B41134  28.119   1.844   7.350
 7529POPC   NC341135  18.280   3.547   5.550
 7529POPC   PO441136  18.316   3.578   5.850
 7529POPC   GL141137  18.295   3.589   6.150
 7529POPC   GL241138  18.124   3.489   6.150
 7529POPC   C1A41139  18.286   3.533   6.450
 7529POPC   D2A41140  18.261   3.494   6.750
 7529POPC   C3A41141  18.329   3.540   7.050
 7529POPC   C4A41142  18.245   3.566   7.350
 7529POPC   C1B41143  18.054   3.468   6.450
 7529POPC   C2B41144  18.073   3.457   6.750
 7529POPC   C3B41145  18.069   3.427   7.050
 7529POPC   C4B41146  18.105   3.470   7.350
 7530POPC   NC341147  18.266  23.699   5.550
 7530POPC   PO441148  18.312  23.707   5.850
 7530POPC   GL141149  18.308  23.755   6.150
 7530POPC   GL241150  18.137  23.730   6.150
 7530POPC   C1A41151  18.319  23.698   6.450
 7530POPC   D2A41152  18.246  23.721   6.750
 7530POPC   C3A41153  18.263  23.698   7.050
 7530POPC   C4A41154  18.309  23.679   7.350
 7530POPC   C1B41155  18.006  23.735   6.450
 7530POPC   C2B41156  18.064  23.709   6.750
 7530POPC   C3B41157  18.011  23.764   7.050
 7530POPC   C4B41158  18.042  23.789   7.350
 7531POPC   NC341159  19.800  33.815   5.550
 7531POPC   PO441160  19.854  33.794   5.850
 7531POPC   GL141161  19.857  33.796   6.150
 7531POPC   GL241162  19.828  33.872   6.150
 7531POPC   C1A41163  19.872  33.834   6.450
 7531POPC   D2A41164  19.790  33.818   6.750
 7531POPC   C3A41165  19.850  33.820   7.050
 7531POPC   C4A41166  19.840  33.752   7.350
 7531POPC   C1B41167  19.783  34.079   6.450
 7531POPC   C2B41168  19.756  34.053   6.750
 7531POPC   C3B41169  19.799  34.022   7.050
 7531POPC   C4B41170  19.733  33.995   7.350
 7532POPC   NC341171  42.374  16.748   5.550
 7532POPC   PO441172  42.376  16.734   5.850
 7532POPC   GL141173  42.377  16.724   6.150
 7532POPC   GL241174  42.384  16.637   6.150
 7532POPC   C1A41175  42.285  16.736   6.450
 7532POPC   D2A41176  42.293  16.701   6.750
 7532POPC   C3A41177  42.371  16.762   7.050
 7532POPC   C4A41178  42.304  16.778   7.350
 7532POPC   C1B41179  42.382  16.523   6.450
 7532POPC   C2B41180  42.369  16.474   6.750
 7532POPC   C3B41181  42.414  16.489   7.050
 7532POPC   C4B41182  42.378  16.516   7.350
 7533POPC   NC341183   5.871  37.649   5.550
 7533POPC   PO441184   5.885  37.683   5.850
 7533POPC   GL141185   5.873  37.712   6.150
 7533POPC   GL241186   5.932  37.756   6.150
 7533POPC   C1A41187   5.855  37.663   6.450
 7533POPC   D2A41188   5.876  37.661   6.750
 7533POPC   C3A41189   5.901  37.654   7.050
 7533POPC   C4A41190   5.855  37.702   7.350
 7533POPC   C1B41191   6.031  37.878   6.450
 7533POPC   C2B41192   5.977  37.871   6.750
 7533POPC   C3B41193   6.070  37.897   7.050
 7533POPC   C4B41194   6.045  37.828   7.350
 7534POPC   NC341195  38.482   1.995   5.550
 7534POPC   PO441196  38.415   1.977   5.850
 7534POPC   GL141197  38.445   1.964   6.150
 7534POPC   GL241198  38.450   2.080   6.150
 7534POPC   C1A41199  38.449   1.969   6.450
 7534POPC   D2A41200  38.497   1.956   6.750
 7534POPC   C3A41201  38.436   1.975   7.050
 7534POPC   C4A41202  38.436   1.945   7.350
 7534POPC   C1B41203  38.513   2.281   6.450
 7534POPC   C2B41204  38.491   2.244   6.750
 7534POPC   C3B41205  38.501   2.259   7.050
 7534POPC   C4B41206  38.484   2.289   7.350
 7535POPC   NC341207  20.601  16.774   5.550
 7535POPC   PO441208  20.585  16.780   5.850
 7535POPC   GL141209  20.614  16.743   6.150
 7535POPC   GL241210  20.687  16.629   6.150
 7535POPC   C1A41211  20.566  16.691   6.450
 7535POPC   D2A41212  20.651  16.684   6.750
 7535POPC   C3A41213  20.646  16.686   7.050
 7535POPC   C4A41214  20.649  16.748   7.350
 7535POPC   C1B41215  20.664  16.532   6.450
 7535POPC   C2B41216  20.728  16.452   6.750
 7535POPC   C3B41217  20.662  16.524   7.050
 7535POPC   C4B41218  20.666  16.448   7.350
 7536POPC   NC341219  15.938   2.751   5.550
 7536POPC   PO441220  15.966   2.733   5.850
 7536POPC   GL141221  15.919   2.777   6.150
 7536POPC   GL241222  15.921   2.658   6.150
 7536POPC   C1A41223  15.919   2.781   6.450
 7536POPC   D2A41224  15.997   2.802   6.750
 7536POPC   C3A41225  15.915   2.795   7.050
 7536POPC   C4A41226  15.991   2.780   7.350
 7536POPC   C1B41227  15.960   2.499   6.450
 7536POPC   C2B41228  15.908   2.525   6.750
 7536POPC   C3B41229  15.941   2.564   7.050
 7536POPC   C4B41230  15.963   2.539   7.350
 7537POPC   NC341231  22.968  43.882   5.550
 7537POPC   PO441232  22.955  43.929   5.850
 7537POPC   GL141233  22.966  43.886   6.150
 7537POPC   GL241234  22.852  43.913   6.150
 7537POPC   C1A41235  22.931  43.861   6.450
 7537POPC   D2A41236  22.913  43.862   6.750
 7537POPC   C3A41237  22.950  43.876   7.050
 7537POPC   C4A41238  22.987  43.842   7.350
 7537POPC   C1B41239  22.671  43.981   6.450
 7537POPC   C2B41240  22.685  43.970   6.750
 7537POPC   C3B41241  22.724  43.982   7.050
 7537POPC   C4B41242  22.719  43.911   7.350
 7538POPC   NC341243  38.433   5.909   5.550
 7538POPC   PO441244  38.440   5.853   5.850
 7538POPC   GL141245  38.483   5.846   6.150
 7538POPC   GL241246  38.538   6.013   6.150
 7538POPC   C1A41247  38.424   5.898   6.450
 7538POPC   D2A41248  38.416   5.855   6.750
 7538POPC   C3A41249  38.474   5.829   7.050
 7538POPC   C4A41250  38.447   5.910   7.350
 7538POPC   C1B41251  38.574   6.102   6.450
 7538POPC   C2B41252  38.603   6.100   6.750
 7538POPC   C3B41253  38.558   6.078   7.050
 7538POPC   C4B41254  38.601   6.088   7.350
 7539POPC   NC341255  39.274  28.386   5.550
 7539POPC   PO441256  39.276  28.359   5.850
 7539POPC   GL141257  39.225  28.394   6.150
 7539POPC   GL241258  39.339  28.363   6.150
 7539POPC   C1A41259  39.215  28.391   6.450
 7539POPC   D2A41260  39.209  28.323   6.750
 7539POPC   C3A41261  39.220  28.337   7.050
 7539POPC   C4A41262  39.206  28.362   7.350
 7539POPC   C1B41263  39.480  28.263   6.450
 7539POPC   C2B41264  39.485  28.300   6.750
 7539POPC   C3B41265  39.483  28.278   7.050
 7539POPC   C4B41266  39.418  28.253   7.350
 7540POPC   NC341267   8.191  38.460   5.550
 7540POPC   PO441268   8.205  38.470   5.850
 7540POPC   GL141269   8.180  38.460   6.150
 7540POPC   GL241270   8.093  38.381   6.150
 7540POPC   C1A41271   8.175  38.488   6.450
 7540POPC   D2A41272   8.206  38.424   6.750
 7540POPC   C3A41273   8.161  38.458   7.050
 7540POPC   C4A41274   8.215  38.432   7.350
 7540POPC   C1B41275   8.027  38.233   6.450
 7540POPC   C2B41276   8.080  38.228   6.750
 7540POPC   C3B41277   8.020  38.298   7.050
 7540POPC   C4B41278   8.037  38.263   7.350
 7541POPC   NC341279  11.296  27.571   5.550
 7541POPC   PO441280  11.341  27.643   5.850
 7541POPC   GL141281  11.258  27.546   6.150
 7541POPC   GL241282  11.340  27.451   6.150
 7541POPC   C1A41283  11.258  27.610   6.450
 7541POPC   D2A41284  11.309  27.584   6.750
 7541POPC   C3A41285  11.277  27.593   7.050
 7541POPC   C4A41286  11.332  27.632   7.350
 7541POPC   C1B41287  11.333  27.348   6.450
 7541POPC   C2B41288  11.339  27.336   6.750
 7541POPC   C3B41289  11.317  27.342   7.050
 7541POPC   C4B41290  11.340  27.314   7.350
 7542POPC   NC341291   5.049  22.116   5.550
 7542POPC   PO441292   5.133  22.174   5.850
 7542POPC   GL141293   5.136  22.184   6.150
 7542POPC   GL241294   5.024  22.280   6.150
 7542POPC   C1A41295   5.070  22.112   6.450
 7542POPC   D2A41296   5.051  22.154   6.750
 7542POPC   C3A41297   5.123  22.186   7.050
 7542POPC   C4A41298   5.127  22.198   7.350
 7542POPC   C1B41299   4.995  22.404   6.450
 7542POPC   C2B41300   5.010  22.383   6.750
 7542POPC   C3B41301   5.002  22.369   7.050
 7542POPC   C4B41302   5.048  22.353   7.350
 7543POPC   NC341303   6.641  33.008   5.550
 7543POPC   PO441304   6.625  33.024   5.850
 7543POPC   GL141305   6.650  33.065   6.150
 7543POPC   GL241306   6.787  33.097   6.150
 7543POPC   C1A41307   6.659  33.061   6.450
 7543POPC   D2A41308   6.663  33.040   6.750
 7543POPC   C3A41309   6.642  33.019   7.050
 7543POPC   C4A41310   6.616  33.030   7.350
 7543POPC   C1B41311   6.802  33.232   6.450
 7543POPC   C2B41312   6.826  33.203   6.750
 7543POPC   C3B41313   6.881  33.201   7.050
 7543POPC   C4B41314   6.866  33.229   7.350
 7544POPC   NC341315  10.479  21.378   5.550
 7544POPC   PO441316  10.540  21.403   5.850
 7544POPC   GL141317  10.530  21.395   6.150
 7544POPC   GL241318  10.424  21.458   6.150
 7544POPC   C1A41319  10.548  21.419   6.450
 7544POPC   D2A41320  10.544  21.429   6.750
 7544POPC   C3A41321  10.525  21.433   7.050
 7544POPC   C4A41322  10.568  21.422   7.350
 7544POPC   C1B41323  10.310  21.462   6.450
 7544POPC   C2B41324  10.298  21.390   6.750
 7544POPC   C3B41325  10.276  21.407   7.050
 7544POPC   C4B41326  10.323  21.476   7.350
 7545POPC   NC341327  43.843  42.352   5.550
 7545POPC   PO441328  43.845  42.337   5.850
 7545POPC   GL141329  43.846  42.363   6.150
 7545POPC   GL241330  43.765  42.186   6.150
 7545POPC   C1A41331  43.886  42.331   6.450
 7545POPC   D2A41332  43.869  42.357   6.750
 7545POPC   C3A41333  43.906  42.306   7.050
 7545POPC   C4A41334  43.908  42.314   7.350
 7545POPC   C1B41335  43.751  42.172   6.450
 7545POPC   C2B41336  43.750  42.096   6.750
 7545POPC   C3B41337  43.700  42.149   7.050
 7545POPC   C4B41338  43.717  42.171   7.350
 7546POPC   NC341339  39.214  36.097   5.550
 7546POPC   PO441340  39.194  36.128   5.850
 7546POPC   GL141341  39.217  36.156   6.150
 7546POPC   GL241342  39.104  36.049   6.150
 7546POPC   C1A41343  39.212  36.136   6.450
 7546POPC   D2A41344  39.219  36.108   6.750
 7546POPC   C3A41345  39.259  36.127   7.050
 7546POPC   C4A41346  39.210  36.149   7.350
 7546POPC   C1B41347  38.984  36.016   6.450
 7546POPC   C2B41348  39.022  36.013   6.750
 7546POPC   C3B41349  38.970  36.076   7.050
 7546POPC   C4B41350  38.982  36.084   7.350
 7547POPC   NC341351   5.894  36.159   5.550
 7547POPC   PO441352   5.848  36.135   5.850
 7547POPC   GL141353   5.828  36.149   6.150
 7547POPC   GL241354   6.011  36.161   6.150
 7547POPC   C1A41355   5.902  36.175   6.450
 7547POPC   D2A41356   5.899  36.096   6.750
 7547POPC   C3A41357   5.907  36.154   7.050
 7547POPC   C4A41358   5.821  36.166   7.350
 7547POPC   C1B41359   6.078  36.296   6.450
 7547POPC   C2B41360   6.111  36.310   6.750
 7547POPC   C3B41361   6.110  36.310   7.050
 7547POPC   C4B41362   6.105  36.257   7.350
 7548POPC   NC341363  31.428   3.518   5.550
 7548POPC   PO441364  31.501   3.549   5.850
 7548POPC   GL141365  31.453   3.569   6.150
 7548POPC   GL241366  31.566   3.416   6.150
 7548POPC   C1A41367  31.497   3.522   6.450
 7548POPC   D2A41368  31.449   3.585   6.750
 7548POPC   C3A41369  31.443   3.506   7.050
 7548POPC   C4A41370  31.461   3.566   7.350
 7548POPC   C1B41371  31.621   3.339   6.450
 7548POPC   C2B41372  31.551   3.355   6.750
 7548POPC   C3B41373  31.627   3.361   7.050
 7548POPC   C4B41374  31.551   3.323   7.350
 7549POPC   NC341375  19.877   3.533   5.550
 7549POPC   PO441376  19.821   3.509   5.850
 7549POPC   GL141377  19.804   3.496   6.150
 7549POPC   GL241378  19.923   3.431   6.150
 7549POPC   C1A41379  19.844   3.546   6.450
 7549POPC   D2A41380  19.833   3.534   6.750
 7549POPC   C3A41381  19.863   3.571   7.050
 7549POPC   C4A41382  19.874   3.536   7.350
 7549POPC   C1B41383  19.972   3.298   6.450
 7549POPC   C2B41384  19.937   3.329   6.750
 7549POPC   C3B41385  19.939   3.310   7.050
 7549POPC   C4B41386  20.018   3.344   7.350
 7550POPC   NC341387  41.580  24.452   5.550
 7550POPC   PO441388  41.558  24.521   5.850
 7550POPC   GL141389  41.590  24.519   6.150
 7550POPC   GL241390  41.565  24.355   6.150
 7550POPC   C1A41391  41.529  24.535   6.450
 7550POPC   D2A41392  41.608  24.532   6.750
 7550POPC   C3A41393  41.509  24.449   7.050
 7550POPC   C4A41394  41.578  24.522   7.350
 7550POPC   C1B41395  41.482  24.225   6.450
 7550POPC   C2B41396  41.496  24.237   6.750
 7550POPC   C3B41397  41.500  24.229   7.050
 7550POPC   C4B41398  41.454  24.303   7.350
 7551POPC   NC341399  42.297  12.110   5.550
 7551POPC   PO441400  42.319  12.066   5.850
 7551POPC   GL141401  42.344  12.049   6.150
 7551POPC   GL241402  42.290  11.982   6.150
 7551POPC   C1A41403  42.337  12.103   6.450
 7551POPC   D2A41404  42.329  12.037   6.750
 7551POPC   C3A41405  42.334  12.109   7.050
 7551POPC   C4A41406  42.375  12.094   7.350
 7551POPC   C1B41407  42.346  11.827   6.450
 7551POPC   C2B41408  42.353  11.821   6.750
 7551POPC   C3B41409  42.273  11.785   7.050
 7551POPC   C4B41410  42.289  11.859   7.350
 7552POPC   NC341411   5.833  43.934   5.550
 7552POPC   PO441412   5.877  43.936   5.850
 7552POPC   GL141413   5.844  43.936   6.150
 7552POPC   GL241414   5.966  43.818   6.150
 7552POPC   C1A41415   5.877  43.853   6.450
 7552POPC   D2A41416   5.900  43.860   6.750
 7552POPC   C3A41417   5.864  43.847   7.050
 7552POPC   C4A41418   5.867  43.849   7.350
 7552POPC   C1B41419   6.162  43.868   6.450
 7552POPC   C2B41420   6.140  43.838   6.750
 7552POPC   C3B41421   6.147  43.877   7.050
 7552POPC   C4B41422   6.075  43.860   7.350
 7553POPC   NC341423  42.361  25.234   5.550
 7553POPC   PO441424  42.291  25.290   5.850
 7553POPC   GL141425  42.342  25.300   6.150
 7553POPC   GL241426  42.173  25.211   6.150
 7553POPC   C1A41427  42.359  25.264   6.450
 7553POPC   D2A41428  42.291  25.295   6.750
 7553POPC   C3A41429  42.383  25.285   7.050
 7553POPC   C4A41430  42.327  25.256   7.350
 7553POPC   C1B41431  42.128  25.189   6.450
 7553POPC   C2B41432  42.141  25.202   6.750
 7553POPC   C3B41433  42.070  25.248   7.050
 7553POPC   C4B41434  42.073  25.234   7.350
 7554POPC   NC341435  29.879  24.531   5.550
 7554POPC   PO441436  29.932  24.475   5.850
 7554POPC   GL141437  29.927  24.502   6.150
 7554POPC   GL241438  30.072  24.552   6.150
 7554POPC   C1A41439  29.951  24.513   6.450
 7554POPC   D2A41440  29.903  24.507   6.750
 7554POPC   C3A41441  29.884  24.470   7.050
 7554POPC   C4A41442  29.878  24.444   7.350
 7554POPC   C1B41443  30.174  24.538   6.450
 7554POPC   C2B41444  30.153  24.549   6.750
 7554POPC   C3B41445  30.136  24.522   7.050
 7554POPC   C4B41446  30.184  24.583   7.350
 7555POPC   NC341447  23.695  26.791   5.550
 7555POPC   PO441448  23.727  26.820   5.850
 7555POPC   GL141449  23.732  26.792   6.150
 7555POPC   GL241450  23.638  26.858   6.150
 7555POPC   C1A41451  23.758  26.772   6.450
 7555POPC   D2A41452  23.686  26.853   6.750
 7555POPC   C3A41453  23.697  26.776   7.050
 7555POPC   C4A41454  23.741  26.808   7.350
 7555POPC   C1B41455  23.465  26.831   6.450
 7555POPC   C2B41456  23.461  26.776   6.750
 7555POPC   C3B41457  23.456  26.823   7.050
 7555POPC   C4B41458  23.451  26.782   7.350
 7556POPC   NC341459   7.449  18.283   5.550
 7556POPC   PO441460   7.421  18.234   5.850
 7556POPC   GL141461   7.453  18.321   6.150
 7556POPC   GL241462   7.327  18.377   6.150
 7556POPC   C1A41463   7.390  18.314   6.450
 7556POPC   D2A41464   7.440  18.308   6.750
 7556POPC   C3A41465   7.417  18.255   7.050
 7556POPC   C4A41466   7.427  18.322   7.350
 7556POPC   C1B41467   7.238  18.425   6.450
 7556POPC   C2B41468   7.188  18.403   6.750
 7556POPC   C3B41469   7.242  18.409   7.050
 7556POPC   C4B41470   7.231  18.397   7.350
 7557POPC   NC341471  19.023  21.406   5.550
 7557POPC   PO441472  19.056  21.391   5.850
 7557POPC   GL141473  19.107  21.361   6.150
 7557POPC   GL241474  18.963  21.465   6.150
 7557POPC   C1A41475  19.081  21.434   6.450
 7557POPC   D2A41476  19.093  21.373   6.750
 7557POPC   C3A41477  19.011  21.389   7.050
 7557POPC   C4A41478  19.019  21.428   7.350
 7557POPC   C1B41479  18.874  21.498   6.450
 7557POPC   C2B41480  18.835  21.520   6.750
 7557POPC   C3B41481  18.794  21.538   7.050
 7557POPC   C4B41482  18.864  21.491   7.350
 7558POPC   NC341483   8.242  25.309   5.550
 7558POPC   PO441484   8.168  25.271   5.850
 7558POPC   GL141485   8.188  25.270   6.150
 7558POPC   GL241486   8.099  25.272   6.150
 7558POPC   C1A41487   8.230  25.242   6.450
 7558POPC   D2A41488   8.221  25.286   6.750
 7558POPC   C3A41489   8.171  25.224   7.050
 7558POPC   C4A41490   8.223  25.279   7.350
 7558POPC   C1B41491   7.909  25.163   6.450
 7558POPC   C2B41492   7.989  25.186   6.750
 7558POPC   C3B41493   7.947  25.230   7.050
 7558POPC   C4B41494   7.939  25.174   7.350
 7559POPC   NC341495   2.793  27.599   5.550
 7559POPC   PO441496   2.746  27.564   5.850
 7559POPC   GL141497   2.784  27.634   6.150
 7559POPC   GL241498   2.653  27.695   6.150
 7559POPC   C1A41499   2.808  27.600   6.450
 7559POPC   D2A41500   2.798  27.588   6.750
 7559POPC   C3A41501   2.804  27.560   7.050
 7559POPC   C4A41502   2.718  27.592   7.350
 7559POPC   C1B41503   2.592  27.680   6.450
 7559POPC   C2B41504   2.550  27.721   6.750
 7559POPC   C3B41505   2.533  27.744   7.050
 7559POPC   C4B41506   2.574  27.681   7.350
 7560POPC   NC341507   8.952  16.723   5.550
 7560POPC   PO441508   8.990  16.747   5.850
 7560POPC   GL141509   9.006  16.693   6.150
 7560POPC   GL241510   9.131  16.742   6.150
 7560POPC   C1A41511   8.951  16.741   6.450
 7560POPC   D2A41512   9.021  16.770   6.750
 7560POPC   C3A41513   8.942  16.709   7.050
 7560POPC   C4A41514   9.001  16.741   7.350
 7560POPC   C1B41515   9.241  16.842   6.450
 7560POPC   C2B41516   9.187  16.874   6.750
 7560POPC   C3B41517   9.203  16.871   7.050
 7560POPC   C4B41518   9.201  16.832   7.350
 7561POPC   NC341519  30.665  43.065   5.550
 7561POPC   PO441520  30.672  43.110   5.850
 7561POPC   GL141521  30.691  43.076   6.150
 7561POPC   GL241522  30.768  43.179   6.150
 7561POPC   C1A41523  30.671  43.088   6.450
 7561POPC   D2A41524  30.745  43.125   6.750
 7561POPC   C3A41525  30.655  43.129   7.050
 7561POPC   C4A41526  30.721  43.151   7.350
 7561POPC   C1B41527  30.944  43.295   6.450
 7561POPC   C2B41528  30.868  43.230   6.750
 7561POPC   C3B41529  30.875  43.287   7.050
 7561POPC   C4B41530  30.919  43.210   7.350
 7562POPC   NC341531   2.764  17.526   5.550
 7562POPC   PO441532   2.716  17.494   5.850
 7562POPC   GL141533   2.768  17.545   6.150
 7562POPC   GL241534   2.897  17.572   6.150
 7562POPC   C1A41535   2.774  17.546   6.450
 7562POPC   D2A41536   2.794  17.460   6.750
 7562POPC   C3A41537   2.765  17.476   7.050
 7562POPC   C4A41538   2.809  17.512   7.350
 7562POPC   C1B41539   2.977  17.685   6.450
 7562POPC   C2B41540   2.993  17.630   6.750
 7562POPC   C3B41541   3.001  17.624   7.050
 7562POPC   C4B41542   2.958  17.688   7.350
 7563POPC   NC341543  42.350  42.336   5.550
 7563POPC   PO441544  42.372  42.319   5.850
 7563POPC   GL141545  42.299  42.329   6.150
 7563POPC   GL241546  42.249  42.225   6.150
 7563POPC   C1A41547  42.341  42.374   6.450
 7563POPC   D2A41548  42.307  42.291   6.750
 7563POPC   C3A41549  42.291  42.381   7.050
 7563POPC   C4A41550  42.301  42.333   7.350
 7563POPC   C1B41551  42.125  42.246   6.450
 7563POPC   C2B41552  42.088  42.170   6.750
 7563POPC   C3B41553  42.148  42.174   7.050
 7563POPC   C4B41554  42.104  42.239   7.350
 7564POPC   NC341555  19.059  15.221   5.550
 7564POPC   PO441556  19.065  15.210   5.850
 7564POPC   GL141557  19.023  15.224   6.150
 7564POPC   GL241558  19.107  15.097   6.150
 7564POPC   C1A41559  19.043  15.173   6.450
 7564POPC   D2A41560  19.078  15.228   6.750
 7564POPC   C3A41561  19.053  15.140   7.050
 7564POPC   C4A41562  19.074  15.146   7.350
 7564POPC   C1B41563  19.149  14.924   6.450
 7564POPC   C2B41564  19.145  14.990   6.750
 7564POPC   C3B41565  19.151  14.955   7.050
 7564POPC   C4B41566  19.126  14.954   7.350
 7565POPC   NC341567  15.994  33.752   5.550
 7565POPC   PO441568  15.976  33.841   5.850
 7565POPC   GL141569  15.933  33.768   6.150
 7565POPC   GL241570  15.824  33.851   6.150
 7565POPC   C1A41571  15.966  33.814   6.450
 7565POPC   D2A41572  15.936  33.800   6.750
 7565POPC   C3A41573  15.983  33.764   7.050
 7565POPC   C4A41574  15.912  33.818   7.350
 7565POPC   C1B41575  15.731  33.873   6.450
 7565POPC   C2B41576  15.713  33.867   6.750
 7565POPC   C3B41577  15.755  33.814   7.050
 7565POPC   C4B41578  15.668  33.823   7.350
 7566POPC   NC341579  10.571  25.273   5.550
 7566POPC   PO441580  10.518  25.261   5.850
 7566POPC   GL141581  10.522  25.235   6.150
 7566POPC   GL241582  10.448  25.271   6.150
 7566POPC   C1A41583  10.475  25.292   6.450
 7566POPC   D2A41584  10.507  25.246   6.750
 7566POPC   C3A41585  10.554  25.243   7.050
 7566POPC   C4A41586  10.548  25.237   7.350
 7566POPC   C1B41587  10.272  25.231   6.450
 7566POPC   C2B41588  10.246  25.212   6.750
 7566POPC   C3B41589  10.330  25.167   7.050
 7566POPC   C4B41590  10.300  25.183   7.350
 7567POPC   NC341591  32.231  12.861   5.550
 7567POPC   PO441592  32.289  12.873   5.850
 7567POPC   GL141593  32.207  12.842   6.150
 7567POPC   GL241594  32.396  12.835   6.150
 7567POPC   C1A41595  32.273  12.810   6.450
 7567POPC   D2A41596  32.231  12.835   6.750
 7567POPC   C3A41597  32.289  12.888   7.050
 7567POPC   C4A41598  32.285  12.803   7.350
 7567POPC   C1B41599  32.486  12.836   6.450
 7567POPC   C2B41600  32.455  12.779   6.750
 7567POPC   C3B41601  32.504  12.792   7.050
 7567POPC   C4B41602  32.507  12.791   7.350
 7568POPC   NC341603  16.753  13.595   5.550
 7568POPC   PO441604  16.780  13.611   5.850
 7568POPC   GL141605  16.771  13.670   6.150
 7568POPC   GL241606  16.672  13.641   6.150
 7568POPC   C1A41607  16.740  13.662   6.450
 7568POPC   D2A41608  16.752  13.592   6.750
 7568POPC   C3A41609  16.728  13.626   7.050
 7568POPC   C4A41610  16.764  13.592   7.350
 7568POPC   C1B41611  16.543  13.735   6.450
 7568POPC   C2B41612  16.517  13.745   6.750
 7568POPC   C3B41613  16.515  13.719   7.050
 7568POPC   C4B41614  16.489  13.764   7.350
 7569POPC   NC341615  32.985  36.084   5.550
 7569POPC   PO441616  33.022  36.172   5.850
 7569POPC   GL141617  32.978  36.096   6.150
 7569POPC   GL241618  33.111  36.049   6.150
 7569POPC   C1A41619  32.979  36.106   6.450
 7569POPC   D2A41620  33.036  36.105   6.750
 7569POPC   C3A41621  33.005  36.130   7.050
 7569POPC   C4A41622  33.053  36.116   7.350
 7569POPC   C1B41623  33.296  36.052   6.450
 7569POPC   C2B41624  33.219  36.085   6.750
 7569POPC   C3B41625  33.233  36.027   7.050
 7569POPC   C4B41626  33.289  36.076   7.350
 7570POPC   NC341627  38.439  30.720   5.550
 7570POPC   PO441628  38.422  30.744   5.850
 7570POPC   GL141629  38.481  30.735   6.150
 7570POPC   GL241630  38.523  30.636   6.150
 7570POPC   C1A41631  38.450  30.701   6.450
 7570POPC   D2A41632  38.487  30.686   6.750
 7570POPC   C3A41633  38.435  30.663   7.050
 7570POPC   C4A41634  38.471  30.735   7.350
 7570POPC   C1B41635  38.600  30.509   6.450
 7570POPC   C2B41636  38.636  30.470   6.750
 7570POPC   C3B41637  38.610  30.480   7.050
 7570POPC   C4B41638  38.627  30.539   7.350
 7571POPC   NC341639  43.875   9.008   5.550
 7571POPC   PO441640  43.882   9.008   5.850
 7571POPC   GL141641  43.928   9.019   6.150
 7571POPC   GL241642  43.981   9.036   6.150
 7571POPC   C1A41643  43.920   9.020   6.450
 7571POPC   D2A41644  43.865   8.958   6.750
 7571POPC   C3A41645  43.906   8.992   7.050
 7571POPC   C4A41646  43.886   8.930   7.350
 7571POPC   C1B41647  44.124   9.150   6.450
 7571POPC   C2B41648  44.121   9.139   6.750
 7571POPC   C3B41649  44.055   9.113   7.050
 7571POPC   C4B41650  44.100   9.152   7.350
 7572POPC   NC341651  29.133  40.765   5.550
 7572POPC   PO441652  29.164  40.788   5.850
 7572POPC   GL141653  29.143  40.761   6.150
 7572POPC   GL241654  29.248  40.751   6.150
 7572POPC   C1A41655  29.186  40.742   6.450
 7572POPC   D2A41656  29.124  40.746   6.750
 7572POPC   C3A41657  29.178  40.820   7.050
 7572POPC   C4A41658  29.180  40.793   7.350
 7572POPC   C1B41659  29.400  40.830   6.450
 7572POPC   C2B41660  29.393  40.748   6.750
 7572POPC   C3B41661  29.349  40.747   7.050
 7572POPC   C4B41662  29.408  40.752   7.350
 7573POPC   NC341663  20.578  12.829   5.550
 7573POPC   PO441664  20.597  12.838   5.850
 7573POPC   GL141665  20.655  12.847   6.150
 7573POPC   GL241666  20.762  12.888   6.150
 7573POPC   C1A41667  20.603  12.861   6.450
 7573POPC   D2A41668  20.630  12.850   6.750
 7573POPC   C3A41669  20.648  12.894   7.050
 7573POPC   C4A41670  20.654  12.868   7.350
 7573POPC   C1B41671  20.798  12.945   6.450
 7573POPC   C2B41672  20.817  12.990   6.750
 7573POPC   C3B41673  20.843  12.967   7.050
 7573POPC   C4B41674  20.797  12.937   7.350
 7574POPC   NC341675  21.433  36.170   5.550
 7574POPC   PO441676  21.356  36.085   5.850
 7574POPC   GL141677  21.361  36.150   6.150
 7574POPC   GL241678  21.463  36.010   6.150
 7574POPC   C1A41679  21.360  36.100   6.450
 7574POPC   D2A41680  21.362  36.109   6.750
 7574POPC   C3A41681  21.347  36.141   7.050
 7574POPC   C4A41682  21.376  36.138   7.350
 7574POPC   C1B41683  21.574  36.019   6.450
 7574POPC   C2B41684  21.557  35.979   6.750
 7574POPC   C3B41685  21.605  35.999   7.050
 7574POPC   C4B41686  21.589  36.009   7.350
 7575POPC   NC341687  11.323  19.029   5.550
 7575POPC   PO441688  11.315  19.033   5.850
 7575POPC   GL141689  11.316  19.029   6.150
 7575POPC   GL241690  11.428  19.019   6.150
 7575POPC   C1A41691  11.268  19.096   6.450
 7575POPC   D2A41692  11.251  19.019   6.750
 7575POPC   C3A41693  11.284  19.039   7.050
 7575POPC   C4A41694  11.270  19.087   7.350
 7575POPC   C1B41695  11.477  18.881   6.450
 7575POPC   C2B41696  11.501  18.897   6.750
 7575POPC   C3B41697  11.517  18.858   7.050
 7575POPC   C4B41698  11.494  18.892   7.350
 7576POPC   NC341699  38.468  43.929   5.550
 7576POPC   PO441700  38.441  43.915   5.850
 7576POPC   GL141701  38.440  43.890   6.150
 7576POPC   GL241702  38.310  43.896   6.150
 7576POPC   C1A41703  38.502  43.892   6.450
 7576POPC   D2A41704  38.476  43.928   6.750
 7576POPC   C3A41705  38.427  43.933   7.050
 7576POPC   C4A41706  38.470  43.894   7.350
 7576POPC   C1B41707  38.180  43.915   6.450
 7576POPC   C2B41708  38.249  43.998   6.750
 7576POPC   C3B41709  38.241  43.964   7.050
 7576POPC   C4B41710  38.171  43.944   7.350
 7577POPC   NC341711   6.687   1.235   5.550
 7577POPC   PO441712   6.610   1.228   5.850
 7577POPC   GL141713   6.669   1.173   6.150
 7577POPC   GL241714   6.694   1.320   6.150
 7577POPC   C1A41715   6.605   1.212   6.450
 7577POPC   D2A41716   6.682   1.169   6.750
 7577POPC   C3A41717   6.642   1.206   7.050
 7577POPC   C4A41718   6.605   1.191   7.350
 7577POPC   C1B41719   6.759   1.427   6.450
 7577POPC   C2B41720   6.749   1.450   6.750
 7577POPC   C3B41721   6.764   1.421   7.050
 7577POPC   C4B41722   6.757   1.473   7.350
 7578POPC   NC341723   0.456   8.953   5.550
 7578POPC   PO441724   0.442   8.983   5.850
 7578POPC   GL141725   0.419   8.962   6.150
 7578POPC   GL241726   0.496   9.056   6.150
 7578POPC   C1A41727   0.445   9.016   6.450
 7578POPC   D2A41728   0.399   8.952   6.750
 7578POPC   C3A41729   0.420   8.951   7.050
 7578POPC   C4A41730   0.447   8.980   7.350
 7578POPC   C1B41731   0.563   9.187   6.450
 7578POPC   C2B41732   0.505   9.186   6.750
 7578POPC   C3B41733   0.572   9.240   7.050
 7578POPC   C4B41734   0.515   9.195   7.350
 7579POPC   NC341735  20.622  26.083   5.550
 7579POPC   PO441736  20.603  26.058   5.850
 7579POPC   GL141737  20.618  26.065   6.150
 7579POPC   GL241738  20.477  26.108   6.150
 7579POPC   C1A41739  20.642  26.032   6.450
 7579POPC   D2A41740  20.582  26.001   6.750
 7579POPC   C3A41741  20.650  26.078   7.050
 7579POPC   C4A41742  20.615  26.088   7.350
 7579POPC   C1B41743  20.395  26.111   6.450
 7579POPC   C2B41744  20.350  26.126   6.750
 7579POPC   C3B41745  20.368  26.127   7.050
 7579POPC   C4B41746  20.341  26.116   7.350
 7580POPC   NC341747  23.757  22.904   5.550
 7580POPC   PO441748  23.739  22.984   5.850
 7580POPC   GL141749  23.721  22.915   6.150
 7580POPC   GL241750  23.830  22.824   6.150
 7580POPC   C1A41751  23.745  22.923   6.450
 7580POPC   D2A41752  23.725  22.951   6.750
 7580POPC   C3A41753  23.764  22.934   7.050
 7580POPC   C4A41754  23.734  22.920   7.350
 7580POPC   C1B41755  23.843  22.727   6.450
 7580POPC   C2B41756  23.902  22.795   6.750
 7580POPC   C3B41757  23.896  22.705   7.050
 7580POPC   C4B41758  23.880  22.762   7.350
 7581POPC   NC341759   6.684  13.586   5.550
 7581POPC   PO441760   6.642  13.588   5.850
 7581POPC   GL141761   6.660  13.609   6.150
 7581POPC   GL241762   6.578  13.703   6.150
 7581POPC   C1A41763   6.627  13.585   6.450
 7581POPC   D2A41764   6.655  13.655   6.750
 7581POPC   C3A41765   6.646  13.627   7.050
 7581POPC   C4A41766   6.605  13.626   7.350
 7581POPC   C1B41767   6.468  13.827   6.450
 7581POPC   C2B41768   6.427  13.753   6.750
 7581POPC   C3B41769   6.437  13.833   7.050
 7581POPC   C4B41770   6.437  13.838   7.350
 7582POPC   NC341771   7.431   2.721   5.550
 7582POPC   PO441772   7.374   2.789   5.850
 7582POPC   GL141773   7.466   2.726   6.150
 7582POPC   GL241774   7.539   2.742   6.150
 7582POPC   C1A41775   7.434   2.798   6.450
 7582POPC   D2A41776   7.390   2.735   6.750
 7582POPC   C3A41777   7.395   2.799   7.050
 7582POPC   C4A41778   7.388   2.754   7.350
 7582POPC   C1B41779   7.673   2.629   6.450
 7582POPC   C2B41780   7.631   2.592   6.750
 7582POPC   C3B41781   7.623   2.593   7.050
 7582POPC   C4B41782   7.633   2.620   7.350
 7583POPC   NC341783  19.817  16.742   5.550
 7583POPC   PO441784  19.790  16.694   5.850
 7583POPC   GL141785  19.833  16.738   6.150
 7583POPC   GL241786  19.918  16.600   6.150
 7583POPC   C1A41787  19.785  16.706   6.450
 7583POPC   D2A41788  19.854  16.718   6.750
 7583POPC   C3A41789  19.795  16.693   7.050
 7583POPC   C4A41790  19.826  16.700   7.350
 7583POPC   C1B41791  19.947  16.490   6.450
 7583POPC   C2B41792  19.993  16.520   6.750
 7583POPC   C3B41793  19.938  16.525   7.050
 7583POPC   C4B41794  19.917  16.520   7.350
 7584POPC   NC341795  43.868  26.040   5.550
 7584POPC   PO441796  43.844  26.039   5.850
 7584POPC   GL141797  43.930  26.033   6.150
 7584POPC   GL241798  43.969  26.055   6.150
 7584POPC   C1A41799  43.853  26.058   6.450
 7584POPC   D2A41800  43.854  26.042   6.750
 7584POPC   C3A41801  43.902  26.030   7.050
 7584POPC   C4A41802  43.847  26.016   7.350
 7584POPC   C1B41803  44.154  26.108   6.450
 7584POPC   C2B41804  44.110  26.158   6.750
 7584POPC   C3B41805  44.123  26.100   7.050
 7584POPC   C4B41806  44.136  26.137   7.350
 7585POPC   NC341807   2.039  36.110   5.550
 7585POPC   PO441808   2.012  36.091   5.850
 7585POPC   GL141809   2.029  36.097   6.150
 7585POPC   GL241810   1.898  36.214   6.150
 7585POPC   C1A41811   2.012  36.118   6.450
 7585POPC   D2A41812   1.962  36.129   6.750
 7585POPC   C3A41813   2.015  36.164   7.050
 7585POPC   C4A41814   2.023  36.101   7.350
 7585POPC   C1B41815   1.890  36.313   6.450
 7585POPC   C2B41816   1.882  36.366   6.750
 7585POPC   C3B41817   1.810  36.301   7.050
 7585POPC   C4B41818   1.808  36.345   7.350
 7586POPC   NC341819  27.627  16.722   5.550
 7586POPC   PO441820  27.592  16.730   5.850
 7586POPC   GL141821  27.600  16.721   6.150
 7586POPC   GL241822  27.564  16.658   6.150
 7586POPC   C1A41823  27.557  16.758   6.450
 7586POPC   D2A41824  27.633  16.707   6.750
 7586POPC   C3A41825  27.550  16.755   7.050
 7586POPC   C4A41826  27.558  16.721   7.350
 7586POPC   C1B41827  27.388  16.527   6.450
 7586POPC   C2B41828  27.444  16.542   6.750
 7586POPC   C3B41829  27.422  16.525   7.050
 7586POPC   C4B41830  27.391  16.498   7.350
 7587POPC   NC341831  42.318   5.125   5.550
 7587POPC   PO441832  42.344   5.139   5.850
 7587POPC   GL141833  42.307   5.080   6.150
 7587POPC   GL241834  42.421   5.196   6.150
 7587POPC   C1A41835  42.304   5.117   6.450
 7587POPC   D2A41836  42.310   5.130   6.750
 7587POPC   C3A41837  42.316   5.099   7.050
 7587POPC   C4A41838  42.361   5.086   7.350
 7587POPC   C1B41839  42.400   5.358   6.450
 7587POPC   C2B41840  42.466   5.332   6.750
 7587POPC   C3B41841  42.467   5.334   7.050
 7587POPC   C4B41842  42.434   5.308   7.350
 7588POPC   NC341843   4.325  24.538   5.550
 7588POPC   PO441844   4.355  24.537   5.850
 7588POPC   GL141845   4.292  24.447   6.150
 7588POPC   GL241846   4.158  24.442   6.150
 7588POPC   C1A41847   4.331  24.454   6.450
 7588POPC   D2A41848   4.301  24.509   6.750
 7588POPC   C3A41849   4.303  24.458   7.050
 7588POPC   C4A41850   4.319  24.455   7.350
 7588POPC   C1B41851   4.039  24.458   6.450
 7588POPC   C2B41852   4.049  24.393   6.750
 7588POPC   C3B41853   4.104  24.409   7.050
 7588POPC   C4B41854   4.046  24.392   7.350
 7589POPC   NC341855  29.923  12.876   5.550
 7589POPC   PO441856  29.956  12.835   5.850
 7589POPC   GL141857  29.961  12.829   6.150
 7589POPC   GL241858  30.080  12.812   6.150
 7589POPC   C1A41859  29.875  12.817   6.450
 7589POPC   D2A41860  29.936  12.884   6.750
 7589POPC   C3A41861  29.904  12.844   7.050
 7589POPC   C4A41862  29.915  12.838   7.350
 7589POPC   C1B41863  30.192  12.804   6.450
 7589POPC   C2B41864  30.182  12.828   6.750
 7589POPC   C3B41865  30.207  12.863   7.050
 7589POPC   C4B41866  30.193  12.857   7.350
 7590POPC   NC341867  11.290  41.583   5.550
 7590POPC   PO441868  11.344  41.516   5.850
 7590POPC   GL141869  11.264  41.580   6.150
 7590POPC   GL241870  11.184  41.481   6.150
 7590POPC   C1A41871  11.337  41.514   6.450
 7590POPC   D2A41872  11.323  41.589   6.750
 7590POPC   C3A41873  11.303  41.608   7.050
 7590POPC   C4A41874  11.322  41.560   7.350
 7590POPC   C1B41875  11.104  41.401   6.450
 7590POPC   C2B41876  11.088  41.421   6.750
 7590POPC   C3B41877  11.125  41.402   7.050
 7590POPC   C4B41878  11.086  41.413   7.350
 7591POPC   NC341879  44.688  38.474   5.550
 7591POPC   PO441880  44.698  38.416   5.850
 7591POPC   GL141881  44.630  38.446   6.150
 7591POPC   GL241882  44.562  38.394   6.150
 7591POPC   C1A41883  44.638  38.476   6.450
 7591POPC   D2A41884  44.653  38.426   6.750
 7591POPC   C3A41885  44.651  38.501   7.050
 7591POPC   C4A41886  44.636  38.496   7.350
 7591POPC   C1B41887  44.425  38.386   6.450
 7591POPC   C2B41888  44.421  38.438   6.750
 7591POPC   C3B41889  44.388  38.392   7.050
 7591POPC   C4B41890  44.407  38.448   7.350
 7592POPC   NC341891  11.278   9.786   5.550
 7592POPC   PO441892  11.300   9.766   5.850
 7592POPC   GL141893  11.264   9.771   6.150
 7592POPC   GL241894  11.285   9.657   6.150
 7592POPC   C1A41895  11.321   9.732   6.450
 7592POPC   D2A41896  11.337   9.725   6.750
 7592POPC   C3A41897  11.311   9.729   7.050
 7592POPC   C4A41898  11.266   9.706   7.350
 7592POPC   C1B41899  11.310   9.527   6.450
 7592POPC   C2B41900  11.265   9.512   6.750
 7592POPC   C3B41901  11.249   9.510   7.050
 7592POPC   C4B41902  11.336   9.490   7.350
 7593POPC   NC341903  40.020   1.977   5.550
 7593POPC   PO441904  40.036   2.009   5.850
 7593POPC   GL141905  39.978   2.023   6.150
 7593POPC   GL241906  40.023   1.911   6.150
 7593POPC   C1A41907  40.047   2.000   6.450
 7593POPC   D2A41908  40.042   2.031   6.750
 7593POPC   C3A41909  40.019   2.037   7.050
 7593POPC   C4A41910  40.015   1.963   7.350
 7593POPC   C1B41911  40.147   1.791   6.450
 7593POPC   C2B41912  40.094   1.747   6.750
 7593POPC   C3B41913  40.104   1.725   7.050
 7593POPC   C4B41914  40.139   1.768   7.350
 7594POPC   NC341915  12.116   0.427   5.550
 7594POPC   PO441916  12.056   0.424   5.850
 7594POPC   GL141917  12.034   0.457   6.150
 7594POPC   GL241918  12.159   0.603   6.150
 7594POPC   C1A41919  12.091   0.439   6.450
 7594POPC   D2A41920  12.055   0.433   6.750
 7594POPC   C3A41921  12.074   0.449   7.050
 7594POPC   C4A41922  12.065   0.466   7.350
 7594POPC   C1B41923  12.195   0.637   6.450
 7594POPC   C2B41924  12.124   0.696   6.750
 7594POPC   C3B41925  12.120   0.641   7.050
 7594POPC   C4B41926  12.119   0.626   7.350
 7595POPC   NC341927  19.041  15.923   5.550
 7595POPC   PO441928  19.039  15.986   5.850
 7595POPC   GL141929  19.095  15.962   6.150
 7595POPC   GL241930  19.067  15.798   6.150
 7595POPC   C1A41931  19.036  15.917   6.450
 7595POPC   D2A41932  19.088  15.950   6.750
 7595POPC   C3A41933  19.081  15.922   7.050
 7595POPC   C4A41934  19.069  15.997   7.350
 7595POPC   C1B41935  19.192  15.696   6.450
 7595POPC   C2B41936  19.176  15.690   6.750
 7595POPC   C3B41937  19.196  15.758   7.050
 7595POPC   C4B41938  19.172  15.756   7.350
 7596POPC   NC341939  17.535  11.302   5.550
 7596POPC   PO441940  17.487  11.253   5.850
 7596POPC   GL141941  17.542  11.317   6.150
 7596POPC   GL241942  17.576  11.463   6.150
 7596POPC   C1A41943  17.505  11.350   6.450
 7596POPC   D2A41944  17.473  11.349   6.750
 7596POPC   C3A41945  17.496  11.303   7.050
 7596POPC   C4A41946  17.529  11.300   7.350
 7596POPC   C1B41947  17.597  11.528   6.450
 7596POPC   C2B41948  17.537  11.506   6.750
 7596POPC   C3B41949  17.583  11.527   7.050
 7596POPC   C4B41950  17.539  11.589   7.350
 7597POPC   NC341951   8.935   4.359   5.550
 7597POPC   PO441952   8.950   4.352   5.850
 7597POPC   GL141953   8.997   4.353   6.150
 7597POPC   GL241954   8.867   4.301   6.150
 7597POPC   C1A41955   8.944   4.300   6.450
 7597POPC   D2A41956   8.946   4.342   6.750
 7597POPC   C3A41957   8.968   4.285   7.050
 7597POPC   C4A41958   8.959   4.301   7.350
 7597POPC   C1B41959   8.765   4.255   6.450
 7597POPC   C2B41960   8.688   4.259   6.750
 7597POPC   C3B41961   8.704   4.225   7.050
 7597POPC   C4B41962   8.740   4.243   7.350
 7598POPC   NC341963  43.150  36.134   5.550
 7598POPC   PO441964  43.153  36.155   5.850
 7598POPC   GL141965  43.130  36.127   6.150
 7598POPC   GL241966  43.070  36.294   6.150
 7598POPC   C1A41967  43.068  36.119   6.450
 7598POPC   D2A41968  43.159  36.111   6.750
 7598POPC   C3A41969  43.140  36.137   7.050
 7598POPC   C4A41970  43.157  36.157   7.350
 7598POPC   C1B41971  43.093  36.385   6.450
 7598POPC   C2B41972  43.020  36.356   6.750
 7598POPC   C3B41973  43.050  36.326   7.050
 7598POPC   C4B41974  43.001  36.355   7.350
 7599POPC   NC341975  43.870  27.585   5.550
 7599POPC   PO441976  43.893  27.638   5.850
 7599POPC   GL141977  43.836  27.581   6.150
 7599POPC   GL241978  43.987  27.528   6.150
 7599POPC   C1A41979  43.864  27.605   6.450
 7599POPC   D2A41980  43.855  27.628   6.750
 7599POPC   C3A41981  43.931  27.623   7.050
 7599POPC   C4A41982  43.851  27.602   7.350
 7599POPC   C1B41983  44.073  27.527   6.450
 7599POPC   C2B41984  44.143  27.525   6.750
 7599POPC   C3B41985  44.128  27.502   7.050
 7599POPC   C4B41986  44.103  27.528   7.350
 7600POPC   NC341987  28.333  25.270   5.550
 7600POPC   PO441988  28.412  25.274   5.850
 7600POPC   GL141989  28.412  25.224   6.150
 7600POPC   GL241990  28.222  25.267   6.150
 7600POPC   C1A41991  28.405  25.241   6.450
 7600POPC   D2A41992  28.372  25.270   6.750
 7600POPC   C3A41993  28.385  25.297   7.050
 7600POPC   C4A41994  28.345  25.233   7.350
 7600POPC   C1B41995  28.101  25.143   6.450
 7600POPC   C2B41996  28.178  25.232   6.750
 7600POPC   C3B41997  28.083  25.190   7.050
 7600POPC   C4B41998  28.165  25.219   7.350
 7601POPC   NC341999  44.639   3.494   5.550
 7601POPC   PO442000  44.686   3.581   5.850
 7601POPC   GL142001  44.693   3.508   6.150
 7601POPC   GL242002  44.593   3.452   6.150
 7601POPC   C1A42003  44.668   3.512   6.450
 7601POPC   D2A42004  44.706   3.563   6.750
 7601POPC   C3A42005  44.693   3.566   7.050
 7601POPC   C4A42006  44.662   3.536   7.350
 7601POPC   C1B42007  44.574   3.332   6.450
 7601POPC   C2B42008  44.557   3.286   6.750
 7601POPC   C3B42009  44.608   3.348   7.050
 7601POPC   C4B42010  44.608   3.290   7.350
 7602POPC   NC342011   5.080  36.177   5.550
 7602POPC   PO442012   5.077  36.119   5.850
 7602POPC   GL142013   5.089  36.143   6.150
 7602POPC   GL242014   5.093  36.040   6.150
 7602POPC   C1A42015   5.086  36.123   6.450
 7602POPC   D2A42016   5.081  36.096   6.750
 7602POPC   C3A42017   5.094  36.131   7.050
 7602POPC   C4A42018   5.061  36.141   7.350
 7602POPC   C1B42019   5.143  35.879   6.450
 7602POPC   C2B42020   5.128  35.875   6.750
 7602POPC   C3B42021   5.177  35.926   7.050
 7602POPC   C4B42022   5.125  35.907   7.350
 7603POPC   NC342023   2.754  35.360   5.550
 7603POPC   PO442024   2.733  35.365   5.850
 7603POPC   GL142025   2.762  35.306   6.150
 7603POPC   GL242026   2.654  35.211   6.150
 7603POPC   C1A42027   2.764  35.338   6.450
 7603POPC   D2A42028   2.725  35.361   6.750
 7603POPC   C3A42029   2.741  35.383   7.050
 7603POPC   C4A42030   2.786  35.376   7.350
 7603POPC   C1B42031   2.631  35.118   6.450
 7603POPC   C2B42032   2.629  35.144   6.750
 7603POPC   C3B42033   2.642  35.203   7.050
 7603POPC   C4B42034   2.576  35.187   7.350
 7604POPC   NC342035  24.476   2.731   5.550
 7604POPC   PO442036  24.523   2.731   5.850
 7604POPC   GL142037  24.522   2.767   6.150
 7604POPC   GL242038  24.566   2.864   6.150
 7604POPC   C1A42039  24.519   2.792   6.450
 7604POPC   D2A42040  24.497   2.794   6.750
 7604POPC   C3A42041  24.535   2.718   7.050
 7604POPC   C4A42042  24.447   2.752   7.350
 7604POPC   C1B42043  24.625   2.966   6.450
 7604POPC   C2B42044  24.669   2.963   6.750
 7604POPC   C3B42045  24.671   2.978   7.050
 7604POPC   C4B42046  24.649   2.935   7.350
 7605POPC   NC342047  37.686  20.599   5.550
 7605POPC   PO442048  37.639  20.655   5.850
 7605POPC   GL142049  37.728  20.641   6.150
 7605POPC   GL242050  37.553  20.728   6.150
 7605POPC   C1A42051  37.632  20.637   6.450
 7605POPC   D2A42052  37.629  20.570   6.750
 7605POPC   C3A42053  37.636  20.626   7.050
 7605POPC   C4A42054  37.668  20.631   7.350
 7605POPC   C1B42055  37.550  20.797   6.450
 7605POPC   C2B42056  37.474  20.752   6.750
 7605POPC   C3B42057  37.482  20.814   7.050
 7605POPC   C4B42058  37.546  20.759   7.350
 7606POPC   NC342059  41.513  22.189   5.550
 7606POPC   PO442060  41.515  22.202   5.850
 7606POPC   GL142061  41.596  22.160   6.150
 7606POPC   GL242062  41.488  22.162   6.150
 7606POPC   C1A42063  41.553  22.136   6.450
 7606POPC   D2A42064  41.604  22.113   6.750
 7606POPC   C3A42065  41.566  22.113   7.050
 7606POPC   C4A42066  41.605  22.202   7.350
 7606POPC   C1B42067  41.370  22.039   6.450
 7606POPC   C2B42068  41.321  22.109   6.750
 7606POPC   C3B42069  41.356  22.096   7.050
 7606POPC   C4B42070  41.290  22.052   7.350
 7607POPC   NC342071  40.734  33.031   5.550
 7607POPC   PO442072  40.824  33.002   5.850
 7607POPC   GL142073  40.760  32.992   6.150
 7607POPC   GL242074  40.788  33.113   6.150
 7607POPC   C1A42075  40.757  33.065   6.450
 7607POPC   D2A42076  40.799  33.034   6.750
 7607POPC   C3A42077  40.765  33.033   7.050
 7607POPC   C4A42078  40.788  33.051   7.350
 7607POPC   C1B42079  40.798  33.236   6.450
 7607POPC   C2B42080  40.784  33.228   6.750
 7607POPC   C3B42081  40.803  33.245   7.050
 7607POPC   C4B42082  40.833  33.252   7.350
 7608POPC   NC342083  16.772  38.433   5.550
 7608POPC   PO442084  16.745  38.421   5.850
 7608POPC   GL142085  16.714  38.496   6.150
 7608POPC   GL242086  16.791  38.547   6.150
 7608POPC   C1A42087  16.698  38.457   6.450
 7608POPC   D2A42088  16.702  38.504   6.750
 7608POPC   C3A42089  16.765  38.407   7.050
 7608POPC   C4A42090  16.760  38.420   7.350
 7608POPC   C1B42091  16.900  38.658   6.450
 7608POPC   C2B42092  16.903  38.584   6.750
 7608POPC   C3B42093  16.914  38.596   7.050
 7608POPC   C4B42094  16.928  38.610   7.350
 7609POPC   NC342095  22.124  40.736   5.550
 7609POPC   PO442096  22.162  40.804   5.850
 7609POPC   GL142097  22.164  40.739   6.150
 7609POPC   GL242098  22.295  40.732   6.150
 7609POPC   C1A42099  22.193  40.765   6.450
 7609POPC   D2A42100  22.124  40.781   6.750
 7609POPC   C3A42101  22.174  40.759   7.050
 7609POPC   C4A42102  22.212  40.814   7.350
 7609POPC   C1B42103  22.386  40.644   6.450
 7609POPC   C2B42104  22.352  40.613   6.750
 7609POPC   C3B42105  22.377  40.564   7.050
 7609POPC   C4B42106  22.368  40.592   7.350
 7610POPC   NC342107  14.450  44.624   5.550
 7610POPC   PO442108  14.366  44.689   5.850
 7610POPC   GL142109  14.407  44.711   6.150
 7610POPC   GL242110  14.362  44.779   6.150
 7610POPC   C1A42111  14.406  44.620   6.450
 7610POPC   D2A42112  14.417  44.710   6.750
 7610POPC   C3A42113  14.446  44.700   7.050
 7610POPC   C4A42114  14.424  44.638   7.350
 7610POPC   C1B42115  14.320  44.938   6.450
 7610POPC   C2B42116  14.379  44.941   6.750
 7610POPC   C3B42117  14.371  44.892   7.050
 7610POPC   C4B42118  14.410  44.926   7.350
 7611POPC   NC342119   5.107  26.035   5.550
 7611POPC   PO442120   5.087  26.074   5.850
 7611POPC   GL142121   5.091  26.007   6.150
 7611POPC   GL242122   5.225  25.991   6.150
 7611POPC   C1A42123   5.066  26.032   6.450
 7611POPC   D2A42124   5.047  25.994   6.750
 7611POPC   C3A42125   5.045  26.091   7.050
 7611POPC   C4A42126   5.123  26.079   7.350
 7611POPC   C1B42127   5.346  26.018   6.450
 7611POPC   C2B42128   5.345  25.954   6.750
 7611POPC   C3B42129   5.345  26.017   7.050
 7611POPC   C4B42130   5.343  26.029   7.350
 7612POPC   NC342131  26.821   0.394   5.550
 7612POPC   PO442132  26.852   0.487   5.850
 7612POPC   GL142133  26.843   0.439   6.150
 7612POPC   GL242134  26.923   0.488   6.150
 7612POPC   C1A42135  26.829   0.423   6.450
 7612POPC   D2A42136  26.800   0.475   6.750
 7612POPC   C3A42137  26.864   0.411   7.050
 7612POPC   C4A42138  26.777   0.440   7.350
 7612POPC   C1B42139  27.016   0.605   6.450
 7612POPC   C2B42140  26.976   0.601   6.750
 7612POPC   C3B42141  26.952   0.608   7.050
 7612POPC   C4B42142  26.926   0.640   7.350
 7613POPC   NC342143  37.636  16.002   5.550
 7613POPC   PO442144  37.677  16.003   5.850
 7613POPC   GL142145  37.678  15.933   6.150
 7613POPC   GL242146  37.528  15.891   6.150
 7613POPC   C1A42147  37.712  15.950   6.450
 7613POPC   D2A42148  37.652  15.931   6.750
 7613POPC   C3A42149  37.689  15.979   7.050
 7613POPC   C4A42150  37.727  15.909   7.350
 7613POPC   C1B42151  37.403  15.802   6.450
 7613POPC   C2B42152  37.456  15.819   6.750
 7613POPC   C3B42153  37.433  15.806   7.050
 7613POPC   C4B42154  37.461  15.888   7.350
 7614POPC   NC342155   3.537  28.408   5.550
 7614POPC   PO442156   3.517  28.372   5.850
 7614POPC   GL142157   3.512  28.396   6.150
 7614POPC   GL242158   3.390  28.418   6.150
 7614POPC   C1A42159   3.582  28.407   6.450
 7614POPC   D2A42160   3.578  28.371   6.750
 7614POPC   C3A42161   3.503  28.387   7.050
 7614POPC   C4A42162   3.535  28.362   7.350
 7614POPC   C1B42163   3.346  28.539   6.450
 7614POPC   C2B42164   3.361  28.500   6.750
 7614POPC   C3B42165   3.340  28.535   7.050
 7614POPC   C4B42166   3.333  28.473   7.350
 7615POPC   NC342167  10.479  28.405   5.550
 7615POPC   PO442168  10.508  28.415   5.850
 7615POPC   GL142169  10.491  28.329   6.150
 7615POPC   GL242170  10.586  28.335   6.150
 7615POPC   C1A42171  10.551  28.345   6.450
 7615POPC   D2A42172  10.511  28.399   6.750
 7615POPC   C3A42173  10.537  28.341   7.050
 7615POPC   C4A42174  10.570  28.393   7.350
 7615POPC   C1B42175  10.693  28.252   6.450
 7615POPC   C2B42176  10.775  28.238   6.750
 7615POPC   C3B42177  10.756  28.193   7.050
 7615POPC   C4B42178  10.781  28.264   7.350
 7616POPC   NC342179  18.305   5.898   5.550
 7616POPC   PO442180  18.280   5.855   5.850
 7616POPC   GL142181  18.234   5.917   6.150
 7616POPC   GL242182  18.137   5.979   6.150
 7616POPC   C1A42183  18.326   5.871   6.450
 7616POPC   D2A42184  18.323   5.888   6.750
 7616POPC   C3A42185  18.330   5.870   7.050
 7616POPC   C4A42186  18.238   5.849   7.350
 7616POPC   C1B42187  18.121   6.070   6.450
 7616POPC   C2B42188  18.059   6.038   6.750
 7616POPC   C3B42189  18.106   6.020   7.050
 7616POPC   C4B42190  18.064   5.978   7.350
 7617POPC   NC342191   2.016  18.249   5.550
 7617POPC   PO442192   1.973  18.293   5.850
 7617POPC   GL142193   1.985  18.235   6.150
 7617POPC   GL242194   1.892  18.279   6.150
 7617POPC   C1A42195   1.981  18.296   6.450
 7617POPC   D2A42196   1.980  18.318   6.750
 7617POPC   C3A42197   2.033  18.245   7.050
 7617POPC   C4A42198   1.991  18.261   7.350
 7617POPC   C1B42199   1.752  18.288   6.450
 7617POPC   C2B42200   1.784  18.330   6.750
 7617POPC   C3B42201   1.788  18.337   7.050
 7617POPC   C4B42202   1.759  18.320   7.350
 7618POPC   NC342203   7.423   6.621   5.550
 7618POPC   PO442204   7.375   6.656   5.850
 7618POPC   GL142205   7.446   6.651   6.150
 7618POPC   GL242206   7.256   6.624   6.150
 7618POPC   C1A42207   7.428   6.598   6.450
 7618POPC   D2A42208   7.393   6.672   6.750
 7618POPC   C3A42209   7.453   6.673   7.050
 7618POPC   C4A42210   7.395   6.662   7.350
 7618POPC   C1B42211   7.130   6.644   6.450
 7618POPC   C2B42212   7.200   6.679   6.750
 7618POPC   C3B42213   7.213   6.637   7.050
 7618POPC   C4B42214   7.207   6.668   7.350
 7619POPC   NC342215  29.956  10.504   5.550
 7619POPC   PO442216  29.920  10.528   5.850
 7619POPC   GL142217  29.965  10.483   6.150
 7619POPC   GL242218  29.819  10.497   6.150
 7619POPC   C1A42219  29.917  10.505   6.450
 7619POPC   D2A42220  29.921  10.483   6.750
 7619POPC   C3A42221  29.898  10.488   7.050
 7619POPC   C4A42222  29.889  10.534   7.350
 7619POPC   C1B42223  29.728  10.417   6.450
 7619POPC   C2B42224  29.684  10.401   6.750
 7619POPC   C3B42225  29.672  10.376   7.050
 7619POPC   C4B42226  29.698  10.356   7.350
 7620POPC   NC342227  29.098  26.783   5.550
 7620POPC   PO442228  29.117  26.796   5.850
 7620POPC   GL142229  29.112  26.834   6.150
 7620POPC   GL242230  29.114  26.729   6.150
 7620POPC   C1A42231  29.139  26.799   6.450
 7620POPC   D2A42232  29.108  26.778   6.750
 7620POPC   C3A42233  29.167  26.805   7.050
 7620POPC   C4A42234  29.182  26.780   7.350
 7620POPC   C1B42235  28.998  26.586   6.450
 7620POPC   C2B42236  29.014  26.612   6.750
 7620POPC   C3B42237  28.965  26.624   7.050
 7620POPC   C4B42238  28.972  26.596   7.350
 7621POPC   NC342239  26.783  31.508   5.550
 7621POPC   PO442240  26.851  31.448   5.850
 7621POPC   GL142241  26.783  31.473   6.150
 7621POPC   GL242242  26.709  31.509   6.150
 7621POPC   C1A42243  26.797  31.486   6.450
 7621POPC   D2A42244  26.817  31.427   6.750
 7621POPC   C3A42245  26.855  31.512   7.050
 7621POPC   C4A42246  26.776  31.508   7.350
 7621POPC   C1B42247  26.530  31.511   6.450
 7621POPC   C2B42248  26.548  31.530   6.750
 7621POPC   C3B42249  26.572  31.450   7.050
 7621POPC   C4B42250  26.597  31.490   7.350
 7622POPC   NC342251  34.531  15.956   5.550
 7622POPC   PO442252  34.564  15.985   5.850
 7622POPC   GL142253  34.534  15.906   6.150
 7622POPC   GL242254  34.519  15.868   6.150
 7622POPC   C1A42255  34.527  15.995   6.450
 7622POPC   D2A42256  34.527  15.986   6.750
 7622POPC   C3A42257  34.608  15.913   7.050
 7622POPC   C4A42258  34.589  15.957   7.350
 7622POPC   C1B42259  34.525  15.690   6.450
 7622POPC   C2B42260  34.510  15.758   6.750
 7622POPC   C3B42261  34.473  15.750   7.050
 7622POPC   C4B42262  34.472  15.692   7.350
 7623POPC   NC342263  36.886  43.915   5.550
 7623POPC   PO442264  36.921  43.882   5.850
 7623POPC   GL142265  36.929  43.843   6.150
 7623POPC   GL242266  36.963  43.976   6.150
 7623POPC   C1A42267  36.903  43.864   6.450
 7623POPC   D2A42268  36.887  43.916   6.750
 7623POPC   C3A42269  36.912  43.878   7.050
 7623POPC   C4A42270  36.948  43.919   7.350
 7623POPC   C1B42271  36.961  44.157   6.450
 7623POPC   C2B42272  36.903  44.176   6.750
 7623POPC   C3B42273  36.897  44.173   7.050
 7623POPC   C4B42274  36.974  44.163   7.350
 7624POPC   NC342275  38.426  11.319   5.550
 7624POPC   PO442276  38.489  11.281   5.850
 7624POPC   GL142277  38.501  11.288   6.150
 7624POPC   GL242278  38.532  11.383   6.150
 7624POPC   C1A42279  38.494  11.339   6.450
 7624POPC   D2A42280  38.437  11.308   6.750
 7624POPC   C3A42281  38.444  11.326   7.050
 7624POPC   C4A42282  38.498  11.300   7.350
 7624POPC   C1B42283  38.706  11.437   6.450
 7624POPC   C2B42284  38.662  11.375   6.750
 7624POPC   C3B42285  38.640  11.393   7.050
 7624POPC   C4B42286  38.702  11.422   7.350
 7625POPC   NC342287   3.503   2.774   5.550
 7625POPC   PO442288   3.591   2.725   5.850
 7625POPC   GL142289   3.556   2.780   6.150
 7625POPC   GL242290   3.398   2.803   6.150
 7625POPC   C1A42291   3.580   2.806   6.450
 7625POPC   D2A42292   3.546   2.758   6.750
 7625POPC   C3A42293   3.536   2.780   7.050
 7625POPC   C4A42294   3.546   2.805   7.350
 7625POPC   C1B42295   3.301   2.869   6.450
 7625POPC   C2B42296   3.311   2.907   6.750
 7625POPC   C3B42297   3.348   2.829   7.050
 7625POPC   C4B42298   3.275   2.852   7.350
 7626POPC   NC342299   9.729  27.592   5.550
 7626POPC   PO442300   9.723  27.553   5.850
 7626POPC   GL142301   9.730  27.637   6.150
 7626POPC   GL242302   9.633  27.564   6.150
 7626POPC   C1A42303   9.721  27.626   6.450
 7626POPC   D2A42304   9.707  27.559   6.750
 7626POPC   C3A42305   9.703  27.578   7.050
 7626POPC   C4A42306   9.744  27.571   7.350
 7626POPC   C1B42307   9.565  27.473   6.450
 7626POPC   C2B42308   9.550  27.497   6.750
 7626POPC   C3B42309   9.530  27.501   7.050
 7626POPC   C4B42310   9.574  27.435   7.350
 7627POPC   NC342311  27.554  39.234   5.550
 7627POPC   PO442312  27.608  39.272   5.850
 7627POPC   GL142313  27.615  39.215   6.150
 7627POPC   GL242314  27.741  39.303   6.150
 7627POPC   C1A42315  27.589  39.274   6.450
 7627POPC   D2A42316  27.550  39.230   6.750
 7627POPC   C3A42317  27.548  39.197   7.050
 7627POPC   C4A42318  27.621  39.268   7.350
 7627POPC   C1B42319  27.821  39.318   6.450
 7627POPC   C2B42320  27.786  39.358   6.750
 7627POPC   C3B42321  27.829  39.377   7.050
 7627POPC   C4B42322  27.770  39.397   7.350
 7628POPC   NC342323  29.180   2.732   5.550
 7628POPC   PO442324  29.151   2.807   5.850
 7628POPC   GL142325  29.117   2.751   6.150
 7628POPC   GL242326  29.064   2.647   6.150
 7628POPC   C1A42327  29.154   2.790   6.450
 7628POPC   D2A42328  29.117   2.731   6.750
 7628POPC   C3A42329  29.096   2.742   7.050
 7628POPC   C4A42330  29.128   2.720   7.350
 7628POPC   C1B42331  28.993   2.547   6.450
 7628POPC   C2B42332  28.955   2.580   6.750
 7628POPC   C3B42333  29.034   2.602   7.050
 7628POPC   C4B42334  28.984   2.577   7.350
 7629POPC   NC342335  42.336   2.728   5.550
 7629POPC   PO442336  42.299   2.784   5.850
 7629POPC   GL142337  42.384   2.761   6.150
 7629POPC   GL242338  42.211   2.890   6.150
 7629POPC   C1A42339  42.342   2.730   6.450
 7629POPC   D2A42340  42.376   2.814   6.750
 7629POPC   C3A42341  42.381   2.750   7.050
 7629POPC   C4A42342  42.350   2.752   7.350
 7629POPC   C1B42343  42.125   2.905   6.450
 7629POPC   C2B42344  42.160   2.906   6.750
 7629POPC   C3B42345  42.154   2.931   7.050
 7629POPC   C4B42346  42.192   2.919   7.350
 7630POPC   NC342347   7.452  17.483   5.550
 7630POPC   PO442348   7.371  17.472   5.850
 7630POPC   GL142349   7.444  17.507   6.150
 7630POPC   GL242350   7.496  17.364   6.150
 7630POPC   C1A42351   7.401  17.459   6.450
 7630POPC   D2A42352   7.371  17.468   6.750
 7630POPC   C3A42353   7.412  17.519   7.050
 7630POPC   C4A42354   7.439  17.475   7.350
 7630POPC   C1B42355   7.572  17.276   6.450
 7630POPC   C2B42356   7.545  17.246   6.750
 7630POPC   C3B42357   7.501  17.327   7.050
 7630POPC   C4B42358   7.554  17.276   7.350
 7631POPC   NC342359  20.599   5.125   5.550
 7631POPC   PO442360  20.624   5.058   5.850
 7631POPC   GL142361  20.573   5.087   6.150
 7631POPC   GL242362  20.527   5.229   6.150
 7631POPC   C1A42363  20.575   5.125   6.450
 7631POPC   D2A42364  20.652   5.064   6.750
 7631POPC   C3A42365  20.567   5.093   7.050
 7631POPC   C4A42366  20.582   5.109   7.350
 7631POPC   C1B42367  20.436   5.300   6.450
 7631POPC   C2B42368  20.423   5.257   6.750
 7631POPC   C3B42369  20.416   5.277   7.050
 7631POPC   C4B42370  20.413   5.300   7.350
 7632POPC   NC342371  39.271   5.823   5.550
 7632POPC   PO442372  39.203   5.827   5.850
 7632POPC   GL142373  39.191   5.825   6.150
 7632POPC   GL242374  39.276   5.766   6.150
 7632POPC   C1A42375  39.195   5.909   6.450
 7632POPC   D2A42376  39.184   5.897   6.750
 7632POPC   C3A42377  39.202   5.896   7.050
 7632POPC   C4A42378  39.273   5.859   7.350
 7632POPC   C1B42379  39.257   5.642   6.450
 7632POPC   C2B42380  39.272   5.653   6.750
 7632POPC   C3B42381  39.298   5.653   7.050
 7632POPC   C4B42382  39.340   5.661   7.350
 7633POPC   NC342383  14.368   1.210   5.550
 7633POPC   PO442384  14.427   1.194   5.850
 7633POPC   GL142385  14.385   1.226   6.150
 7633POPC   GL242386  14.526   1.134   6.150
 7633POPC   C1A42387  14.405   1.262   6.450
 7633POPC   D2A42388  14.448   1.222   6.750
 7633POPC   C3A42389  14.373   1.199   7.050
 7633POPC   C4A42390  14.382   1.190   7.350
 7633POPC   C1B42391  14.625   1.088   6.450
 7633POPC   C2B42392  14.632   1.077   6.750
 7633POPC   C3B42393  14.680   1.097   7.050
 7633POPC   C4B42394  14.666   1.159   7.350
 7634POPC   NC342395  24.533  39.231   5.550
 7634POPC   PO442396  24.504  39.189   5.850
 7634POPC   GL142397  24.451  39.188   6.150
 7634POPC   GL242398  24.572  39.092   6.150
 7634POPC   C1A42399  24.453  39.250   6.450
 7634POPC   D2A42400  24.518  39.223   6.750
 7634POPC   C3A42401  24.445  39.236   7.050
 7634POPC   C4A42402  24.516  39.192   7.350
 7634POPC   C1B42403  24.699  39.026   6.450
 7634POPC   C2B42404  24.653  39.047   6.750
 7634POPC   C3B42405  24.667  39.066   7.050
 7634POPC   C4B42406  24.643  39.067   7.350
 7635POPC   NC342407   0.417   5.849   5.550
 7635POPC   PO442408   0.419   5.853   5.850
 7635POPC   GL142409   0.444   5.865   6.150
 7635POPC   GL242410   0.454   5.717   6.150
 7635POPC   C1A42411   0.419   5.886   6.450
 7635POPC   D2A42412   0.404   5.864   6.750
 7635POPC   C3A42413   0.458   5.868   7.050
 7635POPC   C4A42414   0.415   5.904   7.350
 7635POPC   C1B42415   0.595   5.630   6.450
 7635POPC   C2B42416   0.525   5.651   6.750
 7635POPC   C3B42417   0.596   5.650   7.050
 7635POPC   C4B42418   0.570   5.600   7.350
 7636POPC   NC342419  10.556  36.899   5.550
 7636POPC   PO442420  10.510  36.953   5.850
 7636POPC   GL142421  10.479  36.890   6.150
 7636POPC   GL242422  10.575  37.011   6.150
 7636POPC   C1A42423  10.475  36.874   6.450
 7636POPC   D2A42424  10.489  36.946   6.750
 7636POPC   C3A42425  10.524  36.879   7.050
 7636POPC   C4A42426  10.559  36.915   7.350
 7636POPC   C1B42427  10.609  37.139   6.450
 7636POPC   C2B42428  10.618  37.125   6.750
 7636POPC   C3B42429  10.656  37.087   7.050
 7636POPC   C4B42430  10.643  37.152   7.350
 7637POPC   NC342431  31.484  17.533   5.550
 7637POPC   PO442432  31.509  17.515   5.850
 7637POPC   GL142433  31.434  17.522   6.150
 7637POPC   GL242434  31.339  17.541   6.150
 7637POPC   C1A42435  31.519  17.485   6.450
 7637POPC   D2A42436  31.431  17.514   6.750
 7637POPC   C3A42437  31.461  17.461   7.050
 7637POPC   C4A42438  31.471  17.513   7.350
 7637POPC   C1B42439  31.259  17.708   6.450
 7637POPC   C2B42440  31.282  17.637   6.750
 7637POPC   C3B42441  31.289  17.620   7.050
 7637POPC   C4B42442  31.327  17.674   7.350
 7638POPC   NC342443  25.311  26.852   5.550
 7638POPC   PO442444  25.276  26.856   5.850
 7638POPC   GL142445  25.289  26.821   6.150
 7638POPC   GL242446  25.340  26.858   6.150
 7638POPC   C1A42447  25.281  26.786   6.450
 7638POPC   D2A42448  25.298  26.845   6.750
 7638POPC   C3A42449  25.309  26.830   7.050
 7638POPC   C4A42450  25.251  26.815   7.350
 7638POPC   C1B42451  25.505  26.899   6.450
 7638POPC   C2B42452  25.441  26.904   6.750
 7638POPC   C3B42453  25.491  26.926   7.050
 7638POPC   C4B42454  25.460  26.904   7.350
 7639POPC   NC342455  43.865  18.250   5.550
 7639POPC   PO442456  43.933  18.268   5.850
 7639POPC   GL142457  43.867  18.260   6.150
 7639POPC   GL242458  43.757  18.218   6.150
 7639POPC   C1A42459  43.856  18.311   6.450
 7639POPC   D2A42460  43.927  18.303   6.750
 7639POPC   C3A42461  43.913  18.235   7.050
 7639POPC   C4A42462  43.936  18.307   7.350
 7639POPC   C1B42463  43.611  18.173   6.450
 7639POPC   C2B42464  43.622  18.174   6.750
 7639POPC   C3B42465  43.655  18.187   7.050
 7639POPC   C4B42466  43.635  18.221   7.350
 7640POPC   NC342467  16.753   0.473   5.550
 7640POPC   PO442468  16.681   0.478   5.850
 7640POPC   GL142469  16.772   0.455   6.150
 7640POPC   GL242470  16.809   0.312   6.150
 7640POPC   C1A42471  16.729   0.466   6.450
 7640POPC   D2A42472  16.757   0.434   6.750
 7640POPC   C3A42473  16.780   0.460   7.050
 7640POPC   C4A42474  16.718   0.455   7.350
 7640POPC   C1B42475  16.879   0.231   6.450
 7640POPC   C2B42476  16.895   0.284   6.750
 7640POPC   C3B42477  16.830   0.192   7.050
 7640POPC   C4B42478  16.846   0.277   7.350
 7641POPC   NC342479  38.491  12.896   5.550
 7641POPC   PO442480  38.446  12.828   5.850
 7641POPC   GL142481  38.497  12.815   6.150
 7641POPC   GL242482  38.483  12.741   6.150
 7641POPC   C1A42483  38.477  12.832   6.450
 7641POPC   D2A42484  38.411  12.882   6.750
 7641POPC   C3A42485  38.440  12.891   7.050
 7641POPC   C4A42486  38.455  12.858   7.350
 7641POPC   C1B42487  38.511  12.593   6.450
 7641POPC   C2B42488  38.499  12.625   6.750
 7641POPC   C3B42489  38.494  12.640   7.050
 7641POPC   C4B42490  38.528  12.603   7.350
 7642POPC   NC342491  10.552   5.821   5.550
 7642POPC   PO442492  10.480   5.860   5.850
 7642POPC   GL142493  10.533   5.905   6.150
 7642POPC   GL242494  10.494   6.016   6.150
 7642POPC   C1A42495  10.486   5.832   6.450
 7642POPC   D2A42496  10.518   5.861   6.750
 7642POPC   C3A42497  10.520   5.880   7.050
 7642POPC   C4A42498  10.502   5.915   7.350
 7642POPC   C1B42499  10.467   6.106   6.450
 7642POPC   C2B42500  10.502   6.133   6.750
 7642POPC   C3B42501  10.482   6.142   7.050
 7642POPC   C4B42502  10.476   6.146   7.350
 7643POPC   NC342503  18.306  36.111   5.550
 7643POPC   PO442504  18.255  36.162   5.850
 7643POPC   GL142505  18.305  36.112   6.150
 7643POPC   GL242506  18.338  36.206   6.150
 7643POPC   C1A42507  18.277  36.128   6.450
 7643POPC   D2A42508  18.266  36.079   6.750
 7643POPC   C3A42509  18.270  36.132   7.050
 7643POPC   C4A42510  18.260  36.118   7.350
 7643POPC   C1B42511  18.464  36.295   6.450
 7643POPC   C2B42512  18.516  36.303   6.750
 7643POPC   C3B42513  18.524  36.226   7.050
 7643POPC   C4B42514  18.474  36.273   7.350
 7644POPC   NC342515  43.091  19.845   5.550
 7644POPC   PO442516  43.113  19.793   5.850
 7644POPC   GL142517  43.087  19.879   6.150
 7644POPC   GL242518  43.066  19.923   6.150
 7644POPC   C1A42519  43.079  19.857   6.450
 7644POPC   D2A42520  43.146  19.877   6.750
 7644POPC   C3A42521  43.160  19.814   7.050
 7644POPC   C4A42522  43.083  19.869   7.350
 7644POPC   C1B42523  43.113  20.099   6.450
 7644POPC   C2B42524  43.098  20.077   6.750
 7644POPC   C3B42525  43.102  20.125   7.050
 7644POPC   C4B42526  43.085  20.060   7.350
 7645POPC   NC342527  18.254   0.435   5.550
 7645POPC   PO442528  18.250   0.481   5.850
 7645POPC   GL142529  18.302   0.390   6.150
 7645POPC   GL242530  18.424   0.409   6.150
 7645POPC   C1A42531  18.305   0.416   6.450
 7645POPC   D2A42532  18.284   0.443   6.750
 7645POPC   C3A42533  18.320   0.410   7.050
 7645POPC   C4A42534  18.316   0.457   7.350
 7645POPC   C1B42535  18.571   0.414   6.450
 7645POPC   C2B42536  18.557   0.405   6.750
 7645POPC   C3B42537  18.525   0.365   7.050
 7645POPC   C4B42538  18.489   0.410   7.350
 7646POPC   NC342539  13.598  14.410   5.550
 7646POPC   PO442540  13.595  14.378   5.850
 7646POPC   GL142541  13.597  14.445   6.150
 7646POPC   GL242542  13.724  14.289   6.150
 7646POPC   C1A42543  13.661  14.364   6.450
 7646POPC   D2A42544  13.593  14.387   6.750
 7646POPC   C3A42545  13.596  14.382   7.050
 7646POPC   C4A42546  13.620  14.403   7.350
 7646POPC   C1B42547  13.717  14.202   6.450
 7646POPC   C2B42548  13.726  14.195   6.750
 7646POPC   C3B42549  13.724  14.167   7.050
 7646POPC   C4B42550  13.691  14.147   7.350
 7647POPC   NC342551   1.172  20.631   5.550
 7647POPC   PO442552   1.231  20.572   5.850
 7647POPC   GL142553   1.192  20.596   6.150
 7647POPC   GL242554   1.279  20.562   6.150
 7647POPC   C1A42555   1.236  20.602   6.450
 7647POPC   D2A42556   1.194  20.619   6.750
 7647POPC   C3A42557   1.255  20.636   7.050
 7647POPC   C4A42558   1.180  20.610   7.350
 7647POPC   C1B42559   1.360  20.455   6.450
 7647POPC   C2B42560   1.355  20.431   6.750
 7647POPC   C3B42561   1.369  20.398   7.050
 7647POPC   C4B42562   1.407  20.452   7.350
 7648POPC   NC342563  39.234   5.071   5.550
 7648POPC   PO442564  39.226   5.055   5.850
 7648POPC   GL142565  39.264   5.079   6.150
 7648POPC   GL242566  39.271   4.986   6.150
 7648POPC   C1A42567  39.186   5.053   6.450
 7648POPC   D2A42568  39.230   5.136   6.750
 7648POPC   C3A42569  39.218   5.134   7.050
 7648POPC   C4A42570  39.253   5.137   7.350
 7648POPC   C1B42571  39.429   4.874   6.450
 7648POPC   C2B42572  39.373   4.870   6.750
 7648POPC   C3B42573  39.454   4.937   7.050
 7648POPC   C4B42574  39.375   4.938   7.350
 7649POPC   NC342575   9.791  23.730   5.550
 7649POPC   PO442576   9.795  23.691   5.850
 7649POPC   GL142577   9.741  23.736   6.150
 7649POPC   GL242578   9.753  23.547   6.150
 7649POPC   C1A42579   9.718  23.685   6.450
 7649POPC   D2A42580   9.706  23.687   6.750
 7649POPC   C3A42581   9.755  23.703   7.050
 7649POPC   C4A42582   9.779  23.719   7.350
 7649POPC   C1B42583   9.662  23.467   6.450
 7649POPC   C2B42584   9.681  23.427   6.750
 7649POPC   C3B42585   9.677  23.448   7.050
 7649POPC   C4B42586   9.719  23.493   7.350
 7650POPC   NC342587  26.076   3.567   5.550
 7650POPC   PO442588  25.995   3.586   5.850
 7650POPC   GL142589  26.077   3.518   6.150
 7650POPC   GL242590  25.990   3.703   6.150
 7650POPC   C1A42591  26.021   3.570   6.450
 7650POPC   D2A42592  26.059   3.504   6.750
 7650POPC   C3A42593  26.047   3.560   7.050
 7650POPC   C4A42594  26.034   3.526   7.350
 7650POPC   C1B42595  26.019   3.823   6.450
 7650POPC   C2B42596  26.049   3.837   6.750
 7650POPC   C3B42597  26.046   3.797   7.050
 7650POPC   C4B42598  26.066   3.741   7.350
 7651POPC   NC342599  32.983  23.683   5.550
 7651POPC   PO442600  33.026  23.700   5.850
 7651POPC   GL142601  33.012  23.688   6.150
 7651POPC   GL242602  33.044  23.877   6.150
 7651POPC   C1A42603  33.009  23.686   6.450
 7651POPC   D2A42604  32.999  23.735   6.750
 7651POPC   C3A42605  33.030  23.670   7.050
 7651POPC   C4A42606  33.003  23.713   7.350
 7651POPC   C1B42607  33.118  23.917   6.450
 7651POPC   C2B42608  33.147  23.949   6.750
 7651POPC   C3B42609  33.126  23.931   7.050
 7651POPC   C4B42610  33.117  23.967   7.350
 7652POPC   NC342611  43.851  33.010   5.550
 7652POPC   PO442612  43.852  32.975   5.850
 7652POPC   GL142613  43.920  33.060   6.150
 7652POPC   GL242614  43.909  32.863   6.150
 7652POPC   C1A42615  43.845  33.067   6.450
 7652POPC   D2A42616  43.929  33.043   6.750
 7652POPC   C3A42617  43.845  33.000   7.050
 7652POPC   C4A42618  43.860  33.037   7.350
 7652POPC   C1B42619  43.911  32.801   6.450
 7652POPC   C2B42620  43.949  32.807   6.750
 7652POPC   C3B42621  43.915  32.793   7.050
 7652POPC   C4B42622  43.960  32.810   7.350
 7653POPC   NC342623  15.912   5.075   5.550
 7653POPC   PO442624  15.985   5.095   5.850
 7653POPC   GL142625  15.979   5.103   6.150
 7653POPC   GL242626  16.087   5.083   6.150
 7653POPC   C1A42627  15.995   5.131   6.450
 7653POPC   D2A42628  15.943   5.085   6.750
 7653POPC   C3A42629  15.939   5.133   7.050
 7653POPC   C4A42630  15.964   5.126   7.350
 7653POPC   C1B42631  16.156   5.154   6.450
 7653POPC   C2B42632  16.253   5.120   6.750
 7653POPC   C3B42633  16.186   5.135   7.050
 7653POPC   C4B42634  16.213   5.117   7.350
 7654POPC   NC342635  20.589  37.641   5.550
 7654POPC   PO442636  20.639  37.699   5.850
 7654POPC   GL142637  20.600  37.722   6.150
 7654POPC   GL242638  20.719  37.739   6.150
 7654POPC   C1A42639  20.626  37.727   6.450
 7654POPC   D2A42640  20.568  37.631   6.750
 7654POPC   C3A42641  20.626  37.690   7.050
 7654POPC   C4A42642  20.640  37.722   7.350
 7654POPC   C1B42643  20.797  37.913   6.450
 7654POPC   C2B42644  20.757  37.892   6.750
 7654POPC   C3B42645  20.804  37.857   7.050
 7654POPC   C4B42646  20.754  37.874   7.350
 7655POPC   NC342647  22.982  35.371   5.550
 7655POPC   PO442648  22.890  35.315   5.850
 7655POPC   GL142649  22.895  35.383   6.150
 7655POPC   GL242650  23.029  35.217   6.150
 7655POPC   C1A42651  22.952  35.302   6.450
 7655POPC   D2A42652  22.974  35.361   6.750
 7655POPC   C3A42653  22.978  35.344   7.050
 7655POPC   C4A42654  22.900  35.322   7.350
 7655POPC   C1B42655  23.073  35.128   6.450
 7655POPC   C2B42656  23.106  35.118   6.750
 7655POPC   C3B42657  23.124  35.166   7.050
 7655POPC   C4B42658  23.072  35.153   7.350
 7656POPC   NC342659   7.420  39.270   5.550
 7656POPC   PO442660   7.389  39.204   5.850
 7656POPC   GL142661   7.435  39.252   6.150
 7656POPC   GL242662   7.410  39.381   6.150
 7656POPC   C1A42663   7.429  39.255   6.450
 7656POPC   D2A42664   7.399  39.267   6.750
 7656POPC   C3A42665   7.396  39.242   7.050
 7656POPC   C4A42666   7.443  39.243   7.350
 7656POPC   C1B42667   7.406  39.487   6.450
 7656POPC   C2B42668   7.336  39.431   6.750
 7656POPC   C3B42669   7.359  39.439   7.050
 7656POPC   C4B42670   7.400  39.462   7.350
 7657POPC   NC342671  43.090  12.074   5.550
 7657POPC   PO442672  43.097  12.050   5.850
 7657POPC   GL142673  43.154  12.050   6.150
 7657POPC   GL242674  43.144  12.183   6.150
 7657POPC   C1A42675  43.073  12.036   6.450
 7657POPC   D2A42676  43.069  12.122   6.750
 7657POPC   C3A42677  43.096  12.050   7.050
 7657POPC   C4A42678  43.101  12.118   7.350
 7657POPC   C1B42679  43.276  12.312   6.450
 7657POPC   C2B42680  43.270  12.258   6.750
 7657POPC   C3B42681  43.305  12.256   7.050
 7657POPC   C4B42682  43.297  12.290   7.350
 7658POPC   NC342683  11.279   0.455   5.550
 7658POPC   PO442684  11.256   0.462   5.850
 7658POPC   GL142685  11.341   0.460   6.150
 7658POPC   GL242686  11.197   0.347   6.150
 7658POPC   C1A42687  11.265   0.390   6.450
 7658POPC   D2A42688  11.339   0.417   6.750
 7658POPC   C3A42689  11.316   0.452   7.050
 7658POPC   C4A42690  11.286   0.466   7.350
 7658POPC   C1B42691  11.175   0.240   6.450
 7658POPC   C2B42692  11.163   0.227   6.750
 7658POPC   C3B42693  11.132   0.213   7.050
 7658POPC   C4B42694  11.230   0.264   7.350
 7659POPC   NC342695  40.753   7.440   5.550
 7659POPC   PO442696  40.828   7.373   5.850
 7659POPC   GL142697  40.775   7.389   6.150
 7659POPC   GL242698  40.700   7.516   6.150
 7659POPC   C1A42699  40.808   7.447   6.450
 7659POPC   D2A42700  40.815   7.457   6.750
 7659POPC   C3A42701  40.742   7.396   7.050
 7659POPC   C4A42702  40.797   7.454   7.350
 7659POPC   C1B42703  40.689   7.660   6.450
 7659POPC   C2B42704  40.647   7.640   6.750
 7659POPC   C3B42705  40.596   7.624   7.050
 7659POPC   C4B42706  40.607   7.636   7.350
 7660POPC   NC342707   4.321  42.287   5.550
 7660POPC   PO442708   4.284  42.324   5.850
 7660POPC   GL142709   4.316  42.336   6.150
 7660POPC   GL242710   4.367  42.244   6.150
 7660POPC   C1A42711   4.367  42.374   6.450
 7660POPC   D2A42712   4.270  42.356   6.750
 7660POPC   C3A42713   4.314  42.342   7.050
 7660POPC   C4A42714   4.303  42.317   7.350
 7660POPC   C1B42715   4.342  42.103   6.450
 7660POPC   C2B42716   4.386  42.054   6.750
 7660POPC   C3B42717   4.328  42.076   7.050
 7660POPC   C4B42718   4.364  42.057   7.350
 7661POPC   NC342719  10.490  27.597   5.550
 7661POPC   PO442720  10.548  27.617   5.850
 7661POPC   GL142721  10.507  27.565   6.150
 7661POPC   GL242722  10.600  27.576   6.150
 7661POPC   C1A42723  10.561  27.613   6.450
 7661POPC   D2A42724  10.486  27.608   6.750
 7661POPC   C3A42725  10.569  27.599   7.050
 7661POPC   C4A42726  10.509  27.558   7.350
 7661POPC   C1B42727  10.710  27.507   6.450
 7661POPC   C2B42728  10.756  27.460   6.750
 7661POPC   C3B42729  10.732  27.483   7.050
 7661POPC   C4B42730  10.742  27.510   7.350
 7662POPC   NC342731  27.620  43.921   5.550
 7662POPC   PO442732  27.611  43.855   5.850
 7662POPC   GL142733  27.577  43.934   6.150
 7662POPC   GL242734  27.738  43.955   6.150
 7662POPC   C1A42735  27.583  43.870   6.450
 7662POPC   D2A42736  27.604  43.839   6.750
 7662POPC   C3A42737  27.621  43.879   7.050
 7662POPC   C4A42738  27.592  43.919   7.350
 7662POPC   C1B42739  27.805  43.982   6.450
 7662POPC   C2B42740  27.849  43.989   6.750
 7662POPC   C3B42741  27.850  44.038   7.050
 7662POPC   C4B42742  27.809  44.046   7.350
 7663POPC   NC342743  20.639   4.356   5.550
 7663POPC   PO442744  20.574   4.293   5.850
 7663POPC   GL142745  20.659   4.298   6.150
 7663POPC   GL242746  20.512   4.262   6.150
 7663POPC   C1A42747  20.656   4.268   6.450
 7663POPC   D2A42748  20.561   4.277   6.750
 7663POPC   C3A42749  20.641   4.346   7.050
 7663POPC   C4A42750  20.633   4.345   7.350
 7663POPC   C1B42751  20.359   4.197   6.450
 7663POPC   C2B42752  20.376   4.273   6.750
 7663POPC   C3B42753  20.415   4.226   7.050
 7663POPC   C4B42754  20.382   4.214   7.350
 7664POPC   NC342755  26.029  15.137   5.550
 7664POPC   PO442756  26.073  15.196   5.850
 7664POPC   GL142757  26.022  15.133   6.150
 7664POPC   GL242758  26.197  15.249   6.150
 7664POPC   C1A42759  26.082  15.209   6.450
 7664POPC   D2A42760  26.072  15.140   6.750
 7664POPC   C3A42761  26.021  15.157   7.050
 7664POPC   C4A42762  26.005  15.141   7.350
 7664POPC   C1B42763  26.292  15.253   6.450
 7664POPC   C2B42764  26.319  15.226   6.750
 7664POPC   C3B42765  26.249  15.226   7.050
 7664POPC   C4B42766  26.233  15.246   7.350
 7665POPC   NC342767   5.066  38.504   5.550
 7665POPC   PO442768   5.131  38.410   5.850
 7665POPC   GL142769   5.070  38.484   6.150
 7665POPC   GL242770   5.038  38.356   6.150
 7665POPC   C1A42771   5.135  38.475   6.450
 7665POPC   D2A42772   5.130  38.431   6.750
 7665POPC   C3A42773   5.044  38.473   7.050
 7665POPC   C4A42774   5.115  38.406   7.350
 7665POPC   C1B42775   4.936  38.255   6.450
 7665POPC   C2B42776   4.887  38.233   6.750
 7665POPC   C3B42777   4.923  38.255   7.050
 7665POPC   C4B42778   4.892  38.272   7.350
 7666POPC   NC342779   1.210  17.539   5.550
 7666POPC   PO442780   1.219  17.512   5.850
 7666POPC   GL142781   1.236  17.547   6.150
 7666POPC   GL242782   1.208  17.338   6.150
 7666POPC   C1A42783   1.196  17.499   6.450
 7666POPC   D2A42784   1.259  17.524   6.750
 7666POPC   C3A42785   1.235  17.513   7.050
 7666POPC   C4A42786   1.217  17.471   7.350
 7666POPC   C1B42787   1.188  17.218   6.450
 7666POPC   C2B42788   1.218  17.211   6.750
 7666POPC   C3B42789   1.219  17.268   7.050
 7666POPC   C4B42790   1.236  17.294   7.350
 7667POPC   NC342791   5.105   5.055   5.550
 7667POPC   PO442792   5.082   5.077   5.850
 7667POPC   GL142793   5.084   5.138   6.150
 7667POPC   GL242794   5.009   5.223   6.150
 7667POPC   C1A42795   5.064   5.082   6.450
 7667POPC   D2A42796   5.080   5.139   6.750
 7667POPC   C3A42797   5.127   5.104   7.050
 7667POPC   C4A42798   5.062   5.102   7.350
 7667POPC   C1B42799   5.017   5.326   6.450
 7667POPC   C2B42800   5.001   5.348   6.750
 7667POPC   C3B42801   5.026   5.383   7.050
 7667POPC   C4B42802   5.007   5.327   7.350
 7668POPC   NC342803  37.667  28.417   5.550
 7668POPC   PO442804  37.677  28.342   5.850
 7668POPC   GL142805  37.689  28.370   6.150
 7668POPC   GL242806  37.759  28.261   6.150
 7668POPC   C1A42807  37.669  28.408   6.450
 7668POPC   D2A42808  37.708  28.325   6.750
 7668POPC   C3A42809  37.676  28.385   7.050
 7668POPC   C4A42810  37.725  28.380   7.350
 7668POPC   C1B42811  37.925  28.275   6.450
 7668POPC   C2B42812  37.882  28.221   6.750
 7668POPC   C3B42813  37.918  28.277   7.050
 7668POPC   C4B42814  37.875  28.236   7.350
 7669POPC   NC342815  15.959  35.345   5.550
 7669POPC   PO442816  15.998  35.363   5.850
 7669POPC   GL142817  15.919  35.320   6.150
 7669POPC   GL242818  15.834  35.405   6.150
 7669POPC   C1A42819  15.985  35.335   6.450
 7669POPC   D2A42820  15.998  35.310   6.750
 7669POPC   C3A42821  15.909  35.355   7.050
 7669POPC   C4A42822  16.001  35.313   7.350
 7669POPC   C1B42823  15.720  35.450   6.450
 7669POPC   C2B42824  15.704  35.439   6.750
 7669POPC   C3B42825  15.715  35.470   7.050
 7669POPC   C4B42826  15.737  35.423   7.350
 7670POPC   NC342827  40.814  27.618   5.550
 7670POPC   PO442828  40.768  27.555   5.850
 7670POPC   GL142829  40.773  27.564   6.150
 7670POPC   GL242830  40.823  27.522   6.150
 7670POPC   C1A42831  40.764  27.632   6.450
 7670POPC   D2A42832  40.740  27.557   6.750
 7670POPC   C3A42833  40.814  27.612   7.050
 7670POPC   C4A42834  40.794  27.620   7.350
 7670POPC   C1B42835  40.943  27.403   6.450
 7670POPC   C2B42836  40.964  27.363   6.750
 7670POPC   C3B42837  40.956  27.357   7.050
 7670POPC   C4B42838  40.988  27.368   7.350
 7671POPC   NC342839   2.770  15.204   5.550
 7671POPC   PO442840   2.721  15.176   5.850
 7671POPC   GL142841   2.753  15.191   6.150
 7671POPC   GL242842   2.708  15.108   6.150
 7671POPC   C1A42843   2.797  15.211   6.450
 7671POPC   D2A42844   2.796  15.141   6.750
 7671POPC   C3A42845   2.747  15.151   7.050
 7671POPC   C4A42846   2.719  15.153   7.350
 7671POPC   C1B42847   2.726  14.968   6.450
 7671POPC   C2B42848   2.718  14.939   6.750
 7671POPC   C3B42849   2.706  14.911   7.050
 7671POPC   C4B42850   2.702  14.911   7.350
 7672POPC   NC342851  30.698   5.061   5.550
 7672POPC   PO442852  30.704   5.130   5.850
 7672POPC   GL142853  30.677   5.118   6.150
 7672POPC   GL242854  30.786   5.038   6.150
 7672POPC   C1A42855  30.729   5.115   6.450
 7672POPC   D2A42856  30.729   5.116   6.750
 7672POPC   C3A42857  30.685   5.083   7.050
 7672POPC   C4A42858  30.672   5.075   7.350
 7672POPC   C1B42859  30.805   4.872   6.450
 7672POPC   C2B42860  30.864   4.943   6.750
 7672POPC   C3B42861  30.853   4.867   7.050
 7672POPC   C4B42862  30.904   4.855   7.350
 7673POPC   NC342863  41.512  28.374   5.550
 7673POPC   PO442864  41.607  28.416   5.850
 7673POPC   GL142865  41.521  28.397   6.150
 7673POPC   GL242866  41.487  28.305   6.150
 7673POPC   C1A42867  41.606  28.339   6.450
 7673POPC   D2A42868  41.532  28.348   6.750
 7673POPC   C3A42869  41.539  28.396   7.050
 7673POPC   C4A42870  41.580  28.354   7.350
 7673POPC   C1B42871  41.327  28.218   6.450
 7673POPC   C2B42872  41.349  28.278   6.750
 7673POPC   C3B42873  41.336  28.272   7.050
 7673POPC   C4B42874  41.334  28.286   7.350
 7674POPC   NC342875  19.852  39.957   5.550
 7674POPC   PO442876  19.807  39.987   5.850
 7674POPC   GL142877  19.854  39.994   6.150
 7674POPC   GL242878  19.696  40.047   6.150
 7674POPC   C1A42879  19.806  39.988   6.450
 7674POPC   D2A42880  19.833  39.985   6.750
 7674POPC   C3A42881  19.824  39.993   7.050
 7674POPC   C4A42882  19.801  39.976   7.350
 7674POPC   C1B42883  19.628  40.079   6.450
 7674POPC   C2B42884  19.594  40.027   6.750
 7674POPC   C3B42885  19.605  40.044   7.050
 7674POPC   C4B42886  19.597  40.063   7.350
 7675POPC   NC342887  12.046  19.018   5.550
 7675POPC   PO442888  12.102  19.012   5.850
 7675POPC   GL142889  12.111  19.081   6.150
 7675POPC   GL242890  11.989  18.968   6.150
 7675POPC   C1A42891  12.093  19.098   6.450
 7675POPC   D2A42892  12.041  19.100   6.750
 7675POPC   C3A42893  12.091  19.054   7.050
 7675POPC   C4A42894  12.102  19.065   7.350
 7675POPC   C1B42895  12.004  18.807   6.450
 7675POPC   C2B42896  11.975  18.815   6.750
 7675POPC   C3B42897  11.964  18.870   7.050
 7675POPC   C4B42898  11.952  18.831   7.350
 7676POPC   NC342899   5.875  22.206   5.550
 7676POPC   PO442900   5.830  22.189   5.850
 7676POPC   GL142901   5.874  22.142   6.150
 7676POPC   GL242902   5.995  22.037   6.150
 7676POPC   C1A42903   5.896  22.145   6.450
 7676POPC   D2A42904   5.887  22.187   6.750
 7676POPC   C3A42905   5.857  22.122   7.050
 7676POPC   C4A42906   5.824  22.172   7.350
 7676POPC   C1B42907   6.078  21.992   6.450
 7676POPC   C2B42908   6.078  22.040   6.750
 7676POPC   C3B42909   6.071  21.975   7.050
 7676POPC   C4B42910   6.086  21.994   7.350
 7677POPC   NC342911   5.127  33.008   5.550
 7677POPC   PO442912   5.137  33.057   5.850
 7677POPC   GL142913   5.131  33.002   6.150
 7677POPC   GL242914   5.002  32.937   6.150
 7677POPC   C1A42915   5.093  32.997   6.450
 7677POPC   D2A42916   5.115  32.976   6.750
 7677POPC   C3A42917   5.143  32.990   7.050
 7677POPC   C4A42918   5.134  33.067   7.350
 7677POPC   C1B42919   5.004  32.759   6.450
 7677POPC   C2B42920   4.966  32.823   6.750
 7677POPC   C3B42921   4.991  32.843   7.050
 7677POPC   C4B42922   5.024  32.821   7.350
 7678POPC   NC342923   8.980  27.546   5.550
 7678POPC   PO442924   8.983  27.595   5.850
 7678POPC   GL142925   8.959  27.634   6.150
 7678POPC   GL242926   8.941  27.503   6.150
 7678POPC   C1A42927   9.022  27.556   6.450
 7678POPC   D2A42928   9.003  27.553   6.750
 7678POPC   C3A42929   8.943  27.557   7.050
 7678POPC   C4A42930   9.014  27.628   7.350
 7678POPC   C1B42931   8.960  27.296   6.450
 7678POPC   C2B42932   8.982  27.319   6.750
 7678POPC   C3B42933   8.981  27.318   7.050
 7678POPC   C4B42934   8.970  27.305   7.350
 7679POPC   NC342935  25.281  27.581   5.550
 7679POPC   PO442936  25.226  27.559   5.850
 7679POPC   GL142937  25.259  27.570   6.150
 7679POPC   GL242938  25.158  27.621   6.150
 7679POPC   C1A42939  25.279  27.593   6.450
 7679POPC   D2A42940  25.231  27.631   6.750
 7679POPC   C3A42941  25.300  27.593   7.050
 7679POPC   C4A42942  25.259  27.622   7.350
 7679POPC   C1B42943  25.037  27.567   6.450
 7679POPC   C2B42944  25.042  27.538   6.750
 7679POPC   C3B42945  25.023  27.525   7.050
 7679POPC   C4B42946  25.024  27.570   7.350
 7680POPC   NC342947  41.589   5.140   5.550
 7680POPC   PO442948  41.541   5.095   5.850
 7680POPC   GL142949  41.564   5.108   6.150
 7680POPC   GL242950  41.475   5.129   6.150
 7680POPC   C1A42951  41.576   5.068   6.450
 7680POPC   D2A42952  41.536   5.056   6.750
 7680POPC   C3A42953  41.550   5.093   7.050
 7680POPC   C4A42954  41.516   5.053   7.350
 7680POPC   C1B42955  41.301   5.142   6.450
 7680POPC   C2B42956  41.290   5.145   6.750
 7680POPC   C3B42957  41.350   5.111   7.050
 7680POPC   C4B42958  41.309   5.166   7.350
 7681POPC   NC342959  32.248   0.424   5.550
 7681POPC   PO442960  32.213   0.478   5.850
 7681POPC   GL142961  32.270   0.425   6.150
 7681POPC   GL242962  32.345   0.336   6.150
 7681POPC   C1A42963  32.227   0.472   6.450
 7681POPC   D2A42964  32.238   0.427   6.750
 7681POPC   C3A42965  32.261   0.437   7.050
 7681POPC   C4A42966  32.260   0.391   7.350
 7681POPC   C1B42967  32.399   0.281   6.450
 7681POPC   C2B42968  32.461   0.249   6.750
 7681POPC   C3B42969  32.449   0.265   7.050
 7681POPC   C4B42970  32.381   0.225   7.350
 7682POPC   NC342971  29.912  14.399   5.550
 7682POPC   PO442972  29.950  14.388   5.850
 7682POPC   GL142973  29.938  14.411   6.150
 7682POPC   GL242974  29.992  14.287   6.150
 7682POPC   C1A42975  29.910  14.389   6.450
 7682POPC   D2A42976  29.927  14.380   6.750
 7682POPC   C3A42977  29.915  14.420   7.050
 7682POPC   C4A42978  29.928  14.414   7.350
 7682POPC   C1B42979  30.062  14.257   6.450
 7682POPC   C2B42980  30.029  14.193   6.750
 7682POPC   C3B42981  30.111  14.200   7.050
 7682POPC   C4B42982  30.072  14.160   7.350
 7683POPC   NC342983  15.194  41.569   5.550
 7683POPC   PO442984  15.161  41.524   5.850
 7683POPC   GL142985  15.214  41.584   6.150
 7683POPC   GL242986  15.251  41.621   6.150
 7683POPC   C1A42987  15.194  41.609   6.450
 7683POPC   D2A42988  15.172  41.562   6.750
 7683POPC   C3A42989  15.175  41.521   7.050
 7683POPC   C4A42990  15.157  41.564   7.350
 7683POPC   C1B42991  15.280  41.812   6.450
 7683POPC   C2B42992  15.265  41.772   6.750
 7683POPC   C3B42993  15.319  41.750   7.050
 7683POPC   C4B42994  15.266  41.735   7.350
 7684POPC   NC342995  34.599  28.343   5.550
 7684POPC   PO442996  34.556  28.350   5.850
 7684POPC   GL142997  34.546  28.404   6.150
 7684POPC   GL242998  34.715  28.363   6.150
 7684POPC   C1A42999  34.544  28.353   6.450
 7684POPC   D2A43000  34.580  28.400   6.750
 7684POPC   C3A43001  34.604  28.374   7.050
 7684POPC   C4A43002  34.552  28.380   7.350
 7684POPC   C1B43003  34.772  28.390   6.450
 7684POPC   C2B43004  34.814  28.443   6.750
 7684POPC   C3B43005  34.777  28.407   7.050
 7684POPC   C4B43006  34.864  28.471   7.350
 7685POPC   NC343007  35.310   7.401   5.550
 7685POPC   PO443008  35.381   7.399   5.850
 7685POPC   GL143009  35.391   7.405   6.150
 7685POPC   GL243010  35.359   7.544   6.150
 7685POPC   C1A43011  35.340   7.452   6.450
 7685POPC   D2A43012  35.358   7.408   6.750
 7685POPC   C3A43013  35.353   7.463   7.050
 7685POPC   C4A43014  35.332   7.436   7.350
 7685POPC   C1B43015  35.306   7.633   6.450
 7685POPC   C2B43016  35.268   7.627   6.750
 7685POPC   C3B43017  35.323   7.631   7.050
 7685POPC   C4B43018  35.232   7.640   7.350
 7686POPC   NC343019  30.706   1.220   5.550
 7686POPC   PO443020  30.739   1.262   5.850
 7686POPC   GL143021  30.704   1.177   6.150
 7686POPC   GL243022  30.780   1.252   6.150
 7686POPC   C1A43023  30.720   1.254   6.450
 7686POPC   D2A43024  30.713   1.190   6.750
 7686POPC   C3A43025  30.672   1.197   7.050
 7686POPC   C4A43026  30.722   1.256   7.350
 7686POPC   C1B43027  30.949   1.340   6.450
 7686POPC   C2B43028  30.952   1.341   6.750
 7686POPC   C3B43029  30.904   1.348   7.050
 7686POPC   C4B43030  30.943   1.340   7.350
 7687POPC   NC343031  36.883  35.349   5.550
 7687POPC   PO443032  36.921  35.388   5.850
 7687POPC   GL143033  36.916  35.312   6.150
 7687POPC   GL243034  36.998  35.425   6.150
 7687POPC   C1A43035  36.922  35.377   6.450
 7687POPC   D2A43036  36.895  35.361   6.750
 7687POPC   C3A43037  36.896  35.333   7.050
 7687POPC   C4A43038  36.860  35.392   7.350
 7687POPC   C1B43039  37.157  35.414   6.450
 7687POPC   C2B43040  37.159  35.388   6.750
 7687POPC   C3B43041  37.107  35.390   7.050
 7687POPC   C4B43042  37.117  35.411   7.350
 7688POPC   NC343043  37.632   4.326   5.550
 7688POPC   PO443044  37.669   4.322   5.850
 7688POPC   GL143045  37.673   4.310   6.150
 7688POPC   GL243046  37.798   4.358   6.150
 7688POPC   C1A43047  37.676   4.330   6.450
 7688POPC   D2A43048  37.669   4.286   6.750
 7688POPC   C3A43049  37.653   4.280   7.050
 7688POPC   C4A43050  37.689   4.336   7.350
 7688POPC   C1B43051  37.885   4.283   6.450
 7688POPC   C2B43052  37.932   4.378   6.750
 7688POPC   C3B43053  37.887   4.302   7.050
 7688POPC   C4B43054  37.978   4.337   7.350
 7689POPC   NC343055   5.864  23.762   5.550
 7689POPC   PO443056   5.848  23.752   5.850
 7689POPC   GL143057   5.902  23.670   6.150
 7689POPC   GL243058   5.781  23.775   6.150
 7689POPC   C1A43059   5.828  23.718   6.450
 7689POPC   D2A43060   5.897  23.745   6.750
 7689POPC   C3A43061   5.875  23.702   7.050
 7689POPC   C4A43062   5.833  23.750   7.350
 7689POPC   C1B43063   5.615  23.847   6.450
 7689POPC   C2B43064   5.649  23.771   6.750
 7689POPC   C3B43065   5.675  23.836   7.050
 7689POPC   C4B43066   5.653  23.796   7.350
 7690POPC   NC343067   1.176  27.578   5.550
 7690POPC   PO443068   1.180  27.620   5.850
 7690POPC   GL143069   1.172  27.628   6.150
 7690POPC   GL243070   1.091  27.592   6.150
 7690POPC   C1A43071   1.240  27.641   6.450
 7690POPC   D2A43072   1.233  27.570   6.750
 7690POPC   C3A43073   1.208  27.552   7.050
 7690POPC   C4A43074   1.177  27.601   7.350
 7690POPC   C1B43075   0.982  27.562   6.450
 7690POPC   C2B43076   1.020  27.570   6.750
 7690POPC   C3B43077   1.003  27.553   7.050
 7690POPC   C4B43078   0.930  27.537   7.350
 7691POPC   NC343079  17.543   0.436   5.550
 7691POPC   PO443080  17.474   0.472   5.850
 7691POPC   GL143081  17.459   0.401   6.150
 7691POPC   GL243082  17.547   0.558   6.150
 7691POPC   C1A43083  17.510   0.411   6.450
 7691POPC   D2A43084  17.465   0.398   6.750
 7691POPC   C3A43085  17.479   0.404   7.050
 7691POPC   C4A43086  17.528   0.477   7.350
 7691POPC   C1B43087  17.544   0.648   6.450
 7691POPC   C2B43088  17.504   0.648   6.750
 7691POPC   C3B43089  17.496   0.731   7.050
 7691POPC   C4B43090  17.550   0.673   7.350
 7692POPC   NC343091  28.346  36.159   5.550
 7692POPC   PO443092  28.407  36.110   5.850
 7692POPC   GL143093  28.320  36.080   6.150
 7692POPC   GL243094  28.467  36.081   6.150
 7692POPC   C1A43095  28.377  36.169   6.450
 7692POPC   D2A43096  28.412  36.151   6.750
 7692POPC   C3A43097  28.392  36.157   7.050
 7692POPC   C4A43098  28.334  36.091   7.350
 7692POPC   C1B43099  28.594  36.034   6.450
 7692POPC   C2B43100  28.583  35.964   6.750
 7692POPC   C3B43101  28.614  36.025   7.050
 7692POPC   C4B43102  28.607  35.986   7.350
 7693POPC   NC343103  34.616  30.745   5.550
 7693POPC   PO443104  34.584  30.713   5.850
 7693POPC   GL143105  34.597  30.722   6.150
 7693POPC   GL243106  34.516  30.803   6.150
 7693POPC   C1A43107  34.567  30.729   6.450
 7693POPC   D2A43108  34.615  30.714   6.750
 7693POPC   C3A43109  34.617  30.738   7.050
 7693POPC   C4A43110  34.540  30.703   7.350
 7693POPC   C1B43111  34.385  30.910   6.450
 7693POPC   C2B43112  34.420  30.846   6.750
 7693POPC   C3B43113  34.449  30.894   7.050
 7693POPC   C4B43114  34.450  30.864   7.350
 7694POPC   NC343115  42.302  10.522   5.550
 7694POPC   PO443116  42.376  10.475   5.850
 7694POPC   GL143117  42.330  10.513   6.150
 7694POPC   GL243118  42.498  10.562   6.150
 7694POPC   C1A43119  42.324  10.530   6.450
 7694POPC   D2A43120  42.295  10.499   6.750
 7694POPC   C3A43121  42.321  10.513   7.050
 7694POPC   C4A43122  42.363  10.487   7.350
 7694POPC   C1B43123  42.606  10.609   6.450
 7694POPC   C2B43124  42.584  10.544   6.750
 7694POPC   C3B43125  42.586  10.575   7.050
 7694POPC   C4B43126  42.536  10.532   7.350
 7695POPC   NC343127   4.325  25.283   5.550
 7695POPC   PO443128   4.329  25.285   5.850
 7695POPC   GL143129   4.281  25.225   6.150
 7695POPC   GL243130   4.402  25.108   6.150
 7695POPC   C1A43131   4.273  25.248   6.450
 7695POPC   D2A43132   4.355  25.292   6.750
 7695POPC   C3A43133   4.325  25.294   7.050
 7695POPC   C4A43134   4.301  25.283   7.350
 7695POPC   C1B43135   4.404  25.000   6.450
 7695POPC   C2B43136   4.390  25.002   6.750
 7695POPC   C3B43137   4.380  25.009   7.050
 7695POPC   C4B43138   4.444  25.068   7.350
 7696POPC   NC343139  10.550   1.970   5.550
 7696POPC   PO443140  10.500   1.949   5.850
 7696POPC   GL143141  10.488   1.997   6.150
 7696POPC   GL243142  10.566   1.854   6.150
 7696POPC   C1A43143  10.477   1.946   6.450
 7696POPC   D2A43144  10.572   2.018   6.750
 7696POPC   C3A43145  10.517   2.040   7.050
 7696POPC   C4A43146  10.477   2.014   7.350
 7696POPC   C1B43147  10.677   1.725   6.450
 7696POPC   C2B43148  10.645   1.778   6.750
 7696POPC   C3B43149  10.641   1.777   7.050
 7696POPC   C4B43150  10.680   1.749   7.350
 7697POPC   NC343151  38.468  40.801   5.550
 7697POPC   PO443152  38.427  40.801   5.850
 7697POPC   GL143153  38.411  40.757   6.150
 7697POPC   GL243154  38.534  40.924   6.150
 7697POPC   C1A43155  38.447  40.771   6.450
 7697POPC   D2A43156  38.456  40.774   6.750
 7697POPC   C3A43157  38.446  40.809   7.050
 7697POPC   C4A43158  38.439  40.762   7.350
 7697POPC   C1B43159  38.620  40.951   6.450
 7697POPC   C2B43160  38.655  40.949   6.750
 7697POPC   C3B43161  38.649  41.008   7.050
 7697POPC   C4B43162  38.626  40.994   7.350
 7698POPC   NC343163  39.197   6.620   5.550
 7698POPC   PO443164  39.190   6.603   5.850
 7698POPC   GL143165  39.239   6.643   6.150
 7698POPC   GL243166  39.138   6.531   6.150
 7698POPC   C1A43167  39.189   6.622   6.450
 7698POPC   D2A43168  39.243   6.685   6.750
 7698POPC   C3A43169  39.182   6.597   7.050
 7698POPC   C4A43170  39.240   6.677   7.350
 7698POPC   C1B43171  39.132   6.440   6.450
 7698POPC   C2B43172  39.155   6.381   6.750
 7698POPC   C3B43173  39.149   6.418   7.050
 7698POPC   C4B43174  39.161   6.445   7.350
 7699POPC   NC343175  36.171  21.358   5.550
 7699POPC   PO443176  36.110  21.434   5.850
 7699POPC   GL143177  36.145  21.361   6.150
 7699POPC   GL243178  36.113  21.527   6.150
 7699POPC   C1A43179  36.151  21.343   6.450
 7699POPC   D2A43180  36.118  21.432   6.750
 7699POPC   C3A43181  36.130  21.346   7.050
 7699POPC   C4A43182  36.092  21.365   7.350
 7699POPC   C1B43183  36.130  21.628   6.450
 7699POPC   C2B43184  36.079  21.625   6.750
 7699POPC   C3B43185  36.119  21.661   7.050
 7699POPC   C4B43186  36.075  21.682   7.350
 7700POPC   NC343187  16.752  35.305   5.550
 7700POPC   PO443188  16.709  35.315   5.850
 7700POPC   GL143189  16.683  35.350   6.150
 7700POPC   GL243190  16.684  35.256   6.150
 7700POPC   C1A43191  16.722  35.359   6.450
 7700POPC   D2A43192  16.702  35.389   6.750
 7700POPC   C3A43193  16.684  35.395   7.050
 7700POPC   C4A43194  16.728  35.349   7.350
 7700POPC   C1B43195  16.623  35.188   6.450
 7700POPC   C2B43196  16.559  35.139   6.750
 7700POPC   C3B43197  16.625  35.106   7.050
 7700POPC   C4B43198  16.561  35.116   7.350
 7701POPC   NC343199   9.712  37.636   5.550
 7701POPC   PO443200   9.750  37.633   5.850
 7701POPC   GL143201   9.772  37.694   6.150
 7701POPC   GL243202   9.786  37.787   6.150
 7701POPC   C1A43203   9.792  37.649   6.450
 7701POPC   D2A43204   9.723  37.728   6.750
 7701POPC   C3A43205   9.772  37.666   7.050
 7701POPC   C4A43206   9.742  37.643   7.350
 7701POPC   C1B43207   9.882  37.838   6.450
 7701POPC   C2B43208   9.942  37.927   6.750
 7701POPC   C3B43209   9.869  37.894   7.050
 7701POPC   C4B43210   9.883  37.904   7.350
 7702POPC   NC343211  22.942   1.943   5.550
 7702POPC   PO443212  22.909   1.983   5.850
 7702POPC   GL143213  22.977   2.009   6.150
 7702POPC   GL243214  22.890   1.882   6.150
 7702POPC   C1A43215  22.945   1.959   6.450
 7702POPC   D2A43216  22.962   2.035   6.750
 7702POPC   C3A43217  22.924   2.008   7.050
 7702POPC   C4A43218  22.944   1.960   7.350
 7702POPC   C1B43219  22.930   1.760   6.450
 7702POPC   C2B43220  22.893   1.754   6.750
 7702POPC   C3B43221  22.965   1.774   7.050
 7702POPC   C4B43222  22.978   1.774   7.350
 7703POPC   NC343223  19.033   2.010   5.550
 7703POPC   PO443224  19.075   1.947   5.850
 7703POPC   GL143225  19.045   1.990   6.150
 7703POPC   GL243226  19.215   1.947   6.150
 7703POPC   C1A43227  19.094   2.026   6.450
 7703POPC   D2A43228  19.031   1.974   6.750
 7703POPC   C3A43229  19.078   2.003   7.050
 7703POPC   C4A43230  19.095   2.033   7.350
 7703POPC   C1B43231  19.296   1.890   6.450
 7703POPC   C2B43232  19.323   1.872   6.750
 7703POPC   C3B43233  19.232   1.843   7.050
 7703POPC   C4B43234  19.299   1.864   7.350
 7704POPC   NC343235  30.721  25.218   5.550
 7704POPC   PO443236  30.712  25.222   5.850
 7704POPC   GL143237  30.667  25.244   6.150
 7704POPC   GL243238  30.825  25.235   6.150
 7704POPC   C1A43239  30.701  25.245   6.450
 7704POPC   D2A43240  30.666  25.279   6.750
 7704POPC   C3A43241  30.695  25.254   7.050
 7704POPC   C4A43242  30.736  25.310   7.350
 7704POPC   C1B43243  30.967  25.267   6.450
 7704POPC   C2B43244  30.958  25.205   6.750
 7704POPC   C3B43245  30.937  25.256   7.050
 7704POPC   C4B43246  30.911  25.227   7.350
 7705POPC   NC343247  13.599  19.037   5.550
 7705POPC   PO443248  13.650  19.025   5.850
 7705POPC   GL143249  13.607  19.089   6.150
 7705POPC   GL243250  13.719  19.129   6.150
 7705POPC   C1A43251  13.597  19.101   6.450
 7705POPC   D2A43252  13.652  19.101   6.750
 7705POPC   C3A43253  13.616  19.090   7.050
 7705POPC   C4A43254  13.642  19.077   7.350
 7705POPC   C1B43255  13.725  19.244   6.450
 7705POPC   C2B43256  13.775  19.239   6.750
 7705POPC   C3B43257  13.744  19.259   7.050
 7705POPC   C4B43258  13.739  19.270   7.350
 7706POPC   NC343259  26.034  26.042   5.550
 7706POPC   PO443260  26.049  26.031   5.850
 7706POPC   GL143261  26.022  26.034   6.150
 7706POPC   GL243262  26.075  25.951   6.150
 7706POPC   C1A43263  26.027  26.018   6.450
 7706POPC   D2A43264  26.032  26.047   6.750
 7706POPC   C3A43265  26.044  25.995   7.050
 7706POPC   C4A43266  26.024  26.079   7.350
 7706POPC   C1B43267  26.055  25.749   6.450
 7706POPC   C2B43268  26.129  25.763   6.750
 7706POPC   C3B43269  26.058  25.810   7.050
 7706POPC   C4B43270  26.073  25.784   7.350
 7707POPC   NC343271  19.808  44.673   5.550
 7707POPC   PO443272  19.847  44.635   5.850
 7707POPC   GL143273  19.873  44.681   6.150
 7707POPC   GL243274  19.931  44.587   6.150
 7707POPC   C1A43275  19.863  44.613   6.450
 7707POPC   D2A43276  19.797  44.688   6.750
 7707POPC   C3A43277  19.795  44.683   7.050
 7707POPC   C4A43278  19.849  44.638   7.350
 7707POPC   C1B43279  19.945  44.444   6.450
 7707POPC   C2B43280  19.937  44.453   6.750
 7707POPC   C3B43281  19.977  44.480   7.050
 7707POPC   C4B43282  19.954  44.498   7.350
 7708POPC   NC343283   9.777  43.081   5.550
 7708POPC   PO443284   9.748  43.098   5.850
 7708POPC   GL143285   9.783  43.141   6.150
 7708POPC   GL243286   9.704  43.027   6.150
 7708POPC   C1A43287   9.785  43.107   6.450
 7708POPC   D2A43288   9.791  43.141   6.750
 7708POPC   C3A43289   9.798  43.085   7.050
 7708POPC   C4A43290   9.735  43.136   7.350
 7708POPC   C1B43291   9.647  42.899   6.450
 7708POPC   C2B43292   9.678  42.880   6.750
 7708POPC   C3B43293   9.664  42.849   7.050
 7708POPC   C4B43294   9.718  42.892   7.350
 7709POPC   NC343295   8.176  33.071   5.550
 7709POPC   PO443296   8.158  33.001   5.850
 7709POPC   GL143297   8.187  33.035   6.150
 7709POPC   GL243298   8.353  32.967   6.150
 7709POPC   C1A43299   8.238  33.072   6.450
 7709POPC   D2A43300   8.181  33.039   6.750
 7709POPC   C3A43301   8.161  33.018   7.050
 7709POPC   C4A43302   8.231  33.012   7.350
 7709POPC   C1B43303   8.461  32.894   6.450
 7709POPC   C2B43304   8.470  32.984   6.750
 7709POPC   C3B43305   8.472  32.968   7.050
 7709POPC   C4B43306   8.412  32.950   7.350
 7710POPC   NC343307  41.551  41.530   5.550
 7710POPC   PO443308  41.570  41.582   5.850
 7710POPC   GL143309  41.565  41.512   6.150
 7710POPC   GL243310  41.522  41.445   6.150
 7710POPC   C1A43311  41.593  41.533   6.450
 7710POPC   D2A43312  41.591  41.536   6.750
 7710POPC   C3A43313  41.527  41.515   7.050
 7710POPC   C4A43314  41.561  41.509   7.350
 7710POPC   C1B43315  41.501  41.365   6.450
 7710POPC   C2B43316  41.493  41.343   6.750
 7710POPC   C3B43317  41.497  41.280   7.050
 7710POPC   C4B43318  41.437  41.279   7.350
 7711POPC   NC343319  41.520  19.060   5.550
 7711POPC   PO443320  41.601  19.009   5.850
 7711POPC   GL143321  41.523  19.104   6.150
 7711POPC   GL243322  41.668  19.119   6.150
 7711POPC   C1A43323  41.573  19.083   6.450
 7711POPC   D2A43324  41.583  19.041   6.750
 7711POPC   C3A43325  41.534  19.104   7.050
 7711POPC   C4A43326  41.518  19.019   7.350
 7711POPC   C1B43327  41.698  19.208   6.450
 7711POPC   C2B43328  41.735  19.270   6.750
 7711POPC   C3B43329  41.704  19.242   7.050
 7711POPC   C4B43330  41.670  19.274   7.350
 7712POPC   NC343331  37.720  26.827   5.550
 7712POPC   PO443332  37.689  26.830   5.850
 7712POPC   GL143333  37.656  26.801   6.150
 7712POPC   GL243334  37.680  26.885   6.150
 7712POPC   C1A43335  37.698  26.775   6.450
 7712POPC   D2A43336  37.717  26.799   6.750
 7712POPC   C3A43337  37.707  26.793   7.050
 7712POPC   C4A43338  37.639  26.779   7.350
 7712POPC   C1B43339  37.589  27.090   6.450
 7712POPC   C2B43340  37.589  27.021   6.750
 7712POPC   C3B43341  37.629  27.031   7.050
 7712POPC   C4B43342  37.575  27.072   7.350
 7713POPC   NC343343  33.785  16.751   5.550
 7713POPC   PO443344  33.845  16.765   5.850
 7713POPC   GL143345  33.802  16.745   6.150
 7713POPC   GL243346  33.838  16.565   6.150
 7713POPC   C1A43347  33.825  16.712   6.450
 7713POPC   D2A43348  33.817  16.700   6.750
 7713POPC   C3A43349  33.801  16.708   7.050
 7713POPC   C4A43350  33.811  16.771   7.350
 7713POPC   C1B43351  33.776  16.490   6.450
 7713POPC   C2B43352  33.786  16.500   6.750
 7713POPC   C3B43353  33.857  16.518   7.050
 7713POPC   C4B43354  33.804  16.505   7.350
 7714POPC   NC343355  29.882  26.860   5.550
 7714POPC   PO443356  29.930  26.851   5.850
 7714POPC   GL143357  29.948  26.809   6.150
 7714POPC   GL243358  30.064  26.831   6.150
 7714POPC   C1A43359  29.880  26.778   6.450
 7714POPC   D2A43360  29.902  26.866   6.750
 7714POPC   C3A43361  29.889  26.780   7.050
 7714POPC   C4A43362  29.965  26.829   7.350
 7714POPC   C1B43363  30.124  26.785   6.450
 7714POPC   C2B43364  30.134  26.790   6.750
 7714POPC   C3B43365  30.141  26.803   7.050
 7714POPC   C4B43366  30.200  26.750   7.350
 7715POPC   NC343367  28.355   3.552   5.550
 7715POPC   PO443368  28.413   3.561   5.850
 7715POPC   GL143369  28.330   3.564   6.150
 7715POPC   GL243370  28.256   3.404   6.150
 7715POPC   C1A43371  28.350   3.539   6.450
 7715POPC   D2A43372  28.334   3.495   6.750
 7715POPC   C3A43373  28.357   3.558   7.050
 7715POPC   C4A43374  28.391   3.569   7.350
 7715POPC   C1B43375  28.199   3.393   6.450
 7715POPC   C2B43376  28.262   3.340   6.750
 7715POPC   C3B43377  28.212   3.377   7.050
 7715POPC   C4B43378  28.189   3.390   7.350
 7716POPC   NC343379  28.338  32.292   5.550
 7716POPC   PO443380  28.336  32.249   5.850
 7716POPC   GL143381  28.369  32.277   6.150
 7716POPC   GL243382  28.385  32.094   6.150
 7716POPC   C1A43383  28.375  32.260   6.450
 7716POPC   D2A43384  28.331  32.214   6.750
 7716POPC   C3A43385  28.391  32.244   7.050
 7716POPC   C4A43386  28.411  32.236   7.350
 7716POPC   C1B43387  28.514  31.992   6.450
 7716POPC   C2B43388  28.498  31.988   6.750
 7716POPC   C3B43389  28.456  31.995   7.050
 7716POPC   C4B43390  28.446  32.027   7.350
 7717POPC   NC343391  37.653   6.611   5.550
 7717POPC   PO443392  37.688   6.641   5.850
 7717POPC   GL143393  37.704   6.637   6.150
 7717POPC   GL243394  37.613   6.751   6.150
 7717POPC   C1A43395  37.719   6.647   6.450
 7717POPC   D2A43396  37.665   6.619   6.750
 7717POPC   C3A43397  37.703   6.654   7.050
 7717POPC   C4A43398  37.711   6.669   7.350
 7717POPC   C1B43399  37.529   6.854   6.450
 7717POPC   C2B43400  37.473   6.861   6.750
 7717POPC   C3B43401  37.495   6.833   7.050
 7717POPC   C4B43402  37.482   6.875   7.350
 7718POPC   NC343403   1.999  12.118   5.550
 7718POPC   PO443404   1.982  12.098   5.850
 7718POPC   GL143405   2.018  12.048   6.150
 7718POPC   GL243406   1.858  12.113   6.150
 7718POPC   C1A43407   2.015  12.067   6.450
 7718POPC   D2A43408   2.009  12.089   6.750
 7718POPC   C3A43409   2.013  12.094   7.050
 7718POPC   C4A43410   2.017  12.081   7.350
 7718POPC   C1B43411   1.769  12.211   6.450
 7718POPC   C2B43412   1.799  12.272   6.750
 7718POPC   C3B43413   1.773  12.229   7.050
 7718POPC   C4B43414   1.766  12.252   7.350
 7719POPC   NC343415   2.735  13.579   5.550
 7719POPC   PO443416   2.722  13.596   5.850
 7719POPC   GL143417   2.749  13.634   6.150
 7719POPC   GL243418   2.906  13.591   6.150
 7719POPC   C1A43419   2.782  13.602   6.450
 7719POPC   D2A43420   2.723  13.677   6.750
 7719POPC   C3A43421   2.749  13.658   7.050
 7719POPC   C4A43422   2.731  13.670   7.350
 7719POPC   C1B43423   2.925  13.467   6.450
 7719POPC   C2B43424   2.919  13.423   6.750
 7719POPC   C3B43425   2.942  13.465   7.050
 7719POPC   C4B43426   2.965  13.431   7.350
 7720POPC   NC343427  31.506  19.057   5.550
 7720POPC   PO443428  31.441  19.042   5.850
 7720POPC   GL143429  31.455  19.018   6.150
 7720POPC   GL243430  31.512  18.915   6.150
 7720POPC   C1A43431  31.429  19.105   6.450
 7720POPC   D2A43432  31.460  19.066   6.750
 7720POPC   C3A43433  31.453  19.009   7.050
 7720POPC   C4A43434  31.439  19.102   7.350
 7720POPC   C1B43435  31.540  18.786   6.450
 7720POPC   C2B43436  31.554  18.798   6.750
 7720POPC   C3B43437  31.486  18.833   7.050
 7720POPC   C4B43438  31.493  18.790   7.350
 7721POPC   NC343439  29.928  18.263   5.550
 7721POPC   PO443440  29.901  18.323   5.850
 7721POPC   GL143441  29.957  18.259   6.150
 7721POPC   GL243442  29.968  18.392   6.150
 7721POPC   C1A43443  29.873  18.254   6.450
 7721POPC   D2A43444  29.967  18.258   6.750
 7721POPC   C3A43445  29.947  18.326   7.050
 7721POPC   C4A43446  29.959  18.310   7.350
 7721POPC   C1B43447  30.106  18.501   6.450
 7721POPC   C2B43448  30.072  18.505   6.750
 7721POPC   C3B43449  30.053  18.485   7.050
 7721POPC   C4B43450  30.143  18.471   7.350
 7722POPC   NC343451  36.888  36.857   5.550
 7722POPC   PO443452  36.932  36.881   5.850
 7722POPC   GL143453  36.940  36.914   6.150
 7722POPC   GL243454  36.900  37.003   6.150
 7722POPC   C1A43455  36.869  36.871   6.450
 7722POPC   D2A43456  36.876  36.897   6.750
 7722POPC   C3A43457  36.944  36.920   7.050
 7722POPC   C4A43458  36.869  36.888   7.350
 7722POPC   C1B43459  36.896  37.169   6.450
 7722POPC   C2B43460  36.874  37.181   6.750
 7722POPC   C3B43461  36.919  37.195   7.050
 7722POPC   C4B43462  36.873  37.188   7.350
 7723POPC   NC343463  22.189   2.746   5.550
 7723POPC   PO443464  22.189   2.777   5.850
 7723POPC   GL143465  22.200   2.786   6.150
 7723POPC   GL243466  22.253   2.903   6.150
 7723POPC   C1A43467  22.129   2.719   6.450
 7723POPC   D2A43468  22.169   2.787   6.750
 7723POPC   C3A43469  22.148   2.723   7.050
 7723POPC   C4A43470  22.169   2.736   7.350
 7723POPC   C1B43471  22.289   3.010   6.450
 7723POPC   C2B43472  22.336   3.000   6.750
 7723POPC   C3B43473  22.261   2.983   7.050
 7723POPC   C4B43474  22.269   2.962   7.350
 7724POPC   NC343475  33.837   2.786   5.550
 7724POPC   PO443476  33.784   2.770   5.850
 7724POPC   GL143477  33.768   2.764   6.150
 7724POPC   GL243478  33.757   2.890   6.150
 7724POPC   C1A43479  33.835   2.806   6.450
 7724POPC   D2A43480  33.779   2.717   6.750
 7724POPC   C3A43481  33.805   2.738   7.050
 7724POPC   C4A43482  33.782   2.739   7.350
 7724POPC   C1B43483  33.740   3.023   6.450
 7724POPC   C2B43484  33.767   3.023   6.750
 7724POPC   C3B43485  33.766   3.045   7.050
 7724POPC   C4B43486  33.733   3.017   7.350
 7725POPC   NC343487  17.550  33.031   5.550
 7725POPC   PO443488  17.529  33.009   5.850
 7725POPC   GL143489  17.491  33.007   6.150
 7725POPC   GL243490  17.417  32.984   6.150
 7725POPC   C1A43491  17.503  33.016   6.450
 7725POPC   D2A43492  17.523  33.070   6.750
 7725POPC   C3A43493  17.493  33.015   7.050
 7725POPC   C4A43494  17.499  33.020   7.350
 7725POPC   C1B43495  17.216  32.997   6.450
 7725POPC   C2B43496  17.263  32.952   6.750
 7725POPC   C3B43497  17.307  32.988   7.050
 7725POPC   C4B43498  17.227  32.986   7.350
 7726POPC   NC343499  10.518   2.733   5.550
 7726POPC   PO443500  10.533   2.745   5.850
 7726POPC   GL143501  10.480   2.754   6.150
 7726POPC   GL243502  10.390   2.767   6.150
 7726POPC   C1A43503  10.570   2.804   6.450
 7726POPC   D2A43504  10.493   2.748   6.750
 7726POPC   C3A43505  10.481   2.814   7.050
 7726POPC   C4A43506  10.535   2.804   7.350
 7726POPC   C1B43507  10.265   2.707   6.450
 7726POPC   C2B43508  10.327   2.688   6.750
 7726POPC   C3B43509  10.335   2.736   7.050
 7726POPC   C4B43510  10.312   2.648   7.350
 7727POPC   NC343511  26.026  40.783   5.550
 7727POPC   PO443512  26.048  40.815   5.850
 7727POPC   GL143513  26.055  40.797   6.150
 7727POPC   GL243514  25.945  40.829   6.150
 7727POPC   C1A43515  26.048  40.807   6.450
 7727POPC   D2A43516  26.047  40.781   6.750
 7727POPC   C3A43517  25.998  40.809   7.050
 7727POPC   C4A43518  26.069  40.761   7.350
 7727POPC   C1B43519  25.859  40.938   6.450
 7727POPC   C2B43520  25.827  40.966   6.750
 7727POPC   C3B43521  25.890  40.905   7.050
 7727POPC   C4B43522  25.891  40.952   7.350
 7728POPC   NC343523  11.297  40.738   5.550
 7728POPC   PO443524  11.264  40.765   5.850
 7728POPC   GL143525  11.276  40.801   6.150
 7728POPC   GL243526  11.406  40.810   6.150
 7728POPC   C1A43527  11.311  40.823   6.450
 7728POPC   D2A43528  11.284  40.754   6.750
 7728POPC   C3A43529  11.340  40.808   7.050
 7728POPC   C4A43530  11.318  40.739   7.350
 7728POPC   C1B43531  11.502  40.848   6.450
 7728POPC   C2B43532  11.574  40.838   6.750
 7728POPC   C3B43533  11.586  40.814   7.050
 7728POPC   C4B43534  11.512  40.840   7.350
 7729POPC   NC343535  15.997  30.713   5.550
 7729POPC   PO443536  15.947  30.745   5.850
 7729POPC   GL143537  15.926  30.719   6.150
 7729POPC   GL243538  15.856  30.681   6.150
 7729POPC   C1A43539  15.914  30.647   6.450
 7729POPC   D2A43540  15.906  30.676   6.750
 7729POPC   C3A43541  15.984  30.699   7.050
 7729POPC   C4A43542  15.984  30.670   7.350
 7729POPC   C1B43543  15.714  30.694   6.450
 7729POPC   C2B43544  15.660  30.629   6.750
 7729POPC   C3B43545  15.682  30.628   7.050
 7729POPC   C4B43546  15.679  30.680   7.350
 7730POPC   NC343547  11.304   5.899   5.550
 7730POPC   PO443548  11.343   5.832   5.850
 7730POPC   GL143549  11.282   5.824   6.150
 7730POPC   GL243550  11.341   5.998   6.150
 7730POPC   C1A43551  11.299   5.825   6.450
 7730POPC   D2A43552  11.332   5.873   6.750
 7730POPC   C3A43553  11.284   5.910   7.050
 7730POPC   C4A43554  11.309   5.892   7.350
 7730POPC   C1B43555  11.472   6.081   6.450
 7730POPC   C2B43556  11.450   6.066   6.750
 7730POPC   C3B43557  11.430   6.047   7.050
 7730POPC   C4B43558  11.478   6.087   7.350
 7731POPC   NC343559   7.392  31.455   5.550
 7731POPC   PO443560   7.385  31.500   5.850
 7731POPC   GL143561   7.424  31.428   6.150
 7731POPC   GL243562   7.425  31.570   6.150
 7731POPC   C1A43563   7.444  31.496   6.450
 7731POPC   D2A43564   7.402  31.479   6.750
 7731POPC   C3A43565   7.385  31.433   7.050
 7731POPC   C4A43566   7.460  31.469   7.350
 7731POPC   C1B43567   7.457  31.745   6.450
 7731POPC   C2B43568   7.469  31.723   6.750
 7731POPC   C3B43569   7.450  31.698   7.050
 7731POPC   C4B43570   7.437  31.743   7.350
 7732POPC   NC343571  42.314  26.089   5.550
 7732POPC   PO443572  42.371  25.997   5.850
 7732POPC   GL143573  42.304  26.083   6.150
 7732POPC   GL243574  42.218  25.920   6.150
 7732POPC   C1A43575  42.301  26.032   6.450
 7732POPC   D2A43576  42.289  26.073   6.750
 7732POPC   C3A43577  42.286  26.016   7.050
 7732POPC   C4A43578  42.306  26.027   7.350
 7732POPC   C1B43579  42.188  25.845   6.450
 7732POPC   C2B43580  42.127  25.827   6.750
 7732POPC   C3B43581  42.151  25.801   7.050
 7732POPC   C4B43582  42.201  25.819   7.350
 7733POPC   NC343583  13.608  37.707   5.550
 7733POPC   PO443584  13.601  37.725   5.850
 7733POPC   GL143585  13.609  37.678   6.150
 7733POPC   GL243586  13.747  37.544   6.150
 7733POPC   C1A43587  13.669  37.720   6.450
 7733POPC   D2A43588  13.580  37.631   6.750
 7733POPC   C3A43589  13.594  37.721   7.050
 7733POPC   C4A43590  13.635  37.677   7.350
 7733POPC   C1B43591  13.783  37.457   6.450
 7733POPC   C2B43592  13.781  37.487   6.750
 7733POPC   C3B43593  13.786  37.532   7.050
 7733POPC   C4B43594  13.757  37.481   7.350
 7734POPC   NC343595  42.296  22.193   5.550
 7734POPC   PO443596  42.322  22.170   5.850
 7734POPC   GL143597  42.292  22.199   6.150
 7734POPC   GL243598  42.485  22.169   6.150
 7734POPC   C1A43599  42.362  22.129   6.450
 7734POPC   D2A43600  42.370  22.112   6.750
 7734POPC   C3A43601  42.338  22.152   7.050
 7734POPC   C4A43602  42.380  22.181   7.350
 7734POPC   C1B43603  42.600  22.259   6.450
 7734POPC   C2B43604  42.596  22.258   6.750
 7734POPC   C3B43605  42.567  22.256   7.050
 7734POPC   C4B43606  42.528  22.290   7.350
 7735POPC   NC343607  24.455   0.397   5.550
 7735POPC   PO443608  24.458   0.406   5.850
 7735POPC   GL143609  24.539   0.446   6.150
 7735POPC   GL243610  24.592   0.395   6.150
 7735POPC   C1A43611  24.501   0.405   6.450
 7735POPC   D2A43612  24.516   0.407   6.750
 7735POPC   C3A43613  24.505   0.430   7.050
 7735POPC   C4A43614  24.509   0.475   7.350
 7735POPC   C1B43615  24.751   0.411   6.450
 7735POPC   C2B43616  24.703   0.391   6.750
 7735POPC   C3B43617  24.758   0.381   7.050
 7735POPC   C4B43618  24.724   0.396   7.350
 7736POPC   NC343619  43.118  17.533   5.550
 7736POPC   PO443620  43.088  17.488   5.850
 7736POPC   GL143621  43.101  17.555   6.150
 7736POPC   GL243622  43.227  17.557   6.150
 7736POPC   C1A43623  43.079  17.537   6.450
 7736POPC   D2A43624  43.082  17.507   6.750
 7736POPC   C3A43625  43.100  17.495   7.050
 7736POPC   C4A43626  43.062  17.481   7.350
 7736POPC   C1B43627  43.313  17.681   6.450
 7736POPC   C2B43628  43.345  17.673   6.750
 7736POPC   C3B43629  43.270  17.665   7.050
 7736POPC   C4B43630  43.293  17.657   7.350
 7737POPC   NC343631  43.079  30.739   5.550
 7737POPC   PO443632  43.120  30.671   5.850
 7737POPC   GL143633  43.114  30.708   6.150
 7737POPC   GL243634  43.198  30.577   6.150
 7737POPC   C1A43635  43.108  30.678   6.450
 7737POPC   D2A43636  43.097  30.705   6.750
 7737POPC   C3A43637  43.086  30.662   7.050
 7737POPC   C4A43638  43.067  30.740   7.350
 7737POPC   C1B43639  43.321  30.592   6.450
 7737POPC   C2B43640  43.306  30.538   6.750
 7737POPC   C3B43641  43.302  30.574   7.050
 7737POPC   C4B43642  43.289  30.499   7.350
 7738POPC   NC343643  23.752  16.768   5.550
 7738POPC   PO443644  23.725  16.712   5.850
 7738POPC   GL143645  23.728  16.761   6.150
 7738POPC   GL243646  23.784  16.829   6.150
 7738POPC   C1A43647  23.734  16.700   6.450
 7738POPC   D2A43648  23.676  16.728   6.750
 7738POPC   C3A43649  23.687  16.743   7.050
 7738POPC   C4A43650  23.762  16.772   7.350
 7738POPC   C1B43651  23.914  16.861   6.450
 7738POPC   C2B43652  23.894  16.807   6.750
 7738POPC   C3B43653  23.953  16.796   7.050
 7738POPC   C4B43654  23.959  16.848   7.350
 7739POPC   NC343655  32.293   2.731   5.550
 7739POPC   PO443656  32.255   2.791   5.850
 7739POPC   GL143657  32.206   2.794   6.150
 7739POPC   GL243658  32.198   2.619   6.150
 7739POPC   C1A43659  32.236   2.738   6.450
 7739POPC   D2A43660  32.269   2.785   6.750
 7739POPC   C3A43661  32.218   2.756   7.050
 7739POPC   C4A43662  32.274   2.754   7.350
 7739POPC   C1B43663  32.132   2.587   6.450
 7739POPC   C2B43664  32.116   2.569   6.750
 7739POPC   C3B43665  32.092   2.503   7.050
 7739POPC   C4B43666  32.172   2.536   7.350
 7740POPC   NC343667  40.043  11.308   5.550
 7740POPC   PO443668  40.017  11.301   5.850
 7740POPC   GL143669  40.000  11.285   6.150
 7740POPC   GL243670  39.874  11.296   6.150
 7740POPC   C1A43671  40.057  11.267   6.450
 7740POPC   D2A43672  39.973  11.342   6.750
 7740POPC   C3A43673  39.960  11.339   7.050
 7740POPC   C4A43674  40.022  11.280   7.350
 7740POPC   C1B43675  39.781  11.234   6.450
 7740POPC   C2B43676  39.797  11.235   6.750
 7740POPC   C3B43677  39.729  11.257   7.050
 7740POPC   C4B43678  39.810  11.232   7.350
 7741POPC   NC343679   9.779  25.999   5.550
 7741POPC   PO443680   9.700  25.995   5.850
 7741POPC   GL143681   9.725  26.059   6.150
 7741POPC   GL243682   9.640  25.998   6.150
 7741POPC   C1A43683   9.713  26.076   6.450
 7741POPC   D2A43684   9.710  26.068   6.750
 7741POPC   C3A43685   9.749  26.008   7.050
 7741POPC   C4A43686   9.755  26.064   7.350
 7741POPC   C1B43687   9.573  25.893   6.450
 7741POPC   C2B43688   9.486  25.940   6.750
 7741POPC   C3B43689   9.511  25.888   7.050
 7741POPC   C4B43690   9.487  25.966   7.350
 7742POPC   NC343691  33.807  26.823   5.550
 7742POPC   PO443692  33.816  26.800   5.850
 7742POPC   GL143693  33.841  26.825   6.150
 7742POPC   GL243694  33.875  26.971   6.150
 7742POPC   C1A43695  33.808  26.783   6.450
 7742POPC   D2A43696  33.828  26.838   6.750
 7742POPC   C3A43697  33.832  26.855   7.050
 7742POPC   C4A43698  33.843  26.795   7.350
 7742POPC   C1B43699  33.973  27.037   6.450
 7742POPC   C2B43700  33.970  26.984   6.750
 7742POPC   C3B43701  33.962  27.052   7.050
 7742POPC   C4B43702  33.950  27.039   7.350
 7743POPC   NC343703  25.306  32.225   5.550
 7743POPC   PO443704  25.264  32.229   5.850
 7743POPC   GL143705  25.293  32.257   6.150
 7743POPC   GL243706  25.289  32.100   6.150
 7743POPC   C1A43707  25.303  32.212   6.450
 7743POPC   D2A43708  25.257  32.279   6.750
 7743POPC   C3A43709  25.311  32.282   7.050
 7743POPC   C4A43710  25.276  32.268   7.350
 7743POPC   C1B43711  25.343  31.970   6.450
 7743POPC   C2B43712  25.314  31.972   6.750
 7743POPC   C3B43713  25.300  32.039   7.050
 7743POPC   C4B43714  25.275  31.955   7.350
 7744POPC   NC343715  24.470  27.572   5.550
 7744POPC   PO443716  24.535  27.587   5.850
 7744POPC   GL143717  24.443  27.629   6.150
 7744POPC   GL243718  24.584  27.553   6.150
 7744POPC   C1A43719  24.464  27.628   6.450
 7744POPC   D2A43720  24.486  27.592   6.750
 7744POPC   C3A43721  24.494  27.614   7.050
 7744POPC   C4A43722  24.500  27.587   7.350
 7744POPC   C1B43723  24.692  27.561   6.450
 7744POPC   C2B43724  24.712  27.517   6.750
 7744POPC   C3B43725  24.757  27.590   7.050
 7744POPC   C4B43726  24.785  27.540   7.350
 7745POPC   NC343727  13.617  41.531   5.550
 7745POPC   PO443728  13.616  41.578   5.850
 7745POPC   GL143729  13.611  41.534   6.150
 7745POPC   GL243730  13.714  41.623   6.150
 7745POPC   C1A43731  13.592  41.567   6.450
 7745POPC   D2A43732  13.611  41.595   6.750
 7745POPC   C3A43733  13.640  41.542   7.050
 7745POPC   C4A43734  13.643  41.603   7.350
 7745POPC   C1B43735  13.834  41.740   6.450
 7745POPC   C2B43736  13.851  41.734   6.750
 7745POPC   C3B43737  13.844  41.671   7.050
 7745POPC   C4B43738  13.847  41.651   7.350
 7746POPC   NC343739  14.378   4.289   5.550
 7746POPC   PO443740  14.432   4.326   5.850
 7746POPC   GL143741  14.387   4.352   6.150
 7746POPC   GL243742  14.317   4.402   6.150
 7746POPC   C1A43743  14.373   4.278   6.450
 7746POPC   D2A43744  14.393   4.346   6.750
 7746POPC   C3A43745  14.409   4.292   7.050
 7746POPC   C4A43746  14.444   4.305   7.350
 7746POPC   C1B43747  14.230   4.492   6.450
 7746POPC   C2B43748  14.200   4.451   6.750
 7746POPC   C3B43749  14.209   4.448   7.050
 7746POPC   C4B43750  14.195   4.422   7.350
 7747POPC   NC343751  13.649  29.953   5.550
 7747POPC   PO443752  13.585  29.912   5.850
 7747POPC   GL143753  13.659  29.962   6.150
 7747POPC   GL243754  13.555  29.998   6.150
 7747POPC   C1A43755  13.616  29.968   6.450
 7747POPC   D2A43756  13.588  29.966   6.750
 7747POPC   C3A43757  13.635  29.890   7.050
 7747POPC   C4A43758  13.615  29.918   7.350
 7747POPC   C1B43759  13.562  30.196   6.450
 7747POPC   C2B43760  13.527  30.146   6.750
 7747POPC   C3B43761  13.549  30.117   7.050
 7747POPC   C4B43762  13.570  30.166   7.350
 7748POPC   NC343763   9.700  38.408   5.550
 7748POPC   PO443764   9.739  38.458   5.850
 7748POPC   GL143765   9.740  38.469   6.150
 7748POPC   GL243766   9.705  38.510   6.150
 7748POPC   C1A43767   9.739  38.417   6.450
 7748POPC   D2A43768   9.721  38.428   6.750
 7748POPC   C3A43769   9.718  38.435   7.050
 7748POPC   C4A43770   9.766  38.406   7.350
 7748POPC   C1B43771   9.630  38.702   6.450
 7748POPC   C2B43772   9.571  38.672   6.750
 7748POPC   C3B43773   9.632  38.689   7.050
 7748POPC   C4B43774   9.569  38.632   7.350
 7749POPC   NC343775   3.513  39.982   5.550
 7749POPC   PO443776   3.513  39.990   5.850
 7749POPC   GL143777   3.505  39.983   6.150
 7749POPC   GL243778   3.691  39.947   6.150
 7749POPC   C1A43779   3.591  39.979   6.450
 7749POPC   D2A43780   3.557  39.965   6.750
 7749POPC   C3A43781   3.560  39.980   7.050
 7749POPC   C4A43782   3.574  40.011   7.350
 7749POPC   C1B43783   3.715  39.921   6.450
 7749POPC   C2B43784   3.750  39.879   6.750
 7749POPC   C3B43785   3.763  39.939   7.050
 7749POPC   C4B43786   3.732  39.890   7.350
 7750POPC   NC343787  12.831  29.120   5.550
 7750POPC   PO443788  12.839  29.157   5.850
 7750POPC   GL143789  12.850  29.160   6.150
 7750POPC   GL243790  12.725  29.085   6.150
 7750POPC   C1A43791  12.820  29.113   6.450
 7750POPC   D2A43792  12.806  29.136   6.750
 7750POPC   C3A43793  12.837  29.118   7.050
 7750POPC   C4A43794  12.875  29.140   7.350
 7750POPC   C1B43795  12.575  29.162   6.450
 7750POPC   C2B43796  12.584  29.071   6.750
 7750POPC   C3B43797  12.553  29.134   7.050
 7750POPC   C4B43798  12.636  29.092   7.350
 7751POPC   NC343799  44.686   5.900   5.550
 7751POPC   PO443800  44.687   5.853   5.850
 7751POPC   GL143801  44.634   5.907   6.150
 7751POPC   GL243802  44.658   5.735   6.150
 7751POPC   C1A43803  44.707   5.886   6.450
 7751POPC   D2A43804  44.708   5.825   6.750
 7751POPC   C3A43805  44.632   5.847   7.050
 7751POPC   C4A43806  44.683   5.879   7.350
 7751POPC   C1B43807  44.560   5.619   6.450
 7751POPC   C2B43808  44.567   5.584   6.750
 7751POPC   C3B43809  44.610   5.662   7.050
 7751POPC   C4B43810  44.560   5.587   7.350
 7752POPC   NC343811  33.845  29.970   5.550
 7752POPC   PO443812  33.792  29.921   5.850
 7752POPC   GL143813  33.751  29.907   6.150
 7752POPC   GL243814  33.881  29.836   6.150
 7752POPC   C1A43815  33.769  29.898   6.450
 7752POPC   D2A43816  33.827  29.899   6.750
 7752POPC   C3A43817  33.843  29.947   7.050
 7752POPC   C4A43818  33.796  29.876   7.350
 7752POPC   C1B43819  34.037  29.813   6.450
 7752POPC   C2B43820  34.060  29.811   6.750
 7752POPC   C3B43821  34.011  29.820   7.050
 7752POPC   C4B43822  34.022  29.847   7.350
 7753POPC   NC343823  25.271  31.456   5.550
 7753POPC   PO443824  25.271  31.517   5.850
 7753POPC   GL143825  25.217  31.482   6.150
 7753POPC   GL243826  25.332  31.435   6.150
 7753POPC   C1A43827  25.244  31.447   6.450
 7753POPC   D2A43828  25.267  31.467   6.750
 7753POPC   C3A43829  25.282  31.494   7.050
 7753POPC   C4A43830  25.272  31.439   7.350
 7753POPC   C1B43831  25.451  31.383   6.450
 7753POPC   C2B43832  25.498  31.386   6.750
 7753POPC   C3B43833  25.535  31.344   7.050
 7753POPC   C4B43834  25.479  31.397   7.350
 7754POPC   NC343835  29.929  32.276   5.550
 7754POPC   PO443836  29.932  32.222   5.850
 7754POPC   GL143837  29.879  32.250   6.150
 7754POPC   GL243838  29.962  32.398   6.150
 7754POPC   C1A43839  29.921  32.259   6.450
 7754POPC   D2A43840  29.874  32.269   6.750
 7754POPC   C3A43841  29.959  32.222   7.050
 7754POPC   C4A43842  29.942  32.217   7.350
 7754POPC   C1B43843  29.916  32.472   6.450
 7754POPC   C2B43844  29.915  32.543   6.750
 7754POPC   C3B43845  29.956  32.504   7.050
 7754POPC   C4B43846  29.975  32.518   7.350
 7755POPC   NC343847  15.214  19.807   5.550
 7755POPC   PO443848  15.203  19.791   5.850
 7755POPC   GL143849  15.194  19.794   6.150
 7755POPC   GL243850  15.058  19.744   6.150
 7755POPC   C1A43851  15.145  19.808   6.450
 7755POPC   D2A43852  15.145  19.817   6.750
 7755POPC   C3A43853  15.131  19.825   7.050
 7755POPC   C4A43854  15.141  19.878   7.350
 7755POPC   C1B43855  14.994  19.670   6.450
 7755POPC   C2B43856  15.028  19.634   6.750
 7755POPC   C3B43857  15.036  19.669   7.050
 7755POPC   C4B43858  14.956  19.709   7.350
 7756POPC   NC343859   9.765  43.868   5.550
 7756POPC   PO443860   9.754  43.845   5.850
 7756POPC   GL143861   9.761  43.898   6.150
 7756POPC   GL243862   9.677  44.044   6.150
 7756POPC   C1A43863   9.703  43.926   6.450
 7756POPC   D2A43864   9.752  43.873   6.750
 7756POPC   C3A43865   9.719  43.854   7.050
 7756POPC   C4A43866   9.718  43.868   7.350
 7756POPC   C1B43867   9.671  44.171   6.450
 7756POPC   C2B43868   9.705  44.125   6.750
 7756POPC   C3B43869   9.649  44.150   7.050
 7756POPC   C4B43870   9.663  44.093   7.350
 7757POPC   NC343871   1.987  14.387   5.550
 7757POPC   PO443872   1.999  14.403   5.850
 7757POPC   GL143873   2.013  14.398   6.150
 7757POPC   GL243874   1.882  14.483   6.150
 7757POPC   C1A43875   2.031  14.452   6.450
 7757POPC   D2A43876   1.982  14.416   6.750
 7757POPC   C3A43877   2.028  14.444   7.050
 7757POPC   C4A43878   1.944  14.369   7.350
 7757POPC   C1B43879   1.763  14.463   6.450
 7757POPC   C2B43880   1.783  14.531   6.750
 7757POPC   C3B43881   1.782  14.548   7.050
 7757POPC   C4B43882   1.739  14.475   7.350
 7758POPC   NC343883  11.272  39.252   5.550
 7758POPC   PO443884  11.350  39.254   5.850
 7758POPC   GL143885  11.293  39.227   6.150
 7758POPC   GL243886  11.355  39.312   6.150
 7758POPC   C1A43887  11.350  39.242   6.450
 7758POPC   D2A43888  11.256  39.230   6.750
 7758POPC   C3A43889  11.272  39.216   7.050
 7758POPC   C4A43890  11.321  39.230   7.350
 7758POPC   C1B43891  11.498  39.415   6.450
 7758POPC   C2B43892  11.443  39.405   6.750
 7758POPC   C3B43893  11.443  39.391   7.050
 7758POPC   C4B43894  11.421  39.421   7.350
 7759POPC   NC343895  26.863  27.556   5.550
 7759POPC   PO443896  26.795  27.578   5.850
 7759POPC   GL143897  26.830  27.609   6.150
 7759POPC   GL243898  26.667  27.486   6.150
 7759POPC   C1A43899  26.839  27.577   6.450
 7759POPC   D2A43900  26.775  27.546   6.750
 7759POPC   C3A43901  26.858  27.587   7.050
 7759POPC   C4A43902  26.837  27.637   7.350
 7759POPC   C1B43903  26.653  27.509   6.450
 7759POPC   C2B43904  26.598  27.489   6.750
 7759POPC   C3B43905  26.634  27.461   7.050
 7759POPC   C4B43906  26.591  27.507   7.350
 7760POPC   NC343907  32.296  26.828   5.550
 7760POPC   PO443908  32.295  26.773   5.850
 7760POPC   GL143909  32.253  26.816   6.150
 7760POPC   GL243910  32.304  26.934   6.150
 7760POPC   C1A43911  32.248  26.777   6.450
 7760POPC   D2A43912  32.294  26.781   6.750
 7760POPC   C3A43913  32.262  26.817   7.050
 7760POPC   C4A43914  32.245  26.852   7.350
 7760POPC   C1B43915  32.464  26.968   6.450
 7760POPC   C2B43916  32.445  26.978   6.750
 7760POPC   C3B43917  32.459  26.991   7.050
 7760POPC   C4B43918  32.423  26.961   7.350
 7761POPC   NC343919  43.839  22.897   5.550
 7761POPC   PO443920  43.936  22.936   5.850
 7761POPC   GL143921  43.886  22.935   6.150
 7761POPC   GL243922  43.969  22.931   6.150
 7761POPC   C1A43923  43.910  22.899   6.450
 7761POPC   D2A43924  43.843  22.942   6.750
 7761POPC   C3A43925  43.846  22.944   7.050
 7761POPC   C4A43926  43.887  22.925   7.350
 7761POPC   C1B43927  44.142  22.955   6.450
 7761POPC   C2B43928  44.104  22.909   6.750
 7761POPC   C3B43929  44.156  22.900   7.050
 7761POPC   C4B43930  44.168  22.975   7.350
 7762POPC   NC343931   1.190  31.495   5.550
 7762POPC   PO443932   1.233  31.460   5.850
 7762POPC   GL143933   1.174  31.463   6.150
 7762POPC   GL243934   1.238  31.645   6.150
 7762POPC   C1A43935   1.232  31.487   6.450
 7762POPC   D2A43936   1.232  31.522   6.750
 7762POPC   C3A43937   1.226  31.472   7.050
 7762POPC   C4A43938   1.183  31.474   7.350
 7762POPC   C1B43939   1.255  31.753   6.450
 7762POPC   C2B43940   1.267  31.710   6.750
 7762POPC   C3B43941   1.198  31.763   7.050
 7762POPC   C4B43942   1.226  31.672   7.350
 7763POPC   NC343943   2.754  32.204   5.550
 7763POPC   PO443944   2.765  32.226   5.850
 7763POPC   GL143945   2.803  32.242   6.150
 7763POPC   GL243946   2.936  32.289   6.150
 7763POPC   C1A43947   2.783  32.219   6.450
 7763POPC   D2A43948   2.754  32.285   6.750
 7763POPC   C3A43949   2.796  32.236   7.050
 7763POPC   C4A43950   2.762  32.208   7.350
 7763POPC   C1B43951   3.057  32.259   6.450
 7763POPC   C2B43952   3.051  32.288   6.750
 7763POPC   C3B43953   3.024  32.242   7.050
 7763POPC   C4B43954   3.001  32.257   7.350
 7764POPC   NC343955  42.325  36.155   5.550
 7764POPC   PO443956  42.293  36.117   5.850
 7764POPC   GL143957  42.330  36.133   6.150
 7764POPC   GL243958  42.353  36.041   6.150
 7764POPC   C1A43959  42.361  36.168   6.450
 7764POPC   D2A43960  42.376  36.153   6.750
 7764POPC   C3A43961  42.357  36.089   7.050
 7764POPC   C4A43962  42.295  36.096   7.350
 7764POPC   C1B43963  42.469  35.917   6.450
 7764POPC   C2B43964  42.464  35.960   6.750
 7764POPC   C3B43965  42.497  35.932   7.050
 7764POPC   C4B43966  42.436  35.938   7.350
 7765POPC   NC343967  20.601  44.658   5.550
 7765POPC   PO443968  20.629  44.620   5.850
 7765POPC   GL143969  20.624  44.673   6.150
 7765POPC   GL243970  20.563  44.798   6.150
 7765POPC   C1A43971  20.593  44.661   6.450
 7765POPC   D2A43972  20.654  44.623   6.750
 7765POPC   C3A43973  20.633  44.668   7.050
 7765POPC   C4A43974  20.642  44.697   7.350
 7765POPC   C1B43975  20.533  44.951   6.450
 7765POPC   C2B43976  20.609  44.949   6.750
 7765POPC   C3B43977  20.574  44.939   7.050
 7765POPC   C4B43978  20.611  44.908   7.350
 7766POPC   NC343979  40.751  24.460   5.550
 7766POPC   PO443980  40.784  24.446   5.850
 7766POPC   GL143981  40.811  24.510   6.150
 7766POPC   GL243982  40.866  24.480   6.150
 7766POPC   C1A43983  40.748  24.513   6.450
 7766POPC   D2A43984  40.831  24.481   6.750
 7766POPC   C3A43985  40.797  24.490   7.050
 7766POPC   C4A43986  40.812  24.482   7.350
 7766POPC   C1B43987  41.030  24.375   6.450
 7766POPC   C2B43988  41.002  24.349   6.750
 7766POPC   C3B43989  40.974  24.414   7.050
 7766POPC   C4B43990  41.012  24.415   7.350
 7767POPC   NC343991  28.378  33.065   5.550
 7767POPC   PO443992  28.356  33.012   5.850
 7767POPC   GL143993  28.322  33.049   6.150
 7767POPC   GL243994  28.342  32.956   6.150
 7767POPC   C1A43995  28.418  33.073   6.450
 7767POPC   D2A43996  28.411  33.024   6.750
 7767POPC   C3A43997  28.353  32.989   7.050
 7767POPC   C4A43998  28.375  32.995   7.350
 7767POPC   C1B43999  28.227  32.819   6.450
 7767POPC   C2B44000  28.275  32.826   6.750
 7767POPC   C3B44001  28.236  32.805   7.050
 7767POPC   C4B44002  28.216  32.778   7.350
 7768POPC   NC344003  25.221  19.035   5.550
 7768POPC   PO444004  25.269  19.018   5.850
 7768POPC   GL144005  25.259  19.078   6.150
 7768POPC   GL244006  25.241  18.922   6.150
 7768POPC   C1A44007  25.250  19.083   6.450
 7768POPC   D2A44008  25.253  19.009   6.750
 7768POPC   C3A44009  25.249  19.036   7.050
 7768POPC   C4A44010  25.283  19.103   7.350
 7768POPC   C1B44011  25.332  18.829   6.450
 7768POPC   C2B44012  25.323  18.771   6.750
 7768POPC   C3B44013  25.286  18.857   7.050
 7768POPC   C4B44014  25.303  18.791   7.350
 7769POPC   NC344015  23.681   7.386   5.550
 7769POPC   PO444016  23.750   7.439   5.850
 7769POPC   GL144017  23.754   7.387   6.150
 7769POPC   GL244018  23.760   7.288   6.150
 7769POPC   C1A44019  23.754   7.372   6.450
 7769POPC   D2A44020  23.676   7.432   6.750
 7769POPC   C3A44021  23.706   7.408   7.050
 7769POPC   C4A44022  23.760   7.444   7.350
 7769POPC   C1B44023  23.800   7.179   6.450
 7769POPC   C2B44024  23.795   7.211   6.750
 7769POPC   C3B44025  23.801   7.140   7.050
 7769POPC   C4B44026  23.782   7.150   7.350
 7770POPC   NC344027   1.952   0.414   5.550
 7770POPC   PO444028   1.980   0.418   5.850
 7770POPC   GL144029   1.993   0.411   6.150
 7770POPC   GL244030   2.056   0.316   6.150
 7770POPC   C1A44031   2.030   0.476   6.450
 7770POPC   D2A44032   2.030   0.398   6.750
 7770POPC   C3A44033   2.034   0.459   7.050
 7770POPC   C4A44034   1.966   0.436   7.350
 7770POPC   C1B44035   2.123   0.224   6.450
 7770POPC   C2B44036   2.145   0.249   6.750
 7770POPC   C3B44037   2.190   0.221   7.050
 7770POPC   C4B44038   2.153   0.302   7.350
 7771POPC   NC344039  44.678  11.325   5.550
 7771POPC   PO444040  44.613  11.350   5.850
 7771POPC   GL144041  44.668  11.250   6.150
 7771POPC   GL244042  44.510  11.269   6.150
 7771POPC   C1A44043  44.685  11.270   6.450
 7771POPC   D2A44044  44.682  11.258   6.750
 7771POPC   C3A44045  44.652  11.303   7.050
 7771POPC   C4A44046  44.703  11.254   7.350
 7771POPC   C1B44047  44.419  11.292   6.450
 7771POPC   C2B44048  44.366  11.296   6.750
 7771POPC   C3B44049  44.457  11.261   7.050
 7771POPC   C4B44050  44.382  11.261   7.350
 7772POPC   NC344051  32.239  15.142   5.550
 7772POPC   PO444052  32.203  15.176   5.850
 7772POPC   GL144053  32.285  15.213   6.150
 7772POPC   GL244054  32.209  15.038   6.150
 7772POPC   C1A44055  32.242  15.171   6.450
 7772POPC   D2A44056  32.216  15.214   6.750
 7772POPC   C3A44057  32.282  15.188   7.050
 7772POPC   C4A44058  32.203  15.191   7.350
 7772POPC   C1B44059  32.213  14.914   6.450
 7772POPC   C2B44060  32.191  14.903   6.750
 7772POPC   C3B44061  32.230  14.974   7.050
 7772POPC   C4B44062  32.255  14.954   7.350
 7773POPC   NC344063  30.724   5.834   5.550
 7773POPC   PO444064  30.647   5.916   5.850
 7773POPC   GL144065  30.736   5.851   6.150
 7773POPC   GL244066  30.548   5.876   6.150
 7773POPC   C1A44067  30.674   5.906   6.450
 7773POPC   D2A44068  30.722   5.825   6.750
 7773POPC   C3A44069  30.712   5.891   7.050
 7773POPC   C4A44070  30.688   5.837   7.350
 7773POPC   C1B44071  30.444   5.834   6.450
 7773POPC   C2B44072  30.455   5.870   6.750
 7773POPC   C3B44073  30.402   5.850   7.050
 7773POPC   C4B44074  30.458   5.868   7.350
 7774POPC   NC344075   1.168  29.874   5.550
 7774POPC   PO444076   1.187  29.898   5.850
 7774POPC   GL144077   1.237  29.895   6.150
 7774POPC   GL244078   1.121  29.856   6.150
 7774POPC   C1A44079   1.226  29.969   6.450
 7774POPC   D2A44080   1.238  29.872   6.750
 7774POPC   C3A44081   1.202  29.913   7.050
 7774POPC   C4A44082   1.251  29.932   7.350
 7774POPC   C1B44083   1.114  29.764   6.450
 7774POPC   C2B44084   1.060  29.746   6.750
 7774POPC   C3B44085   1.090  29.673   7.050
 7774POPC   C4B44086   1.066  29.731   7.350
 7775POPC   NC344087  16.750  40.019   5.550
 7775POPC   PO444088  16.777  40.030   5.850
 7775POPC   GL144089  16.745  39.981   6.150
 7775POPC   GL244090  16.860  39.914   6.150
 7775POPC   C1A44091  16.685  40.053   6.450
 7775POPC   D2A44092  16.704  40.021   6.750
 7775POPC   C3A44093  16.752  40.033   7.050
 7775POPC   C4A44094  16.718  40.010   7.350
 7775POPC   C1B44095  16.931  39.829   6.450
 7775POPC   C2B44096  16.962  39.887   6.750
 7775POPC   C3B44097  16.963  39.871   7.050
 7775POPC   C4B44098  16.916  39.849   7.350
 7776POPC   NC344099   1.181  22.208   5.550
 7776POPC   PO444100   1.183  22.125   5.850
 7776POPC   GL144101   1.195  22.176   6.150
 7776POPC   GL244102   1.147  22.078   6.150
 7776POPC   C1A44103   1.183  22.189   6.450
 7776POPC   D2A44104   1.190  22.185   6.750
 7776POPC   C3A44105   1.248  22.160   7.050
 7776POPC   C4A44106   1.260  22.189   7.350
 7776POPC   C1B44107   1.025  22.039   6.450
 7776POPC   C2B44108   0.988  22.046   6.750
 7776POPC   C3B44109   1.038  22.049   7.050
 7776POPC   C4B44110   1.027  22.056   7.350
 7777POPC   NC344111  24.514  26.004   5.550
 7777POPC   PO444112  24.500  26.024   5.850
 7777POPC   GL144113  24.523  26.074   6.150
 7777POPC   GL244114  24.499  26.139   6.150
 7777POPC   C1A44115  24.521  26.002   6.450
 7777POPC   D2A44116  24.459  26.015   6.750
 7777POPC   C3A44117  24.512  26.054   7.050
 7777POPC   C4A44118  24.467  26.019   7.350
 7777POPC   C1B44119  24.404  26.276   6.450
 7777POPC   C2B44120  24.484  26.267   6.750
 7777POPC   C3B44121  24.407  26.275   7.050
 7777POPC   C4B44122  24.413  26.304   7.350
 7778POPC   NC344123  29.910   8.245   5.550
 7778POPC   PO444124  29.875   8.205   5.850
 7778POPC   GL144125  29.971   8.196   6.150
 7778POPC   GL244126  29.851   8.352   6.150
 7778POPC   C1A44127  29.878   8.236   6.450
 7778POPC   D2A44128  29.951   8.174   6.750
 7778POPC   C3A44129  29.890   8.230   7.050
 7778POPC   C4A44130  29.964   8.215   7.350
 7778POPC   C1B44131  29.748   8.450   6.450
 7778POPC   C2B44132  29.786   8.430   6.750
 7778POPC   C3B44133  29.819   8.441   7.050
 7778POPC   C4B44134  29.751   8.394   7.350
 7779POPC   NC344135  23.698  35.399   5.550
 7779POPC   PO444136  23.669  35.358   5.850
 7779POPC   GL144137  23.750  35.361   6.150
 7779POPC   GL244138  23.757  35.419   6.150
 7779POPC   C1A44139  23.753  35.320   6.450
 7779POPC   D2A44140  23.682  35.310   6.750
 7779POPC   C3A44141  23.722  35.319   7.050
 7779POPC   C4A44142  23.727  35.401   7.350
 7779POPC   C1B44143  23.825  35.529   6.450
 7779POPC   C2B44144  23.800  35.563   6.750
 7779POPC   C3B44145  23.815  35.526   7.050
 7779POPC   C4B44146  23.880  35.555   7.350
 7780POPC   NC344147  23.762  15.197   5.550
 7780POPC   PO444148  23.762  15.229   5.850
 7780POPC   GL144149  23.683  15.135   6.150
 7780POPC   GL244150  23.703  15.065   6.150
 7780POPC   C1A44151  23.715  15.138   6.450
 7780POPC   D2A44152  23.673  15.133   6.750
 7780POPC   C3A44153  23.686  15.213   7.050
 7780POPC   C4A44154  23.719  15.179   7.350
 7780POPC   C1B44155  23.692  14.909   6.450
 7780POPC   C2B44156  23.666  14.895   6.750
 7780POPC   C3B44157  23.669  14.917   7.050
 7780POPC   C4B44158  23.619  14.928   7.350
 7781POPC   NC344159  21.358  14.355   5.550
 7781POPC   PO444160  21.408  14.373   5.850
 7781POPC   GL144161  21.404  14.397   6.150
 7781POPC   GL244162  21.357  14.486   6.150
 7781POPC   C1A44163  21.412  14.432   6.450
 7781POPC   D2A44164  21.379  14.366   6.750
 7781POPC   C3A44165  21.391  14.450   7.050
 7781POPC   C4A44166  21.339  14.408   7.350
 7781POPC   C1B44167  21.202  14.604   6.450
 7781POPC   C2B44168  21.193  14.626   6.750
 7781POPC   C3B44169  21.215  14.611   7.050
 7781POPC   C4B44170  21.279  14.583   7.350
 7782POPC   NC344171  35.362  32.243   5.550
 7782POPC   PO444172  35.332  32.208   5.850
 7782POPC   GL144173  35.374  32.225   6.150
 7782POPC   GL244174  35.347  32.330   6.150
 7782POPC   C1A44175  35.316  32.252   6.450
 7782POPC   D2A44176  35.369  32.242   6.750
 7782POPC   C3A44177  35.372  32.241   7.050
 7782POPC   C4A44178  35.370  32.235   7.350
 7782POPC   C1B44179  35.410  32.470   6.450
 7782POPC   C2B44180  35.373  32.536   6.750
 7782POPC   C3B44181  35.438  32.464   7.050
 7782POPC   C4B44182  35.413  32.505   7.350
 7783POPC   NC344183   6.627   2.787   5.550
 7783POPC   PO444184   6.614   2.760   5.850
 7783POPC   GL144185   6.613   2.719   6.150
 7783POPC   GL244186   6.544   2.824   6.150
 7783POPC   C1A44187   6.610   2.787   6.450
 7783POPC   D2A44188   6.595   2.795   6.750
 7783POPC   C3A44189   6.685   2.768   7.050
 7783POPC   C4A44190   6.686   2.787   7.350
 7783POPC   C1B44191   6.403   2.877   6.450
 7783POPC   C2B44192   6.441   2.921   6.750
 7783POPC   C3B44193   6.478   2.900   7.050
 7783POPC   C4B44194   6.443   2.935   7.350
 7784POPC   NC344195  20.613  41.607   5.550
 7784POPC   PO444196  20.627  41.581   5.850
 7784POPC   GL144197  20.599  41.602   6.150
 7784POPC   GL244198  20.488  41.678   6.150
 7784POPC   C1A44199  20.655  41.550   6.450
 7784POPC   D2A44200  20.599  41.520   6.750
 7784POPC   C3A44201  20.623  41.588   7.050
 7784POPC   C4A44202  20.614  41.547   7.350
 7784POPC   C1B44203  20.403  41.696   6.450
 7784POPC   C2B44204  20.362  41.752   6.750
 7784POPC   C3B44205  20.406  41.697   7.050
 7784POPC   C4B44206  20.401  41.745   7.350
 7785POPC   NC344207   6.636  25.999   5.550
 7785POPC   PO444208   6.684  26.078   5.850
 7785POPC   GL144209   6.615  26.073   6.150
 7785POPC   GL244210   6.678  25.911   6.150
 7785POPC   C1A44211   6.677  26.033   6.450
 7785POPC   D2A44212   6.660  26.032   6.750
 7785POPC   C3A44213   6.652  26.091   7.050
 7785POPC   C4A44214   6.618  26.009   7.350
 7785POPC   C1B44215   6.707  25.830   6.450
 7785POPC   C2B44216   6.716  25.777   6.750
 7785POPC   C3B44217   6.680  25.815   7.050
 7785POPC   C4B44218   6.752  25.803   7.350
 7786POPC   NC344219  22.121   3.533   5.550
 7786POPC   PO444220  22.141   3.567   5.850
 7786POPC   GL144221  22.158   3.584   6.150
 7786POPC   GL244222  22.075   3.451   6.150
 7786POPC   C1A44223  22.160   3.541   6.450
 7786POPC   D2A44224  22.183   3.526   6.750
 7786POPC   C3A44225  22.174   3.497   7.050
 7786POPC   C4A44226  22.171   3.532   7.350
 7786POPC   C1B44227  22.021   3.410   6.450
 7786POPC   C2B44228  21.972   3.398   6.750
 7786POPC   C3B44229  21.945   3.379   7.050
 7786POPC   C4B44230  21.941   3.347   7.350
 7787POPC   NC344231  27.633  39.990   5.550
 7787POPC   PO444232  27.631  40.036   5.850
 7787POPC   GL144233  27.554  39.996   6.150
 7787POPC   GL244234  27.644  40.140   6.150
 7787POPC   C1A44235  27.605  39.998   6.450
 7787POPC   D2A44236  27.627  39.991   6.750
 7787POPC   C3A44237  27.635  39.969   7.050
 7787POPC   C4A44238  27.620  40.019   7.350
 7787POPC   C1B44239  27.782  40.186   6.450
 7787POPC   C2B44240  27.780  40.224   6.750
 7787POPC   C3B44241  27.725  40.197   7.050
 7787POPC   C4B44242  27.753  40.168   7.350
 7788POPC   NC344243  26.008  34.605   5.550
 7788POPC   PO444244  26.043  34.611   5.850
 7788POPC   GL144245  26.086  34.617   6.150
 7788POPC   GL244246  26.094  34.712   6.150
 7788POPC   C1A44247  26.014  34.603   6.450
 7788POPC   D2A44248  25.992  34.621   6.750
 7788POPC   C3A44249  26.041  34.594   7.050
 7788POPC   C4A44250  25.996  34.535   7.350
 7788POPC   C1B44251  26.159  34.752   6.450
 7788POPC   C2B44252  26.161  34.829   6.750
 7788POPC   C3B44253  26.141  34.756   7.050
 7788POPC   C4B44254  26.118  34.843   7.350
 7789POPC   NC344255  21.433  26.021   5.550
 7789POPC   PO444256  21.340  26.071   5.850
 7789POPC   GL144257  21.385  26.080   6.150
 7789POPC   GL244258  21.544  26.066   6.150
 7789POPC   C1A44259  21.377  26.007   6.450
 7789POPC   D2A44260  21.395  26.007   6.750
 7789POPC   C3A44261  21.379  26.065   7.050
 7789POPC   C4A44262  21.340  26.084   7.350
 7789POPC   C1B44263  21.595  26.064   6.450
 7789POPC   C2B44264  21.614  26.069   6.750
 7789POPC   C3B44265  21.675  26.057   7.050
 7789POPC   C4B44266  21.675  26.048   7.350
 7790POPC   NC344267  30.685   1.977   5.550
 7790POPC   PO444268  30.669   2.001   5.850
 7790POPC   GL144269  30.655   2.008   6.150
 7790POPC   GL244270  30.681   1.859   6.150
 7790POPC   C1A44271  30.733   2.025   6.450
 7790POPC   D2A44272  30.736   1.983   6.750
 7790POPC   C3A44273  30.720   1.984   7.050
 7790POPC   C4A44274  30.745   1.949   7.350
 7790POPC   C1B44275  30.615   1.718   6.450
 7790POPC   C2B44276  30.647   1.709   6.750
 7790POPC   C3B44277  30.624   1.738   7.050
 7790POPC   C4B44278  30.672   1.765   7.350
 7791POPC   NC344279  37.676  43.873   5.550
 7791POPC   PO444280  37.657  43.919   5.850
 7791POPC   GL144281  37.664  43.905   6.150
 7791POPC   GL244282  37.751  43.789   6.150
 7791POPC   C1A44283  37.686  43.905   6.450
 7791POPC   D2A44284  37.642  43.844   6.750
 7791POPC   C3A44285  37.655  43.849   7.050
 7791POPC   C4A44286  37.704  43.852   7.350
 7791POPC   C1B44287  37.742  43.704   6.450
 7791POPC   C2B44288  37.757  43.648   6.750
 7791POPC   C3B44289  37.727  43.606   7.050
 7791POPC   C4B44290  37.791  43.620   7.350
 7792POPC   NC344291  28.367  26.025   5.550
 7792POPC   PO444292  28.369  26.090   5.850
 7792POPC   GL144293  28.334  26.016   6.150
 7792POPC   GL244294  28.520  26.019   6.150
 7792POPC   C1A44295  28.408  26.042   6.450
 7792POPC   D2A44296  28.363  25.995   6.750
 7792POPC   C3A44297  28.407  26.068   7.050
 7792POPC   C4A44298  28.360  26.085   7.350
 7792POPC   C1B44299  28.583  25.993   6.450
 7792POPC   C2B44300  28.637  26.000   6.750
 7792POPC   C3B44301  28.638  26.040   7.050
 7792POPC   C4B44302  28.581  26.025   7.350
 7793POPC   NC344303   8.926  33.052   5.550
 7793POPC   PO444304   8.924  33.068   5.850
 7793POPC   GL144305   8.999  33.063   6.150
 7793POPC   GL244306   8.902  32.903   6.150
 7793POPC   C1A44307   8.979  33.048   6.450
 7793POPC   D2A44308   8.933  33.047   6.750
 7793POPC   C3A44309   9.008  33.056   7.050
 7793POPC   C4A44310   8.966  33.053   7.350
 7793POPC   C1B44311   8.843  32.840   6.450
 7793POPC   C2B44312   8.863  32.813   6.750
 7793POPC   C3B44313   8.882  32.802   7.050
 7793POPC   C4B44314   8.791  32.804   7.350
 7794POPC   NC344315  25.219  41.556   5.550
 7794POPC   PO444316  25.248  41.550   5.850
 7794POPC   GL144317  25.297  41.571   6.150
 7794POPC   GL244318  25.113  41.620   6.150
 7794POPC   C1A44319  25.228  41.543   6.450
 7794POPC   D2A44320  25.235  41.599   6.750
 7794POPC   C3A44321  25.287  41.583   7.050
 7794POPC   C4A44322  25.291  41.562   7.350
 7794POPC   C1B44323  24.987  41.620   6.450
 7794POPC   C2B44324  25.024  41.563   6.750
 7794POPC   C3B44325  24.994  41.575   7.050
 7794POPC   C4B44326  25.002  41.592   7.350
 7795POPC   NC344327  36.945  40.004   5.550
 7795POPC   PO444328  36.925  39.998   5.850
 7795POPC   GL144329  36.921  40.031   6.150
 7795POPC   GL244330  36.972  39.976   6.150
 7795POPC   C1A44331  36.943  39.989   6.450
 7795POPC   D2A44332  36.914  40.048   6.750
 7795POPC   C3A44333  36.857  40.055   7.050
 7795POPC   C4A44334  36.923  40.032   7.350
 7795POPC   C1B44335  37.095  39.899   6.450
 7795POPC   C2B44336  37.063  39.821   6.750
 7795POPC   C3B44337  37.125  39.817   7.050
 7795POPC   C4B44338  37.096  39.834   7.350
 7796POPC   NC344339  29.113  29.949   5.550
 7796POPC   PO444340  29.107  29.960   5.850
 7796POPC   GL144341  29.157  29.952   6.150
 7796POPC   GL244342  29.191  30.021   6.150
 7796POPC   C1A44343  29.147  29.957   6.450
 7796POPC   D2A44344  29.189  29.935   6.750
 7796POPC   C3A44345  29.101  29.893   7.050
 7796POPC   C4A44346  29.105  29.901   7.350
 7796POPC   C1B44347  29.204  30.204   6.450
 7796POPC   C2B44348  29.192  30.209   6.750
 7796POPC   C3B44349  29.112  30.188   7.050
 7796POPC   C4B44350  29.175  30.218   7.350
 7797POPC   NC344351   5.071  17.546   5.550
 7797POPC   PO444352   5.123  17.475   5.850
 7797POPC   GL144353   5.105  17.480   6.150
 7797POPC   GL244354   4.963  17.549   6.150
 7797POPC   C1A44355   5.072  17.511   6.450
 7797POPC   D2A44356   5.093  17.462   6.750
 7797POPC   C3A44357   5.139  17.529   7.050
 7797POPC   C4A44358   5.115  17.513   7.350
 7797POPC   C1B44359   4.908  17.648   6.450
 7797POPC   C2B44360   4.876  17.709   6.750
 7797POPC   C3B44361   4.886  17.690   7.050
 7797POPC   C4B44362   4.881  17.679   7.350
 7798POPC   NC344363  38.481  24.496   5.550
 7798POPC   PO444364  38.489  24.531   5.850
 7798POPC   GL144365  38.485  24.492   6.150
 7798POPC   GL244366  38.535  24.376   6.150
 7798POPC   C1A44367  38.419  24.467   6.450
 7798POPC   D2A44368  38.411  24.518   6.750
 7798POPC   C3A44369  38.438  24.488   7.050
 7798POPC   C4A44370  38.439  24.455   7.350
 7798POPC   C1B44371  38.506  24.256   6.450
 7798POPC   C2B44372  38.556  24.255   6.750
 7798POPC   C3B44373  38.514  24.217   7.050
 7798POPC   C4B44374  38.479  24.270   7.350
 7799POPC   NC344375  35.307   5.072   5.550
 7799POPC   PO444376  35.309   5.064   5.850
 7799POPC   GL144377  35.398   5.051   6.150
 7799POPC   GL244378  35.359   5.207   6.150
 7799POPC   C1A44379  35.353   5.073   6.450
 7799POPC   D2A44380  35.400   5.141   6.750
 7799POPC   C3A44381  35.374   5.068   7.050
 7799POPC   C4A44382  35.342   5.089   7.350
 7799POPC   C1B44383  35.355   5.365   6.450
 7799POPC   C2B44384  35.322   5.355   6.750
 7799POPC   C3B44385  35.406   5.293   7.050
 7799POPC   C4B44386  35.370   5.391   7.350
 7800POPC   NC344387   4.340  19.100   5.550
 7800POPC   PO444388   4.338  19.092   5.850
 7800POPC   GL144389   4.358  19.081   6.150
 7800POPC   GL244390   4.269  19.158   6.150
 7800POPC   C1A44391   4.332  19.050   6.450
 7800POPC   D2A44392   4.306  19.057   6.750
 7800POPC   C3A44393   4.338  19.079   7.050
 7800POPC   C4A44394   4.335  19.085   7.350
 7800POPC   C1B44395   4.259  19.289   6.450
 7800POPC   C2B44396   4.259  19.349   6.750
 7800POPC   C3B44397   4.324  19.343   7.050
 7800POPC   C4B44398   4.283  19.322   7.350
 7801POPC   NC344399  40.035   0.406   5.550
 7801POPC   PO444400  40.011   0.411   5.850
 7801POPC   GL144401  40.024   0.450   6.150
 7801POPC   GL244402  39.909   0.306   6.150
 7801POPC   C1A44403  40.027   0.468   6.450
 7801POPC   D2A44404  40.044   0.440   6.750
 7801POPC   C3A44405  39.987   0.396   7.050
 7801POPC   C4A44406  40.003   0.420   7.350
 7801POPC   C1B44407  39.869   0.225   6.450
 7801POPC   C2B44408  39.867   0.225   6.750
 7801POPC   C3B44409  39.891   0.204   7.050
 7801POPC   C4B44410  39.897   0.244   7.350
 7802POPC   NC344411   6.621  39.257   5.550
 7802POPC   PO444412   6.655  39.270   5.850
 7802POPC   GL144413   6.683  39.189   6.150
 7802POPC   GL244414   6.573  39.117   6.150
 7802POPC   C1A44415   6.654  39.273   6.450
 7802POPC   D2A44416   6.684  39.250   6.750
 7802POPC   C3A44417   6.624  39.201   7.050
 7802POPC   C4A44418   6.685  39.185   7.350
 7802POPC   C1B44419   6.468  39.102   6.450
 7802POPC   C2B44420   6.418  39.086   6.750
 7802POPC   C3B44421   6.484  39.012   7.050
 7802POPC   C4B44422   6.426  39.030   7.350
 7803POPC   NC344423  31.507  22.151   5.550
 7803POPC   PO444424  31.424  22.144   5.850
 7803POPC   GL144425  31.491  22.201   6.150
 7803POPC   GL244426  31.568  22.293   6.150
 7803POPC   C1A44427  31.447  22.185   6.450
 7803POPC   D2A44428  31.507  22.163   6.750
 7803POPC   C3A44429  31.505  22.160   7.050
 7803POPC   C4A44430  31.506  22.116   7.350
 7803POPC   C1B44431  31.556  22.376   6.450
 7803POPC   C2B44432  31.613  22.417   6.750
 7803POPC   C3B44433  31.554  22.397   7.050
 7803POPC   C4B44434  31.578  22.413   7.350
 7804POPC   NC344435  23.737  44.695   5.550
 7804POPC   PO444436  23.724  44.686   5.850
 7804POPC   GL144437  23.717  44.705   6.150
 7804POPC   GL244438  23.700  44.780   6.150
 7804POPC   C1A44439  23.703  44.678   6.450
 7804POPC   D2A44440  23.715  44.696   6.750
 7804POPC   C3A44441  23.725  44.618   7.050
 7804POPC   C4A44442  23.739  44.617   7.350
 7804POPC   C1B44443  23.773  44.892   6.450
 7804POPC   C2B44444  23.764  44.878   6.750
 7804POPC   C3B44445  23.771  44.887   7.050
 7804POPC   C4B44446  23.755  44.881   7.350
 7805POPC   NC344447  16.772   1.185   5.550
 7805POPC   PO444448  16.779   1.199   5.850
 7805POPC   GL144449  16.691   1.201   6.150
 7805POPC   GL244450  16.852   1.213   6.150
 7805POPC   C1A44451  16.698   1.171   6.450
 7805POPC   D2A44452  16.720   1.225   6.750
 7805POPC   C3A44453  16.734   1.247   7.050
 7805POPC   C4A44454  16.715   1.164   7.350
 7805POPC   C1B44455  16.976   1.159   6.450
 7805POPC   C2B44456  16.944   1.095   6.750
 7805POPC   C3B44457  17.012   1.138   7.050
 7805POPC   C4B44458  16.995   1.144   7.350
 7806POPC   NC344459   4.353   5.876   5.550
 7806POPC   PO444460   4.313   5.877   5.850
 7806POPC   GL144461   4.346   5.874   6.150
 7806POPC   GL244462   4.199   5.914   6.150
 7806POPC   C1A44463   4.348   5.866   6.450
 7806POPC   D2A44464   4.271   5.858   6.750
 7806POPC   C3A44465   4.310   5.838   7.050
 7806POPC   C4A44466   4.326   5.906   7.350
 7806POPC   C1B44467   4.078   5.877   6.450
 7806POPC   C2B44468   4.055   5.888   6.750
 7806POPC   C3B44469   4.049   5.949   7.050
 7806POPC   C4B44470   4.109   5.855   7.350
 7807POPC   NC344471  39.969  28.411   5.550
 7807POPC   PO444472  40.015  28.322   5.850
 7807POPC   GL144473  39.992  28.344   6.150
 7807POPC   GL244474  40.149  28.320   6.150
 7807POPC   C1A44475  39.965  28.416   6.450
 7807POPC   D2A44476  40.010  28.354   6.750
 7807POPC   C3A44477  40.042  28.397   7.050
 7807POPC   C4A44478  40.031  28.400   7.350
 7807POPC   C1B44479  40.249  28.261   6.450
 7807POPC   C2B44480  40.254  28.281   6.750
 7807POPC   C3B44481  40.241  28.302   7.050
 7807POPC   C4B44482  40.223  28.287   7.350
 7808POPC   NC344483  21.384   5.897   5.550
 7808POPC   PO444484  21.420   5.823   5.850
 7808POPC   GL144485  21.428   5.847   6.150
 7808POPC   GL244486  21.457   5.919   6.150
 7808POPC   C1A44487  21.337   5.864   6.450
 7808POPC   D2A44488  21.357   5.842   6.750
 7808POPC   C3A44489  21.347   5.836   7.050
 7808POPC   C4A44490  21.381   5.868   7.350
 7808POPC   C1B44491  21.585   6.005   6.450
 7808POPC   C2B44492  21.540   6.075   6.750
 7808POPC   C3B44493  21.605   6.065   7.050
 7808POPC   C4B44494  21.587   5.991   7.350
 7809POPC   NC344495  12.827  18.310   5.550
 7809POPC   PO444496  12.846  18.238   5.850
 7809POPC   GL144497  12.816  18.296   6.150
 7809POPC   GL244498  12.715  18.303   6.150
 7809POPC   C1A44499  12.899  18.287   6.450
 7809POPC   D2A44500  12.852  18.290   6.750
 7809POPC   C3A44501  12.820  18.269   7.050
 7809POPC   C4A44502  12.901  18.259   7.350
 7809POPC   C1B44503  12.618  18.221   6.450
 7809POPC   C2B44504  12.633  18.311   6.750
 7809POPC   C3B44505  12.607  18.263   7.050
 7809POPC   C4B44506  12.553  18.269   7.350
 7810POPC   NC344507  14.413  12.055   5.550
 7810POPC   PO444508  14.369  12.080   5.850
 7810POPC   GL144509  14.393  12.122   6.150
 7810POPC   GL244510  14.386  12.193   6.150
 7810POPC   C1A44511  14.440  12.031   6.450
 7810POPC   D2A44512  14.369  12.091   6.750
 7810POPC   C3A44513  14.425  12.091   7.050
 7810POPC   C4A44514  14.403  12.056   7.350
 7810POPC   C1B44515  14.322  12.259   6.450
 7810POPC   C2B44516  14.263  12.352   6.750
 7810POPC   C3B44517  14.337  12.353   7.050
 7810POPC   C4B44518  14.342  12.274   7.350
 7811POPC   NC344519   0.434  36.912   5.550
 7811POPC   PO444520   0.410  36.866   5.850
 7811POPC   GL144521   0.420  36.920   6.150
 7811POPC   GL244522   0.485  36.992   6.150
 7811POPC   C1A44523   0.392  36.900   6.450
 7811POPC   D2A44524   0.412  36.890   6.750
 7811POPC   C3A44525   0.488  36.884   7.050
 7811POPC   C4A44526   0.437  36.858   7.350
 7811POPC   C1B44527   0.507  37.102   6.450
 7811POPC   C2B44528   0.453  37.183   6.750
 7811POPC   C3B44529   0.457  37.111   7.050
 7811POPC   C4B44530   0.493  37.109   7.350
 7812POPC   NC344531   6.662  29.901   5.550
 7812POPC   PO444532   6.618  29.913   5.850
 7812POPC   GL144533   6.690  29.909   6.150
 7812POPC   GL244534   6.619  30.083   6.150
 7812POPC   C1A44535   6.632  29.902   6.450
 7812POPC   D2A44536   6.692  29.968   6.750
 7812POPC   C3A44537   6.678  29.939   7.050
 7812POPC   C4A44538   6.598  29.885   7.350
 7812POPC   C1B44539   6.710  30.158   6.450
 7812POPC   C2B44540   6.652  30.125   6.750
 7812POPC   C3B44541   6.652  30.119   7.050
 7812POPC   C4B44542   6.686  30.144   7.350
 7813POPC   NC344543  43.143  19.041   5.550
 7813POPC   PO444544  43.157  19.029   5.850
 7813POPC   GL144545  43.104  19.057   6.150
 7813POPC   GL244546  43.011  19.007   6.150
 7813POPC   C1A44547  43.101  19.022   6.450
 7813POPC   D2A44548  43.122  19.019   6.750
 7813POPC   C3A44549  43.116  19.018   7.050
 7813POPC   C4A44550  43.118  19.009   7.350
 7813POPC   C1B44551  42.911  18.834   6.450
 7813POPC   C2B44552  42.969  18.871   6.750
 7813POPC   C3B44553  42.987  18.853   7.050
 7813POPC   C4B44554  42.977  18.826   7.350
 7814POPC   NC344555  16.712  32.230   5.550
 7814POPC   PO444556  16.749  32.211   5.850
 7814POPC   GL144557  16.737  32.206   6.150
 7814POPC   GL244558  16.641  32.167   6.150
 7814POPC   C1A44559  16.766  32.227   6.450
 7814POPC   D2A44560  16.758  32.225   6.750
 7814POPC   C3A44561  16.744  32.264   7.050
 7814POPC   C4A44562  16.738  32.214   7.350
 7814POPC   C1B44563  16.622  32.039   6.450
 7814POPC   C2B44564  16.654  32.063   6.750
 7814POPC   C3B44565  16.634  32.051   7.050
 7814POPC   C4B44566  16.591  31.977   7.350
 7815POPC   NC344567  44.678  15.909   5.550
 7815POPC   PO444568  44.689  15.949   5.850
 7815POPC   GL144569  44.636  15.990   6.150
 7815POPC   GL244570  44.603  16.126   6.150
 7815POPC   C1A44571  44.680  15.996   6.450
 7815POPC   D2A44572  44.620  15.965   6.750
 7815POPC   C3A44573  44.695  15.952   7.050
 7815POPC   C4A44574  44.664  15.926   7.350
 7815POPC   C1B44575  44.593  16.218   6.450
 7815POPC   C2B44576  44.643  16.231   6.750
 7815POPC   C3B44577  44.620  16.211   7.050
 7815POPC   C4B44578  44.676  16.226   7.350
 7816POPC   NC344579  37.724  21.375   5.550
 7816POPC   PO444580  37.719  21.337   5.850
 7816POPC   GL144581  37.723  21.345   6.150
 7816POPC   GL244582  37.601  21.242   6.150
 7816POPC   C1A44583  37.666  21.376   6.450
 7816POPC   D2A44584  37.631  21.435   6.750
 7816POPC   C3A44585  37.640  21.363   7.050
 7816POPC   C4A44586  37.661  21.386   7.350
 7816POPC   C1B44587  37.629  21.103   6.450
 7816POPC   C2B44588  37.634  21.099   6.750
 7816POPC   C3B44589  37.567  21.133   7.050
 7816POPC   C4B44590  37.584  21.167   7.350
 7817POPC   NC344591  26.080  29.182   5.550
 7817POPC   PO444592  26.051  29.150   5.850
 7817POPC   GL144593  25.999  29.104   6.150
 7817POPC   GL244594  25.964  29.078   6.150
 7817POPC   C1A44595  26.091  29.186   6.450
 7817POPC   D2A44596  26.023  29.114   6.750
 7817POPC   C3A44597  26.006  29.170   7.050
 7817POPC   C4A44598  26.008  29.150   7.350
 7817POPC   C1B44599  25.856  28.907   6.450
 7817POPC   C2B44600  25.889  28.911   6.750
 7817POPC   C3B44601  25.922  28.938   7.050
 7817POPC   C4B44602  25.872  28.972   7.350
 7818POPC   NC344603  39.273  11.317   5.550
 7818POPC   PO444604  39.205  11.310   5.850
 7818POPC   GL144605  39.229  11.266   6.150
 7818POPC   GL244606  39.173  11.398   6.150
 7818POPC   C1A44607  39.260  11.328   6.450
 7818POPC   D2A44608  39.269  11.327   6.750
 7818POPC   C3A44609  39.269  11.260   7.050
 7818POPC   C4A44610  39.206  11.321   7.350
 7818POPC   C1B44611  39.050  11.475   6.450
 7818POPC   C2B44612  39.073  11.474   6.750
 7818POPC   C3B44613  39.042  11.502   7.050
 7818POPC   C4B44614  39.025  11.497   7.350
 7819POPC   NC344615  13.596  11.293   5.550
 7819POPC   PO444616  13.596  11.282   5.850
 7819POPC   GL144617  13.610  11.255   6.150
 7819POPC   GL244618  13.730  11.429   6.150
 7819POPC   C1A44619  13.624  11.349   6.450
 7819POPC   D2A44620  13.605  11.324   6.750
 7819POPC   C3A44621  13.600  11.262   7.050
 7819POPC   C4A44622  13.637  11.342   7.350
 7819POPC   C1B44623  13.772  11.482   6.450
 7819POPC   C2B44624  13.801  11.450   6.750
 7819POPC   C3B44625  13.825  11.501   7.050
 7819POPC   C4B44626  13.811  11.465   7.350
 7820POPC   NC344627   2.032   1.201   5.550
 7820POPC   PO444628   2.019   1.250   5.850
 7820POPC   GL144629   2.000   1.192   6.150
 7820POPC   GL244630   2.121   1.131   6.150
 7820POPC   C1A44631   2.030   1.172   6.450
 7820POPC   D2A44632   2.010   1.188   6.750
 7820POPC   C3A44633   2.033   1.220   7.050
 7820POPC   C4A44634   2.027   1.238   7.350
 7820POPC   C1B44635   2.236   1.125   6.450
 7820POPC   C2B44636   2.212   1.082   6.750
 7820POPC   C3B44637   2.187   1.162   7.050
 7820POPC   C4B44638   2.197   1.104   7.350
 7821POPC   NC344639  22.152  14.435   5.550
 7821POPC   PO444640  22.180  14.398   5.850
 7821POPC   GL144641  22.132  14.396   6.150
 7821POPC   GL244642  22.310  14.320   6.150
 7821POPC   C1A44643  22.126  14.406   6.450
 7821POPC   D2A44644  22.180  14.453   6.750
 7821POPC   C3A44645  22.125  14.439   7.050
 7821POPC   C4A44646  22.113  14.363   7.350
 7821POPC   C1B44647  22.445  14.286   6.450
 7821POPC   C2B44648  22.364  14.360   6.750
 7821POPC   C3B44649  22.414  14.302   7.050
 7821POPC   C4B44650  22.400  14.372   7.350
 7822POPC   NC344651  17.512   2.719   5.550
 7822POPC   PO444652  17.556   2.716   5.850
 7822POPC   GL144653  17.475   2.796   6.150
 7822POPC   GL244654  17.416   2.729   6.150
 7822POPC   C1A44655  17.556   2.793   6.450
 7822POPC   D2A44656  17.550   2.762   6.750
 7822POPC   C3A44657  17.547   2.776   7.050
 7822POPC   C4A44658  17.518   2.799   7.350
 7822POPC   C1B44659  17.306   2.809   6.450
 7822POPC   C2B44660  17.282   2.792   6.750
 7822POPC   C3B44661  17.242   2.818   7.050
 7822POPC   C4B44662  17.260   2.750   7.350
 7823POPC   NC344663   5.136  32.246   5.550
 7823POPC   PO444664   5.135  32.265   5.850
 7823POPC   GL144665   5.107  32.221   6.150
 7823POPC   GL244666   5.187  32.240   6.150
 7823POPC   C1A44667   5.101  32.214   6.450
 7823POPC   D2A44668   5.132  32.274   6.750
 7823POPC   C3A44669   5.109  32.257   7.050
 7823POPC   C4A44670   5.065  32.287   7.350
 7823POPC   C1B44671   5.320  32.213   6.450
 7823POPC   C2B44672   5.368  32.236   6.750
 7823POPC   C3B44673   5.384  32.195   7.050
 7823POPC   C4B44674   5.365  32.263   7.350
 7824POPC   NC344675  24.451   6.596   5.550
 7824POPC   PO444676  24.522   6.665   5.850
 7824POPC   GL144677  24.440   6.660   6.150
 7824POPC   GL244678  24.650   6.624   6.150
 7824POPC   C1A44679  24.521   6.633   6.450
 7824POPC   D2A44680  24.525   6.650   6.750
 7824POPC   C3A44681  24.452   6.668   7.050
 7824POPC   C4A44682  24.464   6.612   7.350
 7824POPC   C1B44683  24.696   6.627   6.450
 7824POPC   C2B44684  24.707   6.642   6.750
 7824POPC   C3B44685  24.712   6.614   7.050
 7824POPC   C4B44686  24.732   6.630   7.350
 7825POPC   NC344687  20.618  36.917   5.550
 7825POPC   PO444688  20.632  36.909   5.850
 7825POPC   GL144689  20.572  36.943   6.150
 7825POPC   GL244690  20.678  36.993   6.150
 7825POPC   C1A44691  20.581  36.895   6.450
 7825POPC   D2A44692  20.622  36.943   6.750
 7825POPC   C3A44693  20.608  36.902   7.050
 7825POPC   C4A44694  20.610  36.925   7.350
 7825POPC   C1B44695  20.697  37.183   6.450
 7825POPC   C2B44696  20.601  37.108   6.750
 7825POPC   C3B44697  20.664  37.112   7.050
 7825POPC   C4B44698  20.653  37.170   7.350
 7826POPC   NC344699  39.991   4.314   5.550
 7826POPC   PO444700  40.023   4.283   5.850
 7826POPC   GL144701  39.982   4.339   6.150
 7826POPC   GL244702  39.967   4.230   6.150
 7826POPC   C1A44703  39.980   4.272   6.450
 7826POPC   D2A44704  40.055   4.327   6.750
 7826POPC   C3A44705  39.997   4.330   7.050
 7826POPC   C4A44706  39.964   4.340   7.350
 7826POPC   C1B44707  39.996   4.107   6.450
 7826POPC   C2B44708  40.021   4.060   6.750
 7826POPC   C3B44709  39.940   4.050   7.050
 7826POPC   C4B44710  39.944   4.064   7.350
 7827POPC   NC344711  27.576   3.534   5.550
 7827POPC   PO444712  27.607   3.545   5.850
 7827POPC   GL144713  27.622   3.566   6.150
 7827POPC   GL244714  27.454   3.565   6.150
 7827POPC   C1A44715  27.607   3.550   6.450
 7827POPC   D2A44716  27.608   3.513   6.750
 7827POPC   C3A44717  27.590   3.538   7.050
 7827POPC   C4A44718  27.602   3.587   7.350
 7827POPC   C1B44719  27.385   3.580   6.450
 7827POPC   C2B44720  27.364   3.550   6.750
 7827POPC   C3B44721  27.384   3.524   7.050
 7827POPC   C4B44722  27.379   3.542   7.350
 7828POPC   NC344723  39.987  44.633   5.550
 7828POPC   PO444724  40.045  44.710   5.850
 7828POPC   GL144725  39.964  44.666   6.150
 7828POPC   GL244726  40.083  44.533   6.150
 7828POPC   C1A44727  39.969  44.687   6.450
 7828POPC   D2A44728  40.019  44.658   6.750
 7828POPC   C3A44729  39.965  44.622   7.050
 7828POPC   C4A44730  40.003  44.701   7.350
 7828POPC   C1B44731  40.126  44.435   6.450
 7828POPC   C2B44732  40.121  44.393   6.750
 7828POPC   C3B44733  40.078  44.437   7.050
 7828POPC   C4B44734  40.060  44.379   7.350
 7829POPC   NC344735  36.910  12.832   5.550
 7829POPC   PO444736  36.922  12.816   5.850
 7829POPC   GL144737  36.916  12.807   6.150
 7829POPC   GL244738  36.775  12.766   6.150
 7829POPC   C1A44739  36.882  12.803   6.450
 7829POPC   D2A44740  36.862  12.830   6.750
 7829POPC   C3A44741  36.886  12.823   7.050
 7829POPC   C4A44742  36.953  12.827   7.350
 7829POPC   C1B44743  36.685  12.623   6.450
 7829POPC   C2B44744  36.754  12.661   6.750
 7829POPC   C3B44745  36.746  12.692   7.050
 7829POPC   C4B44746  36.754  12.626   7.350
 7830POPC   NC344747  25.284  15.209   5.550
 7830POPC   PO444748  25.244  15.201   5.850
 7830POPC   GL144749  25.258  15.216   6.150
 7830POPC   GL244750  25.128  15.099   6.150
 7830POPC   C1A44751  25.261  15.160   6.450
 7830POPC   D2A44752  25.261  15.156   6.750
 7830POPC   C3A44753  25.240  15.197   7.050
 7830POPC   C4A44754  25.228  15.222   7.350
 7830POPC   C1B44755  25.056  14.997   6.450
 7830POPC   C2B44756  25.050  14.975   6.750
 7830POPC   C3B44757  25.060  15.008   7.050
 7830POPC   C4B44758  25.065  14.981   7.350
 7831POPC   NC344759  15.188  40.737   5.550
 7831POPC   PO444760  15.145  40.804   5.850
 7831POPC   GL144761  15.196  40.765   6.150
 7831POPC   GL244762  15.228  40.877   6.150
 7831POPC   C1A44763  15.131  40.735   6.450
 7831POPC   D2A44764  15.210  40.743   6.750
 7831POPC   C3A44765  15.142  40.752   7.050
 7831POPC   C4A44766  15.136  40.768   7.350
 7831POPC   C1B44767  15.382  40.926   6.450
 7831POPC   C2B44768  15.339  40.990   6.750
 7831POPC   C3B44769  15.335  40.939   7.050
 7831POPC   C4B44770  15.297  40.932   7.350
 7832POPC   NC344771  13.616  43.075   5.550
 7832POPC   PO444772  13.657  43.069   5.850
 7832POPC   GL144773  13.656  43.132   6.150
 7832POPC   GL244774  13.792  43.157   6.150
 7832POPC   C1A44775  13.652  43.085   6.450
 7832POPC   D2A44776  13.614  43.160   6.750
 7832POPC   C3A44777  13.659  43.155   7.050
 7832POPC   C4A44778  13.582  43.147   7.350
 7832POPC   C1B44779  13.824  43.202   6.450
 7832POPC   C2B44780  13.843  43.186   6.750
 7832POPC   C3B44781  13.836  43.219   7.050
 7832POPC   C4B44782  13.887  43.195   7.350
 7833POPC   NC344783  43.080  22.182   5.550
 7833POPC   PO444784  43.087  22.170   5.850
 7833POPC   GL144785  43.096  22.211   6.150
 7833POPC   GL244786  43.017  22.071   6.150
 7833POPC   C1A44787  43.156  22.115   6.450
 7833POPC   D2A44788  43.124  22.159   6.750
 7833POPC   C3A44789  43.105  22.141   7.050
 7833POPC   C4A44790  43.091  22.117   7.350
 7833POPC   C1B44791  43.019  21.948   6.450
 7833POPC   C2B44792  43.071  21.906   6.750
 7833POPC   C3B44793  42.988  21.912   7.050
 7833POPC   C4B44794  43.037  21.905   7.350
 7834POPC   NC344795  34.527   4.355   5.550
 7834POPC   PO444796  34.541   4.343   5.850
 7834POPC   GL144797  34.532   4.345   6.150
 7834POPC   GL244798  34.475   4.419   6.150
 7834POPC   C1A44799  34.561   4.278   6.450
 7834POPC   D2A44800  34.590   4.302   6.750
 7834POPC   C3A44801  34.538   4.360   7.050
 7834POPC   C4A44802  34.576   4.349   7.350
 7834POPC   C1B44803  34.453   4.550   6.450
 7834POPC   C2B44804  34.394   4.522   6.750
 7834POPC   C3B44805  34.440   4.467   7.050
 7834POPC   C4B44806  34.399   4.552   7.350
 7835POPC   NC344807  33.775  36.141   5.550
 7835POPC   PO444808  33.814  36.171   5.850
 7835POPC   GL144809  33.815  36.148   6.150
 7835POPC   GL244810  33.913  36.023   6.150
 7835POPC   C1A44811  33.779  36.081   6.450
 7835POPC   D2A44812  33.829  36.131   6.750
 7835POPC   C3A44813  33.819  36.116   7.050
 7835POPC   C4A44814  33.840  36.154   7.350
 7835POPC   C1B44815  34.001  35.983   6.450
 7835POPC   C2B44816  34.005  35.957   6.750
 7835POPC   C3B44817  33.955  35.896   7.050
 7835POPC   C4B44818  34.012  35.955   7.350
 7836POPC   NC344819  35.308  35.362   5.550
 7836POPC   PO444820  35.319  35.371   5.850
 7836POPC   GL144821  35.376  35.320   6.150
 7836POPC   GL244822  35.501  35.304   6.150
 7836POPC   C1A44823  35.397  35.374   6.450
 7836POPC   D2A44824  35.394  35.339   6.750
 7836POPC   C3A44825  35.378  35.331   7.050
 7836POPC   C4A44826  35.319  35.339   7.350
 7836POPC   C1B44827  35.585  35.315   6.450
 7836POPC   C2B44828  35.548  35.307   6.750
 7836POPC   C3B44829  35.567  35.326   7.050
 7836POPC   C4B44830  35.594  35.290   7.350
 7837POPC   NC344831  41.550   3.558   5.550
 7837POPC   PO444832  41.558   3.507   5.850
 7837POPC   GL144833  41.588   3.507   6.150
 7837POPC   GL244834  41.705   3.615   6.150
 7837POPC   C1A44835  41.522   3.530   6.450
 7837POPC   D2A44836  41.510   3.533   6.750
 7837POPC   C3A44837  41.540   3.537   7.050
 7837POPC   C4A44838  41.513   3.589   7.350
 7837POPC   C1B44839  41.820   3.602   6.450
 7837POPC   C2B44840  41.761   3.617   6.750
 7837POPC   C3B44841  41.816   3.645   7.050
 7837POPC   C4B44842  41.835   3.611   7.350
 7838POPC   NC344843  40.012  27.605   5.550
 7838POPC   PO444844  40.000  27.641   5.850
 7838POPC   GL144845  39.983  27.548   6.150
 7838POPC   GL244846  39.857  27.643   6.150
 7838POPC   C1A44847  39.986  27.557   6.450
 7838POPC   D2A44848  40.010  27.599   6.750
 7838POPC   C3A44849  40.051  27.550   7.050
 7838POPC   C4A44850  40.008  27.626   7.350
 7838POPC   C1B44851  39.725  27.600   6.450
 7838POPC   C2B44852  39.732  27.679   6.750
 7838POPC   C3B44853  39.741  27.587   7.050
 7838POPC   C4B44854  39.776  27.665   7.350
 7839POPC   NC344855  26.061   8.216   5.550
 7839POPC   PO444856  26.028   8.154   5.850
 7839POPC   GL144857  26.019   8.209   6.150
 7839POPC   GL244858  26.149   8.261   6.150
 7839POPC   C1A44859  25.993   8.197   6.450
 7839POPC   D2A44860  26.089   8.154   6.750
 7839POPC   C3A44861  26.065   8.172   7.050
 7839POPC   C4A44862  26.014   8.163   7.350
 7839POPC   C1B44863  26.215   8.331   6.450
 7839POPC   C2B44864  26.212   8.369   6.750
 7839POPC   C3B44865  26.254   8.398   7.050
 7839POPC   C4B44866  26.272   8.354   7.350
 7840POPC   NC344867   5.832   6.669   5.550
 7840POPC   PO444868   5.852   6.615   5.850
 7840POPC   GL144869   5.884   6.647   6.150
 7840POPC   GL244870   5.738   6.662   6.150
 7840POPC   C1A44871   5.907   6.634   6.450
 7840POPC   D2A44872   5.897   6.658   6.750
 7840POPC   C3A44873   5.841   6.663   7.050
 7840POPC   C4A44874   5.898   6.625   7.350
 7840POPC   C1B44875   5.677   6.791   6.450
 7840POPC   C2B44876   5.647   6.759   6.750
 7840POPC   C3B44877   5.621   6.757   7.050
 7840POPC   C4B44878   5.614   6.718   7.350
 7841POPC   NC344879  29.141   8.185   5.550
 7841POPC   PO444880  29.164   8.227   5.850
 7841POPC   GL144881  29.194   8.166   6.150
 7841POPC   GL244882  29.041   8.175   6.150
 7841POPC   C1A44883  29.172   8.204   6.450
 7841POPC   D2A44884  29.186   8.244   6.750
 7841POPC   C3A44885  29.099   8.193   7.050
 7841POPC   C4A44886  29.110   8.158   7.350
 7841POPC   C1B44887  28.902   8.229   6.450
 7841POPC   C2B44888  28.898   8.186   6.750
 7841POPC   C3B44889  28.924   8.218   7.050
 7841POPC   C4B44890  28.885   8.246   7.350
 7842POPC   NC344891   5.113  37.725   5.550
 7842POPC   PO444892   5.072  37.660   5.850
 7842POPC   GL144893   5.107  37.716   6.150
 7842POPC   GL244894   5.002  37.731   6.150
 7842POPC   C1A44895   5.077  37.660   6.450
 7842POPC   D2A44896   5.119  37.644   6.750
 7842POPC   C3A44897   5.116  37.718   7.050
 7842POPC   C4A44898   5.082  37.704   7.350
 7842POPC   C1B44899   4.827  37.774   6.450
 7842POPC   C2B44900   4.853  37.679   6.750
 7842POPC   C3B44901   4.872  37.709   7.050
 7842POPC   C4B44902   4.828  37.720   7.350
 7843POPC   NC344903  11.285  44.667   5.550
 7843POPC   PO444904  11.330  44.690   5.850
 7843POPC   GL144905  11.350  44.694   6.150
 7843POPC   GL244906  11.340  44.739   6.150
 7843POPC   C1A44907  11.345  44.616   6.450
 7843POPC   D2A44908  11.336  44.624   6.750
 7843POPC   C3A44909  11.309  44.680   7.050
 7843POPC   C4A44910  11.266  44.693   7.350
 7843POPC   C1B44911  11.267  44.931   6.450
 7843POPC   C2B44912  11.339  44.864   6.750
 7843POPC   C3B44913  11.331  44.867   7.050
 7843POPC   C4B44914  11.264  44.944   7.350
 7844POPC   NC344915  30.655  12.109   5.550
 7844POPC   PO444916  30.725  12.097   5.850
 7844POPC   GL144917  30.690  12.027   6.150
 7844POPC   GL244918  30.611  12.008   6.150
 7844POPC   C1A44919  30.695  12.099   6.450
 7844POPC   D2A44920  30.717  12.031   6.750
 7844POPC   C3A44921  30.669  12.040   7.050
 7844POPC   C4A44922  30.688  12.049   7.350
 7844POPC   C1B44923  30.556  11.819   6.450
 7844POPC   C2B44924  30.534  11.859   6.750
 7844POPC   C3B44925  30.626  11.861   7.050
 7844POPC   C4B44926  30.613  11.826   7.350
 7845POPC   NC344927  32.216  13.581   5.550
 7845POPC   PO444928  32.253  13.604   5.850
 7845POPC   GL144929  32.212  13.601   6.150
 7845POPC   GL244930  32.169  13.716   6.150
 7845POPC   C1A44931  32.259  13.591   6.450
 7845POPC   D2A44932  32.209  13.621   6.750
 7845POPC   C3A44933  32.285  13.619   7.050
 7845POPC   C4A44934  32.201  13.630   7.350
 7845POPC   C1B44935  32.144  13.808   6.450
 7845POPC   C2B44936  32.128  13.830   6.750
 7845POPC   C3B44937  32.184  13.900   7.050
 7845POPC   C4B44938  32.108  13.871   7.350
 7846POPC   NC344939   5.857  32.286   5.550
 7846POPC   PO444940   5.860  32.228   5.850
 7846POPC   GL144941   5.906  32.276   6.150
 7846POPC   GL244942   5.868  32.170   6.150
 7846POPC   C1A44943   5.891  32.283   6.450
 7846POPC   D2A44944   5.839  32.207   6.750
 7846POPC   C3A44945   5.853  32.270   7.050
 7846POPC   C4A44946   5.821  32.220   7.350
 7846POPC   C1B44947   5.903  32.057   6.450
 7846POPC   C2B44948   5.993  32.031   6.750
 7846POPC   C3B44949   5.997  32.051   7.050
 7846POPC   C4B44950   5.972  31.974   7.350
 7847POPC   NC344951  27.590   0.403   5.550
 7847POPC   PO444952  27.626   0.423   5.850
 7847POPC   GL144953  27.607   0.460   6.150
 7847POPC   GL244954  27.669   0.357   6.150
 7847POPC   C1A44955  27.555   0.439   6.450
 7847POPC   D2A44956  27.605   0.437   6.750
 7847POPC   C3A44957  27.567   0.406   7.050
 7847POPC   C4A44958  27.548   0.397   7.350
 7847POPC   C1B44959  27.769   0.292   6.450
 7847POPC   C2B44960  27.787   0.278   6.750
 7847POPC   C3B44961  27.790   0.238   7.050
 7847POPC   C4B44962  27.768   0.259   7.350
 7848POPC   NC344963   6.670  30.746   5.550
 7848POPC   PO444964   6.631  30.688   5.850
 7848POPC   GL144965   6.670  30.660   6.150
 7848POPC   GL244966   6.770  30.639   6.150
 7848POPC   C1A44967   6.617  30.721   6.450
 7848POPC   D2A44968   6.648  30.742   6.750
 7848POPC   C3A44969   6.660  30.743   7.050
 7848POPC   C4A44970   6.693  30.744   7.350
 7848POPC   C1B44971   6.801  30.487   6.450
 7848POPC   C2B44972   6.843  30.525   6.750
 7848POPC   C3B44973   6.799  30.458   7.050
 7848POPC   C4B44974   6.775  30.503   7.350
 7849POPC   NC344975   8.228  10.499   5.550
 7849POPC   PO444976   8.234  10.545   5.850
 7849POPC   GL144977   8.168  10.574   6.150
 7849POPC   GL244978   8.060  10.448   6.150
 7849POPC   C1A44979   8.151  10.495   6.450
 7849POPC   D2A44980   8.183  10.525   6.750
 7849POPC   C3A44981   8.213  10.508   7.050
 7849POPC   C4A44982   8.245  10.513   7.350
 7849POPC   C1B44983   8.000  10.376   6.450
 7849POPC   C2B44984   8.019  10.400   6.750
 7849POPC   C3B44985   7.956  10.355   7.050
 7849POPC   C4B44986   7.995  10.376   7.350
 7850POPC   NC344987  22.985  20.613   5.550
 7850POPC   PO444988  22.897  20.607   5.850
 7850POPC   GL144989  22.931  20.574   6.150
 7850POPC   GL244990  22.994  20.749   6.150
 7850POPC   C1A44991  22.925  20.582   6.450
 7850POPC   D2A44992  22.944  20.649   6.750
 7850POPC   C3A44993  22.917  20.654   7.050
 7850POPC   C4A44994  22.967  20.638   7.350
 7850POPC   C1B44995  23.069  20.851   6.450
 7850POPC   C2B44996  23.046  20.792   6.750
 7850POPC   C3B44997  23.051  20.878   7.050
 7850POPC   C4B44998  23.061  20.879   7.350
 7851POPC   NC344999  26.853  43.081   5.550
 7851POPC   PO445000  26.834  43.160   5.850
 7851POPC   GL145001  26.783  43.147   6.150
 7851POPC   GL245002  26.777  42.991   6.150
 7851POPC   C1A45003  26.789  43.135   6.450
 7851POPC   D2A45004  26.829  43.091   6.750
 7851POPC   C3A45005  26.834  43.130   7.050
 7851POPC   C4A45006  26.771  43.132   7.350
 7851POPC   C1B45007  26.854  42.900   6.450
 7851POPC   C2B45008  26.767  42.879   6.750
 7851POPC   C3B45009  26.852  42.841   7.050
 7851POPC   C4B45010  26.813  42.814   7.350
 7852POPC   NC345011  11.260  26.789   5.550
 7852POPC   PO445012  11.329  26.851   5.850
 7852POPC   GL145013  11.324  26.807   6.150
 7852POPC   GL245014  11.190  26.848   6.150
 7852POPC   C1A45015  11.323  26.792   6.450
 7852POPC   D2A45016  11.294  26.805   6.750
 7852POPC   C3A45017  11.324  26.831   7.050
 7852POPC   C4A45018  11.251  26.826   7.350
 7852POPC   C1B45019  11.113  26.969   6.450
 7852POPC   C2B45020  11.130  26.967   6.750
 7852POPC   C3B45021  11.057  26.967   7.050
 7852POPC   C4B45022  11.123  26.972   7.350
 7853POPC   NC345023  39.963  18.306   5.550
 7853POPC   PO445024  39.989  18.257   5.850
 7853POPC   GL145025  39.965  18.308   6.150
 7853POPC   GL245026  39.870  18.307   6.150
 7853POPC   C1A45027  40.028  18.240   6.450
 7853POPC   D2A45028  40.028  18.283   6.750
 7853POPC   C3A45029  40.048  18.249   7.050
 7853POPC   C4A45030  40.033  18.330   7.350
 7853POPC   C1B45031  39.761  18.254   6.450
 7853POPC   C2B45032  39.718  18.279   6.750
 7853POPC   C3B45033  39.755  18.208   7.050
 7853POPC   C4B45034  39.718  18.265   7.350
 7854POPC   NC345035  43.836  29.920   5.550
 7854POPC   PO445036  43.896  29.930   5.850
 7854POPC   GL145037  43.932  29.884   6.150
 7854POPC   GL245038  43.788  30.066   6.150
 7854POPC   C1A45039  43.916  29.920   6.450
 7854POPC   D2A45040  43.893  29.874   6.750
 7854POPC   C3A45041  43.918  29.892   7.050
 7854POPC   C4A45042  43.908  29.925   7.350
 7854POPC   C1B45043  43.789  30.164   6.450
 7854POPC   C2B45044  43.700  30.091   6.750
 7854POPC   C3B45045  43.777  30.159   7.050
 7854POPC   C4B45046  43.727  30.116   7.350
 7855POPC   NC345047  41.516  10.540   5.550
 7855POPC   PO445048  41.593  10.477   5.850
 7855POPC   GL145049  41.579  10.522   6.150
 7855POPC   GL245050  41.509  10.633   6.150
 7855POPC   C1A45051  41.595  10.572   6.450
 7855POPC   D2A45052  41.542  10.559   6.750
 7855POPC   C3A45053  41.531  10.544   7.050
 7855POPC   C4A45054  41.591  10.566   7.350
 7855POPC   C1B45055  41.397  10.701   6.450
 7855POPC   C2B45056  41.335  10.657   6.750
 7855POPC   C3B45057  41.339  10.706   7.050
 7855POPC   C4B45058  41.339  10.656   7.350
 7856POPC   NC345059  40.811  41.563   5.550
 7856POPC   PO445060  40.734  41.572   5.850
 7856POPC   GL145061  40.747  41.549   6.150
 7856POPC   GL245062  40.736  41.600   6.150
 7856POPC   C1A45063  40.758  41.559   6.450
 7856POPC   D2A45064  40.826  41.558   6.750
 7856POPC   C3A45065  40.791  41.566   7.050
 7856POPC   C4A45066  40.796  41.547   7.350
 7856POPC   C1B45067  40.614  41.695   6.450
 7856POPC   C2B45068  40.632  41.723   6.750
 7856POPC   C3B45069  40.628  41.771   7.050
 7856POPC   C4B45070  40.570  41.693   7.350
 7857POPC   NC345071   3.561  27.593   5.550
 7857POPC   PO445072   3.589  27.550   5.850
 7857POPC   GL145073   3.582  27.588   6.150
 7857POPC   GL245074   3.413  27.588   6.150
 7857POPC   C1A45075   3.493  27.559   6.450
 7857POPC   D2A45076   3.521  27.638   6.750
 7857POPC   C3A45077   3.525  27.628   7.050
 7857POPC   C4A45078   3.504  27.608   7.350
 7857POPC   C1B45079   3.311  27.576   6.450
 7857POPC   C2B45080   3.245  27.577   6.750
 7857POPC   C3B45081   3.288  27.566   7.050
 7857POPC   C4B45082   3.262  27.565   7.350
 7858POPC   NC345083  43.106  38.414   5.550
 7858POPC   PO445084  43.078  38.438   5.850
 7858POPC   GL145085  43.064  38.478   6.150
 7858POPC   GL245086  43.051  38.532   6.150
 7858POPC   C1A45087  43.154  38.465   6.450
 7858POPC   D2A45088  43.144  38.446   6.750
 7858POPC   C3A45089  43.102  38.487   7.050
 7858POPC   C4A45090  43.158  38.406   7.350
 7858POPC   C1B45091  42.995  38.723   6.450
 7858POPC   C2B45092  42.965  38.662   6.750
 7858POPC   C3B45093  42.968  38.650   7.050
 7858POPC   C4B45094  42.978  38.630   7.350
 7859POPC   NC345095  24.524  15.161   5.550
 7859POPC   PO445096  24.505  15.209   5.850
 7859POPC   GL145097  24.468  15.211   6.150
 7859POPC   GL245098  24.352  15.080   6.150
 7859POPC   C1A45099  24.487  15.155   6.450
 7859POPC   D2A45100  24.538  15.161   6.750
 7859POPC   C3A45101  24.489  15.200   7.050
 7859POPC   C4A45102  24.476  15.208   7.350
 7859POPC   C1B45103  24.318  15.007   6.450
 7859POPC   C2B45104  24.302  15.030   6.750
 7859POPC   C3B45105  24.226  15.035   7.050
 7859POPC   C4B45106  24.226  15.101   7.350
 7860POPC   NC345107  38.422  19.081   5.550
 7860POPC   PO445108  38.446  19.099   5.850
 7860POPC   GL145109  38.472  19.103   6.150
 7860POPC   GL245110  38.591  19.028   6.150
 7860POPC   C1A45111  38.428  19.042   6.450
 7860POPC   D2A45112  38.463  19.023   6.750
 7860POPC   C3A45113  38.450  19.015   7.050
 7860POPC   C4A45114  38.485  19.078   7.350
 7860POPC   C1B45115  38.698  19.003   6.450
 7860POPC   C2B45116  38.716  19.045   6.750
 7860POPC   C3B45117  38.750  19.058   7.050
 7860POPC   C4B45118  38.708  19.008   7.350
 7861POPC   NC345119  19.088  11.321   5.550
 7861POPC   PO445120  19.072  11.295   5.850
 7861POPC   GL145121  19.035  11.324   6.150
 7861POPC   GL245122  18.963  11.322   6.150
 7861POPC   C1A45123  19.061  11.271   6.450
 7861POPC   D2A45124  19.037  11.329   6.750
 7861POPC   C3A45125  19.038  11.296   7.050
 7861POPC   C4A45126  19.095  11.332   7.350
 7861POPC   C1B45127  18.818  11.303   6.450
 7861POPC   C2B45128  18.813  11.355   6.750
 7861POPC   C3B45129  18.823  11.322   7.050
 7861POPC   C4B45130  18.837  11.358   7.350
 7862POPC   NC345131  36.936   2.809   5.550
 7862POPC   PO445132  36.871   2.802   5.850
 7862POPC   GL145133  36.946   2.792   6.150
 7862POPC   GL245134  36.752   2.804   6.150
 7862POPC   C1A45135  36.918   2.752   6.450
 7862POPC   D2A45136  36.883   2.717   6.750
 7862POPC   C3A45137  36.863   2.787   7.050
 7862POPC   C4A45138  36.938   2.760   7.350
 7862POPC   C1B45139  36.709   2.911   6.450
 7862POPC   C2B45140  36.714   2.893   6.750
 7862POPC   C3B45141  36.689   2.890   7.050
 7862POPC   C4B45142  36.666   2.874   7.350
 7863POPC   NC345143  36.080  38.408   5.550
 7863POPC   PO445144  36.099  38.492   5.850
 7863POPC   GL145145  36.173  38.498   6.150
 7863POPC   GL245146  36.113  38.532   6.150
 7863POPC   C1A45147  36.176  38.496   6.450
 7863POPC   D2A45148  36.120  38.483   6.750
 7863POPC   C3A45149  36.159  38.468   7.050
 7863POPC   C4A45150  36.175  38.443   7.350
 7863POPC   C1B45151  36.140  38.671   6.450
 7863POPC   C2B45152  36.151  38.666   6.750
 7863POPC   C3B45153  36.128  38.726   7.050
 7863POPC   C4B45154  36.136  38.689   7.350
 7864POPC   NC345155  17.551   1.990   5.550
 7864POPC   PO445156  17.528   1.971   5.850
 7864POPC   GL145157  17.551   1.955   6.150
 7864POPC   GL245158  17.656   2.058   6.150
 7864POPC   C1A45159  17.537   1.956   6.450
 7864POPC   D2A45160  17.488   2.039   6.750
 7864POPC   C3A45161  17.518   1.955   7.050
 7864POPC   C4A45162  17.544   2.013   7.350
 7864POPC   C1B45163  17.764   2.014   6.450
 7864POPC   C2B45164  17.758   1.989   6.750
 7864POPC   C3B45165  17.772   2.002   7.050
 7864POPC   C4B45166  17.802   2.053   7.350
 7865POPC   NC345167  33.030   3.512   5.550
 7865POPC   PO445168  32.988   3.543   5.850
 7865POPC   GL145169  33.005   3.580   6.150
 7865POPC   GL245170  33.161   3.499   6.150
 7865POPC   C1A45171  32.991   3.523   6.450
 7865POPC   D2A45172  33.063   3.520   6.750
 7865POPC   C3A45173  33.008   3.570   7.050
 7865POPC   C4A45174  33.033   3.497   7.350
 7865POPC   C1B45175  33.245   3.524   6.450
 7865POPC   C2B45176  33.257   3.539   6.750
 7865POPC   C3B45177  33.258   3.544   7.050
 7865POPC   C4B45178  33.240   3.475   7.350
 7866POPC   NC345179  44.622  40.786   5.550
 7866POPC   PO445180  44.695  40.778   5.850
 7866POPC   GL145181  44.647  40.792   6.150
 7866POPC   GL245182  44.639  40.906   6.150
 7866POPC   C1A45183  44.634  40.828   6.450
 7866POPC   D2A45184  44.616  40.823   6.750
 7866POPC   C3A45185  44.626  40.796   7.050
 7866POPC   C4A45186  44.702  40.801   7.350
 7866POPC   C1B45187  44.508  41.019   6.450
 7866POPC   C2B45188  44.500  40.983   6.750
 7866POPC   C3B45189  44.555  41.005   7.050
 7866POPC   C4B45190  44.555  40.990   7.350
 7867POPC   NC345191  30.650  15.977   5.550
 7867POPC   PO445192  30.699  16.004   5.850
 7867POPC   GL145193  30.733  15.949   6.150
 7867POPC   GL245194  30.765  16.052   6.150
 7867POPC   C1A45195  30.673  16.004   6.450
 7867POPC   D2A45196  30.702  15.929   6.750
 7867POPC   C3A45197  30.678  15.990   7.050
 7867POPC   C4A45198  30.685  15.942   7.350
 7867POPC   C1B45199  30.790  16.169   6.450
 7867POPC   C2B45200  30.792  16.243   6.750
 7867POPC   C3B45201  30.763  16.178   7.050
 7867POPC   C4B45202  30.739  16.167   7.350
 7868POPC   NC345203  16.699  43.160   5.550
 7868POPC   PO445204  16.722  43.135   5.850
 7868POPC   GL145205  16.746  43.118   6.150
 7868POPC   GL245206  16.896  43.145   6.150
 7868POPC   C1A45207  16.716  43.093   6.450
 7868POPC   D2A45208  16.742  43.115   6.750
 7868POPC   C3A45209  16.728  43.158   7.050
 7868POPC   C4A45210  16.724  43.093   7.350
 7868POPC   C1B45211  16.983  43.115   6.450
 7868POPC   C2B45212  17.008  43.183   6.750
 7868POPC   C3B45213  16.933  43.132   7.050
 7868POPC   C4B45214  16.970  43.153   7.350
 7869POPC   NC345215  15.906  18.290   5.550
 7869POPC   PO445216  15.944  18.261   5.850
 7869POPC   GL145217  15.926  18.323   6.150
 7869POPC   GL245218  15.857  18.196   6.150
 7869POPC   C1A45219  15.924  18.313   6.450
 7869POPC   D2A45220  15.995  18.327   6.750
 7869POPC   C3A45221  15.931  18.290   7.050
 7869POPC   C4A45222  16.001  18.242   7.350
 7869POPC   C1B45223  15.747  18.076   6.450
 7869POPC   C2B45224  15.829  18.092   6.750
 7869POPC   C3B45225  15.766  18.069   7.050
 7869POPC   C4B45226  15.834  18.121   7.350
 7870POPC   NC345227   2.745   9.716   5.550
 7870POPC   PO445228   2.813   9.771   5.850
 7870POPC   GL145229   2.767   9.759   6.150
 7870POPC   GL245230   2.861   9.757   6.150
 7870POPC   C1A45231   2.791   9.788   6.450
 7870POPC   D2A45232   2.811   9.763   6.750
 7870POPC   C3A45233   2.743   9.702   7.050
 7870POPC   C4A45234   2.805   9.780   7.350
 7870POPC   C1B45235   2.983   9.747   6.450
 7870POPC   C2B45236   2.965   9.774   6.750
 7870POPC   C3B45237   2.980   9.771   7.050
 7870POPC   C4B45238   2.999   9.815   7.350
 7871POPC   NC345239  26.784  13.605   5.550
 7871POPC   PO445240  26.768  13.628   5.850
 7871POPC   GL145241  26.845  13.623   6.150
 7871POPC   GL245242  26.902  13.708   6.150
 7871POPC   C1A45243  26.818  13.622   6.450
 7871POPC   D2A45244  26.794  13.602   6.750
 7871POPC   C3A45245  26.781  13.632   7.050
 7871POPC   C4A45246  26.785  13.595   7.350
 7871POPC   C1B45247  27.064  13.707   6.450
 7871POPC   C2B45248  27.098  13.679   6.750
 7871POPC   C3B45249  27.078  13.720   7.050
 7871POPC   C4B45250  27.082  13.666   7.350
 7872POPC   NC345251  14.401  12.807   5.550
 7872POPC   PO445252  14.448  12.850   5.850
 7872POPC   GL145253  14.393  12.810   6.150
 7872POPC   GL245254  14.292  12.845   6.150
 7872POPC   C1A45255  14.429  12.863   6.450
 7872POPC   D2A45256  14.370  12.803   6.750
 7872POPC   C3A45257  14.449  12.810   7.050
 7872POPC   C4A45258  14.363  12.857   7.350
 7872POPC   C1B45259  14.153  12.912   6.450
 7872POPC   C2B45260  14.132  12.926   6.750
 7872POPC   C3B45261  14.187  12.889   7.050
 7872POPC   C4B45262  14.131  12.943   7.350
 7873POPC   NC345263  19.045  12.885   5.550
 7873POPC   PO445264  19.091  12.840   5.850
 7873POPC   GL145265  19.046  12.895   6.150
 7873POPC   GL245266  19.101  12.701   6.150
 7873POPC   C1A45267  19.075  12.825   6.450
 7873POPC   D2A45268  19.086  12.825   6.750
 7873POPC   C3A45269  19.046  12.836   7.050
 7873POPC   C4A45270  19.029  12.901   7.350
 7873POPC   C1B45271  19.179  12.623   6.450
 7873POPC   C2B45272  19.162  12.649   6.750
 7873POPC   C3B45273  19.212  12.618   7.050
 7873POPC   C4B45274  19.164  12.593   7.350
 7874POPC   NC345275  43.090  43.837   5.550
 7874POPC   PO445276  43.126  43.912   5.850
 7874POPC   GL145277  43.113  43.866   6.150
 7874POPC   GL245278  43.084  43.998   6.150
 7874POPC   C1A45279  43.082  43.898   6.450
 7874POPC   D2A45280  43.076  43.881   6.750
 7874POPC   C3A45281  43.085  43.907   7.050
 7874POPC   C4A45282  43.159  43.851   7.350
 7874POPC   C1B45283  43.064  44.117   6.450
 7874POPC   C2B45284  43.075  44.073   6.750
 7874POPC   C3B45285  42.989  44.140   7.050
 7874POPC   C4B45286  43.053  44.100   7.350
 7875POPC   NC345287   2.814  28.363   5.550
 7875POPC   PO445288   2.742  28.394   5.850
 7875POPC   GL145289   2.750  28.405   6.150
 7875POPC   GL245290   2.725  28.473   6.150
 7875POPC   C1A45291   2.729  28.377   6.450
 7875POPC   D2A45292   2.724  28.375   6.750
 7875POPC   C3A45293   2.720  28.384   7.050
 7875POPC   C4A45294   2.797  28.377   7.350
 7875POPC   C1B45295   2.679  28.633   6.450
 7875POPC   C2B45296   2.735  28.580   6.750
 7875POPC   C3B45297   2.721  28.593   7.050
 7875POPC   C4B45298   2.683  28.560   7.350
 7876POPC   NC345299  36.118  13.673   5.550
 7876POPC   PO445300  36.169  13.596   5.850
 7876POPC   GL145301  36.087  13.658   6.150
 7876POPC   GL245302  36.267  13.515   6.150
 7876POPC   C1A45303  36.165  13.652   6.450
 7876POPC   D2A45304  36.115  13.628   6.750
 7876POPC   C3A45305  36.169  13.586   7.050
 7876POPC   C4A45306  36.141  13.645   7.350
 7876POPC   C1B45307  36.332  13.482   6.450
 7876POPC   C2B45308  36.338  13.476   6.750
 7876POPC   C3B45309  36.306  13.463   7.050
 7876POPC   C4B45310  36.280  13.428   7.350
 7877POPC   NC345311  16.694   9.004   5.550
 7877POPC   PO445312  16.751   8.965   5.850
 7877POPC   GL145313  16.706   8.952   6.150
 7877POPC   GL245314  16.701   9.137   6.150
 7877POPC   C1A45315  16.741   8.966   6.450
 7877POPC   D2A45316  16.761   9.005   6.750
 7877POPC   C3A45317  16.722   8.988   7.050
 7877POPC   C4A45318  16.698   8.931   7.350
 7877POPC   C1B45319  16.764   9.250   6.450
 7877POPC   C2B45320  16.714   9.186   6.750
 7877POPC   C3B45321  16.763   9.197   7.050
 7877POPC   C4B45322  16.726   9.261   7.350
 7878POPC   NC345323  15.924  10.519   5.550
 7878POPC   PO445324  15.924  10.548   5.850
 7878POPC   GL145325  15.989  10.558   6.150
 7878POPC   GL245326  15.849  10.469   6.150
 7878POPC   C1A45327  15.978  10.571   6.450
 7878POPC   D2A45328  15.981  10.489   6.750
 7878POPC   C3A45329  15.954  10.521   7.050
 7878POPC   C4A45330  15.996  10.558   7.350
 7878POPC   C1B45331  15.687  10.474   6.450
 7878POPC   C2B45332  15.697  10.511   6.750
 7878POPC   C3B45333  15.721  10.463   7.050
 7878POPC   C4B45334  15.692  10.487   7.350
 7879POPC   NC345335  15.208  35.375   5.550
 7879POPC   PO445336  15.149  35.303   5.850
 7879POPC   GL145337  15.176  35.385   6.150
 7879POPC   GL245338  15.055  35.305   6.150
 7879POPC   C1A45339  15.155  35.390   6.450
 7879POPC   D2A45340  15.164  35.340   6.750
 7879POPC   C3A45341  15.149  35.372   7.050
 7879POPC   C4A45342  15.166  35.307   7.350
 7879POPC   C1B45343  14.998  35.254   6.450
 7879POPC   C2B45344  14.994  35.297   6.750
 7879POPC   C3B45345  14.908  35.205   7.050
 7879POPC   C4B45346  14.910  35.274   7.350
 7880POPC   NC345347  40.025   9.790   5.550
 7880POPC   PO445348  39.985   9.784   5.850
 7880POPC   GL145349  39.971   9.710   6.150
 7880POPC   GL245350  40.128   9.721   6.150
 7880POPC   C1A45351  39.958   9.741   6.450
 7880POPC   D2A45352  40.048   9.704   6.750
 7880POPC   C3A45353  39.988   9.770   7.050
 7880POPC   C4A45354  40.055   9.703   7.350
 7880POPC   C1B45355  40.170   9.616   6.450
 7880POPC   C2B45356  40.219   9.617   6.750
 7880POPC   C3B45357  40.266   9.586   7.050
 7880POPC   C4B45358  40.182   9.617   7.350
 7881POPC   NC345359   6.636  33.812   5.550
 7881POPC   PO445360   6.614  33.772   5.850
 7881POPC   GL145361   6.677  33.780   6.150
 7881POPC   GL245362   6.768  33.914   6.150
 7881POPC   C1A45363   6.627  33.843   6.450
 7881POPC   D2A45364   6.600  33.803   6.750
 7881POPC   C3A45365   6.640  33.783   7.050
 7881POPC   C4A45366   6.672  33.800   7.350
 7881POPC   C1B45367   6.846  33.997   6.450
 7881POPC   C2B45368   6.805  33.917   6.750
 7881POPC   C3B45369   6.829  33.937   7.050
 7881POPC   C4B45370   6.850  33.910   7.350
 7882POPC   NC345371  23.709  33.789   5.550
 7882POPC   PO445372  23.702  33.844   5.850
 7882POPC   GL145373  23.741  33.750   6.150
 7882POPC   GL245374  23.812  33.712   6.150
 7882POPC   C1A45375  23.718  33.755   6.450
 7882POPC   D2A45376  23.740  33.779   6.750
 7882POPC   C3A45377  23.737  33.823   7.050
 7882POPC   C4A45378  23.704  33.775   7.350
 7882POPC   C1B45379  23.981  33.736   6.450
 7882POPC   C2B45380  23.986  33.738   6.750
 7882POPC   C3B45381  23.912  33.740   7.050
 7882POPC   C4B45382  23.987  33.654   7.350
 7883POPC   NC345383  20.589  22.930   5.550
 7883POPC   PO445384  20.619  22.959   5.850
 7883POPC   GL145385  20.645  22.955   6.150
 7883POPC   GL245386  20.496  22.810   6.150
 7883POPC   C1A45387  20.625  22.987   6.450
 7883POPC   D2A45388  20.594  22.931   6.750
 7883POPC   C3A45389  20.655  22.930   7.050
 7883POPC   C4A45390  20.609  22.982   7.350
 7883POPC   C1B45391  20.488  22.710   6.450
 7883POPC   C2B45392  20.506  22.726   6.750
 7883POPC   C3B45393  20.469  22.770   7.050
 7883POPC   C4B45394  20.487  22.749   7.350
 7884POPC   NC345395  15.996  29.128   5.550
 7884POPC   PO445396  15.910  29.188   5.850
 7884POPC   GL145397  15.927  29.109   6.150
 7884POPC   GL245398  15.926  29.003   6.150
 7884POPC   C1A45399  15.995  29.123   6.450
 7884POPC   D2A45400  15.973  29.153   6.750
 7884POPC   C3A45401  15.961  29.131   7.050
 7884POPC   C4A45402  15.910  29.116   7.350
 7884POPC   C1B45403  15.942  28.893   6.450
 7884POPC   C2B45404  16.023  28.870   6.750
 7884POPC   C3B45405  16.021  28.926   7.050
 7884POPC   C4B45406  15.975  28.905   7.350
 7885POPC   NC345407   1.997  32.267   5.550
 7885POPC   PO445408   1.976  32.229   5.850
 7885POPC   GL145409   2.019  32.269   6.150
 7885POPC   GL245410   1.930  32.132   6.150
 7885POPC   C1A45411   1.978  32.211   6.450
 7885POPC   D2A45412   1.949  32.281   6.750
 7885POPC   C3A45413   2.034  32.238   7.050
 7885POPC   C4A45414   2.015  32.281   7.350
 7885POPC   C1B45415   1.915  31.969   6.450
 7885POPC   C2B45416   1.944  31.967   6.750
 7885POPC   C3B45417   1.971  31.961   7.050
 7885POPC   C4B45418   1.935  32.036   7.350
 7886POPC   NC345419   5.070  12.071   5.550
 7886POPC   PO445420   5.060  12.044   5.850
 7886POPC   GL145421   5.058  12.114   6.150
 7886POPC   GL245422   5.063  11.965   6.150
 7886POPC   C1A45423   5.125  12.077   6.450
 7886POPC   D2A45424   5.110  12.083   6.750
 7886POPC   C3A45425   5.125  12.076   7.050
 7886POPC   C4A45426   5.063  12.084   7.350
 7886POPC   C1B45427   5.070  11.813   6.450
 7886POPC   C2B45428   5.080  11.792   6.750
 7886POPC   C3B45429   5.058  11.803   7.050
 7886POPC   C4B45430   5.098  11.812   7.350
 7887POPC   NC345431   1.188  21.372   5.550
 7887POPC   PO445432   1.217  21.341   5.850
 7887POPC   GL145433   1.187  21.350   6.150
 7887POPC   GL245434   1.218  21.518   6.150
 7887POPC   C1A45435   1.211  21.379   6.450
 7887POPC   D2A45436   1.200  21.419   6.750
 7887POPC   C3A45437   1.190  21.374   7.050
 7887POPC   C4A45438   1.180  21.383   7.350
 7887POPC   C1B45439   1.149  21.669   6.450
 7887POPC   C2B45440   1.103  21.611   6.750
 7887POPC   C3B45441   1.099  21.657   7.050
 7887POPC   C4B45442   1.098  21.588   7.350
 7888POPC   NC345443  22.971  36.902   5.550
 7888POPC   PO445444  22.985  36.873   5.850
 7888POPC   GL145445  22.947  36.872   6.150
 7888POPC   GL245446  22.812  36.904   6.150
 7888POPC   C1A45447  22.978  36.890   6.450
 7888POPC   D2A45448  22.920  36.894   6.750
 7888POPC   C3A45449  22.930  36.920   7.050
 7888POPC   C4A45450  22.964  36.914   7.350
 7888POPC   C1B45451  22.647  36.792   6.450
 7888POPC   C2B45452  22.646  36.876   6.750
 7888POPC   C3B45453  22.680  36.818   7.050
 7888POPC   C4B45454  22.648  36.841   7.350
 7889POPC   NC345455  14.442  11.327   5.550
 7889POPC   PO445456  14.417  11.258   5.850
 7889POPC   GL145457  14.388  11.293   6.150
 7889POPC   GL245458  14.315  11.408   6.150
 7889POPC   C1A45459  14.412  11.265   6.450
 7889POPC   D2A45460  14.422  11.301   6.750
 7889POPC   C3A45461  14.363  11.258   7.050
 7889POPC   C4A45462  14.427  11.299   7.350
 7889POPC   C1B45463  14.227  11.473   6.450
 7889POPC   C2B45464  14.243  11.482   6.750
 7889POPC   C3B45465  14.211  11.452   7.050
 7889POPC   C4B45466  14.239  11.516   7.350
 7890POPC   NC345467  31.465  32.244   5.550
 7890POPC   PO445468  31.500  32.247   5.850
 7890POPC   GL145469  31.480  32.201   6.150
 7890POPC   GL245470  31.320  32.202   6.150
 7890POPC   C1A45471  31.451  32.283   6.450
 7890POPC   D2A45472  31.468  32.236   6.750
 7890POPC   C3A45473  31.458  32.255   7.050
 7890POPC   C4A45474  31.448  32.270   7.350
 7890POPC   C1B45475  31.230  32.279   6.450
 7890POPC   C2B45476  31.180  32.270   6.750
 7890POPC   C3B45477  31.260  32.264   7.050
 7890POPC   C4B45478  31.197  32.239   7.350
 7891POPC   NC345479  12.879  38.499   5.550
 7891POPC   PO445480  12.849  38.485   5.850
 7891POPC   GL145481  12.888  38.414   6.150
 7891POPC   GL245482  12.759  38.566   6.150
 7891POPC   C1A45483  12.883  38.449   6.450
 7891POPC   D2A45484  12.871  38.436   6.750
 7891POPC   C3A45485  12.891  38.441   7.050
 7891POPC   C4A45486  12.899  38.483   7.350
 7891POPC   C1B45487  12.803  38.641   6.450
 7891POPC   C2B45488  12.742  38.669   6.750
 7891POPC   C3B45489  12.751  38.656   7.050
 7891POPC   C4B45490  12.739  38.687   7.350
 7892POPC   NC345491   2.745  19.016   5.550
 7892POPC   PO445492   2.747  19.091   5.850
 7892POPC   GL145493   2.727  19.041   6.150
 7892POPC   GL245494   2.653  19.021   6.150
 7892POPC   C1A45495   2.757  19.076   6.450
 7892POPC   D2A45496   2.765  19.028   6.750
 7892POPC   C3A45497   2.796  19.022   7.050
 7892POPC   C4A45498   2.747  19.082   7.350
 7892POPC   C1B45499   2.532  19.049   6.450
 7892POPC   C2B45500   2.486  18.996   6.750
 7892POPC   C3B45501   2.531  19.053   7.050
 7892POPC   C4B45502   2.541  19.011   7.350
 7893POPC   NC345503   7.469  27.595   5.550
 7893POPC   PO445504   7.395  27.606   5.850
 7893POPC   GL145505   7.429  27.581   6.150
 7893POPC   GL245506   7.324  27.443   6.150
 7893POPC   C1A45507   7.418  27.612   6.450
 7893POPC   D2A45508   7.467  27.610   6.750
 7893POPC   C3A45509   7.401  27.612   7.050
 7893POPC   C4A45510   7.415  27.611   7.350
 7893POPC   C1B45511   7.310  27.357   6.450
 7893POPC   C2B45512   7.330  27.411   6.750
 7893POPC   C3B45513   7.330  27.377   7.050
 7893POPC   C4B45514   7.269  27.419   7.350
 7894POPC   NC345515  40.821  18.332   5.550
 7894POPC   PO445516  40.750  18.262   5.850
 7894POPC   GL145517  40.804  18.288   6.150
 7894POPC   GL245518  40.790  18.207   6.150
 7894POPC   C1A45519  40.755  18.264   6.450
 7894POPC   D2A45520  40.826  18.306   6.750
 7894POPC   C3A45521  40.765  18.332   7.050
 7894POPC   C4A45522  40.800  18.317   7.350
 7894POPC   C1B45523  40.746  18.095   6.450
 7894POPC   C2B45524  40.683  18.044   6.750
 7894POPC   C3B45525  40.672  18.078   7.050
 7894POPC   C4B45526  40.739  18.037   7.350
 7895POPC   NC345527  28.359  15.149   5.550
 7895POPC   PO445528  28.342  15.171   5.850
 7895POPC   GL145529  28.345  15.153   6.150
 7895POPC   GL245530  28.304  15.279   6.150
 7895POPC   C1A45531  28.326  15.175   6.450
 7895POPC   D2A45532  28.345  15.144   6.750
 7895POPC   C3A45533  28.344  15.177   7.050
 7895POPC   C4A45534  28.406  15.170   7.350
 7895POPC   C1B45535  28.176  15.431   6.450
 7895POPC   C2B45536  28.228  15.396   6.750
 7895POPC   C3B45537  28.205  15.368   7.050
 7895POPC   C4B45538  28.230  15.366   7.350
 7896POPC   NC345539  33.043  20.642   5.550
 7896POPC   PO445540  33.015  20.634   5.850
 7896POPC   GL145541  33.046  20.562   6.150
 7896POPC   GL245542  33.015  20.727   6.150
 7896POPC   C1A45543  32.981  20.620   6.450
 7896POPC   D2A45544  33.046  20.578   6.750
 7896POPC   C3A45545  33.021  20.615   7.050
 7896POPC   C4A45546  33.012  20.617   7.350
 7896POPC   C1B45547  33.006  20.883   6.450
 7896POPC   C2B45548  33.075  20.819   6.750
 7896POPC   C3B45549  32.996  20.884   7.050
 7896POPC   C4B45550  32.980  20.872   7.350
 7897POPC   NC345551  11.265  29.872   5.550
 7897POPC   PO445552  11.282  29.933   5.850
 7897POPC   GL145553  11.337  29.952   6.150
 7897POPC   GL245554  11.201  29.872   6.150
 7897POPC   C1A45555  11.325  29.916   6.450
 7897POPC   D2A45556  11.330  29.887   6.750
 7897POPC   C3A45557  11.284  29.902   7.050
 7897POPC   C4A45558  11.285  29.934   7.350
 7897POPC   C1B45559  11.008  29.947   6.450
 7897POPC   C2B45560  11.056  29.877   6.750
 7897POPC   C3B45561  11.098  29.898   7.050
 7897POPC   C4B45562  11.064  29.933   7.350
 7898POPC   NC345563   9.736  25.290   5.550
 7898POPC   PO445564   9.719  25.289   5.850
 7898POPC   GL145565   9.787  25.253   6.150
 7898POPC   GL245566   9.751  25.135   6.150
 7898POPC   C1A45567   9.712  25.282   6.450
 7898POPC   D2A45568   9.762  25.268   6.750
 7898POPC   C3A45569   9.715  25.296   7.050
 7898POPC   C4A45570   9.773  25.299   7.350
 7898POPC   C1B45571   9.724  24.995   6.450
 7898POPC   C2B45572   9.785  25.043   6.750
 7898POPC   C3B45573   9.728  25.030   7.050
 7898POPC   C4B45574   9.737  24.998   7.350
 7899POPC   NC345575  18.317  39.197   5.550
 7899POPC   PO445576  18.327  39.207   5.850
 7899POPC   GL145577  18.236  39.265   6.150
 7899POPC   GL245578  18.258  39.360   6.150
 7899POPC   C1A45579  18.289  39.257   6.450
 7899POPC   D2A45580  18.311  39.245   6.750
 7899POPC   C3A45581  18.332  39.202   7.050
 7899POPC   C4A45582  18.247  39.260   7.350
 7899POPC   C1B45583  18.166  39.496   6.450
 7899POPC   C2B45584  18.167  39.423   6.750
 7899POPC   C3B45585  18.207  39.476   7.050
 7899POPC   C4B45586  18.256  39.440   7.350
 7900POPC   NC345587  33.029  19.025   5.550
 7900POPC   PO445588  32.983  19.037   5.850
 7900POPC   GL145589  33.003  19.101   6.150
 7900POPC   GL245590  33.018  19.156   6.150
 7900POPC   C1A45591  33.067  19.075   6.450
 7900POPC   D2A45592  33.007  19.074   6.750
 7900POPC   C3A45593  33.013  19.034   7.050
 7900POPC   C4A45594  33.039  19.051   7.350
 7900POPC   C1B45595  33.072  19.266   6.450
 7900POPC   C2B45596  33.070  19.340   6.750
 7900POPC   C3B45597  33.094  19.269   7.050
 7900POPC   C4B45598  33.076  19.285   7.350
 7901POPC   NC345599  29.156  34.602   5.550
 7901POPC   PO445600  29.186  34.621   5.850
 7901POPC   GL145601  29.121  34.583   6.150
 7901POPC   GL245602  29.132  34.747   6.150
 7901POPC   C1A45603  29.179  34.544   6.450
 7901POPC   D2A45604  29.177  34.601   6.750
 7901POPC   C3A45605  29.116  34.566   7.050
 7901POPC   C4A45606  29.147  34.527   7.350
 7901POPC   C1B45607  29.188  34.856   6.450
 7901POPC   C2B45608  29.118  34.819   6.750
 7901POPC   C3B45609  29.137  34.823   7.050
 7901POPC   C4B45610  29.138  34.800   7.350
 7902POPC   NC345611   5.100  31.461   5.550
 7902POPC   PO445612   5.056  31.442   5.850
 7902POPC   GL145613   5.110  31.437   6.150
 7902POPC   GL245614   5.017  31.392   6.150
 7902POPC   C1A45615   5.110  31.452   6.450
 7902POPC   D2A45616   5.058  31.451   6.750
 7902POPC   C3A45617   5.113  31.451   7.050
 7902POPC   C4A45618   5.114  31.439   7.350
 7902POPC   C1B45619   4.929  31.298   6.450
 7902POPC   C2B45620   4.910  31.250   6.750
 7902POPC   C3B45621   4.914  31.287   7.050
 7902POPC   C4B45622   4.885  31.276   7.350
 7903POPC   NC345623  11.301  21.416   5.550
 7903POPC   PO445624  11.297  21.417   5.850
 7903POPC   GL145625  11.301  21.366   6.150
 7903POPC   GL245626  11.407  21.324   6.150
 7903POPC   C1A45627  11.330  21.396   6.450
 7903POPC   D2A45628  11.291  21.376   6.750
 7903POPC   C3A45629  11.299  21.373   7.050
 7903POPC   C4A45630  11.280  21.399   7.350
 7903POPC   C1B45631  11.531  21.339   6.450
 7903POPC   C2B45632  11.567  21.264   6.750
 7903POPC   C3B45633  11.537  21.321   7.050
 7903POPC   C4B45634  11.519  21.290   7.350
 7904POPC   NC345635   1.211  15.993   5.550
 7904POPC   PO445636   1.201  16.003   5.850
 7904POPC   GL145637   1.251  15.935   6.150
 7904POPC   GL245638   1.347  15.909   6.150
 7904POPC   C1A45639   1.201  16.003   6.450
 7904POPC   D2A45640   1.229  15.915   6.750
 7904POPC   C3A45641   1.230  15.995   7.050
 7904POPC   C4A45642   1.214  15.905   7.350
 7904POPC   C1B45643   1.378  15.780   6.450
 7904POPC   C2B45644   1.407  15.822   6.750
 7904POPC   C3B45645   1.438  15.754   7.050
 7904POPC   C4B45646   1.391  15.837   7.350
 7905POPC   NC345647   3.589   0.438   5.550
 7905POPC   PO445648   3.591   0.437   5.850
 7905POPC   GL145649   3.509   0.483   6.150
 7905POPC   GL245650   3.580   0.335   6.150
 7905POPC   C1A45651   3.524   0.415   6.450
 7905POPC   D2A45652   3.530   0.467   6.750
 7905POPC   C3A45653   3.537   0.398   7.050
 7905POPC   C4A45654   3.524   0.450   7.350
 7905POPC   C1B45655   3.517   0.209   6.450
 7905POPC   C2B45656   3.499   0.146   6.750
 7905POPC   C3B45657   3.562   0.176   7.050
 7905POPC   C4B45658   3.595   0.171   7.350
 7906POPC   NC345659   5.826  29.888   5.550
 7906POPC   PO445660   5.839  29.927   5.850
 7906POPC   GL145661   5.823  29.969   6.150
 7906POPC   GL245662   5.774  30.044   6.150
 7906POPC   C1A45663   5.888  29.949   6.450
 7906POPC   D2A45664   5.897  29.925   6.750
 7906POPC   C3A45665   5.850  29.913   7.050
 7906POPC   C4A45666   5.888  29.906   7.350
 7906POPC   C1B45667   5.728  30.130   6.450
 7906POPC   C2B45668   5.787  30.174   6.750
 7906POPC   C3B45669   5.766  30.137   7.050
 7906POPC   C4B45670   5.781  30.119   7.350
 7907POPC   NC345671  36.130  29.951   5.550
 7907POPC   PO445672  36.089  29.873   5.850
 7907POPC   GL145673  36.140  29.942   6.150
 7907POPC   GL245674  36.003  29.924   6.150
 7907POPC   C1A45675  36.131  29.896   6.450
 7907POPC   D2A45676  36.099  29.918   6.750
 7907POPC   C3A45677  36.127  29.886   7.050
 7907POPC   C4A45678  36.146  29.918   7.350
 7907POPC   C1B45679  35.885  29.938   6.450
 7907POPC   C2B45680  35.873  29.900   6.750
 7907POPC   C3B45681  35.893  29.923   7.050
 7907POPC   C4B45682  35.872  29.901   7.350
 7908POPC   NC345683  16.734  12.122   5.550
 7908POPC   PO445684  16.719  12.118   5.850
 7908POPC   GL145685  16.739  12.067   6.150
 7908POPC   GL245686  16.822  12.101   6.150
 7908POPC   C1A45687  16.737  12.036   6.450
 7908POPC   D2A45688  16.698  12.114   6.750
 7908POPC   C3A45689  16.701  12.099   7.050
 7908POPC   C4A45690  16.755  12.122   7.350
 7908POPC   C1B45691  17.018  12.148   6.450
 7908POPC   C2B45692  17.011  12.154   6.750
 7908POPC   C3B45693  16.986  12.109   7.050
 7908POPC   C4B45694  16.976  12.130   7.350
 7909POPC   NC345695  15.148  29.894   5.550
 7909POPC   PO445696  15.180  29.939   5.850
 7909POPC   GL145697  15.144  29.967   6.150
 7909POPC   GL245698  15.280  29.955   6.150
 7909POPC   C1A45699  15.130  29.878   6.450
 7909POPC   D2A45700  15.227  29.946   6.750
 7909POPC   C3A45701  15.177  29.905   7.050
 7909POPC   C4A45702  15.165  29.951   7.350
 7909POPC   C1B45703  15.395  29.936   6.450
 7909POPC   C2B45704  15.412  29.974   6.750
 7909POPC   C3B45705  15.473  30.012   7.050
 7909POPC   C4B45706  15.427  29.959   7.350
 7910POPC   NC345707   1.963   6.604   5.550
 7910POPC   PO445708   1.992   6.612   5.850
 7910POPC   GL145709   1.982   6.632   6.150
 7910POPC   GL245710   2.107   6.627   6.150
 7910POPC   C1A45711   1.945   6.659   6.450
 7910POPC   D2A45712   1.987   6.618   6.750
 7910POPC   C3A45713   1.984   6.646   7.050
 7910POPC   C4A45714   2.025   6.610   7.350
 7910POPC   C1B45715   2.204   6.586   6.450
 7910POPC   C2B45716   2.220   6.581   6.750
 7910POPC   C3B45717   2.252   6.583   7.050
 7910POPC   C4B45718   2.184   6.576   7.350
 7911POPC   NC345719  28.371  39.976   5.550
 7911POPC   PO445720  28.360  40.052   5.850
 7911POPC   GL145721  28.351  40.012   6.150
 7911POPC   GL245722  28.531  39.961   6.150
 7911POPC   C1A45723  28.407  40.033   6.450
 7911POPC   D2A45724  28.345  40.053   6.750
 7911POPC   C3A45725  28.349  40.055   7.050
 7911POPC   C4A45726  28.403  40.056   7.350
 7911POPC   C1B45727  28.628  39.891   6.450
 7911POPC   C2B45728  28.610  39.876   6.750
 7911POPC   C3B45729  28.553  39.878   7.050
 7911POPC   C4B45730  28.628  39.877   7.350
 7912POPC   NC345731  42.382   4.361   5.550
 7912POPC   PO445732  42.367   4.357   5.850
 7912POPC   GL145733  42.348   4.343   6.150
 7912POPC   GL245734  42.408   4.461   6.150
 7912POPC   C1A45735  42.342   4.361   6.450
 7912POPC   D2A45736  42.312   4.282   6.750
 7912POPC   C3A45737  42.337   4.346   7.050
 7912POPC   C4A45738  42.290   4.285   7.350
 7912POPC   C1B45739  42.441   4.535   6.450
 7912POPC   C2B45740  42.418   4.532   6.750
 7912POPC   C3B45741  42.445   4.532   7.050
 7912POPC   C4B45742  42.436   4.528   7.350
 7913POPC   NC345743  38.480  26.049   5.550
 7913POPC   PO445744  38.444  26.047   5.850
 7913POPC   GL145745  38.497  26.040   6.150
 7913POPC   GL245746  38.465  25.950   6.150
 7913POPC   C1A45747  38.418  26.078   6.450
 7913POPC   D2A45748  38.416  26.049   6.750
 7913POPC   C3A45749  38.434  26.037   7.050
 7913POPC   C4A45750  38.439  26.030   7.350
 7913POPC   C1B45751  38.390  25.822   6.450
 7913POPC   C2B45752  38.453  25.825   6.750
 7913POPC   C3B45753  38.367  25.788   7.050
 7913POPC   C4B45754  38.405  25.770   7.350
 7914POPC   NC345755  22.180  44.679   5.550
 7914POPC   PO445756  22.157  44.677   5.850
 7914POPC   GL145757  22.155  44.710   6.150
 7914POPC   GL245758  22.206  44.741   6.150
 7914POPC   C1A45759  22.151  44.617   6.450
 7914POPC   D2A45760  22.122  44.615   6.750
 7914POPC   C3A45761  22.199  44.694   7.050
 7914POPC   C4A45762  22.146  44.645   7.350
 7914POPC   C1B45763  22.233  44.943   6.450
 7914POPC   C2B45764  22.150  44.861   6.750
 7914POPC   C3B45765  22.195  44.896   7.050
 7914POPC   C4B45766  22.170  44.958   7.350
 7915POPC   NC345767   2.019  41.530   5.550
 7915POPC   PO445768   2.038  41.553   5.850
 7915POPC   GL145769   1.944  41.525   6.150
 7915POPC   GL245770   1.953  41.460   6.150
 7915POPC   C1A45771   1.984  41.519   6.450
 7915POPC   D2A45772   1.979  41.545   6.750
 7915POPC   C3A45773   1.969  41.535   7.050
 7915POPC   C4A45774   1.986  41.579   7.350
 7915POPC   C1B45775   1.959  41.348   6.450
 7915POPC   C2B45776   1.923  41.279   6.750
 7915POPC   C3B45777   1.899  41.360   7.050
 7915POPC   C4B45778   1.903  41.349   7.350
 7916POPC   NC345779  44.703  29.105   5.550
 7916POPC   PO445780  44.640  29.139   5.850
 7916POPC   GL145781  44.666  29.142   6.150
 7916POPC   GL245782  44.757  29.189   6.150
 7916POPC   C1A45783  44.632  29.122   6.450
 7916POPC   D2A45784  44.673  29.176   6.750
 7916POPC   C3A45785  44.682  29.109   7.050
 7916POPC   C4A45786  44.709  29.133   7.350
 7916POPC   C1B45787  44.874  29.196   6.450
 7916POPC   C2B45788  44.878  29.179   6.750
 7916POPC   C3B45789  44.849  29.204   7.050
 7916POPC   C4B45790  44.944  29.252   7.350
 7917POPC   NC345791  25.225  18.332   5.550
 7917POPC   PO445792  25.282  18.312   5.850
 7917POPC   GL145793  25.234  18.312   6.150
 7917POPC   GL245794  25.329  18.179   6.150
 7917POPC   C1A45795  25.262  18.246   6.450
 7917POPC   D2A45796  25.291  18.279   6.750
 7917POPC   C3A45797  25.217  18.314   7.050
 7917POPC   C4A45798  25.241  18.309   7.350
 7917POPC   C1B45799  25.316  18.062   6.450
 7917POPC   C2B45800  25.309  18.030   6.750
 7917POPC   C3B45801  25.337  18.034   7.050
 7917POPC   C4B45802  25.389  18.001   7.350
 7918POPC   NC345803  39.235  14.395   5.550
 7918POPC   PO445804  39.188  14.390   5.850
 7918POPC   GL145805  39.207  14.450   6.150
 7918POPC   GL245806  39.076  14.356   6.150
 7918POPC   C1A45807  39.249  14.451   6.450
 7918POPC   D2A45808  39.218  14.388   6.750
 7918POPC   C3A45809  39.249  14.412   7.050
 7918POPC   C4A45810  39.271  14.364   7.350
 7918POPC   C1B45811  38.996  14.352   6.450
 7918POPC   C2B45812  39.023  14.359   6.750
 7918POPC   C3B45813  39.000  14.303   7.050
 7918POPC   C4B45814  39.016  14.316   7.350
 7919POPC   NC345815  10.555  29.150   5.550
 7919POPC   PO445816  10.476  29.139   5.850
 7919POPC   GL145817  10.496  29.101   6.150
 7919POPC   GL245818  10.517  29.071   6.150
 7919POPC   C1A45819  10.515  29.123   6.450
 7919POPC   D2A45820  10.570  29.121   6.750
 7919POPC   C3A45821  10.488  29.123   7.050
 7919POPC   C4A45822  10.474  29.142   7.350
 7919POPC   C1B45823  10.561  28.880   6.450
 7919POPC   C2B45824  10.560  28.882   6.750
 7919POPC   C3B45825  10.572  28.952   7.050
 7919POPC   C4B45826  10.577  28.906   7.350
 7920POPC   NC345827  21.374  16.687   5.550
 7920POPC   PO445828  21.394  16.727   5.850
 7920POPC   GL145829  21.349  16.697   6.150
 7920POPC   GL245830  21.496  16.846   6.150
 7920POPC   C1A45831  21.425  16.725   6.450
 7920POPC   D2A45832  21.391  16.777   6.750
 7920POPC   C3A45833  21.377  16.729   7.050
 7920POPC   C4A45834  21.351  16.730   7.350
 7920POPC   C1B45835  21.506  16.989   6.450
 7920POPC   C2B45836  21.490  16.974   6.750
 7920POPC   C3B45837  21.524  16.923   7.050
 7920POPC   C4B45838  21.496  16.901   7.350
 7921POPC   NC345839  29.892  23.743   5.550
 7921POPC   PO445840  29.962  23.710   5.850
 7921POPC   GL145841  29.931  23.683   6.150
 7921POPC   GL245842  29.887  23.629   6.150
 7921POPC   C1A45843  29.881  23.726   6.450
 7921POPC   D2A45844  29.931  23.764   6.750
 7921POPC   C3A45845  29.952  23.721   7.050
 7921POPC   C4A45846  29.961  23.732   7.350
 7921POPC   C1B45847  29.729  23.515   6.450
 7921POPC   C2B45848  29.787  23.506   6.750
 7921POPC   C3B45849  29.757  23.569   7.050
 7921POPC   C4B45850  29.719  23.551   7.350
 7922POPC   NC345851   1.950  34.582   5.550
 7922POPC   PO445852   1.943  34.546   5.850
 7922POPC   GL145853   2.016  34.597   6.150
 7922POPC   GL245854   2.053  34.475   6.150
 7922POPC   C1A45855   1.981  34.576   6.450
 7922POPC   D2A45856   2.005  34.581   6.750
 7922POPC   C3A45857   1.947  34.567   7.050
 7922POPC   C4A45858   1.957  34.579   7.350
 7922POPC   C1B45859   2.152  34.413   6.450
 7922POPC   C2B45860   2.121  34.414   6.750
 7922POPC   C3B45861   2.162  34.365   7.050
 7922POPC   C4B45862   2.198  34.432   7.350
 7923POPC   NC345863  29.924  36.103   5.550
 7923POPC   PO445864  29.953  36.159   5.850
 7923POPC   GL145865  29.893  36.088   6.150
 7923POPC   GL245866  29.957  36.273   6.150
 7923POPC   C1A45867  29.886  36.132   6.450
 7923POPC   D2A45868  29.872  36.157   6.750
 7923POPC   C3A45869  29.872  36.175   7.050
 7923POPC   C4A45870  29.890  36.124   7.350
 7923POPC   C1B45871  29.978  36.385   6.450
 7923POPC   C2B45872  29.926  36.374   6.750
 7923POPC   C3B45873  29.912  36.347   7.050
 7923POPC   C4B45874  29.949  36.407   7.350
 7924POPC   NC345875  18.327  40.007   5.550
 7924POPC   PO445876  18.297  40.017   5.850
 7924POPC   GL145877  18.311  39.981   6.150
 7924POPC   GL245878  18.114  40.001   6.150
 7924POPC   C1A45879  18.241  40.015   6.450
 7924POPC   D2A45880  18.252  40.040   6.750
 7924POPC   C3A45881  18.301  39.965   7.050
 7924POPC   C4A45882  18.332  40.033   7.350
 7924POPC   C1B45883  18.084  40.067   6.450
 7924POPC   C2B45884  17.995  40.071   6.750
 7924POPC   C3B45885  18.034  40.055   7.050
 7924POPC   C4B45886  18.055  40.045   7.350
 7925POPC   NC345887  38.493  15.135   5.550
 7925POPC   PO445888  38.420  15.160   5.850
 7925POPC   GL145889  38.425  15.208   6.150
 7925POPC   GL245890  38.358  15.280   6.150
 7925POPC   C1A45891  38.482  15.229   6.450
 7925POPC   D2A45892  38.498  15.144   6.750
 7925POPC   C3A45893  38.437  15.220   7.050
 7925POPC   C4A45894  38.497  15.142   7.350
 7925POPC   C1B45895  38.311  15.439   6.450
 7925POPC   C2B45896  38.337  15.406   6.750
 7925POPC   C3B45897  38.294  15.353   7.050
 7925POPC   C4B45898  38.375  15.426   7.350
 7926POPC   NC345899  42.362  33.047   5.550
 7926POPC   PO445900  42.380  33.062   5.850
 7926POPC   GL145901  42.347  33.031   6.150
 7926POPC   GL245902  42.390  33.082   6.150
 7926POPC   C1A45903  42.343  32.992   6.450
 7926POPC   D2A45904  42.366  32.999   6.750
 7926POPC   C3A45905  42.336  33.036   7.050
 7926POPC   C4A45906  42.333  33.000   7.350
 7926POPC   C1B45907  42.464  33.280   6.450
 7926POPC   C2B45908  42.472  33.220   6.750
 7926POPC   C3B45909  42.428  33.223   7.050
 7926POPC   C4B45910  42.508  33.203   7.350
 7927POPC   NC345911  25.298  32.983   5.550
 7927POPC   PO445912  25.295  33.055   5.850
 7927POPC   GL145913  25.227  32.977   6.150
 7927POPC   GL245914  25.356  32.944   6.150
 7927POPC   C1A45915  25.245  33.012   6.450
 7927POPC   D2A45916  25.246  33.014   6.750
 7927POPC   C3A45917  25.225  33.024   7.050
 7927POPC   C4A45918  25.234  33.001   7.350
 7927POPC   C1B45919  25.486  32.997   6.450
 7927POPC   C2B45920  25.494  32.962   6.750
 7927POPC   C3B45921  25.513  32.997   7.050
 7927POPC   C4B45922  25.553  32.970   7.350
 7928POPC   NC345923  17.470  27.637   5.550
 7928POPC   PO445924  17.480  27.642   5.850
 7928POPC   GL145925  17.497  27.579   6.150
 7928POPC   GL245926  17.547  27.446   6.150
 7928POPC   C1A45927  17.489  27.620   6.450
 7928POPC   D2A45928  17.464  27.614   6.750
 7928POPC   C3A45929  17.548  27.588   7.050
 7928POPC   C4A45930  17.472  27.606   7.350
 7928POPC   C1B45931  17.529  27.295   6.450
 7928POPC   C2B45932  17.516  27.350   6.750
 7928POPC   C3B45933  17.525  27.313   7.050
 7928POPC   C4B45934  17.487  27.323   7.350
 7929POPC   NC345935  12.872  27.588   5.550
 7929POPC   PO445936  12.822  27.549   5.850
 7929POPC   GL145937  12.811  27.590   6.150
 7929POPC   GL245938  12.896  27.722   6.150
 7929POPC   C1A45939  12.840  27.552   6.450
 7929POPC   D2A45940  12.828  27.642   6.750
 7929POPC   C3A45941  12.817  27.591   7.050
 7929POPC   C4A45942  12.850  27.615   7.350
 7929POPC   C1B45943  12.834  27.814   6.450
 7929POPC   C2B45944  12.794  27.799   6.750
 7929POPC   C3B45945  12.805  27.866   7.050
 7929POPC   C4B45946  12.802  27.890   7.350
 7930POPC   NC345947  42.365   1.251   5.550
 7930POPC   PO445948  42.302   1.179   5.850
 7930POPC   GL145949  42.294   1.169   6.150
 7930POPC   GL245950  42.431   1.058   6.150
 7930POPC   C1A45951  42.364   1.177   6.450
 7930POPC   D2A45952  42.303   1.226   6.750
 7930POPC   C3A45953  42.353   1.218   7.050
 7930POPC   C4A45954  42.371   1.197   7.350
 7930POPC   C1B45955  42.488   0.968   6.450
 7930POPC   C2B45956  42.470   1.018   6.750
 7930POPC   C3B45957  42.438   0.968   7.050
 7930POPC   C4B45958  42.495   0.955   7.350
 7931POPC   NC345959  26.835  34.535   5.550
 7931POPC   PO445960  26.794  34.544   5.850
 7931POPC   GL145961  26.796  34.580   6.150
 7931POPC   GL245962  26.774  34.448   6.150
 7931POPC   C1A45963  26.837  34.592   6.450
 7931POPC   D2A45964  26.784  34.579   6.750
 7931POPC   C3A45965  26.823  34.585   7.050
 7931POPC   C4A45966  26.850  34.586   7.350
 7931POPC   C1B45967  26.756  34.342   6.450
 7931POPC   C2B45968  26.752  34.326   6.750
 7931POPC   C3B45969  26.682  34.386   7.050
 7931POPC   C4B45970  26.727  34.340   7.350
 7932POPC   NC345971  40.772  26.851   5.550
 7932POPC   PO445972  40.813  26.793   5.850
 7932POPC   GL145973  40.821  26.842   6.150
 7932POPC   GL245974  40.756  26.888   6.150
 7932POPC   C1A45975  40.747  26.817   6.450
 7932POPC   D2A45976  40.797  26.796   6.750
 7932POPC   C3A45977  40.806  26.821   7.050
 7932POPC   C4A45978  40.734  26.781   7.350
 7932POPC   C1B45979  40.668  27.058   6.450
 7932POPC   C2B45980  40.696  27.060   6.750
 7932POPC   C3B45981  40.693  27.018   7.050
 7932POPC   C4B45982  40.716  27.057   7.350
 7933POPC   NC345983  31.465  34.533   5.550
 7933POPC   PO445984  31.431  34.625   5.850
 7933POPC   GL145985  31.501  34.556   6.150
 7933POPC   GL245986  31.549  34.575   6.150
 7933POPC   C1A45987  31.510  34.569   6.450
 7933POPC   D2A45988  31.497  34.569   6.750
 7933POPC   C3A45989  31.519  34.548   7.050
 7933POPC   C4A45990  31.443  34.616   7.350
 7933POPC   C1B45991  31.736  34.531   6.450
 7933POPC   C2B45992  31.670  34.525   6.750
 7933POPC   C3B45993  31.695  34.570   7.050
 7933POPC   C4B45994  31.705  34.551   7.350
 7934POPC   NC345995  37.722   5.841   5.550
 7934POPC   PO445996  37.676   5.849   5.850
 7934POPC   GL145997  37.667   5.888   6.150
 7934POPC   GL245998  37.657   5.944   6.150
 7934POPC   C1A45999  37.697   5.836   6.450
 7934POPC   D2A46000  37.721   5.887   6.750
 7934POPC   C3A46001  37.701   5.884   7.050
 7934POPC   C4A46002  37.695   5.891   7.350
 7934POPC   C1B46003  37.687   6.147   6.450
 7934POPC   C2B46004  37.680   6.161   6.750
 7934POPC   C3B46005  37.670   6.078   7.050
 7934POPC   C4B46006  37.677   6.087   7.350
 7935POPC   NC346007  27.567  37.721   5.550
 7935POPC   PO446008  27.639  37.634   5.850
 7935POPC   GL146009  27.559  37.671   6.150
 7935POPC   GL246010  27.689  37.772   6.150
 7935POPC   C1A46011  27.595  37.678   6.450
 7935POPC   D2A46012  27.626  37.668   6.750
 7935POPC   C3A46013  27.606  37.652   7.050
 7935POPC   C4A46014  27.624  37.671   7.350
 7935POPC   C1B46015  27.806  37.844   6.450
 7935POPC   C2B46016  27.813  37.900   6.750
 7935POPC   C3B46017  27.724  37.898   7.050
 7935POPC   C4B46018  27.811  37.833   7.350
 7936POPC   NC346019  18.308  26.808   5.550
 7936POPC   PO446020  18.293  26.837   5.850
 7936POPC   GL146021  18.284  26.773   6.150
 7936POPC   GL246022  18.331  26.907   6.150
 7936POPC   C1A46023  18.315  26.794   6.450
 7936POPC   D2A46024  18.324  26.860   6.750
 7936POPC   C3A46025  18.294  26.803   7.050
 7936POPC   C4A46026  18.282  26.836   7.350
 7936POPC   C1B46027  18.379  27.029   6.450
 7936POPC   C2B46028  18.448  27.048   6.750
 7936POPC   C3B46029  18.396  27.036   7.050
 7936POPC   C4B46030  18.435  27.082   7.350
 7937POPC   NC346031  16.744  27.638   5.550
 7937POPC   PO446032  16.758  27.606   5.850
 7937POPC   GL146033  16.741  27.550   6.150
 7937POPC   GL246034  16.580  27.559   6.150
 7937POPC   C1A46035  16.739  27.623   6.450
 7937POPC   D2A46036  16.691  27.625   6.750
 7937POPC   C3A46037  16.707  27.606   7.050
 7937POPC   C4A46038  16.713  27.612   7.350
 7937POPC   C1B46039  16.499  27.539   6.450
 7937POPC   C2B46040  16.512  27.532   6.750
 7937POPC   C3B46041  16.453  27.515   7.050
 7937POPC   C4B46042  16.526  27.545   7.350
 7938POPC   NC346043  40.805   9.720   5.550
 7938POPC   PO446044  40.749   9.752   5.850
 7938POPC   GL146045  40.831   9.760   6.150
 7938POPC   GL246046  40.826   9.642   6.150
 7938POPC   C1A46047  40.816   9.740   6.450
 7938POPC   D2A46048  40.811   9.717   6.750
 7938POPC   C3A46049  40.749   9.742   7.050
 7938POPC   C4A46050  40.759   9.718   7.350
 7938POPC   C1B46051  40.941   9.582   6.450
 7938POPC   C2B46052  40.951   9.542   6.750
 7938POPC   C3B46053  40.896   9.512   7.050
 7938POPC   C4B46054  40.900   9.543   7.350
 7939POPC   NC346055  38.483  43.075   5.550
 7939POPC   PO446056  38.479  43.065   5.850
 7939POPC   GL146057  38.423  43.148   6.150
 7939POPC   GL246058  38.475  43.228   6.150
 7939POPC   C1A46059  38.474  43.074   6.450
 7939POPC   D2A46060  38.494  43.148   6.750
 7939POPC   C3A46061  38.409  43.153   7.050
 7939POPC   C4A46062  38.438  43.071   7.350
 7939POPC   C1B46063  38.379  43.355   6.450
 7939POPC   C2B46064  38.462  43.395   6.750
 7939POPC   C3B46065  38.431  43.315   7.050
 7939POPC   C4B46066  38.394  43.359   7.350
 7940POPC   NC346067  35.337  18.298   5.550
 7940POPC   PO446068  35.386  18.320   5.850
 7940POPC   GL146069  35.320  18.244   6.150
 7940POPC   GL246070  35.390  18.179   6.150
 7940POPC   C1A46071  35.323  18.327   6.450
 7940POPC   D2A46072  35.398  18.332   6.750
 7940POPC   C3A46073  35.392  18.284   7.050
 7940POPC   C4A46074  35.347  18.305   7.350
 7940POPC   C1B46075  35.422  18.088   6.450
 7940POPC   C2B46076  35.429  18.053   6.750
 7940POPC   C3B46077  35.418  18.066   7.050
 7940POPC   C4B46078  35.421  17.993   7.350
 7941POPC   NC346079  12.079  16.708   5.550
 7941POPC   PO446080  12.033  16.731   5.850
 7941POPC   GL146081  12.092  16.688   6.150
 7941POPC   GL246082  12.109  16.601   6.150
 7941POPC   C1A46083  12.035  16.737   6.450
 7941POPC   D2A46084  12.049  16.726   6.750
 7941POPC   C3A46085  12.035  16.767   7.050
 7941POPC   C4A46086  12.098  16.699   7.350
 7941POPC   C1B46087  12.184  16.541   6.450
 7941POPC   C2B46088  12.226  16.501   6.750
 7941POPC   C3B46089  12.178  16.488   7.050
 7941POPC   C4B46090  12.178  16.548   7.350
 7942POPC   NC346091  26.819  39.273   5.550
 7942POPC   PO446092  26.816  39.237   5.850
 7942POPC   GL146093  26.816  39.189   6.150
 7942POPC   GL246094  26.700  39.124   6.150
 7942POPC   C1A46095  26.823  39.256   6.450
 7942POPC   D2A46096  26.799  39.195   6.750
 7942POPC   C3A46097  26.801  39.253   7.050
 7942POPC   C4A46098  26.832  39.237   7.350
 7942POPC   C1B46099  26.596  39.099   6.450
 7942POPC   C2B46100  26.655  39.049   6.750
 7942POPC   C3B46101  26.656  39.041   7.050
 7942POPC   C4B46102  26.588  39.102   7.350
 7943POPC   NC346103   2.765   1.232   5.550
 7943POPC   PO446104   2.814   1.168   5.850
 7943POPC   GL146105   2.716   1.203   6.150
 7943POPC   GL246106   2.822   1.141   6.150
 7943POPC   C1A46107   2.794   1.244   6.450
 7943POPC   D2A46108   2.724   1.178   6.750
 7943POPC   C3A46109   2.801   1.251   7.050
 7943POPC   C4A46110   2.773   1.205   7.350
 7943POPC   C1B46111   2.967   1.049   6.450
 7943POPC   C2B46112   2.935   1.029   6.750
 7943POPC   C3B46113   2.962   0.989   7.050
 7943POPC   C4B46114   2.891   1.054   7.350
 7944POPC   NC346115  26.790   1.173   5.550
 7944POPC   PO446116  26.785   1.164   5.850
 7944POPC   GL146117  26.835   1.198   6.150
 7944POPC   GL246118  26.977   1.287   6.150
 7944POPC   C1A46119  26.779   1.200   6.450
 7944POPC   D2A46120  26.850   1.246   6.750
 7944POPC   C3A46121  26.787   1.197   7.050
 7944POPC   C4A46122  26.815   1.180   7.350
 7944POPC   C1B46123  27.008   1.296   6.450
 7944POPC   C2B46124  27.041   1.309   6.750
 7944POPC   C3B46125  27.056   1.299   7.050
 7944POPC   C4B46126  27.101   1.264   7.350
 7945POPC   NC346127  20.603  43.837   5.550
 7945POPC   PO446128  20.636  43.850   5.850
 7945POPC   GL146129  20.604  43.880   6.150
 7945POPC   GL246130  20.769  43.827   6.150
 7945POPC   C1A46131  20.630  43.900   6.450
 7945POPC   D2A46132  20.585  43.855   6.750
 7945POPC   C3A46133  20.566  43.849   7.050
 7945POPC   C4A46134  20.601  43.922   7.350
 7945POPC   C1B46135  20.805  43.795   6.450
 7945POPC   C2B46136  20.879  43.770   6.750
 7945POPC   C3B46137  20.856  43.806   7.050
 7945POPC   C4B46138  20.848  43.788   7.350
 7946POPC   NC346139  14.385  27.546   5.550
 7946POPC   PO446140  14.372  27.633   5.850
 7946POPC   GL146141  14.408  27.636   6.150
 7946POPC   GL246142  14.322  27.439   6.150
 7946POPC   C1A46143  14.374  27.624   6.450
 7946POPC   D2A46144  14.372  27.566   6.750
 7946POPC   C3A46145  14.416  27.568   7.050
 7946POPC   C4A46146  14.410  27.633   7.350
 7946POPC   C1B46147  14.288  27.351   6.450
 7946POPC   C2B46148  14.292  27.366   6.750
 7946POPC   C3B46149  14.311  27.395   7.050
 7946POPC   C4B46150  14.307  27.386   7.350
 7947POPC   NC346151  10.546  31.468   5.550
 7947POPC   PO446152  10.556  31.511   5.850
 7947POPC   GL146153  10.549  31.489   6.150
 7947POPC   GL246154  10.549  31.550   6.150
 7947POPC   C1A46155  10.539  31.495   6.450
 7947POPC   D2A46156  10.511  31.430   6.750
 7947POPC   C3A46157  10.531  31.466   7.050
 7947POPC   C4A46158  10.491  31.500   7.350
 7947POPC   C1B46159  10.564  31.703   6.450
 7947POPC   C2B46160  10.495  31.753   6.750
 7947POPC   C3B46161  10.543  31.767   7.050
 7947POPC   C4B46162  10.519  31.693   7.350
 7948POPC   NC346163  35.327  39.186   5.550
 7948POPC   PO446164  35.380  39.248   5.850
 7948POPC   GL146165  35.351  39.192   6.150
 7948POPC   GL246166  35.525  39.199   6.150
 7948POPC   C1A46167  35.311  39.269   6.450
 7948POPC   D2A46168  35.369  39.264   6.750
 7948POPC   C3A46169  35.397  39.190   7.050
 7948POPC   C4A46170  35.306  39.244   7.350
 7948POPC   C1B46171  35.563  39.268   6.450
 7948POPC   C2B46172  35.624  39.270   6.750
 7948POPC   C3B46173  35.636  39.227   7.050
 7948POPC   C4B46174  35.578  39.265   7.350
 7949POPC   NC346175  42.321   8.999   5.550
 7949POPC   PO446176  42.303   9.006   5.850
 7949POPC   GL146177  42.375   9.019   6.150
 7949POPC   GL246178  42.416   9.066   6.150
 7949POPC   C1A46179  42.287   9.020   6.450
 7949POPC   D2A46180  42.329   8.961   6.750
 7949POPC   C3A46181  42.350   9.008   7.050
 7949POPC   C4A46182  42.378   8.931   7.350
 7949POPC   C1B46183  42.601   9.082   6.450
 7949POPC   C2B46184  42.598   9.048   6.750
 7949POPC   C3B46185  42.576   9.076   7.050
 7949POPC   C4B46186  42.527   9.045   7.350
 7950POPC   NC346187  15.941  16.765   5.550
 7950POPC   PO446188  15.918  16.681   5.850
 7950POPC   GL146189  15.985  16.714   6.150
 7950POPC   GL246190  15.934  16.619   6.150
 7950POPC   C1A46191  15.992  16.686   6.450
 7950POPC   D2A46192  15.978  16.737   6.750
 7950POPC   C3A46193  15.908  16.776   7.050
 7950POPC   C4A46194  15.910  16.761   7.350
 7950POPC   C1B46195  15.841  16.512   6.450
 7950POPC   C2B46196  15.877  16.473   6.750
 7950POPC   C3B46197  15.856  16.496   7.050
 7950POPC   C4B46198  15.909  16.494   7.350
 7951POPC   NC346199  23.722  34.618   5.550
 7951POPC   PO446200  23.749  34.602   5.850
 7951POPC   GL146201  23.743  34.604   6.150
 7951POPC   GL246202  23.646  34.633   6.150
 7951POPC   C1A46203  23.747  34.578   6.450
 7951POPC   D2A46204  23.677  34.612   6.750
 7951POPC   C3A46205  23.761  34.619   7.050
 7951POPC   C4A46206  23.754  34.598   7.350
 7951POPC   C1B46207  23.508  34.730   6.450
 7951POPC   C2B46208  23.544  34.724   6.750
 7951POPC   C3B46209  23.526  34.735   7.050
 7951POPC   C4B46210  23.493  34.714   7.350
 7952POPC   NC346211  36.087   5.855   5.550
 7952POPC   PO446212  36.170   5.855   5.850
 7952POPC   GL146213  36.144   5.879   6.150
 7952POPC   GL246214  36.063   6.040   6.150
 7952POPC   C1A46215  36.160   5.849   6.450
 7952POPC   D2A46216  36.164   5.845   6.750
 7952POPC   C3A46217  36.110   5.873   7.050
 7952POPC   C4A46218  36.163   5.917   7.350
 7952POPC   C1B46219  36.122   6.148   6.450
 7952POPC   C2B46220  36.095   6.129   6.750
 7952POPC   C3B46221  36.087   6.115   7.050
 7952POPC   C4B46222  36.126   6.081   7.350
 7953POPC   NC346223  43.099  12.822   5.550
 7953POPC   PO446224  43.077  12.833   5.850
 7953POPC   GL146225  43.086  12.898   6.150
 7953POPC   GL246226  43.207  12.809   6.150
 7953POPC   C1A46227  43.145  12.812   6.450
 7953POPC   D2A46228  43.135  12.862   6.750
 7953POPC   C3A46229  43.150  12.859   7.050
 7953POPC   C4A46230  43.076  12.807   7.350
 7953POPC   C1B46231  43.330  12.724   6.450
 7953POPC   C2B46232  43.389  12.769   6.750
 7953POPC   C3B46233  43.327  12.738   7.050
 7953POPC   C4B46234  43.354  12.796   7.350
 7954POPC   NC346235  22.172  23.751   5.550
 7954POPC   PO446236  22.165  23.757   5.850
 7954POPC   GL146237  22.205  23.664   6.150
 7954POPC   GL246238  22.185  23.618   6.150
 7954POPC   C1A46239  22.133  23.749   6.450
 7954POPC   D2A46240  22.211  23.683   6.750
 7954POPC   C3A46241  22.201  23.693   7.050
 7954POPC   C4A46242  22.158  23.755   7.350
 7954POPC   C1B46243  22.228  23.529   6.450
 7954POPC   C2B46244  22.312  23.488   6.750
 7954POPC   C3B46245  22.298  23.460   7.050
 7954POPC   C4B46246  22.237  23.496   7.350
 7955POPC   NC346247   5.844  40.819   5.550
 7955POPC   PO446248   5.882  40.822   5.850
 7955POPC   GL146249   5.876  40.833   6.150
 7955POPC   GL246250   5.753  40.745   6.150
 7955POPC   C1A46251   5.900  40.735   6.450
 7955POPC   D2A46252   5.870  40.779   6.750
 7955POPC   C3A46253   5.862  40.820   7.050
 7955POPC   C4A46254   5.860  40.764   7.350
 7955POPC   C1B46255   5.633  40.617   6.450
 7955POPC   C2B46256   5.674  40.659   6.750
 7955POPC   C3B46257   5.706  40.628   7.050
 7955POPC   C4B46258   5.699  40.594   7.350
 7956POPC   NC346259   2.749  22.946   5.550
 7956POPC   PO446260   2.788  22.947   5.850
 7956POPC   GL146261   2.727  22.935   6.150
 7956POPC   GL246262   2.634  23.012   6.150
 7956POPC   C1A46263   2.720  22.923   6.450
 7956POPC   D2A46264   2.790  22.937   6.750
 7956POPC   C3A46265   2.798  22.892   7.050
 7956POPC   C4A46266   2.778  22.983   7.350
 7956POPC   C1B46267   2.542  23.070   6.450
 7956POPC   C2B46268   2.614  23.153   6.750
 7956POPC   C3B46269   2.592  23.069   7.050
 7956POPC   C4B46270   2.587  23.105   7.350
 7957POPC   NC346271  22.208  12.869   5.550
 7957POPC   PO446272  22.178  12.869   5.850
 7957POPC   GL146273  22.209  12.859   6.150
 7957POPC   GL246274  22.240  12.936   6.150
 7957POPC   C1A46275  22.205  12.842   6.450
 7957POPC   D2A46276  22.154  12.873   6.750
 7957POPC   C3A46277  22.152  12.872   7.050
 7957POPC   C4A46278  22.180  12.825   7.350
 7957POPC   C1B46279  22.348  12.985   6.450
 7957POPC   C2B46280  22.355  13.018   6.750
 7957POPC   C3B46281  22.389  13.057   7.050
 7957POPC   C4B46282  22.382  13.024   7.350
 7958POPC   NC346283  15.176  32.209   5.550
 7958POPC   PO446284  15.167  32.286   5.850
 7958POPC   GL146285  15.222  32.288   6.150
 7958POPC   GL246286  15.033  32.253   6.150
 7958POPC   C1A46287  15.174  32.214   6.450
 7958POPC   D2A46288  15.139  32.280   6.750
 7958POPC   C3A46289  15.140  32.277   7.050
 7958POPC   C4A46290  15.179  32.229   7.350
 7958POPC   C1B46291  14.938  32.328   6.450
 7958POPC   C2B46292  14.908  32.296   6.750
 7958POPC   C3B46293  14.983  32.327   7.050
 7958POPC   C4B46294  14.965  32.321   7.350
 7959POPC   NC346295  22.129   1.181   5.550
 7959POPC   PO446296  22.156   1.263   5.850
 7959POPC   GL146297  22.209   1.249   6.150
 7959POPC   GL246298  22.270   1.342   6.150
 7959POPC   C1A46299  22.119   1.227   6.450
 7959POPC   D2A46300  22.131   1.230   6.750
 7959POPC   C3A46301  22.126   1.216   7.050
 7959POPC   C4A46302  22.140   1.201   7.350
 7959POPC   C1B46303  22.314   1.350   6.450
 7959POPC   C2B46304  22.362   1.439   6.750
 7959POPC   C3B46305  22.346   1.361   7.050
 7959POPC   C4B46306  22.300   1.414   7.350
 7960POPC   NC346307  11.253  26.064   5.550
 7960POPC   PO446308  11.276  26.070   5.850
 7960POPC   GL146309  11.300  26.041   6.150
 7960POPC   GL246310  11.438  25.929   6.150
 7960POPC   C1A46311  11.315  26.050   6.450
 7960POPC   D2A46312  11.266  26.002   6.750
 7960POPC   C3A46313  11.310  26.035   7.050
 7960POPC   C4A46314  11.315  26.049   7.350
 7960POPC   C1B46315  11.531  25.948   6.450
 7960POPC   C2B46316  11.491  25.903   6.750
 7960POPC   C3B46317  11.476  25.864   7.050
 7960POPC   C4B46318  11.463  25.907   7.350
 7961POPC   NC346319  32.203   2.030   5.550
 7961POPC   PO446320  32.243   1.947   5.850
 7961POPC   GL146321  32.265   1.948   6.150
 7961POPC   GL246322  32.129   2.037   6.150
 7961POPC   C1A46323  32.292   2.036   6.450
 7961POPC   D2A46324  32.253   2.004   6.750
 7961POPC   C3A46325  32.213   1.987   7.050
 7961POPC   C4A46326  32.273   1.942   7.350
 7961POPC   C1B46327  32.034   2.022   6.450
 7961POPC   C2B46328  31.999   2.042   6.750
 7961POPC   C3B46329  31.995   2.007   7.050
 7961POPC   C4B46330  32.043   1.989   7.350
 7962POPC   NC346331   6.664  22.137   5.550
 7962POPC   PO446332   6.647  22.211   5.850
 7962POPC   GL146333   6.617  22.192   6.150
 7962POPC   GL246334   6.765  22.254   6.150
 7962POPC   C1A46335   6.676  22.181   6.450
 7962POPC   D2A46336   6.642  22.200   6.750
 7962POPC   C3A46337   6.669  22.195   7.050
 7962POPC   C4A46338   6.627  22.133   7.350
 7962POPC   C1B46339   6.855  22.326   6.450
 7962POPC   C2B46340   6.780  22.394   6.750
 7962POPC   C3B46341   6.841  22.386   7.050
 7962POPC   C4B46342   6.788  22.367   7.350
 7963POPC   NC346343  19.102  37.709   5.550
 7963POPC   PO446344  19.055  37.680   5.850
 7963POPC   GL146345  19.058  37.665   6.150
 7963POPC   GL246346  18.923  37.728   6.150
 7963POPC   C1A46347  19.071  37.692   6.450
 7963POPC   D2A46348  19.098  37.681   6.750
 7963POPC   C3A46349  19.096  37.683   7.050
 7963POPC   C4A46350  19.009  37.643   7.350
 7963POPC   C1B46351  18.772  37.702   6.450
 7963POPC   C2B46352  18.809  37.736   6.750
 7963POPC   C3B46353  18.838  37.727   7.050
 7963POPC   C4B46354  18.822  37.674   7.350
 7964POPC   NC346355  32.263   7.469   5.550
 7964POPC   PO446356  32.259   7.406   5.850
 7964POPC   GL146357  32.245   7.454   6.150
 7964POPC   GL246358  32.371   7.362   6.150
 7964POPC   C1A46359  32.255   7.434   6.450
 7964POPC   D2A46360  32.251   7.457   6.750
 7964POPC   C3A46361  32.262   7.442   7.050
 7964POPC   C4A46362  32.214   7.384   7.350
 7964POPC   C1B46363  32.513   7.295   6.450
 7964POPC   C2B46364  32.442   7.354   6.750
 7964POPC   C3B46365  32.463   7.382   7.050
 7964POPC   C4B46366  32.457   7.302   7.350
 7965POPC   NC346367   3.589  19.810   5.550
 7965POPC   PO446368   3.555  19.863   5.850
 7965POPC   GL146369   3.558  19.794   6.150
 7965POPC   GL246370   3.624  19.797   6.150
 7965POPC   C1A46371   3.520  19.805   6.450
 7965POPC   D2A46372   3.527  19.877   6.750
 7965POPC   C3A46373   3.493  19.796   7.050
 7965POPC   C4A46374   3.494  19.789   7.350
 7965POPC   C1B46375   3.732  19.650   6.450
 7965POPC   C2B46376   3.756  19.685   6.750
 7965POPC   C3B46377   3.713  19.645   7.050
 7965POPC   C4B46378   3.695  19.682   7.350
 7966POPC   NC346379  40.815  44.645   5.550
 7966POPC   PO446380  40.771  44.635   5.850
 7966POPC   GL146381  40.758  44.627   6.150
 7966POPC   GL246382  40.807  44.792   6.150
 7966POPC   C1A46383  40.763  44.652   6.450
 7966POPC   D2A46384  40.737  44.628   6.750
 7966POPC   C3A46385  40.792  44.694   7.050
 7966POPC   C4A46386  40.738  44.677   7.350
 7966POPC   C1B46387  40.805  44.893   6.450
 7966POPC   C2B46388  40.798  44.889   6.750
 7966POPC   C3B46389  40.766  44.954   7.050
 7966POPC   C4B46390  40.845  44.920   7.350
 7967POPC   NC346391   6.649  37.714   5.550
 7967POPC   PO446392   6.633  37.667   5.850
 7967POPC   GL146393   6.615  37.669   6.150
 7967POPC   GL246394   6.574  37.731   6.150
 7967POPC   C1A46395   6.637  37.711   6.450
 7967POPC   D2A46396   6.623  37.713   6.750
 7967POPC   C3A46397   6.689  37.642   7.050
 7967POPC   C4A46398   6.651  37.716   7.350
 7967POPC   C1B46399   6.405  37.810   6.450
 7967POPC   C2B46400   6.437  37.786   6.750
 7967POPC   C3B46401   6.387  37.813   7.050
 7967POPC   C4B46402   6.372  37.835   7.350
 7968POPC   NC346403   9.763  22.159   5.550
 7968POPC   PO446404   9.735  22.123   5.850
 7968POPC   GL146405   9.768  22.175   6.150
 7968POPC   GL246406   9.632  22.238   6.150
 7968POPC   C1A46407   9.700  22.210   6.450
 7968POPC   D2A46408   9.729  22.153   6.750
 7968POPC   C3A46409   9.717  22.140   7.050
 7968POPC   C4A46410   9.753  22.189   7.350
 7968POPC   C1B46411   9.598  22.335   6.450
 7968POPC   C2B46412   9.596  22.356   6.750
 7968POPC   C3B46413   9.521  22.366   7.050
 7968POPC   C4B46414   9.582  22.302   7.350
 7969POPC   NC346415  44.708  18.327   5.550
 7969POPC   PO446416  44.650  18.287   5.850
 7969POPC   GL146417  44.710  18.260   6.150
 7969POPC   GL246418  44.514  18.271   6.150
 7969POPC   C1A46419  44.628  18.255   6.450
 7969POPC   D2A46420  44.614  18.267   6.750
 7969POPC   C3A46421  44.659  18.330   7.050
 7969POPC   C4A46422  44.669  18.286   7.350
 7969POPC   C1B46423  44.461  18.206   6.450
 7969POPC   C2B46424  44.420  18.145   6.750
 7969POPC   C3B46425  44.455  18.162   7.050
 7969POPC   C4B46426  44.485  18.148   7.350
 7970POPC   NC346427  40.757   1.967   5.550
 7970POPC   PO446428  40.816   2.011   5.850
 7970POPC   GL146429  40.792   2.005   6.150
 7970POPC   GL246430  40.907   1.942   6.150
 7970POPC   C1A46431  40.747   1.998   6.450
 7970POPC   D2A46432  40.775   1.961   6.750
 7970POPC   C3A46433  40.813   2.037   7.050
 7970POPC   C4A46434  40.806   1.967   7.350
 7970POPC   C1B46435  41.057   1.977   6.450
 7970POPC   C2B46436  41.007   1.947   6.750
 7970POPC   C3B46437  41.035   1.937   7.050
 7970POPC   C4B46438  41.066   1.913   7.350
 7971POPC   NC346439  12.883  11.251   5.550
 7971POPC   PO446440  12.871  11.277   5.850
 7971POPC   GL146441  12.873  11.315   6.150
 7971POPC   GL246442  12.904  11.395   6.150
 7971POPC   C1A46443  12.901  11.297   6.450
 7971POPC   D2A46444  12.839  11.279   6.750
 7971POPC   C3A46445  12.829  11.339   7.050
 7971POPC   C4A46446  12.822  11.267   7.350
 7971POPC   C1B46447  12.965  11.544   6.450
 7971POPC   C2B46448  12.875  11.504   6.750
 7971POPC   C3B46449  12.929  11.516   7.050
 7971POPC   C4B46450  12.940  11.495   7.350
 7972POPC   NC346451  15.958  32.997   5.550
 7972POPC   PO446452  15.969  33.067   5.850
 7972POPC   GL146453  16.000  33.016   6.150
 7972POPC   GL246454  15.921  33.105   6.150
 7972POPC   C1A46455  15.943  33.019   6.450
 7972POPC   D2A46456  15.935  32.997   6.750
 7972POPC   C3A46457  15.966  32.992   7.050
 7972POPC   C4A46458  15.951  33.017   7.350
 7972POPC   C1B46459  15.967  33.313   6.450
 7972POPC   C2B46460  16.027  33.251   6.750
 7972POPC   C3B46461  16.015  33.233   7.050
 7972POPC   C4B46462  16.021  33.290   7.350
 7973POPC   NC346463   1.947  29.114   5.550
 7973POPC   PO446464   1.940  29.156   5.850
 7973POPC   GL146465   1.993  29.107   6.150
 7973POPC   GL246466   2.114  29.168   6.150
 7973POPC   C1A46467   1.989  29.096   6.450
 7973POPC   D2A46468   2.034  29.144   6.750
 7973POPC   C3A46469   2.028  29.194   7.050
 7973POPC   C4A46470   1.944  29.126   7.350
 7973POPC   C1B46471   2.230  29.092   6.450
 7973POPC   C2B46472   2.270  29.074   6.750
 7973POPC   C3B46473   2.222  29.119   7.050
 7973POPC   C4B46474   2.195  29.074   7.350
 7974POPC   NC346475  32.993  15.907   5.550
 7974POPC   PO446476  33.028  15.953   5.850
 7974POPC   GL146477  32.976  15.981   6.150
 7974POPC   GL246478  32.955  16.036   6.150
 7974POPC   C1A46479  33.031  15.957   6.450
 7974POPC   D2A46480  33.069  15.921   6.750
 7974POPC   C3A46481  32.998  15.986   7.050
 7974POPC   C4A46482  32.995  15.961   7.350
 7974POPC   C1B46483  32.843  16.120   6.450
 7974POPC   C2B46484  32.898  16.103   6.750
 7974POPC   C3B46485  32.821  16.112   7.050
 7974POPC   C4B46486  32.908  16.126   7.350
 7975POPC   NC346487   6.612  28.396   5.550
 7975POPC   PO446488   6.624  28.352   5.850
 7975POPC   GL146489   6.601  28.364   6.150
 7975POPC   GL246490   6.605  28.498   6.150
 7975POPC   C1A46491   6.610  28.383   6.450
 7975POPC   D2A46492   6.634  28.342   6.750
 7975POPC   C3A46493   6.610  28.397   7.050
 7975POPC   C4A46494   6.672  28.361   7.350
 7975POPC   C1B46495   6.554  28.591   6.450
 7975POPC   C2B46496   6.567  28.560   6.750
 7975POPC   C3B46497   6.552  28.622   7.050
 7975POPC   C4B46498   6.518  28.651   7.350
 7976POPC   NC346499  33.775  23.672   5.550
 7976POPC   PO446500  33.828  23.733   5.850
 7976POPC   GL146501  33.834  23.731   6.150
 7976POPC   GL246502  33.683  23.571   6.150
 7976POPC   C1A46503  33.783  23.730   6.450
 7976POPC   D2A46504  33.804  23.746   6.750
 7976POPC   C3A46505  33.812  23.725   7.050
 7976POPC   C4A46506  33.836  23.693   7.350
 7976POPC   C1B46507  33.648  23.568   6.450
 7976POPC   C2B46508  33.685  23.507   6.750
 7976POPC   C3B46509  33.644  23.559   7.050
 7976POPC   C4B46510  33.686  23.504   7.350
 7977POPC   NC346511  12.895  43.069   5.550
 7977POPC   PO446512  12.811  43.104   5.850
 7977POPC   GL146513  12.823  43.080   6.150
 7977POPC   GL246514  12.818  42.993   6.150
 7977POPC   C1A46515  12.812  43.083   6.450
 7977POPC   D2A46516  12.856  43.135   6.750
 7977POPC   C3A46517  12.868  43.152   7.050
 7977POPC   C4A46518  12.859  43.108   7.350
 7977POPC   C1B46519  12.650  42.873   6.450
 7977POPC   C2B46520  12.667  42.882   6.750
 7977POPC   C3B46521  12.710  42.869   7.050
 7977POPC   C4B46522  12.665  42.889   7.350
 7978POPC   NC346523  18.252  43.092   5.550
 7978POPC   PO446524  18.261  43.081   5.850
 7978POPC   GL146525  18.243  43.136   6.150
 7978POPC   GL246526  18.369  43.030   6.150
 7978POPC   C1A46527  18.233  43.125   6.450
 7978POPC   D2A46528  18.294  43.113   6.750
 7978POPC   C3A46529  18.320  43.062   7.050
 7978POPC   C4A46530  18.331  43.101   7.350
 7978POPC   C1B46531  18.476  43.059   6.450
 7978POPC   C2B46532  18.478  43.052   6.750
 7978POPC   C3B46533  18.537  43.083   7.050
 7978POPC   C4B46534  18.568  43.084   7.350
 7979POPC   NC346535  32.275  17.524   5.550
 7979POPC   PO446536  32.212  17.536   5.850
 7979POPC   GL146537  32.281  17.509   6.150
 7979POPC   GL246538  32.337  17.491   6.150
 7979POPC   C1A46539  32.283  17.503   6.450
 7979POPC   D2A46540  32.241  17.490   6.750
 7979POPC   C3A46541  32.256  17.552   7.050
 7979POPC   C4A46542  32.297  17.493   7.350
 7979POPC   C1B46543  32.465  17.525   6.450
 7979POPC   C2B46544  32.491  17.557   6.750
 7979POPC   C3B46545  32.517  17.545   7.050
 7979POPC   C4B46546  32.526  17.528   7.350
 7980POPC   NC346547  26.822  44.688   5.550
 7980POPC   PO446548  26.775  44.647   5.850
 7980POPC   GL146549  26.863  44.689   6.150
 7980POPC   GL246550  26.666  44.690   6.150
 7980POPC   C1A46551  26.838  44.697   6.450
 7980POPC   D2A46552  26.798  44.686   6.750
 7980POPC   C3A46553  26.799  44.619   7.050
 7980POPC   C4A46554  26.837  44.624   7.350
 7980POPC   C1B46555  26.587  44.848   6.450
 7980POPC   C2B46556  26.575  44.758   6.750
 7980POPC   C3B46557  26.658  44.826   7.050
 7980POPC   C4B46558  26.615  44.763   7.350
 7981POPC   NC346559  42.379  13.650   5.550
 7981POPC   PO446560  42.326  13.645   5.850
 7981POPC   GL146561  42.287  13.580   6.150
 7981POPC   GL246562  42.455  13.583   6.150
 7981POPC   C1A46563  42.308  13.616   6.450
 7981POPC   D2A46564  42.303  13.598   6.750
 7981POPC   C3A46565  42.366  13.586   7.050
 7981POPC   C4A46566  42.382  13.670   7.350
 7981POPC   C1B46567  42.553  13.488   6.450
 7981POPC   C2B46568  42.524  13.438   6.750
 7981POPC   C3B46569  42.497  13.475   7.050
 7981POPC   C4B46570  42.537  13.468   7.350
 7982POPC   NC346571   0.453  31.470   5.550
 7982POPC   PO446572   0.417  31.442   5.850
 7982POPC   GL146573   0.423  31.428   6.150
 7982POPC   GL246574   0.563  31.502   6.150
 7982POPC   C1A46575   0.404  31.466   6.450
 7982POPC   D2A46576   0.437  31.469   6.750
 7982POPC   C3A46577   0.471  31.490   7.050
 7982POPC   C4A46578   0.388  31.498   7.350
 7982POPC   C1B46579   0.662  31.603   6.450
 7982POPC   C2B46580   0.650  31.526   6.750
 7982POPC   C3B46581   0.625  31.533   7.050
 7982POPC   C4B46582   0.619  31.561   7.350
 7983POPC   NC346583   4.362  18.248   5.550
 7983POPC   PO446584   4.269  18.295   5.850
 7983POPC   GL146585   4.339  18.257   6.150
 7983POPC   GL246586   4.368  18.184   6.150
 7983POPC   C1A46587   4.356  18.321   6.450
 7983POPC   D2A46588   4.329  18.299   6.750
 7983POPC   C3A46589   4.301  18.234   7.050
 7983POPC   C4A46590   4.278  18.239   7.350
 7983POPC   C1B46591   4.458  18.080   6.450
 7983POPC   C2B46592   4.428  18.075   6.750
 7983POPC   C3B46593   4.444  18.080   7.050
 7983POPC   C4B46594   4.481  18.119   7.350
 7984POPC   NC346595  32.267   5.905   5.550
 7984POPC   PO446596  32.263   5.846   5.850
 7984POPC   GL146597  32.286   5.867   6.150
 7984POPC   GL246598  32.341   5.858   6.150
 7984POPC   C1A46599  32.243   5.916   6.450
 7984POPC   D2A46600  32.214   5.866   6.750
 7984POPC   C3A46601  32.204   5.823   7.050
 7984POPC   C4A46602  32.217   5.845   7.350
 7984POPC   C1B46603  32.527   5.945   6.450
 7984POPC   C2B46604  32.488   5.906   6.750
 7984POPC   C3B46605  32.445   5.891   7.050
 7984POPC   C4B46606  32.450   5.896   7.350
 7985POPC   NC346607   4.288  34.600   5.550
 7985POPC   PO446608   4.306  34.586   5.850
 7985POPC   GL146609   4.311  34.583   6.150
 7985POPC   GL246610   4.225  34.652   6.150
 7985POPC   C1A46611   4.314  34.535   6.450
 7985POPC   D2A46612   4.279  34.550   6.750
 7985POPC   C3A46613   4.316  34.534   7.050
 7985POPC   C4A46614   4.325  34.585   7.350
 7985POPC   C1B46615   4.105  34.677   6.450
 7985POPC   C2B46616   4.148  34.701   6.750
 7985POPC   C3B46617   4.055  34.715   7.050
 7985POPC   C4B46618   4.120  34.736   7.350
 7986POPC   NC346619  35.370   1.958   5.550
 7986POPC   PO446620  35.387   2.015   5.850
 7986POPC   GL146621  35.354   1.999   6.150
 7986POPC   GL246622  35.487   2.084   6.150
 7986POPC   C1A46623  35.328   1.962   6.450
 7986POPC   D2A46624  35.397   1.982   6.750
 7986POPC   C3A46625  35.358   1.986   7.050
 7986POPC   C4A46626  35.365   2.001   7.350
 7986POPC   C1B46627  35.491   2.189   6.450
 7986POPC   C2B46628  35.580   2.186   6.750
 7986POPC   C3B46629  35.562   2.200   7.050
 7986POPC   C4B46630  35.503   2.160   7.350
 7987POPC   NC346631  15.950  42.359   5.550
 7987POPC   PO446632  15.919  42.358   5.850
 7987POPC   GL146633  15.937  42.293   6.150
 7987POPC   GL246634  16.049  42.275   6.150
 7987POPC   C1A46635  15.968  42.368   6.450
 7987POPC   D2A46636  15.929  42.320   6.750
 7987POPC   C3A46637  15.955  42.353   7.050
 7987POPC   C4A46638  15.935  42.286   7.350
 7987POPC   C1B46639  16.229  42.257   6.450
 7987POPC   C2B46640  16.213  42.264   6.750
 7987POPC   C3B46641  16.172  42.296   7.050
 7987POPC   C4B46642  16.229  42.317   7.350
 7988POPC   NC346643   1.976  43.905   5.550
 7988POPC   PO446644   1.959  43.851   5.850
 7988POPC   GL146645   2.024  43.918   6.150
 7988POPC   GL246646   1.893  43.873   6.150
 7988POPC   C1A46647   1.974  43.900   6.450
 7988POPC   D2A46648   1.990  43.845   6.750
 7988POPC   C3A46649   2.028  43.864   7.050
 7988POPC   C4A46650   1.989  43.930   7.350
 7988POPC   C1B46651   1.713  43.890   6.450
 7988POPC   C2B46652   1.746  43.903   6.750
 7988POPC   C3B46653   1.731  43.971   7.050
 7988POPC   C4B46654   1.788  43.974   7.350
 7989POPC   NC346655   7.428  29.897   5.550
 7989POPC   PO446656   7.423  29.968   5.850
 7989POPC   GL146657   7.417  29.929   6.150
 7989POPC   GL246658   7.522  29.902   6.150
 7989POPC   C1A46659   7.425  29.915   6.450
 7989POPC   D2A46660   7.455  29.902   6.750
 7989POPC   C3A46661   7.421  29.968   7.050
 7989POPC   C4A46662   7.422  29.877   7.350
 7989POPC   C1B46663   7.682  29.895   6.450
 7989POPC   C2B46664   7.692  29.950   6.750
 7989POPC   C3B46665   7.653  29.876   7.050
 7989POPC   C4B46666   7.683  29.950   7.350
 7990POPC   NC346667   0.471  39.182   5.550
 7990POPC   PO446668   0.409  39.213   5.850
 7990POPC   GL146669   0.424  39.265   6.150
 7990POPC   GL246670   0.394  39.114   6.150
 7990POPC   C1A46671   0.465  39.229   6.450
 7990POPC   D2A46672   0.437  39.220   6.750
 7990POPC   C3A46673   0.459  39.189   7.050
 7990POPC   C4A46674   0.480  39.244   7.350
 7990POPC   C1B46675   0.400  39.017   6.450
 7990POPC   C2B46676   0.422  38.960   6.750
 7990POPC   C3B46677   0.391  39.034   7.050
 7990POPC   C4B46678   0.341  39.036   7.350
 7991POPC   NC346679  21.427   0.388   5.550
 7991POPC   PO446680  21.386   0.479   5.850
 7991POPC   GL146681  21.385   0.464   6.150
 7991POPC   GL246682  21.237   0.430   6.150
 7991POPC   C1A46683  21.349   0.470   6.450
 7991POPC   D2A46684  21.406   0.443   6.750
 7991POPC   C3A46685  21.350   0.425   7.050
 7991POPC   C4A46686  21.360   0.413   7.350
 7991POPC   C1B46687  21.146   0.438   6.450
 7991POPC   C2B46688  21.170   0.385   6.750
 7991POPC   C3B46689  21.095   0.424   7.050
 7991POPC   C4B46690  21.114   0.470   7.350
 7992POPC   NC346691   9.736   8.229   5.550
 7992POPC   PO446692   9.766   8.204   5.850
 7992POPC   GL146693   9.792   8.191   6.150
 7992POPC   GL246694   9.849   8.296   6.150
 7992POPC   C1A46695   9.741   8.183   6.450
 7992POPC   D2A46696   9.782   8.151   6.750
 7992POPC   C3A46697   9.737   8.185   7.050
 7992POPC   C4A46698   9.709   8.162   7.350
 7992POPC   C1B46699   9.895   8.399   6.450
 7992POPC   C2B46700   9.859   8.372   6.750
 7992POPC   C3B46701   9.914   8.442   7.050
 7992POPC   C4B46702   9.844   8.419   7.350
 7993POPC   NC346703  15.935  12.117   5.550
 7993POPC   PO446704  15.981  12.110   5.850
 7993POPC   GL146705  15.926  12.121   6.150
 7993POPC   GL246706  15.861  11.999   6.150
 7993POPC   C1A46707  15.937  12.076   6.450
 7993POPC   D2A46708  15.992  12.061   6.750
 7993POPC   C3A46709  15.948  12.099   7.050
 7993POPC   C4A46710  15.935  12.038   7.350
 7993POPC   C1B46711  15.732  11.982   6.450
 7993POPC   C2B46712  15.731  11.970   6.750
 7993POPC   C3B46713  15.721  12.036   7.050
 7993POPC   C4B46714  15.748  11.999   7.350
 7994POPC   NC346715  22.970   4.335   5.550
 7994POPC   PO446716  22.927   4.357   5.850
 7994POPC   GL146717  22.922   4.268   6.150
 7994POPC   GL246718  22.992   4.155   6.150
 7994POPC   C1A46719  22.914   4.279   6.450
 7994POPC   D2A46720  22.932   4.290   6.750
 7994POPC   C3A46721  22.980   4.366   7.050
 7994POPC   C4A46722  22.931   4.302   7.350
 7994POPC   C1B46723  22.945   4.037   6.450
 7994POPC   C2B46724  22.930   4.043   6.750
 7994POPC   C3B46725  22.942   4.093   7.050
 7994POPC   C4B46726  23.002   4.120   7.350
 7995POPC   NC346727   3.562  30.707   5.550
 7995POPC   PO446728   3.552  30.736   5.850
 7995POPC   GL146729   3.564  30.685   6.150
 7995POPC   GL246730   3.415  30.677   6.150
 7995POPC   C1A46731   3.574  30.666   6.450
 7995POPC   D2A46732   3.502  30.712   6.750
 7995POPC   C3A46733   3.498  30.730   7.050
 7995POPC   C4A46734   3.526  30.728   7.350
 7995POPC   C1B46735   3.340  30.634   6.450
 7995POPC   C2B46736   3.250  30.629   6.750
 7995POPC   C3B46737   3.251  30.678   7.050
 7995POPC   C4B46738   3.339  30.623   7.350
 7996POPC   NC346739  13.645  32.205   5.550
 7996POPC   PO446740  13.668  32.238   5.850
 7996POPC   GL146741  13.647  32.247   6.150
 7996POPC   GL246742  13.569  32.340   6.150
 7996POPC   C1A46743  13.608  32.212   6.450
 7996POPC   D2A46744  13.653  32.221   6.750
 7996POPC   C3A46745  13.631  32.244   7.050
 7996POPC   C4A46746  13.582  32.224   7.350
 7996POPC   C1B46747  13.519  32.442   6.450
 7996POPC   C2B46748  13.510  32.453   6.750
 7996POPC   C3B46749  13.534  32.472   7.050
 7996POPC   C4B46750  13.513  32.435   7.350
 7997POPC   NC346751  15.947  19.021   5.550
 7997POPC   PO446752  15.906  19.075   5.850
 7997POPC   GL146753  15.908  19.101   6.150
 7997POPC   GL246754  15.931  19.222   6.150
 7997POPC   C1A46755  15.968  19.044   6.450
 7997POPC   D2A46756  15.976  19.037   6.750
 7997POPC   C3A46757  15.963  19.024   7.050
 7997POPC   C4A46758  15.948  19.076   7.350
 7997POPC   C1B46759  15.968  19.257   6.450
 7997POPC   C2B46760  15.962  19.284   6.750
 7997POPC   C3B46761  15.952  19.270   7.050
 7997POPC   C4B46762  15.921  19.322   7.350
 7998POPC   NC346763  13.676  28.416   5.550
 7998POPC   PO446764  13.605  28.336   5.850
 7998POPC   GL146765  13.650  28.335   6.150
 7998POPC   GL246766  13.548  28.306   6.150
 7998POPC   C1A46767  13.677  28.326   6.450
 7998POPC   D2A46768  13.627  28.419   6.750
 7998POPC   C3A46769  13.614  28.362   7.050
 7998POPC   C4A46770  13.645  28.357   7.350
 7998POPC   C1B46771  13.445  28.189   6.450
 7998POPC   C2B46772  13.435  28.202   6.750
 7998POPC   C3B46773  13.393  28.250   7.050
 7998POPC   C4B46774  13.397  28.162   7.350
 7999POPC   NC346775  37.702  36.908   5.550
 7999POPC   PO446776  37.650  36.871   5.850
 7999POPC   GL146777  37.637  36.880   6.150
 7999POPC   GL246778  37.854  36.858   6.150
 7999POPC   C1A46779  37.709  36.905   6.450
 7999POPC   D2A46780  37.714  36.911   6.750
 7999POPC   C3A46781  37.680  36.888   7.050
 7999POPC   C4A46782  37.648  36.877   7.350
 7999POPC   C1B46783  37.913  36.838   6.450
 7999POPC   C2B46784  37.905  36.898   6.750
 7999POPC   C3B46785  37.902  36.891   7.050
 7999POPC   C4B46786  37.926  36.925   7.350
 8000POPC   NC346787  33.057   5.907   5.550
 8000POPC   PO446788  33.045   5.902   5.850
 8000POPC   GL146789  33.010   5.892   6.150
 8000POPC   GL246790  33.065   6.020   6.150
 8000POPC   C1A46791  32.986   5.891   6.450
 8000POPC   D2A46792  33.067   5.836   6.750
 8000POPC   C3A46793  32.995   5.848   7.050
 8000POPC   C4A46794  33.006   5.849   7.350
 8000POPC   C1B46795  33.066   6.066   6.450
 8000POPC   C2B46796  33.095   6.097   6.750
 8000POPC   C3B46797  33.023   6.119   7.050
 8000POPC   C4B46798  33.076   6.132   7.350
 8001POPC   NC346799   0.421  24.466   5.550
 8001POPC   PO446800   0.428  24.490   5.850
 8001POPC   GL146801   0.451  24.500   6.150
 8001POPC   GL246802   0.348  24.544   6.150
 8001POPC   C1A46803   0.416  24.535   6.450
 8001POPC   D2A46804   0.389  24.519   6.750
 8001POPC   C3A46805   0.475  24.520   7.050
 8001POPC   C4A46806   0.441  24.483   7.350
 8001POPC   C1B46807   0.230  24.683   6.450
 8001POPC   C2B46808   0.277  24.707   6.750
 8001POPC   C3B46809   0.261  24.709   7.050
 8001POPC   C4B46810   0.233  24.695   7.350
 8002POPC   NC346811   4.282   4.357   5.550
 8002POPC   PO446812   4.299   4.282   5.850
 8002POPC   GL146813   4.304   4.350   6.150
 8002POPC   GL246814   4.232   4.401   6.150
 8002POPC   C1A46815   4.338   4.301   6.450
 8002POPC   D2A46816   4.281   4.344   6.750
 8002POPC   C3A46817   4.353   4.274   7.050
 8002POPC   C4A46818   4.350   4.353   7.350
 8002POPC   C1B46819   4.200   4.518   6.450
 8002POPC   C2B46820   4.236   4.544   6.750
 8002POPC   C3B46821   4.208   4.599   7.050
 8002POPC   C4B46822   4.243   4.569   7.350
 8003POPC   NC346823  19.816  35.362   5.550
 8003POPC   PO446824  19.846  35.308   5.850
 8003POPC   GL146825  19.805  35.376   6.150
 8003POPC   GL246826  19.927  35.294   6.150
 8003POPC   C1A46827  19.799  35.334   6.450
 8003POPC   D2A46828  19.830  35.396   6.750
 8003POPC   C3A46829  19.874  35.396   7.050
 8003POPC   C4A46830  19.853  35.328   7.350
 8003POPC   C1B46831  20.019  35.211   6.450
 8003POPC   C2B46832  20.031  35.194   6.750
 8003POPC   C3B46833  20.106  35.211   7.050
 8003POPC   C4B46834  20.068  35.207   7.350
 8004POPC   NC346835   2.779   0.460   5.550
 8004POPC   PO446836   2.796   0.448   5.850
 8004POPC   GL146837   2.777   0.459   6.150
 8004POPC   GL246838   2.718   0.306   6.150
 8004POPC   C1A46839   2.774   0.418   6.450
 8004POPC   D2A46840   2.768   0.396   6.750
 8004POPC   C3A46841   2.741   0.453   7.050
 8004POPC   C4A46842   2.770   0.419   7.350
 8004POPC   C1B46843   2.693   0.206   6.450
 8004POPC   C2B46844   2.701   0.171   6.750
 8004POPC   C3B46845   2.755   0.147   7.050
 8004POPC   C4B46846   2.714   0.171   7.350
 8005POPC   NC346847   3.557  43.105   5.550
 8005POPC   PO446848   3.542  43.085   5.850
 8005POPC   GL146849   3.540  43.072   6.150
 8005POPC   GL246850   3.452  43.256   6.150
 8005POPC   C1A46851   3.497  43.072   6.450
 8005POPC   D2A46852   3.493  43.140   6.750
 8005POPC   C3A46853   3.563  43.077   7.050
 8005POPC   C4A46854   3.562  43.075   7.350
 8005POPC   C1B46855   3.443  43.345   6.450
 8005POPC   C2B46856   3.419  43.294   6.750
 8005POPC   C3B46857   3.430  43.348   7.050
 8005POPC   C4B46858   3.498  43.357   7.350
 8006POPC   NC346859   7.430  30.698   5.550
 8006POPC   PO446860   7.463  30.735   5.850
 8006POPC   GL146861   7.409  30.724   6.150
 8006POPC   GL246862   7.501  30.635   6.150
 8006POPC   C1A46863   7.457  30.678   6.450
 8006POPC   D2A46864   7.390  30.662   6.750
 8006POPC   C3A46865   7.409  30.700   7.050
 8006POPC   C4A46866   7.408  30.675   7.350
 8006POPC   C1B46867   7.637  30.552   6.450
 8006POPC   C2B46868   7.580  30.569   6.750
 8006POPC   C3B46869   7.559  30.498   7.050
 8006POPC   C4B46870   7.618  30.493   7.350
 8007POPC   NC346871  19.842   8.153   5.550
 8007POPC   PO446872  19.880   8.186   5.850
 8007POPC   GL146873  19.812   8.227   6.150
 8007POPC   GL246874  19.760   8.301   6.150
 8007POPC   C1A46875  19.785   8.203   6.450
 8007POPC   D2A46876  19.880   8.244   6.750
 8007POPC   C3A46877  19.830   8.243   7.050
 8007POPC   C4A46878  19.860   8.188   7.350
 8007POPC   C1B46879  19.740   8.433   6.450
 8007POPC   C2B46880  19.693   8.399   6.750
 8007POPC   C3B46881  19.696   8.439   7.050
 8007POPC   C4B46882  19.724   8.465   7.350
 8008POPC   NC346883  43.146   5.897   5.550
 8008POPC   PO446884  43.089   5.821   5.850
 8008POPC   GL146885  43.066   5.874   6.150
 8008POPC   GL246886  43.240   5.825   6.150
 8008POPC   C1A46887  43.133   5.827   6.450
 8008POPC   D2A46888  43.067   5.867   6.750
 8008POPC   C3A46889  43.100   5.878   7.050
 8008POPC   C4A46890  43.160   5.824   7.350
 8008POPC   C1B46891  43.320   5.737   6.450
 8008POPC   C2B46892  43.265   5.700   6.750
 8008POPC   C3B46893  43.350   5.676   7.050
 8008POPC   C4B46894  43.286   5.706   7.350
 8009POPC   NC346895  29.954  19.829   5.550
 8009POPC   PO446896  29.880  19.853   5.850
 8009POPC   GL146897  29.882  19.851   6.150
 8009POPC   GL246898  29.797  19.769   6.150
 8009POPC   C1A46899  29.891  19.817   6.450
 8009POPC   D2A46900  29.954  19.869   6.750
 8009POPC   C3A46901  29.893  19.802   7.050
 8009POPC   C4A46902  29.912  19.844   7.350
 8009POPC   C1B46903  29.732  19.611   6.450
 8009POPC   C2B46904  29.763  19.622   6.750
 8009POPC   C3B46905  29.758  19.648   7.050
 8009POPC   C4B46906  29.798  19.691   7.350
 8010POPC   NC346907  33.007  43.071   5.550
 8010POPC   PO446908  33.033  43.075   5.850
 8010POPC   GL146909  32.992  43.155   6.150
 8010POPC   GL246910  33.160  43.194   6.150
 8010POPC   C1A46911  33.029  43.088   6.450
 8010POPC   D2A46912  33.019  43.067   6.750
 8010POPC   C3A46913  33.043  43.135   7.050
 8010POPC   C4A46914  33.003  43.064   7.350
 8010POPC   C1B46915  33.256  43.295   6.450
 8010POPC   C2B46916  33.228  43.232   6.750
 8010POPC   C3B46917  33.261  43.236   7.050
 8010POPC   C4B46918  33.259  43.234   7.350
 8011POPC   NC346919  32.214   5.080   5.550
 8011POPC   PO446920  32.230   5.112   5.850
 8011POPC   GL146921  32.229   5.048   6.150
 8011POPC   GL246922  32.396   5.086   6.150
 8011POPC   C1A46923  32.204   5.068   6.450
 8011POPC   D2A46924  32.250   5.108   6.750
 8011POPC   C3A46925  32.274   5.062   7.050
 8011POPC   C4A46926  32.278   5.123   7.350
 8011POPC   C1B46927  32.449   5.008   6.450
 8011POPC   C2B46928  32.430   4.959   6.750
 8011POPC   C3B46929  32.503   4.948   7.050
 8011POPC   C4B46930  32.443   4.982   7.350
 8012POPC   NC346931   1.207  28.400   5.550
 8012POPC   PO446932   1.227  28.387   5.850
 8012POPC   GL146933   1.174  28.322   6.150
 8012POPC   GL246934   1.186  28.524   6.150
 8012POPC   C1A46935   1.194  28.361   6.450
 8012POPC   D2A46936   1.205  28.368   6.750
 8012POPC   C3A46937   1.212  28.374   7.050
 8012POPC   C4A46938   1.254  28.330   7.350
 8012POPC   C1B46939   1.083  28.562   6.450
 8012POPC   C2B46940   1.119  28.562   6.750
 8012POPC   C3B46941   1.096  28.579   7.050
 8012POPC   C4B46942   1.155  28.600   7.350
 8013POPC   NC346943  20.625  23.675   5.550
 8013POPC   PO446944  20.655  23.681   5.850
 8013POPC   GL146945  20.640  23.683   6.150
 8013POPC   GL246946  20.738  23.803   6.150
 8013POPC   C1A46947  20.626  23.664   6.450
 8013POPC   D2A46948  20.625  23.681   6.750
 8013POPC   C3A46949  20.651  23.683   7.050
 8013POPC   C4A46950  20.659  23.720   7.350
 8013POPC   C1B46951  20.786  23.835   6.450
 8013POPC   C2B46952  20.804  23.800   6.750
 8013POPC   C3B46953  20.829  23.878   7.050
 8013POPC   C4B46954  20.828  23.889   7.350
 8014POPC   NC346955  12.818  40.037   5.550
 8014POPC   PO446956  12.894  39.996   5.850
 8014POPC   GL146957  12.858  40.028   6.150
 8014POPC   GL246958  12.983  39.940   6.150
 8014POPC   C1A46959  12.843  40.000   6.450
 8014POPC   D2A46960  12.846  39.958   6.750
 8014POPC   C3A46961  12.859  39.979   7.050
 8014POPC   C4A46962  12.872  39.967   7.350
 8014POPC   C1B46963  13.084  39.969   6.450
 8014POPC   C2B46964  13.095  39.939   6.750
 8014POPC   C3B46965  13.066  39.904   7.050
 8014POPC   C4B46966  13.139  39.975   7.350
 8015POPC   NC346967   0.439  32.262   5.550
 8015POPC   PO446968   0.406  32.292   5.850
 8015POPC   GL146969   0.413  32.266   6.150
 8015POPC   GL246970   0.343  32.122   6.150
 8015POPC   C1A46971   0.487  32.223   6.450
 8015POPC   D2A46972   0.452  32.292   6.750
 8015POPC   C3A46973   0.479  32.215   7.050
 8015POPC   C4A46974   0.453  32.214   7.350
 8015POPC   C1B46975   0.302  32.044   6.450
 8015POPC   C2B46976   0.275  32.074   6.750
 8015POPC   C3B46977   0.230  32.067   7.050
 8015POPC   C4B46978   0.271  32.106   7.350
 8016POPC   NC346979  27.629  29.187   5.550
 8016POPC   PO446980  27.557  29.133   5.850
 8016POPC   GL146981  27.600  29.101   6.150
 8016POPC   GL246982  27.637  29.019   6.150
 8016POPC   C1A46983  27.609  29.113   6.450
 8016POPC   D2A46984  27.577  29.144   6.750
 8016POPC   C3A46985  27.604  29.155   7.050
 8016POPC   C4A46986  27.623  29.170   7.350
 8016POPC   C1B46987  27.611  28.899   6.450
 8016POPC   C2B46988  27.661  28.936   6.750
 8016POPC   C3B46989  27.615  28.911   7.050
 8016POPC   C4B46990  27.622  28.906   7.350
 8017POPC   NC346991   4.328  13.605   5.550
 8017POPC   PO446992   4.360  13.654   5.850
 8017POPC   GL146993   4.347  13.581   6.150
 8017POPC   GL246994   4.340  13.516   6.150
 8017POPC   C1A46995   4.292  13.652   6.450
 8017POPC   D2A46996   4.348  13.620   6.750
 8017POPC   C3A46997   4.283  13.660   7.050
 8017POPC   C4A46998   4.311  13.584   7.350
 8017POPC   C1B46999   4.322  13.395   6.450
 8017POPC   C2B47000   4.367  13.397   6.750
 8017POPC   C3B47001   4.367  13.415   7.050
 8017POPC   C4B47002   4.336  13.390   7.350
 8018POPC   NC347003  12.824   0.406   5.550
 8018POPC   PO447004  12.855   0.469   5.850
 8018POPC   GL147005  12.804   0.468   6.150
 8018POPC   GL247006  12.699   0.429   6.150
 8018POPC   C1A47007  12.896   0.466   6.450
 8018POPC   D2A47008  12.895   0.408   6.750
 8018POPC   C3A47009  12.876   0.454   7.050
 8018POPC   C4A47010  12.835   0.414   7.350
 8018POPC   C1B47011  12.650   0.408   6.450
 8018POPC   C2B47012  12.622   0.496   6.750
 8018POPC   C3B47013  12.561   0.505   7.050
 8018POPC   C4B47014  12.566   0.463   7.350
 8019POPC   NC347015  20.659   0.439   5.550
 8019POPC   PO447016  20.577   0.427   5.850
 8019POPC   GL147017  20.646   0.435   6.150
 8019POPC   GL247018  20.564   0.355   6.150
 8019POPC   C1A47019  20.570   0.408   6.450
 8019POPC   D2A47020  20.660   0.481   6.750
 8019POPC   C3A47021  20.579   0.413   7.050
 8019POPC   C4A47022  20.611   0.465   7.350
 8019POPC   C1B47023  20.474   0.238   6.450
 8019POPC   C2B47024  20.444   0.274   6.750
 8019POPC   C3B47025  20.404   0.222   7.050
 8019POPC   C4B47026  20.460   0.262   7.350
 8020POPC   NC347027   8.211  16.727   5.550
 8020POPC   PO447028   8.228  16.728   5.850
 8020POPC   GL147029   8.150  16.746   6.150
 8020POPC   GL247030   8.293  16.791   6.150
 8020POPC   C1A47031   8.177  16.742   6.450
 8020POPC   D2A47032   8.151  16.715   6.750
 8020POPC   C3A47033   8.227  16.689   7.050
 8020POPC   C4A47034   8.182  16.780   7.350
 8020POPC   C1B47035   8.486  16.821   6.450
 8020POPC   C2B47036   8.464  16.820   6.750
 8020POPC   C3B47037   8.486  16.753   7.050
 8020POPC   C4B47038   8.394  16.822   7.350
 8021POPC   NC347039  16.761   1.952   5.550
 8021POPC   PO447040  16.760   1.995   5.850
 8021POPC   GL147041  16.728   1.991   6.150
 8021POPC   GL247042  16.602   1.981   6.150
 8021POPC   C1A47043  16.759   2.015   6.450
 8021POPC   D2A47044  16.703   1.957   6.750
 8021POPC   C3A47045  16.694   1.994   7.050
 8021POPC   C4A47046  16.696   2.034   7.350
 8021POPC   C1B47047  16.517   1.872   6.450
 8021POPC   C2B47048  16.470   1.910   6.750
 8021POPC   C3B47049  16.479   1.891   7.050
 8021POPC   C4B47050  16.505   1.854   7.350
 8022POPC   NC347051  33.017   4.354   5.550
 8022POPC   PO447052  32.988   4.305   5.850
 8022POPC   GL147053  32.992   4.347   6.150
 8022POPC   GL247054  32.958   4.165   6.150
 8022POPC   C1A47055  33.029   4.292   6.450
 8022POPC   D2A47056  32.978   4.296   6.750
 8022POPC   C3A47057  33.048   4.353   7.050
 8022POPC   C4A47058  33.009   4.360   7.350
 8022POPC   C1B47059  32.893   4.084   6.450
 8022POPC   C2B47060  32.925   4.050   6.750
 8022POPC   C3B47061  32.892   4.113   7.050
 8022POPC   C4B47062  32.946   4.083   7.350
 8023POPC   NC347063  20.579  13.619   5.550
 8023POPC   PO447064  20.574  13.629   5.850
 8023POPC   GL147065  20.626  13.667   6.150
 8023POPC   GL247066  20.617  13.554   6.150
 8023POPC   C1A47067  20.656  13.669   6.450
 8023POPC   D2A47068  20.625  13.676   6.750
 8023POPC   C3A47069  20.638  13.616   7.050
 8023POPC   C4A47070  20.602  13.588   7.350
 8023POPC   C1B47071  20.705  13.396   6.450
 8023POPC   C2B47072  20.706  13.387   6.750
 8023POPC   C3B47073  20.709  13.362   7.050
 8023POPC   C4B47074  20.721  13.367   7.350
 8024POPC   NC347075  37.721  40.810   5.550
 8024POPC   PO447076  37.729  40.782   5.850
 8024POPC   GL147077  37.687  40.792   6.150
 8024POPC   GL247078  37.816  40.675   6.150
 8024POPC   C1A47079  37.634  40.827   6.450
 8024POPC   D2A47080  37.688  40.788   6.750
 8024POPC   C3A47081  37.727  40.762   7.050
 8024POPC   C4A47082  37.680  40.765   7.350
 8024POPC   C1B47083  37.941  40.687   6.450
 8024POPC   C2B47084  37.931  40.667   6.750
 8024POPC   C3B47085  37.887  40.657   7.050
 8024POPC   C4B47086  37.914  40.662   7.350
 8025POPC   NC347087  42.311  28.418   5.550
 8025POPC   PO447088  42.358  28.371   5.850
 8025POPC   GL147089  42.344  28.395   6.150
 8025POPC   GL247090  42.256  28.460   6.150
 8025POPC   C1A47091  42.360  28.379   6.450
 8025POPC   D2A47092  42.345  28.367   6.750
 8025POPC   C3A47093  42.384  28.373   7.050
 8025POPC   C4A47094  42.293  28.329   7.350
 8025POPC   C1B47095  42.254  28.612   6.450
 8025POPC   C2B47096  42.222  28.589   6.750
 8025POPC   C3B47097  42.214  28.551   7.050
 8025POPC   C4B47098  42.250  28.571   7.350
 8026POPC   NC347099  17.477  19.795   5.550
 8026POPC   PO447100  17.527  19.813   5.850
 8026POPC   GL147101  17.503  19.876   6.150
 8026POPC   GL247102  17.386  19.767   6.150
 8026POPC   C1A47103  17.516  19.804   6.450
 8026POPC   D2A47104  17.513  19.797   6.750
 8026POPC   C3A47105  17.466  19.796   7.050
 8026POPC   C4A47106  17.535  19.809   7.350
 8026POPC   C1B47107  17.321  19.672   6.450
 8026POPC   C2B47108  17.369  19.683   6.750
 8026POPC   C3B47109  17.296  19.623   7.050
 8026POPC   C4B47110  17.377  19.671   7.350
 8027POPC   NC347111  14.428  37.694   5.550
 8027POPC   PO447112  14.432  37.630   5.850
 8027POPC   GL147113  14.383  37.687   6.150
 8027POPC   GL247114  14.490  37.564   6.150
 8027POPC   C1A47115  14.362  37.653   6.450
 8027POPC   D2A47116  14.398  37.721   6.750
 8027POPC   C3A47117  14.411  37.643   7.050
 8027POPC   C4A47118  14.377  37.649   7.350
 8027POPC   C1B47119  14.600  37.457   6.450
 8027POPC   C2B47120  14.537  37.439   6.750
 8027POPC   C3B47121  14.518  37.435   7.050
 8027POPC   C4B47122  14.502  37.434   7.350
 8028POPC   NC347123   5.853  25.257   5.550
 8028POPC   PO447124   5.823  25.217   5.850
 8028POPC   GL147125   5.872  25.271   6.150
 8028POPC   GL247126   5.914  25.384   6.150
 8028POPC   C1A47127   5.848  25.219   6.450
 8028POPC   D2A47128   5.917  25.268   6.750
 8028POPC   C3A47129   5.871  25.270   7.050
 8028POPC   C4A47130   5.871  25.251   7.350
 8028POPC   C1B47131   6.007  25.467   6.450
 8028POPC   C2B47132   5.959  25.540   6.750
 8028POPC   C3B47133   5.930  25.456   7.050
 8028POPC   C4B47134   5.957  25.537   7.350
 8029POPC   NC347135  24.534  25.307   5.550
 8029POPC   PO447136  24.531  25.265   5.850
 8029POPC   GL147137  24.491  25.229   6.150
 8029POPC   GL247138  24.632  25.306   6.150
 8029POPC   C1A47139  24.468  25.219   6.450
 8029POPC   D2A47140  24.499  25.234   6.750
 8029POPC   C3A47141  24.456  25.242   7.050
 8029POPC   C4A47142  24.481  25.229   7.350
 8029POPC   C1B47143  24.751  25.250   6.450
 8029POPC   C2B47144  24.765  25.333   6.750
 8029POPC   C3B47145  24.695  25.271   7.050
 8029POPC   C4B47146  24.693  25.292   7.350
 8030POPC   NC347147  41.545  11.281   5.550
 8030POPC   PO447148  41.536  11.260   5.850
 8030POPC   GL147149  41.595  11.307   6.150
 8030POPC   GL247150  41.729  11.334   6.150
 8030POPC   C1A47151  41.542  11.276   6.450
 8030POPC   D2A47152  41.580  11.295   6.750
 8030POPC   C3A47153  41.572  11.346   7.050
 8030POPC   C4A47154  41.574  11.256   7.350
 8030POPC   C1B47155  41.838  11.311   6.450
 8030POPC   C2B47156  41.773  11.273   6.750
 8030POPC   C3B47157  41.801  11.356   7.050
 8030POPC   C4B47158  41.804  11.363   7.350
 8031POPC   NC347159  17.469  30.682   5.550
 8031POPC   PO447160  17.478  30.724   5.850
 8031POPC   GL147161  17.486  30.675   6.150
 8031POPC   GL247162  17.445  30.622   6.150
 8031POPC   C1A47163  17.507  30.654   6.450
 8031POPC   D2A47164  17.539  30.680   6.750
 8031POPC   C3A47165  17.458  30.717   7.050
 8031POPC   C4A47166  17.540  30.717   7.350
 8031POPC   C1B47167  17.406  30.454   6.450
 8031POPC   C2B47168  17.446  30.470   6.750
 8031POPC   C3B47169  17.477  30.466   7.050
 8031POPC   C4B47170  17.492  30.467   7.350
 8032POPC   NC347171  38.464   7.420   5.550
 8032POPC   PO447172  38.466   7.428   5.850
 8032POPC   GL147173  38.433   7.424   6.150
 8032POPC   GL247174  38.531   7.303   6.150
 8032POPC   C1A47175  38.472   7.379   6.450
 8032POPC   D2A47176  38.436   7.383   6.750
 8032POPC   C3A47177  38.419   7.462   7.050
 8032POPC   C4A47178  38.478   7.457   7.350
 8032POPC   C1B47179  38.490   7.148   6.450
 8032POPC   C2B47180  38.491   7.190   6.750
 8032POPC   C3B47181  38.516   7.173   7.050
 8032POPC   C4B47182  38.484   7.219   7.350
 8033POPC   NC347183  22.142  17.527   5.550
 8033POPC   PO447184  22.119  17.496   5.850
 8033POPC   GL147185  22.147  17.541   6.150
 8033POPC   GL247186  22.201  17.399   6.150
 8033POPC   C1A47187  22.140  17.516   6.450
 8033POPC   D2A47188  22.209  17.473   6.750
 8033POPC   C3A47189  22.205  17.525   7.050
 8033POPC   C4A47190  22.187  17.545   7.350
 8033POPC   C1B47191  22.210  17.314   6.450
 8033POPC   C2B47192  22.298  17.298   6.750
 8033POPC   C3B47193  22.213  17.279   7.050
 8033POPC   C4B47194  22.224  17.226   7.350
 8034POPC   NC347195   1.944  15.214   5.550
 8034POPC   PO447196   1.989  15.167   5.850
 8034POPC   GL147197   1.942  15.200   6.150
 8034POPC   GL247198   2.039  15.038   6.150
 8034POPC   C1A47199   2.007  15.222   6.450
 8034POPC   D2A47200   1.996  15.179   6.750
 8034POPC   C3A47201   1.973  15.177   7.050
 8034POPC   C4A47202   1.993  15.138   7.350
 8034POPC   C1B47203   1.993  14.883   6.450
 8034POPC   C2B47204   2.050  14.978   6.750
 8034POPC   C3B47205   1.980  14.889   7.050
 8034POPC   C4B47206   1.995  14.901   7.350
 8035POPC   NC347207  40.024  39.199   5.550
 8035POPC   PO447208  39.975  39.248   5.850
 8035POPC   GL147209  40.020  39.193   6.150
 8035POPC   GL247210  40.071  39.338   6.150
 8035POPC   C1A47211  39.959  39.257   6.450
 8035POPC   D2A47212  39.962  39.185   6.750
 8035POPC   C3A47213  39.957  39.200   7.050
 8035POPC   C4A47214  40.011  39.187   7.350
 8035POPC   C1B47215  40.231  39.408   6.450
 8035POPC   C2B47216  40.232  39.366   6.750
 8035POPC   C3B47217  40.221  39.410   7.050
 8035POPC   C4B47218  40.184  39.434   7.350
 8036POPC   NC347219  35.315  19.055   5.550
 8036POPC   PO447220  35.346  19.030   5.850
 8036POPC   GL147221  35.399  19.065   6.150
 8036POPC   GL247222  35.358  19.195   6.150
 8036POPC   C1A47223  35.324  19.108   6.450
 8036POPC   D2A47224  35.318  19.065   6.750
 8036POPC   C3A47225  35.322  19.082   7.050
 8036POPC   C4A47226  35.312  19.078   7.350
 8036POPC   C1B47227  35.271  19.314   6.450
 8036POPC   C2B47228  35.268  19.292   6.750
 8036POPC   C3B47229  35.321  19.289   7.050
 8036POPC   C4B47230  35.290  19.347   7.350
 8037POPC   NC347231  12.847   3.547   5.550
 8037POPC   PO447232  12.879   3.581   5.850
 8037POPC   GL147233  12.840   3.521   6.150
 8037POPC   GL247234  12.944   3.422   6.150
 8037POPC   C1A47235  12.876   3.547   6.450
 8037POPC   D2A47236  12.901   3.546   6.750
 8037POPC   C3A47237  12.866   3.587   7.050
 8037POPC   C4A47238  12.896   3.549   7.350
 8037POPC   C1B47239  13.023   3.356   6.450
 8037POPC   C2B47240  13.056   3.340   6.750
 8037POPC   C3B47241  13.048   3.406   7.050
 8037POPC   C4B47242  13.064   3.332   7.350
 8038POPC   NC347243   2.010  17.518   5.550
 8038POPC   PO447244   1.953  17.556   5.850
 8038POPC   GL147245   2.026  17.536   6.150
 8038POPC   GL247246   1.993  17.614   6.150
 8038POPC   C1A47247   1.956  17.464   6.450
 8038POPC   D2A47248   2.033  17.511   6.750
 8038POPC   C3A47249   2.023  17.484   7.050
 8038POPC   C4A47250   1.974  17.483   7.350
 8038POPC   C1B47251   1.938  17.728   6.450
 8038POPC   C2B47252   1.937  17.760   6.750
 8038POPC   C3B47253   1.874  17.721   7.050
 8038POPC   C4B47254   1.899  17.790   7.350
 8039POPC   NC347255  43.903  41.538   5.550
 8039POPC   PO447256  43.858  41.548   5.850
 8039POPC   GL147257  43.840  41.596   6.150
 8039POPC   GL247258  43.930  41.417   6.150
 8039POPC   C1A47259  43.845  41.582   6.450
 8039POPC   D2A47260  43.837  41.535   6.750
 8039POPC   C3A47261  43.921  41.540   7.050
 8039POPC   C4A47262  43.929  41.520   7.350
 8039POPC   C1B47263  43.941  41.349   6.450
 8039POPC   C2B47264  43.936  41.309   6.750
 8039POPC   C3B47265  43.969  41.290   7.050
 8039POPC   C4B47266  43.926  41.302   7.350
 8040POPC   NC347267  35.350  16.739   5.550
 8040POPC   PO447268  35.393  16.695   5.850
 8040POPC   GL147269  35.399  16.745   6.150
 8040POPC   GL247270  35.446  16.796   6.150
 8040POPC   C1A47271  35.341  16.685   6.450
 8040POPC   D2A47272  35.321  16.705   6.750
 8040POPC   C3A47273  35.323  16.700   7.050
 8040POPC   C4A47274  35.308  16.704   7.350
 8040POPC   C1B47275  35.509  16.920   6.450
 8040POPC   C2B47276  35.548  16.846   6.750
 8040POPC   C3B47277  35.520  16.851   7.050
 8040POPC   C4B47278  35.547  16.916   7.350
 8041POPC   NC347279  36.874   4.268   5.550
 8041POPC   PO447280  36.949   4.297   5.850
 8041POPC   GL147281  36.945   4.321   6.150
 8041POPC   GL247282  37.044   4.258   6.150
 8041POPC   C1A47283  36.874   4.339   6.450
 8041POPC   D2A47284  36.884   4.299   6.750
 8041POPC   C3A47285  36.889   4.277   7.050
 8041POPC   C4A47286  36.873   4.318   7.350
 8041POPC   C1B47287  37.172   4.191   6.450
 8041POPC   C2B47288  37.176   4.190   6.750
 8041POPC   C3B47289  37.182   4.190   7.050
 8041POPC   C4B47290  37.107   4.282   7.350
 8042POPC   NC347291  30.679  26.018   5.550
 8042POPC   PO447292  30.733  26.039   5.850
 8042POPC   GL147293  30.651  26.014   6.150
 8042POPC   GL247294  30.575  26.076   6.150
 8042POPC   C1A47295  30.653  26.028   6.450
 8042POPC   D2A47296  30.647  26.078   6.750
 8042POPC   C3A47297  30.656  26.078   7.050
 8042POPC   C4A47298  30.659  26.025   7.350
 8042POPC   C1B47299  30.403  26.042   6.450
 8042POPC   C2B47300  30.430  26.106   6.750
 8042POPC   C3B47301  30.426  26.051   7.050
 8042POPC   C4B47302  30.475  26.121   7.350
 8043POPC   NC347303  39.978  17.468   5.550
 8043POPC   PO447304  40.023  17.509   5.850
 8043POPC   GL147305  40.033  17.460   6.150
 8043POPC   GL247306  40.094  17.449   6.150
 8043POPC   C1A47307  39.977  17.482   6.450
 8043POPC   D2A47308  40.056  17.518   6.750
 8043POPC   C3A47309  40.009  17.469   7.050
 8043POPC   C4A47310  40.000  17.501   7.350
 8043POPC   C1B47311  40.227  17.391   6.450
 8043POPC   C2B47312  40.256  17.399   6.750
 8043POPC   C3B47313  40.193  17.372   7.050
 8043POPC   C4B47314  40.209  17.426   7.350
 8044POPC   NC347315  22.965  32.978   5.550
 8044POPC   PO447316  22.938  33.022   5.850
 8044POPC   GL147317  22.954  33.056   6.150
 8044POPC   GL247318  23.021  32.955   6.150
 8044POPC   C1A47319  22.900  33.051   6.450
 8044POPC   D2A47320  22.890  33.010   6.750
 8044POPC   C3A47321  22.922  33.024   7.050
 8044POPC   C4A47322  22.924  33.032   7.350
 8044POPC   C1B47323  23.223  32.976   6.450
 8044POPC   C2B47324  23.159  32.949   6.750
 8044POPC   C3B47325  23.211  32.909   7.050
 8044POPC   C4B47326  23.171  32.976   7.350
 8045POPC   NC347327   1.981  40.773   5.550
 8045POPC   PO447328   1.946  40.794   5.850
 8045POPC   GL147329   2.010  40.781   6.150
 8045POPC   GL247330   2.101  40.794   6.150
 8045POPC   C1A47331   1.971  40.741   6.450
 8045POPC   D2A47332   1.981  40.829   6.750
 8045POPC   C3A47333   1.952  40.749   7.050
 8045POPC   C4A47334   1.947  40.763   7.350
 8045POPC   C1B47335   2.231  40.871   6.450
 8045POPC   C2B47336   2.258  40.859   6.750
 8045POPC   C3B47337   2.264  40.820   7.050
 8045POPC   C4B47338   2.183  40.891   7.350
 8046POPC   NC347339  12.027   1.194   5.550
 8046POPC   PO447340  12.071   1.172   5.850
 8046POPC   GL147341  12.105   1.198   6.150
 8046POPC   GL247342  12.182   1.247   6.150
 8046POPC   C1A47343  12.032   1.240   6.450
 8046POPC   D2A47344  12.093   1.197   6.750
 8046POPC   C3A47345  12.035   1.202   7.050
 8046POPC   C4A47346  12.098   1.178   7.350
 8046POPC   C1B47347  12.258   1.369   6.450
 8046POPC   C2B47348  12.292   1.397   6.750
 8046POPC   C3B47349  12.302   1.397   7.050
 8046POPC   C4B47350  12.234   1.367   7.350
 8047POPC   NC347351  43.928  38.450   5.550
 8047POPC   PO447352  43.875  38.444   5.850
 8047POPC   GL147353  43.921  38.499   6.150
 8047POPC   GL247354  43.941  38.334   6.150
 8047POPC   C1A47355  43.927  38.463   6.450
 8047POPC   D2A47356  43.864  38.505   6.750
 8047POPC   C3A47357  43.858  38.501   7.050
 8047POPC   C4A47358  43.900  38.452   7.350
 8047POPC   C1B47359  44.033  38.277   6.450
 8047POPC   C2B47360  44.101  38.296   6.750
 8047POPC   C3B47361  44.035  38.276   7.050
 8047POPC   C4B47362  44.042  38.303   7.350
 8048POPC   NC347363  12.817  12.045   5.550
 8048POPC   PO447364  12.878  12.037   5.850
 8048POPC   GL147365  12.828  12.056   6.150
 8048POPC   GL247366  12.752  12.153   6.150
 8048POPC   C1A47367  12.896  12.086   6.450
 8048POPC   D2A47368  12.820  12.051   6.750
 8048POPC   C3A47369  12.835  12.093   7.050
 8048POPC   C4A47370  12.823  12.059   7.350
 8048POPC   C1B47371  12.595  12.204   6.450
 8048POPC   C2B47372  12.657  12.143   6.750
 8048POPC   C3B47373  12.628  12.204   7.050
 8048POPC   C4B47374  12.640  12.147   7.350
 8049POPC   NC347375  40.040  25.219   5.550
 8049POPC   PO447376  40.036  25.308   5.850
 8049POPC   GL147377  40.037  25.222   6.150
 8049POPC   GL247378  39.936  25.205   6.150
 8049POPC   C1A47379  40.021  25.241   6.450
 8049POPC   D2A47380  40.040  25.270   6.750
 8049POPC   C3A47381  39.985  25.298   7.050
 8049POPC   C4A47382  40.009  25.296   7.350
 8049POPC   C1B47383  39.751  25.189   6.450
 8049POPC   C2B47384  39.790  25.170   6.750
 8049POPC   C3B47385  39.811  25.165   7.050
 8049POPC   C4B47386  39.737  25.207   7.350
 8050POPC   NC347387  39.970  26.859   5.550
 8050POPC   PO447388  40.032  26.856   5.850
 8050POPC   GL147389  40.034  26.789   6.150
 8050POPC   GL247390  39.933  26.789   6.150
 8050POPC   C1A47391  40.035  26.799   6.450
 8050POPC   D2A47392  39.986  26.797   6.750
 8050POPC   C3A47393  39.981  26.863   7.050
 8050POPC   C4A47394  39.979  26.841   7.350
 8050POPC   C1B47395  39.720  26.782   6.450
 8050POPC   C2B47396  39.714  26.785   6.750
 8050POPC   C3B47397  39.767  26.790   7.050
 8050POPC   C4B47398  39.759  26.767   7.350
 8051POPC   NC347399   5.045   1.246   5.550
 8051POPC   PO447400   5.094   1.184   5.850
 8051POPC   GL147401   5.067   1.261   6.150
 8051POPC   GL247402   5.095   1.306   6.150
 8051POPC   C1A47403   5.048   1.188   6.450
 8051POPC   D2A47404   5.134   1.239   6.750
 8051POPC   C3A47405   5.068   1.236   7.050
 8051POPC   C4A47406   5.047   1.180   7.350
 8051POPC   C1B47407   5.005   1.429   6.450
 8051POPC   C2B47408   4.994   1.430   6.750
 8051POPC   C3B47409   4.995   1.461   7.050
 8051POPC   C4B47410   5.065   1.433   7.350
 8052POPC   NC347411  25.223   5.126   5.550
 8052POPC   PO447412  25.275   5.047   5.850
 8052POPC   GL147413  25.253   5.087   6.150
 8052POPC   GL247414  25.136   5.011   6.150
 8052POPC   C1A47415  25.291   5.139   6.450
 8052POPC   D2A47416  25.312   5.089   6.750
 8052POPC   C3A47417  25.306   5.096   7.050
 8052POPC   C4A47418  25.258   5.063   7.350
 8052POPC   C1B47419  24.987   5.027   6.450
 8052POPC   C2B47420  24.979   5.039   6.750
 8052POPC   C3B47421  25.009   4.992   7.050
 8052POPC   C4B47422  25.003   5.000   7.350
 8053POPC   NC347423   5.856  41.600   5.550
 8053POPC   PO447424   5.863  41.542   5.850
 8053POPC   GL147425   5.871  41.590   6.150
 8053POPC   GL247426   5.806  41.640   6.150
 8053POPC   C1A47427   5.892  41.565   6.450
 8053POPC   D2A47428   5.879  41.514   6.750
 8053POPC   C3A47429   5.858  41.551   7.050
 8053POPC   C4A47430   5.838  41.548   7.350
 8053POPC   C1B47431   5.753  41.771   6.450
 8053POPC   C2B47432   5.730  41.763   6.750
 8053POPC   C3B47433   5.716  41.791   7.050
 8053POPC   C4B47434   5.702  41.807   7.350
 8054POPC   NC347435  22.905  39.979   5.550
 8054POPC   PO447436  22.967  39.961   5.850
 8054POPC   GL147437  22.973  40.033   6.150
 8054POPC   GL247438  22.872  39.946   6.150
 8054POPC   C1A47439  22.921  39.967   6.450
 8054POPC   D2A47440  22.972  39.979   6.750
 8054POPC   C3A47441  22.981  39.976   7.050
 8054POPC   C4A47442  22.969  40.017   7.350
 8054POPC   C1B47443  22.731  39.871   6.450
 8054POPC   C2B47444  22.701  39.906   6.750
 8054POPC   C3B47445  22.747  39.836   7.050
 8054POPC   C4B47446  22.719  39.892   7.350
 8055POPC   NC347447  39.992  36.175   5.550
 8055POPC   PO447448  39.965  36.124   5.850
 8055POPC   GL147449  40.053  36.144   6.150
 8055POPC   GL247450  39.995  36.206   6.150
 8055POPC   C1A47451  40.049  36.154   6.450
 8055POPC   D2A47452  40.039  36.176   6.750
 8055POPC   C3A47453  39.963  36.109   7.050
 8055POPC   C4A47454  40.029  36.111   7.350
 8055POPC   C1B47455  39.982  36.425   6.450
 8055POPC   C2B47456  40.019  36.411   6.750
 8055POPC   C3B47457  40.066  36.382   7.050
 8055POPC   C4B47458  40.053  36.421   7.350
 8056POPC   NC347459  17.485  29.923   5.550
 8056POPC   PO447460  17.499  29.951   5.850
 8056POPC   GL147461  17.556  29.871   6.150
 8056POPC   GL247462  17.533  29.800   6.150
 8056POPC   C1A47463  17.470  29.888   6.450
 8056POPC   D2A47464  17.551  29.878   6.750
 8056POPC   C3A47465  17.483  29.970   7.050
 8056POPC   C4A47466  17.505  29.904   7.350
 8056POPC   C1B47467  17.534  29.636   6.450
 8056POPC   C2B47468  17.533  29.626   6.750
 8056POPC   C3B47469  17.561  29.631   7.050
 8056POPC   C4B47470  17.509  29.703   7.350
 8057POPC   NC347471  30.673   4.361   5.550
 8057POPC   PO447472  30.668   4.331   5.850
 8057POPC   GL147473  30.745   4.276   6.150
 8057POPC   GL247474  30.690   4.445   6.150
 8057POPC   C1A47475  30.738   4.327   6.450
 8057POPC   D2A47476  30.651   4.357   6.750
 8057POPC   C3A47477  30.742   4.365   7.050
 8057POPC   C4A47478  30.660   4.325   7.350
 8057POPC   C1B47479  30.621   4.571   6.450
 8057POPC   C2B47480  30.635   4.586   6.750
 8057POPC   C3B47481  30.639   4.541   7.050
 8057POPC   C4B47482  30.609   4.532   7.350
 8058POPC   NC347483  35.400  40.048   5.550
 8058POPC   PO447484  35.377  40.023   5.850
 8058POPC   GL147485  35.351  39.959   6.150
 8058POPC   GL247486  35.313  39.867   6.150
 8058POPC   C1A47487  35.395  40.011   6.450
 8058POPC   D2A47488  35.329  40.036   6.750
 8058POPC   C3A47489  35.305  39.993   7.050
 8058POPC   C4A47490  35.312  39.999   7.350
 8058POPC   C1B47491  35.342  39.762   6.450
 8058POPC   C2B47492  35.283  39.763   6.750
 8058POPC   C3B47493  35.310  39.743   7.050
 8058POPC   C4B47494  35.312  39.793   7.350
 8059POPC   NC347495  43.867  12.888   5.550
 8059POPC   PO447496  43.840  12.862   5.850
 8059POPC   GL147497  43.854  12.817   6.150
 8059POPC   GL247498  43.792  12.801   6.150
 8059POPC   C1A47499  43.906  12.845   6.450
 8059POPC   D2A47500  43.914  12.825   6.750
 8059POPC   C3A47501  43.890  12.803   7.050
 8059POPC   C4A47502  43.860  12.849   7.350
 8059POPC   C1B47503  43.724  12.706   6.450
 8059POPC   C2B47504  43.653  12.680   6.750
 8059POPC   C3B47505  43.701  12.745   7.050
 8059POPC   C4B47506  43.653  12.673   7.350
 8060POPC   NC347507   6.680  17.520   5.550
 8060POPC   PO447508   6.668  17.489   5.850
 8060POPC   GL147509   6.612  17.464   6.150
 8060POPC   GL247510   6.598  17.603   6.150
 8060POPC   C1A47511   6.616  17.506   6.450
 8060POPC   D2A47512   6.607  17.513   6.750
 8060POPC   C3A47513   6.663  17.478   7.050
 8060POPC   C4A47514   6.672  17.488   7.350
 8060POPC   C1B47515   6.538  17.680   6.450
 8060POPC   C2B47516   6.469  17.735   6.750
 8060POPC   C3B47517   6.546  17.744   7.050
 8060POPC   C4B47518   6.485  17.677   7.350
 8061POPC   NC347519  23.690  36.945   5.550
 8061POPC   PO447520  23.722  36.898   5.850
 8061POPC   GL147521  23.751  36.868   6.150
 8061POPC   GL247522  23.788  36.843   6.150
 8061POPC   C1A47523  23.756  36.917   6.450
 8061POPC   D2A47524  23.760  36.901   6.750
 8061POPC   C3A47525  23.744  36.886   7.050
 8061POPC   C4A47526  23.734  36.892   7.350
 8061POPC   C1B47527  23.987  36.774   6.450
 8061POPC   C2B47528  23.962  36.846   6.750
 8061POPC   C3B47529  23.929  36.848   7.050
 8061POPC   C4B47530  23.946  36.795   7.350
 8062POPC   NC347531  42.336  20.602   5.550
 8062POPC   PO447532  42.352  20.631   5.850
 8062POPC   GL147533  42.329  20.653   6.150
 8062POPC   GL247534  42.263  20.737   6.150
 8062POPC   C1A47535  42.383  20.658   6.450
 8062POPC   D2A47536  42.307  20.564   6.750
 8062POPC   C3A47537  42.347  20.640   7.050
 8062POPC   C4A47538  42.328  20.601   7.350
 8062POPC   C1B47539  42.285  20.812   6.450
 8062POPC   C2B47540  42.195  20.815   6.750
 8062POPC   C3B47541  42.214  20.884   7.050
 8062POPC   C4B47542  42.236  20.865   7.350
 8063POPC   NC347543  12.082  29.112   5.550
 8063POPC   PO447544  12.054  29.156   5.850
 8063POPC   GL147545  12.057  29.130   6.150
 8063POPC   GL247546  12.034  29.291   6.150
 8063POPC   C1A47547  12.064  29.113   6.450
 8063POPC   D2A47548  12.032  29.116   6.750
 8063POPC   C3A47549  12.051  29.151   7.050
 8063POPC   C4A47550  12.116  29.096   7.350
 8063POPC   C1B47551  11.962  29.321   6.450
 8063POPC   C2B47552  11.887  29.384   6.750
 8063POPC   C3B47553  11.940  29.336   7.050
 8063POPC   C4B47554  11.945  29.320   7.350
 8064POPC   NC347555  44.619  13.582   5.550
 8064POPC   PO447556  44.644  13.578   5.850
 8064POPC   GL147557  44.617  13.646   6.150
 8064POPC   GL247558  44.793  13.641   6.150
 8064POPC   C1A47559  44.702  13.580   6.450
 8064POPC   D2A47560  44.633  13.598   6.750
 8064POPC   C3A47561  44.617  13.624   7.050
 8064POPC   C4A47562  44.691  13.630   7.350
 8064POPC   C1B47563  44.903  13.667   6.450
 8064POPC   C2B47564  44.907  13.749   6.750
 8064POPC   C3B47565  44.857  13.699   7.050
 8064POPC   C4B47566  44.847  13.710   7.350
 8065POPC   NC347567  43.925  34.534   5.550
 8065POPC   PO447568  43.846  34.539   5.850
 8065POPC   GL147569  43.846  34.546   6.150
 8065POPC   GL247570  44.054  34.514   6.150
 8065POPC   C1A47571  43.841  34.535   6.450
 8065POPC   D2A47572  43.924  34.579   6.750
 8065POPC   C3A47573  43.903  34.529   7.050
 8065POPC   C4A47574  43.930  34.569   7.350
 8065POPC   C1B47575  44.164  34.464   6.450
 8065POPC   C2B47576  44.150  34.479   6.750
 8065POPC   C3B47577  44.126  34.521   7.050
 8065POPC   C4B47578  44.136  34.465   7.350
 8066POPC   NC347579  26.809   7.439   5.550
 8066POPC   PO447580  26.815   7.465   5.850
 8066POPC   GL147581  26.777   7.382   6.150
 8066POPC   GL247582  26.814   7.347   6.150
 8066POPC   C1A47583  26.859   7.412   6.450
 8066POPC   D2A47584  26.853   7.386   6.750
 8066POPC   C3A47585  26.777   7.389   7.050
 8066POPC   C4A47586  26.768   7.455   7.350
 8066POPC   C1B47587  26.826   7.155   6.450
 8066POPC   C2B47588  26.901   7.199   6.750
 8066POPC   C3B47589  26.835   7.140   7.050
 8066POPC   C4B47590  26.841   7.189   7.350
 8067POPC   NC347591   8.190  24.496   5.550
 8067POPC   PO447592   8.156  24.510   5.850
 8067POPC   GL147593   8.214  24.448   6.150
 8067POPC   GL247594   8.312  24.541   6.150
 8067POPC   C1A47595   8.239  24.526   6.450
 8067POPC   D2A47596   8.166  24.497   6.750
 8067POPC   C3A47597   8.187  24.502   7.050
 8067POPC   C4A47598   8.156  24.488   7.350
 8067POPC   C1B47599   8.393  24.649   6.450
 8067POPC   C2B47600   8.415  24.629   6.750
 8067POPC   C3B47601   8.351  24.646   7.050
 8067POPC   C4B47602   8.348  24.646   7.350
 8068POPC   NC347603   7.378   9.763   5.550
 8068POPC   PO447604   7.420   9.713   5.850
 8068POPC   GL147605   7.460   9.747   6.150
 8068POPC   GL247606   7.346   9.683   6.150
 8068POPC   C1A47607   7.422   9.765   6.450
 8068POPC   D2A47608   7.438   9.784   6.750
 8068POPC   C3A47609   7.377   9.774   7.050
 8068POPC   C4A47610   7.378   9.749   7.350
 8068POPC   C1B47611   7.289   9.509   6.450
 8068POPC   C2B47612   7.266   9.572   6.750
 8068POPC   C3B47613   7.246   9.540   7.050
 8068POPC   C4B47614   7.218   9.518   7.350
 8069POPC   NC347615  35.389  13.643   5.550
 8069POPC   PO447616  35.303  13.592   5.850
 8069POPC   GL147617  35.395  13.645   6.150
 8069POPC   GL247618  35.479  13.662   6.150
 8069POPC   C1A47619  35.392  13.604   6.450
 8069POPC   D2A47620  35.325  13.670   6.750
 8069POPC   C3A47621  35.392  13.631   7.050
 8069POPC   C4A47622  35.371  13.605   7.350
 8069POPC   C1B47623  35.616  13.696   6.450
 8069POPC   C2B47624  35.611  13.683   6.750
 8069POPC   C3B47625  35.551  13.740   7.050
 8069POPC   C4B47626  35.551  13.741   7.350
 8070POPC   NC347627   5.103  41.587   5.550
 8070POPC   PO447628   5.084  41.586   5.850
 8070POPC   GL147629   5.099  41.511   6.150
 8070POPC   GL247630   5.196  41.660   6.150
 8070POPC   C1A47631   5.075  41.560   6.450
 8070POPC   D2A47632   5.049  41.590   6.750
 8070POPC   C3A47633   5.141  41.562   7.050
 8070POPC   C4A47634   5.044  41.587   7.350
 8070POPC   C1B47635   5.213  41.789   6.450
 8070POPC   C2B47636   5.243  41.761   6.750
 8070POPC   C3B47637   5.204  41.727   7.050
 8070POPC   C4B47638   5.269  41.751   7.350
 8071POPC   NC347639  12.107  40.739   5.550
 8071POPC   PO447640  12.057  40.805   5.850
 8071POPC   GL147641  12.104  40.735   6.150
 8071POPC   GL247642  11.994  40.845   6.150
 8071POPC   C1A47643  12.086  40.828   6.450
 8071POPC   D2A47644  12.085  40.736   6.750
 8071POPC   C3A47645  12.085  40.832   7.050
 8071POPC   C4A47646  12.115  40.817   7.350
 8071POPC   C1B47647  11.938  41.028   6.450
 8071POPC   C2B47648  11.927  40.957   6.750
 8071POPC   C3B47649  11.988  40.954   7.050
 8071POPC   C4B47650  12.003  41.007   7.350
 8072POPC   NC347651  43.910   5.087   5.550
 8072POPC   PO447652  43.872   5.132   5.850
 8072POPC   GL147653  43.932   5.063   6.150
 8072POPC   GL247654  43.900   5.234   6.150
 8072POPC   C1A47655  43.842   5.106   6.450
 8072POPC   D2A47656  43.865   5.060   6.750
 8072POPC   C3A47657  43.917   5.124   7.050
 8072POPC   C4A47658  43.874   5.079   7.350
 8072POPC   C1B47659  43.895   5.318   6.450
 8072POPC   C2B47660  43.858   5.362   6.750
 8072POPC   C3B47661  43.866   5.311   7.050
 8072POPC   C4B47662  43.909   5.356   7.350
 8073POPC   NC347663   7.464   1.953   5.550
 8073POPC   PO447664   7.458   2.012   5.850
 8073POPC   GL147665   7.398   2.016   6.150
 8073POPC   GL247666   7.309   1.928   6.150
 8073POPC   C1A47667   7.421   1.978   6.450
 8073POPC   D2A47668   7.377   2.037   6.750
 8073POPC   C3A47669   7.427   2.005   7.050
 8073POPC   C4A47670   7.436   1.946   7.350
 8073POPC   C1B47671   7.285   1.785   6.450
 8073POPC   C2B47672   7.251   1.774   6.750
 8073POPC   C3B47673   7.223   1.788   7.050
 8073POPC   C4B47674   7.248   1.790   7.350
 8074POPC   NC347675  28.341  19.851   5.550
 8074POPC   PO447676  28.348  19.788   5.850
 8074POPC   GL147677  28.384  19.862   6.150
 8074POPC   GL247678  28.311  19.912   6.150
 8074POPC   C1A47679  28.386  19.836   6.450
 8074POPC   D2A47680  28.368  19.862   6.750
 8074POPC   C3A47681  28.357  19.851   7.050
 8074POPC   C4A47682  28.358  19.794   7.350
 8074POPC   C1B47683  28.248  20.024   6.450
 8074POPC   C2B47684  28.248  20.098   6.750
 8074POPC   C3B47685  28.243  20.102   7.050
 8074POPC   C4B47686  28.261  20.099   7.350
 8075POPC   NC347687   6.621   5.875   5.550
 8075POPC   PO447688   6.677   5.859   5.850
 8075POPC   GL147689   6.602   5.889   6.150
 8075POPC   GL247690   6.728   5.938   6.150
 8075POPC   C1A47691   6.675   5.835   6.450
 8075POPC   D2A47692   6.619   5.896   6.750
 8075POPC   C3A47693   6.677   5.834   7.050
 8075POPC   C4A47694   6.614   5.901   7.350
 8075POPC   C1B47695   6.937   5.921   6.450
 8075POPC   C2B47696   6.895   5.910   6.750
 8075POPC   C3B47697   6.923   5.890   7.050
 8075POPC   C4B47698   6.845   5.953   7.350
 8076POPC   NC347699  27.549  31.512   5.550
 8076POPC   PO447700  27.639  31.496   5.850
 8076POPC   GL147701  27.558  31.522   6.150
 8076POPC   GL247702  27.720  31.509   6.150
 8076POPC   C1A47703  27.578  31.486   6.450
 8076POPC   D2A47704  27.630  31.503   6.750
 8076POPC   C3A47705  27.621  31.447   7.050
 8076POPC   C4A47706  27.568  31.478   7.350
 8076POPC   C1B47707  27.790  31.552   6.450
 8076POPC   C2B47708  27.819  31.539   6.750
 8076POPC   C3B47709  27.851  31.548   7.050
 8076POPC   C4B47710  27.821  31.567   7.350
 8077POPC   NC347711  41.512  39.200   5.550
 8077POPC   PO447712  41.524  39.250   5.850
 8077POPC   GL147713  41.522  39.190   6.150
 8077POPC   GL247714  41.478  39.143   6.150
 8077POPC   C1A47715  41.592  39.257   6.450
 8077POPC   D2A47716  41.600  39.268   6.750
 8077POPC   C3A47717  41.574  39.186   7.050
 8077POPC   C4A47718  41.532  39.187   7.350
 8077POPC   C1B47719  41.477  39.018   6.450
 8077POPC   C2B47720  41.403  39.004   6.750
 8077POPC   C3B47721  41.431  38.975   7.050
 8077POPC   C4B47722  41.457  39.045   7.350
 8078POPC   NC347723   3.496   8.952   5.550
 8078POPC   PO447724   3.500   8.961   5.850
 8078POPC   GL147725   3.529   9.006   6.150
 8078POPC   GL247726   3.662   9.019   6.150
 8078POPC   C1A47727   3.501   8.966   6.450
 8078POPC   D2A47728   3.571   9.017   6.750
 8078POPC   C3A47729   3.557   9.017   7.050
 8078POPC   C4A47730   3.580   8.942   7.350
 8078POPC   C1B47731   3.777   9.043   6.450
 8078POPC   C2B47732   3.754   9.039   6.750
 8078POPC   C3B47733   3.730   9.071   7.050
 8078POPC   C4B47734   3.824   9.095   7.350
 8079POPC   NC347735  25.282  43.905   5.550
 8079POPC   PO447736  25.291  43.931   5.850
 8079POPC   GL147737  25.286  43.900   6.150
 8079POPC   GL247738  25.221  43.784   6.150
 8079POPC   C1A47739  25.269  43.920   6.450
 8079POPC   D2A47740  25.216  43.899   6.750
 8079POPC   C3A47741  25.233  43.867   7.050
 8079POPC   C4A47742  25.260  43.840   7.350
 8079POPC   C1B47743  25.218  43.656   6.450
 8079POPC   C2B47744  25.198  43.655   6.750
 8079POPC   C3B47745  25.176  43.673   7.050
 8079POPC   C4B47746  25.196  43.599   7.350
 8080POPC   NC347747  22.942  44.644   5.550
 8080POPC   PO447748  22.923  44.706   5.850
 8080POPC   GL147749  22.938  44.638   6.150
 8080POPC   GL247750  23.008  44.753   6.150
 8080POPC   C1A47751  22.895  44.672   6.450
 8080POPC   D2A47752  22.976  44.700   6.750
 8080POPC   C3A47753  22.905  44.679   7.050
 8080POPC   C4A47754  22.953  44.637   7.350
 8080POPC   C1B47755  23.017  44.906   6.450
 8080POPC   C2B47756  23.051  44.913   6.750
 8080POPC   C3B47757  23.001  44.915   7.050
 8080POPC   C4B47758  23.035  44.904   7.350
 8081POPC   NC347759  19.084  39.971   5.550
 8081POPC   PO447760  19.098  39.959   5.850
 8081POPC   GL147761  19.087  40.055   6.150
 8081POPC   GL247762  19.137  39.940   6.150
 8081POPC   C1A47763  19.109  40.030   6.450
 8081POPC   D2A47764  19.035  40.025   6.750
 8081POPC   C3A47765  19.059  39.963   7.050
 8081POPC   C4A47766  19.060  39.966   7.350
 8081POPC   C1B47767  19.240  39.810   6.450
 8081POPC   C2B47768  19.255  39.833   6.750
 8081POPC   C3B47769  19.198  39.841   7.050
 8081POPC   C4B47770  19.238  39.810   7.350
 8082POPC   NC347771  38.488  17.556   5.550
 8082POPC   PO447772  38.408  17.515   5.850
 8082POPC   GL147773  38.467  17.464   6.150
 8082POPC   GL247774  38.302  17.529   6.150
 8082POPC   C1A47775  38.422  17.507   6.450
 8082POPC   D2A47776  38.477  17.479   6.750
 8082POPC   C3A47777  38.413  17.525   7.050
 8082POPC   C4A47778  38.448  17.550   7.350
 8082POPC   C1B47779  38.253  17.509   6.450
 8082POPC   C2B47780  38.227  17.581   6.750
 8082POPC   C3B47781  38.237  17.597   7.050
 8082POPC   C4B47782  38.188  17.531   7.350
 8083POPC   NC347783  19.833  24.495   5.550
 8083POPC   PO447784  19.856  24.470   5.850
 8083POPC   GL147785  19.850  24.444   6.150
 8083POPC   GL247786  19.849  24.410   6.150
 8083POPC   C1A47787  19.882  24.534   6.450
 8083POPC   D2A47788  19.872  24.445   6.750
 8083POPC   C3A47789  19.817  24.500   7.050
 8083POPC   C4A47790  19.827  24.504   7.350
 8083POPC   C1B47791  19.840  24.198   6.450
 8083POPC   C2B47792  19.841  24.230   6.750
 8083POPC   C3B47793  19.878  24.281   7.050
 8083POPC   C4B47794  19.925  24.223   7.350
 8084POPC   NC347795  17.514  22.967   5.550
 8084POPC   PO447796  17.538  22.934   5.850
 8084POPC   GL147797  17.493  22.931   6.150
 8084POPC   GL247798  17.337  22.975   6.150
 8084POPC   C1A47799  17.513  22.984   6.450
 8084POPC   D2A47800  17.549  22.954   6.750
 8084POPC   C3A47801  17.457  22.958   7.050
 8084POPC   C4A47802  17.547  22.889   7.350
 8084POPC   C1B47803  17.241  23.006   6.450
 8084POPC   C2B47804  17.212  22.992   6.750
 8084POPC   C3B47805  17.214  23.001   7.050
 8084POPC   C4B47806  17.249  22.945   7.350
 8085POPC   NC347807  16.755   9.711   5.550
 8085POPC   PO447808  16.698   9.736   5.850
 8085POPC   GL147809  16.695   9.717   6.150
 8085POPC   GL247810  16.625   9.715   6.150
 8085POPC   C1A47811  16.779   9.709   6.450
 8085POPC   D2A47812  16.777   9.712   6.750
 8085POPC   C3A47813  16.754   9.761   7.050
 8085POPC   C4A47814  16.758   9.739   7.350
 8085POPC   C1B47815  16.501   9.612   6.450
 8085POPC   C2B47816  16.513   9.684   6.750
 8085POPC   C3B47817  16.496   9.606   7.050
 8085POPC   C4B47818  16.519   9.692   7.350
 8086POPC   NC347819   7.459  40.792   5.550
 8086POPC   PO447820   7.425  40.776   5.850
 8086POPC   GL147821   7.445  40.812   6.150
 8086POPC   GL247822   7.513  40.731   6.150
 8086POPC   C1A47823   7.435  40.821   6.450
 8086POPC   D2A47824   7.420  40.760   6.750
 8086POPC   C3A47825   7.435  40.744   7.050
 8086POPC   C4A47826   7.385  40.772   7.350
 8086POPC   C1B47827   7.618  40.744   6.450
 8086POPC   C2B47828   7.660  40.712   6.750
 8086POPC   C3B47829   7.631  40.662   7.050
 8086POPC   C4B47830   7.670  40.684   7.350
 8087POPC   NC347831  18.306  10.502   5.550
 8087POPC   PO447832  18.306  10.536   5.850
 8087POPC   GL147833  18.258  10.567   6.150
 8087POPC   GL247834  18.232  10.439   6.150
 8087POPC   C1A47835  18.264  10.546   6.450
 8087POPC   D2A47836  18.254  10.573   6.750
 8087POPC   C3A47837  18.320  10.540   7.050
 8087POPC   C4A47838  18.281  10.531   7.350
 8087POPC   C1B47839  18.155  10.262   6.450
 8087POPC   C2B47840  18.181  10.324   6.750
 8087POPC   C3B47841  18.118  10.282   7.050
 8087POPC   C4B47842  18.188  10.341   7.350
 8088POPC   NC347843  39.275  24.443   5.550
 8088POPC   PO447844  39.213  24.529   5.850
 8088POPC   GL147845  39.269  24.440   6.150
 8088POPC   GL247846  39.302  24.602   6.150
 8088POPC   C1A47847  39.193  24.512   6.450
 8088POPC   D2A47848  39.246  24.527   6.750
 8088POPC   C3A47849  39.186  24.536   7.050
 8088POPC   C4A47850  39.242  24.469   7.350
 8088POPC   C1B47851  39.338  24.704   6.450
 8088POPC   C2B47852  39.383  24.658   6.750
 8088POPC   C3B47853  39.349  24.712   7.050
 8088POPC   C4B47854  39.347  24.719   7.350
 8089POPC   NC347855  44.648  39.212   5.550
 8089POPC   PO447856  44.704  39.277   5.850
 8089POPC   GL147857  44.613  39.188   6.150
 8089POPC   GL247858  44.567  39.280   6.150
 8089POPC   C1A47859  44.674  39.215   6.450
 8089POPC   D2A47860  44.629  39.270   6.750
 8089POPC   C3A47861  44.615  39.183   7.050
 8089POPC   C4A47862  44.637  39.277   7.350
 8089POPC   C1B47863  44.508  39.385   6.450
 8089POPC   C2B47864  44.415  39.418   6.750
 8089POPC   C3B47865  44.412  39.339   7.050
 8089POPC   C4B47866  44.506  39.335   7.350
 8090POPC   NC347867  43.862   7.374   5.550
 8090POPC   PO447868  43.867   7.431   5.850
 8090POPC   GL147869  43.917   7.440   6.150
 8090POPC   GL247870  43.842   7.531   6.150
 8090POPC   C1A47871  43.881   7.371   6.450
 8090POPC   D2A47872  43.897   7.395   6.750
 8090POPC   C3A47873  43.863   7.441   7.050
 8090POPC   C4A47874  43.837   7.409   7.350
 8090POPC   C1B47875  43.726   7.554   6.450
 8090POPC   C2B47876  43.667   7.595   6.750
 8090POPC   C3B47877  43.703   7.562   7.050
 8090POPC   C4B47878  43.744   7.589   7.350
 8091POPC   NC347879  15.206  10.558   5.550
 8091POPC   PO447880  15.155  10.493   5.850
 8091POPC   GL147881  15.133  10.538   6.150
 8091POPC   GL247882  15.147  10.385   6.150
 8091POPC   C1A47883  15.154  10.571   6.450
 8091POPC   D2A47884  15.176  10.564   6.750
 8091POPC   C3A47885  15.172  10.509   7.050
 8091POPC   C4A47886  15.219  10.559   7.350
 8091POPC   C1B47887  15.090  10.263   6.450
 8091POPC   C2B47888  15.117  10.306   6.750
 8091POPC   C3B47889  15.037  10.319   7.050
 8091POPC   C4B47890  15.039  10.329   7.350
 8092POPC   NC347891  41.556  38.420   5.550
 8092POPC   PO447892  41.523  38.429   5.850
 8092POPC   GL147893  41.510  38.484   6.150
 8092POPC   GL247894  41.428  38.583   6.150
 8092POPC   C1A47895  41.538  38.415   6.450
 8092POPC   D2A47896  41.593  38.505   6.750
 8092POPC   C3A47897  41.537  38.463   7.050
 8092POPC   C4A47898  41.572  38.492   7.350
 8092POPC   C1B47899  41.373  38.679   6.450
 8092POPC   C2B47900  41.392  38.597   6.750
 8092POPC   C3B47901  41.378  38.591   7.050
 8092POPC   C4B47902  41.384  38.598   7.350
 8093POPC   NC347903  33.780  13.667   5.550
 8093POPC   PO447904  33.796  13.623   5.850
 8093POPC   GL147905  33.776  13.632   6.150
 8093POPC   GL247906  33.929  13.529   6.150
 8093POPC   C1A47907  33.776  13.583   6.450
 8093POPC   D2A47908  33.817  13.620   6.750
 8093POPC   C3A47909  33.785  13.620   7.050
 8093POPC   C4A47910  33.766  13.653   7.350
 8093POPC   C1B47911  33.964  13.388   6.450
 8093POPC   C2B47912  33.968  13.434   6.750
 8093POPC   C3B47913  33.984  13.433   7.050
 8093POPC   C4B47914  33.957  13.389   7.350
 8094POPC   NC347915   8.217   0.453   5.550
 8094POPC   PO447916   8.154   0.422   5.850
 8094POPC   GL147917   8.179   0.406   6.150
 8094POPC   GL247918   8.134   0.307   6.150
 8094POPC   C1A47919   8.209   0.401   6.450
 8094POPC   D2A47920   8.171   0.398   6.750
 8094POPC   C3A47921   8.173   0.413   7.050
 8094POPC   C4A47922   8.244   0.425   7.350
 8094POPC   C1B47923   8.122   0.171   6.450
 8094POPC   C2B47924   8.049   0.271   6.750
 8094POPC   C3B47925   8.081   0.226   7.050
 8094POPC   C4B47926   8.036   0.175   7.350
 8095POPC   NC347927   2.013  25.288   5.550
 8095POPC   PO447928   2.033  25.257   5.850
 8095POPC   GL147929   1.962  25.218   6.150
 8095POPC   GL247930   1.873  25.191   6.150
 8095POPC   C1A47931   2.034  25.258   6.450
 8095POPC   D2A47932   1.992  25.301   6.750
 8095POPC   C3A47933   2.018  25.231   7.050
 8095POPC   C4A47934   2.039  25.291   7.350
 8095POPC   C1B47935   1.768  25.141   6.450
 8095POPC   C2B47936   1.822  25.137   6.750
 8095POPC   C3B47937   1.800  25.071   7.050
 8095POPC   C4B47938   1.807  25.097   7.350
 8096POPC   NC347939  41.519  29.110   5.550
 8096POPC   PO447940  41.592  29.183   5.850
 8096POPC   GL147941  41.517  29.154   6.150
 8096POPC   GL247942  41.448  29.166   6.150
 8096POPC   C1A47943  41.560  29.157   6.450
 8096POPC   D2A47944  41.568  29.190   6.750
 8096POPC   C3A47945  41.559  29.096   7.050
 8096POPC   C4A47946  41.558  29.192   7.350
 8096POPC   C1B47947  41.319  29.123   6.450
 8096POPC   C2B47948  41.290  29.148   6.750
 8096POPC   C3B47949  41.351  29.116   7.050
 8096POPC   C4B47950  41.351  29.191   7.350
 8097POPC   NC347951  21.401  33.809   5.550
 8097POPC   PO447952  21.365  33.761   5.850
 8097POPC   GL147953  21.387  33.837   6.150
 8097POPC   GL247954  21.435  33.909   6.150
 8097POPC   C1A47955  21.386  33.776   6.450
 8097POPC   D2A47956  21.435  33.829   6.750
 8097POPC   C3A47957  21.366  33.839   7.050
 8097POPC   C4A47958  21.394  33.777   7.350
 8097POPC   C1B47959  21.524  33.957   6.450
 8097POPC   C2B47960  21.559  33.999   6.750
 8097POPC   C3B47961  21.504  34.000   7.050
 8097POPC   C4B47962  21.556  33.994   7.350
 8098POPC   NC347963  42.322  12.850   5.550
 8098POPC   PO447964  42.378  12.880   5.850
 8098POPC   GL147965  42.303  12.882   6.150
 8098POPC   GL247966  42.310  12.745   6.150
 8098POPC   C1A47967  42.295  12.847   6.450
 8098POPC   D2A47968  42.316  12.870   6.750
 8098POPC   C3A47969  42.296  12.811   7.050
 8098POPC   C4A47970  42.341  12.808   7.350
 8098POPC   C1B47971  42.193  12.620   6.450
 8098POPC   C2B47972  42.187  12.613   6.750
 8098POPC   C3B47973  42.256  12.607   7.050
 8098POPC   C4B47974  42.256  12.599   7.350
 8099POPC   NC347975   1.207  30.722   5.550
 8099POPC   PO447976   1.260  30.689   5.850
 8099POPC   GL147977   1.181  30.671   6.150
 8099POPC   GL247978   1.179  30.792   6.150
 8099POPC   C1A47979   1.240  30.705   6.450
 8099POPC   D2A47980   1.207  30.683   6.750
 8099POPC   C3A47981   1.225  30.652   7.050
 8099POPC   C4A47982   1.262  30.712   7.350
 8099POPC   C1B47983   1.082  30.847   6.450
 8099POPC   C2B47984   1.066  30.906   6.750
 8099POPC   C3B47985   1.058  30.866   7.050
 8099POPC   C4B47986   1.048  30.858   7.350
 8100POPC   NC347987  18.253  28.339   5.550
 8100POPC   PO447988  18.263  28.413   5.850
 8100POPC   GL147989  18.310  28.411   6.150
 8100POPC   GL247990  18.176  28.366   6.150
 8100POPC   C1A47991  18.272  28.350   6.450
 8100POPC   D2A47992  18.236  28.380   6.750
 8100POPC   C3A47993  18.315  28.324   7.050
 8100POPC   C4A47994  18.309  28.322   7.350
 8100POPC   C1B47995  18.086  28.249   6.450
 8100POPC   C2B47996  18.082  28.276   6.750
 8100POPC   C3B47997  18.046  28.332   7.050
 8100POPC   C4B47998  18.024  28.310   7.350
 8101POPC   NC347999  13.642  39.197   5.550
 8101POPC   PO448000  13.635  39.214   5.850
 8101POPC   GL148001  13.586  39.211   6.150
 8101POPC   GL248002  13.756  39.169   6.150
 8101POPC   C1A48003  13.603  39.261   6.450
 8101POPC   D2A48004  13.663  39.239   6.750
 8101POPC   C3A48005  13.627  39.216   7.050
 8101POPC   C4A48006  13.584  39.239   7.350
 8101POPC   C1B48007  13.893  39.170   6.450
 8101POPC   C2B48008  13.902  39.211   6.750
 8101POPC   C3B48009  13.914  39.157   7.050
 8101POPC   C4B48010  13.915  39.213   7.350
 8102POPC   NC348011  10.486  26.794   5.550
 8102POPC   PO448012  10.554  26.812   5.850
 8102POPC   GL148013  10.513  26.769   6.150
 8102POPC   GL248014  10.428  26.840   6.150
 8102POPC   C1A48015  10.499  26.777   6.450
 8102POPC   D2A48016  10.478  26.798   6.750
 8102POPC   C3A48017  10.568  26.799   7.050
 8102POPC   C4A48018  10.477  26.816   7.350
 8102POPC   C1B48019  10.323  26.872   6.450
 8102POPC   C2B48020  10.266  26.829   6.750
 8102POPC   C3B48021  10.256  26.820   7.050
 8102POPC   C4B48022  10.289  26.821   7.350
 8103POPC   NC348023  36.882  17.547   5.550
 8103POPC   PO448024  36.916  17.521   5.850
 8103POPC   GL148025  36.875  17.525   6.150
 8103POPC   GL248026  36.909  17.653   6.150
 8103POPC   C1A48027  36.941  17.465   6.450
 8103POPC   D2A48028  36.891  17.496   6.750
 8103POPC   C3A48029  36.946  17.519   7.050
 8103POPC   C4A48030  36.900  17.544   7.350
 8103POPC   C1B48031  36.905  17.755   6.450
 8103POPC   C2B48032  36.952  17.795   6.750
 8103POPC   C3B48033  36.902  17.732   7.050
 8103POPC   C4B48034  36.980  17.737   7.350
 8104POPC   NC348035   6.626  36.899   5.550
 8104POPC   PO448036   6.628  36.904   5.850
 8104POPC   GL148037   6.656  36.882   6.150
 8104POPC   GL248038   6.770  36.804   6.150
 8104POPC   C1A48039   6.681  36.881   6.450
 8104POPC   D2A48040   6.676  36.901   6.750
 8104POPC   C3A48041   6.599  36.871   7.050
 8104POPC   C4A48042   6.666  36.944   7.350
 8104POPC   C1B48043   6.855  36.839   6.450
 8104POPC   C2B48044   6.918  36.835   6.750
 8104POPC   C3B48045   6.840  36.796   7.050
 8104POPC   C4B48046   6.862  36.792   7.350
 8105POPC   NC348047  18.234   1.942   5.550
 8105POPC   PO448048  18.303   2.018   5.850
 8105POPC   GL148049  18.282   2.005   6.150
 8105POPC   GL248050  18.159   2.073   6.150
 8105POPC   C1A48051  18.315   1.950   6.450
 8105POPC   D2A48052  18.279   1.976   6.750
 8105POPC   C3A48053  18.303   1.967   7.050
 8105POPC   C4A48054  18.318   1.988   7.350
 8105POPC   C1B48055  18.058   2.176   6.450
 8105POPC   C2B48056  18.097   2.134   6.750
 8105POPC   C3B48057  18.118   2.153   7.050
 8105POPC   C4B48058  18.113   2.146   7.350
 8106POPC   NC348059  37.726  43.071   5.550
 8106POPC   PO448060  37.690  43.073   5.850
 8106POPC   GL148061  37.698  43.103   6.150
 8106POPC   GL248062  37.533  43.137   6.150
 8106POPC   C1A48063  37.656  43.153   6.450
 8106POPC   D2A48064  37.708  43.154   6.750
 8106POPC   C3A48065  37.659  43.132   7.050
 8106POPC   C4A48066  37.703  43.160   7.350
 8106POPC   C1B48067  37.393  43.109   6.450
 8106POPC   C2B48068  37.410  43.154   6.750
 8106POPC   C3B48069  37.442  43.147   7.050
 8106POPC   C4B48070  37.459  43.103   7.350
 8107POPC   NC348071  35.359   3.532   5.550
 8107POPC   PO448072  35.361   3.531   5.850
 8107POPC   GL148073  35.302   3.522   6.150
 8107POPC   GL248074  35.280   3.479   6.150
 8107POPC   C1A48075  35.373   3.503   6.450
 8107POPC   D2A48076  35.303   3.544   6.750
 8107POPC   C3A48077  35.305   3.526   7.050
 8107POPC   C4A48078  35.376   3.558   7.350
 8107POPC   C1B48079  35.108   3.416   6.450
 8107POPC   C2B48080  35.112   3.398   6.750
 8107POPC   C3B48081  35.174   3.474   7.050
 8107POPC   C4B48082  35.171   3.393   7.350
 8108POPC   NC348083  12.028  11.251   5.550
 8108POPC   PO448084  12.041  11.295   5.850
 8108POPC   GL148085  12.117  11.306   6.150
 8108POPC   GL248086  12.205  11.284   6.150
 8108POPC   C1A48087  12.074  11.262   6.450
 8108POPC   D2A48088  12.072  11.316   6.750
 8108POPC   C3A48089  12.077  11.345   7.050
 8108POPC   C4A48090  12.051  11.273   7.350
 8108POPC   C1B48091  12.308  11.275   6.450
 8108POPC   C2B48092  12.362  11.311   6.750
 8108POPC   C3B48093  12.370  11.317   7.050
 8108POPC   C4B48094  12.302  11.322   7.350
 8109POPC   NC348095  44.670  44.634   5.550
 8109POPC   PO448096  44.705  44.674   5.850
 8109POPC   GL148097  44.699  44.657   6.150
 8109POPC   GL248098  44.801  44.611   6.150
 8109POPC   C1A48099  44.639  44.708   6.450
 8109POPC   D2A48100  44.664  44.649   6.750
 8109POPC   C3A48101  44.628  44.632   7.050
 8109POPC   C4A48102  44.627  44.633   7.350
 8109POPC   C1B48103  44.874  44.673   6.450
 8109POPC   C2B48104  44.863  44.611   6.750
 8109POPC   C3B48105  44.898  44.625   7.050
 8109POPC   C4B48106  44.904  44.599   7.350
 8110POPC   NC348107  26.769  26.838   5.550
 8110POPC   PO448108  26.816  26.839   5.850
 8110POPC   GL148109  26.831  26.822   6.150
 8110POPC   GL248110  26.856  26.905   6.150
 8110POPC   C1A48111  26.839  26.810   6.450
 8110POPC   D2A48112  26.834  26.846   6.750
 8110POPC   C3A48113  26.781  26.786   7.050
 8110POPC   C4A48114  26.811  26.807   7.350
 8110POPC   C1B48115  26.879  27.047   6.450
 8110POPC   C2B48116  26.877  27.033   6.750
 8110POPC   C3B48117  26.857  27.058   7.050
 8110POPC   C4B48118  26.838  27.011   7.350
 8111POPC   NC348119  26.063  17.485   5.550
 8111POPC   PO448120  26.027  17.552   5.850
 8111POPC   GL148121  26.086  17.470   6.150
 8111POPC   GL248122  26.145  17.620   6.150
 8111POPC   C1A48123  26.044  17.514   6.450
 8111POPC   D2A48124  26.002  17.550   6.750
 8111POPC   C3A48125  26.049  17.530   7.050
 8111POPC   C4A48126  26.054  17.511   7.350
 8111POPC   C1B48127  26.176  17.696   6.450
 8111POPC   C2B48128  26.215  17.732   6.750
 8111POPC   C3B48129  26.221  17.727   7.050
 8111POPC   C4B48130  26.148  17.759   7.350
 8112POPC   NC348131  44.686  12.065   5.550
 8112POPC   PO448132  44.686  12.045   5.850
 8112POPC   GL148133  44.634  12.029   6.150
 8112POPC   GL248134  44.648  12.202   6.150
 8112POPC   C1A48135  44.676  12.103   6.450
 8112POPC   D2A48136  44.618  12.042   6.750
 8112POPC   C3A48137  44.624  12.094   7.050
 8112POPC   C4A48138  44.676  12.043   7.350
 8112POPC   C1B48139  44.675  12.344   6.450
 8112POPC   C2B48140  44.661  12.342   6.750
 8112POPC   C3B48141  44.683  12.359   7.050
 8112POPC   C4B48142  44.687  12.298   7.350
 8113POPC   NC348143   5.838   4.364   5.550
 8113POPC   PO448144   5.874   4.293   5.850
 8113POPC   GL148145   5.843   4.303   6.150
 8113POPC   GL248146   5.882   4.228   6.150
 8113POPC   C1A48147   5.876   4.328   6.450
 8113POPC   D2A48148   5.834   4.303   6.750
 8113POPC   C3A48149   5.865   4.272   7.050
 8113POPC   C4A48150   5.907   4.281   7.350
 8113POPC   C1B48151   5.925   4.070   6.450
 8113POPC   C2B48152   5.972   4.054   6.750
 8113POPC   C3B48153   5.946   4.079   7.050
 8113POPC   C4B48154   5.991   4.095   7.350
 8114POPC   NC348155  18.321  35.346   5.550
 8114POPC   PO448156  18.260  35.321   5.850
 8114POPC   GL148157  18.257  35.313   6.150
 8114POPC   GL248158  18.310  35.445   6.150
 8114POPC   C1A48159  18.275  35.360   6.450
 8114POPC   D2A48160  18.307  35.377   6.750
 8114POPC   C3A48161  18.261  35.366   7.050
 8114POPC   C4A48162  18.300  35.329   7.350
 8114POPC   C1B48163  18.317  35.562   6.450
 8114POPC   C2B48164  18.272  35.555   6.750
 8114POPC   C3B48165  18.342  35.641   7.050
 8114POPC   C4B48166  18.272  35.602   7.350
 8115POPC   NC348167   0.486  11.325   5.550
 8115POPC   PO448168   0.460  11.313   5.850
 8115POPC   GL148169   0.477  11.311   6.150
 8115POPC   GL248170   0.551  11.386   6.150
 8115POPC   C1A48171   0.432  11.341   6.450
 8115POPC   D2A48172   0.452  11.317   6.750
 8115POPC   C3A48173   0.427  11.348   7.050
 8115POPC   C4A48174   0.432  11.334   7.350
 8115POPC   C1B48175   0.720  11.341   6.450
 8115POPC   C2B48176   0.711  11.413   6.750
 8115POPC   C3B48177   0.667  11.362   7.050
 8115POPC   C4B48178   0.669  11.419   7.350
 8116POPC   NC348179  20.625   5.879   5.550
 8116POPC   PO448180  20.653   5.847   5.850
 8116POPC   GL148181  20.637   5.899   6.150
 8116POPC   GL248182  20.668   5.819   6.150
 8116POPC   C1A48183  20.636   5.826   6.450
 8116POPC   D2A48184  20.605   5.860   6.750
 8116POPC   C3A48185  20.655   5.902   7.050
 8116POPC   C4A48186  20.648   5.895   7.350
 8116POPC   C1B48187  20.787   5.738   6.450
 8116POPC   C2B48188  20.773   5.726   6.750
 8116POPC   C3B48189  20.773   5.715   7.050
 8116POPC   C4B48190  20.832   5.726   7.350
 8117POPC   NC348191  20.590  40.010   5.550
 8117POPC   PO448192  20.567  40.043   5.850
 8117POPC   GL148193  20.657  40.034   6.150
 8117POPC   GL248194  20.518  40.092   6.150
 8117POPC   C1A48195  20.564  40.023   6.450
 8117POPC   D2A48196  20.629  39.995   6.750
 8117POPC   C3A48197  20.589  40.023   7.050
 8117POPC   C4A48198  20.590  39.972   7.350
 8117POPC   C1B48199  20.457  40.192   6.450
 8117POPC   C2B48200  20.418  40.193   6.750
 8117POPC   C3B48201  20.432  40.201   7.050
 8117POPC   C4B48202  20.501  40.223   7.350
 8118POPC   NC348203  26.058   6.665   5.550
 8118POPC   PO448204  26.084   6.626   5.850
 8118POPC   GL148205  26.039   6.621   6.150
 8118POPC   GL248206  25.940   6.583   6.150
 8118POPC   C1A48207  26.081   6.678   6.450
 8118POPC   D2A48208  26.007   6.607   6.750
 8118POPC   C3A48209  26.029   6.601   7.050
 8118POPC   C4A48210  26.050   6.668   7.350
 8118POPC   C1B48211  25.843   6.470   6.450
 8118POPC   C2B48212  25.804   6.499   6.750
 8118POPC   C3B48213  25.864   6.485   7.050
 8118POPC   C4B48214  25.850   6.455   7.350
 8119POPC   NC348215   0.422  16.765   5.550
 8119POPC   PO448216   0.440  16.732   5.850
 8119POPC   GL148217   0.459  16.698   6.150
 8119POPC   GL248218   0.363  16.651   6.150
 8119POPC   C1A48219   0.398  16.723   6.450
 8119POPC   D2A48220   0.395  16.683   6.750
 8119POPC   C3A48221   0.478  16.703   7.050
 8119POPC   C4A48222   0.478  16.752   7.350
 8119POPC   C1B48223   0.206  16.571   6.450
 8119POPC   C2B48224   0.258  16.625   6.750
 8119POPC   C3B48225   0.262  16.607   7.050
 8119POPC   C4B48226   0.175  16.573   7.350
 8120POPC   NC348227   1.991   8.200   5.550
 8120POPC   PO448228   2.005   8.152   5.850
 8120POPC   GL148229   2.015   8.149   6.150
 8120POPC   GL248230   2.008   8.361   6.150
 8120POPC   C1A48231   1.985   8.225   6.450
 8120POPC   D2A48232   1.972   8.227   6.750
 8120POPC   C3A48233   2.030   8.190   7.050
 8120POPC   C4A48234   1.989   8.238   7.350
 8120POPC   C1B48235   2.067   8.435   6.450
 8120POPC   C2B48236   2.035   8.445   6.750
 8120POPC   C3B48237   2.053   8.457   7.050
 8120POPC   C4B48238   2.094   8.476   7.350
 8121POPC   NC348239  37.630  16.718   5.550
 8121POPC   PO448240  37.711  16.709   5.850
 8121POPC   GL148241  37.683  16.768   6.150
 8121POPC   GL248242  37.638  16.644   6.150
 8121POPC   C1A48243  37.648  16.694   6.450
 8121POPC   D2A48244  37.691  16.685   6.750
 8121POPC   C3A48245  37.653  16.736   7.050
 8121POPC   C4A48246  37.658  16.758   7.350
 8121POPC   C1B48247  37.643  16.486   6.450
 8121POPC   C2B48248  37.619  16.510   6.750
 8121POPC   C3B48249  37.671  16.455   7.050
 8121POPC   C4B48250  37.660  16.497   7.350
 8122POPC   NC348251  14.442  40.813   5.550
 8122POPC   PO448252  14.434  40.778   5.850
 8122POPC   GL148253  14.402  40.738   6.150
 8122POPC   GL248254  14.488  40.900   6.150
 8122POPC   C1A48255  14.408  40.829   6.450
 8122POPC   D2A48256  14.397  40.763   6.750
 8122POPC   C3A48257  14.453  40.797   7.050
 8122POPC   C4A48258  14.441  40.751   7.350
 8122POPC   C1B48259  14.529  40.963   6.450
 8122POPC   C2B48260  14.574  40.985   6.750
 8122POPC   C3B48261  14.586  41.003   7.050
 8122POPC   C4B48262  14.587  40.950   7.350
 8123POPC   NC348263  24.531  33.057   5.550
 8123POPC   PO448264  24.521  33.006   5.850
 8123POPC   GL148265  24.494  32.976   6.150
 8123POPC   GL248266  24.399  33.087   6.150
 8123POPC   C1A48267  24.493  32.989   6.450
 8123POPC   D2A48268  24.527  33.041   6.750
 8123POPC   C3A48269  24.458  32.976   7.050
 8123POPC   C4A48270  24.512  33.028   7.350
 8123POPC   C1B48271  24.312  33.164   6.450
 8123POPC   C2B48272  24.255  33.186   6.750
 8123POPC   C3B48273  24.263  33.174   7.050
 8123POPC   C4B48274  24.258  33.187   7.350
 8124POPC   NC348275  22.164  43.908   5.550
 8124POPC   PO448276  22.177  43.931   5.850
 8124POPC   GL148277  22.135  43.933   6.150
 8124POPC   GL248278  22.254  43.779   6.150
 8124POPC   C1A48279  22.175  43.859   6.450
 8124POPC   D2A48280  22.176  43.919   6.750
 8124POPC   C3A48281  22.203  43.914   7.050
 8124POPC   C4A48282  22.199  43.847   7.350
 8124POPC   C1B48283  22.388  43.742   6.450
 8124POPC   C2B48284  22.332  43.767   6.750
 8124POPC   C3B48285  22.397  43.683   7.050
 8124POPC   C4B48286  22.347  43.733   7.350
 8125POPC   NC348287   6.686  40.810   5.550
 8125POPC   PO448288   6.611  40.795   5.850
 8125POPC   GL148289   6.614  40.772   6.150
 8125POPC   GL248290   6.680  40.649   6.150
 8125POPC   C1A48291   6.638  40.738   6.450
 8125POPC   D2A48292   6.620  40.739   6.750
 8125POPC   C3A48293   6.616  40.815   7.050
 8125POPC   C4A48294   6.673  40.818   7.350
 8125POPC   C1B48295   6.669  40.526   6.450
 8125POPC   C2B48296   6.649  40.519   6.750
 8125POPC   C3B48297   6.700  40.503   7.050
 8125POPC   C4B48298   6.667  40.492   7.350
 8126POPC   NC348299  13.657  15.219   5.550
 8126POPC   PO448300  13.661  15.202   5.850
 8126POPC   GL148301  13.595  15.136   6.150
 8126POPC   GL248302  13.757  15.120   6.150
 8126POPC   C1A48303  13.642  15.140   6.450
 8126POPC   D2A48304  13.675  15.187   6.750
 8126POPC   C3A48305  13.647  15.166   7.050
 8126POPC   C4A48306  13.578  15.222   7.350
 8126POPC   C1B48307  13.867  15.072   6.450
 8126POPC   C2B48308  13.876  15.119   6.750
 8126POPC   C3B48309  13.839  15.119   7.050
 8126POPC   C4B48310  13.831  15.085   7.350
 8127POPC   NC348311  44.676  10.493   5.550
 8127POPC   PO448312  44.710  10.485   5.850
 8127POPC   GL148313  44.652  10.552   6.150
 8127POPC   GL248314  44.571  10.442   6.150
 8127POPC   C1A48315  44.689  10.475   6.450
 8127POPC   D2A48316  44.664  10.572   6.750
 8127POPC   C3A48317  44.623  10.549   7.050
 8127POPC   C4A48318  44.710  10.550   7.350
 8127POPC   C1B48319  44.517  10.303   6.450
 8127POPC   C2B48320  44.551  10.296   6.750
 8127POPC   C3B48321  44.541  10.305   7.050
 8127POPC   C4B48322  44.577  10.265   7.350
 8128POPC   NC348323  29.874   9.011   5.550
 8128POPC   PO448324  29.899   9.011   5.850
 8128POPC   GL148325  29.906   8.996   6.150
 8128POPC   GL248326  29.956   9.090   6.150
 8128POPC   C1A48327  29.951   9.020   6.450
 8128POPC   D2A48328  29.895   8.923   6.750
 8128POPC   C3A48329  29.969   9.016   7.050
 8128POPC   C4A48330  29.922   8.979   7.350
 8128POPC   C1B48331  30.017   9.206   6.450
 8128POPC   C2B48332  30.091   9.189   6.750
 8128POPC   C3B48333  30.062   9.166   7.050
 8128POPC   C4B48334  30.101   9.221   7.350
 8129POPC   NC348335  40.815  29.893   5.550
 8129POPC   PO448336  40.831  29.901   5.850
 8129POPC   GL148337  40.789  29.938   6.150
 8129POPC   GL248338  40.758  30.084   6.150
 8129POPC   C1A48339  40.826  29.964   6.450
 8129POPC   D2A48340  40.777  29.874   6.750
 8129POPC   C3A48341  40.794  29.881   7.050
 8129POPC   C4A48342  40.753  29.875   7.350
 8129POPC   C1B48343  40.834  30.190   6.450
 8129POPC   C2B48344  40.812  30.126   6.750
 8129POPC   C3B48345  40.825  30.177   7.050
 8129POPC   C4B48346  40.782  30.126   7.350
 8130POPC   NC348347  17.527  10.550   5.550
 8130POPC   PO448348  17.536  10.544   5.850
 8130POPC   GL148349  17.519  10.549   6.150
 8130POPC   GL248350  17.439  10.445   6.150
 8130POPC   C1A48351  17.490  10.569   6.450
 8130POPC   D2A48352  17.514  10.482   6.750
 8130POPC   C3A48353  17.485  10.542   7.050
 8130POPC   C4A48354  17.476  10.502   7.350
 8130POPC   C1B48355  17.405  10.252   6.450
 8130POPC   C2B48356  17.426  10.327   6.750
 8130POPC   C3B48357  17.431  10.308   7.050
 8130POPC   C4B48358  17.391  10.314   7.350
 8131POPC   NC348359  30.731  24.487   5.550
 8131POPC   PO448360  30.744  24.535   5.850
 8131POPC   GL148361  30.651  24.450   6.150
 8131POPC   GL248362  30.787  24.573   6.150
 8131POPC   C1A48363  30.678  24.481   6.450
 8131POPC   D2A48364  30.652  24.500   6.750
 8131POPC   C3A48365  30.719  24.505   7.050
 8131POPC   C4A48366  30.728  24.513   7.350
 8131POPC   C1B48367  30.831  24.700   6.450
 8131POPC   C2B48368  30.818  24.666   6.750
 8131POPC   C3B48369  30.845  24.725   7.050
 8131POPC   C4B48370  30.790  24.754   7.350
 8132POPC   NC348371  17.479  29.186   5.550
 8132POPC   PO448372  17.491  29.128   5.850
 8132POPC   GL148373  17.509  29.153   6.150
 8132POPC   GL248374  17.421  29.193   6.150
 8132POPC   C1A48375  17.501  29.152   6.450
 8132POPC   D2A48376  17.538  29.135   6.750
 8132POPC   C3A48377  17.503  29.124   7.050
 8132POPC   C4A48378  17.548  29.183   7.350
 8132POPC   C1B48379  17.387  29.328   6.450
 8132POPC   C2B48380  17.359  29.338   6.750
 8132POPC   C3B48381  17.334  29.305   7.050
 8132POPC   C4B48382  17.298  29.334   7.350
 8133POPC   NC348383   1.999  44.702   5.550
 8133POPC   PO448384   2.018  44.693   5.850
 8133POPC   GL148385   1.988  44.703   6.150
 8133POPC   GL248386   1.937  44.742   6.150
 8133POPC   C1A48387   1.945  44.697   6.450
 8133POPC   D2A48388   1.946  44.684   6.750
 8133POPC   C3A48389   1.964  44.614   7.050
 8133POPC   C4A48390   1.940  44.666   7.350
 8133POPC   C1B48391   1.958  44.908   6.450
 8133POPC   C2B48392   1.969  44.944   6.750
 8133POPC   C3B48393   1.906  44.924   7.050
 8133POPC   C4B48394   1.988  44.860   7.350
 8134POPC   NC348395   8.227  34.553   5.550
 8134POPC   PO448396   8.164  34.616   5.850
 8134POPC   GL148397   8.170  34.610   6.150
 8134POPC   GL248398   8.253  34.478   6.150
 8134POPC   C1A48399   8.209  34.605   6.450
 8134POPC   D2A48400   8.180  34.620   6.750
 8134POPC   C3A48401   8.214  34.551   7.050
 8134POPC   C4A48402   8.175  34.579   7.350
 8134POPC   C1B48403   8.280  34.320   6.450
 8134POPC   C2B48404   8.356  34.397   6.750
 8134POPC   C3B48405   8.309  34.329   7.050
 8134POPC   C4B48406   8.280  34.323   7.350
 8135POPC   NC348407   7.448   8.985   5.550
 8135POPC   PO448408   7.384   8.994   5.850
 8135POPC   GL148409   7.448   8.925   6.150
 8135POPC   GL248410   7.571   8.911   6.150
 8135POPC   C1A48411   7.404   8.973   6.450
 8135POPC   D2A48412   7.424   8.941   6.750
 8135POPC   C3A48413   7.457   8.939   7.050
 8135POPC   C4A48414   7.426   8.997   7.350
 8135POPC   C1B48415   7.697   8.880   6.450
 8135POPC   C2B48416   7.671   8.958   6.750
 8135POPC   C3B48417   7.637   8.902   7.050
 8135POPC   C4B48418   7.692   8.895   7.350
 8136POPC   NC348419  15.945  34.542   5.550
 8136POPC   PO448420  15.955  34.562   5.850
 8136POPC   GL148421  15.959  34.617   6.150
 8136POPC   GL248422  15.812  34.547   6.150
 8136POPC   C1A48423  15.969  34.567   6.450
 8136POPC   D2A48424  15.941  34.553   6.750
 8136POPC   C3A48425  15.920  34.529   7.050
 8136POPC   C4A48426  15.921  34.575   7.350
 8136POPC   C1B48427  15.723  34.539   6.450
 8136POPC   C2B48428  15.749  34.469   6.750
 8136POPC   C3B48429  15.758  34.517   7.050
 8136POPC   C4B48430  15.711  34.518   7.350
 8137POPC   NC348431  31.495  29.147   5.550
 8137POPC   PO448432  31.486  29.157   5.850
 8137POPC   GL148433  31.494  29.106   6.150
 8137POPC   GL248434  31.394  29.299   6.150
 8137POPC   C1A48435  31.484  29.113   6.450
 8137POPC   D2A48436  31.499  29.114   6.750
 8137POPC   C3A48437  31.431  29.115   7.050
 8137POPC   C4A48438  31.459  29.141   7.350
 8137POPC   C1B48439  31.363  29.365   6.450
 8137POPC   C2B48440  31.412  29.406   6.750
 8137POPC   C3B48441  31.382  29.401   7.050
 8137POPC   C4B48442  31.389  29.402   7.350
 8138POPC   NC348443  43.140   3.553   5.550
 8138POPC   PO448444  43.136   3.498   5.850
 8138POPC   GL148445  43.066   3.557   6.150
 8138POPC   GL248446  43.169   3.693   6.150
 8138POPC   C1A48447  43.148   3.550   6.450
 8138POPC   D2A48448  43.074   3.557   6.750
 8138POPC   C3A48449  43.084   3.566   7.050
 8138POPC   C4A48450  43.128   3.525   7.350
 8138POPC   C1B48451  43.193   3.754   6.450
 8138POPC   C2B48452  43.148   3.757   6.750
 8138POPC   C3B48453  43.103   3.758   7.050
 8138POPC   C4B48454  43.149   3.780   7.350
 8139POPC   NC348455  19.014  22.207   5.550
 8139POPC   PO448456  19.017  22.116   5.850
 8139POPC   GL148457  19.068  22.154   6.150
 8139POPC   GL248458  18.965  22.202   6.150
 8139POPC   C1A48459  19.021  22.199   6.450
 8139POPC   D2A48460  19.073  22.198   6.750
 8139POPC   C3A48461  19.010  22.202   7.050
 8139POPC   C4A48462  19.099  22.156   7.350
 8139POPC   C1B48463  18.822  22.270   6.450
 8139POPC   C2B48464  18.820  22.260   6.750
 8139POPC   C3B48465  18.803  22.290   7.050
 8139POPC   C4B48466  18.865  22.269   7.350
 8140POPC   NC348467  26.007  18.236   5.550
 8140POPC   PO448468  26.030  18.330   5.850
 8140POPC   GL148469  26.078  18.328   6.150
 8140POPC   GL248470  25.942  18.169   6.150
 8140POPC   C1A48471  26.063  18.234   6.450
 8140POPC   D2A48472  26.007  18.330   6.750
 8140POPC   C3A48473  26.029  18.317   7.050
 8140POPC   C4A48474  26.013  18.286   7.350
 8140POPC   C1B48475  25.910  18.110   6.450
 8140POPC   C2B48476  25.852  18.110   6.750
 8140POPC   C3B48477  25.948  18.059   7.050
 8140POPC   C4B48478  25.925  18.041   7.350
 8141POPC   NC348479  27.633  43.108   5.550
 8141POPC   PO448480  27.562  43.092   5.850
 8141POPC   GL148481  27.613  43.104   6.150
 8141POPC   GL248482  27.528  43.022   6.150
 8141POPC   C1A48483  27.619  43.153   6.450
 8141POPC   D2A48484  27.618  43.127   6.750
 8141POPC   C3A48485  27.596  43.158   7.050
 8141POPC   C4A48486  27.597  43.125   7.350
 8141POPC   C1B48487  27.514  42.867   6.450
 8141POPC   C2B48488  27.484  42.924   6.750
 8141POPC   C3B48489  27.503  42.848   7.050
 8141POPC   C4B48490  27.527  42.903   7.350
 8142POPC   NC348491  29.168  44.678   5.550
 8142POPC   PO448492  29.123  44.691   5.850
 8142POPC   GL148493  29.102  44.686   6.150
 8142POPC   GL248494  29.204  44.731   6.150
 8142POPC   C1A48495  29.194  44.628   6.450
 8142POPC   D2A48496  29.175  44.687   6.750
 8142POPC   C3A48497  29.122  44.655   7.050
 8142POPC   C4A48498  29.187  44.648   7.350
 8142POPC   C1B48499  29.298  44.919   6.450
 8142POPC   C2B48500  29.262  44.908   6.750
 8142POPC   C3B48501  29.305  44.864   7.050
 8142POPC   C4B48502  29.220  44.927   7.350
 8143POPC   NC348503   4.280  43.844   5.550
 8143POPC   PO448504   4.299  43.907   5.850
 8143POPC   GL148505   4.367  43.925   6.150
 8143POPC   GL248506   4.214  43.770   6.150
 8143POPC   C1A48507   4.317  43.893   6.450
 8143POPC   D2A48508   4.275  43.869   6.750
 8143POPC   C3A48509   4.351  43.923   7.050
 8143POPC   C4A48510   4.318  43.850   7.350
 8143POPC   C1B48511   4.084  43.779   6.450
 8143POPC   C2B48512   4.147  43.714   6.750
 8143POPC   C3B48513   4.118  43.737   7.050
 8143POPC   C4B48514   4.076  43.757   7.350
 8144POPC   NC348515  34.541  31.448   5.550
 8144POPC   PO448516  34.572  31.434   5.850
 8144POPC   GL148517  34.577  31.423   6.150
 8144POPC   GL248518  34.537  31.561   6.150
 8144POPC   C1A48519  34.538  31.457   6.450
 8144POPC   D2A48520  34.556  31.430   6.750
 8144POPC   C3A48521  34.612  31.459   7.050
 8144POPC   C4A48522  34.617  31.424   7.350
 8144POPC   C1B48523  34.442  31.700   6.450
 8144POPC   C2B48524  34.436  31.679   6.750
 8144POPC   C3B48525  34.395  31.720   7.050
 8144POPC   C4B48526  34.390  31.659   7.350
 8145POPC   NC348527  10.543  30.698   5.550
 8145POPC   PO448528  10.513  30.725   5.850
 8145POPC   GL148529  10.553  30.671   6.150
 8145POPC   GL248530  10.484  30.577   6.150
 8145POPC   C1A48531  10.483  30.693   6.450
 8145POPC   D2A48532  10.526  30.707   6.750
 8145POPC   C3A48533  10.540  30.685   7.050
 8145POPC   C4A48534  10.496  30.712   7.350
 8145POPC   C1B48535  10.362  30.502   6.450
 8145POPC   C2B48536  10.301  30.534   6.750
 8145POPC   C3B48537  10.310  30.475   7.050
 8145POPC   C4B48538  10.312  30.561   7.350
 8146POPC   NC348539  33.829   5.104   5.550
 8146POPC   PO448540  33.837   5.083   5.850
 8146POPC   GL148541  33.849   5.101   6.150
 8146POPC   GL248542  33.934   5.184   6.150
 8146POPC   C1A48543  33.832   5.088   6.450
 8146POPC   D2A48544  33.843   5.124   6.750
 8146POPC   C3A48545  33.771   5.044   7.050
 8146POPC   C4A48546  33.846   5.123   7.350
 8146POPC   C1B48547  34.074   5.178   6.450
 8146POPC   C2B48548  33.981   5.169   6.750
 8146POPC   C3B48549  34.004   5.169   7.050
 8146POPC   C4B48550  33.978   5.156   7.350
 8147POPC   NC348551  43.936  37.631   5.550
 8147POPC   PO448552  43.869  37.687   5.850
 8147POPC   GL148553  43.921  37.706   6.150
 8147POPC   GL248554  43.748  37.662   6.150
 8147POPC   C1A48555  43.841  37.676   6.450
 8147POPC   D2A48556  43.901  37.714   6.750
 8147POPC   C3A48557  43.921  37.669   7.050
 8147POPC   C4A48558  43.881  37.715   7.350
 8147POPC   C1B48559  43.664  37.552   6.450
 8147POPC   C2B48560  43.663  37.602   6.750
 8147POPC   C3B48561  43.699  37.541   7.050
 8147POPC   C4B48562  43.648  37.592   7.350
 8148POPC   NC348563  44.684  30.647   5.550
 8148POPC   PO448564  44.707  30.695   5.850
 8148POPC   GL148565  44.677  30.686   6.150
 8148POPC   GL248566  44.713  30.816   6.150
 8148POPC   C1A48567  44.617  30.663   6.450
 8148POPC   D2A48568  44.695  30.714   6.750
 8148POPC   C3A48569  44.621  30.744   7.050
 8148POPC   C4A48570  44.661  30.655   7.350
 8148POPC   C1B48571  44.801  30.916   6.450
 8148POPC   C2B48572  44.795  30.883   6.750
 8148POPC   C3B48573  44.811  30.928   7.050
 8148POPC   C4B48574  44.800  30.914   7.350
 8149POPC   NC348575   6.656   3.507   5.550
 8149POPC   PO448576   6.693   3.578   5.850
 8149POPC   GL148577   6.665   3.497   6.150
 8149POPC   GL248578   6.797   3.574   6.150
 8149POPC   C1A48579   6.694   3.492   6.450
 8149POPC   D2A48580   6.622   3.514   6.750
 8149POPC   C3A48581   6.667   3.524   7.050
 8149POPC   C4A48582   6.692   3.581   7.350
 8149POPC   C1B48583   6.887   3.554   6.450
 8149POPC   C2B48584   6.941   3.574   6.750
 8149POPC   C3B48585   6.902   3.512   7.050
 8149POPC   C4B48586   6.877   3.538   7.350
 8150POPC   NC348587  40.786  43.869   5.550
 8150POPC   PO448588  40.791  43.912   5.850
 8150POPC   GL148589  40.818  43.929   6.150
 8150POPC   GL248590  40.830  44.024   6.150
 8150POPC   C1A48591  40.739  43.914   6.450
 8150POPC   D2A48592  40.758  43.926   6.750
 8150POPC   C3A48593  40.778  43.891   7.050
 8150POPC   C4A48594  40.762  43.844   7.350
 8150POPC   C1B48595  40.977  44.090   6.450
 8150POPC   C2B48596  40.940  44.067   6.750
 8150POPC   C3B48597  40.965  44.079   7.050
 8150POPC   C4B48598  40.905  44.078   7.350
 8151POPC   NC348599  28.344  36.928   5.550
 8151POPC   PO448600  28.331  36.932   5.850
 8151POPC   GL148601  28.320  36.883   6.150
 8151POPC   GL248602  28.239  36.864   6.150
 8151POPC   C1A48603  28.373  36.866   6.450
 8151POPC   D2A48604  28.366  36.949   6.750
 8151POPC   C3A48605  28.344  36.857   7.050
 8151POPC   C4A48606  28.338  36.950   7.350
 8151POPC   C1B48607  28.076  36.858   6.450
 8151POPC   C2B48608  28.088  36.906   6.750
 8151POPC   C3B48609  28.137  36.878   7.050
 8151POPC   C4B48610  28.167  36.845   7.350
 8152POPC   NC348611  32.283  22.981   5.550
 8152POPC   PO448612  32.222  22.947   5.850
 8152POPC   GL148613  32.248  22.890   6.150
 8152POPC   GL248614  32.358  22.885   6.150
 8152POPC   C1A48615  32.205  22.890   6.450
 8152POPC   D2A48616  32.267  22.905   6.750
 8152POPC   C3A48617  32.271  22.980   7.050
 8152POPC   C4A48618  32.210  22.968   7.350
 8152POPC   C1B48619  32.512  22.902   6.450
 8152POPC   C2B48620  32.538  22.939   6.750
 8152POPC   C3B48621  32.463  22.955   7.050
 8152POPC   C4B48622  32.467  22.889   7.350
 8153POPC   NC348623  18.279  31.512   5.550
 8153POPC   PO448624  18.262  31.509   5.850
 8153POPC   GL148625  18.276  31.439   6.150
 8153POPC   GL248626  18.134  31.418   6.150
 8153POPC   C1A48627  18.307  31.511   6.450
 8153POPC   D2A48628  18.291  31.474   6.750
 8153POPC   C3A48629  18.275  31.514   7.050
 8153POPC   C4A48630  18.310  31.469   7.350
 8153POPC   C1B48631  18.069  31.382   6.450
 8153POPC   C2B48632  18.076  31.360   6.750
 8153POPC   C3B48633  18.113  31.322   7.050
 8153POPC   C4B48634  18.107  31.318   7.350
 8154POPC   NC348635  11.264  42.380   5.550
 8154POPC   PO448636  11.311  42.300   5.850
 8154POPC   GL148637  11.274  42.368   6.150
 8154POPC   GL248638  11.147  42.267   6.150
 8154POPC   C1A48639  11.345  42.364   6.450
 8154POPC   D2A48640  11.257  42.344   6.750
 8154POPC   C3A48641  11.258  42.320   7.050
 8154POPC   C4A48642  11.336  42.288   7.350
 8154POPC   C1B48643  11.050  42.215   6.450
 8154POPC   C2B48644  11.077  42.196   6.750
 8154POPC   C3B48645  11.043  42.237   7.050
 8154POPC   C4B48646  11.078  42.177   7.350
 8155POPC   NC348647  29.189   5.915   5.550
 8155POPC   PO448648  29.174   5.867   5.850
 8155POPC   GL148649  29.163   5.846   6.150
 8155POPC   GL248650  28.979   5.960   6.150
 8155POPC   C1A48651  29.166   5.840   6.450
 8155POPC   D2A48652  29.152   5.821   6.750
 8155POPC   C3A48653  29.129   5.876   7.050
 8155POPC   C4A48654  29.125   5.890   7.350
 8155POPC   C1B48655  28.912   5.984   6.450
 8155POPC   C2B48656  28.923   5.954   6.750
 8155POPC   C3B48657  28.934   5.921   7.050
 8155POPC   C4B48658  28.884   5.947   7.350
 8156POPC   NC348659  39.203  44.702   5.550
 8156POPC   PO448660  39.202  44.628   5.850
 8156POPC   GL148661  39.230  44.681   6.150
 8156POPC   GL248662  39.215  44.491   6.150
 8156POPC   C1A48663  39.279  44.656   6.450
 8156POPC   D2A48664  39.238  44.675   6.750
 8156POPC   C3A48665  39.258  44.693   7.050
 8156POPC   C4A48666  39.229  44.670   7.350
 8156POPC   C1B48667  39.211  44.435   6.450
 8156POPC   C2B48668  39.185  44.362   6.750
 8156POPC   C3B48669  39.273  44.431   7.050
 8156POPC   C4B48670  39.230  44.410   7.350
 8157POPC   NC348671   1.172  35.328   5.550
 8157POPC   PO448672   1.171  35.335   5.850
 8157POPC   GL148673   1.206  35.348   6.150
 8157POPC   GL248674   1.151  35.239   6.150
 8157POPC   C1A48675   1.245  35.363   6.450
 8157POPC   D2A48676   1.246  35.374   6.750
 8157POPC   C3A48677   1.165  35.306   7.050
 8157POPC   C4A48678   1.175  35.305   7.350
 8157POPC   C1B48679   1.053  35.190   6.450
 8157POPC   C2B48680   1.047  35.171   6.750
 8157POPC   C3B48681   1.069  35.202   7.050
 8157POPC   C4B48682   1.088  35.146   7.350
 8158POPC   NC348683   8.241   1.209   5.550
 8158POPC   PO448684   8.246   1.168   5.850
 8158POPC   GL148685   8.243   1.187   6.150
 8158POPC   GL248686   8.253   1.090   6.150
 8158POPC   C1A48687   8.148   1.200   6.450
 8158POPC   D2A48688   8.188   1.195   6.750
 8158POPC   C3A48689   8.198   1.234   7.050
 8158POPC   C4A48690   8.227   1.235   7.350
 8158POPC   C1B48691   8.332   1.069   6.450
 8158POPC   C2B48692   8.395   1.012   6.750
 8158POPC   C3B48693   8.370   1.028   7.050
 8158POPC   C4B48694   8.352   1.067   7.350
 8159POPC   NC348695  43.137   8.228   5.550
 8159POPC   PO448696  43.126   8.155   5.850
 8159POPC   GL148697  43.092   8.216   6.150
 8159POPC   GL248698  43.029   8.259   6.150
 8159POPC   C1A48699  43.149   8.158   6.450
 8159POPC   D2A48700  43.146   8.190   6.750
 8159POPC   C3A48701  43.147   8.245   7.050
 8159POPC   C4A48702  43.107   8.182   7.350
 8159POPC   C1B48703  42.828   8.269   6.450
 8159POPC   C2B48704  42.864   8.263   6.750
 8159POPC   C3B48705  42.828   8.268   7.050
 8159POPC   C4B48706  42.893   8.231   7.350
 8160POPC   NC348707  29.129  16.687   5.550
 8160POPC   PO448708  29.169  16.689   5.850
 8160POPC   GL148709  29.151  16.705   6.150
 8160POPC   GL248710  29.284  16.611   6.150
 8160POPC   C1A48711  29.173  16.753   6.450
 8160POPC   D2A48712  29.176  16.738   6.750
 8160POPC   C3A48713  29.115  16.704   7.050
 8160POPC   C4A48714  29.152  16.706   7.350
 8160POPC   C1B48715  29.334  16.542   6.450
 8160POPC   C2B48716  29.375  16.525   6.750
 8160POPC   C3B48717  29.311  16.556   7.050
 8160POPC   C4B48718  29.315  16.582   7.350
 8161POPC   NC348719   9.792   2.745   5.550
 8161POPC   PO448720   9.738   2.792   5.850
 8161POPC   GL148721   9.740   2.728   6.150
 8161POPC   GL248722   9.899   2.828   6.150
 8161POPC   C1A48723   9.769   2.768   6.450
 8161POPC   D2A48724   9.736   2.751   6.750
 8161POPC   C3A48725   9.744   2.757   7.050
 8161POPC   C4A48726   9.795   2.720   7.350
 8161POPC   C1B48727   9.976   2.851   6.450
 8161POPC   C2B48728   9.991   2.846   6.750
 8161POPC   C3B48729  10.015   2.859   7.050
 8161POPC   C4B48730   9.955   2.868   7.350
 8162POPC   NC348731  22.979  15.135   5.550
 8162POPC   PO448732  22.917  15.188   5.850
 8162POPC   GL148733  22.984  15.129   6.150
 8162POPC   GL248734  22.950  15.291   6.150
 8162POPC   C1A48735  22.904  15.192   6.450
 8162POPC   D2A48736  22.965  15.170   6.750
 8162POPC   C3A48737  22.976  15.195   7.050
 8162POPC   C4A48738  22.911  15.152   7.350
 8162POPC   C1B48739  23.007  15.414   6.450
 8162POPC   C2B48740  23.015  15.472   6.750
 8162POPC   C3B48741  22.980  15.423   7.050
 8162POPC   C4B48742  22.944  15.393   7.350
 8163POPC   NC348743  22.149  15.193   5.550
 8163POPC   PO448744  22.136  15.175   5.850
 8163POPC   GL148745  22.149  15.193   6.150
 8163POPC   GL248746  22.141  15.322   6.150
 8163POPC   C1A48747  22.134  15.136   6.450
 8163POPC   D2A48748  22.201  15.224   6.750
 8163POPC   C3A48749  22.180  15.206   7.050
 8163POPC   C4A48750  22.152  15.181   7.350
 8163POPC   C1B48751  22.238  15.389   6.450
 8163POPC   C2B48752  22.193  15.411   6.750
 8163POPC   C3B48753  22.217  15.459   7.050
 8163POPC   C4B48754  22.174  15.451   7.350
 8164POPC   NC348755  33.013  27.632   5.550
 8164POPC   PO448756  33.042  27.637   5.850
 8164POPC   GL148757  33.051  27.607   6.150
 8164POPC   GL248758  33.087  27.473   6.150
 8164POPC   C1A48759  32.975  27.554   6.450
 8164POPC   D2A48760  33.047  27.618   6.750
 8164POPC   C3A48761  33.037  27.555   7.050
 8164POPC   C4A48762  33.026  27.595   7.350
 8164POPC   C1B48763  33.159  27.394   6.450
 8164POPC   C2B48764  33.186  27.389   6.750
 8164POPC   C3B48765  33.151  27.380   7.050
 8164POPC   C4B48766  33.128  27.404   7.350
 8165POPC   NC348767  31.429  43.867   5.550
 8165POPC   PO448768  31.438  43.856   5.850
 8165POPC   GL148769  31.484  43.879   6.150
 8165POPC   GL248770  31.431  43.776   6.150
 8165POPC   C1A48771  31.446  43.907   6.450
 8165POPC   D2A48772  31.445  43.907   6.750
 8165POPC   C3A48773  31.516  43.873   7.050
 8165POPC   C4A48774  31.485  43.889   7.350
 8165POPC   C1B48775  31.401  43.626   6.450
 8165POPC   C2B48776  31.363  43.660   6.750
 8165POPC   C3B48777  31.395  43.606   7.050
 8165POPC   C4B48778  31.434  43.612   7.350
 8166POPC   NC348779   2.774  25.241   5.550
 8166POPC   PO448780   2.756  25.260   5.850
 8166POPC   GL148781   2.735  25.273   6.150
 8166POPC   GL248782   2.689  25.392   6.150
 8166POPC   C1A48783   2.767  25.228   6.450
 8166POPC   D2A48784   2.777  25.221   6.750
 8166POPC   C3A48785   2.747  25.232   7.050
 8166POPC   C4A48786   2.815  25.237   7.350
 8166POPC   C1B48787   2.676  25.425   6.450
 8166POPC   C2B48788   2.625  25.524   6.750
 8166POPC   C3B48789   2.609  25.438   7.050
 8166POPC   C4B48790   2.630  25.505   7.350
 8167POPC   NC348791  35.347  15.996   5.550
 8167POPC   PO448792  35.366  15.990   5.850
 8167POPC   GL148793  35.336  15.987   6.150
 8167POPC   GL248794  35.332  16.085   6.150
 8167POPC   C1A48795  35.323  15.937   6.450
 8167POPC   D2A48796  35.312  15.921   6.750
 8167POPC   C3A48797  35.339  15.954   7.050
 8167POPC   C4A48798  35.338  15.907   7.350
 8167POPC   C1B48799  35.275  16.173   6.450
 8167POPC   C2B48800  35.284  16.164   6.750
 8167POPC   C3B48801  35.299  16.175   7.050
 8167POPC   C4B48802  35.285  16.184   7.350
 8168POPC   NC348803   5.860  19.023   5.550
 8168POPC   PO448804   5.865  19.010   5.850
 8168POPC   GL148805   5.830  19.073   6.150
 8168POPC   GL248806   5.927  19.183   6.150
 8168POPC   C1A48807   5.871  19.015   6.450
 8168POPC   D2A48808   5.915  19.098   6.750
 8168POPC   C3A48809   5.882  19.107   7.050
 8168POPC   C4A48810   5.854  19.108   7.350
 8168POPC   C1B48811   6.012  19.278   6.450
 8168POPC   C2B48812   5.945  19.317   6.750
 8168POPC   C3B48813   5.970  19.271   7.050
 8168POPC   C4B48814   5.948  19.269   7.350
 8169POPC   NC348815  26.051  13.615   5.550
 8169POPC   PO448816  26.087  13.581   5.850
 8169POPC   GL148817  26.014  13.601   6.150
 8169POPC   GL248818  25.947  13.610   6.150
 8169POPC   C1A48819  26.013  13.621   6.450
 8169POPC   D2A48820  25.994  13.644   6.750
 8169POPC   C3A48821  26.040  13.654   7.050
 8169POPC   C4A48822  26.067  13.591   7.350
 8169POPC   C1B48823  25.807  13.517   6.450
 8169POPC   C2B48824  25.783  13.552   6.750
 8169POPC   C3B48825  25.766  13.589   7.050
 8169POPC   C4B48826  25.795  13.596   7.350
 8170POPC   NC348827  40.763  39.984   5.550
 8170POPC   PO448828  40.771  40.039   5.850
 8170POPC   GL148829  40.759  40.021   6.150
 8170POPC   GL248830  40.916  39.963   6.150
 8170POPC   C1A48831  40.751  39.974   6.450
 8170POPC   D2A48832  40.765  40.009   6.750
 8170POPC   C3A48833  40.766  39.996   7.050
 8170POPC   C4A48834  40.788  40.012   7.350
 8170POPC   C1B48835  41.010  39.985   6.450
 8170POPC   C2B48836  41.046  39.897   6.750
 8170POPC   C3B48837  41.025  39.979   7.050
 8170POPC   C4B48838  40.976  39.897   7.350
 8171POPC   NC348839   3.550  43.936   5.550
 8171POPC   PO448840   3.533  43.908   5.850
 8171POPC   GL148841   3.520  43.933   6.150
 8171POPC   GL248842   3.585  43.719   6.150
 8171POPC   C1A48843   3.549  43.907   6.450
 8171POPC   D2A48844   3.551  43.839   6.750
 8171POPC   C3A48845   3.554  43.915   7.050
 8171POPC   C4A48846   3.583  43.933   7.350
 8171POPC   C1B48847   3.644  43.695   6.450
 8171POPC   C2B48848   3.649  43.628   6.750
 8171POPC   C3B48849   3.610  43.634   7.050
 8171POPC   C4B48850   3.651  43.605   7.350
 8172POPC   NC348851  20.584  17.459   5.550
 8172POPC   PO448852  20.598  17.488   5.850
 8172POPC   GL148853  20.565  17.504   6.150
 8172POPC   GL248854  20.657  17.423   6.150
 8172POPC   C1A48855  20.654  17.478   6.450
 8172POPC   D2A48856  20.628  17.539   6.750
 8172POPC   C3A48857  20.619  17.527   7.050
 8172POPC   C4A48858  20.637  17.461   7.350
 8172POPC   C1B48859  20.700  17.237   6.450
 8172POPC   C2B48860  20.667  17.312   6.750
 8172POPC   C3B48861  20.743  17.254   7.050
 8172POPC   C4B48862  20.664  17.226   7.350
 8173POPC   NC348863  30.658   7.383   5.550
 8173POPC   PO448864  30.683   7.470   5.850
 8173POPC   GL148865  30.722   7.377   6.150
 8173POPC   GL248866  30.804   7.342   6.150
 8173POPC   C1A48867  30.706   7.379   6.450
 8173POPC   D2A48868  30.647   7.403   6.750
 8173POPC   C3A48869  30.661   7.388   7.050
 8173POPC   C4A48870  30.662   7.436   7.350
 8173POPC   C1B48871  30.956   7.360   6.450
 8173POPC   C2B48872  30.936   7.397   6.750
 8173POPC   C3B48873  30.972   7.353   7.050
 8173POPC   C4B48874  30.944   7.367   7.350
 8174POPC   NC348875  30.701  10.540   5.550
 8174POPC   PO448876  30.652  10.491   5.850
 8174POPC   GL148877  30.686  10.550   6.150
 8174POPC   GL248878  30.763  10.692   6.150
 8174POPC   C1A48879  30.737  10.542   6.450
 8174POPC   D2A48880  30.696  10.505   6.750
 8174POPC   C3A48881  30.655  10.494   7.050
 8174POPC   C4A48882  30.709  10.557   7.350
 8174POPC   C1B48883  30.772  10.781   6.450
 8174POPC   C2B48884  30.771  10.732   6.750
 8174POPC   C3B48885  30.731  10.810   7.050
 8174POPC   C4B48886  30.785  10.731   7.350
 8175POPC   NC348887  26.081  31.430   5.550
 8175POPC   PO448888  26.013  31.465   5.850
 8175POPC   GL148889  26.050  31.465   6.150
 8175POPC   GL248890  25.966  31.550   6.150
 8175POPC   C1A48891  26.023  31.520   6.450
 8175POPC   D2A48892  26.052  31.451   6.750
 8175POPC   C3A48893  26.053  31.515   7.050
 8175POPC   C4A48894  26.011  31.451   7.350
 8175POPC   C1B48895  25.768  31.599   6.450
 8175POPC   C2B48896  25.786  31.589   6.750
 8175POPC   C3B48897  25.862  31.545   7.050
 8175POPC   C4B48898  25.801  31.597   7.350
 8176POPC   NC348899   3.556  18.289   5.550
 8176POPC   PO448900   3.565  18.297   5.850
 8176POPC   GL148901   3.530  18.267   6.150
 8176POPC   GL248902   3.405  18.371   6.150
 8176POPC   C1A48903   3.557  18.244   6.450
 8176POPC   D2A48904   3.494  18.303   6.750
 8176POPC   C3A48905   3.495  18.301   7.050
 8176POPC   C4A48906   3.506  18.305   7.350
 8176POPC   C1B48907   3.316  18.360   6.450
 8176POPC   C2B48908   3.293  18.414   6.750
 8176POPC   C3B48909   3.313  18.397   7.050
 8176POPC   C4B48910   3.357  18.368   7.350
 8177POPC   NC348911  30.666  20.659   5.550
 8177POPC   PO448912  30.689  20.648   5.850
 8177POPC   GL148913  30.704  20.618   6.150
 8177POPC   GL248914  30.783  20.506   6.150
 8177POPC   C1A48915  30.714  20.633   6.450
 8177POPC   D2A48916  30.648  20.573   6.750
 8177POPC   C3A48917  30.695  20.602   7.050
 8177POPC   C4A48918  30.740  20.567   7.350
 8177POPC   C1B48919  30.834  20.435   6.450
 8177POPC   C2B48920  30.891  20.439   6.750
 8177POPC   C3B48921  30.792  20.387   7.050
 8177POPC   C4B48922  30.811  20.379   7.350
 8178POPC   NC348923  42.310  27.549   5.550
 8178POPC   PO448924  42.358  27.572   5.850
 8178POPC   GL148925  42.325  27.564   6.150
 8178POPC   GL248926  42.498  27.530   6.150
 8178POPC   C1A48927  42.356  27.562   6.450
 8178POPC   D2A48928  42.359  27.600   6.750
 8178POPC   C3A48929  42.335  27.577   7.050
 8178POPC   C4A48930  42.290  27.593   7.350
 8178POPC   C1B48931  42.570  27.563   6.450
 8178POPC   C2B48932  42.610  27.539   6.750
 8178POPC   C3B48933  42.529  27.556   7.050
 8178POPC   C4B48934  42.572  27.548   7.350
 8179POPC   NC348935  34.616  19.838   5.550
 8179POPC   PO448936  34.625  19.883   5.850
 8179POPC   GL148937  34.559  19.791   6.150
 8179POPC   GL248938  34.462  19.729   6.150
 8179POPC   C1A48939  34.551  19.810   6.450
 8179POPC   D2A48940  34.554  19.831   6.750
 8179POPC   C3A48941  34.567  19.815   7.050
 8179POPC   C4A48942  34.556  19.822   7.350
 8179POPC   C1B48943  34.389  19.703   6.450
 8179POPC   C2B48944  34.361  19.648   6.750
 8179POPC   C3B48945  34.351  19.644   7.050
 8179POPC   C4B48946  34.336  19.708   7.350
 8180POPC   NC348947  33.003  44.665   5.550
 8180POPC   PO448948  33.044  44.614   5.850
 8180POPC   GL148949  33.036  44.623   6.150
 8180POPC   GL248950  33.084  44.803   6.150
 8180POPC   C1A48951  33.034  44.628   6.450
 8180POPC   D2A48952  32.997  44.655   6.750
 8180POPC   C3A48953  33.001  44.671   7.050
 8180POPC   C4A48954  33.071  44.658   7.350
 8180POPC   C1B48955  33.174  44.923   6.450
 8180POPC   C2B48956  33.163  44.920   6.750
 8180POPC   C3B48957  33.172  44.831   7.050
 8180POPC   C4B48958  33.119  44.911   7.350
 8181POPC   NC348959  36.918   5.119   5.550
 8181POPC   PO448960  36.945   5.117   5.850
 8181POPC   GL148961  36.881   5.100   6.150
 8181POPC   GL248962  36.981   4.935   6.150
 8181POPC   C1A48963  36.859   5.057   6.450
 8181POPC   D2A48964  36.874   5.130   6.750
 8181POPC   C3A48965  36.930   5.095   7.050
 8181POPC   C4A48966  36.870   5.061   7.350
 8181POPC   C1B48967  36.996   4.885   6.450
 8181POPC   C2B48968  36.990   4.849   6.750
 8181POPC   C3B48969  36.980   4.870   7.050
 8181POPC   C4B48970  36.999   4.897   7.350
 8182POPC   NC348971   3.541  22.948   5.550
 8182POPC   PO448972   3.551  22.892   5.850
 8182POPC   GL148973   3.521  22.893   6.150
 8182POPC   GL248974   3.484  22.871   6.150
 8182POPC   C1A48975   3.516  22.951   6.450
 8182POPC   D2A48976   3.546  22.942   6.750
 8182POPC   C3A48977   3.590  22.941   7.050
 8182POPC   C4A48978   3.578  22.895   7.350
 8182POPC   C1B48979   3.367  22.760   6.450
 8182POPC   C2B48980   3.407  22.743   6.750
 8182POPC   C3B48981   3.435  22.746   7.050
 8182POPC   C4B48982   3.375  22.750   7.350
 8183POPC   NC348983  39.259  29.954   5.550
 8183POPC   PO448984  39.237  29.898   5.850
 8183POPC   GL148985  39.224  29.899   6.150
 8183POPC   GL248986  39.167  29.786   6.150
 8183POPC   C1A48987  39.226  29.941   6.450
 8183POPC   D2A48988  39.244  29.881   6.750
 8183POPC   C3A48989  39.239  29.947   7.050
 8183POPC   C4A48990  39.207  29.887   7.350
 8183POPC   C1B48991  39.234  29.703   6.450
 8183POPC   C2B48992  39.182  29.634   6.750
 8183POPC   C3B48993  39.190  29.695   7.050
 8183POPC   C4B48994  39.169  29.692   7.350
 8184POPC   NC348995  38.480   4.271   5.550
 8184POPC   PO448996  38.498   4.281   5.850
 8184POPC   GL148997  38.445   4.320   6.150
 8184POPC   GL248998  38.532   4.351   6.150
 8184POPC   C1A48999  38.419   4.307   6.450
 8184POPC   D2A49000  38.435   4.272   6.750
 8184POPC   C3A49001  38.474   4.350   7.050
 8184POPC   C4A49002  38.471   4.347   7.350
 8184POPC   C1B49003  38.663   4.421   6.450
 8184POPC   C2B49004  38.725   4.429   6.750
 8184POPC   C3B49005  38.696   4.405   7.050
 8184POPC   C4B49006  38.661   4.385   7.350
 8185POPC   NC349007  32.218  27.578   5.550
 8185POPC   PO449008  32.208  27.563   5.850
 8185POPC   GL149009  32.207  27.636   6.150
 8185POPC   GL249010  32.228  27.713   6.150
 8185POPC   C1A49011  32.210  27.592   6.450
 8185POPC   D2A49012  32.297  27.639   6.750
 8185POPC   C3A49013  32.203  27.546   7.050
 8185POPC   C4A49014  32.290  27.592   7.350
 8185POPC   C1B49015  32.331  27.864   6.450
 8185POPC   C2B49016  32.306  27.884   6.750
 8185POPC   C3B49017  32.341  27.859   7.050
 8185POPC   C4B49018  32.349  27.882   7.350
 8186POPC   NC349019  10.534  29.924   5.550
 8186POPC   PO449020  10.552  29.893   5.850
 8186POPC   GL149021  10.537  29.940   6.150
 8186POPC   GL249022  10.390  29.958   6.150
 8186POPC   C1A49023  10.488  29.919   6.450
 8186POPC   D2A49024  10.508  29.885   6.750
 8186POPC   C3A49025  10.485  29.945   7.050
 8186POPC   C4A49026  10.524  29.877   7.350
 8186POPC   C1B49027  10.305  30.001   6.450
 8186POPC   C2B49028  10.280  29.996   6.750
 8186POPC   C3B49029  10.305  29.997   7.050
 8186POPC   C4B49030  10.332  30.023   7.350
 8187POPC   NC349031   6.652  12.070   5.550
 8187POPC   PO449032   6.601  12.099   5.850
 8187POPC   GL149033   6.677  12.041   6.150
 8187POPC   GL249034   6.722  12.179   6.150
 8187POPC   C1A49035   6.661  12.028   6.450
 8187POPC   D2A49036   6.695  12.060   6.750
 8187POPC   C3A49037   6.672  12.098   7.050
 8187POPC   C4A49038   6.620  12.124   7.350
 8187POPC   C1B49039   6.885  12.188   6.450
 8187POPC   C2B49040   6.884  12.279   6.750
 8187POPC   C3B49041   6.846  12.224   7.050
 8187POPC   C4B49042   6.830  12.271   7.350
 8188POPC   NC349043  15.164  38.486   5.550
 8188POPC   PO449044  15.158  38.428   5.850
 8188POPC   GL149045  15.205  38.445   6.150
 8188POPC   GL249046  15.186  38.606   6.150
 8188POPC   C1A49047  15.140  38.428   6.450
 8188POPC   D2A49048  15.190  38.483   6.750
 8188POPC   C3A49049  15.163  38.423   7.050
 8188POPC   C4A49050  15.171  38.502   7.350
 8188POPC   C1B49051  15.228  38.702   6.450
 8188POPC   C2B49052  15.305  38.666   6.750
 8188POPC   C3B49053  15.288  38.722   7.050
 8188POPC   C4B49054  15.229  38.713   7.350
 8189POPC   NC349055  13.601  44.686   5.550
 8189POPC   PO449056  13.656  44.676   5.850
 8189POPC   GL149057  13.608  44.696   6.150
 8189POPC   GL249058  13.567  44.629   6.150
 8189POPC   C1A49059  13.584  44.637   6.450
 8189POPC   D2A49060  13.584  44.685   6.750
 8189POPC   C3A49061  13.593  44.644   7.050
 8189POPC   C4A49062  13.586  44.657   7.350
 8189POPC   C1B49063  13.414  44.556   6.450
 8189POPC   C2B49064  13.444  44.553   6.750
 8189POPC   C3B49065  13.435  44.579   7.050
 8189POPC   C4B49066  13.420  44.482   7.350
 8190POPC   NC349067   2.018  28.410   5.550
 8190POPC   PO449068   2.010  28.383   5.850
 8190POPC   GL149069   1.950  28.384   6.150
 8190POPC   GL249070   1.986  28.250   6.150
 8190POPC   C1A49071   2.039  28.330   6.450
 8190POPC   D2A49072   1.977  28.393   6.750
 8190POPC   C3A49073   1.974  28.337   7.050
 8190POPC   C4A49074   1.969  28.340   7.350
 8190POPC   C1B49075   1.997  28.168   6.450
 8190POPC   C2B49076   1.925  28.113   6.750
 8190POPC   C3B49077   2.008  28.136   7.050
 8190POPC   C4B49078   1.986  28.145   7.350
 8191POPC   NC349079   9.775  29.147   5.550
 8191POPC   PO449080   9.745  29.107   5.850
 8191POPC   GL149081   9.726  29.143   6.150
 8191POPC   GL249082   9.870  29.074   6.150
 8191POPC   C1A49083   9.738  29.173   6.450
 8191POPC   D2A49084   9.765  29.180   6.750
 8191POPC   C3A49085   9.795  29.157   7.050
 8191POPC   C4A49086   9.738  29.110   7.350
 8191POPC   C1B49087   9.942  29.010   6.450
 8191POPC   C2B49088   9.956  29.034   6.750
 8191POPC   C3B49089   9.983  29.006   7.050
 8191POPC   C4B49090  10.027  29.097   7.350
 8192POPC   NC349091  26.012  43.892   5.550
 8192POPC   PO449092  26.082  43.881   5.850
 8192POPC   GL149093  26.003  43.910   6.150
 8192POPC   GL249094  26.003  43.782   6.150
 8192POPC   C1A49095  26.057  43.857   6.450
 8192POPC   D2A49096  26.022  43.921   6.750
 8192POPC   C3A49097  26.052  43.915   7.050
 8192POPC   C4A49098  26.030  43.837   7.350
 8192POPC   C1B49099  26.010  43.614   6.450
 8192POPC   C2B49100  25.951  43.617   6.750
 8192POPC   C3B49101  25.997  43.633   7.050
 8192POPC   C4B49102  25.921  43.689   7.350
 8193POPC   NC349103  14.365  29.164   5.550
 8193POPC   PO449104  14.392  29.135   5.850
 8193POPC   GL149105  14.387  29.190   6.150
 8193POPC   GL249106  14.492  29.251   6.150
 8193POPC   C1A49107  14.443  29.190   6.450
 8193POPC   D2A49108  14.397  29.110   6.750
 8193POPC   C3A49109  14.453  29.139   7.050
 8193POPC   C4A49110  14.358  29.114   7.350
 8193POPC   C1B49111  14.609  29.342   6.450
 8193POPC   C2B49112  14.596  29.275   6.750
 8193POPC   C3B49113  14.549  29.276   7.050
 8193POPC   C4B49114  14.560  29.292   7.350
 8194POPC   NC349115  27.587   7.446   5.550
 8194POPC   PO449116  27.616   7.380   5.850
 8194POPC   GL149117  27.633   7.394   6.150
 8194POPC   GL249118  27.457   7.391   6.150
 8194POPC   C1A49119  27.577   7.409   6.450
 8194POPC   D2A49120  27.552   7.405   6.750
 8194POPC   C3A49121  27.574   7.426   7.050
 8194POPC   C4A49122  27.624   7.419   7.350
 8194POPC   C1B49123  27.395   7.373   6.450
 8194POPC   C2B49124  27.378   7.375   6.750
 8194POPC   C3B49125  27.360   7.332   7.050
 8194POPC   C4B49126  27.344   7.383   7.350
 8195POPC   NC349127  32.216  36.172   5.550
 8195POPC   PO449128  32.296  36.128   5.850
 8195POPC   GL149129  32.245  36.132   6.150
 8195POPC   GL249130  32.369  36.166   6.150
 8195POPC   C1A49131  32.206  36.162   6.450
 8195POPC   D2A49132  32.259  36.097   6.750
 8195POPC   C3A49133  32.244  36.118   7.050
 8195POPC   C4A49134  32.229  36.097   7.350
 8195POPC   C1B49135  32.445  36.196   6.450
 8195POPC   C2B49136  32.510  36.220   6.750
 8195POPC   C3B49137  32.494  36.160   7.050
 8195POPC   C4B49138  32.528  36.132   7.350
 8196POPC   NC349139  39.275  10.508   5.550
 8196POPC   PO449140  39.198  10.504   5.850
 8196POPC   GL149141  39.233  10.504   6.150
 8196POPC   GL249142  39.297  10.402   6.150
 8196POPC   C1A49143  39.227  10.514   6.450
 8196POPC   D2A49144  39.256  10.546   6.750
 8196POPC   C3A49145  39.262  10.506   7.050
 8196POPC   C4A49146  39.239  10.475   7.350
 8196POPC   C1B49147  39.308  10.273   6.450
 8196POPC   C2B49148  39.375  10.347   6.750
 8196POPC   C3B49149  39.314  10.345   7.050
 8196POPC   C4B49150  39.304  10.349   7.350
 8197POPC   NC349151   7.372  43.850   5.550
 8197POPC   PO449152   7.388  43.884   5.850
 8197POPC   GL149153   7.381  43.880   6.150
 8197POPC   GL249154   7.574  43.888   6.150
 8197POPC   C1A49155   7.425  43.914   6.450
 8197POPC   D2A49156   7.449  43.931   6.750
 8197POPC   C3A49157   7.407  43.907   7.050
 8197POPC   C4A49158   7.437  43.840   7.350
 8197POPC   C1B49159   7.669  43.837   6.450
 8197POPC   C2B49160   7.696  43.760   6.750
 8197POPC   C3B49161   7.638  43.777   7.050
 8197POPC   C4B49162   7.610  43.786   7.350
 8198POPC   NC349163  16.685  20.582   5.550
 8198POPC   PO449164  16.740  20.577   5.850
 8198POPC   GL149165  16.730  20.600   6.150
 8198POPC   GL249166  16.606  20.511   6.150
 8198POPC   C1A49167  16.721  20.656   6.450
 8198POPC   D2A49168  16.776  20.566   6.750
 8198POPC   C3A49169  16.711  20.625   7.050
 8198POPC   C4A49170  16.698  20.622   7.350
 8198POPC   C1B49171  16.534  20.431   6.450
 8198POPC   C2B49172  16.538  20.406   6.750
 8198POPC   C3B49173  16.547  20.442   7.050
 8198POPC   C4B49174  16.535  20.463   7.350
 8199POPC   NC349175  29.149  12.853   5.550
 8199POPC   PO449176  29.131  12.843   5.850
 8199POPC   GL149177  29.145  12.889   6.150
 8199POPC   GL249178  29.067  12.778   6.150
 8199POPC   C1A49179  29.140  12.821   6.450
 8199POPC   D2A49180  29.142  12.824   6.750
 8199POPC   C3A49181  29.126  12.874   7.050
 8199POPC   C4A49182  29.119  12.879   7.350
 8199POPC   C1B49183  28.875  12.816   6.450
 8199POPC   C2B49184  28.919  12.839   6.750
 8199POPC   C3B49185  28.863  12.756   7.050
 8199POPC   C4B49186  28.890  12.801   7.350
 8200POPC   NC349187  33.033  43.885   5.550
 8200POPC   PO449188  33.038  43.926   5.850
 8200POPC   GL149189  33.046  43.886   6.150
 8200POPC   GL249190  32.915  43.872   6.150
 8200POPC   C1A49191  32.995  43.860   6.450
 8200POPC   D2A49192  32.985  43.861   6.750
 8200POPC   C3A49193  32.993  43.877   7.050
 8200POPC   C4A49194  33.073  43.935   7.350
 8200POPC   C1B49195  32.734  43.950   6.450
 8200POPC   C2B49196  32.786  43.956   6.750
 8200POPC   C3B49197  32.766  43.999   7.050
 8200POPC   C4B49198  32.747  43.916   7.350
 8201POPC   NC349199  43.923   9.781   5.550
 8201POPC   PO449200  43.916   9.717   5.850
 8201POPC   GL149201  43.929   9.793   6.150
 8201POPC   GL249202  43.824   9.831   6.150
 8201POPC   C1A49203  43.893   9.700   6.450
 8201POPC   D2A49204  43.923   9.765   6.750
 8201POPC   C3A49205  43.879   9.744   7.050
 8201POPC   C4A49206  43.873   9.742   7.350
 8201POPC   C1B49207  43.720  10.000   6.450
 8201POPC   C2B49208  43.754   9.978   6.750
 8201POPC   C3B49209  43.810  10.009   7.050
 8201POPC   C4B49210  43.810   9.942   7.350
 8202POPC   NC349211  29.892  29.875   5.550
 8202POPC   PO449212  29.952  29.941   5.850
 8202POPC   GL149213  29.898  29.957   6.150
 8202POPC   GL249214  30.041  29.957   6.150
 8202POPC   C1A49215  29.963  29.880   6.450
 8202POPC   D2A49216  29.903  29.969   6.750
 8202POPC   C3A49217  29.909  29.956   7.050
 8202POPC   C4A49218  29.892  29.905   7.350
 8202POPC   C1B49219  30.070  30.081   6.450
 8202POPC   C2B49220  30.085  30.136   6.750
 8202POPC   C3B49221  30.084  30.063   7.050
 8202POPC   C4B49222  30.085  30.136   7.350
 8203POPC   NC349223  44.625  23.763   5.550
 8203POPC   PO449224  44.705  23.720   5.850
 8203POPC   GL149225  44.688  23.690   6.150
 8203POPC   GL249226  44.533  23.802   6.150
 8203POPC   C1A49227  44.650  23.755   6.450
 8203POPC   D2A49228  44.612  23.756   6.750
 8203POPC   C3A49229  44.637  23.750   7.050
 8203POPC   C4A49230  44.665  23.734   7.350
 8203POPC   C1B49231  44.481  23.849   6.450
 8203POPC   C2B49232  44.482  23.823   6.750
 8203POPC   C3B49233  44.446  23.879   7.050
 8203POPC   C4B49234  44.448  23.828   7.350
 8204POPC   NC349235   5.913   7.438   5.550
 8204POPC   PO449236   5.897   7.380   5.850
 8204POPC   GL149237   5.910   7.423   6.150
 8204POPC   GL249238   5.835   7.498   6.150
 8204POPC   C1A49239   5.878   7.465   6.450
 8204POPC   D2A49240   5.875   7.403   6.750
 8204POPC   C3A49241   5.831   7.403   7.050
 8204POPC   C4A49242   5.836   7.383   7.350
 8204POPC   C1B49243   5.658   7.659   6.450
 8204POPC   C2B49244   5.712   7.596   6.750
 8204POPC   C3B49245   5.671   7.645   7.050
 8204POPC   C4B49246   5.697   7.582   7.350
 8205POPC   NC349247  15.958   1.980   5.550
 8205POPC   PO449248  15.946   1.976   5.850
 8205POPC   GL149249  15.909   1.940   6.150
 8205POPC   GL249250  15.993   2.136   6.150
 8205POPC   C1A49251  15.922   2.035   6.450
 8205POPC   D2A49252  15.943   1.982   6.750
 8205POPC   C3A49253  15.946   1.946   7.050
 8205POPC   C4A49254  15.936   2.033   7.350
 8205POPC   C1B49255  16.053   2.236   6.450
 8205POPC   C2B49256  16.025   2.258   6.750
 8205POPC   C3B49257  16.061   2.209   7.050
 8205POPC   C4B49258  16.048   2.222   7.350
 8206POPC   NC349259  31.471  24.457   5.550
 8206POPC   PO449260  31.477  24.476   5.850
 8206POPC   GL149261  31.440  24.520   6.150
 8206POPC   GL249262  31.577  24.419   6.150
 8206POPC   C1A49263  31.463  24.496   6.450
 8206POPC   D2A49264  31.506  24.516   6.750
 8206POPC   C3A49265  31.517  24.517   7.050
 8206POPC   C4A49266  31.444  24.458   7.350
 8206POPC   C1B49267  31.611  24.273   6.450
 8206POPC   C2B49268  31.692  24.264   6.750
 8206POPC   C3B49269  31.652  24.264   7.050
 8206POPC   C4B49270  31.624  24.262   7.350
 8207POPC   NC349271  13.608  15.939   5.550
 8207POPC   PO449272  13.617  16.001   5.850
 8207POPC   GL149273  13.644  15.971   6.150
 8207POPC   GL249274  13.764  16.021   6.150
 8207POPC   C1A49275  13.628  15.928   6.450
 8207POPC   D2A49276  13.658  15.958   6.750
 8207POPC   C3A49277  13.592  16.000   7.050
 8207POPC   C4A49278  13.595  15.944   7.350
 8207POPC   C1B49279  13.871  16.106   6.450
 8207POPC   C2B49280  13.855  16.110   6.750
 8207POPC   C3B49281  13.866  16.107   7.050
 8207POPC   C4B49282  13.849  16.118   7.350
 8208POPC   NC349283  18.286  17.556   5.550
 8208POPC   PO449284  18.256  17.478   5.850
 8208POPC   GL149285  18.284  17.483   6.150
 8208POPC   GL249286  18.422  17.504   6.150
 8208POPC   C1A49287  18.297  17.529   6.450
 8208POPC   D2A49288  18.272  17.466   6.750
 8208POPC   C3A49289  18.329  17.489   7.050
 8208POPC   C4A49290  18.252  17.469   7.350
 8208POPC   C1B49291  18.518  17.452   6.450
 8208POPC   C2B49292  18.501  17.475   6.750
 8208POPC   C3B49293  18.517  17.434   7.050
 8208POPC   C4B49294  18.552  17.459   7.350
 8209POPC   NC349295  39.265  25.219   5.550
 8209POPC   PO449296  39.212  25.309   5.850
 8209POPC   GL149297  39.215  25.254   6.150
 8209POPC   GL249298  39.324  25.337   6.150
 8209POPC   C1A49299  39.274  25.310   6.450
 8209POPC   D2A49300  39.250  25.279   6.750
 8209POPC   C3A49301  39.221  25.288   7.050
 8209POPC   C4A49302  39.249  25.270   7.350
 8209POPC   C1B49303  39.344  25.525   6.450
 8209POPC   C2B49304  39.288  25.498   6.750
 8209POPC   C3B49305  39.340  25.512   7.050
 8209POPC   C4B49306  39.338  25.525   7.350
 8210POPC   NC349307  17.473  14.425   5.550
 8210POPC   PO449308  17.537  14.420   5.850
 8210POPC   GL149309  17.520  14.419   6.150
 8210POPC   GL249310  17.414  14.522   6.150
 8210POPC   C1A49311  17.541  14.366   6.450
 8210POPC   D2A49312  17.549  14.438   6.750
 8210POPC   C3A49313  17.542  14.386   7.050
 8210POPC   C4A49314  17.512  14.421   7.350
 8210POPC   C1B49315  17.355  14.587   6.450
 8210POPC   C2B49316  17.352  14.570   6.750
 8210POPC   C3B49317  17.325  14.555   7.050
 8210POPC   C4B49318  17.366  14.632   7.350
 8211POPC   NC349319  16.732  23.747   5.550
 8211POPC   PO449320  16.691  23.749   5.850
 8211POPC   GL149321  16.732  23.668   6.150
 8211POPC   GL249322  16.724  23.866   6.150
 8211POPC   C1A49323  16.687  23.687   6.450
 8211POPC   D2A49324  16.764  23.686   6.750
 8211POPC   C3A49325  16.771  23.723   7.050
 8211POPC   C4A49326  16.684  23.700   7.350
 8211POPC   C1B49327  16.753  24.005   6.450
 8211POPC   C2B49328  16.768  23.982   6.750
 8211POPC   C3B49329  16.740  23.937   7.050
 8211POPC   C4B49330  16.774  23.948   7.350
 8212POPC   NC349331  12.048  43.932   5.550
 8212POPC   PO449332  12.107  43.925   5.850
 8212POPC   GL149333  12.054  43.918   6.150
 8212POPC   GL249334  12.106  43.956   6.150
 8212POPC   C1A49335  12.101  43.849   6.450
 8212POPC   D2A49336  12.096  43.926   6.750
 8212POPC   C3A49337  12.043  43.901   7.050
 8212POPC   C4A49338  12.113  43.896   7.350
 8212POPC   C1B49339  12.204  44.140   6.450
 8212POPC   C2B49340  12.183  44.118   6.750
 8212POPC   C3B49341  12.236  44.123   7.050
 8212POPC   C4B49342  12.177  44.061   7.350
 8213POPC   NC349343  18.252  18.327   5.550
 8213POPC   PO449344  18.258  18.256   5.850
 8213POPC   GL149345  18.290  18.241   6.150
 8213POPC   GL249346  18.368  18.176   6.150
 8213POPC   C1A49347  18.318  18.293   6.450
 8213POPC   D2A49348  18.316  18.292   6.750
 8213POPC   C3A49349  18.270  18.319   7.050
 8213POPC   C4A49350  18.313  18.304   7.350
 8213POPC   C1B49351  18.497  18.169   6.450
 8213POPC   C2B49352  18.506  18.109   6.750
 8213POPC   C3B49353  18.426  18.141   7.050
 8213POPC   C4B49354  18.458  18.104   7.350
 8214POPC   NC349355   4.346   6.694   5.550
 8214POPC   PO449356   4.301   6.670   5.850
 8214POPC   GL149357   4.309   6.674   6.150
 8214POPC   GL249358   4.463   6.702   6.150
 8214POPC   C1A49359   4.310   6.675   6.450
 8214POPC   D2A49360   4.280   6.645   6.750
 8214POPC   C3A49361   4.330   6.694   7.050
 8214POPC   C4A49362   4.347   6.651   7.350
 8214POPC   C1B49363   4.490   6.768   6.450
 8214POPC   C2B49364   4.536   6.824   6.750
 8214POPC   C3B49365   4.480   6.770   7.050
 8214POPC   C4B49366   4.517   6.787   7.350
 8215POPC   NC349367  29.964  13.611   5.550
 8215POPC   PO449368  29.882  13.602   5.850
 8215POPC   GL149369  29.957  13.607   6.150
 8215POPC   GL249370  29.922  13.461   6.150
 8215POPC   C1A49371  29.872  13.657   6.450
 8215POPC   D2A49372  29.941  13.605   6.750
 8215POPC   C3A49373  29.875  13.641   7.050
 8215POPC   C4A49374  29.912  13.582   7.350
 8215POPC   C1B49375  29.989  13.363   6.450
 8215POPC   C2B49376  29.975  13.333   6.750
 8215POPC   C3B49377  29.960  13.359   7.050
 8215POPC   C4B49378  29.957  13.351   7.350
 8216POPC   NC349379   5.079  21.376   5.550
 8216POPC   PO449380   5.080  21.435   5.850
 8216POPC   GL149381   5.099  21.356   6.150
 8216POPC   GL249382   5.084  21.471   6.150
 8216POPC   C1A49383   5.095  21.418   6.450
 8216POPC   D2A49384   5.059  21.418   6.750
 8216POPC   C3A49385   5.066  21.351   7.050
 8216POPC   C4A49386   5.057  21.383   7.350
 8216POPC   C1B49387   5.017  21.581   6.450
 8216POPC   C2B49388   4.983  21.603   6.750
 8216POPC   C3B49389   4.994  21.594   7.050
 8216POPC   C4B49390   4.985  21.668   7.350
 8217POPC   NC349391  19.055  34.618   5.550
 8217POPC   PO449392  19.049  34.624   5.850
 8217POPC   GL149393  19.094  34.527   6.150
 8217POPC   GL249394  19.111  34.694   6.150
 8217POPC   C1A49395  19.021  34.610   6.450
 8217POPC   D2A49396  19.077  34.566   6.750
 8217POPC   C3A49397  19.057  34.607   7.050
 8217POPC   C4A49398  19.024  34.555   7.350
 8217POPC   C1B49399  19.040  34.870   6.450
 8217POPC   C2B49400  19.081  34.801   6.750
 8217POPC   C3B49401  19.041  34.807   7.050
 8217POPC   C4B49402  19.096  34.789   7.350
 8218POPC   NC349403   4.363  21.433   5.550
 8218POPC   PO449404   4.342  21.373   5.850
 8218POPC   GL149405   4.269  21.411   6.150
 8218POPC   GL249406   4.274  21.320   6.150
 8218POPC   C1A49407   4.356  21.368   6.450
 8218POPC   D2A49408   4.351  21.338   6.750
 8218POPC   C3A49409   4.363  21.408   7.050
 8218POPC   C4A49410   4.282  21.344   7.350
 8218POPC   C1B49411   4.203  21.133   6.450
 8218POPC   C2B49412   4.177  21.171   6.750
 8218POPC   C3B49413   4.253  21.169   7.050
 8218POPC   C4B49414   4.256  21.108   7.350
 8219POPC   NC349415  15.164  26.047   5.550
 8219POPC   PO449416  15.200  26.071   5.850
 8219POPC   GL149417  15.179  26.003   6.150
 8219POPC   GL249418  15.053  26.121   6.150
 8219POPC   C1A49419  15.192  26.076   6.450
 8219POPC   D2A49420  15.181  26.011   6.750
 8219POPC   C3A49421  15.201  26.061   7.050
 8219POPC   C4A49422  15.190  26.017   7.350
 8219POPC   C1B49423  14.982  26.155   6.450
 8219POPC   C2B49424  14.982  26.168   6.750
 8219POPC   C3B49425  14.995  26.203   7.050
 8219POPC   C4B49426  15.007  26.237   7.350
 8220POPC   NC349427  16.731  26.828   5.550
 8220POPC   PO449428  16.682  26.851   5.850
 8220POPC   GL149429  16.709  26.779   6.150
 8220POPC   GL249430  16.736  26.970   6.150
 8220POPC   C1A49431  16.699  26.785   6.450
 8220POPC   D2A49432  16.777  26.831   6.750
 8220POPC   C3A49433  16.711  26.836   7.050
 8220POPC   C4A49434  16.712  26.784   7.350
 8220POPC   C1B49435  16.862  27.079   6.450
 8220POPC   C2B49436  16.810  27.047   6.750
 8220POPC   C3B49437  16.823  27.082   7.050
 8220POPC   C4B49438  16.807  26.998   7.350
 8221POPC   NC349439  25.238  36.867   5.550
 8221POPC   PO449440  25.274  36.855   5.850
 8221POPC   GL149441  25.272  36.933   6.150
 8221POPC   GL249442  25.103  36.854   6.150
 8221POPC   C1A49443  25.223  36.920   6.450
 8221POPC   D2A49444  25.275  36.938   6.750
 8221POPC   C3A49445  25.285  36.886   7.050
 8221POPC   C4A49446  25.250  36.895   7.350
 8221POPC   C1B49447  25.062  36.858   6.450
 8221POPC   C2B49448  25.053  36.875   6.750
 8221POPC   C3B49449  24.995  36.890   7.050
 8221POPC   C4B49450  25.029  36.903   7.350
 8222POPC   NC349451   5.054  15.133   5.550
 8222POPC   PO449452   5.050  15.170   5.850
 8222POPC   GL149453   5.113  15.216   6.150
 8222POPC   GL249454   5.143  15.034   6.150
 8222POPC   C1A49455   5.043  15.191   6.450
 8222POPC   D2A49456   5.086  15.138   6.750
 8222POPC   C3A49457   5.061  15.172   7.050
 8222POPC   C4A49458   5.097  15.169   7.350
 8222POPC   C1B49459   5.127  14.899   6.450
 8222POPC   C2B49460   5.120  14.976   6.750
 8222POPC   C3B49461   5.122  14.904   7.050
 8222POPC   C4B49462   5.113  14.977   7.350
 8223POPC   NC349463  36.908  25.265   5.550
 8223POPC   PO449464  36.876  25.256   5.850
 8223POPC   GL149465  36.950  25.222   6.150
 8223POPC   GL249466  36.834  25.235   6.150
 8223POPC   C1A49467  36.925  25.222   6.450
 8223POPC   D2A49468  36.939  25.274   6.750
 8223POPC   C3A49469  36.874  25.249   7.050
 8223POPC   C4A49470  36.931  25.219   7.350
 8223POPC   C1B49471  36.701  25.119   6.450
 8223POPC   C2B49472  36.688  25.178   6.750
 8223POPC   C3B49473  36.713  25.103   7.050
 8223POPC   C4B49474  36.632  25.135   7.350
 8224POPC   NC349475  21.375  12.058   5.550
 8224POPC   PO449476  21.337  12.098   5.850
 8224POPC   GL149477  21.403  12.119   6.150
 8224POPC   GL249478  21.317  11.953   6.150
 8224POPC   C1A49479  21.368  12.106   6.450
 8224POPC   D2A49480  21.429  12.045   6.750
 8224POPC   C3A49481  21.354  12.073   7.050
 8224POPC   C4A49482  21.432  12.114   7.350
 8224POPC   C1B49483  21.279  11.820   6.450
 8224POPC   C2B49484  21.300  11.854   6.750
 8224POPC   C3B49485  21.239  11.866   7.050
 8224POPC   C4B49486  21.299  11.825   7.350
 8225POPC   NC349487  41.561  35.364   5.550
 8225POPC   PO449488  41.531  35.314   5.850
 8225POPC   GL149489  41.595  35.396   6.150
 8225POPC   GL249490  41.493  35.257   6.150
 8225POPC   C1A49491  41.553  35.359   6.450
 8225POPC   D2A49492  41.556  35.355   6.750
 8225POPC   C3A49493  41.531  35.307   7.050
 8225POPC   C4A49494  41.515  35.315   7.350
 8225POPC   C1B49495  41.531  35.137   6.450
 8225POPC   C2B49496  41.529  35.148   6.750
 8225POPC   C3B49497  41.473  35.133   7.050
 8225POPC   C4B49498  41.546  35.123   7.350
 8226POPC   NC349499  40.766  40.785   5.550
 8226POPC   PO449500  40.749  40.752   5.850
 8226POPC   GL149501  40.733  40.748   6.150
 8226POPC   GL249502  40.747  40.859   6.150
 8226POPC   C1A49503  40.758  40.809   6.450
 8226POPC   D2A49504  40.813  40.760   6.750
 8226POPC   C3A49505  40.752  40.806   7.050
 8226POPC   C4A49506  40.774  40.809   7.350
 8226POPC   C1B49507  40.674  40.975   6.450
 8226POPC   C2B49508  40.611  40.957   6.750
 8226POPC   C3B49509  40.666  41.008   7.050
 8226POPC   C4B49510  40.635  41.029   7.350
 8227POPC   NC349511  23.672  15.914   5.550
 8227POPC   PO449512  23.692  15.953   5.850
 8227POPC   GL149513  23.734  15.974   6.150
 8227POPC   GL249514  23.768  15.800   6.150
 8227POPC   C1A49515  23.667  15.937   6.450
 8227POPC   D2A49516  23.747  15.918   6.750
 8227POPC   C3A49517  23.723  15.926   7.050
 8227POPC   C4A49518  23.681  15.947   7.350
 8227POPC   C1B49519  23.772  15.736   6.450
 8227POPC   C2B49520  23.779  15.660   6.750
 8227POPC   C3B49521  23.725  15.722   7.050
 8227POPC   C4B49522  23.732  15.698   7.350
 8228POPC   NC349523  30.681  28.333   5.550
 8228POPC   PO449524  30.741  28.369   5.850
 8228POPC   GL149525  30.690  28.419   6.150
 8228POPC   GL249526  30.765  28.461   6.150
 8228POPC   C1A49527  30.648  28.406   6.450
 8228POPC   D2A49528  30.737  28.366   6.750
 8228POPC   C3A49529  30.685  28.405   7.050
 8228POPC   C4A49530  30.732  28.326   7.350
 8228POPC   C1B49531  30.834  28.585   6.450
 8228POPC   C2B49532  30.875  28.538   6.750
 8228POPC   C3B49533  30.856  28.563   7.050
 8228POPC   C4B49534  30.812  28.540   7.350
 8229POPC   NC349535   5.050  39.275   5.550
 8229POPC   PO449536   5.070  39.202   5.850
 8229POPC   GL149537   5.128  39.263   6.150
 8229POPC   GL249538   5.090  39.380   6.150
 8229POPC   C1A49539   5.093  39.268   6.450
 8229POPC   D2A49540   5.066  39.224   6.750
 8229POPC   C3A49541   5.127  39.257   7.050
 8229POPC   C4A49542   5.083  39.196   7.350
 8229POPC   C1B49543   5.192  39.447   6.450
 8229POPC   C2B49544   5.217  39.446   6.750
 8229POPC   C3B49545   5.130  39.473   7.050
 8229POPC   C4B49546   5.199  39.512   7.350
 8230POPC   NC349547  38.462  18.290   5.550
 8230POPC   PO449548  38.495  18.328   5.850
 8230POPC   GL149549  38.453  18.270   6.150
 8230POPC   GL249550  38.478  18.117   6.150
 8230POPC   C1A49551  38.418  18.248   6.450
 8230POPC   D2A49552  38.487  18.303   6.750
 8230POPC   C3A49553  38.415  18.242   7.050
 8230POPC   C4A49554  38.494  18.307   7.350
 8230POPC   C1B49555  38.480  18.080   6.450
 8230POPC   C2B49556  38.484  18.007   6.750
 8230POPC   C3B49557  38.520  18.057   7.050
 8230POPC   C4B49558  38.486  18.071   7.350
 8231POPC   NC349559   3.500  37.659   5.550
 8231POPC   PO449560   3.577  37.661   5.850
 8231POPC   GL149561   3.546  37.726   6.150
 8231POPC   GL249562   3.714  37.645   6.150
 8231POPC   C1A49563   3.548  37.640   6.450
 8231POPC   D2A49564   3.576  37.697   6.750
 8231POPC   C3A49565   3.500  37.644   7.050
 8231POPC   C4A49566   3.570  37.693   7.350
 8231POPC   C1B49567   3.755  37.706   6.450
 8231POPC   C2B49568   3.762  37.693   6.750
 8231POPC   C3B49569   3.835  37.633   7.050
 8231POPC   C4B49570   3.758  37.722   7.350
 8232POPC   NC349571  26.775  33.831   5.550
 8232POPC   PO449572  26.819  33.790   5.850
 8232POPC   GL149573  26.864  33.762   6.150
 8232POPC   GL249574  26.920  33.773   6.150
 8232POPC   C1A49575  26.784  33.788   6.450
 8232POPC   D2A49576  26.847  33.814   6.750
 8232POPC   C3A49577  26.839  33.800   7.050
 8232POPC   C4A49578  26.828  33.794   7.350
 8232POPC   C1B49579  27.063  33.601   6.450
 8232POPC   C2B49580  26.993  33.638   6.750
 8232POPC   C3B49581  26.972  33.697   7.050
 8232POPC   C4B49582  26.996  33.608   7.350
 8233POPC   NC349583  33.049  28.326   5.550
 8233POPC   PO449584  33.009  28.373   5.850
 8233POPC   GL149585  33.059  28.319   6.150
 8233POPC   GL249586  33.029  28.520   6.150
 8233POPC   C1A49587  33.060  28.332   6.450
 8233POPC   D2A49588  33.031  28.406   6.750
 8233POPC   C3A49589  33.064  28.360   7.050
 8233POPC   C4A49590  33.035  28.372   7.350
 8233POPC   C1B49591  33.101  28.583   6.450
 8233POPC   C2B49592  33.103  28.615   6.750
 8233POPC   C3B49593  33.079  28.586   7.050
 8233POPC   C4B49594  33.096  28.571   7.350
 8234POPC   NC349595   9.010   2.038   5.550
 8234POPC   PO449596   8.943   1.949   5.850
 8234POPC   GL149597   9.000   1.945   6.150
 8234POPC   GL249598   8.938   1.912   6.150
 8234POPC   C1A49599   8.995   1.981   6.450
 8234POPC   D2A49600   8.966   2.033   6.750
 8234POPC   C3A49601   8.980   2.037   7.050
 8234POPC   C4A49602   8.980   1.962   7.350
 8234POPC   C1B49603   8.968   1.724   6.450
 8234POPC   C2B49604   8.945   1.705   6.750
 8234POPC   C3B49605   8.968   1.697   7.050
 8234POPC   C4B49606   8.970   1.723   7.350
 8235POPC   NC349607  31.427  29.877   5.550
 8235POPC   PO449608  31.481  29.878   5.850
 8235POPC   GL149609  31.495  29.895   6.150
 8235POPC   GL249610  31.327  29.873   6.150
 8235POPC   C1A49611  31.468  29.948   6.450
 8235POPC   D2A49612  31.476  29.875   6.750
 8235POPC   C3A49613  31.424  29.874   7.050
 8235POPC   C4A49614  31.445  29.940   7.350
 8235POPC   C1B49615  31.222  29.938   6.450
 8235POPC   C2B49616  31.198  29.929   6.750
 8235POPC   C3B49617  31.186  29.920   7.050
 8235POPC   C4B49618  31.198  29.907   7.350
 8236POPC   NC349619   4.341  22.117   5.550
 8236POPC   PO449620   4.298  22.134   5.850
 8236POPC   GL149621   4.350  22.204   6.150
 8236POPC   GL249622   4.452  22.052   6.150
 8236POPC   C1A49623   4.357  22.155   6.450
 8236POPC   D2A49624   4.356  22.158   6.750
 8236POPC   C3A49625   4.295  22.155   7.050
 8236POPC   C4A49626   4.348  22.148   7.350
 8236POPC   C1B49627   4.481  22.036   6.450
 8236POPC   C2B49628   4.488  22.009   6.750
 8236POPC   C3B49629   4.518  22.012   7.050
 8236POPC   C4B49630   4.529  22.050   7.350
 8237POPC   NC349631  39.224  21.421   5.550
 8237POPC   PO449632  39.186  21.355   5.850
 8237POPC   GL149633  39.203  21.423   6.150
 8237POPC   GL249634  39.270  21.459   6.150
 8237POPC   C1A49635  39.236  21.344   6.450
 8237POPC   D2A49636  39.280  21.360   6.750
 8237POPC   C3A49637  39.228  21.401   7.050
 8237POPC   C4A49638  39.227  21.361   7.350
 8237POPC   C1B49639  39.353  21.653   6.450
 8237POPC   C2B49640  39.293  21.612   6.750
 8237POPC   C3B49641  39.291  21.652   7.050
 8237POPC   C4B49642  39.348  21.604   7.350
 8238POPC   NC349643  12.116   2.020   5.550
 8238POPC   PO449644  12.069   1.957   5.850
 8238POPC   GL149645  12.085   1.940   6.150
 8238POPC   GL249646  12.104   2.150   6.150
 8238POPC   C1A49647  12.058   1.947   6.450
 8238POPC   D2A49648  12.050   2.000   6.750
 8238POPC   C3A49649  12.097   1.978   7.050
 8238POPC   C4A49650  12.123   2.000   7.350
 8238POPC   C1B49651  12.061   2.212   6.450
 8238POPC   C2B49652  12.069   2.259   6.750
 8238POPC   C3B49653  12.030   2.208   7.050
 8238POPC   C4B49654  12.068   2.236   7.350
 8239POPC   NC349655  21.414  43.913   5.550
 8239POPC   PO449656  21.425  43.866   5.850
 8239POPC   GL149657  21.370  43.883   6.150
 8239POPC   GL249658  21.439  43.983   6.150
 8239POPC   C1A49659  21.347  43.921   6.450
 8239POPC   D2A49660  21.421  43.929   6.750
 8239POPC   C3A49661  21.397  43.856   7.050
 8239POPC   C4A49662  21.400  43.899   7.350
 8239POPC   C1B49663  21.509  44.174   6.450
 8239POPC   C2B49664  21.417  44.125   6.750
 8239POPC   C3B49665  21.504  44.119   7.050
 8239POPC   C4B49666  21.455  44.087   7.350
 8240POPC   NC349667   2.733  33.840   5.550
 8240POPC   PO449668   2.725  33.799   5.850
 8240POPC   GL149669   2.717  33.794   6.150
 8240POPC   GL249670   2.881  33.684   6.150
 8240POPC   C1A49671   2.734  33.816   6.450
 8240POPC   D2A49672   2.746  33.808   6.750
 8240POPC   C3A49673   2.775  33.782   7.050
 8240POPC   C4A49674   2.773  33.783   7.350
 8240POPC   C1B49675   2.977  33.645   6.450
 8240POPC   C2B49676   2.905  33.580   6.750
 8240POPC   C3B49677   2.952  33.657   7.050
 8240POPC   C4B49678   2.887  33.630   7.350
 8241POPC   NC349679  39.978  21.425   5.550
 8241POPC   PO449680  40.002  21.399   5.850
 8241POPC   GL149681  39.998  21.356   6.150
 8241POPC   GL249682  40.157  21.338   6.150
 8241POPC   C1A49683  40.055  21.396   6.450
 8241POPC   D2A49684  40.025  21.360   6.750
 8241POPC   C3A49685  40.032  21.408   7.050
 8241POPC   C4A49686  40.012  21.411   7.350
 8241POPC   C1B49687  40.298  21.371   6.450
 8241POPC   C2B49688  40.293  21.335   6.750
 8241POPC   C3B49689  40.300  21.302   7.050
 8241POPC   C4B49690  40.294  21.316   7.350
 8242POPC   NC349691  38.418  41.527   5.550
 8242POPC   PO449692  38.475  41.598   5.850
 8242POPC   GL149693  38.443  41.509   6.150
 8242POPC   GL249694  38.343  41.520   6.150
 8242POPC   C1A49695  38.423  41.606   6.450
 8242POPC   D2A49696  38.472  41.552   6.750
 8242POPC   C3A49697  38.486  41.558   7.050
 8242POPC   C4A49698  38.455  41.541   7.350
 8242POPC   C1B49699  38.212  41.511   6.450
 8242POPC   C2B49700  38.210  41.577   6.750
 8242POPC   C3B49701  38.210  41.528   7.050
 8242POPC   C4B49702  38.173  41.570   7.350
 8243POPC   NC349703  19.064  12.068   5.550
 8243POPC   PO449704  19.024  12.077   5.850
 8243POPC   GL149705  19.103  12.070   6.150
 8243POPC   GL249706  19.183  12.016   6.150
 8243POPC   C1A49707  19.032  12.078   6.450
 8243POPC   D2A49708  19.033  12.069   6.750
 8243POPC   C3A49709  19.049  12.116   7.050
 8243POPC   C4A49710  19.074  12.027   7.350
 8243POPC   C1B49711  19.269  11.984   6.450
 8243POPC   C2B49712  19.336  11.991   6.750
 8243POPC   C3B49713  19.300  12.013   7.050
 8243POPC   C4B49714  19.277  12.013   7.350
 8244POPC   NC349715   8.928  44.635   5.550
 8244POPC   PO449716   8.945  44.652   5.850
 8244POPC   GL149717   8.985  44.646   6.150
 8244POPC   GL249718   8.948  44.762   6.150
 8244POPC   C1A49719   8.999  44.694   6.450
 8244POPC   D2A49720   8.970  44.613   6.750
 8244POPC   C3A49721   8.998  44.616   7.050
 8244POPC   C4A49722   8.972  44.674   7.350
 8244POPC   C1B49723   8.852  44.882   6.450
 8244POPC   C2B49724   8.846  44.874   6.750
 8244POPC   C3B49725   8.866  44.933   7.050
 8244POPC   C4B49726   8.915  44.922   7.350
 8245POPC   NC349727  31.492  11.345   5.550
 8245POPC   PO449728  31.499  11.258   5.850
 8245POPC   GL149729  31.478  11.341   6.150
 8245POPC   GL249730  31.519  11.234   6.150
 8245POPC   C1A49731  31.442  11.307   6.450
 8245POPC   D2A49732  31.491  11.254   6.750
 8245POPC   C3A49733  31.471  11.274   7.050
 8245POPC   C4A49734  31.508  11.300   7.350
 8245POPC   C1B49735  31.546  11.057   6.450
 8245POPC   C2B49736  31.613  11.119   6.750
 8245POPC   C3B49737  31.583  11.037   7.050
 8245POPC   C4B49738  31.617  11.123   7.350
 8246POPC   NC349739  13.673   0.423   5.550
 8246POPC   PO449740  13.617   0.477   5.850
 8246POPC   GL149741  13.604   0.391   6.150
 8246POPC   GL249742  13.753   0.508   6.150
 8246POPC   C1A49743  13.655   0.421   6.450
 8246POPC   D2A49744  13.608   0.391   6.750
 8246POPC   C3A49745  13.599   0.443   7.050
 8246POPC   C4A49746  13.609   0.451   7.350
 8246POPC   C1B49747  13.849   0.560   6.450
 8246POPC   C2B49748  13.854   0.553   6.750
 8246POPC   C3B49749  13.867   0.553   7.050
 8246POPC   C4B49750  13.809   0.589   7.350
 8247POPC   NC349751  27.621  17.504   5.550
 8247POPC   PO449752  27.623  17.530   5.850
 8247POPC   GL149753  27.642  17.552   6.150
 8247POPC   GL249754  27.663  17.534   6.150
 8247POPC   C1A49755  27.560  17.478   6.450
 8247POPC   D2A49756  27.560  17.541   6.750
 8247POPC   C3A49757  27.628  17.514   7.050
 8247POPC   C4A49758  27.562  17.504   7.350
 8247POPC   C1B49759  27.788  17.703   6.450
 8247POPC   C2B49760  27.801  17.607   6.750
 8247POPC   C3B49761  27.774  17.683   7.050
 8247POPC   C4B49762  27.808  17.678   7.350
 8248POPC   NC349763   4.367   5.084   5.550
 8248POPC   PO449764   4.307   5.119   5.850
 8248POPC   GL149765   4.295   5.088   6.150
 8248POPC   GL249766   4.354   5.190   6.150
 8248POPC   C1A49767   4.281   5.103   6.450
 8248POPC   D2A49768   4.317   5.122   6.750
 8248POPC   C3A49769   4.350   5.081   7.050
 8248POPC   C4A49770   4.362   5.139   7.350
 8248POPC   C1B49771   4.456   5.289   6.450
 8248POPC   C2B49772   4.471   5.343   6.750
 8248POPC   C3B49773   4.454   5.343   7.050
 8248POPC   C4B49774   4.515   5.335   7.350
 8249POPC   NC349775   3.590  12.821   5.550
 8249POPC   PO449776   3.582  12.879   5.850
 8249POPC   GL149777   3.499  12.899   6.150
 8249POPC   GL249778   3.422  12.876   6.150
 8249POPC   C1A49779   3.563  12.886   6.450
 8249POPC   D2A49780   3.560  12.850   6.750
 8249POPC   C3A49781   3.552  12.894   7.050
 8249POPC   C4A49782   3.586  12.837   7.350
 8249POPC   C1B49783   3.339  12.984   6.450
 8249POPC   C2B49784   3.288  12.953   6.750
 8249POPC   C3B49785   3.284  12.994   7.050
 8249POPC   C4B49786   3.277  12.999   7.350
 8250POPC   NC349787  19.863   2.734   5.550
 8250POPC   PO449788  19.877   2.764   5.850
 8250POPC   GL149789  19.827   2.716   6.150
 8250POPC   GL249790  19.701   2.867   6.150
 8250POPC   C1A49791  19.874   2.772   6.450
 8250POPC   D2A49792  19.806   2.754   6.750
 8250POPC   C3A49793  19.840   2.730   7.050
 8250POPC   C4A49794  19.836   2.757   7.350
 8250POPC   C1B49795  19.636   2.859   6.450
 8250POPC   C2B49796  19.627   2.922   6.750
 8250POPC   C3B49797  19.587   2.875   7.050
 8250POPC   C4B49798  19.646   2.924   7.350
 8251POPC   NC349799  19.085  43.875   5.550
 8251POPC   PO449800  19.026  43.844   5.850
 8251POPC   GL149801  19.065  43.859   6.150
 8251POPC   GL249802  18.933  43.994   6.150
 8251POPC   C1A49803  19.018  43.872   6.450
 8251POPC   D2A49804  19.101  43.918   6.750
 8251POPC   C3A49805  19.071  43.889   7.050
 8251POPC   C4A49806  19.042  43.883   7.350
 8251POPC   C1B49807  18.856  44.022   6.450
 8251POPC   C2B49808  18.791  44.030   6.750
 8251POPC   C3B49809  18.803  43.994   7.050
 8251POPC   C4B49810  18.861  43.997   7.350
 8252POPC   NC349811  26.808  15.953   5.550
 8252POPC   PO449812  26.769  15.927   5.850
 8252POPC   GL149813  26.859  15.922   6.150
 8252POPC   GL249814  26.718  15.952   6.150
 8252POPC   C1A49815  26.832  15.959   6.450
 8252POPC   D2A49816  26.823  15.990   6.750
 8252POPC   C3A49817  26.784  16.004   7.050
 8252POPC   C4A49818  26.833  15.953   7.350
 8252POPC   C1B49819  26.576  15.973   6.450
 8252POPC   C2B49820  26.525  15.964   6.750
 8252POPC   C3B49821  26.567  15.954   7.050
 8252POPC   C4B49822  26.604  16.002   7.350
 8253POPC   NC349823  11.300  31.462   5.550
 8253POPC   PO449824  11.255  31.435   5.850
 8253POPC   GL149825  11.258  31.522   6.150
 8253POPC   GL249826  11.276  31.556   6.150
 8253POPC   C1A49827  11.311  31.473   6.450
 8253POPC   D2A49828  11.289  31.488   6.750
 8253POPC   C3A49829  11.317  31.480   7.050
 8253POPC   C4A49830  11.350  31.482   7.350
 8253POPC   C1B49831  11.356  31.732   6.450
 8253POPC   C2B49832  11.358  31.741   6.750
 8253POPC   C3B49833  11.311  31.713   7.050
 8253POPC   C4B49834  11.320  31.761   7.350
 8254POPC   NC349835  15.197  31.480   5.550
 8254POPC   PO449836  15.146  31.456   5.850
 8254POPC   GL149837  15.187  31.506   6.150
 8254POPC   GL249838  15.132  31.628   6.150
 8254POPC   C1A49839  15.130  31.468   6.450
 8254POPC   D2A49840  15.200  31.434   6.750
 8254POPC   C3A49841  15.191  31.461   7.050
 8254POPC   C4A49842  15.185  31.472   7.350
 8254POPC   C1B49843  15.158  31.703   6.450
 8254POPC   C2B49844  15.104  31.698   6.750
 8254POPC   C3B49845  15.175  31.672   7.050
 8254POPC   C4B49846  15.120  31.768   7.350
 8255POPC   NC349847  26.835  17.534   5.550
 8255POPC   PO449848  26.790  17.470   5.850
 8255POPC   GL149849  26.797  17.483   6.150
 8255POPC   GL249850  26.935  17.514   6.150
 8255POPC   C1A49851  26.771  17.498   6.450
 8255POPC   D2A49852  26.773  17.465   6.750
 8255POPC   C3A49853  26.845  17.476   7.050
 8255POPC   C4A49854  26.823  17.523   7.350
 8255POPC   C1B49855  27.074  17.444   6.450
 8255POPC   C2B49856  27.100  17.431   6.750
 8255POPC   C3B49857  27.035  17.415   7.050
 8255POPC   C4B49858  27.065  17.420   7.350
 8256POPC   NC349859  36.883  16.761   5.550
 8256POPC   PO449860  36.923  16.709   5.850
 8256POPC   GL149861  36.929  16.731   6.150
 8256POPC   GL249862  36.822  16.627   6.150
 8256POPC   C1A49863  36.872  16.749   6.450
 8256POPC   D2A49864  36.913  16.688   6.750
 8256POPC   C3A49865  36.880  16.687   7.050
 8256POPC   C4A49866  36.907  16.734   7.350
 8256POPC   C1B49867  36.700  16.545   6.450
 8256POPC   C2B49868  36.705  16.534   6.750
 8256POPC   C3B49869  36.718  16.520   7.050
 8256POPC   C4B49870  36.726  16.567   7.350
 8257POPC   NC349871   4.340  37.632   5.550
 8257POPC   PO449872   4.361  37.688   5.850
 8257POPC   GL149873   4.346  37.633   6.150
 8257POPC   GL249874   4.226  37.810   6.150
 8257POPC   C1A49875   4.304  37.695   6.450
 8257POPC   D2A49876   4.315  37.680   6.750
 8257POPC   C3A49877   4.288  37.676   7.050
 8257POPC   C4A49878   4.296  37.728   7.350
 8257POPC   C1B49879   4.097  37.883   6.450
 8257POPC   C2B49880   4.155  37.871   6.750
 8257POPC   C3B49881   4.131  37.825   7.050
 8257POPC   C4B49882   4.153  37.886   7.350
 8258POPC   NC349883   8.219  29.192   5.550
 8258POPC   PO449884   8.193  29.106   5.850
 8258POPC   GL149885   8.228  29.181   6.150
 8258POPC   GL249886   8.137  29.157   6.150
 8258POPC   C1A49887   8.200  29.113   6.450
 8258POPC   D2A49888   8.236  29.180   6.750
 8258POPC   C3A49889   8.206  29.105   7.050
 8258POPC   C4A49890   8.234  29.165   7.350
 8258POPC   C1B49891   7.984  29.244   6.450
 8258POPC   C2B49892   7.937  29.266   6.750
 8258POPC   C3B49893   7.941  29.220   7.050
 8258POPC   C4B49894   8.025  29.276   7.350
 8259POPC   NC349895   4.296   0.441   5.550
 8259POPC   PO449896   4.320   0.467   5.850
 8259POPC   GL149897   4.308   0.487   6.150
 8259POPC   GL249898   4.326   0.598   6.150
 8259POPC   C1A49899   4.352   0.447   6.450
 8259POPC   D2A49900   4.310   0.434   6.750
 8259POPC   C3A49901   4.285   0.412   7.050
 8259POPC   C4A49902   4.341   0.425   7.350
 8259POPC   C1B49903   4.407   0.711   6.450
 8259POPC   C2B49904   4.385   0.670   6.750
 8259POPC   C3B49905   4.360   0.652   7.050
 8259POPC   C4B49906   4.398   0.699   7.350
 8260POPC   NC349907  39.276  41.547   5.550
 8260POPC   PO449908  39.253  41.558   5.850
 8260POPC   GL149909  39.228  41.544   6.150
 8260POPC   GL249910  39.280  41.437   6.150
 8260POPC   C1A49911  39.205  41.581   6.450
 8260POPC   D2A49912  39.203  41.520   6.750
 8260POPC   C3A49913  39.191  41.529   7.050
 8260POPC   C4A49914  39.235  41.535   7.350
 8260POPC   C1B49915  39.342  41.306   6.450
 8260POPC   C2B49916  39.352  41.284   6.750
 8260POPC   C3B49917  39.303  41.349   7.050
 8260POPC   C4B49918  39.327  41.323   7.350
 8261POPC   NC349919  36.083  44.670   5.550
 8261POPC   PO449920  36.104  44.616   5.850
 8261POPC   GL149921  36.141  44.674   6.150
 8261POPC   GL249922  35.956  44.722   6.150
 8261POPC   C1A49923  36.092  44.656   6.450
 8261POPC   D2A49924  36.109  44.649   6.750
 8261POPC   C3A49925  36.087  44.649   7.050
 8261POPC   C4A49926  36.084  44.662   7.350
 8261POPC   C1B49927  35.892  44.690   6.450
 8261POPC   C2B49928  35.847  44.675   6.750
 8261POPC   C3B49929  35.884  44.680   7.050
 8261POPC   C4B49930  35.879  44.748   7.350
 8262POPC   NC349931  30.682  16.713   5.550
 8262POPC   PO449932  30.696  16.730   5.850
 8262POPC   GL149933  30.735  16.760   6.150
 8262POPC   GL249934  30.723  16.814   6.150
 8262POPC   C1A49935  30.726  16.712   6.450
 8262POPC   D2A49936  30.679  16.689   6.750
 8262POPC   C3A49937  30.683  16.700   7.050
 8262POPC   C4A49938  30.727  16.754   7.350
 8262POPC   C1B49939  30.857  16.946   6.450
 8262POPC   C2B49940  30.830  16.963   6.750
 8262POPC   C3B49941  30.883  16.973   7.050
 8262POPC   C4B49942  30.832  16.948   7.350
 8263POPC   NC349943   0.426  17.528   5.550
 8263POPC   PO449944   0.418  17.545   5.850
 8263POPC   GL149945   0.453  17.526   6.150
 8263POPC   GL249946   0.346  17.545   6.150
 8263POPC   C1A49947   0.408  17.530   6.450
 8263POPC   D2A49948   0.416  17.489   6.750
 8263POPC   C3A49949   0.448  17.459   7.050
 8263POPC   C4A49950   0.393  17.536   7.350
 8263POPC   C1B49951   0.220  17.540   6.450
 8263POPC   C2B49952   0.154  17.504   6.750
 8263POPC   C3B49953   0.157  17.599   7.050
 8263POPC   C4B49954   0.242  17.529   7.350
 8264POPC   NC349955  40.809  19.056   5.550
 8264POPC   PO449956  40.759  19.102   5.850
 8264POPC   GL149957  40.742  19.101   6.150
 8264POPC   GL249958  40.838  18.915   6.150
 8264POPC   C1A49959  40.770  19.021   6.450
 8264POPC   D2A49960  40.760  19.099   6.750
 8264POPC   C3A49961  40.733  19.099   7.050
 8264POPC   C4A49962  40.749  19.042   7.350
 8264POPC   C1B49963  40.953  18.844   6.450
 8264POPC   C2B49964  40.932  18.874   6.750
 8264POPC   C3B49965  40.906  18.827   7.050
 8264POPC   C4B49966  40.935  18.887   7.350
 8265POPC   NC349967   9.718   1.982   5.550
 8265POPC   PO449968   9.795   1.999   5.850
 8265POPC   GL149969   9.775   1.947   6.150
 8265POPC   GL249970   9.895   2.025   6.150
 8265POPC   C1A49971   9.714   1.964   6.450
 8265POPC   D2A49972   9.773   1.985   6.750
 8265POPC   C3A49973   9.719   2.003   7.050
 8265POPC   C4A49974   9.733   1.953   7.350
 8265POPC   C1B49975   9.985   2.022   6.450
 8265POPC   C2B49976  10.040   2.015   6.750
 8265POPC   C3B49977  10.004   1.996   7.050
 8265POPC   C4B49978   9.973   2.025   7.350
 8266POPC   NC349979  41.570  29.934   5.550
 8266POPC   PO449980  41.525  29.931   5.850
 8266POPC   GL149981  41.528  29.922   6.150
 8266POPC   GL249982  41.460  30.039   6.150
 8266POPC   C1A49983  41.541  29.898   6.450
 8266POPC   D2A49984  41.591  29.876   6.750
 8266POPC   C3A49985  41.549  29.959   7.050
 8266POPC   C4A49986  41.584  29.950   7.350
 8266POPC   C1B49987  41.480  30.097   6.450
 8266POPC   C2B49988  41.456  30.157   6.750
 8266POPC   C3B49989  41.412  30.119   7.050
 8266POPC   C4B49990  41.487  30.125   7.350
 8267POPC   NC349991  19.073  20.567   5.550
 8267POPC   PO449992  19.101  20.590   5.850
 8267POPC   GL149993  19.092  20.629   6.150
 8267POPC   GL249994  19.185  20.597   6.150
 8267POPC   C1A49995  19.068  20.592   6.450
 8267POPC   D2A49996  19.026  20.564   6.750
 8267POPC   C3A49997  19.047  20.574   7.050
 8267POPC   C4A49998  19.037  20.654   7.350
 8267POPC   C1B49999  19.302  20.635   6.450
 8267POPC   C2B50000  19.330  20.668   6.750
 8267POPC   C3B50001  19.291  20.685   7.050
 8267POPC   C4B50002  19.288  20.635   7.350
 8268POPC   NC350003  17.541  23.733   5.550
 8268POPC   PO450004  17.531  23.724   5.850
 8268POPC   GL150005  17.526  23.705   6.150
 8268POPC   GL250006  17.354  23.660   6.150
 8268POPC   C1A50007  17.465  23.677   6.450
 8268POPC   D2A50008  17.539  23.705   6.750
 8268POPC   C3A50009  17.507  23.675   7.050
 8268POPC   C4A50010  17.477  23.719   7.350
 8268POPC   C1B50011  17.234  23.674   6.450
 8268POPC   C2B50012  17.247  23.678   6.750
 8268POPC   C3B50013  17.257  23.693   7.050
 8268POPC   C4B50014  17.240  23.693   7.350
 8269POPC   NC350015   0.443  34.618   5.550
 8269POPC   PO450016   0.446  34.588   5.850
 8269POPC   GL150017   0.445  34.621   6.150
 8269POPC   GL250018   0.434  34.722   6.150
 8269POPC   C1A50019   0.426  34.624   6.450
 8269POPC   D2A50020   0.400  34.549   6.750
 8269POPC   C3A50021   0.422  34.547   7.050
 8269POPC   C4A50022   0.388  34.568   7.350
 8269POPC   C1B50023   0.385  34.820   6.450
 8269POPC   C2B50024   0.396  34.842   6.750
 8269POPC   C3B50025   0.326  34.808   7.050
 8269POPC   C4B50026   0.324  34.846   7.350
 8270POPC   NC350027  20.649  25.235   5.550
 8270POPC   PO450028  20.651  25.286   5.850
 8270POPC   GL150029  20.618  25.301   6.150
 8270POPC   GL250030  20.479  25.332   6.150
 8270POPC   C1A50031  20.596  25.223   6.450
 8270POPC   D2A50032  20.580  25.274   6.750
 8270POPC   C3A50033  20.587  25.307   7.050
 8270POPC   C4A50034  20.590  25.279   7.350
 8270POPC   C1B50035  20.366  25.379   6.450
 8270POPC   C2B50036  20.416  25.371   6.750
 8270POPC   C3B50037  20.395  25.333   7.050
 8270POPC   C4B50038  20.428  25.336   7.350
 8271POPC   NC350039  20.630   8.237   5.550
 8271POPC   PO450040  20.596   8.226   5.850
 8271POPC   GL150041  20.611   8.159   6.150
 8271POPC   GL250042  20.527   8.130   6.150
 8271POPC   C1A50043  20.560   8.244   6.450
 8271POPC   D2A50044  20.593   8.191   6.750
 8271POPC   C3A50045  20.598   8.190   7.050
 8271POPC   C4A50046  20.640   8.152   7.350
 8271POPC   C1B50047  20.480   8.024   6.450
 8271POPC   C2B50048  20.396   8.048   6.750
 8271POPC   C3B50049  20.435   8.010   7.050
 8271POPC   C4B50050  20.437   8.015   7.350
 8272POPC   NC350051  37.724  26.055   5.550
 8272POPC   PO450052  37.707  26.009   5.850
 8272POPC   GL150053  37.707  26.054   6.150
 8272POPC   GL250054  37.572  25.957   6.150
 8272POPC   C1A50055  37.646  26.082   6.450
 8272POPC   D2A50056  37.693  26.002   6.750
 8272POPC   C3A50057  37.664  26.054   7.050
 8272POPC   C4A50058  37.712  26.051   7.350
 8272POPC   C1B50059  37.544  25.817   6.450
 8272POPC   C2B50060  37.559  25.831   6.750
 8272POPC   C3B50061  37.544  25.837   7.050
 8272POPC   C4B50062  37.479  25.879   7.350
 8273POPC   NC350063  17.535  43.936   5.550
 8273POPC   PO450064  17.475  43.877   5.850
 8273POPC   GL150065  17.483  43.931   6.150
 8273POPC   GL250066  17.540  43.778   6.150
 8273POPC   C1A50067  17.481  43.919   6.450
 8273POPC   D2A50068  17.546  43.928   6.750
 8273POPC   C3A50069  17.476  43.865   7.050
 8273POPC   C4A50070  17.529  43.909   7.350
 8273POPC   C1B50071  17.558  43.607   6.450
 8273POPC   C2B50072  17.574  43.668   6.750
 8273POPC   C3B50073  17.554  43.631   7.050
 8273POPC   C4B50074  17.531  43.661   7.350
 8274POPC   NC350075   8.168  29.952   5.550
 8274POPC   PO450076   8.160  29.935   5.850
 8274POPC   GL150077   8.199  29.899   6.150
 8274POPC   GL250078   8.167  29.790   6.150
 8274POPC   C1A50079   8.198  29.905   6.450
 8274POPC   D2A50080   8.225  29.913   6.750
 8274POPC   C3A50081   8.224  29.922   7.050
 8274POPC   C4A50082   8.175  29.921   7.350
 8274POPC   C1B50083   8.073  29.652   6.450
 8274POPC   C2B50084   8.064  29.710   6.750
 8274POPC   C3B50085   8.139  29.724   7.050
 8274POPC   C4B50086   8.043  29.675   7.350
 8275POPC   NC350087  43.867  40.036   5.550
 8275POPC   PO450088  43.928  39.968   5.850
 8275POPC   GL150089  43.932  39.965   6.150
 8275POPC   GL250090  43.848  40.179   6.150
 8275POPC   C1A50091  43.890  40.049   6.450
 8275POPC   D2A50092  43.906  40.003   6.750
 8275POPC   C3A50093  43.921  39.991   7.050
 8275POPC   C4A50094  43.888  39.974   7.350
 8275POPC   C1B50095  43.919  40.248   6.450
 8275POPC   C2B50096  43.867  40.288   6.750
 8275POPC   C3B50097  43.868  40.209   7.050
 8275POPC   C4B50098  43.892  40.285   7.350
 8276POPC   NC350099   1.181  25.286   5.550
 8276POPC   PO450100   1.234  25.286   5.850
 8276POPC   GL150101   1.188  25.235   6.150
 8276POPC   GL250102   1.357  25.332   6.150
 8276POPC   C1A50103   1.254  25.271   6.450
 8276POPC   D2A50104   1.197  25.294   6.750
 8276POPC   C3A50105   1.168  25.236   7.050
 8276POPC   C4A50106   1.195  25.267   7.350
 8276POPC   C1B50107   1.428  25.371   6.450
 8276POPC   C2B50108   1.449  25.403   6.750
 8276POPC   C3B50109   1.406  25.398   7.050
 8276POPC   C4B50110   1.475  25.344   7.350
 8277POPC   NC350111  44.626   9.741   5.550
 8277POPC   PO450112  44.652   9.753   5.850
 8277POPC   GL150113  44.664   9.774   6.150
 8277POPC   GL250114  44.797   9.875   6.150
 8277POPC   C1A50115  44.621   9.709   6.450
 8277POPC   D2A50116  44.652   9.758   6.750
 8277POPC   C3A50117  44.615   9.721   7.050
 8277POPC   C4A50118  44.625   9.761   7.350
 8277POPC   C1B50119  44.882   9.937   6.450
 8277POPC   C2B50120  44.882   9.923   6.750
 8277POPC   C3B50121  44.870   9.941   7.050
 8277POPC   C4B50122  44.852   9.901   7.350
 8278POPC   NC350123  33.017  12.895   5.550
 8278POPC   PO450124  33.059  12.876   5.850
 8278POPC   GL150125  33.018  12.826   6.150
 8278POPC   GL250126  32.936  12.881   6.150
 8278POPC   C1A50127  32.976  12.828   6.450
 8278POPC   D2A50128  33.063  12.818   6.750
 8278POPC   C3A50129  33.073  12.833   7.050
 8278POPC   C4A50130  33.040  12.895   7.350
 8278POPC   C1B50131  32.848  13.017   6.450
 8278POPC   C2B50132  32.808  12.941   6.750
 8278POPC   C3B50133  32.825  12.939   7.050
 8278POPC   C4B50134  32.780  12.937   7.350
 8279POPC   NC350135   1.990  35.354   5.550
 8279POPC   PO450136   1.959  35.400   5.850
 8279POPC   GL150137   1.986  35.312   6.150
 8279POPC   GL250138   2.101  35.393   6.150
 8279POPC   C1A50139   2.000  35.360   6.450
 8279POPC   D2A50140   2.026  35.327   6.750
 8279POPC   C3A50141   1.978  35.330   7.050
 8279POPC   C4A50142   2.039  35.353   7.350
 8279POPC   C1B50143   2.160  35.482   6.450
 8279POPC   C2B50144   2.230  35.454   6.750
 8279POPC   C3B50145   2.204  35.535   7.050
 8279POPC   C4B50146   2.212  35.462   7.350
 8280POPC   NC350147  33.836  12.046   5.550
 8280POPC   PO450148  33.778  12.031   5.850
 8280POPC   GL150149  33.774  12.096   6.150
 8280POPC   GL250150  33.654  12.085   6.150
 8280POPC   C1A50151  33.794  12.060   6.450
 8280POPC   D2A50152  33.819  12.083   6.750
 8280POPC   C3A50153  33.835  12.068   7.050
 8280POPC   C4A50154  33.774  12.027   7.350
 8280POPC   C1B50155  33.512  12.054   6.450
 8280POPC   C2B50156  33.593  12.041   6.750
 8280POPC   C3B50157  33.511  12.116   7.050
 8280POPC   C4B50158  33.538  12.091   7.350
 8281POPC   NC350159  36.146  24.503   5.550
 8281POPC   PO450160  36.172  24.500   5.850
 8281POPC   GL150161  36.152  24.513   6.150
 8281POPC   GL250162  36.090  24.320   6.150
 8281POPC   C1A50163  36.110  24.527   6.450
 8281POPC   D2A50164  36.114  24.507   6.750
 8281POPC   C3A50165  36.082  24.454   7.050
 8281POPC   C4A50166  36.129  24.511   7.350
 8281POPC   C1B50167  36.163  24.263   6.450
 8281POPC   C2B50168  36.166  24.217   6.750
 8281POPC   C3B50169  36.106  24.243   7.050
 8281POPC   C4B50170  36.086  24.203   7.350
 8282POPC   NC350171  18.260  20.605   5.550
 8282POPC   PO450172  18.237  20.608   5.850
 8282POPC   GL150173  18.287  20.618   6.150
 8282POPC   GL250174  18.272  20.517   6.150
 8282POPC   C1A50175  18.247  20.591   6.450
 8282POPC   D2A50176  18.305  20.567   6.750
 8282POPC   C3A50177  18.235  20.639   7.050
 8282POPC   C4A50178  18.305  20.648   7.350
 8282POPC   C1B50179  18.230  20.324   6.450
 8282POPC   C2B50180  18.213  20.351   6.750
 8282POPC   C3B50181  18.301  20.342   7.050
 8282POPC   C4B50182  18.295  20.359   7.350
 8283POPC   NC350183  34.608  15.172   5.550
 8283POPC   PO450184  34.583  15.130   5.850
 8283POPC   GL150185  34.556  15.177   6.150
 8283POPC   GL250186  34.480  15.161   6.150
 8283POPC   C1A50187  34.570  15.220   6.450
 8283POPC   D2A50188  34.595  15.154   6.750
 8283POPC   C3A50189  34.619  15.164   7.050
 8283POPC   C4A50190  34.593  15.148   7.350
 8283POPC   C1B50191  34.357  15.106   6.450
 8283POPC   C2B50192  34.373  15.077   6.750
 8283POPC   C3B50193  34.387  15.115   7.050
 8283POPC   C4B50194  34.303  15.131   7.350
 8284POPC   NC350195   1.177   4.325   5.550
 8284POPC   PO450196   1.239   4.356   5.850
 8284POPC   GL150197   1.168   4.351   6.150
 8284POPC   GL250198   1.309   4.362   6.150
 8284POPC   C1A50199   1.166   4.326   6.450
 8284POPC   D2A50200   1.226   4.290   6.750
 8284POPC   C3A50201   1.211   4.310   7.050
 8284POPC   C4A50202   1.254   4.367   7.350
 8284POPC   C1B50203   1.409   4.466   6.450
 8284POPC   C2B50204   1.353   4.455   6.750
 8284POPC   C3B50205   1.355   4.531   7.050
 8284POPC   C4B50206   1.379   4.470   7.350
 8285POPC   NC350207  18.321  15.961   5.550
 8285POPC   PO450208  18.243  15.950   5.850
 8285POPC   GL150209  18.321  15.909   6.150
 8285POPC   GL250210  18.383  16.086   6.150
 8285POPC   C1A50211  18.247  15.950   6.450
 8285POPC   D2A50212  18.324  15.913   6.750
 8285POPC   C3A50213  18.306  15.981   7.050
 8285POPC   C4A50214  18.329  15.999   7.350
 8285POPC   C1B50215  18.392  16.210   6.450
 8285POPC   C2B50216  18.403  16.130   6.750
 8285POPC   C3B50217  18.388  16.184   7.050
 8285POPC   C4B50218  18.373  16.117   7.350
 8286POPC   NC350219  12.831  40.739   5.550
 8286POPC   PO450220  12.809  40.816   5.850
 8286POPC   GL150221  12.872  40.738   6.150
 8286POPC   GL250222  12.807  40.893   6.150
 8286POPC   C1A50223  12.808  40.736   6.450
 8286POPC   D2A50224  12.838  40.821   6.750
 8286POPC   C3A50225  12.845  40.790   7.050
 8286POPC   C4A50226  12.840  40.749   7.350
 8286POPC   C1B50227  12.869  41.023   6.450
 8286POPC   C2B50228  12.856  41.076   6.750
 8286POPC   C3B50229  12.866  40.997   7.050
 8286POPC   C4B50230  12.877  40.986   7.350
 8287POPC   NC350231  37.638  12.054   5.550
 8287POPC   PO450232  37.657  12.120   5.850
 8287POPC   GL150233  37.717  12.071   6.150
 8287POPC   GL250234  37.644  11.997   6.150
 8287POPC   C1A50235  37.675  12.097   6.450
 8287POPC   D2A50236  37.671  12.066   6.750
 8287POPC   C3A50237  37.693  12.096   7.050
 8287POPC   C4A50238  37.671  12.031   7.350
 8287POPC   C1B50239  37.667  11.812   6.450
 8287POPC   C2B50240  37.728  11.792   6.750
 8287POPC   C3B50241  37.714  11.846   7.050
 8287POPC   C4B50242  37.713  11.833   7.350
 8288POPC   NC350243  26.046   0.430   5.550
 8288POPC   PO450244  26.010   0.479   5.850
 8288POPC   GL150245  26.085   0.428   6.150
 8288POPC   GL250246  26.149   0.442   6.150
 8288POPC   C1A50247  26.042   0.463   6.450
 8288POPC   D2A50248  26.011   0.479   6.750
 8288POPC   C3A50249  26.014   0.429   7.050
 8288POPC   C4A50250  26.046   0.425   7.350
 8288POPC   C1B50251  26.294   0.512   6.450
 8288POPC   C2B50252  26.255   0.520   6.750
 8288POPC   C3B50253  26.233   0.474   7.050
 8288POPC   C4B50254  26.249   0.492   7.350
 8289POPC   NC350255  17.475  40.797   5.550
 8289POPC   PO450256  17.552  40.735   5.850
 8289POPC   GL150257  17.495  40.765   6.150
 8289POPC   GL250258  17.363  40.720   6.150
 8289POPC   C1A50259  17.515  40.735   6.450
 8289POPC   D2A50260  17.516  40.809   6.750
 8289POPC   C3A50261  17.549  40.811   7.050
 8289POPC   C4A50262  17.548  40.756   7.350
 8289POPC   C1B50263  17.253  40.756   6.450
 8289POPC   C2B50264  17.304  40.750   6.750
 8289POPC   C3B50265  17.267  40.767   7.050
 8289POPC   C4B50266  17.266  40.761   7.350
 8290POPC   NC350267  13.643   3.551   5.550
 8290POPC   PO450268  13.651   3.578   5.850
 8290POPC   GL150269  13.621   3.516   6.150
 8290POPC   GL250270  13.697   3.597   6.150
 8290POPC   C1A50271  13.612   3.544   6.450
 8290POPC   D2A50272  13.676   3.566   6.750
 8290POPC   C3A50273  13.633   3.496   7.050
 8290POPC   C4A50274  13.675   3.570   7.350
 8290POPC   C1B50275  13.743   3.686   6.450
 8290POPC   C2B50276  13.773   3.684   6.750
 8290POPC   C3B50277  13.746   3.717   7.050
 8290POPC   C4B50278  13.781   3.688   7.350
 8291POPC   NC350279  31.449  22.982   5.550
 8291POPC   PO450280  31.506  22.937   5.850
 8291POPC   GL150281  31.447  22.951   6.150
 8291POPC   GL250282  31.409  22.873   6.150
 8291POPC   C1A50283  31.478  22.905   6.450
 8291POPC   D2A50284  31.424  22.897   6.750
 8291POPC   C3A50285  31.469  22.902   7.050
 8291POPC   C4A50286  31.496  22.931   7.350
 8291POPC   C1B50287  31.361  22.707   6.450
 8291POPC   C2B50288  31.323  22.759   6.750
 8291POPC   C3B50289  31.372  22.668   7.050
 8291POPC   C4B50290  31.401  22.750   7.350
 8292POPC   NC350291  17.478  12.817   5.550
 8292POPC   PO450292  17.554  12.901   5.850
 8292POPC   GL150293  17.550  12.828   6.150
 8292POPC   GL250294  17.343  12.792   6.150
 8292POPC   C1A50295  17.490  12.826   6.450
 8292POPC   D2A50296  17.491  12.864   6.750
 8292POPC   C3A50297  17.495  12.837   7.050
 8292POPC   C4A50298  17.476  12.817   7.350
 8292POPC   C1B50299  17.211  12.777   6.450
 8292POPC   C2B50300  17.291  12.798   6.750
 8292POPC   C3B50301  17.308  12.837   7.050
 8292POPC   C4B50302  17.262  12.794   7.350
 8293POPC   NC350303  21.383   3.556   5.550
 8293POPC   PO450304  21.422   3.585   5.850
 8293POPC   GL150305  21.413   3.556   6.150
 8293POPC   GL250306  21.537   3.609   6.150
 8293POPC   C1A50307  21.339   3.572   6.450
 8293POPC   D2A50308  21.354   3.518   6.750
 8293POPC   C3A50309  21.359   3.514   7.050
 8293POPC   C4A50310  21.389   3.517   7.350
 8293POPC   C1B50311  21.598   3.578   6.450
 8293POPC   C2B50312  21.595   3.635   6.750
 8293POPC   C3B50313  21.592   3.603   7.050
 8293POPC   C4B50314  21.644   3.566   7.350
 8294POPC   NC350315  18.329  22.117   5.550
 8294POPC   PO450316  18.303  22.143   5.850
 8294POPC   GL150317  18.280  22.120   6.150
 8294POPC   GL250318  18.279  22.010   6.150
 8294POPC   C1A50319  18.282  22.191   6.450
 8294POPC   D2A50320  18.322  22.179   6.750
 8294POPC   C3A50321  18.326  22.186   7.050
 8294POPC   C4A50322  18.252  22.125   7.350
 8294POPC   C1B50323  18.180  21.938   6.450
 8294POPC   C2B50324  18.189  21.944   6.750
 8294POPC   C3B50325  18.214  21.913   7.050
 8294POPC   C4B50326  18.158  21.923   7.350
 8295POPC   NC350327  41.586  27.617   5.550
 8295POPC   PO450328  41.551  27.624   5.850
 8295POPC   GL150329  41.538  27.609   6.150
 8295POPC   GL250330  41.444  27.690   6.150
 8295POPC   C1A50331  41.598  27.555   6.450
 8295POPC   D2A50332  41.588  27.565   6.750
 8295POPC   C3A50333  41.545  27.637   7.050
 8295POPC   C4A50334  41.537  27.594   7.350
 8295POPC   C1B50335  41.316  27.733   6.450
 8295POPC   C2B50336  41.348  27.693   6.750
 8295POPC   C3B50337  41.336  27.773   7.050
 8295POPC   C4B50338  41.334  27.680   7.350
 8296POPC   NC350339   8.961  42.342   5.550
 8296POPC   PO450340   8.928  42.323   5.850
 8296POPC   GL150341   8.971  42.327   6.150
 8296POPC   GL250342   8.841  42.361   6.150
 8296POPC   C1A50343   8.987  42.321   6.450
 8296POPC   D2A50344   8.963  42.354   6.750
 8296POPC   C3A50345   9.010  42.357   7.050
 8296POPC   C4A50346   9.006  42.321   7.350
 8296POPC   C1B50347   8.750  42.407   6.450
 8296POPC   C2B50348   8.706  42.425   6.750
 8296POPC   C3B50349   8.745  42.446   7.050
 8296POPC   C4B50350   8.710  42.439   7.350
 8297POPC   NC350351  40.759  22.980   5.550
 8297POPC   PO450352  40.808  22.919   5.850
 8297POPC   GL150353  40.830  22.984   6.150
 8297POPC   GL250354  40.799  22.846   6.150
 8297POPC   C1A50355  40.809  22.901   6.450
 8297POPC   D2A50356  40.792  22.952   6.750
 8297POPC   C3A50357  40.807  22.986   7.050
 8297POPC   C4A50358  40.750  22.980   7.350
 8297POPC   C1B50359  40.799  22.646   6.450
 8297POPC   C2B50360  40.789  22.727   6.750
 8297POPC   C3B50361  40.762  22.710   7.050
 8297POPC   C4B50362  40.778  22.639   7.350
 8298POPC   NC350363  19.870  13.608   5.550
 8298POPC   PO450364  19.810  13.667   5.850
 8298POPC   GL150365  19.809  13.582   6.150
 8298POPC   GL250366  19.685  13.604   6.150
 8298POPC   C1A50367  19.878  13.602   6.450
 8298POPC   D2A50368  19.795  13.648   6.750
 8298POPC   C3A50369  19.851  13.589   7.050
 8298POPC   C4A50370  19.877  13.594   7.350
 8298POPC   C1B50371  19.542  13.570   6.450
 8298POPC   C2B50372  19.580  13.565   6.750
 8298POPC   C3B50373  19.628  13.563   7.050
 8298POPC   C4B50374  19.607  13.627   7.350
 8299POPC   NC350375  12.119  17.511   5.550
 8299POPC   PO450376  12.072  17.479   5.850
 8299POPC   GL150377  12.070  17.494   6.150
 8299POPC   GL250378  12.184  17.553   6.150
 8299POPC   C1A50379  12.106  17.461   6.450
 8299POPC   D2A50380  12.038  17.505   6.750
 8299POPC   C3A50381  12.125  17.482   7.050
 8299POPC   C4A50382  12.086  17.493   7.350
 8299POPC   C1B50383  12.224  17.718   6.450
 8299POPC   C2B50384  12.216  17.690   6.750
 8299POPC   C3B50385  12.295  17.681   7.050
 8299POPC   C4B50386  12.297  17.699   7.350
 8300POPC   NC350387  36.141  16.000   5.550
 8300POPC   PO450388  36.143  15.984   5.850
 8300POPC   GL150389  36.165  15.944   6.150
 8300POPC   GL250390  35.981  15.992   6.150
 8300POPC   C1A50391  36.171  15.971   6.450
 8300POPC   D2A50392  36.108  15.973   6.750
 8300POPC   C3A50393  36.136  15.968   7.050
 8300POPC   C4A50394  36.170  15.936   7.350
 8300POPC   C1B50395  35.883  15.988   6.450
 8300POPC   C2B50396  35.907  16.056   6.750
 8300POPC   C3B50397  35.909  16.057   7.050
 8300POPC   C4B50398  35.931  16.006   7.350
 8301POPC   NC350399  40.766  31.487   5.550
 8301POPC   PO450400  40.773  31.503   5.850
 8301POPC   GL150401  40.826  31.443   6.150
 8301POPC   GL250402  40.918  31.367   6.150
 8301POPC   C1A50403  40.818  31.428   6.450
 8301POPC   D2A50404  40.759  31.429   6.750
 8301POPC   C3A50405  40.777  31.463   7.050
 8301POPC   C4A50406  40.746  31.454   7.350
 8301POPC   C1B50407  40.944  31.347   6.450
 8301POPC   C2B50408  41.005  31.330   6.750
 8301POPC   C3B50409  40.928  31.353   7.050
 8301POPC   C4B50410  40.958  31.271   7.350
 8302POPC   NC350411  42.367  22.933   5.550
 8302POPC   PO450412  42.363  22.926   5.850
 8302POPC   GL150413  42.368  22.985   6.150
 8302POPC   GL250414  42.430  22.788   6.150
 8302POPC   C1A50415  42.363  22.985   6.450
 8302POPC   D2A50416  42.331  22.970   6.750
 8302POPC   C3A50417  42.380  22.961   7.050
 8302POPC   C4A50418  42.331  22.970   7.350
 8302POPC   C1B50419  42.478  22.771   6.450
 8302POPC   C2B50420  42.484  22.786   6.750
 8302POPC   C3B50421  42.517  22.743   7.050
 8302POPC   C4B50422  42.436  22.772   7.350
 8303POPC   NC350423  15.132  28.389   5.550
 8303POPC   PO450424  15.209  28.354   5.850
 8303POPC   GL150425  15.198  28.412   6.150
 8303POPC   GL250426  15.198  28.282   6.150
 8303POPC   C1A50427  15.185  28.356   6.450
 8303POPC   D2A50428  15.174  28.348   6.750
 8303POPC   C3A50429  15.183  28.355   7.050
 8303POPC   C4A50430  15.173  28.417   7.350
 8303POPC   C1B50431  15.211  28.169   6.450
 8303POPC   C2B50432  15.238  28.126   6.750
 8303POPC   C3B50433  15.231  28.115   7.050
 8303POPC   C4B50434  15.200  28.151   7.350
 8304POPC   NC350435  18.276  33.020   5.550
 8304POPC   PO450436  18.307  33.041   5.850
 8304POPC   GL150437  18.290  33.064   6.150
 8304POPC   GL250438  18.211  33.159   6.150
 8304POPC   C1A50439  18.292  33.020   6.450
 8304POPC   D2A50440  18.240  33.034   6.750
 8304POPC   C3A50441  18.327  33.006   7.050
 8304POPC   C4A50442  18.259  33.012   7.350
 8304POPC   C1B50443  18.169  33.210   6.450
 8304POPC   C2B50444  18.118  33.267   6.750
 8304POPC   C3B50445  18.143  33.263   7.050
 8304POPC   C4B50446  18.157  33.262   7.350
 8305POPC   NC350447  22.210  18.284   5.550
 8305POPC   PO450448  22.134  18.306   5.850
 8305POPC   GL150449  22.201  18.272   6.150
 8305POPC   GL250450  22.163  18.120   6.150
 8305POPC   C1A50451  22.196  18.317   6.450
 8305POPC   D2A50452  22.184  18.315   6.750
 8305POPC   C3A50453  22.205  18.233   7.050
 8305POPC   C4A50454  22.125  18.291   7.350
 8305POPC   C1B50455  22.138  18.017   6.450
 8305POPC   C2B50456  22.099  18.036   6.750
 8305POPC   C3B50457  22.152  18.036   7.050
 8305POPC   C4B50458  22.120  18.007   7.350
 8306POPC   NC350459  43.073  18.316   5.550
 8306POPC   PO450460  43.075  18.268   5.850
 8306POPC   GL150461  43.157  18.245   6.150
 8306POPC   GL250462  43.129  18.409   6.150
 8306POPC   C1A50463  43.124  18.238   6.450
 8306POPC   D2A50464  43.090  18.327   6.750
 8306POPC   C3A50465  43.074  18.304   7.050
 8306POPC   C4A50466  43.105  18.318   7.350
 8306POPC   C1B50467  43.023  18.526   6.450
 8306POPC   C2B50468  43.062  18.548   6.750
 8306POPC   C3B50469  43.089  18.543   7.050
 8306POPC   C4B50470  43.095  18.573   7.350
 8307POPC   NC350471  21.420  23.750   5.550
 8307POPC   PO450472  21.411  23.740   5.850
 8307POPC   GL150473  21.367  23.737   6.150
 8307POPC   GL250474  21.332  23.801   6.150
 8307POPC   C1A50475  21.345  23.762   6.450
 8307POPC   D2A50476  21.429  23.692   6.750
 8307POPC   C3A50477  21.413  23.734   7.050
 8307POPC   C4A50478  21.355  23.678   7.350
 8307POPC   C1B50479  21.354  23.916   6.450
 8307POPC   C2B50480  21.321  23.913   6.750
 8307POPC   C3B50481  21.320  23.967   7.050
 8307POPC   C4B50482  21.335  23.932   7.350
 8308POPC   NC350483  21.409   4.305   5.550
 8308POPC   PO450484  21.426   4.282   5.850
 8308POPC   GL150485  21.425   4.276   6.150
 8308POPC   GL250486  21.347   4.390   6.150
 8308POPC   C1A50487  21.342   4.303   6.450
 8308POPC   D2A50488  21.414   4.356   6.750
 8308POPC   C3A50489  21.417   4.337   7.050
 8308POPC   C4A50490  21.377   4.312   7.350
 8308POPC   C1B50491  21.294   4.548   6.450
 8308POPC   C2B50492  21.299   4.605   6.750
 8308POPC   C3B50493  21.336   4.606   7.050
 8308POPC   C4B50494  21.340   4.585   7.350
 8309POPC   NC350495  14.393  36.876   5.550
 8309POPC   PO450496  14.419  36.890   5.850
 8309POPC   GL150497  14.393  36.947   6.150
 8309POPC   GL250498  14.523  36.812   6.150
 8309POPC   C1A50499  14.365  36.865   6.450
 8309POPC   D2A50500  14.406  36.909   6.750
 8309POPC   C3A50501  14.399  36.865   7.050
 8309POPC   C4A50502  14.408  36.863   7.350
 8309POPC   C1B50503  14.598  36.744   6.450
 8309POPC   C2B50504  14.538  36.688   6.750
 8309POPC   C3B50505  14.593  36.695   7.050
 8309POPC   C4B50506  14.580  36.685   7.350
 8310POPC   NC350507  35.318   0.401   5.550
 8310POPC   PO450508  35.353   0.469   5.850
 8310POPC   GL150509  35.332   0.479   6.150
 8310POPC   GL250510  35.384   0.526   6.150
 8310POPC   C1A50511  35.336   0.445   6.450
 8310POPC   D2A50512  35.393   0.389   6.750
 8310POPC   C3A50513  35.336   0.404   7.050
 8310POPC   C4A50514  35.358   0.407   7.350
 8310POPC   C1B50515  35.388   0.738   6.450
 8310POPC   C2B50516  35.354   0.722   6.750
 8310POPC   C3B50517  35.374   0.699   7.050
 8310POPC   C4B50518  35.335   0.672   7.350
 8311POPC   NC350519  41.531  23.706   5.550
 8311POPC   PO450520  41.526  23.752   5.850
 8311POPC   GL150521  41.538  23.760   6.150
 8311POPC   GL250522  41.430  23.626   6.150
 8311POPC   C1A50523  41.587  23.753   6.450
 8311POPC   D2A50524  41.587  23.676   6.750
 8311POPC   C3A50525  41.546  23.697   7.050
 8311POPC   C4A50526  41.521  23.700   7.350
 8311POPC   C1B50527  41.355  23.597   6.450
 8311POPC   C2B50528  41.322  23.590   6.750
 8311POPC   C3B50529  41.341  23.545   7.050
 8311POPC   C4B50530  41.393  23.582   7.350
 8312POPC   NC350531  41.531  14.383   5.550
 8312POPC   PO450532  41.584  14.450   5.850
 8312POPC   GL150533  41.552  14.425   6.150
 8312POPC   GL250534  41.433  14.397   6.150
 8312POPC   C1A50535  41.560  14.375   6.450
 8312POPC   D2A50536  41.522  14.374   6.750
 8312POPC   C3A50537  41.592  14.398   7.050
 8312POPC   C4A50538  41.603  14.358   7.350
 8312POPC   C1B50539  41.361  14.340   6.450
 8312POPC   C2B50540  41.300  14.334   6.750
 8312POPC   C3B50541  41.298  14.305   7.050
 8312POPC   C4B50542  41.346  14.318   7.350
 8313POPC   NC350543   1.202   6.674   5.550
 8313POPC   PO450544   1.234   6.647   5.850
 8313POPC   GL150545   1.223   6.668   6.150
 8313POPC   GL250546   1.127   6.531   6.150
 8313POPC   C1A50547   1.191   6.612   6.450
 8313POPC   D2A50548   1.244   6.665   6.750
 8313POPC   C3A50549   1.242   6.624   7.050
 8313POPC   C4A50550   1.211   6.623   7.350
 8313POPC   C1B50551   1.063   6.443   6.450
 8313POPC   C2B50552   0.987   6.525   6.750
 8313POPC   C3B50553   1.035   6.517   7.050
 8313POPC   C4B50554   1.061   6.459   7.350
 8314POPC   NC350555  22.199  11.258   5.550
 8314POPC   PO450556  22.155  11.299   5.850
 8314POPC   GL150557  22.207  11.274   6.150
 8314POPC   GL250558  22.055  11.281   6.150
 8314POPC   C1A50559  22.193  11.286   6.450
 8314POPC   D2A50560  22.188  11.302   6.750
 8314POPC   C3A50561  22.164  11.258   7.050
 8314POPC   C4A50562  22.193  11.331   7.350
 8314POPC   C1B50563  21.875  11.237   6.450
 8314POPC   C2B50564  21.932  11.227   6.750
 8314POPC   C3B50565  21.944  11.237   7.050
 8314POPC   C4B50566  21.930  11.287   7.350
 8315POPC   NC350567  34.549  44.675   5.550
 8315POPC   PO450568  34.581  44.692   5.850
 8315POPC   GL150569  34.577  44.671   6.150
 8315POPC   GL250570  34.496  44.518   6.150
 8315POPC   C1A50571  34.589  44.699   6.450
 8315POPC   D2A50572  34.532  44.669   6.750
 8315POPC   C3A50573  34.556  44.708   7.050
 8315POPC   C4A50574  34.608  44.661   7.350
 8315POPC   C1B50575  34.469  44.392   6.450
 8315POPC   C2B50576  34.436  44.393   6.750
 8315POPC   C3B50577  34.450  44.420   7.050
 8315POPC   C4B50578  34.436  44.471   7.350
 8316POPC   NC350579   5.904   8.160   5.550
 8316POPC   PO450580   5.820   8.201   5.850
 8316POPC   GL150581   5.820   8.221   6.150
 8316POPC   GL250582   5.908   8.304   6.150
 8316POPC   C1A50583   5.819   8.242   6.450
 8316POPC   D2A50584   5.862   8.164   6.750
 8316POPC   C3A50585   5.834   8.151   7.050
 8316POPC   C4A50586   5.916   8.205   7.350
 8316POPC   C1B50587   5.986   8.395   6.450
 8316POPC   C2B50588   6.039   8.428   6.750
 8316POPC   C3B50589   5.975   8.426   7.050
 8316POPC   C4B50590   6.031   8.373   7.350
 8317POPC   NC350591  20.591  32.276   5.550
 8317POPC   PO450592  20.658  32.260   5.850
 8317POPC   GL150593  20.640  32.279   6.150
 8317POPC   GL250594  20.744  32.255   6.150
 8317POPC   C1A50595  20.646  32.279   6.450
 8317POPC   D2A50596  20.639  32.254   6.750
 8317POPC   C3A50597  20.591  32.244   7.050
 8317POPC   C4A50598  20.572  32.219   7.350
 8317POPC   C1B50599  20.815  32.131   6.450
 8317POPC   C2B50600  20.815  32.187   6.750
 8317POPC   C3B50601  20.855  32.187   7.050
 8317POPC   C4B50602  20.820  32.146   7.350
 8318POPC   NC350603  29.149   7.380   5.550
 8318POPC   PO450604  29.170   7.391   5.850
 8318POPC   GL150605  29.096   7.396   6.150
 8318POPC   GL250606  29.224   7.303   6.150
 8318POPC   C1A50607  29.151   7.424   6.450
 8318POPC   D2A50608  29.098   7.375   6.750
 8318POPC   C3A50609  29.151   7.422   7.050
 8318POPC   C4A50610  29.157   7.456   7.350
 8318POPC   C1B50611  29.232   7.219   6.450
 8318POPC   C2B50612  29.282   7.172   6.750
 8318POPC   C3B50613  29.254   7.177   7.050
 8318POPC   C4B50614  29.298   7.244   7.350
 8319POPC   NC350615  39.272  26.007   5.550
 8319POPC   PO450616  39.191  26.030   5.850
 8319POPC   GL150617  39.225  26.001   6.150
 8319POPC   GL250618  39.172  26.175   6.150
 8319POPC   C1A50619  39.241  26.015   6.450
 8319POPC   D2A50620  39.198  26.044   6.750
 8319POPC   C3A50621  39.276  26.087   7.050
 8319POPC   C4A50622  39.200  26.049   7.350
 8319POPC   C1B50623  39.146  26.336   6.450
 8319POPC   C2B50624  39.180  26.330   6.750
 8319POPC   C3B50625  39.216  26.289   7.050
 8319POPC   C4B50626  39.149  26.256   7.350
 8320POPC   NC350627  12.894  26.075   5.550
 8320POPC   PO450628  12.889  26.067   5.850
 8320POPC   GL150629  12.830  26.042   6.150
 8320POPC   GL250630  12.753  25.901   6.150
 8320POPC   C1A50631  12.814  26.091   6.450
 8320POPC   D2A50632  12.869  26.034   6.750
 8320POPC   C3A50633  12.806  26.033   7.050
 8320POPC   C4A50634  12.810  25.994   7.350
 8320POPC   C1B50635  12.755  25.845   6.450
 8320POPC   C2B50636  12.689  25.850   6.750
 8320POPC   C3B50637  12.736  25.802   7.050
 8320POPC   C4B50638  12.731  25.861   7.350
 8321POPC   NC350639  26.857   8.189   5.550
 8321POPC   PO450640  26.832   8.234   5.850
 8321POPC   GL150641  26.797   8.206   6.150
 8321POPC   GL250642  26.778   8.270   6.150
 8321POPC   C1A50643  26.773   8.170   6.450
 8321POPC   D2A50644  26.784   8.189   6.750
 8321POPC   C3A50645  26.833   8.168   7.050
 8321POPC   C4A50646  26.844   8.242   7.350
 8321POPC   C1B50647  26.770   8.386   6.450
 8321POPC   C2B50648  26.720   8.479   6.750
 8321POPC   C3B50649  26.760   8.416   7.050
 8321POPC   C4B50650  26.753   8.405   7.350
 8322POPC   NC350651  22.188  34.579   5.550
 8322POPC   PO450652  22.146  34.585   5.850
 8322POPC   GL150653  22.188  34.551   6.150
 8322POPC   GL250654  22.078  34.514   6.150
 8322POPC   C1A50655  22.132  34.564   6.450
 8322POPC   D2A50656  22.200  34.598   6.750
 8322POPC   C3A50657  22.142  34.595   7.050
 8322POPC   C4A50658  22.138  34.612   7.350
 8322POPC   C1B50659  22.066  34.368   6.450
 8322POPC   C2B50660  22.033  34.357   6.750
 8322POPC   C3B50661  22.016  34.390   7.050
 8322POPC   C4B50662  22.047  34.341   7.350
 8323POPC   NC350663   1.963  22.955   5.550
 8323POPC   PO450664   2.021  22.932   5.850
 8323POPC   GL150665   2.008  22.892   6.150
 8323POPC   GL250666   1.922  22.890   6.150
 8323POPC   C1A50667   2.039  22.951   6.450
 8323POPC   D2A50668   1.981  22.927   6.750
 8323POPC   C3A50669   1.994  22.961   7.050
 8323POPC   C4A50670   2.035  22.982   7.350
 8323POPC   C1B50671   1.799  22.765   6.450
 8323POPC   C2B50672   1.836  22.811   6.750
 8323POPC   C3B50673   1.785  22.792   7.050
 8323POPC   C4B50674   1.799  22.804   7.350
 8324POPC   NC350675  33.838  17.479   5.550
 8324POPC   PO450676  33.849  17.525   5.850
 8324POPC   GL150677  33.837  17.482   6.150
 8324POPC   GL250678  33.907  17.414   6.150
 8324POPC   C1A50679  33.790  17.481   6.450
 8324POPC   D2A50680  33.792  17.481   6.750
 8324POPC   C3A50681  33.784  17.534   7.050
 8324POPC   C4A50682  33.830  17.502   7.350
 8324POPC   C1B50683  33.984  17.278   6.450
 8324POPC   C2B50684  33.924  17.334   6.750
 8324POPC   C3B50685  33.992  17.350   7.050
 8324POPC   C4B50686  33.964  17.346   7.350
 8325POPC   NC350687  10.562   0.482   5.550
 8325POPC   PO450688  10.528   0.436   5.850
 8325POPC   GL150689  10.493   0.403   6.150
 8325POPC   GL250690  10.568   0.305   6.150
 8325POPC   C1A50691  10.535   0.487   6.450
 8325POPC   D2A50692  10.514   0.400   6.750
 8325POPC   C3A50693  10.516   0.394   7.050
 8325POPC   C4A50694  10.539   0.443   7.350
 8325POPC   C1B50695  10.540   0.225   6.450
 8325POPC   C2B50696  10.554   0.241   6.750
 8325POPC   C3B50697  10.618   0.183   7.050
 8325POPC   C4B50698  10.550   0.205   7.350
 8326POPC   NC350699  41.562  32.992   5.550
 8326POPC   PO450700  41.509  32.986   5.850
 8326POPC   GL150701  41.524  32.994   6.150
 8326POPC   GL250702  41.682  33.142   6.150
 8326POPC   C1A50703  41.521  33.069   6.450
 8326POPC   D2A50704  41.572  33.021   6.750
 8326POPC   C3A50705  41.516  33.012   7.050
 8326POPC   C4A50706  41.586  33.058   7.350
 8326POPC   C1B50707  41.720  33.268   6.450
 8326POPC   C2B50708  41.722  33.227   6.750
 8326POPC   C3B50709  41.676  33.227   7.050
 8326POPC   C4B50710  41.724  33.184   7.350
 8327POPC   NC350711  19.075  35.389   5.550
 8327POPC   PO450712  19.037  35.390   5.850
 8327POPC   GL150713  19.010  35.306   6.150
 8327POPC   GL250714  19.192  35.433   6.150
 8327POPC   C1A50715  19.035  35.367   6.450
 8327POPC   D2A50716  19.066  35.304   6.750
 8327POPC   C3A50717  19.099  35.343   7.050
 8327POPC   C4A50718  19.038  35.391   7.350
 8327POPC   C1B50719  19.285  35.528   6.450
 8327POPC   C2B50720  19.248  35.539   6.750
 8327POPC   C3B50721  19.275  35.531   7.050
 8327POPC   C4B50722  19.267  35.525   7.350
 8328POPC   NC350723  33.761  26.078   5.550
 8328POPC   PO450724  33.772  25.994   5.850
 8328POPC   GL150725  33.770  26.088   6.150
 8328POPC   GL250726  33.878  26.121   6.150
 8328POPC   C1A50727  33.767  26.044   6.450
 8328POPC   D2A50728  33.840  26.018   6.750
 8328POPC   C3A50729  33.784  26.062   7.050
 8328POPC   C4A50730  33.821  25.992   7.350
 8328POPC   C1B50731  34.016  26.183   6.450
 8328POPC   C2B50732  33.940  26.259   6.750
 8328POPC   C3B50733  34.016  26.211   7.050
 8328POPC   C4B50734  33.979  26.253   7.350
 8329POPC   NC350735  18.284  37.652   5.550
 8329POPC   PO450736  18.259  37.716   5.850
 8329POPC   GL150737  18.324  37.680   6.150
 8329POPC   GL250738  18.376  37.708   6.150
 8329POPC   C1A50739  18.263  37.696   6.450
 8329POPC   D2A50740  18.265  37.637   6.750
 8329POPC   C3A50741  18.265  37.697   7.050
 8329POPC   C4A50742  18.311  37.682   7.350
 8329POPC   C1B50743  18.547  37.732   6.450
 8329POPC   C2B50744  18.533  37.701   6.750
 8329POPC   C3B50745  18.495  37.696   7.050
 8329POPC   C4B50746  18.547  37.756   7.350
 8330POPC   NC350747   5.838  27.569   5.550
 8330POPC   PO450748   5.873  27.631   5.850
 8330POPC   GL150749   5.901  27.629   6.150
 8330POPC   GL250750   5.960  27.577   6.150
 8330POPC   C1A50751   5.901  27.626   6.450
 8330POPC   D2A50752   5.865  27.565   6.750
 8330POPC   C3A50753   5.848  27.613   7.050
 8330POPC   C4A50754   5.914  27.546   7.350
 8330POPC   C1B50755   6.052  27.430   6.450
 8330POPC   C2B50756   6.063  27.457   6.750
 8330POPC   C3B50757   6.090  27.494   7.050
 8330POPC   C4B50758   6.045  27.435   7.350
 8331POPC   NC350759  18.233  44.647   5.550
 8331POPC   PO450760  18.245  44.706   5.850
 8331POPC   GL150761  18.280  44.701   6.150
 8331POPC   GL250762  18.201  44.588   6.150
 8331POPC   C1A50763  18.261  44.649   6.450
 8331POPC   D2A50764  18.330  44.679   6.750
 8331POPC   C3A50765  18.308  44.703   7.050
 8331POPC   C4A50766  18.327  44.653   7.350
 8331POPC   C1B50767  18.121  44.481   6.450
 8331POPC   C2B50768  18.039  44.519   6.750
 8331POPC   C3B50769  18.102  44.555   7.050
 8331POPC   C4B50770  18.070  44.475   7.350
 8332POPC   NC350771  26.091  41.520   5.550
 8332POPC   PO450772  26.057  41.578   5.850
 8332POPC   GL150773  26.068  41.534   6.150
 8332POPC   GL250774  26.165  41.618   6.150
 8332POPC   C1A50775  26.017  41.601   6.450
 8332POPC   D2A50776  26.062  41.513   6.750
 8332POPC   C3A50777  26.063  41.517   7.050
 8332POPC   C4A50778  26.082  41.598   7.350
 8332POPC   C1B50779  26.239  41.636   6.450
 8332POPC   C2B50780  26.314  41.661   6.750
 8332POPC   C3B50781  26.248  41.704   7.050
 8332POPC   C4B50782  26.223  41.620   7.350
 8333POPC   NC350783  43.071   2.025   5.550
 8333POPC   PO450784  43.107   1.951   5.850
 8333POPC   GL150785  43.080   2.012   6.150
 8333POPC   GL250786  43.210   1.903   6.150
 8333POPC   C1A50787  43.139   2.030   6.450
 8333POPC   D2A50788  43.134   1.959   6.750
 8333POPC   C3A50789  43.133   1.982   7.050
 8333POPC   C4A50790  43.149   1.947   7.350
 8333POPC   C1B50791  43.258   1.786   6.450
 8333POPC   C2B50792  43.213   1.790   6.750
 8333POPC   C3B50793  43.260   1.813   7.050
 8333POPC   C4B50794  43.236   1.812   7.350
 8334POPC   NC350795   1.211  41.574   5.550
 8334POPC   PO450796   1.205  41.565   5.850
 8334POPC   GL150797   1.167  41.572   6.150
 8334POPC   GL250798   1.302  41.665   6.150
 8334POPC   C1A50799   1.259  41.600   6.450
 8334POPC   D2A50800   1.167  41.536   6.750
 8334POPC   C3A50801   1.169  41.528   7.050
 8334POPC   C4A50802   1.172  41.509   7.350
 8334POPC   C1B50803   1.446  41.704   6.450
 8334POPC   C2B50804   1.394  41.699   6.750
 8334POPC   C3B50805   1.399  41.677   7.050
 8334POPC   C4B50806   1.447  41.634   7.350
 8335POPC   NC350807  28.340  13.651   5.550
 8335POPC   PO450808  28.366  13.617   5.850
 8335POPC   GL150809  28.397  13.652   6.150
 8335POPC   GL250810  28.222  13.708   6.150
 8335POPC   C1A50811  28.373  13.669   6.450
 8335POPC   D2A50812  28.414  13.641   6.750
 8335POPC   C3A50813  28.362  13.585   7.050
 8335POPC   C4A50814  28.387  13.614   7.350
 8335POPC   C1B50815  28.131  13.774   6.450
 8335POPC   C2B50816  28.104  13.746   6.750
 8335POPC   C3B50817  28.183  13.753   7.050
 8335POPC   C4B50818  28.157  13.702   7.350
 8336POPC   NC350819  29.165  13.605   5.550
 8336POPC   PO450820  29.149  13.654   5.850
 8336POPC   GL150821  29.131  13.636   6.150
 8336POPC   GL250822  29.048  13.700   6.150
 8336POPC   C1A50823  29.151  13.607   6.450
 8336POPC   D2A50824  29.117  13.629   6.750
 8336POPC   C3A50825  29.185  13.673   7.050
 8336POPC   C4A50826  29.128  13.639   7.350
 8336POPC   C1B50827  28.877  13.730   6.450
 8336POPC   C2B50828  28.918  13.698   6.750
 8336POPC   C3B50829  28.951  13.709   7.050
 8336POPC   C4B50830  28.889  13.746   7.350
 8337POPC   NC350831   8.214  40.745   5.550
 8337POPC   PO450832   8.219  40.771   5.850
 8337POPC   GL150833   8.230  40.743   6.150
 8337POPC   GL250834   8.245  40.897   6.150
 8337POPC   C1A50835   8.226  40.788   6.450
 8337POPC   D2A50836   8.202  40.788   6.750
 8337POPC   C3A50837   8.211  40.785   7.050
 8337POPC   C4A50838   8.220  40.777   7.350
 8337POPC   C1B50839   8.338  40.999   6.450
 8337POPC   C2B50840   8.309  40.966   6.750
 8337POPC   C3B50841   8.287  40.969   7.050
 8337POPC   C4B50842   8.338  41.037   7.350
 8338POPC   NC350843   8.210  21.342   5.550
 8338POPC   PO450844   8.180  21.409   5.850
 8338POPC   GL150845   8.176  21.338   6.150
 8338POPC   GL250846   8.242  21.305   6.150
 8338POPC   C1A50847   8.219  21.352   6.450
 8338POPC   D2A50848   8.207  21.434   6.750
 8338POPC   C3A50849   8.236  21.352   7.050
 8338POPC   C4A50850   8.223  21.341   7.350
 8338POPC   C1B50851   8.338  21.216   6.450
 8338POPC   C2B50852   8.327  21.141   6.750
 8338POPC   C3B50853   8.283  21.136   7.050
 8338POPC   C4B50854   8.284  21.186   7.350
 8339POPC   NC350855  24.473  18.266   5.550
 8339POPC   PO450856  24.530  18.260   5.850
 8339POPC   GL150857  24.492  18.282   6.150
 8339POPC   GL250858  24.627  18.282   6.150
 8339POPC   C1A50859  24.491  18.255   6.450
 8339POPC   D2A50860  24.529  18.321   6.750
 8339POPC   C3A50861  24.503  18.330   7.050
 8339POPC   C4A50862  24.466  18.239   7.350
 8339POPC   C1B50863  24.722  18.269   6.450
 8339POPC   C2B50864  24.783  18.273   6.750
 8339POPC   C3B50865  24.733  18.284   7.050
 8339POPC   C4B50866  24.724  18.283   7.350
 8340POPC   NC350867  19.054  42.300   5.550
 8340POPC   PO450868  19.086  42.324   5.850
 8340POPC   GL150869  19.077  42.382   6.150
 8340POPC   GL250870  19.096  42.247   6.150
 8340POPC   C1A50871  19.021  42.352   6.450
 8340POPC   D2A50872  19.050  42.325   6.750
 8340POPC   C3A50873  19.014  42.356   7.050
 8340POPC   C4A50874  19.036  42.340   7.350
 8340POPC   C1B50875  19.221  42.123   6.450
 8340POPC   C2B50876  19.137  42.118   6.750
 8340POPC   C3B50877  19.175  42.163   7.050
 8340POPC   C4B50878  19.227  42.072   7.350
 8341POPC   NC350879  28.411  44.623   5.550
 8341POPC   PO450880  28.406  44.626   5.850
 8341POPC   GL150881  28.396  44.671   6.150
 8341POPC   GL250882  28.403  44.797   6.150
 8341POPC   C1A50883  28.374  44.680   6.450
 8341POPC   D2A50884  28.384  44.634   6.750
 8341POPC   C3A50885  28.366  44.637   7.050
 8341POPC   C4A50886  28.402  44.650   7.350
 8341POPC   C1B50887  28.436  44.863   6.450
 8341POPC   C2B50888  28.430  44.871   6.750
 8341POPC   C3B50889  28.517  44.928   7.050
 8341POPC   C4B50890  28.455  44.884   7.350
 8342POPC   NC350891  31.425  36.121   5.550
 8342POPC   PO450892  31.487  36.151   5.850
 8342POPC   GL150893  31.473  36.108   6.150
 8342POPC   GL250894  31.578  36.257   6.150
 8342POPC   C1A50895  31.439  36.145   6.450
 8342POPC   D2A50896  31.424  36.124   6.750
 8342POPC   C3A50897  31.500  36.169   7.050
 8342POPC   C4A50898  31.491  36.169   7.350
 8342POPC   C1B50899  31.613  36.298   6.450
 8342POPC   C2B50900  31.647  36.287   6.750
 8342POPC   C3B50901  31.636  36.344   7.050
 8342POPC   C4B50902  31.671  36.347   7.350
 8343POPC   NC350903  15.913  12.892   5.550
 8343POPC   PO450904  15.913  12.882   5.850
 8343POPC   GL150905  15.984  12.852   6.150
 8343POPC   GL250906  16.118  12.874   6.150
 8343POPC   C1A50907  15.920  12.885   6.450
 8343POPC   D2A50908  15.959  12.811   6.750
 8343POPC   C3A50909  15.938  12.864   7.050
 8343POPC   C4A50910  15.943  12.808   7.350
 8343POPC   C1B50911  16.169  12.902   6.450
 8343POPC   C2B50912  16.212  12.974   6.750
 8343POPC   C3B50913  16.193  12.921   7.050
 8343POPC   C4B50914  16.175  12.895   7.350
 8344POPC   NC350915  15.961  36.900   5.550
 8344POPC   PO450916  16.000  36.948   5.850
 8344POPC   GL150917  15.982  36.860   6.150
 8344POPC   GL250918  15.914  36.815   6.150
 8344POPC   C1A50919  15.964  36.940   6.450
 8344POPC   D2A50920  15.991  36.920   6.750
 8344POPC   C3A50921  15.989  36.893   7.050
 8344POPC   C4A50922  15.973  36.936   7.350
 8344POPC   C1B50923  15.947  36.628   6.450
 8344POPC   C2B50924  15.946  36.637   6.750
 8344POPC   C3B50925  15.880  36.652   7.050
 8344POPC   C4B50926  15.852  36.610   7.350
 8345POPC   NC350927   5.101  19.828   5.550
 8345POPC   PO450928   5.100  19.835   5.850
 8345POPC   GL150929   5.097  19.879   6.150
 8345POPC   GL250930   5.140  19.702   6.150
 8345POPC   C1A50931   5.099  19.838   6.450
 8345POPC   D2A50932   5.059  19.809   6.750
 8345POPC   C3A50933   5.121  19.790   7.050
 8345POPC   C4A50934   5.058  19.876   7.350
 8345POPC   C1B50935   5.145  19.612   6.450
 8345POPC   C2B50936   5.090  19.621   6.750
 8345POPC   C3B50937   5.136  19.535   7.050
 8345POPC   C4B50938   5.137  19.588   7.350
 8346POPC   NC350939  39.968  24.495   5.550
 8346POPC   PO450940  40.054  24.471   5.850
 8346POPC   GL150941  40.021  24.462   6.150
 8346POPC   GL250942  39.846  24.420   6.150
 8346POPC   C1A50943  40.002  24.473   6.450
 8346POPC   D2A50944  39.984  24.524   6.750
 8346POPC   C3A50945  40.024  24.510   7.050
 8346POPC   C4A50946  40.025  24.488   7.350
 8346POPC   C1B50947  39.778  24.356   6.450
 8346POPC   C2B50948  39.822  24.439   6.750
 8346POPC   C3B50949  39.777  24.452   7.050
 8346POPC   C4B50950  39.741  24.365   7.350
 8347POPC   NC350951  35.375  27.566   5.550
 8347POPC   PO450952  35.381  27.620   5.850
 8347POPC   GL150953  35.400  27.620   6.150
 8347POPC   GL250954  35.427  27.617   6.150
 8347POPC   C1A50955  35.380  27.591   6.450
 8347POPC   D2A50956  35.313  27.588   6.750
 8347POPC   C3A50957  35.350  27.632   7.050
 8347POPC   C4A50958  35.396  27.624   7.350
 8347POPC   C1B50959  35.595  27.620   6.450
 8347POPC   C2B50960  35.632  27.630   6.750
 8347POPC   C3B50961  35.638  27.625   7.050
 8347POPC   C4B50962  35.609  27.556   7.350
 8348POPC   NC350963   6.604  16.700   5.550
 8348POPC   PO450964   6.627  16.720   5.850
 8348POPC   GL150965   6.601  16.706   6.150
 8348POPC   GL250966   6.693  16.615   6.150
 8348POPC   C1A50967   6.620  16.690   6.450
 8348POPC   D2A50968   6.597  16.733   6.750
 8348POPC   C3A50969   6.613  16.751   7.050
 8348POPC   C4A50970   6.638  16.766   7.350
 8348POPC   C1B50971   6.843  16.565   6.450
 8348POPC   C2B50972   6.828  16.563   6.750
 8348POPC   C3B50973   6.806  16.520   7.050
 8348POPC   C4B50974   6.861  16.527   7.350
 8349POPC   NC350975  37.728  19.035   5.550
 8349POPC   PO450976  37.655  19.065   5.850
 8349POPC   GL150977  37.721  19.012   6.150
 8349POPC   GL250978  37.787  18.979   6.150
 8349POPC   C1A50979  37.683  19.036   6.450
 8349POPC   D2A50980  37.718  19.080   6.750
 8349POPC   C3A50981  37.706  19.027   7.050
 8349POPC   C4A50982  37.630  19.021   7.350
 8349POPC   C1B50983  37.875  19.042   6.450
 8349POPC   C2B50984  37.968  19.013   6.750
 8349POPC   C3B50985  37.955  18.981   7.050
 8349POPC   C4B50986  37.880  18.965   7.350
 8350POPC   NC350987  19.792   8.975   5.550
 8350POPC   PO450988  19.859   8.972   5.850
 8350POPC   GL150989  19.836   8.931   6.150
 8350POPC   GL250990  19.959   9.069   6.150
 8350POPC   C1A50991  19.852   9.004   6.450
 8350POPC   D2A50992  19.853   8.923   6.750
 8350POPC   C3A50993  19.807   8.964   7.050
 8350POPC   C4A50994  19.859   8.956   7.350
 8350POPC   C1B50995  20.036   9.151   6.450
 8350POPC   C2B50996  20.036   9.137   6.750
 8350POPC   C3B50997  20.002   9.180   7.050
 8350POPC   C4B50998  20.045   9.158   7.350
 8351POPC   NC350999   3.514  17.512   5.550
 8351POPC   PO451000   3.514  17.520   5.850
 8351POPC   GL151001   3.516  17.502   6.150
 8351POPC   GL251002   3.682  17.549   6.150
 8351POPC   C1A51003   3.513  17.458   6.450
 8351POPC   D2A51004   3.512  17.475   6.750
 8351POPC   C3A51005   3.497  17.485   7.050
 8351POPC   C4A51006   3.552  17.496   7.350
 8351POPC   C1B51007   3.812  17.565   6.450
 8351POPC   C2B51008   3.773  17.590   6.750
 8351POPC   C3B51009   3.817  17.563   7.050
 8351POPC   C4B51010   3.760  17.562   7.350
 8352POPC   NC351011  28.411  38.502   5.550
 8352POPC   PO451012  28.405  38.488   5.850
 8352POPC   GL151013  28.332  38.463   6.150
 8352POPC   GL251014  28.438  38.529   6.150
 8352POPC   C1A51015  28.396  38.445   6.450
 8352POPC   D2A51016  28.405  38.485   6.750
 8352POPC   C3A51017  28.364  38.475   7.050
 8352POPC   C4A51018  28.412  38.437   7.350
 8352POPC   C1B51019  28.443  38.681   6.450
 8352POPC   C2B51020  28.503  38.674   6.750
 8352POPC   C3B51021  28.464  38.661   7.050
 8352POPC   C4B51022  28.407  38.700   7.350
 8353POPC   NC351023  25.287   6.651   5.550
 8353POPC   PO451024  25.244   6.615   5.850
 8353POPC   GL151025  25.296   6.677   6.150
 8353POPC   GL251026  25.166   6.670   6.150
 8353POPC   C1A51027  25.233   6.650   6.450
 8353POPC   D2A51028  25.305   6.662   6.750
 8353POPC   C3A51029  25.309   6.663   7.050
 8353POPC   C4A51030  25.217   6.624   7.350
 8353POPC   C1B51031  24.973   6.730   6.450
 8353POPC   C2B51032  25.058   6.747   6.750
 8353POPC   C3B51033  25.048   6.719   7.050
 8353POPC   C4B51034  24.985   6.690   7.350
 8354POPC   NC351035   0.429  26.079   5.550
 8354POPC   PO451036   0.425  26.069   5.850
 8354POPC   GL151037   0.485  26.061   6.150
 8354POPC   GL251038   0.278  26.010   6.150
 8354POPC   C1A51039   0.455  25.995   6.450
 8354POPC   D2A51040   0.408  26.079   6.750
 8354POPC   C3A51041   0.399  26.006   7.050
 8354POPC   C4A51042   0.460  26.001   7.350
 8354POPC   C1B51043   0.199  25.945   6.450
 8354POPC   C2B51044   0.239  25.920   6.750
 8354POPC   C3B51045   0.190  25.928   7.050
 8354POPC   C4B51046   0.210  25.947   7.350
 8355POPC   NC351047  19.792  27.550   5.550
 8355POPC   PO451048  19.850  27.633   5.850
 8355POPC   GL151049  19.799  27.562   6.150
 8355POPC   GL251050  19.827  27.463   6.150
 8355POPC   C1A51051  19.871  27.588   6.450
 8355POPC   D2A51052  19.828  27.613   6.750
 8355POPC   C3A51053  19.880  27.550   7.050
 8355POPC   C4A51054  19.812  27.618   7.350
 8355POPC   C1B51055  19.951  27.343   6.450
 8355POPC   C2B51056  19.900  27.318   6.750
 8355POPC   C3B51057  19.900  27.372   7.050
 8355POPC   C4B51058  19.952  27.324   7.350
 8356POPC   NC351059   5.063   5.867   5.550
 8356POPC   PO451060   5.128   5.876   5.850
 8356POPC   GL151061   5.136   5.827   6.150
 8356POPC   GL251062   5.176   5.793   6.150
 8356POPC   C1A51063   5.135   5.909   6.450
 8356POPC   D2A51064   5.091   5.912   6.750
 8356POPC   C3A51065   5.142   5.870   7.050
 8356POPC   C4A51066   5.061   5.877   7.350
 8356POPC   C1B51067   5.225   5.708   6.450
 8356POPC   C2B51068   5.252   5.696   6.750
 8356POPC   C3B51069   5.226   5.690   7.050
 8356POPC   C4B51070   5.226   5.639   7.350
 8357POPC   NC351071  16.763  43.837   5.550
 8357POPC   PO451072  16.739  43.919   5.850
 8357POPC   GL151073  16.705  43.838   6.150
 8357POPC   GL251074  16.816  43.851   6.150
 8357POPC   C1A51075  16.775  43.889   6.450
 8357POPC   D2A51076  16.690  43.917   6.750
 8357POPC   C3A51077  16.750  43.875   7.050
 8357POPC   C4A51078  16.730  43.880   7.350
 8357POPC   C1B51079  16.945  43.738   6.450
 8357POPC   C2B51080  16.957  43.713   6.750
 8357POPC   C3B51081  16.933  43.704   7.050
 8357POPC   C4B51082  16.947  43.717   7.350
 8358POPC   NC351083  22.971  17.496   5.550
 8358POPC   PO451084  22.963  17.499   5.850
 8358POPC   GL151085  22.982  17.546   6.150
 8358POPC   GL251086  23.017  17.503   6.150
 8358POPC   C1A51087  22.955  17.552   6.450
 8358POPC   D2A51088  22.965  17.504   6.750
 8358POPC   C3A51089  22.976  17.525   7.050
 8358POPC   C4A51090  22.972  17.508   7.350
 8358POPC   C1B51091  23.221  17.451   6.450
 8358POPC   C2B51092  23.222  17.426   6.750
 8358POPC   C3B51093  23.176  17.398   7.050
 8358POPC   C4B51094  23.150  17.431   7.350
 8359POPC   NC351095  27.630  19.873   5.550
 8359POPC   PO451096  27.624  19.837   5.850
 8359POPC   GL151097  27.631  19.824   6.150
 8359POPC   GL251098  27.587  19.756   6.150
 8359POPC   C1A51099  27.620  19.788   6.450
 8359POPC   D2A51100  27.621  19.851   6.750
 8359POPC   C3A51101  27.595  19.846   7.050
 8359POPC   C4A51102  27.573  19.881   7.350
 8359POPC   C1B51103  27.652  19.590   6.450
 8359POPC   C2B51104  27.661  19.592   6.750
 8359POPC   C3B51105  27.621  19.597   7.050
 8359POPC   C4B51106  27.668  19.546   7.350
 8360POPC   NC351107   6.670  25.290   5.550
 8360POPC   PO451108   6.650  25.233   5.850
 8360POPC   GL151109   6.689  25.234   6.150
 8360POPC   GL251110   6.663  25.349   6.150
 8360POPC   C1A51111   6.659  25.242   6.450
 8360POPC   D2A51112   6.695  25.278   6.750
 8360POPC   C3A51113   6.688  25.269   7.050
 8360POPC   C4A51114   6.672  25.268   7.350
 8360POPC   C1B51115   6.715  25.545   6.450
 8360POPC   C2B51116   6.677  25.493   6.750
 8360POPC   C3B51117   6.739  25.517   7.050
 8360POPC   C4B51118   6.727  25.508   7.350
 8361POPC   NC351119  15.132  40.020   5.550
 8361POPC   PO451120  15.205  40.046   5.850
 8361POPC   GL151121  15.137  40.026   6.150
 8361POPC   GL251122  15.230  39.902   6.150
 8361POPC   C1A51123  15.141  40.036   6.450
 8361POPC   D2A51124  15.164  40.035   6.750
 8361POPC   C3A51125  15.190  39.969   7.050
 8361POPC   C4A51126  15.149  40.039   7.350
 8361POPC   C1B51127  15.250  39.811   6.450
 8361POPC   C2B51128  15.281  39.779   6.750
 8361POPC   C3B51129  15.244  39.749   7.050
 8361POPC   C4B51130  15.287  39.725   7.350
 8362POPC   NC351131  32.200   3.527   5.550
 8362POPC   PO451132  32.271   3.503   5.850
 8362POPC   GL151133  32.225   3.573   6.150
 8362POPC   GL251134  32.162   3.537   6.150
 8362POPC   C1A51135  32.293   3.583   6.450
 8362POPC   D2A51136  32.238   3.561   6.750
 8362POPC   C3A51137  32.273   3.508   7.050
 8362POPC   C4A51138  32.199   3.570   7.350
 8362POPC   C1B51139  32.005   3.410   6.450
 8362POPC   C2B51140  32.014   3.447   6.750
 8362POPC   C3B51141  32.004   3.410   7.050
 8362POPC   C4B51142  31.979   3.438   7.350
 8363POPC   NC351143  43.840  40.736   5.550
 8363POPC   PO451144  43.923  40.812   5.850
 8363POPC   GL151145  43.888  40.800   6.150
 8363POPC   GL251146  43.995  40.786   6.150
 8363POPC   C1A51147  43.868  40.813   6.450
 8363POPC   D2A51148  43.915  40.829   6.750
 8363POPC   C3A51149  43.847  40.826   7.050
 8363POPC   C4A51150  43.863  40.822   7.350
 8363POPC   C1B51151  44.133  40.846   6.450
 8363POPC   C2B51152  44.133  40.865   6.750
 8363POPC   C3B51153  44.151  40.810   7.050
 8363POPC   C4B51154  44.086  40.856   7.350
 8364POPC   NC351155  22.160  19.874   5.550
 8364POPC   PO451156  22.184  19.805   5.850
 8364POPC   GL151157  22.143  19.882   6.150
 8364POPC   GL251158  22.025  19.763   6.150
 8364POPC   C1A51159  22.139  19.792   6.450
 8364POPC   D2A51160  22.191  19.881   6.750
 8364POPC   C3A51161  22.119  19.840   7.050
 8364POPC   C4A51162  22.158  19.871   7.350
 8364POPC   C1B51163  21.979  19.734   6.450
 8364POPC   C2B51164  21.953  19.752   6.750
 8364POPC   C3B51165  21.934  19.729   7.050
 8364POPC   C4B51166  21.921  19.699   7.350
 8365POPC   NC351167  43.099  21.379   5.550
 8365POPC   PO451168  43.142  21.408   5.850
 8365POPC   GL151169  43.108  21.396   6.150
 8365POPC   GL251170  43.214  21.308   6.150
 8365POPC   C1A51171  43.127  21.412   6.450
 8365POPC   D2A51172  43.152  21.401   6.750
 8365POPC   C3A51173  43.130  21.411   7.050
 8365POPC   C4A51174  43.134  21.403   7.350
 8365POPC   C1B51175  43.346  21.290   6.450
 8365POPC   C2B51176  43.301  21.248   6.750
 8365POPC   C3B51177  43.321  21.256   7.050
 8365POPC   C4B51178  43.312  21.274   7.350
 8366POPC   NC351179  20.659  12.067   5.550
 8366POPC   PO451180  20.603  12.044   5.850
 8366POPC   GL151181  20.651  12.035   6.150
 8366POPC   GL251182  20.514  12.084   6.150
 8366POPC   C1A51183  20.585  12.075   6.450
 8366POPC   D2A51184  20.633  12.089   6.750
 8366POPC   C3A51185  20.603  12.049   7.050
 8366POPC   C4A51186  20.641  12.103   7.350
 8366POPC   C1B51187  20.385  12.070   6.450
 8366POPC   C2B51188  20.378  12.041   6.750
 8366POPC   C3B51189  20.352  12.008   7.050
 8366POPC   C4B51190  20.338  12.047   7.350
 8367POPC   NC351191  44.697  22.948   5.550
 8367POPC   PO451192  44.685  22.915   5.850
 8367POPC   GL151193  44.698  22.981   6.150
 8367POPC   GL251194  44.569  22.927   6.150
 8367POPC   C1A51195  44.673  22.946   6.450
 8367POPC   D2A51196  44.649  22.943   6.750
 8367POPC   C3A51197  44.650  22.932   7.050
 8367POPC   C4A51198  44.662  22.968   7.350
 8367POPC   C1B51199  44.380  22.857   6.450
 8367POPC   C2B51200  44.400  22.901   6.750
 8367POPC   C3B51201  44.370  22.886   7.050
 8367POPC   C4B51202  44.381  22.871   7.350
 8368POPC   NC351203  30.740  15.143   5.550
 8368POPC   PO451204  30.701  15.203   5.850
 8368POPC   GL151205  30.719  15.200   6.150
 8368POPC   GL251206  30.712  15.320   6.150
 8368POPC   C1A51207  30.725  15.178   6.450
 8368POPC   D2A51208  30.743  15.218   6.750
 8368POPC   C3A51209  30.728  15.199   7.050
 8368POPC   C4A51210  30.744  15.224   7.350
 8368POPC   C1B51211  30.743  15.426   6.450
 8368POPC   C2B51212  30.698  15.478   6.750
 8368POPC   C3B51213  30.730  15.442   7.050
 8368POPC   C4B51214  30.679  15.406   7.350
 8369POPC   NC351215  11.315  19.857   5.550
 8369POPC   PO451216  11.254  19.789   5.850
 8369POPC   GL151217  11.308  19.809   6.150
 8369POPC   GL251218  11.165  19.913   6.150
 8369POPC   C1A51219  11.286  19.865   6.450
 8369POPC   D2A51220  11.341  19.824   6.750
 8369POPC   C3A51221  11.295  19.847   7.050
 8369POPC   C4A51222  11.348  19.840   7.350
 8369POPC   C1B51223  11.117  20.053   6.450
 8369POPC   C2B51224  11.094  20.052   6.750
 8369POPC   C3B51225  11.121  19.984   7.050
 8369POPC   C4B51226  11.155  20.011   7.350
 8370POPC   NC351227  12.877  41.524   5.550
 8370POPC   PO451228  12.900  41.527   5.850
 8370POPC   GL151229  12.889  41.511   6.150
 8370POPC   GL251230  12.961  41.542   6.150
 8370POPC   C1A51231  12.828  41.515   6.450
 8370POPC   D2A51232  12.854  41.549   6.750
 8370POPC   C3A51233  12.806  41.557   7.050
 8370POPC   C4A51234  12.856  41.578   7.350
 8370POPC   C1B51235  13.068  41.514   6.450
 8370POPC   C2B51236  13.139  41.494   6.750
 8370POPC   C3B51237  13.118  41.494   7.050
 8370POPC   C4B51238  13.057  41.508   7.350
 8371POPC   NC351239  20.598  33.833   5.550
 8371POPC   PO451240  20.566  33.755   5.850
 8371POPC   GL151241  20.643  33.832   6.150
 8371POPC   GL251242  20.617  33.948   6.150
 8371POPC   C1A51243  20.659  33.799   6.450
 8371POPC   D2A51244  20.647  33.808   6.750
 8371POPC   C3A51245  20.635  33.841   7.050
 8371POPC   C4A51246  20.562  33.780   7.350
 8371POPC   C1B51247  20.696  34.010   6.450
 8371POPC   C2B51248  20.640  34.086   6.750
 8371POPC   C3B51249  20.685  34.016   7.050
 8371POPC   C4B51250  20.614  34.036   7.350
 8372POPC   NC351251  19.799  41.586   5.550
 8372POPC   PO451252  19.872  41.524   5.850
 8372POPC   GL151253  19.811  41.545   6.150
 8372POPC   GL251254  19.779  41.659   6.150
 8372POPC   C1A51255  19.849  41.511   6.450
 8372POPC   D2A51256  19.878  41.602   6.750
 8372POPC   C3A51257  19.812  41.532   7.050
 8372POPC   C4A51258  19.819  41.546   7.350
 8372POPC   C1B51259  19.619  41.742   6.450
 8372POPC   C2B51260  19.610  41.729   6.750
 8372POPC   C3B51261  19.639  41.733   7.050
 8372POPC   C4B51262  19.637  41.738   7.350
 8373POPC   NC351263   1.959  31.494   5.550
 8373POPC   PO451264   1.995  31.446   5.850
 8373POPC   GL151265   1.960  31.477   6.150
 8373POPC   GL251266   1.984  31.324   6.150
 8373POPC   C1A51267   1.943  31.440   6.450
 8373POPC   D2A51268   1.993  31.428   6.750
 8373POPC   C3A51269   1.977  31.477   7.050
 8373POPC   C4A51270   2.002  31.472   7.350
 8373POPC   C1B51271   1.962  31.182   6.450
 8373POPC   C2B51272   2.036  31.258   6.750
 8373POPC   C3B51273   2.009  31.269   7.050
 8373POPC   C4B51274   1.956  31.211   7.350
 8374POPC   NC351275  24.511  14.374   5.550
 8374POPC   PO451276  24.457  14.430   5.850
 8374POPC   GL151277  24.539  14.381   6.150
 8374POPC   GL251278  24.352  14.442   6.150
 8374POPC   C1A51279  24.463  14.434   6.450
 8374POPC   D2A51280  24.456  14.424   6.750
 8374POPC   C3A51281  24.515  14.418   7.050
 8374POPC   C4A51282  24.536  14.449   7.350
 8374POPC   C1B51283  24.329  14.588   6.450
 8374POPC   C2B51284  24.273  14.615   6.750
 8374POPC   C3B51285  24.256  14.561   7.050
 8374POPC   C4B51286  24.271  14.588   7.350
 8375POPC   NC351287  44.635  27.628   5.550
 8375POPC   PO451288  44.620  27.557   5.850
 8375POPC   GL151289  44.699  27.634   6.150
 8375POPC   GL251290  44.737  27.544   6.150
 8375POPC   C1A51291  44.693  27.561   6.450
 8375POPC   D2A51292  44.669  27.636   6.750
 8375POPC   C3A51293  44.702  27.618   7.050
 8375POPC   C4A51294  44.658  27.607   7.350
 8375POPC   C1B51295  44.888  27.446   6.450
 8375POPC   C2B51296  44.895  27.506   6.750
 8375POPC   C3B51297  44.867  27.422   7.050
 8375POPC   C4B51298  44.868  27.490   7.350
 8376POPC   NC351299   8.160  23.688   5.550
 8376POPC   PO451300   8.193  23.735   5.850
 8376POPC   GL151301   8.163  23.701   6.150
 8376POPC   GL251302   8.252  23.556   6.150
 8376POPC   C1A51303   8.173  23.723   6.450
 8376POPC   D2A51304   8.234  23.740   6.750
 8376POPC   C3A51305   8.165  23.684   7.050
 8376POPC   C4A51306   8.205  23.756   7.350
 8376POPC   C1B51307   8.265  23.444   6.450
 8376POPC   C2B51308   8.254  23.490   6.750
 8376POPC   C3B51309   8.246  23.495   7.050
 8376POPC   C4B51310   8.196  23.453   7.350
 8377POPC   NC351311  40.818   0.451   5.550
 8377POPC   PO451312  40.813   0.448   5.850
 8377POPC   GL151313  40.741   0.478   6.150
 8377POPC   GL251314  40.774   0.298   6.150
 8377POPC   C1A51315  40.756   0.439   6.450
 8377POPC   D2A51316  40.816   0.481   6.750
 8377POPC   C3A51317  40.802   0.390   7.050
 8377POPC   C4A51318  40.797   0.389   7.350
 8377POPC   C1B51319  40.858   0.160   6.450
 8377POPC   C2B51320  40.787   0.221   6.750
 8377POPC   C3B51321  40.822   0.188   7.050
 8377POPC   C4B51322  40.777   0.214   7.350
 8378POPC   NC351323  29.139  15.986   5.550
 8378POPC   PO451324  29.180  15.983   5.850
 8378POPC   GL151325  29.180  15.939   6.150
 8378POPC   GL251326  28.984  16.017   6.150
 8378POPC   C1A51327  29.149  15.984   6.450
 8378POPC   D2A51328  29.096  15.959   6.750
 8378POPC   C3A51329  29.171  15.945   7.050
 8378POPC   C4A51330  29.156  15.917   7.350
 8378POPC   C1B51331  28.887  16.059   6.450
 8378POPC   C2B51332  28.903  16.003   6.750
 8378POPC   C3B51333  28.945  16.032   7.050
 8378POPC   C4B51334  28.940  16.073   7.350
 8379POPC   NC351335  26.774  40.825   5.550
 8379POPC   PO451336  26.808  40.802   5.850
 8379POPC   GL151337  26.790  40.794   6.150
 8379POPC   GL251338  26.925  40.704   6.150
 8379POPC   C1A51339  26.827  40.832   6.450
 8379POPC   D2A51340  26.812  40.751   6.750
 8379POPC   C3A51341  26.828  40.764   7.050
 8379POPC   C4A51342  26.837  40.749   7.350
 8379POPC   C1B51343  26.959  40.641   6.450
 8379POPC   C2B51344  27.017  40.621   6.750
 8379POPC   C3B51345  26.934  40.625   7.050
 8379POPC   C4B51346  26.995  40.557   7.350
 8380POPC   NC351347   7.448  24.448   5.550
 8380POPC   PO451348   7.422  24.470   5.850
 8380POPC   GL151349   7.460  24.486   6.150
 8380POPC   GL251350   7.478  24.404   6.150
 8380POPC   C1A51351   7.461  24.532   6.450
 8380POPC   D2A51352   7.373  24.469   6.750
 8380POPC   C3A51353   7.375  24.533   7.050
 8380POPC   C4A51354   7.430  24.480   7.350
 8380POPC   C1B51355   7.630  24.374   6.450
 8380POPC   C2B51356   7.625  24.328   6.750
 8380POPC   C3B51357   7.637  24.289   7.050
 8380POPC   C4B51358   7.639  24.362   7.350
 8381POPC   NC351359   8.942  20.628   5.550
 8381POPC   PO451360   8.978  20.635   5.850
 8381POPC   GL151361   8.924  20.610   6.150
 8381POPC   GL251362   9.008  20.677   6.150
 8381POPC   C1A51363   8.974  20.598   6.450
 8381POPC   D2A51364   8.941  20.598   6.750
 8381POPC   C3A51365   9.022  20.630   7.050
 8381POPC   C4A51366   8.932  20.612   7.350
 8381POPC   C1B51367   9.068  20.814   6.450
 8381POPC   C2B51368   9.089  20.838   6.750
 8381POPC   C3B51369   9.117  20.854   7.050
 8381POPC   C4B51370   9.049  20.800   7.350
 8382POPC   NC351371  29.936  30.733   5.550
 8382POPC   PO451372  29.894  30.740   5.850
 8382POPC   GL151373  29.927  30.671   6.150
 8382POPC   GL251374  29.964  30.810   6.150
 8382POPC   C1A51375  29.944  30.694   6.450
 8382POPC   D2A51376  29.956  30.647   6.750
 8382POPC   C3A51377  29.958  30.656   7.050
 8382POPC   C4A51378  29.914  30.678   7.350
 8382POPC   C1B51379  29.995  30.925   6.450
 8382POPC   C2B51380  30.019  30.974   6.750
 8382POPC   C3B51381  29.933  30.984   7.050
 8382POPC   C4B51382  29.950  30.896   7.350
 8383POPC   NC351383  14.359   2.006   5.550
 8383POPC   PO451384  14.450   2.025   5.850
 8383POPC   GL151385  14.387   2.027   6.150
 8383POPC   GL251386  14.474   2.080   6.150
 8383POPC   C1A51387  14.379   2.001   6.450
 8383POPC   D2A51388  14.391   1.955   6.750
 8383POPC   C3A51389  14.381   1.976   7.050
 8383POPC   C4A51390  14.357   1.969   7.350
 8383POPC   C1B51391  14.604   2.155   6.450
 8383POPC   C2B51392  14.616   2.170   6.750
 8383POPC   C3B51393  14.540   2.174   7.050
 8383POPC   C4B51394  14.608   2.182   7.350
 8384POPC   NC351395  19.866  17.499   5.550
 8384POPC   PO451396  19.864  17.526   5.850
 8384POPC   GL151397  19.832  17.475   6.150
 8384POPC   GL251398  19.776  17.618   6.150
 8384POPC   C1A51399  19.793  17.530   6.450
 8384POPC   D2A51400  19.860  17.505   6.750
 8384POPC   C3A51401  19.871  17.482   7.050
 8384POPC   C4A51402  19.793  17.483   7.350
 8384POPC   C1B51403  19.726  17.730   6.450
 8384POPC   C2B51404  19.722  17.745   6.750
 8384POPC   C3B51405  19.692  17.713   7.050
 8384POPC   C4B51406  19.718  17.681   7.350
 8385POPC   NC351407  12.051   5.134   5.550
 8385POPC   PO451408  12.064   5.077   5.850
 8385POPC   GL151409  12.058   5.097   6.150
 8385POPC   GL251410  11.984   5.074   6.150
 8385POPC   C1A51411  12.122   5.119   6.450
 8385POPC   D2A51412  12.118   5.109   6.750
 8385POPC   C3A51413  12.049   5.129   7.050
 8385POPC   C4A51414  12.040   5.066   7.350
 8385POPC   C1B51415  11.852   5.114   6.450
 8385POPC   C2B51416  11.853   5.138   6.750
 8385POPC   C3B51417  11.802   5.135   7.050
 8385POPC   C4B51418  11.862   5.158   7.350
 8386POPC   NC351419  28.358  35.347   5.550
 8386POPC   PO451420  28.371  35.398   5.850
 8386POPC   GL151421  28.322  35.324   6.150
 8386POPC   GL251422  28.276  35.265   6.150
 8386POPC   C1A51423  28.339  35.400   6.450
 8386POPC   D2A51424  28.320  35.361   6.750
 8386POPC   C3A51425  28.353  35.355   7.050
 8386POPC   C4A51426  28.334  35.384   7.350
 8386POPC   C1B51427  28.246  35.135   6.450
 8386POPC   C2B51428  28.231  35.155   6.750
 8386POPC   C3B51429  28.307  35.169   7.050
 8386POPC   C4B51430  28.223  35.122   7.350
 8387POPC   NC351431  22.962  13.652   5.550
 8387POPC   PO451432  22.979  13.628   5.850
 8387POPC   GL151433  22.916  13.626   6.150
 8387POPC   GL251434  23.071  13.666   6.150
 8387POPC   C1A51435  22.956  13.592   6.450
 8387POPC   D2A51436  22.979  13.597   6.750
 8387POPC   C3A51437  22.979  13.663   7.050
 8387POPC   C4A51438  22.928  13.623   7.350
 8387POPC   C1B51439  23.164  13.758   6.450
 8387POPC   C2B51440  23.187  13.713   6.750
 8387POPC   C3B51441  23.193  13.740   7.050
 8387POPC   C4B51442  23.169  13.783   7.350
 8388POPC   NC351443  19.812  43.145   5.550
 8388POPC   PO451444  19.826  43.147   5.850
 8388POPC   GL151445  19.800  43.082   6.150
 8388POPC   GL251446  19.947  43.074   6.150
 8388POPC   C1A51447  19.818  43.107   6.450
 8388POPC   D2A51448  19.865  43.081   6.750
 8388POPC   C3A51449  19.881  43.071   7.050
 8388POPC   C4A51450  19.881  43.115   7.350
 8388POPC   C1B51451  20.078  43.003   6.450
 8388POPC   C2B51452  20.047  42.925   6.750
 8388POPC   C3B51453  20.090  42.996   7.050
 8388POPC   C4B51454  20.082  43.012   7.350
 8389POPC   NC351455  12.890  31.423   5.550
 8389POPC   PO451456  12.828  31.494   5.850
 8389POPC   GL151457  12.887  31.475   6.150
 8389POPC   GL251458  12.757  31.434   6.150
 8389POPC   C1A51459  12.867  31.490   6.450
 8389POPC   D2A51460  12.864  31.455   6.750
 8389POPC   C3A51461  12.863  31.494   7.050
 8389POPC   C4A51462  12.807  31.427   7.350
 8389POPC   C1B51463  12.688  31.271   6.450
 8389POPC   C2B51464  12.718  31.332   6.750
 8389POPC   C3B51465  12.718  31.280   7.050
 8389POPC   C4B51466  12.705  31.322   7.350
 8390POPC   NC351467  37.681  22.971   5.550
 8390POPC   PO451468  37.714  22.917   5.850
 8390POPC   GL151469  37.667  22.964   6.150
 8390POPC   GL251470  37.595  22.978   6.150
 8390POPC   C1A51471  37.680  22.908   6.450
 8390POPC   D2A51472  37.705  22.983   6.750
 8390POPC   C3A51473  37.707  22.924   7.050
 8390POPC   C4A51474  37.724  22.933   7.350
 8390POPC   C1B51475  37.525  23.080   6.450
 8390POPC   C2B51476  37.530  23.125   6.750
 8390POPC   C3B51477  37.525  23.129   7.050
 8390POPC   C4B51478  37.481  23.096   7.350
 8391POPC   NC351479   5.872   9.709   5.550
 8391POPC   PO451480   5.853   9.770   5.850
 8391POPC   GL151481   5.873   9.787   6.150
 8391POPC   GL251482   5.799   9.609   6.150
 8391POPC   C1A51483   5.894   9.716   6.450
 8391POPC   D2A51484   5.826   9.733   6.750
 8391POPC   C3A51485   5.848   9.747   7.050
 8391POPC   C4A51486   5.894   9.718   7.350
 8391POPC   C1B51487   5.796   9.484   6.450
 8391POPC   C2B51488   5.791   9.528   6.750
 8391POPC   C3B51489   5.794   9.524   7.050
 8391POPC   C4B51490   5.755   9.535   7.350
 8392POPC   NC351491   5.078   0.481   5.550
 8392POPC   PO451492   5.056   0.392   5.850
 8392POPC   GL151493   5.130   0.476   6.150
 8392POPC   GL251494   5.111   0.345   6.150
 8392POPC   C1A51495   5.123   0.451   6.450
 8392POPC   D2A51496   5.052   0.405   6.750
 8392POPC   C3A51497   5.083   0.398   7.050
 8392POPC   C4A51498   5.128   0.462   7.350
 8392POPC   C1B51499   5.080   0.231   6.450
 8392POPC   C2B51500   5.080   0.164   6.750
 8392POPC   C3B51501   5.089   0.140   7.050
 8392POPC   C4B51502   5.070   0.192   7.350
 8393POPC   NC351503   2.759  44.628   5.550
 8393POPC   PO451504   2.774  44.694   5.850
 8393POPC   GL151505   2.717  44.693   6.150
 8393POPC   GL251506   2.689  44.598   6.150
 8393POPC   C1A51507   2.725  44.676   6.450
 8393POPC   D2A51508   2.803  44.662   6.750
 8393POPC   C3A51509   2.787  44.701   7.050
 8393POPC   C4A51510   2.754  44.660   7.350
 8393POPC   C1B51511   2.636  44.474   6.450
 8393POPC   C2B51512   2.584  44.460   6.750
 8393POPC   C3B51513   2.574  44.511   7.050
 8393POPC   C4B51514   2.608  44.481   7.350
 8394POPC   NC351515  38.432   1.250   5.550
 8394POPC   PO451516  38.410   1.218   5.850
 8394POPC   GL151517  38.441   1.228   6.150
 8394POPC   GL251518  38.567   1.269   6.150
 8394POPC   C1A51519  38.502   1.214   6.450
 8394POPC   D2A51520  38.470   1.250   6.750
 8394POPC   C3A51521  38.484   1.239   7.050
 8394POPC   C4A51522  38.427   1.253   7.350
 8394POPC   C1B51523  38.576   1.403   6.450
 8394POPC   C2B51524  38.576   1.402   6.750
 8394POPC   C3B51525  38.588   1.419   7.050
 8394POPC   C4B51526  38.545   1.402   7.350
 8395POPC   NC351527  40.035  22.968   5.550
 8395POPC   PO451528  39.996  22.973   5.850
 8395POPC   GL151529  40.025  22.915   6.150
 8395POPC   GL251530  40.108  22.900   6.150
 8395POPC   C1A51531  40.043  22.890   6.450
 8395POPC   D2A51532  40.056  22.948   6.750
 8395POPC   C3A51533  39.966  22.987   7.050
 8395POPC   C4A51534  40.024  22.923   7.350
 8395POPC   C1B51535  40.234  22.850   6.450
 8395POPC   C2B51536  40.288  22.897   6.750
 8395POPC   C3B51537  40.281  22.852   7.050
 8395POPC   C4B51538  40.265  22.879   7.350
 8396POPC   NC351539  35.382   1.224   5.550
 8396POPC   PO451540  35.386   1.179   5.850
 8396POPC   GL151541  35.332   1.251   6.150
 8396POPC   GL251542  35.265   1.137   6.150
 8396POPC   C1A51543  35.314   1.171   6.450
 8396POPC   D2A51544  35.319   1.219   6.750
 8396POPC   C3A51545  35.315   1.204   7.050
 8396POPC   C4A51546  35.332   1.218   7.350
 8396POPC   C1B51547  35.086   1.104   6.450
 8396POPC   C2B51548  35.133   1.186   6.750
 8396POPC   C3B51549  35.090   1.141   7.050
 8396POPC   C4B51550  35.137   1.107   7.350
 8397POPC   NC351551  19.047  26.039   5.550
 8397POPC   PO451552  19.093  26.058   5.850
 8397POPC   GL151553  19.028  26.082   6.150
 8397POPC   GL251554  19.181  26.099   6.150
 8397POPC   C1A51555  19.056  26.039   6.450
 8397POPC   D2A51556  19.069  26.041   6.750
 8397POPC   C3A51557  19.070  26.039   7.050
 8397POPC   C4A51558  19.063  26.039   7.350
 8397POPC   C1B51559  19.308  26.175   6.450
 8397POPC   C2B51560  19.288  26.163   6.750
 8397POPC   C3B51561  19.235  26.165   7.050
 8397POPC   C4B51562  19.219  26.222   7.350
 8398POPC   NC351563  34.531  20.595   5.550
 8398POPC   PO451564  34.584  20.580   5.850
 8398POPC   GL151565  34.541  20.641   6.150
 8398POPC   GL251566  34.641  20.728   6.150
 8398POPC   C1A51567  34.537  20.644   6.450
 8398POPC   D2A51568  34.600  20.633   6.750
 8398POPC   C3A51569  34.582  20.648   7.050
 8398POPC   C4A51570  34.548  20.613   7.350
 8398POPC   C1B51571  34.730  20.838   6.450
 8398POPC   C2B51572  34.737  20.781   6.750
 8398POPC   C3B51573  34.723  20.791   7.050
 8398POPC   C4B51574  34.682  20.817   7.350
 8399POPC   NC351575  31.446   9.757   5.550
 8399POPC   PO451576  31.452   9.699   5.850
 8399POPC   GL151577  31.451   9.776   6.150
 8399POPC   GL251578  31.616   9.704   6.150
 8399POPC   C1A51579  31.430   9.773   6.450
 8399POPC   D2A51580  31.471   9.795   6.750
 8399POPC   C3A51581  31.432   9.707   7.050
 8399POPC   C4A51582  31.455   9.724   7.350
 8399POPC   C1B51583  31.726   9.653   6.450
 8399POPC   C2B51584  31.654   9.610   6.750
 8399POPC   C3B51585  31.713   9.603   7.050
 8399POPC   C4B51586  31.639   9.589   7.350
 8400POPC   NC351587  43.884  31.519   5.550
 8400POPC   PO451588  43.919  31.448   5.850
 8400POPC   GL151589  43.839  31.424   6.150
 8400POPC   GL251590  43.844  31.568   6.150
 8400POPC   C1A51591  43.857  31.502   6.450
 8400POPC   D2A51592  43.925  31.428   6.750
 8400POPC   C3A51593  43.929  31.496   7.050
 8400POPC   C4A51594  43.860  31.456   7.350
 8400POPC   C1B51595  43.899  31.705   6.450
 8400POPC   C2B51596  43.842  31.674   6.750
 8400POPC   C3B51597  43.841  31.739   7.050
 8400POPC   C4B51598  43.865  31.739   7.350
 8401POPC   NC351599  32.995  26.859   5.550
 8401POPC   PO451600  33.065  26.792   5.850
 8401POPC   GL151601  33.040  26.847   6.150
 8401POPC   GL251602  32.945  26.902   6.150
 8401POPC   C1A51603  33.037  26.772   6.450
 8401POPC   D2A51604  32.979  26.774   6.750
 8401POPC   C3A51605  32.989  26.839   7.050
 8401POPC   C4A51606  33.046  26.779   7.350
 8401POPC   C1B51607  32.893  27.039   6.450
 8401POPC   C2B51608  32.919  27.047   6.750
 8401POPC   C3B51609  32.974  27.080   7.050
 8401POPC   C4B51610  32.894  27.069   7.350
 8402POPC   NC351611   3.542  36.151   5.550
 8402POPC   PO451612   3.506  36.174   5.850
 8402POPC   GL151613   3.536  36.177   6.150
 8402POPC   GL251614   3.534  35.981   6.150
 8402POPC   C1A51615   3.565  36.139   6.450
 8402POPC   D2A51616   3.568  36.082   6.750
 8402POPC   C3A51617   3.525  36.152   7.050
 8402POPC   C4A51618   3.507  36.130   7.350
 8402POPC   C1B51619   3.538  35.930   6.450
 8402POPC   C2B51620   3.608  35.863   6.750
 8402POPC   C3B51621   3.586  35.898   7.050
 8402POPC   C4B51622   3.571  35.840   7.350
 8403POPC   NC351623   4.290  35.365   5.550
 8403POPC   PO451624   4.357  35.389   5.850
 8403POPC   GL151625   4.327  35.341   6.150
 8403POPC   GL251626   4.234  35.222   6.150
 8403POPC   C1A51627   4.314  35.342   6.450
 8403POPC   D2A51628   4.359  35.332   6.750
 8403POPC   C3A51629   4.294  35.337   7.050
 8403POPC   C4A51630   4.284  35.335   7.350
 8403POPC   C1B51631   4.247  35.121   6.450
 8403POPC   C2B51632   4.190  35.141   6.750
 8403POPC   C3B51633   4.207  35.141   7.050
 8403POPC   C4B51634   4.249  35.130   7.350
 8404POPC   NC351635   8.929  23.672   5.550
 8404POPC   PO451636   8.969  23.728   5.850
 8404POPC   GL151637   8.934  23.666   6.150
 8404POPC   GL251638   9.036  23.646   6.150
 8404POPC   C1A51639   8.971  23.698   6.450
 8404POPC   D2A51640   8.936  23.738   6.750
 8404POPC   C3A51641   8.951  23.685   7.050
 8404POPC   C4A51642   8.992  23.706   7.350
 8404POPC   C1B51643   9.215  23.553   6.450
 8404POPC   C2B51644   9.210  23.594   6.750
 8404POPC   C3B51645   9.221  23.558   7.050
 8404POPC   C4B51646   9.194  23.629   7.350
 8405POPC   NC351647  12.803  28.364   5.550
 8405POPC   PO451648  12.835  28.342   5.850
 8405POPC   GL151649  12.853  28.412   6.150
 8405POPC   GL251650  13.000  28.281   6.150
 8405POPC   C1A51651  12.874  28.334   6.450
 8405POPC   D2A51652  12.817  28.361   6.750
 8405POPC   C3A51653  12.827  28.360   7.050
 8405POPC   C4A51654  12.803  28.368   7.350
 8405POPC   C1B51655  13.088  28.225   6.450
 8405POPC   C2B51656  13.051  28.284   6.750
 8405POPC   C3B51657  13.071  28.245   7.050
 8405POPC   C4B51658  13.038  28.249   7.350
 8406POPC   NC351659   4.320  26.048   5.550
 8406POPC   PO451660   4.322  26.011   5.850
 8406POPC   GL151661   4.268  26.053   6.150
 8406POPC   GL251662   4.463  26.015   6.150
 8406POPC   C1A51663   4.273  26.056   6.450
 8406POPC   D2A51664   4.282  26.053   6.750
 8406POPC   C3A51665   4.341  26.064   7.050
 8406POPC   C4A51666   4.310  26.015   7.350
 8406POPC   C1B51667   4.530  25.928   6.450
 8406POPC   C2B51668   4.558  25.911   6.750
 8406POPC   C3B51669   4.505  25.918   7.050
 8406POPC   C4B51670   4.479  25.915   7.350
 8407POPC   NC351671  22.893  24.475   5.550
 8407POPC   PO451672  22.977  24.459   5.850
 8407POPC   GL151673  22.983  24.478   6.150
 8407POPC   GL251674  22.850  24.634   6.150
 8407POPC   C1A51675  22.910  24.454   6.450
 8407POPC   D2A51676  22.964  24.485   6.750
 8407POPC   C3A51677  22.923  24.473   7.050
 8407POPC   C4A51678  22.961  24.530   7.350
 8407POPC   C1B51679  22.804  24.730   6.450
 8407POPC   C2B51680  22.814  24.666   6.750
 8407POPC   C3B51681  22.799  24.643   7.050
 8407POPC   C4B51682  22.778  24.725   7.350
 8408POPC   NC351683  33.775  43.894   5.550
 8408POPC   PO451684  33.770  43.894   5.850
 8408POPC   GL151685  33.831  43.839   6.150
 8408POPC   GL251686  33.880  43.922   6.150
 8408POPC   C1A51687  33.827  43.837   6.450
 8408POPC   D2A51688  33.759  43.871   6.750
 8408POPC   C3A51689  33.757  43.874   7.050
 8408POPC   C4A51690  33.805  43.890   7.350
 8408POPC   C1B51691  34.053  43.971   6.450
 8408POPC   C2B51692  34.068  43.985   6.750
 8408POPC   C3B51693  34.047  43.941   7.050
 8408POPC   C4B51694  34.008  43.925   7.350
 8409POPC   NC351695   4.279  29.905   5.550
 8409POPC   PO451696   4.325  29.959   5.850
 8409POPC   GL151697   4.328  29.893   6.150
 8409POPC   GL251698   4.275  30.027   6.150
 8409POPC   C1A51699   4.313  29.906   6.450
 8409POPC   D2A51700   4.344  29.883   6.750
 8409POPC   C3A51701   4.272  29.902   7.050
 8409POPC   C4A51702   4.297  29.885   7.350
 8409POPC   C1B51703   4.251  30.139   6.450
 8409POPC   C2B51704   4.198  30.159   6.750
 8409POPC   C3B51705   4.193  30.149   7.050
 8409POPC   C4B51706   4.205  30.187   7.350
 8410POPC   NC351707  28.370  41.600   5.550
 8410POPC   PO451708  28.320  41.570   5.850
 8410POPC   GL151709  28.334  41.520   6.150
 8410POPC   GL251710  28.472  41.614   6.150
 8410POPC   C1A51711  28.333  41.539   6.450
 8410POPC   D2A51712  28.399  41.530   6.750
 8410POPC   C3A51713  28.320  41.592   7.050
 8410POPC   C4A51714  28.367  41.540   7.350
 8410POPC   C1B51715  28.636  41.561   6.450
 8410POPC   C2B51716  28.649  41.595   6.750
 8410POPC   C3B51717  28.604  41.541   7.050
 8410POPC   C4B51718  28.630  41.622   7.350
 8411POPC   NC351719  39.270  36.912   5.550
 8411POPC   PO451720  39.207  36.887   5.850
 8411POPC   GL151721  39.240  36.901   6.150
 8411POPC   GL251722  39.254  37.037   6.150
 8411POPC   C1A51723  39.210  36.939   6.450
 8411POPC   D2A51724  39.216  36.897   6.750
 8411POPC   C3A51725  39.235  36.933   7.050
 8411POPC   C4A51726  39.222  36.949   7.350
 8411POPC   C1B51727  39.215  37.171   6.450
 8411POPC   C2B51728  39.207  37.178   6.750
 8411POPC   C3B51729  39.149  37.157   7.050
 8411POPC   C4B51730  39.224  37.149   7.350
 8412POPC   NC351731   5.122   8.930   5.550
 8412POPC   PO451732   5.047   8.956   5.850
 8412POPC   GL151733   5.051   8.998   6.150
 8412POPC   GL251734   5.191   8.964   6.150
 8412POPC   C1A51735   5.071   8.945   6.450
 8412POPC   D2A51736   5.057   8.996   6.750
 8412POPC   C3A51737   5.057   8.996   7.050
 8412POPC   C4A51738   5.118   9.012   7.350
 8412POPC   C1B51739   5.313   8.895   6.450
 8412POPC   C2B51740   5.309   8.950   6.750
 8412POPC   C3B51741   5.389   8.961   7.050
 8412POPC   C4B51742   5.307   8.915   7.350
 8413POPC   NC351743  39.243  12.895   5.550
 8413POPC   PO451744  39.227  12.872   5.850
 8413POPC   GL151745  39.247  12.828   6.150
 8413POPC   GL251746  39.329  12.861   6.150
 8413POPC   C1A51747  39.234  12.804   6.450
 8413POPC   D2A51748  39.268  12.808   6.750
 8413POPC   C3A51749  39.269  12.834   7.050
 8413POPC   C4A51750  39.245  12.881   7.350
 8413POPC   C1B51751  39.443  12.774   6.450
 8413POPC   C2B51752  39.439  12.766   6.750
 8413POPC   C3B51753  39.422  12.791   7.050
 8413POPC   C4B51754  39.507  12.830   7.350
 8414POPC   NC351755   4.300  44.706   5.550
 8414POPC   PO451756   4.339  44.651   5.850
 8414POPC   GL151757   4.364  44.653   6.150
 8414POPC   GL251758   4.277  44.540   6.150
 8414POPC   C1A51759   4.343  44.692   6.450
 8414POPC   D2A51760   4.330  44.642   6.750
 8414POPC   C3A51761   4.315  44.667   7.050
 8414POPC   C4A51762   4.364  44.612   7.350
 8414POPC   C1B51763   4.355  44.386   6.450
 8414POPC   C2B51764   4.325  44.457   6.750
 8414POPC   C3B51765   4.308  44.411   7.050
 8414POPC   C4B51766   4.360  44.444   7.350
 8415POPC   NC351767   0.404  35.304   5.550
 8415POPC   PO451768   0.433  35.324   5.850
 8415POPC   GL151769   0.455  35.364   6.150
 8415POPC   GL251770   0.428  35.423   6.150
 8415POPC   C1A51771   0.422  35.380   6.450
 8415POPC   D2A51772   0.443  35.384   6.750
 8415POPC   C3A51773   0.469  35.379   7.050
 8415POPC   C4A51774   0.431  35.340   7.350
 8415POPC   C1B51775   0.389  35.585   6.450
 8415POPC   C2B51776   0.319  35.595   6.750
 8415POPC   C3B51777   0.300  35.579   7.050
 8415POPC   C4B51778   0.352  35.563   7.350
 8416POPC   NC351779  37.675  17.530   5.550
 8416POPC   PO451780  37.661  17.529   5.850
 8416POPC   GL151781  37.671  17.466   6.150
 8416POPC   GL251782  37.830  17.476   6.150
 8416POPC   C1A51783  37.686  17.543   6.450
 8416POPC   D2A51784  37.678  17.476   6.750
 8416POPC   C3A51785  37.678  17.508   7.050
 8416POPC   C4A51786  37.660  17.540   7.350
 8416POPC   C1B51787  37.911  17.443   6.450
 8416POPC   C2B51788  37.903  17.475   6.750
 8416POPC   C3B51789  37.974  17.502   7.050
 8416POPC   C4B51790  37.949  17.442   7.350
 8417POPC   NC351791  12.079  19.850   5.550
 8417POPC   PO451792  12.098  19.863   5.850
 8417POPC   GL151793  12.045  19.821   6.150
 8417POPC   GL251794  12.003  19.778   6.150
 8417POPC   C1A51795  12.073  19.866   6.450
 8417POPC   D2A51796  12.081  19.842   6.750
 8417POPC   C3A51797  12.028  19.875   7.050
 8417POPC   C4A51798  12.053  19.787   7.350
 8417POPC   C1B51799  11.882  19.682   6.450
 8417POPC   C2B51800  11.872  19.683   6.750
 8417POPC   C3B51801  11.846  19.744   7.050
 8417POPC   C4B51802  11.892  19.738   7.350
 8418POPC   NC351803  43.103  33.831   5.550
 8418POPC   PO451804  43.129  33.777   5.850
 8418POPC   GL151805  43.147  33.828   6.150
 8418POPC   GL251806  43.033  33.674   6.150
 8418POPC   C1A51807  43.108  33.839   6.450
 8418POPC   D2A51808  43.105  33.753   6.750
 8418POPC   C3A51809  43.095  33.812   7.050
 8418POPC   C4A51810  43.096  33.802   7.350
 8418POPC   C1B51811  43.000  33.569   6.450
 8418POPC   C2B51812  42.989  33.533   6.750
 8418POPC   C3B51813  42.995  33.587   7.050
 8418POPC   C4B51814  42.991  33.619   7.350
 8419POPC   NC351815  43.922  23.720   5.550
 8419POPC   PO451816  43.889  23.678   5.850
 8419POPC   GL151817  43.914  23.698   6.150
 8419POPC   GL251818  43.883  23.545   6.150
 8419POPC   C1A51819  43.904  23.672   6.450
 8419POPC   D2A51820  43.847  23.696   6.750
 8419POPC   C3A51821  43.929  23.747   7.050
 8419POPC   C4A51822  43.875  23.693   7.350
 8419POPC   C1B51823  43.807  23.457   6.450
 8419POPC   C2B51824  43.805  23.433   6.750
 8419POPC   C3B51825  43.803  23.476   7.050
 8419POPC   C4B51826  43.840  23.511   7.350
 8420POPC   NC351827   3.535  35.342   5.550
 8420POPC   PO451828   3.558  35.401   5.850
 8420POPC   GL151829   3.523  35.337   6.150
 8420POPC   GL251830   3.459  35.350   6.150
 8420POPC   C1A51831   3.548  35.363   6.450
 8420POPC   D2A51832   3.519  35.356   6.750
 8420POPC   C3A51833   3.588  35.384   7.050
 8420POPC   C4A51834   3.562  35.356   7.350
 8420POPC   C1B51835   3.264  35.341   6.450
 8420POPC   C2B51836   3.314  35.328   6.750
 8420POPC   C3B51837   3.328  35.395   7.050
 8420POPC   C4B51838   3.243  35.345   7.350
 8421POPC   NC351839  35.394  26.008   5.550
 8421POPC   PO451840  35.384  26.004   5.850
 8421POPC   GL151841  35.350  26.047   6.150
 8421POPC   GL251842  35.482  26.122   6.150
 8421POPC   C1A51843  35.363  26.036   6.450
 8421POPC   D2A51844  35.316  26.056   6.750
 8421POPC   C3A51845  35.356  26.032   7.050
 8421POPC   C4A51846  35.321  26.027   7.350
 8421POPC   C1B51847  35.499  26.254   6.450
 8421POPC   C2B51848  35.564  26.216   6.750
 8421POPC   C3B51849  35.524  26.213   7.050
 8421POPC   C4B51850  35.544  26.203   7.350
 8422POPC   NC351851  18.316   2.717   5.550
 8422POPC   PO451852  18.234   2.739   5.850
 8422POPC   GL151853  18.268   2.750   6.150
 8422POPC   GL251854  18.226   2.653   6.150
 8422POPC   C1A51855  18.281   2.746   6.450
 8422POPC   D2A51856  18.331   2.794   6.750
 8422POPC   C3A51857  18.301   2.736   7.050
 8422POPC   C4A51858  18.248   2.794   7.350
 8422POPC   C1B51859  18.046   2.666   6.450
 8422POPC   C2B51860  18.083   2.638   6.750
 8422POPC   C3B51861  18.024   2.598   7.050
 8422POPC   C4B51862  18.100   2.601   7.350
 8423POPC   NC351863  37.700   7.449   5.550
 8423POPC   PO451864  37.678   7.387   5.850
 8423POPC   GL151865  37.650   7.439   6.150
 8423POPC   GL251866  37.605   7.533   6.150
 8423POPC   C1A51867  37.722   7.461   6.450
 8423POPC   D2A51868  37.695   7.450   6.750
 8423POPC   C3A51869  37.668   7.461   7.050
 8423POPC   C4A51870  37.665   7.452   7.350
 8423POPC   C1B51871  37.461   7.604   6.450
 8423POPC   C2B51872  37.461   7.624   6.750
 8423POPC   C3B51873  37.523   7.549   7.050
 8423POPC   C4B51874  37.460   7.562   7.350
 8424POPC   NC351875  19.098  36.175   5.550
 8424POPC   PO451876  19.033  36.102   5.850
 8424POPC   GL151877  19.053  36.124   6.150
 8424POPC   GL251878  19.080  36.294   6.150
 8424POPC   C1A51879  19.090  36.085   6.450
 8424POPC   D2A51880  19.073  36.110   6.750
 8424POPC   C3A51881  19.042  36.156   7.050
 8424POPC   C4A51882  19.089  36.119   7.350
 8424POPC   C1B51883  19.076  36.327   6.450
 8424POPC   C2B51884  19.076  36.408   6.750
 8424POPC   C3B51885  19.070  36.369   7.050
 8424POPC   C4B51886  19.130  36.342   7.350
 8425POPC   NC351887  19.868  38.453   5.550
 8425POPC   PO451888  19.812  38.459   5.850
 8425POPC   GL151889  19.821  38.487   6.150
 8425POPC   GL251890  19.743  38.335   6.150
 8425POPC   C1A51891  19.820  38.434   6.450
 8425POPC   D2A51892  19.848  38.501   6.750
 8425POPC   C3A51893  19.833  38.429   7.050
 8425POPC   C4A51894  19.852  38.415   7.350
 8425POPC   C1B51895  19.695  38.197   6.450
 8425POPC   C2B51896  19.703  38.251   6.750
 8425POPC   C3B51897  19.737  38.274   7.050
 8425POPC   C4B51898  19.728  38.234   7.350
 8426POPC   NC351899  10.564  41.543   5.550
 8426POPC   PO451900  10.557  41.565   5.850
 8426POPC   GL151901  10.486  41.561   6.150
 8426POPC   GL251902  10.469  41.428   6.150
 8426POPC   C1A51903  10.563  41.528   6.450
 8426POPC   D2A51904  10.508  41.593   6.750
 8426POPC   C3A51905  10.567  41.541   7.050
 8426POPC   C4A51906  10.501  41.582   7.350
 8426POPC   C1B51907  10.386  41.368   6.450
 8426POPC   C2B51908  10.451  41.372   6.750
 8426POPC   C3B51909  10.417  41.380   7.050
 8426POPC   C4B51910  10.366  41.357   7.350
 8427POPC   NC351911  28.339   0.467   5.550
 8427POPC   PO451912  28.417   0.412   5.850
 8427POPC   GL151913  28.328   0.457   6.150
 8427POPC   GL251914  28.207   0.348   6.150
 8427POPC   C1A51915  28.413   0.482   6.450
 8427POPC   D2A51916  28.395   0.390   6.750
 8427POPC   C3A51917  28.325   0.476   7.050
 8427POPC   C4A51918  28.324   0.454   7.350
 8427POPC   C1B51919  28.145   0.320   6.450
 8427POPC   C2B51920  28.152   0.348   6.750
 8427POPC   C3B51921  28.129   0.392   7.050
 8427POPC   C4B51922  28.105   0.395   7.350
 8428POPC   NC351923  22.127   6.644   5.550
 8428POPC   PO451924  22.211   6.597   5.850
 8428POPC   GL151925  22.200   6.649   6.150
 8428POPC   GL251926  22.212   6.778   6.150
 8428POPC   C1A51927  22.126   6.641   6.450
 8428POPC   D2A51928  22.167   6.601   6.750
 8428POPC   C3A51929  22.171   6.662   7.050
 8428POPC   C4A51930  22.115   6.608   7.350
 8428POPC   C1B51931  22.209   6.925   6.450
 8428POPC   C2B51932  22.175   6.917   6.750
 8428POPC   C3B51933  22.144   6.916   7.050
 8428POPC   C4B51934  22.189   6.935   7.350
 8429POPC   NC351935  19.060  13.579   5.550
 8429POPC   PO451936  19.023  13.579   5.850
 8429POPC   GL151937  19.090  13.623   6.150
 8429POPC   GL251938  19.152  13.764   6.150
 8429POPC   C1A51939  19.088  13.614   6.450
 8429POPC   D2A51940  19.013  13.666   6.750
 8429POPC   C3A51941  19.066  13.629   7.050
 8429POPC   C4A51942  19.090  13.579   7.350
 8429POPC   C1B51943  19.135  13.895   6.450
 8429POPC   C2B51944  19.121  13.842   6.750
 8429POPC   C3B51945  19.180  13.870   7.050
 8429POPC   C4B51946  19.198  13.868   7.350
 8430POPC   NC351947  43.911  15.187   5.550
 8430POPC   PO451948  43.908  15.224   5.850
 8430POPC   GL151949  43.874  15.181   6.150
 8430POPC   GL251950  43.747  15.200   6.150
 8430POPC   C1A51951  43.894  15.200   6.450
 8430POPC   D2A51952  43.920  15.168   6.750
 8430POPC   C3A51953  43.888  15.193   7.050
 8430POPC   C4A51954  43.917  15.145   7.350
 8430POPC   C1B51955  43.668  15.195   6.450
 8430POPC   C2B51956  43.665  15.210   6.750
 8430POPC   C3B51957  43.609  15.181   7.050
 8430POPC   C4B51958  43.685  15.218   7.350
 8431POPC   NC351959  17.510  44.637   5.550
 8431POPC   PO451960  17.525  44.630   5.850
 8431POPC   GL151961  17.523  44.683   6.150
 8431POPC   GL251962  17.364  44.609   6.150
 8431POPC   C1A51963  17.509  44.656   6.450
 8431POPC   D2A51964  17.504  44.678   6.750
 8431POPC   C3A51965  17.519  44.712   7.050
 8431POPC   C4A51966  17.481  44.711   7.350
 8431POPC   C1B51967  17.308  44.602   6.450
 8431POPC   C2B51968  17.246  44.558   6.750
 8431POPC   C3B51969  17.282  44.566   7.050
 8431POPC   C4B51970  17.278  44.580   7.350
 8432POPC   NC351971  19.874  19.058   5.550
 8432POPC   PO451972  19.799  19.097   5.850
 8432POPC   GL151973  19.841  19.105   6.150
 8432POPC   GL251974  19.918  19.106   6.150
 8432POPC   C1A51975  19.847  19.091   6.450
 8432POPC   D2A51976  19.829  19.037   6.750
 8432POPC   C3A51977  19.863  19.104   7.050
 8432POPC   C4A51978  19.816  19.055   7.350
 8432POPC   C1B51979  20.093  19.170   6.450
 8432POPC   C2B51980  20.103  19.120   6.750
 8432POPC   C3B51981  20.058  19.168   7.050
 8432POPC   C4B51982  20.092  19.165   7.350
 8433POPC   NC351983  36.862   1.249   5.550
 8433POPC   PO451984  36.867   1.221   5.850
 8433POPC   GL151985  36.875   1.167   6.150
 8433POPC   GL251986  36.838   1.248   6.150
 8433POPC   C1A51987  36.945   1.183   6.450
 8433POPC   D2A51988  36.893   1.263   6.750
 8433POPC   C3A51989  36.871   1.242   7.050
 8433POPC   C4A51990  36.894   1.262   7.350
 8433POPC   C1B51991  36.682   1.356   6.450
 8433POPC   C2B51992  36.673   1.319   6.750
 8433POPC   C3B51993  36.725   1.304   7.050
 8433POPC   C4B51994  36.648   1.327   7.350
 8434POPC   NC351995   8.937  15.916   5.550
 8434POPC   PO451996   8.982  16.003   5.850
 8434POPC   GL151997   8.983  15.980   6.150
 8434POPC   GL251998   9.083  16.056   6.150
 8434POPC   C1A51999   8.997  15.957   6.450
 8434POPC   D2A52000   8.985  15.942   6.750
 8434POPC   C3A52001   8.998  15.916   7.050
 8434POPC   C4A52002   8.999  15.983   7.350
 8434POPC   C1B52003   9.119  16.144   6.450
 8434POPC   C2B52004   9.137  16.117   6.750
 8434POPC   C3B52005   9.087  16.126   7.050
 8434POPC   C4B52006   9.158  16.116   7.350
 8435POPC   NC352007   4.281   9.792   5.550
 8435POPC   PO452008   4.336   9.793   5.850
 8435POPC   GL152009   4.284   9.701   6.150
 8435POPC   GL252010   4.276   9.875   6.150
 8435POPC   C1A52011   4.350   9.783   6.450
 8435POPC   D2A52012   4.276   9.754   6.750
 8435POPC   C3A52013   4.364   9.788   7.050
 8435POPC   C4A52014   4.319   9.715   7.350
 8435POPC   C1B52015   4.223  10.012   6.450
 8435POPC   C2B52016   4.210   9.940   6.750
 8435POPC   C3B52017   4.269   9.963   7.050
 8435POPC   C4B52018   4.255   9.962   7.350
 8436POPC   NC352019  33.026  33.001   5.550
 8436POPC   PO452020  32.995  33.033   5.850
 8436POPC   GL152021  33.024  33.056   6.150
 8436POPC   GL252022  33.075  33.154   6.150
 8436POPC   C1A52023  33.010  33.045   6.450
 8436POPC   D2A52024  33.049  33.073   6.750
 8436POPC   C3A52025  33.000  33.029   7.050
 8436POPC   C4A52026  32.980  32.999   7.350
 8436POPC   C1B52027  33.064  33.257   6.450
 8436POPC   C2B52028  33.093  33.278   6.750
 8436POPC   C3B52029  33.059  33.222   7.050
 8436POPC   C4B52030  33.054  33.250   7.350
 8437POPC   NC352031  41.522   1.179   5.550
 8437POPC   PO452032  41.574   1.186   5.850
 8437POPC   GL152033  41.558   1.198   6.150
 8437POPC   GL252034  41.542   1.341   6.150
 8437POPC   C1A52035  41.553   1.229   6.450
 8437POPC   D2A52036  41.595   1.202   6.750
 8437POPC   C3A52037  41.591   1.209   7.050
 8437POPC   C4A52038  41.593   1.249   7.350
 8437POPC   C1B52039  41.574   1.452   6.450
 8437POPC   C2B52040  41.565   1.442   6.750
 8437POPC   C3B52041  41.513   1.474   7.050
 8437POPC   C4B52042  41.520   1.478   7.350
 8438POPC   NC352043  41.512  12.121   5.550
 8438POPC   PO452044  41.579  12.100   5.850
 8438POPC   GL152045  41.587  12.094   6.150
 8438POPC   GL252046  41.536  12.204   6.150
 8438POPC   C1A52047  41.572  12.056   6.450
 8438POPC   D2A52048  41.556  12.055   6.750
 8438POPC   C3A52049  41.555  12.076   7.050
 8438POPC   C4A52050  41.575  12.095   7.350
 8438POPC   C1B52051  41.556  12.344   6.450
 8438POPC   C2B52052  41.628  12.299   6.750
 8438POPC   C3B52053  41.645  12.356   7.050
 8438POPC   C4B52054  41.559  12.302   7.350
 8439POPC   NC352055  32.271  35.327   5.550
 8439POPC   PO452056  32.242  35.392   5.850
 8439POPC   GL152057  32.201  35.322   6.150
 8439POPC   GL252058  32.133  35.301   6.150
 8439POPC   C1A52059  32.290  35.393   6.450
 8439POPC   D2A52060  32.265  35.314   6.750
 8439POPC   C3A52061  32.219  35.393   7.050
 8439POPC   C4A52062  32.199  35.360   7.350
 8439POPC   C1B52063  32.098  35.206   6.450
 8439POPC   C2B52064  32.033  35.159   6.750
 8439POPC   C3B52065  32.062  35.164   7.050
 8439POPC   C4B52066  32.081  35.159   7.350
 8440POPC   NC352067   8.981  24.513   5.550
 8440POPC   PO452068   8.959  24.529   5.850
 8440POPC   GL152069   8.967  24.490   6.150
 8440POPC   GL252070   9.130  24.394   6.150
 8440POPC   C1A52071   8.925  24.489   6.450
 8440POPC   D2A52072   8.958  24.461   6.750
 8440POPC   C3A52073   8.957  24.484   7.050
 8440POPC   C4A52074   8.991  24.529   7.350
 8440POPC   C1B52075   9.216  24.406   6.450
 8440POPC   C2B52076   9.216  24.434   6.750
 8440POPC   C3B52077   9.223  24.349   7.050
 8440POPC   C4B52078   9.203  24.367   7.350
 8441POPC   NC352079   9.710  39.967   5.550
 8441POPC   PO452080   9.780  40.037   5.850
 8441POPC   GL152081   9.797  39.989   6.150
 8441POPC   GL252082   9.759  39.847   6.150
 8441POPC   C1A52083   9.700  39.959   6.450
 8441POPC   D2A52084   9.785  40.023   6.750
 8441POPC   C3A52085   9.777  40.054   7.050
 8441POPC   C4A52086   9.778  40.048   7.350
 8441POPC   C1B52087   9.766  39.753   6.450
 8441POPC   C2B52088   9.740  39.759   6.750
 8441POPC   C3B52089   9.797  39.779   7.050
 8441POPC   C4B52090   9.771  39.737   7.350
 8442POPC   NC352091  29.193  14.403   5.550
 8442POPC   PO452092  29.182  14.360   5.850
 8442POPC   GL152093  29.108  14.431   6.150
 8442POPC   GL252094  29.016  14.514   6.150
 8442POPC   C1A52095  29.173  14.387   6.450
 8442POPC   D2A52096  29.180  14.374   6.750
 8442POPC   C3A52097  29.115  14.410   7.050
 8442POPC   C4A52098  29.193  14.437   7.350
 8442POPC   C1B52099  28.958  14.542   6.450
 8442POPC   C2B52100  28.900  14.546   6.750
 8442POPC   C3B52101  28.967  14.539   7.050
 8442POPC   C4B52102  28.948  14.551   7.350
 8443POPC   NC352103  36.081  27.583   5.550
 8443POPC   PO452104  36.090  27.597   5.850
 8443POPC   GL152105  36.085  27.599   6.150
 8443POPC   GL252106  36.104  27.440   6.150
 8443POPC   C1A52107  36.113  27.627   6.450
 8443POPC   D2A52108  36.091  27.550   6.750
 8443POPC   C3A52109  36.162  27.611   7.050
 8443POPC   C4A52110  36.163  27.575   7.350
 8443POPC   C1B52111  35.990  27.391   6.450
 8443POPC   C2B52112  36.028  27.329   6.750
 8443POPC   C3B52113  35.989  27.356   7.050
 8443POPC   C4B52114  35.987  27.413   7.350
 8444POPC   NC352115  32.984   2.735   5.550
 8444POPC   PO452116  32.984   2.797   5.850
 8444POPC   GL152117  33.000   2.748   6.150
 8444POPC   GL252118  32.910   2.864   6.150
 8444POPC   C1A52119  33.008   2.772   6.450
 8444POPC   D2A52120  33.008   2.742   6.750
 8444POPC   C3A52121  32.979   2.792   7.050
 8444POPC   C4A52122  33.038   2.801   7.350
 8444POPC   C1B52123  32.821   2.962   6.450
 8444POPC   C2B52124  32.815   2.940   6.750
 8444POPC   C3B52125  32.855   2.921   7.050
 8444POPC   C4B52126  32.876   2.914   7.350
 8445POPC   NC352127  12.823  16.760   5.550
 8445POPC   PO452128  12.858  16.708   5.850
 8445POPC   GL152129  12.894  16.775   6.150
 8445POPC   GL252130  12.817  16.654   6.150
 8445POPC   C1A52131  12.808  16.744   6.450
 8445POPC   D2A52132  12.810  16.730   6.750
 8445POPC   C3A52133  12.813  16.765   7.050
 8445POPC   C4A52134  12.862  16.690   7.350
 8445POPC   C1B52135  12.908  16.522   6.450
 8445POPC   C2B52136  12.833  16.491   6.750
 8445POPC   C3B52137  12.834  16.450   7.050
 8445POPC   C4B52138  12.887  16.468   7.350
 8446POPC   NC352139   8.962   8.160   5.550
 8446POPC   PO452140   8.933   8.198   5.850
 8446POPC   GL152141   8.995   8.185   6.150
 8446POPC   GL252142   9.081   8.124   6.150
 8446POPC   C1A52143   8.954   8.234   6.450
 8446POPC   D2A52144   8.998   8.180   6.750
 8446POPC   C3A52145   8.962   8.238   7.050
 8446POPC   C4A52146   8.940   8.177   7.350
 8446POPC   C1B52147   9.106   7.959   6.450
 8446POPC   C2B52148   9.106   8.019   6.750
 8446POPC   C3B52149   9.096   8.038   7.050
 8446POPC   C4B52150   9.122   7.962   7.350
 8447POPC   NC352151  22.166  26.856   5.550
 8447POPC   PO452152  22.135  26.837   5.850
 8447POPC   GL152153  22.127  26.796   6.150
 8447POPC   GL252154  22.164  26.897   6.150
 8447POPC   C1A52155  22.179  26.770   6.450
 8447POPC   D2A52156  22.180  26.779   6.750
 8447POPC   C3A52157  22.176  26.866   7.050
 8447POPC   C4A52158  22.157  26.786   7.350
 8447POPC   C1B52159  22.146  27.019   6.450
 8447POPC   C2B52160  22.200  27.108   6.750
 8447POPC   C3B52161  22.191  27.099   7.050
 8447POPC   C4B52162  22.191  27.086   7.350
 8448POPC   NC352163  39.222  29.181   5.550
 8448POPC   PO452164  39.233  29.160   5.850
 8448POPC   GL152165  39.273  29.174   6.150
 8448POPC   GL252166  39.233  29.268   6.150
 8448POPC   C1A52167  39.199  29.133   6.450
 8448POPC   D2A52168  39.203  29.177   6.750
 8448POPC   C3A52169  39.210  29.158   7.050
 8448POPC   C4A52170  39.237  29.103   7.350
 8448POPC   C1B52171  39.265  29.405   6.450
 8448POPC   C2B52172  39.202  29.415   6.750
 8448POPC   C3B52173  39.254  29.393   7.050
 8448POPC   C4B52174  39.262  29.391   7.350
 8449POPC   NC352175  10.496  23.668   5.550
 8449POPC   PO452176  10.553  23.713   5.850
 8449POPC   GL152177  10.553  23.722   6.150
 8449POPC   GL252178  10.432  23.779   6.150
 8449POPC   C1A52179  10.544  23.674   6.450
 8449POPC   D2A52180  10.548  23.727   6.750
 8449POPC   C3A52181  10.553  23.681   7.050
 8449POPC   C4A52182  10.536  23.670   7.350
 8449POPC   C1B52183  10.337  23.858   6.450
 8449POPC   C2B52184  10.333  23.830   6.750
 8449POPC   C3B52185  10.370  23.839   7.050
 8449POPC   C4B52186  10.316  23.873   7.350
 8450POPC   NC352187  11.255  29.144   5.550
 8450POPC   PO452188  11.265  29.148   5.850
 8450POPC   GL152189  11.318  29.136   6.150
 8450POPC   GL252190  11.237  29.060   6.150
 8450POPC   C1A52191  11.298  29.112   6.450
 8450POPC   D2A52192  11.293  29.146   6.750
 8450POPC   C3A52193  11.268  29.170   7.050
 8450POPC   C4A52194  11.268  29.124   7.350
 8450POPC   C1B52195  11.205  28.943   6.450
 8450POPC   C2B52196  11.222  28.856   6.750
 8450POPC   C3B52197  11.239  28.858   7.050
 8450POPC   C4B52198  11.243  28.933   7.350
 8451POPC   NC352199   2.797   7.450   5.550
 8451POPC   PO452200   2.767   7.440   5.850
 8451POPC   GL152201   2.803   7.420   6.150
 8451POPC   GL252202   2.881   7.418   6.150
 8451POPC   C1A52203   2.794   7.374   6.450
 8451POPC   D2A52204   2.774   7.463   6.750
 8451POPC   C3A52205   2.798   7.424   7.050
 8451POPC   C4A52206   2.797   7.434   7.350
 8451POPC   C1B52207   3.015   7.505   6.450
 8451POPC   C2B52208   2.979   7.482   6.750
 8451POPC   C3B52209   3.057   7.483   7.050
 8451POPC   C4B52210   3.005   7.420   7.350
 8452POPC   NC352211  22.916  22.950   5.550
 8452POPC   PO452212  22.918  22.939   5.850
 8452POPC   GL152213  22.903  22.924   6.150
 8452POPC   GL252214  22.782  23.009   6.150
 8452POPC   C1A52215  22.892  22.956   6.450
 8452POPC   D2A52216  22.976  22.911   6.750
 8452POPC   C3A52217  22.954  22.929   7.050
 8452POPC   C4A52218  22.972  22.953   7.350
 8452POPC   C1B52219  22.721  23.034   6.450
 8452POPC   C2B52220  22.731  22.995   6.750
 8452POPC   C3B52221  22.670  23.023   7.050
 8452POPC   C4B52222  22.664  23.026   7.350
 8453POPC   NC352223   3.545  15.928   5.550
 8453POPC   PO452224   3.519  15.979   5.850
 8453POPC   GL152225   3.515  16.002   6.150
 8453POPC   GL252226   3.695  15.942   6.150
 8453POPC   C1A52227   3.558  15.934   6.450
 8453POPC   D2A52228   3.548  15.915   6.750
 8453POPC   C3A52229   3.529  15.998   7.050
 8453POPC   C4A52230   3.528  15.924   7.350
 8453POPC   C1B52231   3.798  16.020   6.450
 8453POPC   C2B52232   3.758  15.982   6.750
 8453POPC   C3B52233   3.799  15.951   7.050
 8453POPC   C4B52234   3.790  15.993   7.350
 8454POPC   NC352235  40.782  19.868   5.550
 8454POPC   PO452236  40.760  19.838   5.850
 8454POPC   GL152237  40.803  19.843   6.150
 8454POPC   GL252238  40.796  19.928   6.150
 8454POPC   C1A52239  40.769  19.817   6.450
 8454POPC   D2A52240  40.765  19.865   6.750
 8454POPC   C3A52241  40.773  19.794   7.050
 8454POPC   C4A52242  40.795  19.813   7.350
 8454POPC   C1B52243  40.925  20.099   6.450
 8454POPC   C2B52244  40.931  20.025   6.750
 8454POPC   C3B52245  40.945  20.086   7.050
 8454POPC   C4B52246  40.949  20.049   7.350
 8455POPC   NC352247  25.235  17.555   5.550
 8455POPC   PO452248  25.310  17.503   5.850
 8455POPC   GL152249  25.225  17.530   6.150
 8455POPC   GL252250  25.337  17.376   6.150
 8455POPC   C1A52251  25.288  17.531   6.450
 8455POPC   D2A52252  25.252  17.556   6.750
 8455POPC   C3A52253  25.285  17.469   7.050
 8455POPC   C4A52254  25.286  17.556   7.350
 8455POPC   C1B52255  25.330  17.246   6.450
 8455POPC   C2B52256  25.428  17.323   6.750
 8455POPC   C3B52257  25.373  17.258   7.050
 8455POPC   C4B52258  25.371  17.247   7.350
 8456POPC   NC352259  10.565  19.882   5.550
 8456POPC   PO452260  10.510  19.848   5.850
 8456POPC   GL152261  10.526  19.883   6.150
 8456POPC   GL252262  10.691  19.843   6.150
 8456POPC   C1A52263  10.561  19.806   6.450
 8456POPC   D2A52264  10.536  19.864   6.750
 8456POPC   C3A52265  10.539  19.840   7.050
 8456POPC   C4A52266  10.480  19.838   7.350
 8456POPC   C1B52267  10.742  19.820   6.450
 8456POPC   C2B52268  10.764  19.824   6.750
 8456POPC   C3B52269  10.729  19.803   7.050
 8456POPC   C4B52270  10.748  19.842   7.350
 8457POPC   NC352271  39.971  19.040   5.550
 8457POPC   PO452272  40.003  19.021   5.850
 8457POPC   GL152273  39.999  19.103   6.150
 8457POPC   GL252274  40.072  18.958   6.150
 8457POPC   C1A52275  40.023  19.034   6.450
 8457POPC   D2A52276  39.979  19.058   6.750
 8457POPC   C3A52277  39.965  19.061   7.050
 8457POPC   C4A52278  40.010  19.025   7.350
 8457POPC   C1B52279  40.208  18.907   6.450
 8457POPC   C2B52280  40.280  18.999   6.750
 8457POPC   C3B52281  40.222  18.987   7.050
 8457POPC   C4B52282  40.262  18.998   7.350
 8458POPC   NC352283   1.204   8.176   5.550
 8458POPC   PO452284   1.246   8.168   5.850
 8458POPC   GL152285   1.256   8.215   6.150
 8458POPC   GL252286   1.317   8.240   6.150
 8458POPC   C1A52287   1.215   8.206   6.450
 8458POPC   D2A52288   1.221   8.156   6.750
 8458POPC   C3A52289   1.228   8.236   7.050
 8458POPC   C4A52290   1.240   8.166   7.350
 8458POPC   C1B52291   1.456   8.279   6.450
 8458POPC   C2B52292   1.454   8.262   6.750
 8458POPC   C3B52293   1.423   8.279   7.050
 8458POPC   C4B52294   1.446   8.275   7.350
 8459POPC   NC352295   5.093  22.902   5.550
 8459POPC   PO452296   5.115  22.927   5.850
 8459POPC   GL152297   5.104  22.889   6.150
 8459POPC   GL252298   5.093  22.848   6.150
 8459POPC   C1A52299   5.093  22.966   6.450
 8459POPC   D2A52300   5.068  22.898   6.750
 8459POPC   C3A52301   5.049  22.960   7.050
 8459POPC   C4A52302   5.078  22.964   7.350
 8459POPC   C1B52303   5.070  22.678   6.450
 8459POPC   C2B52304   5.098  22.681   6.750
 8459POPC   C3B52305   5.033  22.648   7.050
 8459POPC   C4B52306   5.040  22.653   7.350
 8460POPC   NC352307  19.797  25.306   5.550
 8460POPC   PO452308  19.823  25.226   5.850
 8460POPC   GL152309  19.877  25.287   6.150
 8460POPC   GL252310  19.784  25.350   6.150
 8460POPC   C1A52311  19.794  25.237   6.450
 8460POPC   D2A52312  19.838  25.293   6.750
 8460POPC   C3A52313  19.855  25.266   7.050
 8460POPC   C4A52314  19.834  25.303   7.350
 8460POPC   C1B52315  19.830  25.530   6.450
 8460POPC   C2B52316  19.828  25.563   6.750
 8460POPC   C3B52317  19.825  25.487   7.050
 8460POPC   C4B52318  19.848  25.504   7.350
 8461POPC   NC352319  19.077  18.287   5.550
 8461POPC   PO452320  19.075  18.266   5.850
 8461POPC   GL152321  19.043  18.331   6.150
 8461POPC   GL252322  19.153  18.363   6.150
 8461POPC   C1A52323  19.096  18.277   6.450
 8461POPC   D2A52324  19.071  18.292   6.750
 8461POPC   C3A52325  19.089  18.254   7.050
 8461POPC   C4A52326  19.036  18.280   7.350
 8461POPC   C1B52327  19.213  18.436   6.450
 8461POPC   C2B52328  19.215  18.458   6.750
 8461POPC   C3B52329  19.220  18.430   7.050
 8461POPC   C4B52330  19.258  18.512   7.350
 8462POPC   NC352331   5.909  26.852   5.550
 8462POPC   PO452332   5.824  26.855   5.850
 8462POPC   GL152333   5.837  26.808   6.150
 8462POPC   GL252334   5.853  26.744   6.150
 8462POPC   C1A52335   5.892  26.828   6.450
 8462POPC   D2A52336   5.882  26.858   6.750
 8462POPC   C3A52337   5.878  26.833   7.050
 8462POPC   C4A52338   5.853  26.848   7.350
 8462POPC   C1B52339   5.958  26.531   6.450
 8462POPC   C2B52340   5.881  26.573   6.750
 8462POPC   C3B52341   5.962  26.607   7.050
 8462POPC   C4B52342   5.918  26.623   7.350
 8463POPC   NC352343  37.682  13.606   5.550
 8463POPC   PO452344  37.632  13.640   5.850
 8463POPC   GL152345  37.720  13.593   6.150
 8463POPC   GL252346  37.558  13.731   6.150
 8463POPC   C1A52347  37.638  13.583   6.450
 8463POPC   D2A52348  37.695  13.670   6.750
 8463POPC   C3A52349  37.726  13.631   7.050
 8463POPC   C4A52350  37.693  13.603   7.350
 8463POPC   C1B52351  37.505  13.823   6.450
 8463POPC   C2B52352  37.481  13.820   6.750
 8463POPC   C3B52353  37.510  13.763   7.050
 8463POPC   C4B52354  37.481  13.828   7.350
 8464POPC   NC352355  40.746  36.154   5.550
 8464POPC   PO452356  40.742  36.171   5.850
 8464POPC   GL152357  40.760  36.106   6.150
 8464POPC   GL252358  40.611  36.145   6.150
 8464POPC   C1A52359  40.739  36.095   6.450
 8464POPC   D2A52360  40.823  36.135   6.750
 8464POPC   C3A52361  40.818  36.154   7.050
 8464POPC   C4A52362  40.735  36.166   7.350
 8464POPC   C1B52363  40.532  36.118   6.450
 8464POPC   C2B52364  40.490  36.165   6.750
 8464POPC   C3B52365  40.556  36.112   7.050
 8464POPC   C4B52366  40.555  36.164   7.350
 8465POPC   NC352367  36.114  37.647   5.550
 8465POPC   PO452368  36.119  37.675   5.850
 8465POPC   GL152369  36.177  37.713   6.150
 8465POPC   GL252370  36.051  37.552   6.150
 8465POPC   C1A52371  36.130  37.686   6.450
 8465POPC   D2A52372  36.156  37.631   6.750
 8465POPC   C3A52373  36.163  37.662   7.050
 8465POPC   C4A52374  36.116  37.691   7.350
 8465POPC   C1B52375  35.914  37.470   6.450
 8465POPC   C2B52376  35.980  37.480   6.750
 8465POPC   C3B52377  35.945  37.537   7.050
 8465POPC   C4B52378  35.989  37.519   7.350
 8466POPC   NC352379  28.346  29.107   5.550
 8466POPC   PO452380  28.389  29.152   5.850
 8466POPC   GL152381  28.375  29.122   6.150
 8466POPC   GL252382  28.302  29.272   6.150
 8466POPC   C1A52383  28.396  29.177   6.450
 8466POPC   D2A52384  28.344  29.154   6.750
 8466POPC   C3A52385  28.323  29.129   7.050
 8466POPC   C4A52386  28.336  29.126   7.350
 8466POPC   C1B52387  28.286  29.330   6.450
 8466POPC   C2B52388  28.247  29.329   6.750
 8466POPC   C3B52389  28.290  29.355   7.050
 8466POPC   C4B52390  28.291  29.384   7.350
 8467POPC   NC352391   3.494  33.841   5.550
 8467POPC   PO452392   3.534  33.815   5.850
 8467POPC   GL152393   3.548  33.820   6.150
 8467POPC   GL252394   3.389  33.785   6.150
 8467POPC   C1A52395   3.520  33.817   6.450
 8467POPC   D2A52396   3.585  33.803   6.750
 8467POPC   C3A52397   3.506  33.754   7.050
 8467POPC   C4A52398   3.529  33.783   7.350
 8467POPC   C1B52399   3.309  33.871   6.450
 8467POPC   C2B52400   3.248  33.822   6.750
 8467POPC   C3B52401   3.324  33.870   7.050
 8467POPC   C4B52402   3.263  33.843   7.350
 8468POPC   NC352403  34.545  22.946   5.550
 8468POPC   PO452404  34.527  22.957   5.850
 8468POPC   GL152405  34.539  22.958   6.150
 8468POPC   GL252406  34.742  22.912   6.150
 8468POPC   C1A52407  34.590  22.909   6.450
 8468POPC   D2A52408  34.545  22.931   6.750
 8468POPC   C3A52409  34.597  22.903   7.050
 8468POPC   C4A52410  34.551  22.965   7.350
 8468POPC   C1B52411  34.855  22.856   6.450
 8468POPC   C2B52412  34.849  22.855   6.750
 8468POPC   C3B52413  34.797  22.921   7.050
 8468POPC   C4B52414  34.777  22.897   7.350
 8469POPC   NC352415   8.213   2.740   5.550
 8469POPC   PO452416   8.217   2.800   5.850
 8469POPC   GL152417   8.240   2.757   6.150
 8469POPC   GL252418   8.280   2.847   6.150
 8469POPC   C1A52419   8.186   2.765   6.450
 8469POPC   D2A52420   8.230   2.786   6.750
 8469POPC   C3A52421   8.202   2.809   7.050
 8469POPC   C4A52422   8.151   2.752   7.350
 8469POPC   C1B52423   8.301   2.977   6.450
 8469POPC   C2B52424   8.339   3.003   6.750
 8469POPC   C3B52425   8.313   2.953   7.050
 8469POPC   C4B52426   8.296   3.000   7.350
 8470POPC   NC352427  26.842  36.855   5.550
 8470POPC   PO452428  26.770  36.860   5.850
 8470POPC   GL152429  26.829  36.935   6.150
 8470POPC   GL252430  26.877  36.779   6.150
 8470POPC   C1A52431  26.772  36.931   6.450
 8470POPC   D2A52432  26.858  36.865   6.750
 8470POPC   C3A52433  26.840  36.940   7.050
 8470POPC   C4A52434  26.830  36.863   7.350
 8470POPC   C1B52435  26.835  36.670   6.450
 8470POPC   C2B52436  26.873  36.619   6.750
 8470POPC   C3B52437  26.862  36.699   7.050
 8470POPC   C4B52438  26.879  36.658   7.350
 8471POPC   NC352439  40.020  36.894   5.550
 8471POPC   PO452440  40.004  36.942   5.850
 8471POPC   GL152441  40.002  36.891   6.150
 8471POPC   GL252442  40.107  36.969   6.150
 8471POPC   C1A52443  40.041  36.890   6.450
 8471POPC   D2A52444  40.011  36.867   6.750
 8471POPC   C3A52445  39.983  36.908   7.050
 8471POPC   C4A52446  39.976  36.932   7.350
 8471POPC   C1B52447  40.094  37.135   6.450
 8471POPC   C2B52448  40.094  37.137   6.750
 8471POPC   C3B52449  40.129  37.109   7.050
 8471POPC   C4B52450  40.135  37.104   7.350
 8472POPC   NC352451  43.884   0.464   5.550
 8472POPC   PO452452  43.884   0.409   5.850
 8472POPC   GL152453  43.906   0.470   6.150
 8472POPC   GL252454  44.038   0.380   6.150
 8472POPC   C1A52455  43.898   0.416   6.450
 8472POPC   D2A52456  43.918   0.397   6.750
 8472POPC   C3A52457  43.919   0.435   7.050
 8472POPC   C4A52458  43.842   0.473   7.350
 8472POPC   C1B52459  44.103   0.385   6.450
 8472POPC   C2B52460  44.178   0.343   6.750
 8472POPC   C3B52461  44.081   0.425   7.050
 8472POPC   C4B52462  44.147   0.381   7.350
 8473POPC   NC352463  12.073  38.445   5.550
 8473POPC   PO452464  12.089  38.481   5.850
 8473POPC   GL152465  12.066  38.430   6.150
 8473POPC   GL252466  12.222  38.423   6.150
 8473POPC   C1A52467  12.058  38.456   6.450
 8473POPC   D2A52468  12.040  38.456   6.750
 8473POPC   C3A52469  12.069  38.409   7.050
 8473POPC   C4A52470  12.059  38.476   7.350
 8473POPC   C1B52471  12.355  38.431   6.450
 8473POPC   C2B52472  12.351  38.438   6.750
 8473POPC   C3B52473  12.311  38.391   7.050
 8473POPC   C4B52474  12.326  38.402   7.350
 8474POPC   NC352475  35.323  40.787   5.550
 8474POPC   PO452476  35.331  40.774   5.850
 8474POPC   GL152477  35.322  40.734   6.150
 8474POPC   GL252478  35.258  40.755   6.150
 8474POPC   C1A52479  35.312  40.803   6.450
 8474POPC   D2A52480  35.357  40.827   6.750
 8474POPC   C3A52481  35.321  40.811   7.050
 8474POPC   C4A52482  35.371  40.804   7.350
 8474POPC   C1B52483  35.090  40.804   6.450
 8474POPC   C2B52484  35.140  40.781   6.750
 8474POPC   C3B52485  35.150  40.824   7.050
 8474POPC   C4B52486  35.148  40.760   7.350
 8475POPC   NC352487  15.973  40.044   5.550
 8475POPC   PO452488  15.906  39.985   5.850
 8475POPC   GL152489  15.955  40.044   6.150
 8475POPC   GL252490  15.886  39.929   6.150
 8475POPC   C1A52491  15.966  40.024   6.450
 8475POPC   D2A52492  15.968  39.968   6.750
 8475POPC   C3A52493  15.951  39.994   7.050
 8475POPC   C4A52494  15.947  40.037   7.350
 8475POPC   C1B52495  15.769  39.873   6.450
 8475POPC   C2B52496  15.789  39.855   6.750
 8475POPC   C3B52497  15.708  39.863   7.050
 8475POPC   C4B52498  15.745  39.809   7.350
 8476POPC   NC352499  34.561  13.654   5.550
 8476POPC   PO452500  34.613  13.597   5.850
 8476POPC   GL152501  34.584  13.585   6.150
 8476POPC   GL252502  34.664  13.581   6.150
 8476POPC   C1A52503  34.623  13.655   6.450
 8476POPC   D2A52504  34.582  13.608   6.750
 8476POPC   C3A52505  34.533  13.588   7.050
 8476POPC   C4A52506  34.579  13.650   7.350
 8476POPC   C1B52507  34.782  13.528   6.450
 8476POPC   C2B52508  34.787  13.536   6.750
 8476POPC   C3B52509  34.818  13.504   7.050
 8476POPC   C4B52510  34.778  13.466   7.350
 8477POPC   NC352511  41.528   9.792   5.550
 8477POPC   PO452512  41.550   9.729   5.850
 8477POPC   GL152513  41.582   9.721   6.150
 8477POPC   GL252514  41.712   9.770   6.150
 8477POPC   C1A52515  41.608   9.768   6.450
 8477POPC   D2A52516  41.560   9.772   6.750
 8477POPC   C3A52517  41.534   9.751   7.050
 8477POPC   C4A52518  41.601   9.767   7.350
 8477POPC   C1B52519  41.762   9.742   6.450
 8477POPC   C2B52520  41.831   9.775   6.750
 8477POPC   C3B52521  41.797   9.766   7.050
 8477POPC   C4B52522  41.759   9.840   7.350
 8478POPC   NC352523  20.569   8.947   5.550
 8478POPC   PO452524  20.565   8.967   5.850
 8478POPC   GL152525  20.572   8.976   6.150
 8478POPC   GL252526  20.497   8.946   6.150
 8478POPC   C1A52527  20.590   8.977   6.450
 8478POPC   D2A52528  20.645   8.984   6.750
 8478POPC   C3A52529  20.629   8.929   7.050
 8478POPC   C4A52530  20.640   8.961   7.350
 8478POPC   C1B52531  20.366   8.872   6.450
 8478POPC   C2B52532  20.367   8.897   6.750
 8478POPC   C3B52533  20.395   8.922   7.050
 8478POPC   C4B52534  20.400   8.924   7.350
 8479POPC   NC352535  36.875  26.799   5.550
 8479POPC   PO452536  36.901  26.846   5.850
 8479POPC   GL152537  36.905  26.792   6.150
 8479POPC   GL252538  36.860  26.689   6.150
 8479POPC   C1A52539  36.922  26.825   6.450
 8479POPC   D2A52540  36.859  26.815   6.750
 8479POPC   C3A52541  36.944  26.809   7.050
 8479POPC   C4A52542  36.935  26.834   7.350
 8479POPC   C1B52543  36.795  26.608   6.450
 8479POPC   C2B52544  36.749  26.605   6.750
 8479POPC   C3B52545  36.707  26.587   7.050
 8479POPC   C4B52546  36.753  26.622   7.350
 8480POPC   NC352547  43.850  10.569   5.550
 8480POPC   PO452548  43.888  10.565   5.850
 8480POPC   GL152549  43.923  10.563   6.150
 8480POPC   GL252550  44.035  10.558   6.150
 8480POPC   C1A52551  43.859  10.559   6.450
 8480POPC   D2A52552  43.898  10.523   6.750
 8480POPC   C3A52553  43.930  10.505   7.050
 8480POPC   C4A52554  43.871  10.496   7.350
 8480POPC   C1B52555  44.123  10.548   6.450
 8480POPC   C2B52556  44.142  10.610   6.750
 8480POPC   C3B52557  44.116  10.530   7.050
 8480POPC   C4B52558  44.144  10.531   7.350
 8481POPC   NC352559  33.770  12.853   5.550
 8481POPC   PO452560  33.823  12.864   5.850
 8481POPC   GL152561  33.847  12.832   6.150
 8481POPC   GL252562  33.842  12.687   6.150
 8481POPC   C1A52563  33.844  12.831   6.450
 8481POPC   D2A52564  33.787  12.809   6.750
 8481POPC   C3A52565  33.825  12.863   7.050
 8481POPC   C4A52566  33.784  12.833   7.350
 8481POPC   C1B52567  33.839  12.641   6.450
 8481POPC   C2B52568  33.832  12.575   6.750
 8481POPC   C3B52569  33.810  12.637   7.050
 8481POPC   C4B52570  33.825  12.570   7.350
 8482POPC   NC352571   7.433  34.584   5.550
 8482POPC   PO452572   7.430  34.569   5.850
 8482POPC   GL152573   7.377  34.569   6.150
 8482POPC   GL252574   7.443  34.463   6.150
 8482POPC   C1A52575   7.401  34.582   6.450
 8482POPC   D2A52576   7.395  34.608   6.750
 8482POPC   C3A52577   7.381  34.591   7.050
 8482POPC   C4A52578   7.394  34.607   7.350
 8482POPC   C1B52579   7.359  34.292   6.450
 8482POPC   C2B52580   7.445  34.296   6.750
 8482POPC   C3B52581   7.374  34.358   7.050
 8482POPC   C4B52582   7.400  34.354   7.350
 8483POPC   NC352583  43.867  26.829   5.550
 8483POPC   PO452584  43.927  26.821   5.850
 8483POPC   GL152585  43.926  26.806   6.150
 8483POPC   GL252586  44.020  26.754   6.150
 8483POPC   C1A52587  43.867  26.849   6.450
 8483POPC   D2A52588  43.839  26.839   6.750
 8483POPC   C3A52589  43.934  26.841   7.050
 8483POPC   C4A52590  43.848  26.862   7.350
 8483POPC   C1B52591  44.146  26.690   6.450
 8483POPC   C2B52592  44.081  26.752   6.750
 8483POPC   C3B52593  44.130  26.754   7.050
 8483POPC   C4B52594  44.116  26.673   7.350
 8484POPC   NC352595  35.322  22.162   5.550
 8484POPC   PO452596  35.369  22.113   5.850
 8484POPC   GL152597  35.325  22.181   6.150
 8484POPC   GL252598  35.266  22.282   6.150
 8484POPC   C1A52599  35.397  22.146   6.450
 8484POPC   D2A52600  35.322  22.199   6.750
 8484POPC   C3A52601  35.391  22.127   7.050
 8484POPC   C4A52602  35.327  22.140   7.350
 8484POPC   C1B52603  35.190  22.346   6.450
 8484POPC   C2B52604  35.272  22.361   6.750
 8484POPC   C3B52605  35.279  22.353   7.050
 8484POPC   C4B52606  35.221  22.419   7.350
 8485POPC   NC352607   8.206  28.344   5.550
 8485POPC   PO452608   8.212  28.335   5.850
 8485POPC   GL152609   8.222  28.387   6.150
 8485POPC   GL252610   8.113  28.242   6.150
 8485POPC   C1A52611   8.195  28.371   6.450
 8485POPC   D2A52612   8.194  28.368   6.750
 8485POPC   C3A52613   8.204  28.327   7.050
 8485POPC   C4A52614   8.169  28.404   7.350
 8485POPC   C1B52615   8.144  28.138   6.450
 8485POPC   C2B52616   8.112  28.159   6.750
 8485POPC   C3B52617   8.069  28.115   7.050
 8485POPC   C4B52618   8.086  28.146   7.350
 8486POPC   NC352619  36.163  18.279   5.550
 8486POPC   PO452620  36.154  18.290   5.850
 8486POPC   GL152621  36.123  18.236   6.150
 8486POPC   GL252622  36.265  18.294   6.150
 8486POPC   C1A52623  36.163  18.289   6.450
 8486POPC   D2A52624  36.130  18.259   6.750
 8486POPC   C3A52625  36.154  18.313   7.050
 8486POPC   C4A52626  36.121  18.296   7.350
 8486POPC   C1B52627  36.324  18.277   6.450
 8486POPC   C2B52628  36.386  18.232   6.750
 8486POPC   C3B52629  36.423  18.267   7.050
 8486POPC   C4B52630  36.357  18.224   7.350
 8487POPC   NC352631  44.662   0.464   5.550
 8487POPC   PO452632  44.688   0.454   5.850
 8487POPC   GL152633  44.710   0.405   6.150
 8487POPC   GL252634  44.757   0.358   6.150
 8487POPC   C1A52635  44.704   0.441   6.450
 8487POPC   D2A52636  44.641   0.434   6.750
 8487POPC   C3A52637  44.672   0.417   7.050
 8487POPC   C4A52638  44.629   0.444   7.350
 8487POPC   C1B52639  44.848   0.292   6.450
 8487POPC   C2B52640  44.876   0.358   6.750
 8487POPC   C3B52641  44.878   0.290   7.050
 8487POPC   C4B52642  44.928   0.332   7.350
 8488POPC   NC352643  19.042  33.757   5.550
 8488POPC   PO452644  19.035  33.819   5.850
 8488POPC   GL152645  19.078  33.820   6.150
 8488POPC   GL252646  19.173  33.928   6.150
 8488POPC   C1A52647  19.021  33.798   6.450
 8488POPC   D2A52648  19.061  33.772   6.750
 8488POPC   C3A52649  19.070  33.795   7.050
 8488POPC   C4A52650  19.091  33.842   7.350
 8488POPC   C1B52651  19.245  33.957   6.450
 8488POPC   C2B52652  19.207  34.032   6.750
 8488POPC   C3B52653  19.248  33.962   7.050
 8488POPC   C4B52654  19.258  34.016   7.350
 8489POPC   NC352655  21.383  15.950   5.550
 8489POPC   PO452656  21.392  15.963   5.850
 8489POPC   GL152657  21.384  15.997   6.150
 8489POPC   GL252658  21.288  15.912   6.150
 8489POPC   C1A52659  21.340  15.911   6.450
 8489POPC   D2A52660  21.388  15.960   6.750
 8489POPC   C3A52661  21.432  15.916   7.050
 8489POPC   C4A52662  21.416  15.913   7.350
 8489POPC   C1B52663  21.134  15.967   6.450
 8489POPC   C2B52664  21.119  15.953   6.750
 8489POPC   C3B52665  21.161  15.935   7.050
 8489POPC   C4B52666  21.129  15.959   7.350
 8490POPC   NC352667  44.641   1.966   5.550
 8490POPC   PO452668  44.621   1.943   5.850
 8490POPC   GL152669  44.625   2.009   6.150
 8490POPC   GL252670  44.501   1.940   6.150
 8490POPC   C1A52671  44.697   1.986   6.450
 8490POPC   D2A52672  44.638   1.980   6.750
 8490POPC   C3A52673  44.632   1.964   7.050
 8490POPC   C4A52674  44.695   2.011   7.350
 8490POPC   C1B52675  44.428   1.900   6.450
 8490POPC   C2B52676  44.393   1.927   6.750
 8490POPC   C3B52677  44.383   1.960   7.050
 8490POPC   C4B52678  44.391   1.914   7.350
 8491POPC   NC352679   4.352  41.540   5.550
 8491POPC   PO452680   4.274  41.593   5.850
 8491POPC   GL152681   4.306  41.540   6.150
 8491POPC   GL252682   4.230  41.425   6.150
 8491POPC   C1A52683   4.282  41.533   6.450
 8491POPC   D2A52684   4.333  41.555   6.750
 8491POPC   C3A52685   4.352  41.527   7.050
 8491POPC   C4A52686   4.298  41.593   7.350
 8491POPC   C1B52687   4.100  41.416   6.450
 8491POPC   C2B52688   4.138  41.380   6.750
 8491POPC   C3B52689   4.128  41.397   7.050
 8491POPC   C4B52690   4.153  41.368   7.350
 8492POPC   NC352691  15.146  34.611   5.550
 8492POPC   PO452692  15.210  34.610   5.850
 8492POPC   GL152693  15.229  34.541   6.150
 8492POPC   GL252694  15.092  34.579   6.150
 8492POPC   C1A52695  15.129  34.608   6.450
 8492POPC   D2A52696  15.177  34.573   6.750
 8492POPC   C3A52697  15.221  34.554   7.050
 8492POPC   C4A52698  15.137  34.529   7.350
 8492POPC   C1B52699  14.993  34.696   6.450
 8492POPC   C2B52700  14.994  34.687   6.750
 8492POPC   C3B52701  14.934  34.679   7.050
 8492POPC   C4B52702  14.990  34.626   7.350
 8493POPC   NC352703  34.529  19.026   5.550
 8493POPC   PO452704  34.544  19.079   5.850
 8493POPC   GL152705  34.587  19.100   6.150
 8493POPC   GL252706  34.647  19.188   6.150
 8493POPC   C1A52707  34.582  19.078   6.450
 8493POPC   D2A52708  34.589  19.069   6.750
 8493POPC   C3A52709  34.553  19.050   7.050
 8493POPC   C4A52710  34.557  19.083   7.350
 8493POPC   C1B52711  34.760  19.307   6.450
 8493POPC   C2B52712  34.738  19.306   6.750
 8493POPC   C3B52713  34.753  19.242   7.050
 8493POPC   C4B52714  34.668  19.279   7.350
 8494POPC   NC352715  33.799   3.512   5.550
 8494POPC   PO452716  33.757   3.560   5.850
 8494POPC   GL152717  33.848   3.590   6.150
 8494POPC   GL252718  33.874   3.476   6.150
 8494POPC   C1A52719  33.848   3.565   6.450
 8494POPC   D2A52720  33.750   3.587   6.750
 8494POPC   C3A52721  33.777   3.561   7.050
 8494POPC   C4A52722  33.794   3.564   7.350
 8494POPC   C1B52723  34.003   3.401   6.450
 8494POPC   C2B52724  33.974   3.398   6.750
 8494POPC   C3B52725  34.023   3.385   7.050
 8494POPC   C4B52726  33.973   3.411   7.350
 8495POPC   NC352727  39.986  32.996   5.550
 8495POPC   PO452728  39.973  33.029   5.850
 8495POPC   GL152729  39.979  33.058   6.150
 8495POPC   GL252730  40.093  33.057   6.150
 8495POPC   C1A52731  39.980  33.059   6.450
 8495POPC   D2A52732  39.977  32.999   6.750
 8495POPC   C3A52733  39.964  33.032   7.050
 8495POPC   C4A52734  40.046  32.984   7.350
 8495POPC   C1B52735  40.237  33.134   6.450
 8495POPC   C2B52736  40.218  33.171   6.750
 8495POPC   C3B52737  40.230  33.155   7.050
 8495POPC   C4B52738  40.259  33.172   7.350
 8496POPC   NC352739  24.529   5.139   5.550
 8496POPC   PO452740  24.479   5.135   5.850
 8496POPC   GL152741  24.481   5.107   6.150
 8496POPC   GL252742  24.410   5.188   6.150
 8496POPC   C1A52743  24.494   5.095   6.450
 8496POPC   D2A52744  24.447   5.128   6.750
 8496POPC   C3A52745  24.514   5.072   7.050
 8496POPC   C4A52746  24.478   5.123   7.350
 8496POPC   C1B52747  24.352   5.300   6.450
 8496POPC   C2B52748  24.340   5.302   6.750
 8496POPC   C3B52749  24.309   5.316   7.050
 8496POPC   C4B52750  24.319   5.249   7.350
 8497POPC   NC352751  22.896  19.816   5.550
 8497POPC   PO452752  22.894  19.792   5.850
 8497POPC   GL152753  22.935  19.854   6.150
 8497POPC   GL252754  23.040  19.766   6.150
 8497POPC   C1A52755  22.930  19.860   6.450
 8497POPC   D2A52756  22.929  19.848   6.750
 8497POPC   C3A52757  22.890  19.861   7.050
 8497POPC   C4A52758  22.988  19.798   7.350
 8497POPC   C1B52759  23.134  19.756   6.450
 8497POPC   C2B52760  23.158  19.759   6.750
 8497POPC   C3B52761  23.177  19.767   7.050
 8497POPC   C4B52762  23.173  19.794   7.350
 8498POPC   NC352763  31.484   1.251   5.550
 8498POPC   PO452764  31.464   1.215   5.850
 8498POPC   GL152765  31.433   1.181   6.150
 8498POPC   GL252766  31.416   1.352   6.150
 8498POPC   C1A52767  31.485   1.241   6.450
 8498POPC   D2A52768  31.483   1.255   6.750
 8498POPC   C3A52769  31.499   1.208   7.050
 8498POPC   C4A52770  31.518   1.229   7.350
 8498POPC   C1B52771  31.461   1.418   6.450
 8498POPC   C2B52772  31.407   1.491   6.750
 8498POPC   C3B52773  31.384   1.455   7.050
 8498POPC   C4B52774  31.375   1.438   7.350
 8499POPC   NC352775  35.310  17.476   5.550
 8499POPC   PO452776  35.364  17.491   5.850
 8499POPC   GL152777  35.378  17.512   6.150
 8499POPC   GL252778  35.475  17.389   6.150
 8499POPC   C1A52779  35.396  17.545   6.450
 8499POPC   D2A52780  35.397  17.483   6.750
 8499POPC   C3A52781  35.321  17.550   7.050
 8499POPC   C4A52782  35.384  17.461   7.350
 8499POPC   C1B52783  35.485  17.319   6.450
 8499POPC   C2B52784  35.543  17.341   6.750
 8499POPC   C3B52785  35.540  17.278   7.050
 8499POPC   C4B52786  35.547  17.308   7.350
 8500POPC   NC352787  30.696  21.357   5.550
 8500POPC   PO452788  30.712  21.397   5.850
 8500POPC   GL152789  30.717  21.355   6.150
 8500POPC   GL252790  30.729  21.513   6.150
 8500POPC   C1A52791  30.716  21.396   6.450
 8500POPC   D2A52792  30.698  21.399   6.750
 8500POPC   C3A52793  30.723  21.341   7.050
 8500POPC   C4A52794  30.708  21.405   7.350
 8500POPC   C1B52795  30.707  21.612   6.450
 8500POPC   C2B52796  30.660  21.676   6.750
 8500POPC   C3B52797  30.632  21.660   7.050
 8500POPC   C4B52798  30.655  21.645   7.350
 8501POPC   NC352799  34.568  29.157   5.550
 8501POPC   PO452800  34.621  29.116   5.850
 8501POPC   GL152801  34.552  29.175   6.150
 8501POPC   GL252802  34.482  29.142   6.150
 8501POPC   C1A52803  34.613  29.115   6.450
 8501POPC   D2A52804  34.555  29.184   6.750
 8501POPC   C3A52805  34.594  29.185   7.050
 8501POPC   C4A52806  34.613  29.149   7.350
 8501POPC   C1B52807  34.293  29.203   6.450
 8501POPC   C2B52808  34.294  29.252   6.750
 8501POPC   C3B52809  34.374  29.221   7.050
 8501POPC   C4B52810  34.293  29.271   7.350
 8502POPC   NC352811  43.864  36.895   5.550
 8502POPC   PO452812  43.903  36.903   5.850
 8502POPC   GL152813  43.936  36.878   6.150
 8502POPC   GL252814  43.801  36.786   6.150
 8502POPC   C1A52815  43.891  36.945   6.450
 8502POPC   D2A52816  43.896  36.867   6.750
 8502POPC   C3A52817  43.905  36.864   7.050
 8502POPC   C4A52818  43.840  36.913   7.350
 8502POPC   C1B52819  43.719  36.645   6.450
 8502POPC   C2B52820  43.731  36.686   6.750
 8502POPC   C3B52821  43.748  36.665   7.050
 8502POPC   C4B52822  43.715  36.706   7.350
 8503POPC   NC352823  15.194  36.099   5.550
 8503POPC   PO452824  15.216  36.159   5.850
 8503POPC   GL152825  15.138  36.105   6.150
 8503POPC   GL252826  15.133  36.004   6.150
 8503POPC   C1A52827  15.169  36.095   6.450
 8503POPC   D2A52828  15.221  36.169   6.750
 8503POPC   C3A52829  15.197  36.093   7.050
 8503POPC   C4A52830  15.140  36.131   7.350
 8503POPC   C1B52831  15.001  35.910   6.450
 8503POPC   C2B52832  14.993  35.910   6.750
 8503POPC   C3B52833  15.012  35.930   7.050
 8503POPC   C4B52834  15.044  35.964   7.350
 8504POPC   NC352835  30.647  14.368   5.550
 8504POPC   PO452836  30.694  14.377   5.850
 8504POPC   GL152837  30.658  14.443   6.150
 8504POPC   GL252838  30.773  14.391   6.150
 8504POPC   C1A52839  30.704  14.365   6.450
 8504POPC   D2A52840  30.654  14.453   6.750
 8504POPC   C3A52841  30.683  14.448   7.050
 8504POPC   C4A52842  30.713  14.437   7.350
 8504POPC   C1B52843  30.895  14.301   6.450
 8504POPC   C2B52844  30.952  14.266   6.750
 8504POPC   C3B52845  30.908  14.264   7.050
 8504POPC   C4B52846  30.930  14.310   7.350
 8505POPC   NC352847  10.561  17.514   5.550
 8505POPC   PO452848  10.511  17.519   5.850
 8505POPC   GL152849  10.546  17.543   6.150
 8505POPC   GL252850  10.418  17.377   6.150
 8505POPC   C1A52851  10.564  17.495   6.450
 8505POPC   D2A52852  10.490  17.492   6.750
 8505POPC   C3A52853  10.559  17.530   7.050
 8505POPC   C4A52854  10.555  17.487   7.350
 8505POPC   C1B52855  10.364  17.290   6.450
 8505POPC   C2B52856  10.332  17.275   6.750
 8505POPC   C3B52857  10.348  17.289   7.050
 8505POPC   C4B52858  10.313  17.344   7.350
 8506POPC   NC352859  32.221  33.066   5.550
 8506POPC   PO452860  32.230  33.073   5.850
 8506POPC   GL152861  32.276  33.068   6.150
 8506POPC   GL252862  32.134  32.971   6.150
 8506POPC   C1A52863  32.294  32.994   6.450
 8506POPC   D2A52864  32.253  33.030   6.750
 8506POPC   C3A52865  32.209  33.040   7.050
 8506POPC   C4A52866  32.217  33.016   7.350
 8506POPC   C1B52867  32.135  32.825   6.450
 8506POPC   C2B52868  32.080  32.868   6.750
 8506POPC   C3B52869  32.091  32.790   7.050
 8506POPC   C4B52870  32.053  32.793   7.350
 8507POPC   NC352871  23.738  18.246   5.550
 8507POPC   PO452872  23.760  18.311   5.850
 8507POPC   GL152873  23.747  18.257   6.150
 8507POPC   GL252874  23.609  18.219   6.150
 8507POPC   C1A52875  23.696  18.292   6.450
 8507POPC   D2A52876  23.691  18.320   6.750
 8507POPC   C3A52877  23.733  18.288   7.050
 8507POPC   C4A52878  23.667  18.242   7.350
 8507POPC   C1B52879  23.504  18.125   6.450
 8507POPC   C2B52880  23.586  18.095   6.750
 8507POPC   C3B52881  23.499  18.147   7.050
 8507POPC   C4B52882  23.515  18.071   7.350
 8508POPC   NC352883  35.308  37.682   5.550
 8508POPC   PO452884  35.354  37.642   5.850
 8508POPC   GL152885  35.362  37.681   6.150
 8508POPC   GL252886  35.351  37.541   6.150
 8508POPC   C1A52887  35.392  37.682   6.450
 8508POPC   D2A52888  35.342  37.720   6.750
 8508POPC   C3A52889  35.303  37.657   7.050
 8508POPC   C4A52890  35.388  37.698   7.350
 8508POPC   C1B52891  35.371  37.441   6.450
 8508POPC   C2B52892  35.439  37.442   6.750
 8508POPC   C3B52893  35.392  37.472   7.050
 8508POPC   C4B52894  35.371  37.463   7.350
 8509POPC   NC352895  44.662  37.667   5.550
 8509POPC   PO452896  44.697  37.691   5.850
 8509POPC   GL152897  44.692  37.672   6.150
 8509POPC   GL252898  44.549  37.765   6.150
 8509POPC   C1A52899  44.710  37.660   6.450
 8509POPC   D2A52900  44.710  37.710   6.750
 8509POPC   C3A52901  44.635  37.699   7.050
 8509POPC   C4A52902  44.633  37.713   7.350
 8509POPC   C1B52903  44.567  37.911   6.450
 8509POPC   C2B52904  44.494  37.905   6.750
 8509POPC   C3B52905  44.546  37.852   7.050
 8509POPC   C4B52906  44.568  37.847   7.350
 8510POPC   NC352907  38.486   8.995   5.550
 8510POPC   PO452908  38.493   8.982   5.850
 8510POPC   GL152909  38.498   8.948   6.150
 8510POPC   GL252910  38.502   8.914   6.150
 8510POPC   C1A52911  38.469   8.960   6.450
 8510POPC   D2A52912  38.473   8.941   6.750
 8510POPC   C3A52913  38.408   8.996   7.050
 8510POPC   C4A52914  38.457   8.999   7.350
 8510POPC   C1B52915  38.596   8.781   6.450
 8510POPC   C2B52916  38.636   8.833   6.750
 8510POPC   C3B52917  38.618   8.783   7.050
 8510POPC   C4B52918  38.609   8.790   7.350
 8511POPC   NC352919  18.329  40.762   5.550
 8511POPC   PO452920  18.240  40.743   5.850
 8511POPC   GL152921  18.282  40.815   6.150
 8511POPC   GL252922  18.325  40.916   6.150
 8511POPC   C1A52923  18.271  40.781   6.450
 8511POPC   D2A52924  18.238  40.758   6.750
 8511POPC   C3A52925  18.322  40.786   7.050
 8511POPC   C4A52926  18.306  40.752   7.350
 8511POPC   C1B52927  18.258  41.024   6.450
 8511POPC   C2B52928  18.282  41.073   6.750
 8511POPC   C3B52929  18.249  41.056   7.050
 8511POPC   C4B52930  18.298  41.034   7.350
 8512POPC   NC352931  25.266  16.003   5.550
 8512POPC   PO452932  25.237  15.942   5.850
 8512POPC   GL152933  25.244  15.965   6.150
 8512POPC   GL252934  25.384  15.927   6.150
 8512POPC   C1A52935  25.299  15.945   6.450
 8512POPC   D2A52936  25.253  15.922   6.750
 8512POPC   C3A52937  25.292  15.975   7.050
 8512POPC   C4A52938  25.243  15.913   7.350
 8512POPC   C1B52939  25.486  15.857   6.450
 8512POPC   C2B52940  25.449  15.831   6.750
 8512POPC   C3B52941  25.457  15.854   7.050
 8512POPC   C4B52942  25.455  15.810   7.350
 8513POPC   NC352943  24.455  32.268   5.550
 8513POPC   PO452944  24.471  32.224   5.850
 8513POPC   GL152945  24.449  32.287   6.150
 8513POPC   GL252946  24.469  32.321   6.150
 8513POPC   C1A52947  24.511  32.237   6.450
 8513POPC   D2A52948  24.486  32.265   6.750
 8513POPC   C3A52949  24.488  32.248   7.050
 8513POPC   C4A52950  24.529  32.265   7.350
 8513POPC   C1B52951  24.389  32.523   6.450
 8513POPC   C2B52952  24.388  32.532   6.750
 8513POPC   C3B52953  24.398  32.460   7.050
 8513POPC   C4B52954  24.387  32.502   7.350
 8514POPC   NC352955  33.071   0.417   5.550
 8514POPC   PO452956  33.070   0.450   5.850
 8514POPC   GL152957  33.051   0.479   6.150
 8514POPC   GL252958  32.861   0.386   6.150
 8514POPC   C1A52959  33.063   0.482   6.450
 8514POPC   D2A52960  33.019   0.483   6.750
 8514POPC   C3A52961  33.029   0.470   7.050
 8514POPC   C4A52962  33.055   0.480   7.350
 8514POPC   C1B52963  32.749   0.421   6.450
 8514POPC   C2B52964  32.780   0.390   6.750
 8514POPC   C3B52965  32.807   0.379   7.050
 8514POPC   C4B52966  32.732   0.412   7.350
 8515POPC   NC352967  11.270   5.081   5.550
 8515POPC   PO452968  11.299   5.121   5.850
 8515POPC   GL152969  11.276   5.082   6.150
 8515POPC   GL252970  11.180   5.014   6.150
 8515POPC   C1A52971  11.339   5.088   6.450
 8515POPC   D2A52972  11.292   5.062   6.750
 8515POPC   C3A52973  11.265   5.110   7.050
 8515POPC   C4A52974  11.289   5.070   7.350
 8515POPC   C1B52975  11.101   4.904   6.450
 8515POPC   C2B52976  11.071   4.911   6.750
 8515POPC   C3B52977  11.073   4.971   7.050
 8515POPC   C4B52978  11.145   4.904   7.350
 8516POPC   NC352979  29.181  41.578   5.550
 8516POPC   PO452980  29.126  41.569   5.850
 8516POPC   GL152981  29.152  41.542   6.150
 8516POPC   GL252982  29.101  41.717   6.150
 8516POPC   C1A52983  29.150  41.606   6.450
 8516POPC   D2A52984  29.153  41.607   6.750
 8516POPC   C3A52985  29.132  41.533   7.050
 8516POPC   C4A52986  29.149  41.592   7.350
 8516POPC   C1B52987  29.111  41.779   6.450
 8516POPC   C2B52988  29.174  41.798   6.750
 8516POPC   C3B52989  29.163  41.767   7.050
 8516POPC   C4B52990  29.142  41.806   7.350
 8517POPC   NC352991  29.927   1.947   5.550
 8517POPC   PO452992  29.961   2.032   5.850
 8517POPC   GL152993  29.932   1.960   6.150
 8517POPC   GL252994  29.833   1.919   6.150
 8517POPC   C1A52995  29.871   2.026   6.450
 8517POPC   D2A52996  29.919   2.004   6.750
 8517POPC   C3A52997  29.929   1.947   7.050
 8517POPC   C4A52998  29.961   1.988   7.350
 8517POPC   C1B52999  29.726   1.769   6.450
 8517POPC   C2B53000  29.743   1.783   6.750
 8517POPC   C3B53001  29.746   1.765   7.050
 8517POPC   C4B53002  29.736   1.791   7.350
 8518POPC   NC353003  41.547  31.515   5.550
 8518POPC   PO453004  41.530  31.461   5.850
 8518POPC   GL153005  41.604  31.441   6.150
 8518POPC   GL253006  41.509  31.588   6.150
 8518POPC   C1A53007  41.555  31.521   6.450
 8518POPC   D2A53008  41.594  31.440   6.750
 8518POPC   C3A53009  41.518  31.439   7.050
 8518POPC   C4A53010  41.573  31.518   7.350
 8518POPC   C1B53011  41.575  31.754   6.450
 8518POPC   C2B53012  41.564  31.696   6.750
 8518POPC   C3B53013  41.550  31.724   7.050
 8518POPC   C4B53014  41.525  31.680   7.350
 8519POPC   NC353015  39.208  22.888   5.550
 8519POPC   PO453016  39.203  22.941   5.850
 8519POPC   GL153017  39.182  22.935   6.150
 8519POPC   GL253018  39.314  22.816   6.150
 8519POPC   C1A53019  39.271  22.912   6.450
 8519POPC   D2A53020  39.230  22.890   6.750
 8519POPC   C3A53021  39.279  22.960   7.050
 8519POPC   C4A53022  39.247  22.929   7.350
 8519POPC   C1B53023  39.303  22.664   6.450
 8519POPC   C2B53024  39.321  22.653   6.750
 8519POPC   C3B53025  39.250  22.696   7.050
 8519POPC   C4B53026  39.311  22.720   7.350
 8520POPC   NC353027  26.010  29.899   5.550
 8520POPC   PO453028  25.992  29.936   5.850
 8520POPC   GL153029  26.019  29.915   6.150
 8520POPC   GL253030  26.082  29.860   6.150
 8520POPC   C1A53031  26.066  29.954   6.450
 8520POPC   D2A53032  26.013  29.951   6.750
 8520POPC   C3A53033  25.996  29.947   7.050
 8520POPC   C4A53034  26.091  29.921   7.350
 8520POPC   C1B53035  26.160  29.692   6.450
 8520POPC   C2B53036  26.148  29.724   6.750
 8520POPC   C3B53037  26.126  29.683   7.050
 8520POPC   C4B53038  26.170  29.726   7.350
 8521POPC   NC353039   3.560  14.366   5.550
 8521POPC   PO453040   3.536  14.437   5.850
 8521POPC   GL153041   3.546  14.448   6.150
 8521POPC   GL253042   3.649  14.500   6.150
 8521POPC   C1A53043   3.559  14.371   6.450
 8521POPC   D2A53044   3.544  14.377   6.750
 8521POPC   C3A53045   3.534  14.361   7.050
 8521POPC   C4A53046   3.571  14.452   7.350
 8521POPC   C1B53047   3.706  14.539   6.450
 8521POPC   C2B53048   3.771  14.596   6.750
 8521POPC   C3B53049   3.697  14.586   7.050
 8521POPC   C4B53050   3.703  14.536   7.350
 8522POPC   NC353051   1.952   2.006   5.550
 8522POPC   PO453052   2.004   1.951   5.850
 8522POPC   GL153053   1.964   1.975   6.150
 8522POPC   GL253054   1.850   1.974   6.150
 8522POPC   C1A53055   2.006   2.014   6.450
 8522POPC   D2A53056   2.000   1.977   6.750
 8522POPC   C3A53057   2.016   2.010   7.050
 8522POPC   C4A53058   1.985   2.007   7.350
 8522POPC   C1B53059   1.718   1.897   6.450
 8522POPC   C2B53060   1.701   1.970   6.750
 8522POPC   C3B53061   1.718   1.940   7.050
 8522POPC   C4B53062   1.759   1.949   7.350
 8523POPC   NC353063   1.987   7.455   5.550
 8523POPC   PO453064   1.951   7.438   5.850
 8523POPC   GL153065   1.961   7.416   6.150
 8523POPC   GL253066   1.916   7.280   6.150
 8523POPC   C1A53067   2.039   7.428   6.450
 8523POPC   D2A53068   1.954   7.400   6.750
 8523POPC   C3A53069   1.995   7.418   7.050
 8523POPC   C4A53070   2.002   7.448   7.350
 8523POPC   C1B53071   1.873   7.226   6.450
 8523POPC   C2B53072   1.878   7.197   6.750
 8523POPC   C3B53073   1.909   7.157   7.050
 8523POPC   C4B53074   1.876   7.186   7.350
 8524POPC   NC353075  16.696  34.604   5.550
 8524POPC   PO453076  16.771  34.565   5.850
 8524POPC   GL153077  16.750  34.571   6.150
 8524POPC   GL253078  16.736  34.725   6.150
 8524POPC   C1A53079  16.761  34.595   6.450
 8524POPC   D2A53080  16.760  34.530   6.750
 8524POPC   C3A53081  16.682  34.622   7.050
 8524POPC   C4A53082  16.684  34.538   7.350
 8524POPC   C1B53083  16.832  34.777   6.450
 8524POPC   C2B53084  16.806  34.817   6.750
 8524POPC   C3B53085  16.807  34.839   7.050
 8524POPC   C4B53086  16.745  34.842   7.350
 8525POPC   NC353087   1.999  12.848   5.550
 8525POPC   PO453088   2.017  12.803   5.850
 8525POPC   GL153089   1.980  12.880   6.150
 8525POPC   GL253090   1.952  12.984   6.150
 8525POPC   C1A53091   1.983  12.900   6.450
 8525POPC   D2A53092   1.944  12.843   6.750
 8525POPC   C3A53093   2.035  12.832   7.050
 8525POPC   C4A53094   1.956  12.845   7.350
 8525POPC   C1B53095   1.908  13.124   6.450
 8525POPC   C2B53096   1.842  13.033   6.750
 8525POPC   C3B53097   1.894  13.097   7.050
 8525POPC   C4B53098   1.843  13.043   7.350
 8526POPC   NC353099  26.849  38.424   5.550
 8526POPC   PO453100  26.811  38.485   5.850
 8526POPC   GL153101  26.837  38.410   6.150
 8526POPC   GL253102  26.768  38.524   6.150
 8526POPC   C1A53103  26.787  38.457   6.450
 8526POPC   D2A53104  26.771  38.444   6.750
 8526POPC   C3A53105  26.803  38.435   7.050
 8526POPC   C4A53106  26.862  38.495   7.350
 8526POPC   C1B53107  26.646  38.636   6.450
 8526POPC   C2B53108  26.595  38.610   6.750
 8526POPC   C3B53109  26.588  38.580   7.050
 8526POPC   C4B53110  26.648  38.655   7.350
 8527POPC   NC353111   7.466  42.303   5.550
 8527POPC   PO453112   7.399  42.344   5.850
 8527POPC   GL153113   7.459  42.327   6.150
 8527POPC   GL253114   7.403  42.411   6.150
 8527POPC   C1A53115   7.404  42.373   6.450
 8527POPC   D2A53116   7.412  42.293   6.750
 8527POPC   C3A53117   7.382  42.287   7.050
 8527POPC   C4A53118   7.378  42.353   7.350
 8527POPC   C1B53119   7.445  42.536   6.450
 8527POPC   C2B53120   7.495  42.594   6.750
 8527POPC   C3B53121   7.417  42.555   7.050
 8527POPC   C4B53122   7.478  42.558   7.350
 8528POPC   NC353123   9.762  10.548   5.550
 8528POPC   PO453124   9.734  10.526   5.850
 8528POPC   GL153125   9.701  10.494   6.150
 8528POPC   GL253126   9.785  10.418   6.150
 8528POPC   C1A53127   9.730  10.561   6.450
 8528POPC   D2A53128   9.708  10.519   6.750
 8528POPC   C3A53129   9.763  10.491   7.050
 8528POPC   C4A53130   9.755  10.506   7.350
 8528POPC   C1B53131   9.961  10.295   6.450
 8528POPC   C2B53132   9.951  10.358   6.750
 8528POPC   C3B53133   9.910  10.325   7.050
 8528POPC   C4B53134   9.967  10.376   7.350
 8529POPC   NC353135  15.910   4.310   5.550
 8529POPC   PO453136  15.961   4.359   5.850
 8529POPC   GL153137  15.932   4.278   6.150
 8529POPC   GL253138  15.942   4.444   6.150
 8529POPC   C1A53139  15.946   4.348   6.450
 8529POPC   D2A53140  15.981   4.348   6.750
 8529POPC   C3A53141  15.926   4.325   7.050
 8529POPC   C4A53142  15.961   4.285   7.350
 8529POPC   C1B53143  15.912   4.538   6.450
 8529POPC   C2B53144  15.866   4.600   6.750
 8529POPC   C3B53145  15.924   4.551   7.050
 8529POPC   C4B53146  15.929   4.592   7.350
 8530POPC   NC353147  30.729  35.393   5.550
 8530POPC   PO453148  30.672  35.349   5.850
 8530POPC   GL153149  30.648  35.395   6.150
 8530POPC   GL253150  30.651  35.283   6.150
 8530POPC   C1A53151  30.727  35.384   6.450
 8530POPC   D2A53152  30.682  35.329   6.750
 8530POPC   C3A53153  30.745  35.358   7.050
 8530POPC   C4A53154  30.652  35.306   7.350
 8530POPC   C1B53155  30.639  35.083   6.450
 8530POPC   C2B53156  30.643  35.110   6.750
 8530POPC   C3B53157  30.566  35.159   7.050
 8530POPC   C4B53158  30.643  35.166   7.350
 8531POPC   NC353159  19.075  10.544   5.550
 8531POPC   PO453160  19.052  10.503   5.850
 8531POPC   GL153161  19.021  10.527   6.150
 8531POPC   GL253162  18.990  10.376   6.150
 8531POPC   C1A53163  19.053  10.555   6.450
 8531POPC   D2A53164  19.045  10.533   6.750
 8531POPC   C3A53165  19.106  10.547   7.050
 8531POPC   C4A53166  19.089  10.476   7.350
 8531POPC   C1B53167  19.007  10.251   6.450
 8531POPC   C2B53168  18.984  10.272   6.750
 8531POPC   C3B53169  19.032  10.281   7.050
 8531POPC   C4B53170  18.995  10.283   7.350
 8532POPC   NC353171  44.641  36.931   5.550
 8532POPC   PO453172  44.674  36.899   5.850
 8532POPC   GL153173  44.648  36.921   6.150
 8532POPC   GL253174  44.714  36.779   6.150
 8532POPC   C1A53175  44.623  36.950   6.450
 8532POPC   D2A53176  44.691  36.928   6.750
 8532POPC   C3A53177  44.684  36.923   7.050
 8532POPC   C4A53178  44.636  36.869   7.350
 8532POPC   C1B53179  44.744  36.688   6.450
 8532POPC   C2B53180  44.811  36.684   6.750
 8532POPC   C3B53181  44.730  36.684   7.050
 8532POPC   C4B53182  44.740  36.695   7.350
 8533POPC   NC353183  36.901  22.174   5.550
 8533POPC   PO453184  36.883  22.173   5.850
 8533POPC   GL153185  36.863  22.124   6.150
 8533POPC   GL253186  36.927  22.021   6.150
 8533POPC   C1A53187  36.953  22.171   6.450
 8533POPC   D2A53188  36.863  22.183   6.750
 8533POPC   C3A53189  36.869  22.181   7.050
 8533POPC   C4A53190  36.906  22.186   7.350
 8533POPC   C1B53191  37.010  21.893   6.450
 8533POPC   C2B53192  36.998  21.948   6.750
 8533POPC   C3B53193  36.959  21.960   7.050
 8533POPC   C4B53194  37.016  21.979   7.350
 8534POPC   NC353195   0.479  19.100   5.550
 8534POPC   PO453196   0.467  19.107   5.850
 8534POPC   GL153197   0.424  19.063   6.150
 8534POPC   GL253198   0.547  19.050   6.150
 8534POPC   C1A53199   0.391  19.070   6.450
 8534POPC   D2A53200   0.453  19.030   6.750
 8534POPC   C3A53201   0.434  19.072   7.050
 8534POPC   C4A53202   0.443  19.108   7.350
 8534POPC   C1B53203   0.676  18.982   6.450
 8534POPC   C2B53204   0.629  18.926   6.750
 8534POPC   C3B53205   0.639  18.922   7.050
 8534POPC   C4B53206   0.692  18.998   7.350
 8535POPC   NC353207  39.958   3.591   5.550
 8535POPC   PO453208  40.020   3.528   5.850
 8535POPC   GL153209  40.047   3.586   6.150
 8535POPC   GL253210  40.062   3.627   6.150
 8535POPC   C1A53211  39.976   3.575   6.450
 8535POPC   D2A53212  39.995   3.557   6.750
 8535POPC   C3A53213  39.980   3.550   7.050
 8535POPC   C4A53214  40.001   3.531   7.350
 8535POPC   C1B53215  40.083   3.818   6.450
 8535POPC   C2B53216  40.063   3.745   6.750
 8535POPC   C3B53217  40.086   3.781   7.050
 8535POPC   C4B53218  40.012   3.768   7.350
 8536POPC   NC353219  30.692  13.635   5.550
 8536POPC   PO453220  30.724  13.614   5.850
 8536POPC   GL153221  30.706  13.607   6.150
 8536POPC   GL253222  30.856  13.708   6.150
 8536POPC   C1A53223  30.690  13.630   6.450
 8536POPC   D2A53224  30.651  13.601   6.750
 8536POPC   C3A53225  30.695  13.578   7.050
 8536POPC   C4A53226  30.664  13.618   7.350
 8536POPC   C1B53227  30.892  13.712   6.450
 8536POPC   C2B53228  30.968  13.718   6.750
 8536POPC   C3B53229  30.949  13.707   7.050
 8536POPC   C4B53230  30.955  13.735   7.350
 8537POPC   NC353231  10.567  37.662   5.550
 8537POPC   PO453232  10.483  37.670   5.850
 8537POPC   GL153233  10.503  37.729   6.150
 8537POPC   GL253234  10.444  37.774   6.150
 8537POPC   C1A53235  10.555  37.663   6.450
 8537POPC   D2A53236  10.523  37.720   6.750
 8537POPC   C3A53237  10.537  37.703   7.050
 8537POPC   C4A53238  10.518  37.694   7.350
 8537POPC   C1B53239  10.420  37.878   6.450
 8537POPC   C2B53240  10.423  37.969   6.750
 8537POPC   C3B53241  10.414  37.926   7.050
 8537POPC   C4B53242  10.437  37.885   7.350
 8538POPC   NC353243  32.277  22.206   5.550
 8538POPC   PO453244  32.237  22.125   5.850
 8538POPC   GL153245  32.233  22.176   6.150
 8538POPC   GL253246  32.212  22.065   6.150
 8538POPC   C1A53247  32.206  22.156   6.450
 8538POPC   D2A53248  32.272  22.202   6.750
 8538POPC   C3A53249  32.216  22.199   7.050
 8538POPC   C4A53250  32.230  22.171   7.350
 8538POPC   C1B53251  32.168  21.908   6.450
 8538POPC   C2B53252  32.193  21.931   6.750
 8538POPC   C3B53253  32.151  21.922   7.050
 8538POPC   C4B53254  32.148  21.965   7.350
 8539POPC   NC353255  34.579  40.742   5.550
 8539POPC   PO453256  34.537  40.743   5.850
 8539POPC   GL153257  34.625  40.741   6.150
 8539POPC   GL253258  34.623  40.866   6.150
 8539POPC   C1A53259  34.551  40.745   6.450
 8539POPC   D2A53260  34.609  40.810   6.750
 8539POPC   C3A53261  34.583  40.786   7.050
 8539POPC   C4A53262  34.541  40.796   7.350
 8539POPC   C1B53263  34.684  40.990   6.450
 8539POPC   C2B53264  34.673  40.981   6.750
 8539POPC   C3B53265  34.645  41.032   7.050
 8539POPC   C4B53266  34.623  41.036   7.350
 8540POPC   NC353267  38.431  21.390   5.550
 8540POPC   PO453268  38.456  21.344   5.850
 8540POPC   GL153269  38.452  21.411   6.150
 8540POPC   GL253270  38.426  21.521   6.150
 8540POPC   C1A53271  38.415  21.356   6.450
 8540POPC   D2A53272  38.469  21.372   6.750
 8540POPC   C3A53273  38.489  21.354   7.050
 8540POPC   C4A53274  38.417  21.397   7.350
 8540POPC   C1B53275  38.472  21.632   6.450
 8540POPC   C2B53276  38.406  21.610   6.750
 8540POPC   C3B53277  38.399  21.648   7.050
 8540POPC   C4B53278  38.379  21.674   7.350
 8541POPC   NC353279   0.405  38.495   5.550
 8541POPC   PO453280   0.428  38.445   5.850
 8541POPC   GL153281   0.485  38.497   6.150
 8541POPC   GL253282   0.292  38.498   6.150
 8541POPC   C1A53283   0.427  38.454   6.450
 8541POPC   D2A53284   0.445  38.446   6.750
 8541POPC   C3A53285   0.473  38.464   7.050
 8541POPC   C4A53286   0.415  38.495   7.350
 8541POPC   C1B53287   0.233  38.548   6.450
 8541POPC   C2B53288   0.206  38.475   6.750
 8541POPC   C3B53289   0.223  38.537   7.050
 8541POPC   C4B53290   0.170  38.548   7.350
 8542POPC   NC353291  10.485   1.249   5.550
 8542POPC   PO453292  10.537   1.200   5.850
 8542POPC   GL153293  10.474   1.195   6.150
 8542POPC   GL253294  10.488   1.263   6.150
 8542POPC   C1A53295  10.481   1.260   6.450
 8542POPC   D2A53296  10.540   1.180   6.750
 8542POPC   C3A53297  10.497   1.233   7.050
 8542POPC   C4A53298  10.569   1.215   7.350
 8542POPC   C1B53299  10.367   1.387   6.450
 8542POPC   C2B53300  10.317   1.401   6.750
 8542POPC   C3B53301  10.407   1.441   7.050
 8542POPC   C4B53302  10.364   1.413   7.350
 8543POPC   NC353303   1.194  40.808   5.550
 8543POPC   PO453304   1.169  40.783   5.850
 8543POPC   GL153305   1.233  40.809   6.150
 8543POPC   GL253306   1.316  40.659   6.150
 8543POPC   C1A53307   1.253  40.788   6.450
 8543POPC   D2A53308   1.197  40.777   6.750
 8543POPC   C3A53309   1.228  40.757   7.050
 8543POPC   C4A53310   1.207  40.772   7.350
 8543POPC   C1B53311   1.385  40.633   6.450
 8543POPC   C2B53312   1.333  40.586   6.750
 8543POPC   C3B53313   1.348  40.570   7.050
 8543POPC   C4B53314   1.401  40.606   7.350
 8544POPC   NC353315  29.930  11.257   5.550
 8544POPC   PO453316  29.907  11.260   5.850
 8544POPC   GL153317  29.925  11.302   6.150
 8544POPC   GL253318  29.895  11.198   6.150
 8544POPC   C1A53319  29.936  11.344   6.450
 8544POPC   D2A53320  29.942  11.319   6.750
 8544POPC   C3A53321  29.882  11.268   7.050
 8544POPC   C4A53322  29.956  11.250   7.350
 8544POPC   C1B53323  29.870  11.098   6.450
 8544POPC   C2B53324  29.857  11.013   6.750
 8544POPC   C3B53325  29.847  11.059   7.050
 8544POPC   C4B53326  29.913  11.087   7.350
 8545POPC   NC353327  22.980   0.474   5.550
 8545POPC   PO453328  22.893   0.391   5.850
 8545POPC   GL153329  22.974   0.402   6.150
 8545POPC   GL253330  23.053   0.549   6.150
 8545POPC   C1A53331  22.921   0.456   6.450
 8545POPC   D2A53332  22.952   0.412   6.750
 8545POPC   C3A53333  22.901   0.487   7.050
 8545POPC   C4A53334  22.892   0.425   7.350
 8545POPC   C1B53335  23.165   0.627   6.450
 8545POPC   C2B53336  23.097   0.577   6.750
 8545POPC   C3B53337  23.124   0.599   7.050
 8545POPC   C4B53338  23.154   0.646   7.350
 8546POPC   NC353339  27.625  41.578   5.550
 8546POPC   PO453340  27.588  41.558   5.850
 8546POPC   GL153341  27.607  41.603   6.150
 8546POPC   GL253342  27.588  41.667   6.150
 8546POPC   C1A53343  27.579  41.571   6.450
 8546POPC   D2A53344  27.546  41.598   6.750
 8546POPC   C3A53345  27.559  41.588   7.050
 8546POPC   C4A53346  27.631  41.590   7.350
 8546POPC   C1B53347  27.619  41.802   6.450
 8546POPC   C2B53348  27.671  41.796   6.750
 8546POPC   C3B53349  27.651  41.797   7.050
 8546POPC   C4B53350  27.653  41.772   7.350
 8547POPC   NC353351   5.101  12.805   5.550
 8547POPC   PO453352   5.060  12.869   5.850
 8547POPC   GL153353   5.119  12.859   6.150
 8547POPC   GL253354   5.033  12.901   6.150
 8547POPC   C1A53355   5.044  12.809   6.450
 8547POPC   D2A53356   5.064  12.855   6.750
 8547POPC   C3A53357   5.079  12.819   7.050
 8547POPC   C4A53358   5.090  12.864   7.350
 8547POPC   C1B53359   4.923  13.039   6.450
 8547POPC   C2B53360   4.853  12.980   6.750
 8547POPC   C3B53361   4.922  13.033   7.050
 8547POPC   C4B53362   4.929  12.993   7.350
 8548POPC   NC353363  41.511   6.621   5.550
 8548POPC   PO453364  41.534   6.620   5.850
 8548POPC   GL153365  41.544   6.650   6.150
 8548POPC   GL253366  41.715   6.585   6.150
 8548POPC   C1A53367  41.591   6.637   6.450
 8548POPC   D2A53368  41.562   6.671   6.750
 8548POPC   C3A53369  41.523   6.628   7.050
 8548POPC   C4A53370  41.572   6.604   7.350
 8548POPC   C1B53371  41.801   6.605   6.450
 8548POPC   C2B53372  41.787   6.542   6.750
 8548POPC   C3B53373  41.755   6.582   7.050
 8548POPC   C4B53374  41.760   6.591   7.350
 8549POPC   NC353375   7.406   8.201   5.550
 8549POPC   PO453376   7.386   8.170   5.850
 8549POPC   GL153377   7.416   8.187   6.150
 8549POPC   GL253378   7.589   8.158   6.150
 8549POPC   C1A53379   7.469   8.240   6.450
 8549POPC   D2A53380   7.381   8.217   6.750
 8549POPC   C3A53381   7.440   8.182   7.050
 8549POPC   C4A53382   7.424   8.150   7.350
 8549POPC   C1B53383   7.658   8.075   6.450
 8549POPC   C2B53384   7.649   8.139   6.750
 8549POPC   C3B53385   7.702   8.099   7.050
 8549POPC   C4B53386   7.700   8.159   7.350
 8550POPC   NC353387   8.159   7.440   5.550
 8550POPC   PO453388   8.160   7.425   5.850
 8550POPC   GL153389   8.222   7.375   6.150
 8550POPC   GL253390   8.283   7.299   6.150
 8550POPC   C1A53391   8.206   7.379   6.450
 8550POPC   D2A53392   8.217   7.374   6.750
 8550POPC   C3A53393   8.181   7.457   7.050
 8550POPC   C4A53394   8.178   7.444   7.350
 8550POPC   C1B53395   8.372   7.311   6.450
 8550POPC   C2B53396   8.398   7.294   6.750
 8550POPC   C3B53397   8.444   7.243   7.050
 8550POPC   C4B53398   8.429   7.294   7.350
 8551POPC   NC353399  43.904   1.969   5.550
 8551POPC   PO453400  43.912   1.972   5.850
 8551POPC   GL153401  43.909   1.999   6.150
 8551POPC   GL253402  43.800   2.089   6.150
 8551POPC   C1A53403  43.920   1.957   6.450
 8551POPC   D2A53404  43.906   2.010   6.750
 8551POPC   C3A53405  43.922   2.025   7.050
 8551POPC   C4A53406  43.897   1.997   7.350
 8551POPC   C1B53407  43.695   2.131   6.450
 8551POPC   C2B53408  43.703   2.152   6.750
 8551POPC   C3B53409  43.662   2.118   7.050
 8551POPC   C4B53410  43.640   2.105   7.350
 8552POPC   NC353411  41.595   2.002   5.550
 8552POPC   PO453412  41.576   2.029   5.850
 8552POPC   GL153413  41.599   1.987   6.150
 8552POPC   GL253414  41.644   2.076   6.150
 8552POPC   C1A53415  41.562   1.995   6.450
 8552POPC   D2A53416  41.560   2.037   6.750
 8552POPC   C3A53417  41.542   2.025   7.050
 8552POPC   C4A53418  41.572   2.037   7.350
 8552POPC   C1B53419  41.762   2.074   6.450
 8552POPC   C2B53420  41.819   2.066   6.750
 8552POPC   C3B53421  41.749   2.135   7.050
 8552POPC   C4B53422  41.769   2.105   7.350
 8553POPC   NC353423  41.557  32.280   5.550
 8553POPC   PO453424  41.517  32.243   5.850
 8553POPC   GL153425  41.549  32.216   6.150
 8553POPC   GL253426  41.459  32.394   6.150
 8553POPC   C1A53427  41.534  32.252   6.450
 8553POPC   D2A53428  41.549  32.213   6.750
 8553POPC   C3A53429  41.555  32.252   7.050
 8553POPC   C4A53430  41.585  32.271   7.350
 8553POPC   C1B53431  41.428  32.497   6.450
 8553POPC   C2B53432  41.456  32.516   6.750
 8553POPC   C3B53433  41.398  32.436   7.050
 8553POPC   C4B53434  41.431  32.475   7.350
 8554POPC   NC353435   8.971   5.074   5.550
 8554POPC   PO453436   8.938   5.082   5.850
 8554POPC   GL153437   9.012   5.124   6.150
 8554POPC   GL253438   9.080   5.056   6.150
 8554POPC   C1A53439   8.992   5.121   6.450
 8554POPC   D2A53440   8.933   5.138   6.750
 8554POPC   C3A53441   8.980   5.069   7.050
 8554POPC   C4A53442   8.926   5.057   7.350
 8554POPC   C1B53443   9.158   4.942   6.450
 8554POPC   C2B53444   9.189   4.933   6.750
 8554POPC   C3B53445   9.202   4.961   7.050
 8554POPC   C4B53446   9.194   5.006   7.350
 8555POPC   NC353447   2.002  16.004   5.550
 8555POPC   PO453448   1.952  15.965   5.850
 8555POPC   GL153449   2.034  15.911   6.150
 8555POPC   GL253450   2.051  16.056   6.150
 8555POPC   C1A53451   2.018  15.915   6.450
 8555POPC   D2A53452   1.974  15.917   6.750
 8555POPC   C3A53453   1.975  15.991   7.050
 8555POPC   C4A53454   2.037  15.988   7.350
 8555POPC   C1B53455   2.014  16.154   6.450
 8555POPC   C2B53456   1.992  16.166   6.750
 8555POPC   C3B53457   2.053  16.247   7.050
 8555POPC   C4B53458   2.021  16.163   7.350
 8556POPC   NC353459  23.701   5.832   5.550
 8556POPC   PO453460  23.709   5.909   5.850
 8556POPC   GL153461  23.670   5.839   6.150
 8556POPC   GL253462  23.581   5.827   6.150
 8556POPC   C1A53463  23.753   5.849   6.450
 8556POPC   D2A53464  23.681   5.891   6.750
 8556POPC   C3A53465  23.728   5.910   7.050
 8556POPC   C4A53466  23.685   5.820   7.350
 8556POPC   C1B53467  23.514   5.748   6.450
 8556POPC   C2B53468  23.542   5.731   6.750
 8556POPC   C3B53469  23.500   5.756   7.050
 8556POPC   C4B53470  23.482   5.725   7.350
 8557POPC   NC353471  38.437  22.116   5.550
 8557POPC   PO453472  38.479  22.196   5.850
 8557POPC   GL153473  38.410  22.173   6.150
 8557POPC   GL253474  38.483  22.282   6.150
 8557POPC   C1A53475  38.489  22.191   6.450
 8557POPC   D2A53476  38.413  22.179   6.750
 8557POPC   C3A53477  38.424  22.151   7.050
 8557POPC   C4A53478  38.451  22.184   7.350
 8557POPC   C1B53479  38.545  22.387   6.450
 8557POPC   C2B53480  38.509  22.393   6.750
 8557POPC   C3B53481  38.568  22.428   7.050
 8557POPC   C4B53482  38.554  22.445   7.350
 8558POPC   NC353483   5.894  11.289   5.550
 8558POPC   PO453484   5.890  11.331   5.850
 8558POPC   GL153485   5.854  11.287   6.150
 8558POPC   GL253486   5.850  11.449   6.150
 8558POPC   C1A53487   5.863  11.326   6.450
 8558POPC   D2A53488   5.865  11.259   6.750
 8558POPC   C3A53489   5.880  11.335   7.050
 8558POPC   C4A53490   5.877  11.310   7.350
 8558POPC   C1B53491   5.796  11.579   6.450
 8558POPC   C2B53492   5.805  11.546   6.750
 8558POPC   C3B53493   5.857  11.572   7.050
 8558POPC   C4B53494   5.854  11.509   7.350
 8559POPC   NC353495  24.507  31.426   5.550
 8559POPC   PO453496  24.513  31.462   5.850
 8559POPC   GL153497  24.445  31.515   6.150
 8559POPC   GL253498  24.416  31.379   6.150
 8559POPC   C1A53499  24.537  31.451   6.450
 8559POPC   D2A53500  24.440  31.457   6.750
 8559POPC   C3A53501  24.500  31.460   7.050
 8559POPC   C4A53502  24.442  31.427   7.350
 8559POPC   C1B53503  24.332  31.285   6.450
 8559POPC   C2B53504  24.305  31.348   6.750
 8559POPC   C3B53505  24.333  31.356   7.050
 8559POPC   C4B53506  24.238  31.295   7.350
 8560POPC   NC353507  41.537  15.923   5.550
 8560POPC   PO453508  41.559  15.993   5.850
 8560POPC   GL153509  41.605  15.970   6.150
 8560POPC   GL253510  41.675  15.936   6.150
 8560POPC   C1A53511  41.593  15.917   6.450
 8560POPC   D2A53512  41.513  15.921   6.750
 8560POPC   C3A53513  41.559  15.923   7.050
 8560POPC   C4A53514  41.516  15.935   7.350
 8560POPC   C1B53515  41.774  15.835   6.450
 8560POPC   C2B53516  41.804  15.888   6.750
 8560POPC   C3B53517  41.765  15.860   7.050
 8560POPC   C4B53518  41.743  15.876   7.350
 8561POPC   NC353519   3.511   5.056   5.550
 8561POPC   PO453520   3.493   5.047   5.850
 8561POPC   GL153521   3.494   5.128   6.150
 8561POPC   GL253522   3.631   5.179   6.150
 8561POPC   C1A53523   3.567   5.138   6.450
 8561POPC   D2A53524   3.539   5.074   6.750
 8561POPC   C3A53525   3.496   5.063   7.050
 8561POPC   C4A53526   3.567   5.089   7.350
 8561POPC   C1B53527   3.655   5.343   6.450
 8561POPC   C2B53528   3.617   5.349   6.750
 8561POPC   C3B53529   3.609   5.303   7.050
 8561POPC   C4B53530   3.663   5.327   7.350
 8562POPC   NC353531  26.091  28.379   5.550
 8562POPC   PO453532  26.057  28.324   5.850
 8562POPC   GL153533  26.011  28.362   6.150
 8562POPC   GL253534  25.978  28.289   6.150
 8562POPC   C1A53535  26.048  28.408   6.450
 8562POPC   D2A53536  26.011  28.325   6.750
 8562POPC   C3A53537  26.059  28.363   7.050
 8562POPC   C4A53538  26.061  28.379   7.350
 8562POPC   C1B53539  25.844  28.254   6.450
 8562POPC   C2B53540  25.852  28.264   6.750
 8562POPC   C3B53541  25.892  28.176   7.050
 8562POPC   C4B53542  25.841  28.224   7.350
 8563POPC   NC353543  38.434  27.617   5.550
 8563POPC   PO453544  38.463  27.597   5.850
 8563POPC   GL153545  38.474  27.619   6.150
 8563POPC   GL253546  38.627  27.538   6.150
 8563POPC   C1A53547  38.426  27.571   6.450
 8563POPC   D2A53548  38.444  27.565   6.750
 8563POPC   C3A53549  38.408  27.612   7.050
 8563POPC   C4A53550  38.484  27.553   7.350
 8563POPC   C1B53551  38.722  27.558   6.450
 8563POPC   C2B53552  38.671  27.572   6.750
 8563POPC   C3B53553  38.743  27.551   7.050
 8563POPC   C4B53554  38.695  27.549   7.350
 8564POPC   NC353555  15.980  17.525   5.550
 8564POPC   PO453556  15.975  17.524   5.850
 8564POPC   GL153557  15.943  17.524   6.150
 8564POPC   GL253558  15.920  17.382   6.150
 8564POPC   C1A53559  16.003  17.486   6.450
 8564POPC   D2A53560  15.978  17.488   6.750
 8564POPC   C3A53561  15.987  17.513   7.050
 8564POPC   C4A53562  15.933  17.492   7.350
 8564POPC   C1B53563  15.970  17.286   6.450
 8564POPC   C2B53564  15.934  17.291   6.750
 8564POPC   C3B53565  15.932  17.286   7.050
 8564POPC   C4B53566  15.912  17.234   7.350
 8565POPC   NC353567   6.636  43.069   5.550
 8565POPC   PO453568   6.598  43.125   5.850
 8565POPC   GL153569   6.664  43.153   6.150
 8565POPC   GL253570   6.763  43.164   6.150
 8565POPC   C1A53571   6.695  43.155   6.450
 8565POPC   D2A53572   6.604  43.108   6.750
 8565POPC   C3A53573   6.693  43.099   7.050
 8565POPC   C4A53574   6.690  43.113   7.350
 8565POPC   C1B53575   6.844  43.166   6.450
 8565POPC   C2B53576   6.860  43.166   6.750
 8565POPC   C3B53577   6.914  43.223   7.050
 8565POPC   C4B53578   6.900  43.178   7.350
 8566POPC   NC353579   9.791  24.453   5.550
 8566POPC   PO453580   9.709  24.525   5.850
 8566POPC   GL153581   9.779  24.460   6.150
 8566POPC   GL253582   9.680  24.398   6.150
 8566POPC   C1A53583   9.765  24.442   6.450
 8566POPC   D2A53584   9.773  24.509   6.750
 8566POPC   C3A53585   9.731  24.479   7.050
 8566POPC   C4A53586   9.745  24.536   7.350
 8566POPC   C1B53587   9.734  24.243   6.450
 8566POPC   C2B53588   9.701  24.287   6.750
 8566POPC   C3B53589   9.728  24.246   7.050
 8566POPC   C4B53590   9.655  24.265   7.350
 8567POPC   NC353591  32.977  29.914   5.550
 8567POPC   PO453592  33.063  29.938   5.850
 8567POPC   GL153593  33.031  29.928   6.150
 8567POPC   GL253594  32.953  29.872   6.150
 8567POPC   C1A53595  33.043  29.880   6.450
 8567POPC   D2A53596  33.034  29.956   6.750
 8567POPC   C3A53597  33.040  29.921   7.050
 8567POPC   C4A53598  33.071  29.876   7.350
 8567POPC   C1B53599  32.755  29.845   6.450
 8567POPC   C2B53600  32.749  29.886   6.750
 8567POPC   C3B53601  32.739  29.835   7.050
 8567POPC   C4B53602  32.783  29.865   7.350
 8568POPC   NC353603  33.038  34.600   5.550
 8568POPC   PO453604  32.980  34.598   5.850
 8568POPC   GL153605  33.056  34.575   6.150
 8568POPC   GL253606  33.137  34.581   6.150
 8568POPC   C1A53607  33.005  34.608   6.450
 8568POPC   D2A53608  33.035  34.573   6.750
 8568POPC   C3A53609  33.057  34.580   7.050
 8568POPC   C4A53610  33.071  34.549   7.350
 8568POPC   C1B53611  33.300  34.607   6.450
 8568POPC   C2B53612  33.281  34.684   6.750
 8568POPC   C3B53613  33.215  34.605   7.050
 8568POPC   C4B53614  33.262  34.605   7.350
 8569POPC   NC353615  43.918  16.750   5.550
 8569POPC   PO453616  43.934  16.705   5.850
 8569POPC   GL153617  43.866  16.770   6.150
 8569POPC   GL253618  43.802  16.698   6.150
 8569POPC   C1A53619  43.854  16.696   6.450
 8569POPC   D2A53620  43.860  16.761   6.750
 8569POPC   C3A53621  43.919  16.741   7.050
 8569POPC   C4A53622  43.917  16.725   7.350
 8569POPC   C1B53623  43.597  16.619   6.450
 8569POPC   C2B53624  43.644  16.659   6.750
 8569POPC   C3B53625  43.609  16.682   7.050
 8569POPC   C4B53626  43.661  16.615   7.350
 8570POPC   NC353627  29.188  25.245   5.550
 8570POPC   PO453628  29.104  25.233   5.850
 8570POPC   GL153629  29.108  25.277   6.150
 8570POPC   GL253630  29.012  25.177   6.150
 8570POPC   C1A53631  29.130  25.272   6.450
 8570POPC   D2A53632  29.158  25.217   6.750
 8570POPC   C3A53633  29.188  25.311   7.050
 8570POPC   C4A53634  29.185  25.285   7.350
 8570POPC   C1B53635  28.944  25.177   6.450
 8570POPC   C2B53636  28.890  25.137   6.750
 8570POPC   C3B53637  28.954  25.144   7.050
 8570POPC   C4B53638  28.966  25.175   7.350
 8571POPC   NC353639  27.617   5.142   5.550
 8571POPC   PO453640  27.629   5.072   5.850
 8571POPC   GL153641  27.559   5.050   6.150
 8571POPC   GL253642  27.517   5.009   6.150
 8571POPC   C1A53643  27.641   5.084   6.450
 8571POPC   D2A53644  27.630   5.140   6.750
 8571POPC   C3A53645  27.619   5.108   7.050
 8571POPC   C4A53646  27.563   5.065   7.350
 8571POPC   C1B53647  27.369   5.006   6.450
 8571POPC   C2B53648  27.394   5.034   6.750
 8571POPC   C3B53649  27.384   4.985   7.050
 8571POPC   C4B53650  27.349   4.970   7.350
 8572POPC   NC353651  13.659  40.736   5.550
 8572POPC   PO453652  13.629  40.828   5.850
 8572POPC   GL153653  13.620  40.816   6.150
 8572POPC   GL253654  13.486  40.752   6.150
 8572POPC   C1A53655  13.644  40.832   6.450
 8572POPC   D2A53656  13.645  40.793   6.750
 8572POPC   C3A53657  13.600  40.769   7.050
 8572POPC   C4A53658  13.625  40.745   7.350
 8572POPC   C1B53659  13.412  40.580   6.450
 8572POPC   C2B53660  13.411  40.606   6.750
 8572POPC   C3B53661  13.407  40.610   7.050
 8572POPC   C4B53662  13.479  40.653   7.350
 8573POPC   NC353663  36.883   0.428   5.550
 8573POPC   PO453664  36.934   0.457   5.850
 8573POPC   GL153665  36.930   0.419   6.150
 8573POPC   GL253666  36.989   0.487   6.150
 8573POPC   C1A53667  36.856   0.431   6.450
 8573POPC   D2A53668  36.950   0.424   6.750
 8573POPC   C3A53669  36.884   0.442   7.050
 8573POPC   C4A53670  36.900   0.392   7.350
 8573POPC   C1B53671  37.157   0.503   6.450
 8573POPC   C2B53672  37.139   0.494   6.750
 8573POPC   C3B53673  37.131   0.576   7.050
 8573POPC   C4B53674  37.116   0.478   7.350
 8574POPC   NC353675   9.741   1.250   5.550
 8574POPC   PO453676   9.729   1.185   5.850
 8574POPC   GL153677   9.752   1.183   6.150
 8574POPC   GL253678   9.582   1.215   6.150
 8574POPC   C1A53679   9.740   1.194   6.450
 8574POPC   D2A53680   9.790   1.176   6.750
 8574POPC   C3A53681   9.790   1.235   7.050
 8574POPC   C4A53682   9.774   1.202   7.350
 8574POPC   C1B53683   9.494   1.098   6.450
 8574POPC   C2B53684   9.533   1.148   6.750
 8574POPC   C3B53685   9.553   1.113   7.050
 8574POPC   C4B53686   9.472   1.186   7.350
 8575POPC   NC353687   4.359  15.960   5.550
 8575POPC   PO453688   4.364  15.943   5.850
 8575POPC   GL153689   4.355  15.962   6.150
 8575POPC   GL253690   4.266  16.092   6.150
 8575POPC   C1A53691   4.269  15.926   6.450
 8575POPC   D2A53692   4.290  15.989   6.750
 8575POPC   C3A53693   4.365  15.975   7.050
 8575POPC   C4A53694   4.361  15.956   7.350
 8575POPC   C1B53695   4.184  16.232   6.450
 8575POPC   C2B53696   4.193  16.146   6.750
 8575POPC   C3B53697   4.199  16.172   7.050
 8575POPC   C4B53698   4.264  16.198   7.350
 8576POPC   NC353699  29.904  15.158   5.550
 8576POPC   PO453700  29.951  15.136   5.850
 8576POPC   GL153701  29.879  15.164   6.150
 8576POPC   GL253702  30.041  15.144   6.150
 8576POPC   C1A53703  29.936  15.180   6.450
 8576POPC   D2A53704  29.879  15.228   6.750
 8576POPC   C3A53705  29.931  15.190   7.050
 8576POPC   C4A53706  29.899  15.165   7.350
 8576POPC   C1B53707  30.155  15.025   6.450
 8576POPC   C2B53708  30.077  15.004   6.750
 8576POPC   C3B53709  30.138  15.014   7.050
 8576POPC   C4B53710  30.094  15.067   7.350
 8577POPC   NC353711  12.893  19.039   5.550
 8577POPC   PO453712  12.897  19.065   5.850
 8577POPC   GL153713  12.809  19.019   6.150
 8577POPC   GL253714  12.814  19.160   6.150
 8577POPC   C1A53715  12.844  19.098   6.450
 8577POPC   D2A53716  12.850  19.043   6.750
 8577POPC   C3A53717  12.888  19.037   7.050
 8577POPC   C4A53718  12.844  19.074   7.350
 8577POPC   C1B53719  12.665  19.215   6.450
 8577POPC   C2B53720  12.669  19.207   6.750
 8577POPC   C3B53721  12.718  19.293   7.050
 8577POPC   C4B53722  12.670  19.236   7.350
 8578POPC   NC353723   7.432  16.775   5.550
 8578POPC   PO453724   7.430  16.763   5.850
 8578POPC   GL153725   7.440  16.761   6.150
 8578POPC   GL253726   7.515  16.634   6.150
 8578POPC   C1A53727   7.417  16.684   6.450
 8578POPC   D2A53728   7.386  16.719   6.750
 8578POPC   C3A53729   7.419  16.708   7.050
 8578POPC   C4A53730   7.450  16.765   7.350
 8578POPC   C1B53731   7.575  16.533   6.450
 8578POPC   C2B53732   7.543  16.552   6.750
 8578POPC   C3B53733   7.623  16.552   7.050
 8578POPC   C4B53734   7.618  16.583   7.350
 8579POPC   NC353735  15.165  17.555   5.550
 8579POPC   PO453736  15.217  17.469   5.850
 8579POPC   GL153737  15.170  17.470   6.150
 8579POPC   GL253738  15.214  17.365   6.150
 8579POPC   C1A53739  15.132  17.489   6.450
 8579POPC   D2A53740  15.154  17.519   6.750
 8579POPC   C3A53741  15.135  17.461   7.050
 8579POPC   C4A53742  15.137  17.516   7.350
 8579POPC   C1B53743  15.309  17.305   6.450
 8579POPC   C2B53744  15.319  17.267   6.750
 8579POPC   C3B53745  15.298  17.324   7.050
 8579POPC   C4B53746  15.353  17.270   7.350
 8580POPC   NC353747   1.953   9.018   5.550
 8580POPC   PO453748   1.982   8.939   5.850
 8580POPC   GL153749   1.957   8.948   6.150
 8580POPC   GL253750   1.943   8.886   6.150
 8580POPC   C1A53751   1.962   8.962   6.450
 8580POPC   D2A53752   2.018   8.963   6.750
 8580POPC   C3A53753   1.987   8.960   7.050
 8580POPC   C4A53754   1.974   8.939   7.350
 8580POPC   C1B53755   1.873   8.692   6.450
 8580POPC   C2B53756   1.857   8.718   6.750
 8580POPC   C3B53757   1.938   8.767   7.050
 8580POPC   C4B53758   1.876   8.742   7.350
 8581POPC   NC353759  13.638  27.611   5.550
 8581POPC   PO453760  13.641  27.638   5.850
 8581POPC   GL153761  13.674  27.554   6.150
 8581POPC   GL253762  13.475  27.664   6.150
 8581POPC   C1A53763  13.630  27.627   6.450
 8581POPC   D2A53764  13.621  27.551   6.750
 8581POPC   C3A53765  13.616  27.609   7.050
 8581POPC   C4A53766  13.659  27.570   7.350
 8581POPC   C1B53767  13.370  27.653   6.450
 8581POPC   C2B53768  13.375  27.654   6.750
 8581POPC   C3B53769  13.346  27.720   7.050
 8581POPC   C4B53770  13.356  27.706   7.350
 8582POPC   NC353771  27.562  38.454   5.550
 8582POPC   PO453772  27.627  38.452   5.850
 8582POPC   GL153773  27.594  38.471   6.150
 8582POPC   GL253774  27.446  38.417   6.150
 8582POPC   C1A53775  27.616  38.482   6.450
 8582POPC   D2A53776  27.591  38.475   6.750
 8582POPC   C3A53777  27.560  38.437   7.050
 8582POPC   C4A53778  27.642  38.482   7.350
 8582POPC   C1B53779  27.321  38.416   6.450
 8582POPC   C2B53780  27.361  38.462   6.750
 8582POPC   C3B53781  27.301  38.407   7.050
 8582POPC   C4B53782  27.381  38.410   7.350
 8583POPC   NC353783   3.591  44.691   5.550
 8583POPC   PO453784   3.492  44.671   5.850
 8583POPC   GL153785   3.539  44.684   6.150
 8583POPC   GL253786   3.657  44.643   6.150
 8583POPC   C1A53787   3.544  44.654   6.450
 8583POPC   D2A53788   3.560  44.700   6.750
 8583POPC   C3A53789   3.503  44.628   7.050
 8583POPC   C4A53790   3.515  44.653   7.350
 8583POPC   C1B53791   3.784  44.517   6.450
 8583POPC   C2B53792   3.751  44.599   6.750
 8583POPC   C3B53793   3.797  44.590   7.050
 8583POPC   C4B53794   3.774  44.534   7.350
 8584POPC   NC353795  15.992   1.213   5.550
 8584POPC   PO453796  15.986   1.187   5.850
 8584POPC   GL153797  15.915   1.202   6.150
 8584POPC   GL253798  16.022   1.151   6.150
 8584POPC   C1A53799  15.962   1.209   6.450
 8584POPC   D2A53800  15.954   1.225   6.750
 8584POPC   C3A53801  15.925   1.234   7.050
 8584POPC   C4A53802  15.910   1.236   7.350
 8584POPC   C1B53803  16.172   1.074   6.450
 8584POPC   C2B53804  16.176   1.121   6.750
 8584POPC   C3B53805  16.207   1.065   7.050
 8584POPC   C4B53806  16.210   1.126   7.350
 8585POPC   NC353807  44.629   2.810   5.550
 8585POPC   PO453808  44.712   2.760   5.850
 8585POPC   GL153809  44.662   2.728   6.150
 8585POPC   GL253810  44.530   2.783   6.150
 8585POPC   C1A53811  44.614   2.776   6.450
 8585POPC   D2A53812  44.653   2.745   6.750
 8585POPC   C3A53813  44.708   2.747   7.050
 8585POPC   C4A53814  44.615   2.770   7.350
 8585POPC   C1B53815  44.428   2.679   6.450
 8585POPC   C2B53816  44.445   2.716   6.750
 8585POPC   C3B53817  44.425   2.688   7.050
 8585POPC   C4B53818  44.387   2.747   7.350
 8586POPC   NC353819  20.653  22.181   5.550
 8586POPC   PO453820  20.591  22.198   5.850
 8586POPC   GL153821  20.657  22.204   6.150
 8586POPC   GL253822  20.548  22.210   6.150
 8586POPC   C1A53823  20.574  22.120   6.450
 8586POPC   D2A53824  20.657  22.206   6.750
 8586POPC   C3A53825  20.576  22.161   7.050
 8586POPC   C4A53826  20.647  22.178   7.350
 8586POPC   C1B53827  20.407  22.278   6.450
 8586POPC   C2B53828  20.435  22.299   6.750
 8586POPC   C3B53829  20.436  22.327   7.050
 8586POPC   C4B53830  20.369  22.299   7.350
 8587POPC   NC353831  18.267  19.866   5.550
 8587POPC   PO453832  18.241  19.864   5.850
 8587POPC   GL153833  18.305  19.842   6.150
 8587POPC   GL253834  18.249  19.694   6.150
 8587POPC   C1A53835  18.306  19.785   6.450
 8587POPC   D2A53836  18.237  19.833   6.750
 8587POPC   C3A53837  18.264  19.805   7.050
 8587POPC   C4A53838  18.275  19.880   7.350
 8587POPC   C1B53839  18.215  19.625   6.450
 8587POPC   C2B53840  18.280  19.588   6.750
 8587POPC   C3B53841  18.217  19.619   7.050
 8587POPC   C4B53842  18.221  19.593   7.350
 8588POPC   NC353843  30.670  32.280   5.550
 8588POPC   PO453844  30.661  32.258   5.850
 8588POPC   GL153845  30.742  32.220   6.150
 8588POPC   GL253846  30.786  32.192   6.150
 8588POPC   C1A53847  30.669  32.221   6.450
 8588POPC   D2A53848  30.740  32.247   6.750
 8588POPC   C3A53849  30.700  32.231   7.050
 8588POPC   C4A53850  30.689  32.249   7.350
 8588POPC   C1B53851  30.880  32.157   6.450
 8588POPC   C2B53852  30.919  32.170   6.750
 8588POPC   C3B53853  30.926  32.145   7.050
 8588POPC   C4B53854  30.906  32.169   7.350
 8589POPC   NC353855   7.456  38.464   5.550
 8589POPC   PO453856   7.419  38.443   5.850
 8589POPC   GL153857   7.426  38.460   6.150
 8589POPC   GL253858   7.293  38.502   6.150
 8589POPC   C1A53859   7.400  38.504   6.450
 8589POPC   D2A53860   7.390  38.431   6.750
 8589POPC   C3A53861   7.433  38.416   7.050
 8589POPC   C4A53862   7.392  38.432   7.350
 8589POPC   C1B53863   7.208  38.555   6.450
 8589POPC   C2B53864   7.240  38.552   6.750
 8589POPC   C3B53865   7.240  38.570   7.050
 8589POPC   C4B53866   7.184  38.588   7.350
 8590POPC   NC353867   8.987  26.855   5.550
 8590POPC   PO453868   8.981  26.836   5.850
 8590POPC   GL153869   9.006  26.825   6.150
 8590POPC   GL253870   8.894  26.845   6.150
 8590POPC   C1A53871   8.993  26.771   6.450
 8590POPC   D2A53872   9.019  26.826   6.750
 8590POPC   C3A53873   8.941  26.858   7.050
 8590POPC   C4A53874   8.926  26.773   7.350
 8590POPC   C1B53875   8.772  26.866   6.450
 8590POPC   C2B53876   8.727  26.849   6.750
 8590POPC   C3B53877   8.736  26.835   7.050
 8590POPC   C4B53878   8.694  26.923   7.350
 8591POPC   NC353879  22.167  24.458   5.550
 8591POPC   PO453880  22.163  24.532   5.850
 8591POPC   GL153881  22.152  24.486   6.150
 8591POPC   GL253882  22.083  24.425   6.150
 8591POPC   C1A53883  22.180  24.454   6.450
 8591POPC   D2A53884  22.158  24.474   6.750
 8591POPC   C3A53885  22.117  24.491   7.050
 8591POPC   C4A53886  22.167  24.484   7.350
 8591POPC   C1B53887  21.977  24.363   6.450
 8591POPC   C2B53888  21.939  24.322   6.750
 8591POPC   C3B53889  21.946  24.308   7.050
 8591POPC   C4B53890  21.996  24.294   7.350
 8592POPC   NC353891  14.417  43.845   5.550
 8592POPC   PO453892  14.451  43.874   5.850
 8592POPC   GL153893  14.443  43.902   6.150
 8592POPC   GL253894  14.532  43.757   6.150
 8592POPC   C1A53895  14.378  43.924   6.450
 8592POPC   D2A53896  14.409  43.856   6.750
 8592POPC   C3A53897  14.443  43.855   7.050
 8592POPC   C4A53898  14.410  43.837   7.350
 8592POPC   C1B53899  14.616  43.684   6.450
 8592POPC   C2B53900  14.613  43.742   6.750
 8592POPC   C3B53901  14.549  43.705   7.050
 8592POPC   C4B53902  14.556  43.704   7.350
 8593POPC   NC353903  33.804  32.233   5.550
 8593POPC   PO453904  33.835  32.217   5.850
 8593POPC   GL153905  33.842  32.266   6.150
 8593POPC   GL253906  33.712  32.340   6.150
 8593POPC   C1A53907  33.830  32.296   6.450
 8593POPC   D2A53908  33.802  32.220   6.750
 8593POPC   C3A53909  33.757  32.232   7.050
 8593POPC   C4A53910  33.765  32.296   7.350
 8593POPC   C1B53911  33.651  32.424   6.450
 8593POPC   C2B53912  33.643  32.418   6.750
 8593POPC   C3B53913  33.631  32.414   7.050
 8593POPC   C4B53914  33.594  32.406   7.350
 8594POPC   NC353915  38.409  36.907   5.550
 8594POPC   PO453916  38.486  36.882   5.850
 8594POPC   GL153917  38.488  36.884   6.150
 8594POPC   GL253918  38.538  37.012   6.150
 8594POPC   C1A53919  38.461  36.864   6.450
 8594POPC   D2A53920  38.459  36.886   6.750
 8594POPC   C3A53921  38.473  36.931   7.050
 8594POPC   C4A53922  38.501  36.918   7.350
 8594POPC   C1B53923  38.610  37.046   6.450
 8594POPC   C2B53924  38.586  37.050   6.750
 8594POPC   C3B53925  38.649  37.113   7.050
 8594POPC   C4B53926  38.609  37.137   7.350
 8595POPC   NC353927  43.893  28.353   5.550
 8595POPC   PO453928  43.924  28.358   5.850
 8595POPC   GL153929  43.876  28.412   6.150
 8595POPC   GL253930  43.985  28.350   6.150
 8595POPC   C1A53931  43.926  28.343   6.450
 8595POPC   D2A53932  43.898  28.415   6.750
 8595POPC   C3A53933  43.859  28.335   7.050
 8595POPC   C4A53934  43.882  28.383   7.350
 8595POPC   C1B53935  44.148  28.413   6.450
 8595POPC   C2B53936  44.181  28.364   6.750
 8595POPC   C3B53937  44.161  28.327   7.050
 8595POPC   C4B53938  44.098  28.386   7.350
 8596POPC   NC353939  11.303  25.299   5.550
 8596POPC   PO453940  11.253  25.309   5.850
 8596POPC   GL153941  11.311  25.244   6.150
 8596POPC   GL253942  11.232  25.371   6.150
 8596POPC   C1A53943  11.293  25.312   6.450
 8596POPC   D2A53944  11.349  25.228   6.750
 8596POPC   C3A53945  11.329  25.291   7.050
 8596POPC   C4A53946  11.301  25.226   7.350
 8596POPC   C1B53947  11.106  25.424   6.450
 8596POPC   C2B53948  11.181  25.484   6.750
 8596POPC   C3B53949  11.152  25.437   7.050
 8596POPC   C4B53950  11.113  25.451   7.350
 8597POPC   NC353951  22.944  25.240   5.550
 8597POPC   PO453952  22.918  25.307   5.850
 8597POPC   GL153953  22.955  25.301   6.150
 8597POPC   GL253954  22.906  25.182   6.150
 8597POPC   C1A53955  22.975  25.247   6.450
 8597POPC   D2A53956  22.918  25.306   6.750
 8597POPC   C3A53957  22.959  25.246   7.050
 8597POPC   C4A53958  22.936  25.216   7.350
 8597POPC   C1B53959  22.812  25.020   6.450
 8597POPC   C2B53960  22.778  25.091   6.750
 8597POPC   C3B53961  22.846  25.015   7.050
 8597POPC   C4B53962  22.827  25.074   7.350
 8598POPC   NC353963  38.423  15.967   5.550
 8598POPC   PO453964  38.466  15.912   5.850
 8598POPC   GL153965  38.473  15.939   6.150
 8598POPC   GL253966  38.493  16.067   6.150
 8598POPC   C1A53967  38.492  15.918   6.450
 8598POPC   D2A53968  38.456  15.949   6.750
 8598POPC   C3A53969  38.454  16.003   7.050
 8598POPC   C4A53970  38.473  15.907   7.350
 8598POPC   C1B53971  38.479  16.201   6.450
 8598POPC   C2B53972  38.434  16.172   6.750
 8598POPC   C3B53973  38.491  16.211   7.050
 8598POPC   C4B53974  38.495  16.178   7.350
 8599POPC   NC353975  34.562  17.533   5.550
 8599POPC   PO453976  34.611  17.535   5.850
 8599POPC   GL153977  34.540  17.467   6.150
 8599POPC   GL253978  34.657  17.532   6.150
 8599POPC   C1A53979  34.543  17.500   6.450
 8599POPC   D2A53980  34.590  17.509   6.750
 8599POPC   C3A53981  34.587  17.522   7.050
 8599POPC   C4A53982  34.600  17.479   7.350
 8599POPC   C1B53983  34.809  17.652   6.450
 8599POPC   C2B53984  34.786  17.695   6.750
 8599POPC   C3B53985  34.818  17.627   7.050
 8599POPC   C4B53986  34.769  17.662   7.350
 8600POPC   NC353987   2.800  10.569   5.550
 8600POPC   PO453988   2.743  10.562   5.850
 8600POPC   GL153989   2.777  10.499   6.150
 8600POPC   GL253990   2.795  10.404   6.150
 8600POPC   C1A53991   2.772  10.506   6.450
 8600POPC   D2A53992   2.763  10.546   6.750
 8600POPC   C3A53993   2.725  10.478   7.050
 8600POPC   C4A53994   2.753  10.541   7.350
 8600POPC   C1B53995   2.887  10.342   6.450
 8600POPC   C2B53996   2.878  10.343   6.750
 8600POPC   C3B53997   2.942  10.325   7.050
 8600POPC   C4B53998   2.919  10.283   7.350
 8601POPC   NC353999   1.232  13.629   5.550
 8601POPC   PO454000   1.239  13.589   5.850
 8601POPC   GL154001   1.187  13.592   6.150
 8601POPC   GL254002   1.223  13.706   6.150
 8601POPC   C1A54003   1.178  13.660   6.450
 8601POPC   D2A54004   1.216  13.662   6.750
 8601POPC   C3A54005   1.215  13.659   7.050
 8601POPC   C4A54006   1.244  13.659   7.350
 8601POPC   C1B54007   1.275  13.880   6.450
 8601POPC   C2B54008   1.257  13.871   6.750
 8601POPC   C3B54009   1.256  13.885   7.050
 8601POPC   C4B54010   1.228  13.918   7.350
 8602POPC   NC354011  37.650  44.700   5.550
 8602POPC   PO454012  37.645  44.648   5.850
 8602POPC   GL154013  37.692  44.652   6.150
 8602POPC   GL254014  37.837  44.658   6.150
 8602POPC   C1A54015  37.651  44.697   6.450
 8602POPC   D2A54016  37.659  44.681   6.750
 8602POPC   C3A54017  37.673  44.660   7.050
 8602POPC   C4A54018  37.687  44.681   7.350
 8602POPC   C1B54019  37.959  44.734   6.450
 8602POPC   C2B54020  37.867  44.690   6.750
 8602POPC   C3B54021  37.924  44.753   7.050
 8602POPC   C4B54022  37.897  44.744   7.350
 8603POPC   NC354023  37.728  15.225   5.550
 8603POPC   PO454024  37.700  15.190   5.850
 8603POPC   GL154025  37.653  15.167   6.150
 8603POPC   GL254026  37.597  15.315   6.150
 8603POPC   C1A54027  37.690  15.174   6.450
 8603POPC   D2A54028  37.652  15.214   6.750
 8603POPC   C3A54029  37.661  15.166   7.050
 8603POPC   C4A54030  37.647  15.180   7.350
 8603POPC   C1B54031  37.566  15.398   6.450
 8603POPC   C2B54032  37.496  15.371   6.750
 8603POPC   C3B54033  37.541  15.373   7.050
 8603POPC   C4B54034  37.526  15.341   7.350
 8604POPC   NC354035   1.967  26.085   5.550
 8604POPC   PO454036   1.957  26.039   5.850
 8604POPC   GL154037   2.001  26.019   6.150
 8604POPC   GL254038   2.089  25.977   6.150
 8604POPC   C1A54039   2.037  26.032   6.450
 8604POPC   D2A54040   1.957  26.061   6.750
 8604POPC   C3A54041   1.984  26.056   7.050
 8604POPC   C4A54042   1.941  26.059   7.350
 8604POPC   C1B54043   2.114  25.835   6.450
 8604POPC   C2B54044   2.110  25.805   6.750
 8604POPC   C3B54045   2.163  25.786   7.050
 8604POPC   C4B54046   2.130  25.802   7.350
 8605POPC   NC354047  29.158  30.694   5.550
 8605POPC   PO454048  29.170  30.701   5.850
 8605POPC   GL154049  29.178  30.728   6.150
 8605POPC   GL254050  29.074  30.641   6.150
 8605POPC   C1A54051  29.105  30.733   6.450
 8605POPC   D2A54052  29.173  30.661   6.750
 8605POPC   C3A54053  29.165  30.676   7.050
 8605POPC   C4A54054  29.114  30.716   7.350
 8605POPC   C1B54055  28.945  30.631   6.450
 8605POPC   C2B54056  28.861  30.652   6.750
 8605POPC   C3B54057  28.873  30.645   7.050
 8605POPC   C4B54058  28.871  30.582   7.350
 8606POPC   NC354059  10.526  18.304   5.550
 8606POPC   PO454060  10.500  18.245   5.850
 8606POPC   GL154061  10.510  18.298   6.150
 8606POPC   GL254062  10.643  18.360   6.150
 8606POPC   C1A54063  10.562  18.317   6.450
 8606POPC   D2A54064  10.538  18.296   6.750
 8606POPC   C3A54065  10.490  18.296   7.050
 8606POPC   C4A54066  10.526  18.307   7.350
 8606POPC   C1B54067  10.753  18.477   6.450
 8606POPC   C2B54068  10.727  18.410   6.750
 8606POPC   C3B54069  10.728  18.413   7.050
 8606POPC   C4B54070  10.728  18.484   7.350
 8607POPC   NC354071  43.137  43.132   5.550
 8607POPC   PO454072  43.068  43.102   5.850
 8607POPC   GL154073  43.073  43.119   6.150
 8607POPC   GL254074  42.999  42.989   6.150
 8607POPC   C1A54075  43.069  43.149   6.450
 8607POPC   D2A54076  43.106  43.104   6.750
 8607POPC   C3A54077  43.120  43.159   7.050
 8607POPC   C4A54078  43.101  43.067   7.350
 8607POPC   C1B54079  42.934  42.926   6.450
 8607POPC   C2B54080  42.931  43.017   6.750
 8607POPC   C3B54081  42.881  42.955   7.050
 8607POPC   C4B54082  42.945  43.014   7.350
 8608POPC   NC354083  41.606  36.940   5.550
 8608POPC   PO454084  41.605  36.893   5.850
 8608POPC   GL154085  41.509  36.923   6.150
 8608POPC   GL254086  41.701  36.973   6.150
 8608POPC   C1A54087  41.512  36.935   6.450
 8608POPC   D2A54088  41.516  36.887   6.750
 8608POPC   C3A54089  41.573  36.886   7.050
 8608POPC   C4A54090  41.568  36.911   7.350
 8608POPC   C1B54091  41.848  36.981   6.450
 8608POPC   C2B54092  41.834  36.940   6.750
 8608POPC   C3B54093  41.753  36.994   7.050
 8608POPC   C4B54094  41.826  36.972   7.350
 8609POPC   NC354095  17.465  26.769   5.550
 8609POPC   PO454096  17.467  26.849   5.850
 8609POPC   GL154097  17.467  26.768   6.150
 8609POPC   GL254098  17.521  26.741   6.150
 8609POPC   C1A54099  17.476  26.781   6.450
 8609POPC   D2A54100  17.488  26.860   6.750
 8609POPC   C3A54101  17.543  26.805   7.050
 8609POPC   C4A54102  17.517  26.855   7.350
 8609POPC   C1B54103  17.493  26.540   6.450
 8609POPC   C2B54104  17.514  26.572   6.750
 8609POPC   C3B54105  17.454  26.570   7.050
 8609POPC   C4B54106  17.444  26.539   7.350
 8610POPC   NC354107  43.071  37.724   5.550
 8610POPC   PO454108  43.134  37.694   5.850
 8610POPC   GL154109  43.135  37.694   6.150
 8610POPC   GL254110  43.247  37.627   6.150
 8610POPC   C1A54111  43.148  37.697   6.450
 8610POPC   D2A54112  43.078  37.640   6.750
 8610POPC   C3A54113  43.158  37.719   7.050
 8610POPC   C4A54114  43.119  37.682   7.350
 8610POPC   C1B54115  43.330  37.652   6.450
 8610POPC   C2B54116  43.351  37.678   6.750
 8610POPC   C3B54117  43.395  37.658   7.050
 8610POPC   C4B54118  43.319  37.685   7.350
 8611POPC   NC354119   5.821  18.264   5.550
 8611POPC   PO454120   5.849  18.273   5.850
 8611POPC   GL154121   5.918  18.324   6.150
 8611POPC   GL254122   5.981  18.342   6.150
 8611POPC   C1A54123   5.845  18.316   6.450
 8611POPC   D2A54124   5.896  18.332   6.750
 8611POPC   C3A54125   5.847  18.316   7.050
 8611POPC   C4A54126   5.840  18.328   7.350
 8611POPC   C1B54127   6.012  18.443   6.450
 8611POPC   C2B54128   6.089  18.505   6.750
 8611POPC   C3B54129   6.062  18.427   7.050
 8611POPC   C4B54130   6.001  18.484   7.350
 8612POPC   NC354131  18.264  36.870   5.550
 8612POPC   PO454132  18.277  36.932   5.850
 8612POPC   GL154133  18.234  36.885   6.150
 8612POPC   GL254134  18.335  37.029   6.150
 8612POPC   C1A54135  18.317  36.893   6.450
 8612POPC   D2A54136  18.286  36.913   6.750
 8612POPC   C3A54137  18.248  36.953   7.050
 8612POPC   C4A54138  18.293  36.886   7.350
 8612POPC   C1B54139  18.446  37.078   6.450
 8612POPC   C2B54140  18.431  37.127   6.750
 8612POPC   C3B54141  18.470  37.041   7.050
 8612POPC   C4B54142  18.402  37.105   7.350
 8613POPC   NC354143   5.109  40.808   5.550
 8613POPC   PO454144   5.134  40.775   5.850
 8613POPC   GL154145   5.136  40.751   6.150
 8613POPC   GL254146   5.224  40.729   6.150
 8613POPC   C1A54147   5.047  40.822   6.450
 8613POPC   D2A54148   5.044  40.783   6.750
 8613POPC   C3A54149   5.047  40.784   7.050
 8613POPC   C4A54150   5.063  40.807   7.350
 8613POPC   C1B54151   5.311  40.665   6.450
 8613POPC   C2B54152   5.325  40.656   6.750
 8613POPC   C3B54153   5.271  40.627   7.050
 8613POPC   C4B54154   5.354  40.641   7.350
 8614POPC   NC354155   9.791  21.416   5.550
 8614POPC   PO454156   9.778  21.345   5.850
 8614POPC   GL154157   9.792  21.425   6.150
 8614POPC   GL254158   9.911  21.436   6.150
 8614POPC   C1A54159   9.780  21.407   6.450
 8614POPC   D2A54160   9.732  21.341   6.750
 8614POPC   C3A54161   9.733  21.357   7.050
 8614POPC   C4A54162   9.759  21.376   7.350
 8614POPC   C1B54163   9.955  21.420   6.450
 8614POPC   C2B54164   9.952  21.503   6.750
 8614POPC   C3B54165   9.987  21.426   7.050
 8614POPC   C4B54166   9.943  21.423   7.350
 8615POPC   NC354167  22.201  25.278   5.550
 8615POPC   PO454168  22.181  25.270   5.850
 8615POPC   GL154169  22.139  25.243   6.150
 8615POPC   GL254170  22.214  25.348   6.150
 8615POPC   C1A54171  22.113  25.295   6.450
 8615POPC   D2A54172  22.117  25.253   6.750
 8615POPC   C3A54173  22.193  25.289   7.050
 8615POPC   C4A54174  22.199  25.251   7.350
 8615POPC   C1B54175  22.200  25.523   6.450
 8615POPC   C2B54176  22.193  25.554   6.750
 8615POPC   C3B54177  22.204  25.548   7.050
 8615POPC   C4B54178  22.177  25.475   7.350
 8616POPC   NC354179  17.540  25.998   5.550
 8616POPC   PO454180  17.556  26.007   5.850
 8616POPC   GL154181  17.537  25.992   6.150
 8616POPC   GL254182  17.445  26.180   6.150
 8616POPC   C1A54183  17.524  26.041   6.450
 8616POPC   D2A54184  17.498  26.010   6.750
 8616POPC   C3A54185  17.506  26.042   7.050
 8616POPC   C4A54186  17.518  26.055   7.350
 8616POPC   C1B54187  17.437  26.287   6.450
 8616POPC   C2B54188  17.374  26.311   6.750
 8616POPC   C3B54189  17.386  26.240   7.050
 8616POPC   C4B54190  17.442  26.293   7.350
 8617POPC   NC354191  15.152  15.217   5.550
 8617POPC   PO454192  15.196  15.150   5.850
 8617POPC   GL154193  15.156  15.158   6.150
 8617POPC   GL254194  15.146  15.304   6.150
 8617POPC   C1A54195  15.162  15.144   6.450
 8617POPC   D2A54196  15.226  15.144   6.750
 8617POPC   C3A54197  15.189  15.140   7.050
 8617POPC   C4A54198  15.228  15.146   7.350
 8617POPC   C1B54199  15.095  15.355   6.450
 8617POPC   C2B54200  15.043  15.395   6.750
 8617POPC   C3B54201  15.068  15.352   7.050
 8617POPC   C4B54202  15.041  15.431   7.350
 8618POPC   NC354203  33.001   1.191   5.550
 8618POPC   PO454204  32.985   1.242   5.850
 8618POPC   GL154205  33.070   1.258   6.150
 8618POPC   GL254206  32.926   1.327   6.150
 8618POPC   C1A54207  33.005   1.260   6.450
 8618POPC   D2A54208  33.011   1.184   6.750
 8618POPC   C3A54209  33.062   1.212   7.050
 8618POPC   C4A54210  33.043   1.209   7.350
 8618POPC   C1B54211  32.899   1.389   6.450
 8618POPC   C2B54212  32.889   1.470   6.750
 8618POPC   C3B54213  32.924   1.435   7.050
 8618POPC   C4B54214  32.903   1.413   7.350
 8619POPC   NC354215  41.601  12.861   5.550
 8619POPC   PO454216  41.569  12.884   5.850
 8619POPC   GL154217  41.596  12.828   6.150
 8619POPC   GL254218  41.699  12.742   6.150
 8619POPC   C1A54219  41.547  12.841   6.450
 8619POPC   D2A54220  41.538  12.827   6.750
 8619POPC   C3A54221  41.516  12.838   7.050
 8619POPC   C4A54222  41.555  12.867   7.350
 8619POPC   C1B54223  41.786  12.640   6.450
 8619POPC   C2B54224  41.749  12.715   6.750
 8619POPC   C3B54225  41.794  12.719   7.050
 8619POPC   C4B54226  41.706  12.699   7.350
 8620POPC   NC354227   2.743   4.355   5.550
 8620POPC   PO454228   2.788   4.337   5.850
 8620POPC   GL154229   2.780   4.360   6.150
 8620POPC   GL254230   2.668   4.272   6.150
 8620POPC   C1A54231   2.726   4.350   6.450
 8620POPC   D2A54232   2.733   4.324   6.750
 8620POPC   C3A54233   2.771   4.303   7.050
 8620POPC   C4A54234   2.720   4.361   7.350
 8620POPC   C1B54235   2.553   4.238   6.450
 8620POPC   C2B54236   2.521   4.224   6.750
 8620POPC   C3B54237   2.520   4.197   7.050
 8620POPC   C4B54238   2.533   4.190   7.350
 8621POPC   NC354239   0.429  19.857   5.550
 8621POPC   PO454240   0.443  19.814   5.850
 8621POPC   GL154241   0.469  19.845   6.150
 8621POPC   GL254242   0.537  19.943   6.150
 8621POPC   C1A54243   0.421  19.832   6.450
 8621POPC   D2A54244   0.477  19.791   6.750
 8621POPC   C3A54245   0.433  19.812   7.050
 8621POPC   C4A54246   0.422  19.871   7.350
 8621POPC   C1B54247   0.573  20.085   6.450
 8621POPC   C2B54248   0.559  20.004   6.750
 8621POPC   C3B54249   0.597  20.014   7.050
 8621POPC   C4B54250   0.589  20.075   7.350
 8622POPC   NC354251  15.175  20.630   5.550
 8622POPC   PO454252  15.133  20.615   5.850
 8622POPC   GL154253  15.201  20.639   6.150
 8622POPC   GL254254  15.105  20.537   6.150
 8622POPC   C1A54255  15.202  20.599   6.450
 8622POPC   D2A54256  15.190  20.608   6.750
 8622POPC   C3A54257  15.179  20.646   7.050
 8622POPC   C4A54258  15.193  20.631   7.350
 8622POPC   C1B54259  15.057  20.438   6.450
 8622POPC   C2B54260  14.986  20.400   6.750
 8622POPC   C3B54261  15.009  20.435   7.050
 8622POPC   C4B54262  15.062  20.420   7.350
 8623POPC   NC354263  40.738  26.009   5.550
 8623POPC   PO454264  40.749  26.089   5.850
 8623POPC   GL154265  40.819  26.001   6.150
 8623POPC   GL254266  40.728  26.016   6.150
 8623POPC   C1A54267  40.741  26.075   6.450
 8623POPC   D2A54268  40.736  25.996   6.750
 8623POPC   C3A54269  40.771  26.008   7.050
 8623POPC   C4A54270  40.753  26.032   7.350
 8623POPC   C1B54271  40.617  25.897   6.450
 8623POPC   C2B54272  40.573  25.849   6.750
 8623POPC   C3B54273  40.541  25.847   7.050
 8623POPC   C4B54274  40.533  25.865   7.350
 8624POPC   NC354275  24.506  33.754   5.550
 8624POPC   PO454276  24.509  33.841   5.850
 8624POPC   GL154277  24.498  33.847   6.150
 8624POPC   GL254278  24.606  33.789   6.150
 8624POPC   C1A54279  24.475  33.767   6.450
 8624POPC   D2A54280  24.477  33.833   6.750
 8624POPC   C3A54281  24.529  33.840   7.050
 8624POPC   C4A54282  24.506  33.822   7.350
 8624POPC   C1B54283  24.723  33.893   6.450
 8624POPC   C2B54284  24.775  33.894   6.750
 8624POPC   C3B54285  24.742  33.865   7.050
 8624POPC   C4B54286  24.773  33.906   7.350
 8625POPC   NC354287   0.392   8.236   5.550
 8625POPC   PO454288   0.467   8.153   5.850
 8625POPC   GL154289   0.433   8.147   6.150
 8625POPC   GL254290   0.338   8.154   6.150
 8625POPC   C1A54291   0.435   8.243   6.450
 8625POPC   D2A54292   0.411   8.202   6.750
 8625POPC   C3A54293   0.396   8.229   7.050
 8625POPC   C4A54294   0.402   8.158   7.350
 8625POPC   C1B54295   0.190   8.198   6.450
 8625POPC   C2B54296   0.224   8.213   6.750
 8625POPC   C3B54297   0.140   8.193   7.050
 8625POPC   C4B54298   0.166   8.137   7.350
 8626POPC   NC354299  10.532  20.611   5.550
 8626POPC   PO454300  10.568  20.605   5.850
 8626POPC   GL154301  10.489  20.647   6.150
 8626POPC   GL254302  10.411  20.717   6.150
 8626POPC   C1A54303  10.567  20.613   6.450
 8626POPC   D2A54304  10.536  20.623   6.750
 8626POPC   C3A54305  10.552  20.596   7.050
 8626POPC   C4A54306  10.557  20.650   7.350
 8626POPC   C1B54307  10.408  20.817   6.450
 8626POPC   C2B54308  10.415  20.864   6.750
 8626POPC   C3B54309  10.348  20.787   7.050
 8626POPC   C4B54310  10.422  20.803   7.350
 8627POPC   NC354311  21.411  43.099   5.550
 8627POPC   PO454312  21.371  43.102   5.850
 8627POPC   GL154313  21.348  43.094   6.150
 8627POPC   GL254314  21.472  43.170   6.150
 8627POPC   C1A54315  21.420  43.073   6.450
 8627POPC   D2A54316  21.354  43.135   6.750
 8627POPC   C3A54317  21.356  43.064   7.050
 8627POPC   C4A54318  21.392  43.076   7.350
 8627POPC   C1B54319  21.575  43.214   6.450
 8627POPC   C2B54320  21.576  43.248   6.750
 8627POPC   C3B54321  21.581  43.228   7.050
 8627POPC   C4B54322  21.587  43.261   7.350
 8628POPC   NC354323  37.681   2.749   5.550
 8628POPC   PO454324  37.676   2.750   5.850
 8628POPC   GL154325  37.635   2.809   6.150
 8628POPC   GL254326  37.624   2.646   6.150
 8628POPC   C1A54327  37.657   2.732   6.450
 8628POPC   D2A54328  37.700   2.743   6.750
 8628POPC   C3A54329  37.661   2.805   7.050
 8628POPC   C4A54330  37.641   2.764   7.350
 8628POPC   C1B54331  37.535   2.558   6.450
 8628POPC   C2B54332  37.477   2.582   6.750
 8628POPC   C3B54333  37.498   2.606   7.050
 8628POPC   C4B54334  37.465   2.615   7.350
 8629POPC   NC354335   1.965  36.929   5.550
 8629POPC   PO454336   1.958  36.934   5.850
 8629POPC   GL154337   2.022  36.923   6.150
 8629POPC   GL254338   1.996  37.001   6.150
 8629POPC   C1A54339   2.024  36.912   6.450
 8629POPC   D2A54340   2.031  36.941   6.750
 8629POPC   C3A54341   2.032  36.872   7.050
 8629POPC   C4A54342   1.960  36.910   7.350
 8629POPC   C1B54343   1.915  37.145   6.450
 8629POPC   C2B54344   1.976  37.103   6.750
 8629POPC   C3B54345   1.995  37.191   7.050
 8629POPC   C4B54346   2.006  37.111   7.350
 8630POPC   NC354347  13.637   4.335   5.550
 8630POPC   PO454348  13.592   4.280   5.850
 8630POPC   GL154349  13.613   4.363   6.150
 8630POPC   GL254350  13.790   4.334   6.150
 8630POPC   C1A54351  13.670   4.286   6.450
 8630POPC   D2A54352  13.641   4.294   6.750
 8630POPC   C3A54353  13.641   4.328   7.050
 8630POPC   C4A54354  13.588   4.346   7.350
 8630POPC   C1B54355  13.879   4.376   6.450
 8630POPC   C2B54356  13.866   4.406   6.750
 8630POPC   C3B54357  13.875   4.430   7.050
 8630POPC   C4B54358  13.843   4.429   7.350
 8631POPC   NC354359  31.519  33.014   5.550
 8631POPC   PO454360  31.451  32.984   5.850
 8631POPC   GL154361  31.461  33.029   6.150
 8631POPC   GL254362  31.592  33.000   6.150
 8631POPC   C1A54363  31.427  33.023   6.450
 8631POPC   D2A54364  31.488  33.041   6.750
 8631POPC   C3A54365  31.440  32.977   7.050
 8631POPC   C4A54366  31.433  32.993   7.350
 8631POPC   C1B54367  31.739  33.056   6.450
 8631POPC   C2B54368  31.685  33.101   6.750
 8631POPC   C3B54369  31.751  33.102   7.050
 8631POPC   C4B54370  31.703  33.042   7.350
 8632POPC   NC354371  39.228  38.488   5.550
 8632POPC   PO454372  39.216  38.462   5.850
 8632POPC   GL154373  39.226  38.437   6.150
 8632POPC   GL254374  39.286  38.372   6.150
 8632POPC   C1A54375  39.241  38.485   6.450
 8632POPC   D2A54376  39.215  38.414   6.750
 8632POPC   C3A54377  39.240  38.427   7.050
 8632POPC   C4A54378  39.233  38.437   7.350
 8632POPC   C1B54379  39.424  38.289   6.450
 8632POPC   C2B54380  39.395  38.293   6.750
 8632POPC   C3B54381  39.359  38.285   7.050
 8632POPC   C4B54382  39.385  38.268   7.350
 8633POPC   NC354383  10.522  40.804   5.550
 8633POPC   PO454384  10.502  40.811   5.850
 8633POPC   GL154385  10.529  40.746   6.150
 8633POPC   GL254386  10.605  40.831   6.150
 8633POPC   C1A54387  10.480  40.752   6.450
 8633POPC   D2A54388  10.488  40.772   6.750
 8633POPC   C3A54389  10.492  40.800   7.050
 8633POPC   C4A54390  10.571  40.734   7.350
 8633POPC   C1B54391  10.777  40.917   6.450
 8633POPC   C2B54392  10.775  40.957   6.750
 8633POPC   C3B54393  10.694  40.950   7.050
 8633POPC   C4B54394  10.692  40.946   7.350
 8634POPC   NC354395  20.569   9.762   5.550
 8634POPC   PO454396  20.625   9.775   5.850
 8634POPC   GL154397  20.641   9.725   6.150
 8634POPC   GL254398  20.708   9.706   6.150
 8634POPC   C1A54399  20.630   9.729   6.450
 8634POPC   D2A54400  20.611   9.706   6.750
 8634POPC   C3A54401  20.606   9.781   7.050
 8634POPC   C4A54402  20.629   9.731   7.350
 8634POPC   C1B54403  20.802   9.553   6.450
 8634POPC   C2B54404  20.778   9.590   6.750
 8634POPC   C3B54405  20.846   9.550   7.050
 8634POPC   C4B54406  20.814   9.635   7.350
 8635POPC   NC354407  35.389   6.642   5.550
 8635POPC   PO454408  35.348   6.693   5.850
 8635POPC   GL154409  35.371   6.685   6.150
 8635POPC   GL254410  35.366   6.802   6.150
 8635POPC   C1A54411  35.339   6.601   6.450
 8635POPC   D2A54412  35.344   6.687   6.750
 8635POPC   C3A54413  35.318   6.603   7.050
 8635POPC   C4A54414  35.354   6.612   7.350
 8635POPC   C1B54415  35.507   6.863   6.450
 8635POPC   C2B54416  35.520   6.837   6.750
 8635POPC   C3B54417  35.523   6.886   7.050
 8635POPC   C4B54418  35.483   6.871   7.350
 8636POPC   NC354419   9.002   9.698   5.550
 8636POPC   PO454420   9.021   9.715   5.850
 8636POPC   GL154421   8.991   9.746   6.150
 8636POPC   GL254422   8.859   9.825   6.150
 8636POPC   C1A54423   8.986   9.761   6.450
 8636POPC   D2A54424   8.925   9.738   6.750
 8636POPC   C3A54425   9.009   9.797   7.050
 8636POPC   C4A54426   9.018   9.780   7.350
 8636POPC   C1B54427   8.807   9.865   6.450
 8636POPC   C2B54428   8.795   9.893   6.750
 8636POPC   C3B54429   8.785   9.894   7.050
 8636POPC   C4B54430   8.762   9.925   7.350
 8637POPC   NC354431  10.547   3.550   5.550
 8637POPC   PO454432  10.478   3.536   5.850
 8637POPC   GL154433  10.499   3.580   6.150
 8637POPC   GL254434  10.528   3.683   6.150
 8637POPC   C1A54435  10.539   3.573   6.450
 8637POPC   D2A54436  10.512   3.566   6.750
 8637POPC   C3A54437  10.511   3.559   7.050
 8637POPC   C4A54438  10.498   3.492   7.350
 8637POPC   C1B54439  10.606   3.764   6.450
 8637POPC   C2B54440  10.550   3.788   6.750
 8637POPC   C3B54441  10.583   3.796   7.050
 8637POPC   C4B54442  10.545   3.780   7.350
 8638POPC   NC354443  19.828  37.658   5.550
 8638POPC   PO454444  19.842  37.719   5.850
 8638POPC   GL154445  19.853  37.644   6.150
 8638POPC   GL254446  19.913  37.670   6.150
 8638POPC   C1A54447  19.798  37.712   6.450
 8638POPC   D2A54448  19.845  37.661   6.750
 8638POPC   C3A54449  19.878  37.653   7.050
 8638POPC   C4A54450  19.818  37.656   7.350
 8638POPC   C1B54451  20.059  37.640   6.450
 8638POPC   C2B54452  20.044  37.705   6.750
 8638POPC   C3B54453  20.044  37.674   7.050
 8638POPC   C4B54454  20.104  37.698   7.350
 8639POPC   NC354455  15.913  20.575   5.550
 8639POPC   PO454456  15.920  20.620   5.850
 8639POPC   GL154457  15.937  20.563   6.150
 8639POPC   GL254458  16.032  20.603   6.150
 8639POPC   C1A54459  15.941  20.634   6.450
 8639POPC   D2A54460  15.936  20.568   6.750
 8639POPC   C3A54461  15.953  20.634   7.050
 8639POPC   C4A54462  15.943  20.570   7.350
 8639POPC   C1B54463  16.232  20.623   6.450
 8639POPC   C2B54464  16.166  20.623   6.750
 8639POPC   C3B54465  16.164  20.569   7.050
 8639POPC   C4B54466  16.176  20.536   7.350
 8640POPC   NC354467  17.537  13.614   5.550
 8640POPC   PO454468  17.533  13.639   5.850
 8640POPC   GL154469  17.476  13.672   6.150
 8640POPC   GL254470  17.384  13.720   6.150
 8640POPC   C1A54471  17.518  13.669   6.450
 8640POPC   D2A54472  17.514  13.605   6.750
 8640POPC   C3A54473  17.466  13.578   7.050
 8640POPC   C4A54474  17.464  13.621   7.350
 8640POPC   C1B54475  17.346  13.820   6.450
 8640POPC   C2B54476  17.326  13.792   6.750
 8640POPC   C3B54477  17.335  13.818   7.050
 8640POPC   C4B54478  17.311  13.861   7.350
 8641POPC   NC354479  43.852  36.167   5.550
 8641POPC   PO454480  43.880  36.091   5.850
 8641POPC   GL154481  43.899  36.089   6.150
 8641POPC   GL254482  43.740  36.081   6.150
 8641POPC   C1A54483  43.892  36.170   6.450
 8641POPC   D2A54484  43.868  36.126   6.750
 8641POPC   C3A54485  43.864  36.089   7.050
 8641POPC   C4A54486  43.859  36.096   7.350
 8641POPC   C1B54487  43.626  36.135   6.450
 8641POPC   C2B54488  43.615  36.068   6.750
 8641POPC   C3B54489  43.682  36.149   7.050
 8641POPC   C4B54490  43.654  36.120   7.350
 8642POPC   NC354491  26.815  43.921   5.550
 8642POPC   PO454492  26.788  43.901   5.850
 8642POPC   GL154493  26.769  43.884   6.150
 8642POPC   GL254494  26.887  43.895   6.150
 8642POPC   C1A54495  26.864  43.874   6.450
 8642POPC   D2A54496  26.785  43.886   6.750
 8642POPC   C3A54497  26.851  43.926   7.050
 8642POPC   C4A54498  26.860  43.883   7.350
 8642POPC   C1B54499  27.089  43.928   6.450
 8642POPC   C2B54500  27.048  43.986   6.750
 8642POPC   C3B54501  27.048  44.007   7.050
 8642POPC   C4B54502  27.006  43.984   7.350
 8643POPC   NC354503  33.752  30.717   5.550
 8643POPC   PO454504  33.797  30.738   5.850
 8643POPC   GL154505  33.837  30.698   6.150
 8643POPC   GL254506  33.680  30.620   6.150
 8643POPC   C1A54507  33.781  30.661   6.450
 8643POPC   D2A54508  33.793  30.704   6.750
 8643POPC   C3A54509  33.849  30.694   7.050
 8643POPC   C4A54510  33.753  30.651   7.350
 8643POPC   C1B54511  33.677  30.545   6.450
 8643POPC   C2B54512  33.671  30.481   6.750
 8643POPC   C3B54513  33.647  30.493   7.050
 8643POPC   C4B54514  33.595  30.495   7.350
 8644POPC   NC354515  30.685  31.499   5.550
 8644POPC   PO454516  30.722  31.486   5.850
 8644POPC   GL154517  30.655  31.452   6.150
 8644POPC   GL254518  30.746  31.632   6.150
 8644POPC   C1A54519  30.728  31.476   6.450
 8644POPC   D2A54520  30.725  31.426   6.750
 8644POPC   C3A54521  30.708  31.504   7.050
 8644POPC   C4A54522  30.676  31.456   7.350
 8644POPC   C1B54523  30.769  31.684   6.450
 8644POPC   C2B54524  30.782  31.701   6.750
 8644POPC   C3B54525  30.827  31.684   7.050
 8644POPC   C4B54526  30.809  31.712   7.350
 8645POPC   NC354527   4.333  22.910   5.550
 8645POPC   PO454528   4.364  22.896   5.850
 8645POPC   GL154529   4.356  22.927   6.150
 8645POPC   GL254530   4.413  22.836   6.150
 8645POPC   C1A54531   4.323  22.892   6.450
 8645POPC   D2A54532   4.350  22.973   6.750
 8645POPC   C3A54533   4.293  22.962   7.050
 8645POPC   C4A54534   4.363  22.937   7.350
 8645POPC   C1B54535   4.418  22.751   6.450
 8645POPC   C2B54536   4.403  22.764   6.750
 8645POPC   C3B54537   4.409  22.720   7.050
 8645POPC   C4B54538   4.411  22.745   7.350
 8646POPC   NC354539   1.179  14.362   5.550
 8646POPC   PO454540   1.196  14.355   5.850
 8646POPC   GL154541   1.204  14.375   6.150
 8646POPC   GL254542   1.278  14.260   6.150
 8646POPC   C1A54543   1.232  14.376   6.450
 8646POPC   D2A54544   1.168  14.354   6.750
 8646POPC   C3A54545   1.195  14.449   7.050
 8646POPC   C4A54546   1.236  14.435   7.350
 8646POPC   C1B54547   1.266  14.196   6.450
 8646POPC   C2B54548   1.292  14.201   6.750
 8646POPC   C3B54549   1.321  14.144   7.050
 8646POPC   C4B54550   1.259  14.146   7.350
 8647POPC   NC354551   8.147   6.630   5.550
 8647POPC   PO454552   8.161   6.604   5.850
 8647POPC   GL154553   8.164   6.632   6.150
 8647POPC   GL254554   8.329   6.708   6.150
 8647POPC   C1A54555   8.241   6.683   6.450
 8647POPC   D2A54556   8.239   6.614   6.750
 8647POPC   C3A54557   8.155   6.672   7.050
 8647POPC   C4A54558   8.162   6.666   7.350
 8647POPC   C1B54559   8.423   6.694   6.450
 8647POPC   C2B54560   8.484   6.765   6.750
 8647POPC   C3B54561   8.434   6.732   7.050
 8647POPC   C4B54562   8.429   6.724   7.350
 8648POPC   NC354563  28.363  12.901   5.550
 8648POPC   PO454564  28.383  12.888   5.850
 8648POPC   GL154565  28.355  12.835   6.150
 8648POPC   GL254566  28.375  12.728   6.150
 8648POPC   C1A54567  28.365  12.820   6.450
 8648POPC   D2A54568  28.373  12.820   6.750
 8648POPC   C3A54569  28.343  12.816   7.050
 8648POPC   C4A54570  28.395  12.844   7.350
 8648POPC   C1B54571  28.355  12.652   6.450
 8648POPC   C2B54572  28.375  12.607   6.750
 8648POPC   C3B54573  28.446  12.569   7.050
 8648POPC   C4B54574  28.400  12.615   7.350
 8649POPC   NC354575  23.712  19.071   5.550
 8649POPC   PO454576  23.736  19.032   5.850
 8649POPC   GL154577  23.747  19.087   6.150
 8649POPC   GL254578  23.802  18.970   6.150
 8649POPC   C1A54579  23.719  19.060   6.450
 8649POPC   D2A54580  23.701  19.049   6.750
 8649POPC   C3A54581  23.693  19.035   7.050
 8649POPC   C4A54582  23.699  19.102   7.350
 8649POPC   C1B54583  23.773  18.780   6.450
 8649POPC   C2B54584  23.756  18.823   6.750
 8649POPC   C3B54585  23.834  18.846   7.050
 8649POPC   C4B54586  23.794  18.798   7.350
 8650POPC   NC354587  43.113  44.710   5.550
 8650POPC   PO454588  43.090  44.628   5.850
 8650POPC   GL154589  43.061  44.710   6.150
 8650POPC   GL254590  42.949  44.661   6.150
 8650POPC   C1A54591  43.144  44.679   6.450
 8650POPC   D2A54592  43.073  44.636   6.750
 8650POPC   C3A54593  43.156  44.698   7.050
 8650POPC   C4A54594  43.088  44.637   7.350
 8650POPC   C1B54595  42.895  44.616   6.450
 8650POPC   C2B54596  42.822  44.599   6.750
 8650POPC   C3B54597  42.858  44.612   7.050
 8650POPC   C4B54598  42.820  44.573   7.350
 8651POPC   NC354599   5.871  29.097   5.550
 8651POPC   PO454600   5.863  29.149   5.850
 8651POPC   GL154601   5.863  29.174   6.150
 8651POPC   GL254602   5.869  29.263   6.150
 8651POPC   C1A54603   5.858  29.164   6.450
 8651POPC   D2A54604   5.837  29.138   6.750
 8651POPC   C3A54605   5.895  29.140   7.050
 8651POPC   C4A54606   5.892  29.165   7.350
 8651POPC   C1B54607   5.758  29.386   6.450
 8651POPC   C2B54608   5.790  29.377   6.750
 8651POPC   C3B54609   5.834  29.385   7.050
 8651POPC   C4B54610   5.802  29.381   7.350
 8652POPC   NC354611  25.220  30.735   5.550
 8652POPC   PO454612  25.270  30.744   5.850
 8652POPC   GL154613  25.272  30.693   6.150
 8652POPC   GL254614  25.166  30.643   6.150
 8652POPC   C1A54615  25.296  30.717   6.450
 8652POPC   D2A54616  25.296  30.671   6.750
 8652POPC   C3A54617  25.304  30.732   7.050
 8652POPC   C4A54618  25.248  30.692   7.350
 8652POPC   C1B54619  25.091  30.582   6.450
 8652POPC   C2B54620  25.078  30.573   6.750
 8652POPC   C3B54621  25.015  30.516   7.050
 8652POPC   C4B54622  25.064  30.580   7.350
 8653POPC   NC354623  39.986  16.695   5.550
 8653POPC   PO454624  39.971  16.729   5.850
 8653POPC   GL154625  40.048  16.779   6.150
 8653POPC   GL254626  39.951  16.580   6.150
 8653POPC   C1A54627  40.029  16.779   6.450
 8653POPC   D2A54628  40.017  16.743   6.750
 8653POPC   C3A54629  40.046  16.696   7.050
 8653POPC   C4A54630  39.987  16.734   7.350
 8653POPC   C1B54631  39.910  16.537   6.450
 8653POPC   C2B54632  39.882  16.504   6.750
 8653POPC   C3B54633  39.907  16.534   7.050
 8653POPC   C4B54634  39.873  16.553   7.350
 8654POPC   NC354635   5.898  43.096   5.550
 8654POPC   PO454636   5.840  43.156   5.850
 8654POPC   GL154637   5.857  43.126   6.150
 8654POPC   GL254638   5.991  43.139   6.150
 8654POPC   C1A54639   5.834  43.143   6.450
 8654POPC   D2A54640   5.854  43.113   6.750
 8654POPC   C3A54641   5.832  43.103   7.050
 8654POPC   C4A54642   5.849  43.128   7.350
 8654POPC   C1B54643   6.164  43.118   6.450
 8654POPC   C2B54644   6.105  43.076   6.750
 8654POPC   C3B54645   6.145  43.122   7.050
 8654POPC   C4B54646   6.088  43.083   7.350
 8655POPC   NC354647  30.709  33.764   5.550
 8655POPC   PO454648  30.688  33.778   5.850
 8655POPC   GL154649  30.691  33.808   6.150
 8655POPC   GL254650  30.682  33.937   6.150
 8655POPC   C1A54651  30.693  33.771   6.450
 8655POPC   D2A54652  30.652  33.756   6.750
 8655POPC   C3A54653  30.707  33.787   7.050
 8655POPC   C4A54654  30.672  33.787   7.350
 8655POPC   C1B54655  30.585  34.049   6.450
 8655POPC   C2B54656  30.635  34.085   6.750
 8655POPC   C3B54657  30.624  34.084   7.050
 8655POPC   C4B54658  30.574  34.059   7.350
 8656POPC   NC354659  28.384  12.094   5.550
 8656POPC   PO454660  28.339  12.073   5.850
 8656POPC   GL154661  28.381  12.109   6.150
 8656POPC   GL254662  28.447  12.105   6.150
 8656POPC   C1A54663  28.348  12.118   6.450
 8656POPC   D2A54664  28.388  12.038   6.750
 8656POPC   C3A54665  28.401  12.060   7.050
 8656POPC   C4A54666  28.403  12.054   7.350
 8656POPC   C1B54667  28.570  12.206   6.450
 8656POPC   C2B54668  28.524  12.216   6.750
 8656POPC   C3B54669  28.549  12.208   7.050
 8656POPC   C4B54670  28.549  12.244   7.350
 8657POPC   NC354671  38.415  12.084   5.550
 8657POPC   PO454672  38.486  12.124   5.850
 8657POPC   GL154673  38.500  12.066   6.150
 8657POPC   GL254674  38.415  12.231   6.150
 8657POPC   C1A54675  38.441  12.095   6.450
 8657POPC   D2A54676  38.421  12.118   6.750
 8657POPC   C3A54677  38.475  12.035   7.050
 8657POPC   C4A54678  38.431  12.071   7.350
 8657POPC   C1B54679  38.466  12.337   6.450
 8657POPC   C2B54680  38.423  12.275   6.750
 8657POPC   C3B54681  38.399  12.325   7.050
 8657POPC   C4B54682  38.427  12.319   7.350
 8658POPC   NC354683   1.229  43.854   5.550
 8658POPC   PO454684   1.223  43.867   5.850
 8658POPC   GL154685   1.213  43.920   6.150
 8658POPC   GL254686   1.228  43.982   6.150
 8658POPC   C1A54687   1.189  43.914   6.450
 8658POPC   D2A54688   1.258  43.846   6.750
 8658POPC   C3A54689   1.195  43.890   7.050
 8658POPC   C4A54690   1.183  43.907   7.350
 8658POPC   C1B54691   1.250  44.159   6.450
 8658POPC   C2B54692   1.320  44.158   6.750
 8658POPC   C3B54693   1.255  44.160   7.050
 8658POPC   C4B54694   1.283  44.140   7.350
 8659POPC   NC354695  29.954  17.522   5.550
 8659POPC   PO454696  29.965  17.533   5.850
 8659POPC   GL154697  29.950  17.501   6.150
 8659POPC   GL254698  29.905  17.587   6.150
 8659POPC   C1A54699  29.961  17.486   6.450
 8659POPC   D2A54700  29.922  17.503   6.750
 8659POPC   C3A54701  29.885  17.493   7.050
 8659POPC   C4A54702  29.873  17.518   7.350
 8659POPC   C1B54703  29.842  17.688   6.450
 8659POPC   C2B54704  29.780  17.708   6.750
 8659POPC   C3B54705  29.766  17.714   7.050
 8659POPC   C4B54706  29.788  17.695   7.350
 8660POPC   NC354707  21.435  19.878   5.550
 8660POPC   PO454708  21.354  19.854   5.850
 8660POPC   GL154709  21.399  19.866   6.150
 8660POPC   GL254710  21.397  19.763   6.150
 8660POPC   C1A54711  21.430  19.870   6.450
 8660POPC   D2A54712  21.390  19.799   6.750
 8660POPC   C3A54713  21.432  19.826   7.050
 8660POPC   C4A54714  21.392  19.805   7.350
 8660POPC   C1B54715  21.515  19.643   6.450
 8660POPC   C2B54716  21.512  19.661   6.750
 8660POPC   C3B54717  21.536  19.587   7.050
 8660POPC   C4B54718  21.466  19.611   7.350
 8661POPC   NC354719  35.314  26.844   5.550
 8661POPC   PO454720  35.324  26.773   5.850
 8661POPC   GL154721  35.320  26.837   6.150
 8661POPC   GL254722  35.323  26.927   6.150
 8661POPC   C1A54723  35.308  26.800   6.450
 8661POPC   D2A54724  35.346  26.796   6.750
 8661POPC   C3A54725  35.384  26.863   7.050
 8661POPC   C4A54726  35.305  26.788   7.350
 8661POPC   C1B54727  35.411  27.026   6.450
 8661POPC   C2B54728  35.399  27.100   6.750
 8661POPC   C3B54729  35.329  27.114   7.050
 8661POPC   C4B54730  35.408  27.061   7.350
 8662POPC   NC354731  12.093  31.476   5.550
 8662POPC   PO454732  12.090  31.458   5.850
 8662POPC   GL154733  12.050  31.454   6.150
 8662POPC   GL254734  12.002  31.583   6.150
 8662POPC   C1A54735  12.125  31.491   6.450
 8662POPC   D2A54736  12.089  31.435   6.750
 8662POPC   C3A54737  12.029  31.473   7.050
 8662POPC   C4A54738  12.027  31.499   7.350
 8662POPC   C1B54739  11.971  31.693   6.450
 8662POPC   C2B54740  11.983  31.677   6.750
 8662POPC   C3B54741  11.993  31.697   7.050
 8662POPC   C4B54742  11.937  31.658   7.350
 8663POPC   NC354743  32.234  24.453   5.550
 8663POPC   PO454744  32.292  24.479   5.850
 8663POPC   GL154745  32.286  24.452   6.150
 8663POPC   GL254746  32.138  24.462   6.150
 8663POPC   C1A54747  32.286  24.515   6.450
 8663POPC   D2A54748  32.297  24.489   6.750
 8663POPC   C3A54749  32.215  24.508   7.050
 8663POPC   C4A54750  32.245  24.490   7.350
 8663POPC   C1B54751  31.982  24.421   6.450
 8663POPC   C2B54752  32.016  24.414   6.750
 8663POPC   C3B54753  32.007  24.391   7.050
 8663POPC   C4B54754  31.956  24.439   7.350
 8664POPC   NC354755   4.338  10.567   5.550
 8664POPC   PO454756   4.308  10.508   5.850
 8664POPC   GL154757   4.335  10.516   6.150
 8664POPC   GL254758   4.365  10.360   6.150
 8664POPC   C1A54759   4.315  10.564   6.450
 8664POPC   D2A54760   4.282  10.560   6.750
 8664POPC   C3A54761   4.275  10.530   7.050
 8664POPC   C4A54762   4.335  10.480   7.350
 8664POPC   C1B54763   4.352  10.264   6.450
 8664POPC   C2B54764   4.380  10.296   6.750
 8664POPC   C3B54765   4.346  10.324   7.050
 8664POPC   C4B54766   4.382  10.250   7.350
 8665POPC   NC354767  22.895  43.093   5.550
 8665POPC   PO454768  22.984  43.158   5.850
 8665POPC   GL154769  22.960  43.136   6.150
 8665POPC   GL254770  22.967  43.025   6.150
 8665POPC   C1A54771  22.924  43.078   6.450
 8665POPC   D2A54772  22.927  43.148   6.750
 8665POPC   C3A54773  22.927  43.140   7.050
 8665POPC   C4A54774  22.957  43.096   7.350
 8665POPC   C1B54775  22.981  42.859   6.450
 8665POPC   C2B54776  23.002  42.822   6.750
 8665POPC   C3B54777  23.034  42.852   7.050
 8665POPC   C4B54778  23.052  42.850   7.350
 8666POPC   NC354779   8.233   5.889   5.550
 8666POPC   PO454780   8.171   5.895   5.850
 8666POPC   GL154781   8.235   5.826   6.150
 8666POPC   GL254782   8.276   5.837   6.150
 8666POPC   C1A54783   8.179   5.855   6.450
 8666POPC   D2A54784   8.210   5.856   6.750
 8666POPC   C3A54785   8.236   5.824   7.050
 8666POPC   C4A54786   8.180   5.843   7.350
 8666POPC   C1B54787   8.459   5.862   6.450
 8666POPC   C2B54788   8.468   5.842   6.750
 8666POPC   C3B54789   8.415   5.824   7.050
 8666POPC   C4B54790   8.471   5.872   7.350
 8667POPC   NC354791   0.416  12.062   5.550
 8667POPC   PO454792   0.439  12.056   5.850
 8667POPC   GL154793   0.428  12.092   6.150
 8667POPC   GL254794   0.402  11.935   6.150
 8667POPC   C1A54795   0.444  12.027   6.450
 8667POPC   D2A54796   0.455  12.048   6.750
 8667POPC   C3A54797   0.436  12.091   7.050
 8667POPC   C4A54798   0.479  12.043   7.350
 8667POPC   C1B54799   0.403  11.823   6.450
 8667POPC   C2B54800   0.427  11.790   6.750
 8667POPC   C3B54801   0.471  11.856   7.050
 8667POPC   C4B54802   0.450  11.872   7.350
 8668POPC   NC354803  44.657  15.229   5.550
 8668POPC   PO454804  44.635  15.161   5.850
 8668POPC   GL154805  44.646  15.184   6.150
 8668POPC   GL254806  44.507  15.156   6.150
 8668POPC   C1A54807  44.652  15.229   6.450
 8668POPC   D2A54808  44.667  15.213   6.750
 8668POPC   C3A54809  44.687  15.168   7.050
 8668POPC   C4A54810  44.662  15.135   7.350
 8668POPC   C1B54811  44.465  15.074   6.450
 8668POPC   C2B54812  44.427  15.082   6.750
 8668POPC   C3B54813  44.426  15.045   7.050
 8668POPC   C4B54814  44.388  15.066   7.350
 8669POPC   NC354815  19.014  25.311   5.550
 8669POPC   PO454816  19.081  25.269   5.850
 8669POPC   GL154817  19.046  25.242   6.150
 8669POPC   GL254818  18.988  25.180   6.150
 8669POPC   C1A54819  19.037  25.269   6.450
 8669POPC   D2A54820  19.085  25.315   6.750
 8669POPC   C3A54821  19.011  25.307   7.050
 8669POPC   C4A54822  19.054  25.270   7.350
 8669POPC   C1B54823  19.013  25.069   6.450
 8669POPC   C2B54824  18.965  25.037   6.750
 8669POPC   C3B54825  18.956  25.073   7.050
 8669POPC   C4B54826  18.998  25.079   7.350
 8670POPC   NC354827   2.782  30.718   5.550
 8670POPC   PO454828   2.799  30.706   5.850
 8670POPC   GL154829   2.808  30.650   6.150
 8670POPC   GL254830   2.895  30.555   6.150
 8670POPC   C1A54831   2.746  30.710   6.450
 8670POPC   D2A54832   2.775  30.684   6.750
 8670POPC   C3A54833   2.760  30.710   7.050
 8670POPC   C4A54834   2.716  30.731   7.350
 8670POPC   C1B54835   2.936  30.533   6.450
 8670POPC   C2B54836   2.918  30.557   6.750
 8670POPC   C3B54837   2.966  30.540   7.050
 8670POPC   C4B54838   2.945  30.497   7.350
 8671POPC   NC354839   6.685  32.275   5.550
 8671POPC   PO454840   6.609  32.272   5.850
 8671POPC   GL154841   6.693  32.233   6.150
 8671POPC   GL254842   6.651  32.128   6.150
 8671POPC   C1A54843   6.675  32.265   6.450
 8671POPC   D2A54844   6.612  32.262   6.750
 8671POPC   C3A54845   6.606  32.297   7.050
 8671POPC   C4A54846   6.645  32.207   7.350
 8671POPC   C1B54847   6.672  31.974   6.450
 8671POPC   C2B54848   6.608  32.008   6.750
 8671POPC   C3B54849   6.606  32.020   7.050
 8671POPC   C4B54850   6.630  31.966   7.350
 8672POPC   NC354851  21.357  44.654   5.550
 8672POPC   PO454852  21.409  44.636   5.850
 8672POPC   GL154853  21.384  44.625   6.150
 8672POPC   GL254854  21.231  44.735   6.150
 8672POPC   C1A54855  21.429  44.615   6.450
 8672POPC   D2A54856  21.428  44.689   6.750
 8672POPC   C3A54857  21.406  44.632   7.050
 8672POPC   C4A54858  21.386  44.692   7.350
 8672POPC   C1B54859  21.115  44.731   6.450
 8672POPC   C2B54860  21.192  44.742   6.750
 8672POPC   C3B54861  21.159  44.732   7.050
 8672POPC   C4B54862  21.128  44.763   7.350
 8673POPC   NC354863  31.451   4.343   5.550
 8673POPC   PO454864  31.475   4.322   5.850
 8673POPC   GL154865  31.512   4.338   6.150
 8673POPC   GL254866  31.347   4.287   6.150
 8673POPC   C1A54867  31.479   4.358   6.450
 8673POPC   D2A54868  31.424   4.343   6.750
 8673POPC   C3A54869  31.489   4.327   7.050
 8673POPC   C4A54870  31.433   4.344   7.350
 8673POPC   C1B54871  31.242   4.306   6.450
 8673POPC   C2B54872  31.185   4.271   6.750
 8673POPC   C3B54873  31.184   4.244   7.050
 8673POPC   C4B54874  31.210   4.289   7.350
 8674POPC   NC354875  39.237  40.037   5.550
 8674POPC   PO454876  39.271  39.966   5.850
 8674POPC   GL154877  39.271  39.966   6.150
 8674POPC   GL254878  39.332  39.966   6.150
 8674POPC   C1A54879  39.210  40.012   6.450
 8674POPC   D2A54880  39.237  39.981   6.750
 8674POPC   C3A54881  39.228  40.042   7.050
 8674POPC   C4A54882  39.203  39.959   7.350
 8674POPC   C1B54883  39.447  39.952   6.450
 8674POPC   C2B54884  39.492  39.917   6.750
 8674POPC   C3B54885  39.478  39.901   7.050
 8674POPC   C4B54886  39.471  39.924   7.350
 8675POPC   NC354887   5.825   2.005   5.550
 8675POPC   PO454888   5.915   1.945   5.850
 8675POPC   GL154889   5.852   2.012   6.150
 8675POPC   GL254890   5.726   1.950   6.150
 8675POPC   C1A54891   5.850   1.973   6.450
 8675POPC   D2A54892   5.826   2.007   6.750
 8675POPC   C3A54893   5.830   1.998   7.050
 8675POPC   C4A54894   5.840   2.040   7.350
 8675POPC   C1B54895   5.692   1.899   6.450
 8675POPC   C2B54896   5.651   1.896   6.750
 8675POPC   C3B54897   5.677   1.834   7.050
 8675POPC   C4B54898   5.664   1.881   7.350
 8676POPC   NC354899  22.924  33.833   5.550
 8676POPC   PO454900  22.950  33.765   5.850
 8676POPC   GL154901  22.933  33.827   6.150
 8676POPC   GL254902  22.818  33.873   6.150
 8676POPC   C1A54903  22.958  33.751   6.450
 8676POPC   D2A54904  22.968  33.775   6.750
 8676POPC   C3A54905  22.944  33.800   7.050
 8676POPC   C4A54906  22.970  33.841   7.350
 8676POPC   C1B54907  22.675  33.894   6.450
 8676POPC   C2B54908  22.704  33.848   6.750
 8676POPC   C3B54909  22.672  33.928   7.050
 8676POPC   C4B54910  22.698  33.864   7.350
 8677POPC   NC354911  22.123   5.142   5.550
 8677POPC   PO454912  22.187   5.053   5.850
 8677POPC   GL154913  22.126   5.138   6.150
 8677POPC   GL254914  22.282   5.208   6.150
 8677POPC   C1A54915  22.193   5.098   6.450
 8677POPC   D2A54916  22.170   5.074   6.750
 8677POPC   C3A54917  22.119   5.118   7.050
 8677POPC   C4A54918  22.181   5.046   7.350
 8677POPC   C1B54919  22.357   5.211   6.450
 8677POPC   C2B54920  22.343   5.282   6.750
 8677POPC   C3B54921  22.345   5.265   7.050
 8677POPC   C4B54922  22.370   5.279   7.350
 8678POPC   NC354923  17.470  33.769   5.550
 8678POPC   PO454924  17.508  33.804   5.850
 8678POPC   GL154925  17.475  33.763   6.150
 8678POPC   GL254926  17.526  33.961   6.150
 8678POPC   C1A54927  17.534  33.808   6.450
 8678POPC   D2A54928  17.544  33.785   6.750
 8678POPC   C3A54929  17.471  33.760   7.050
 8678POPC   C4A54930  17.511  33.799   7.350
 8678POPC   C1B54931  17.501  34.085   6.450
 8678POPC   C2B54932  17.484  34.097   6.750
 8678POPC   C3B54933  17.552  34.014   7.050
 8678POPC   C4B54934  17.514  34.052   7.350
 8679POPC   NC354935  40.780  17.526   5.550
 8679POPC   PO454936  40.788  17.535   5.850
 8679POPC   GL154937  40.763  17.497   6.150
 8679POPC   GL254938  40.794  17.395   6.150
 8679POPC   C1A54939  40.796  17.478   6.450
 8679POPC   D2A54940  40.736  17.463   6.750
 8679POPC   C3A54941  40.757  17.497   7.050
 8679POPC   C4A54942  40.741  17.513   7.350
 8679POPC   C1B54943  40.848  17.238   6.450
 8679POPC   C2B54944  40.768  17.305   6.750
 8679POPC   C3B54945  40.803  17.274   7.050
 8679POPC   C4B54946  40.803  17.298   7.350
 8680POPC   NC354947  34.572  16.776   5.550
 8680POPC   PO454948  34.542  16.740   5.850
 8680POPC   GL154949  34.526  16.717   6.150
 8680POPC   GL254950  34.531  16.631   6.150
 8680POPC   C1A54951  34.575  16.757   6.450
 8680POPC   D2A54952  34.586  16.714   6.750
 8680POPC   C3A54953  34.570  16.758   7.050
 8680POPC   C4A54954  34.540  16.696   7.350
 8680POPC   C1B54955  34.361  16.563   6.450
 8680POPC   C2B54956  34.366  16.591   6.750
 8680POPC   C3B54957  34.402  16.603   7.050
 8680POPC   C4B54958  34.416  16.530   7.350
 8681POPC   NC354959  20.622  18.318   5.550
 8681POPC   PO454960  20.606  18.284   5.850
 8681POPC   GL154961  20.643  18.315   6.150
 8681POPC   GL254962  20.498  18.317   6.150
 8681POPC   C1A54963  20.570  18.248   6.450
 8681POPC   D2A54964  20.637  18.303   6.750
 8681POPC   C3A54965  20.614  18.318   7.050
 8681POPC   C4A54966  20.606  18.287   7.350
 8681POPC   C1B54967  20.402  18.412   6.450
 8681POPC   C2B54968  20.377  18.391   6.750
 8681POPC   C3B54969  20.437  18.433   7.050
 8681POPC   C4B54970  20.358  18.373   7.350
 8682POPC   NC354971  29.942   9.760   5.550
 8682POPC   PO454972  29.918   9.791   5.850
 8682POPC   GL154973  29.896   9.752   6.150
 8682POPC   GL254974  30.074   9.684   6.150
 8682POPC   C1A54975  29.891   9.790   6.450
 8682POPC   D2A54976  29.880   9.795   6.750
 8682POPC   C3A54977  29.889   9.788   7.050
 8682POPC   C4A54978  29.877   9.699   7.350
 8682POPC   C1B54979  30.143   9.632   6.450
 8682POPC   C2B54980  30.155   9.687   6.750
 8682POPC   C3B54981  30.113   9.683   7.050
 8682POPC   C4B54982  30.174   9.693   7.350
 8683POPC   NC354983  27.593  18.271   5.550
 8683POPC   PO454984  27.567  18.259   5.850
 8683POPC   GL154985  27.637  18.234   6.150
 8683POPC   GL254986  27.535  18.359   6.150
 8683POPC   C1A54987  27.546  18.319   6.450
 8683POPC   D2A54988  27.583  18.264   6.750
 8683POPC   C3A54989  27.628  18.314   7.050
 8683POPC   C4A54990  27.548  18.314   7.350
 8683POPC   C1B54991  27.372  18.419   6.450
 8683POPC   C2B54992  27.380  18.405   6.750
 8683POPC   C3B54993  27.450  18.463   7.050
 8683POPC   C4B54994  27.428  18.433   7.350
 8684POPC   NC354995   1.973  19.052   5.550
 8684POPC   PO454996   1.962  19.031   5.850
 8684POPC   GL154997   1.965  19.042   6.150
 8684POPC   GL254998   1.960  19.178   6.150
 8684POPC   C1A54999   2.037  19.079   6.450
 8684POPC   D2A55000   2.029  19.068   6.750
 8684POPC   C3A55001   1.952  19.023   7.050
 8684POPC   C4A55002   1.962  19.103   7.350
 8684POPC   C1B55003   1.871  19.253   6.450
 8684POPC   C2B55004   1.853  19.306   6.750
 8684POPC   C3B55005   1.936  19.321   7.050
 8684POPC   C4B55006   1.900  19.333   7.350
 8685POPC   NC355007  19.846   7.371   5.550
 8685POPC   PO455008  19.882   7.399   5.850
 8685POPC   GL155009  19.802   7.451   6.150
 8685POPC   GL255010  19.745   7.359   6.150
 8685POPC   C1A55011  19.810   7.465   6.450
 8685POPC   D2A55012  19.798   7.417   6.750
 8685POPC   C3A55013  19.873   7.417   7.050
 8685POPC   C4A55014  19.853   7.454   7.350
 8685POPC   C1B55015  19.609   7.227   6.450
 8685POPC   C2B55016  19.613   7.289   6.750
 8685POPC   C3B55017  19.674   7.280   7.050
 8685POPC   C4B55018  19.651   7.272   7.350
 8686POPC   NC355019  32.208  29.110   5.550
 8686POPC   PO455020  32.266  29.106   5.850
 8686POPC   GL155021  32.283  29.182   6.150
 8686POPC   GL255022  32.254  29.249   6.150
 8686POPC   C1A55023  32.207  29.137   6.450
 8686POPC   D2A55024  32.261  29.132   6.750
 8686POPC   C3A55025  32.206  29.108   7.050
 8686POPC   C4A55026  32.253  29.146   7.350
 8686POPC   C1B55027  32.260  29.413   6.450
 8686POPC   C2B55028  32.184  29.394   6.750
 8686POPC   C3B55029  32.244  29.357   7.050
 8686POPC   C4B55030  32.228  29.365   7.350
 8687POPC   NC355031  11.325  30.745   5.550
 8687POPC   PO455032  11.301  30.681   5.850
 8687POPC   GL155033  11.307  30.688   6.150
 8687POPC   GL255034  11.207  30.802   6.150
 8687POPC   C1A55035  11.332  30.746   6.450
 8687POPC   D2A55036  11.293  30.735   6.750
 8687POPC   C3A55037  11.308  30.738   7.050
 8687POPC   C4A55038  11.339  30.737   7.350
 8687POPC   C1B55039  11.085  30.827   6.450
 8687POPC   C2B55040  11.125  30.858   6.750
 8687POPC   C3B55041  11.105  30.842   7.050
 8687POPC   C4B55042  11.089  30.884   7.350
 8688POPC   NC355043   5.068   1.997   5.550
 8688POPC   PO455044   5.056   2.011   5.850
 8688POPC   GL155045   5.105   1.986   6.150
 8688POPC   GL255046   5.171   1.981   6.150
 8688POPC   C1A55047   5.066   1.974   6.450
 8688POPC   D2A55048   5.131   1.951   6.750
 8688POPC   C3A55049   5.086   1.950   7.050
 8688POPC   C4A55050   5.079   1.977   7.350
 8688POPC   C1B55051   5.315   2.004   6.450
 8688POPC   C2B55052   5.357   1.971   6.750
 8688POPC   C3B55053   5.380   1.965   7.050
 8688POPC   C4B55054   5.381   1.945   7.350
 8689POPC   NC355055   8.161  22.149   5.550
 8689POPC   PO455056   8.230  22.146   5.850
 8689POPC   GL155057   8.245  22.168   6.150
 8689POPC   GL255058   8.225  22.293   6.150
 8689POPC   C1A55059   8.200  22.179   6.450
 8689POPC   D2A55060   8.156  22.162   6.750
 8689POPC   C3A55061   8.196  22.158   7.050
 8689POPC   C4A55062   8.155  22.169   7.350
 8689POPC   C1B55063   8.253  22.409   6.450
 8689POPC   C2B55064   8.224  22.380   6.750
 8689POPC   C3B55065   8.177  22.412   7.050
 8689POPC   C4B55066   8.224  22.429   7.350
 8690POPC   NC355067  41.554  39.981   5.550
 8690POPC   PO455068  41.536  40.056   5.850
 8690POPC   GL155069  41.579  39.991   6.150
 8690POPC   GL255070  41.504  40.118   6.150
 8690POPC   C1A55071  41.543  39.988   6.450
 8690POPC   D2A55072  41.535  39.978   6.750
 8690POPC   C3A55073  41.561  39.976   7.050
 8690POPC   C4A55074  41.595  40.003   7.350
 8690POPC   C1B55075  41.338  40.155   6.450
 8690POPC   C2B55076  41.360  40.175   6.750
 8690POPC   C3B55077  41.389  40.119   7.050
 8690POPC   C4B55078  41.331  40.147   7.350
 8691POPC   NC355079  26.777  40.004   5.550
 8691POPC   PO455080  26.845  39.984   5.850
 8691POPC   GL155081  26.825  40.047   6.150
 8691POPC   GL255082  26.898  40.052   6.150
 8691POPC   C1A55083  26.768  39.984   6.450
 8691POPC   D2A55084  26.784  39.984   6.750
 8691POPC   C3A55085  26.825  39.986   7.050
 8691POPC   C4A55086  26.819  40.018   7.350
 8691POPC   C1B55087  26.981  40.172   6.450
 8691POPC   C2B55088  27.052  40.182   6.750
 8691POPC   C3B55089  27.014  40.132   7.050
 8691POPC   C4B55090  27.003  40.177   7.350
 8692POPC   NC355091  16.737  26.009   5.550
 8692POPC   PO455092  16.700  26.041   5.850
 8692POPC   GL155093  16.694  25.999   6.150
 8692POPC   GL255094  16.691  25.982   6.150
 8692POPC   C1A55095  16.759  26.014   6.450
 8692POPC   D2A55096  16.776  26.076   6.750
 8692POPC   C3A55097  16.702  26.013   7.050
 8692POPC   C4A55098  16.684  26.016   7.350
 8692POPC   C1B55099  16.580  25.862   6.450
 8692POPC   C2B55100  16.555  25.833   6.750
 8692POPC   C3B55101  16.510  25.843   7.050
 8692POPC   C4B55102  16.516  25.833   7.350
 8693POPC   NC355103  37.718  14.422   5.550
 8693POPC   PO455104  37.653  14.365   5.850
 8693POPC   GL155105  37.695  14.413   6.150
 8693POPC   GL255106  37.534  14.477   6.150
 8693POPC   C1A55107  37.669  14.395   6.450
 8693POPC   D2A55108  37.673  14.387   6.750
 8693POPC   C3A55109  37.644  14.407   7.050
 8693POPC   C4A55110  37.657  14.380   7.350
 8693POPC   C1B55111  37.452  14.505   6.450
 8693POPC   C2B55112  37.414  14.433   6.750
 8693POPC   C3B55113  37.464  14.477   7.050
 8693POPC   C4B55114  37.416  14.524   7.350
 8694POPC   NC355115  13.658   1.240   5.550
 8694POPC   PO455116  13.652   1.183   5.850
 8694POPC   GL155117  13.673   1.253   6.150
 8694POPC   GL255118  13.506   1.253   6.150
 8694POPC   C1A55119  13.605   1.248   6.450
 8694POPC   D2A55120  13.661   1.177   6.750
 8694POPC   C3A55121  13.585   1.239   7.050
 8694POPC   C4A55122  13.638   1.258   7.350
 8694POPC   C1B55123  13.395   1.415   6.450
 8694POPC   C2B55124  13.422   1.404   6.750
 8694POPC   C3B55125  13.449   1.346   7.050
 8694POPC   C4B55126  13.405   1.414   7.350
 8695POPC   NC355127  23.674  25.218   5.550
 8695POPC   PO455128  23.738  25.227   5.850
 8695POPC   GL155129  23.708  25.222   6.150
 8695POPC   GL255130  23.804  25.334   6.150
 8695POPC   C1A55131  23.752  25.280   6.450
 8695POPC   D2A55132  23.702  25.283   6.750
 8695POPC   C3A55133  23.743  25.223   7.050
 8695POPC   C4A55134  23.699  25.264   7.350
 8695POPC   C1B55135  23.822  25.482   6.450
 8695POPC   C2B55136  23.801  25.521   6.750
 8695POPC   C3B55137  23.781  25.514   7.050
 8695POPC   C4B55138  23.790  25.532   7.350
 8696POPC   NC355139  39.276   9.738   5.550
 8696POPC   PO455140  39.233   9.703   5.850
 8696POPC   GL155141  39.206   9.705   6.150
 8696POPC   GL255142  39.357   9.784   6.150
 8696POPC   C1A55143  39.281   9.762   6.450
 8696POPC   D2A55144  39.216   9.784   6.750
 8696POPC   C3A55145  39.194   9.744   7.050
 8696POPC   C4A55146  39.272   9.777   7.350
 8696POPC   C1B55147  39.430   9.862   6.450
 8696POPC   C2B55148  39.412   9.843   6.750
 8696POPC   C3B55149  39.478   9.843   7.050
 8696POPC   C4B55150  39.486   9.825   7.350
 8697POPC   NC355151  43.122  24.452   5.550
 8697POPC   PO455152  43.075  24.493   5.850
 8697POPC   GL155153  43.070  24.497   6.150
 8697POPC   GL255154  43.083  24.371   6.150
 8697POPC   C1A55155  43.116  24.468   6.450
 8697POPC   D2A55156  43.100  24.516   6.750
 8697POPC   C3A55157  43.152  24.465   7.050
 8697POPC   C4A55158  43.074  24.477   7.350
 8697POPC   C1B55159  43.023  24.305   6.450
 8697POPC   C2B55160  43.018  24.219   6.750
 8697POPC   C3B55161  43.011  24.231   7.050
 8697POPC   C4B55162  42.993  24.289   7.350
 8698POPC   NC355163  20.659  36.168   5.550
 8698POPC   PO455164  20.651  36.151   5.850
 8698POPC   GL155165  20.618  36.136   6.150
 8698POPC   GL255166  20.766  36.143   6.150
 8698POPC   C1A55167  20.584  36.091   6.450
 8698POPC   D2A55168  20.655  36.119   6.750
 8698POPC   C3A55169  20.629  36.110   7.050
 8698POPC   C4A55170  20.576  36.104   7.350
 8698POPC   C1B55171  20.857  36.213   6.450
 8698POPC   C2B55172  20.888  36.137   6.750
 8698POPC   C3B55173  20.844  36.137   7.050
 8698POPC   C4B55174  20.880  36.200   7.350
 8699POPC   NC355175  36.084  23.752   5.550
 8699POPC   PO455176  36.138  23.698   5.850
 8699POPC   GL155177  36.156  23.715   6.150
 8699POPC   GL255178  36.078  23.585   6.150
 8699POPC   C1A55179  36.164  23.710   6.450
 8699POPC   D2A55180  36.170  23.758   6.750
 8699POPC   C3A55181  36.120  23.706   7.050
 8699POPC   C4A55182  36.109  23.704   7.350
 8699POPC   C1B55183  36.009  23.448   6.450
 8699POPC   C2B55184  36.080  23.447   6.750
 8699POPC   C3B55185  36.008  23.469   7.050
 8699POPC   C4B55186  36.013  23.475   7.350
 8700POPC   NC355187  39.965  39.996   5.550
 8700POPC   PO455188  39.974  40.011   5.850
 8700POPC   GL155189  39.975  40.001   6.150
 8700POPC   GL255190  39.921  39.910   6.150
 8700POPC   C1A55191  39.967  40.022   6.450
 8700POPC   D2A55192  40.011  39.973   6.750
 8700POPC   C3A55193  39.972  39.987   7.050
 8700POPC   C4A55194  40.021  40.043   7.350
 8700POPC   C1B55195  39.881  39.822   6.450
 8700POPC   C2B55196  39.899  39.798   6.750
 8700POPC   C3B55197  39.896  39.805   7.050
 8700POPC   C4B55198  39.889  39.796   7.350
 8701POPC   NC355199  29.095   1.195   5.550
 8701POPC   PO455200  29.113   1.211   5.850
 8701POPC   GL155201  29.133   1.210   6.150
 8701POPC   GL255202  29.029   1.154   6.150
 8701POPC   C1A55203  29.187   1.228   6.450
 8701POPC   D2A55204  29.194   1.249   6.750
 8701POPC   C3A55205  29.143   1.196   7.050
 8701POPC   C4A55206  29.099   1.233   7.350
 8701POPC   C1B55207  28.897   1.106   6.450
 8701POPC   C2B55208  28.874   1.163   6.750
 8701POPC   C3B55209  28.918   1.093   7.050
 8701POPC   C4B55210  28.863   1.150   7.350
 8702POPC   NC355211   4.351  33.805   5.550
 8702POPC   PO455212   4.304  33.751   5.850
 8702POPC   GL155213   4.340  33.776   6.150
 8702POPC   GL255214   4.337  33.698   6.150
 8702POPC   C1A55215   4.274  33.798   6.450
 8702POPC   D2A55216   4.273  33.771   6.750
 8702POPC   C3A55217   4.367  33.831   7.050
 8702POPC   C4A55218   4.346  33.839   7.350
 8702POPC   C1B55219   4.255  33.548   6.450
 8702POPC   C2B55220   4.279  33.532   6.750
 8702POPC   C3B55221   4.243  33.592   7.050
 8702POPC   C4B55222   4.273  33.509   7.350
 8703POPC   NC355223   1.253  36.914   5.550
 8703POPC   PO455224   1.222  36.934   5.850
 8703POPC   GL155225   1.234  36.900   6.150
 8703POPC   GL255226   1.264  37.039   6.150
 8703POPC   C1A55227   1.215  36.864   6.450
 8703POPC   D2A55228   1.210  36.937   6.750
 8703POPC   C3A55229   1.178  36.932   7.050
 8703POPC   C4A55230   1.252  36.899   7.350
 8703POPC   C1B55231   1.273  37.175   6.450
 8703POPC   C2B55232   1.202  37.173   6.750
 8703POPC   C3B55233   1.220  37.115   7.050
 8703POPC   C4B55234   1.227  37.131   7.350
 8704POPC   NC355235   5.895   5.857   5.550
 8704POPC   PO455236   5.884   5.830   5.850
 8704POPC   GL155237   5.833   5.917   6.150
 8704POPC   GL255238   5.701   5.869   6.150
 8704POPC   C1A55239   5.915   5.857   6.450
 8704POPC   D2A55240   5.877   5.908   6.750
 8704POPC   C3A55241   5.826   5.892   7.050
 8704POPC   C4A55242   5.835   5.868   7.350
 8704POPC   C1B55243   5.660   5.967   6.450
 8704POPC   C2B55244   5.627   5.968   6.750
 8704POPC   C3B55245   5.664   5.904   7.050
 8704POPC   C4B55246   5.682   5.960   7.350
 8705POPC   NC355247   8.927  43.111   5.550
 8705POPC   PO455248   8.948  43.117   5.850
 8705POPC   GL155249   9.018  43.068   6.150
 8705POPC   GL255250   8.883  43.234   6.150
 8705POPC   C1A55251   8.976  43.156   6.450
 8705POPC   D2A55252   8.983  43.097   6.750
 8705POPC   C3A55253   9.000  43.133   7.050
 8705POPC   C4A55254   9.011  43.139   7.350
 8705POPC   C1B55255   8.779  43.266   6.450
 8705POPC   C2B55256   8.764  43.235   6.750
 8705POPC   C3B55257   8.802  43.239   7.050
 8705POPC   C4B55258   8.791  43.237   7.350
 8706POPC   NC355259  29.938   1.252   5.550
 8706POPC   PO455260  29.955   1.200   5.850
 8706POPC   GL155261  29.951   1.234   6.150
 8706POPC   GL255262  29.813   1.321   6.150
 8706POPC   C1A55263  29.965   1.220   6.450
 8706POPC   D2A55264  29.910   1.256   6.750
 8706POPC   C3A55265  29.943   1.263   7.050
 8706POPC   C4A55266  29.928   1.210   7.350
 8706POPC   C1B55267  29.802   1.422   6.450
 8706POPC   C2B55268  29.798   1.390   6.750
 8706POPC   C3B55269  29.817   1.465   7.050
 8706POPC   C4B55270  29.792   1.484   7.350
 8707POPC   NC355271   7.464  22.975   5.550
 8707POPC   PO455272   7.405  22.909   5.850
 8707POPC   GL155273   7.387  22.972   6.150
 8707POPC   GL255274   7.362  23.026   6.150
 8707POPC   C1A55275   7.377  22.959   6.450
 8707POPC   D2A55276   7.414  22.916   6.750
 8707POPC   C3A55277   7.453  22.956   7.050
 8707POPC   C4A55278   7.395  22.985   7.350
 8707POPC   C1B55279   7.321  23.103   6.450
 8707POPC   C2B55280   7.261  23.174   6.750
 8707POPC   C3B55281   7.281  23.197   7.050
 8707POPC   C4B55282   7.325  23.166   7.350
 8708POPC   NC355283   9.750  44.670   5.550
 8708POPC   PO455284   9.743  44.672   5.850
 8708POPC   GL155285   9.731  44.641   6.150
 8708POPC   GL255286   9.704  44.763   6.150
 8708POPC   C1A55287   9.748  44.654   6.450
 8708POPC   D2A55288   9.797  44.706   6.750
 8708POPC   C3A55289   9.751  44.656   7.050
 8708POPC   C4A55290   9.711  44.655   7.350
 8708POPC   C1B55291   9.591  44.862   6.450
 8708POPC   C2B55292   9.519  44.831   6.750
 8708POPC   C3B55293   9.557  44.840   7.050
 8708POPC   C4B55294   9.595  44.843   7.350
 8709POPC   NC355295  42.363  44.659   5.550
 8709POPC   PO455296  42.353  44.637   5.850
 8709POPC   GL155297  42.311  44.688   6.150
 8709POPC   GL255298  42.324  44.801   6.150
 8709POPC   C1A55299  42.344  44.686   6.450
 8709POPC   D2A55300  42.381  44.650   6.750
 8709POPC   C3A55301  42.377  44.686   7.050
 8709POPC   C4A55302  42.324  44.663   7.350
 8709POPC   C1B55303  42.357  44.948   6.450
 8709POPC   C2B55304  42.326  44.864   6.750
 8709POPC   C3B55305  42.379  44.883   7.050
 8709POPC   C4B55306  42.330  44.863   7.350
 8710POPC   NC355307  29.109  36.107   5.550
 8710POPC   PO455308  29.167  36.164   5.850
 8710POPC   GL155309  29.116  36.100   6.150
 8710POPC   GL255310  29.306  36.066   6.150
 8710POPC   C1A55311  29.181  36.156   6.450
 8710POPC   D2A55312  29.182  36.171   6.750
 8710POPC   C3A55313  29.179  36.080   7.050
 8710POPC   C4A55314  29.176  36.101   7.350
 8710POPC   C1B55315  29.395  35.996   6.450
 8710POPC   C2B55316  29.397  36.056   6.750
 8710POPC   C3B55317  29.394  36.025   7.050
 8710POPC   C4B55318  29.355  36.018   7.350
 8711POPC   NC355319   3.568  10.499   5.550
 8711POPC   PO455320   3.527  10.540   5.850
 8711POPC   GL155321   3.591  10.526   6.150
 8711POPC   GL255322   3.450  10.459   6.150
 8711POPC   C1A55323   3.556  10.500   6.450
 8711POPC   D2A55324   3.578  10.511   6.750
 8711POPC   C3A55325   3.492  10.552   7.050
 8711POPC   C4A55326   3.525  10.517   7.350
 8711POPC   C1B55327   3.319  10.513   6.450
 8711POPC   C2B55328   3.263  10.467   6.750
 8711POPC   C3B55329   3.276  10.500   7.050
 8711POPC   C4B55330   3.251  10.450   7.350
 8712POPC   NC355331  16.774  41.601   5.550
 8712POPC   PO455332  16.721  41.563   5.850
 8712POPC   GL155333  16.692  41.519   6.150
 8712POPC   GL255334  16.741  41.700   6.150
 8712POPC   C1A55335  16.737  41.542   6.450
 8712POPC   D2A55336  16.771  41.548   6.750
 8712POPC   C3A55337  16.730  41.521   7.050
 8712POPC   C4A55338  16.725  41.589   7.350
 8712POPC   C1B55339  16.778  41.772   6.450
 8712POPC   C2B55340  16.818  41.831   6.750
 8712POPC   C3B55341  16.815  41.829   7.050
 8712POPC   C4B55342  16.766  41.775   7.350
 8713POPC   NC355343  30.696   3.527   5.550
 8713POPC   PO455344  30.703   3.492   5.850
 8713POPC   GL155345  30.687   3.492   6.150
 8713POPC   GL255346  30.607   3.601   6.150
 8713POPC   C1A55347  30.718   3.512   6.450
 8713POPC   D2A55348  30.738   3.559   6.750
 8713POPC   C3A55349  30.661   3.577   7.050
 8713POPC   C4A55350  30.660   3.577   7.350
 8713POPC   C1B55351  30.436   3.598   6.450
 8713POPC   C2B55352  30.506   3.627   6.750
 8713POPC   C3B55353  30.431   3.660   7.050
 8713POPC   C4B55354  30.450   3.568   7.350
 8714POPC   NC355355  27.643   2.749   5.550
 8714POPC   PO455356  27.579   2.794   5.850
 8714POPC   GL155357  27.628   2.716   6.150
 8714POPC   GL255358  27.465   2.734   6.150
 8714POPC   C1A55359  27.573   2.720   6.450
 8714POPC   D2A55360  27.612   2.723   6.750
 8714POPC   C3A55361  27.557   2.760   7.050
 8714POPC   C4A55362  27.639   2.748   7.350
 8714POPC   C1B55363  27.376   2.693   6.450
 8714POPC   C2B55364  27.359   2.685   6.750
 8714POPC   C3B55365  27.348   2.692   7.050
 8714POPC   C4B55366  27.348   2.656   7.350
 8715POPC   NC355367   9.769  19.876   5.550
 8715POPC   PO455368   9.796  19.805   5.850
 8715POPC   GL155369   9.766  19.844   6.150
 8715POPC   GL255370   9.699  19.999   6.150
 8715POPC   C1A55371   9.709  19.786   6.450
 8715POPC   D2A55372   9.730  19.848   6.750
 8715POPC   C3A55373   9.733  19.835   7.050
 8715POPC   C4A55374   9.797  19.861   7.350
 8715POPC   C1B55375   9.704  20.066   6.450
 8715POPC   C2B55376   9.696  20.036   6.750
 8715POPC   C3B55377   9.677  20.110   7.050
 8715POPC   C4B55378   9.661  20.075   7.350
 8716POPC   NC355379  43.105  11.334   5.550
 8716POPC   PO455380  43.102  11.345   5.850
 8716POPC   GL155381  43.061  11.329   6.150
 8716POPC   GL255382  42.994  11.356   6.150
 8716POPC   C1A55383  43.112  11.302   6.450
 8716POPC   D2A55384  43.070  11.262   6.750
 8716POPC   C3A55385  43.143  11.268   7.050
 8716POPC   C4A55386  43.142  11.296   7.350
 8716POPC   C1B55387  42.943  11.428   6.450
 8716POPC   C2B55388  42.895  11.519   6.750
 8716POPC   C3B55389  42.917  11.473   7.050
 8716POPC   C4B55390  42.896  11.460   7.350
 8717POPC   NC355391   1.198   0.460   5.550
 8717POPC   PO455392   1.239   0.461   5.850
 8717POPC   GL155393   1.190   0.484   6.150
 8717POPC   GL255394   1.320   0.413   6.150
 8717POPC   C1A55395   1.173   0.393   6.450
 8717POPC   D2A55396   1.215   0.475   6.750
 8717POPC   C3A55397   1.192   0.465   7.050
 8717POPC   C4A55398   1.200   0.425   7.350
 8717POPC   C1B55399   1.512   0.422   6.450
 8717POPC   C2B55400   1.413   0.367   6.750
 8717POPC   C3B55401   1.423   0.423   7.050
 8717POPC   C4B55402   1.475   0.455   7.350
 8718POPC   NC355403   3.574   4.322   5.550
 8718POPC   PO455404   3.557   4.329   5.850
 8718POPC   GL155405   3.544   4.330   6.150
 8718POPC   GL255406   3.526   4.421   6.150
 8718POPC   C1A55407   3.544   4.366   6.450
 8718POPC   D2A55408   3.527   4.341   6.750
 8718POPC   C3A55409   3.532   4.364   7.050
 8718POPC   C4A55410   3.534   4.345   7.350
 8718POPC   C1B55411   3.488   4.531   6.450
 8718POPC   C2B55412   3.498   4.533   6.750
 8718POPC   C3B55413   3.483   4.596   7.050
 8718POPC   C4B55414   3.461   4.591   7.350
 8719POPC   NC355415   9.767   3.587   5.550
 8719POPC   PO455416   9.747   3.520   5.850
 8719POPC   GL155417   9.699   3.554   6.150
 8719POPC   GL255418   9.893   3.554   6.150
 8719POPC   C1A55419   9.717   3.502   6.450
 8719POPC   D2A55420   9.752   3.536   6.750
 8719POPC   C3A55421   9.709   3.515   7.050
 8719POPC   C4A55422   9.773   3.579   7.350
 8719POPC   C1B55423  10.017   3.459   6.450
 8719POPC   C2B55424   9.971   3.501   6.750
 8719POPC   C3B55425  10.029   3.502   7.050
 8719POPC   C4B55426   9.952   3.494   7.350
 8720POPC   NC355427  26.072  26.862   5.550
 8720POPC   PO455428  26.079  26.771   5.850
 8720POPC   GL155429  26.026  26.854   6.150
 8720POPC   GL255430  26.039  26.649   6.150
 8720POPC   C1A55431  26.008  26.782   6.450
 8720POPC   D2A55432  26.028  26.809   6.750
 8720POPC   C3A55433  26.076  26.852   7.050
 8720POPC   C4A55434  26.047  26.808   7.350
 8720POPC   C1B55435  26.088  26.527   6.450
 8720POPC   C2B55436  26.131  26.540   6.750
 8720POPC   C3B55437  26.081  26.595   7.050
 8720POPC   C4B55438  26.050  26.607   7.350
 8721POPC   NC355439  18.266   8.240   5.550
 8721POPC   PO455440  18.267   8.246   5.850
 8721POPC   GL155441  18.266   8.202   6.150
 8721POPC   GL255442  18.376   8.184   6.150
 8721POPC   C1A55443  18.252   8.202   6.450
 8721POPC   D2A55444  18.309   8.231   6.750
 8721POPC   C3A55445  18.263   8.171   7.050
 8721POPC   C4A55446  18.233   8.181   7.350
 8721POPC   C1B55447  18.516   8.207   6.450
 8721POPC   C2B55448  18.518   8.202   6.750
 8721POPC   C3B55449  18.519   8.185   7.050
 8721POPC   C4B55450  18.553   8.224   7.350
 8722POPC   NC355451   5.909  17.463   5.550
 8722POPC   PO455452   5.837  17.471   5.850
 8722POPC   GL155453   5.884  17.523   6.150
 8722POPC   GL255454   5.867  17.373   6.150
 8722POPC   C1A55455   5.883  17.464   6.450
 8722POPC   D2A55456   5.906  17.548   6.750
 8722POPC   C3A55457   5.889  17.499   7.050
 8722POPC   C4A55458   5.833  17.507   7.350
 8722POPC   C1B55459   5.825  17.237   6.450
 8722POPC   C2B55460   5.895  17.253   6.750
 8722POPC   C3B55461   5.881  17.253   7.050
 8722POPC   C4B55462   5.831  17.237   7.350
 8723POPC   NC355463  29.131  31.488   5.550
 8723POPC   PO455464  29.131  31.452   5.850
 8723POPC   GL155465  29.126  31.464   6.150
 8723POPC   GL255466  29.073  31.402   6.150
 8723POPC   C1A55467  29.178  31.464   6.450
 8723POPC   D2A55468  29.180  31.480   6.750
 8723POPC   C3A55469  29.163  31.498   7.050
 8723POPC   C4A55470  29.116  31.486   7.350
 8723POPC   C1B55471  29.042  31.239   6.450
 8723POPC   C2B55472  29.019  31.193   6.750
 8723POPC   C3B55473  29.061  31.230   7.050
 8723POPC   C4B55474  29.078  31.206   7.350
 8724POPC   NC355475  36.938  37.650   5.550
 8724POPC   PO455476  36.887  37.637   5.850
 8724POPC   GL155477  36.903  37.633   6.150
 8724POPC   GL255478  37.027  37.651   6.150
 8724POPC   C1A55479  36.857  37.666   6.450
 8724POPC   D2A55480  36.892  37.642   6.750
 8724POPC   C3A55481  36.891  37.649   7.050
 8724POPC   C4A55482  36.940  37.663   7.350
 8724POPC   C1B55483  37.135  37.672   6.450
 8724POPC   C2B55484  37.109  37.672   6.750
 8724POPC   C3B55485  37.111  37.680   7.050
 8724POPC   C4B55486  37.189  37.716   7.350
 8725POPC   NC355487  38.474   9.725   5.550
 8725POPC   PO455488  38.422   9.762   5.850
 8725POPC   GL155489  38.492   9.718   6.150
 8725POPC   GL255490  38.510   9.899   6.150
 8725POPC   C1A55491  38.476   9.784   6.450
 8725POPC   D2A55492  38.418   9.759   6.750
 8725POPC   C3A55493  38.498   9.786   7.050
 8725POPC   C4A55494  38.438   9.775   7.350
 8725POPC   C1B55495  38.542  10.011   6.450
 8725POPC   C2B55496  38.546   9.950   6.750
 8725POPC   C3B55497  38.472   9.970   7.050
 8725POPC   C4B55498  38.472  10.019   7.350
 8726POPC   NC355499  23.703  21.361   5.550
 8726POPC   PO455500  23.666  21.404   5.850
 8726POPC   GL155501  23.742  21.362   6.150
 8726POPC   GL255502  23.653  21.243   6.150
 8726POPC   C1A55503  23.714  21.373   6.450
 8726POPC   D2A55504  23.737  21.436   6.750
 8726POPC   C3A55505  23.701  21.401   7.050
 8726POPC   C4A55506  23.729  21.346   7.350
 8726POPC   C1B55507  23.604  21.186   6.450
 8726POPC   C2B55508  23.630  21.169   6.750
 8726POPC   C3B55509  23.603  21.201   7.050
 8726POPC   C4B55510  23.584  21.167   7.350
 8727POPC   NC355511  15.180   2.031   5.550
 8727POPC   PO455512  15.173   1.963   5.850
 8727POPC   GL155513  15.145   2.008   6.150
 8727POPC   GL255514  15.158   2.132   6.150
 8727POPC   C1A55515  15.202   1.973   6.450
 8727POPC   D2A55516  15.175   2.016   6.750
 8727POPC   C3A55517  15.210   2.014   7.050
 8727POPC   C4A55518  15.219   1.997   7.350
 8727POPC   C1B55519  15.194   2.192   6.450
 8727POPC   C2B55520  15.209   2.283   6.750
 8727POPC   C3B55521  15.210   2.274   7.050
 8727POPC   C4B55522  15.194   2.232   7.350
 8728POPC   NC355523   1.216  19.822   5.550
 8728POPC   PO455524   1.200  19.870   5.850
 8728POPC   GL155525   1.180  19.835   6.150
 8728POPC   GL255526   1.293  19.935   6.150
 8728POPC   C1A55527   1.227  19.864   6.450
 8728POPC   D2A55528   1.253  19.804   6.750
 8728POPC   C3A55529   1.235  19.829   7.050
 8728POPC   C4A55530   1.174  19.831   7.350
 8728POPC   C1B55531   1.339  20.050   6.450
 8728POPC   C2B55532   1.349  19.996   6.750
 8728POPC   C3B55533   1.377  20.002   7.050
 8728POPC   C4B55534   1.389  20.060   7.350
 8729POPC   NC355535  42.353  32.247   5.550
 8729POPC   PO455536  42.333  32.280   5.850
 8729POPC   GL155537  42.336  32.254   6.150
 8729POPC   GL255538  42.297  32.159   6.150
 8729POPC   C1A55539  42.294  32.286   6.450
 8729POPC   D2A55540  42.379  32.224   6.750
 8729POPC   C3A55541  42.347  32.294   7.050
 8729POPC   C4A55542  42.315  32.230   7.350
 8729POPC   C1B55543  42.365  32.005   6.450
 8729POPC   C2B55544  42.344  31.975   6.750
 8729POPC   C3B55545  42.384  32.047   7.050
 8729POPC   C4B55546  42.380  31.989   7.350
 8730POPC   NC355547   5.134  26.784   5.550
 8730POPC   PO455548   5.099  26.845   5.850
 8730POPC   GL155549   5.098  26.830   6.150
 8730POPC   GL255550   4.961  26.864   6.150
 8730POPC   C1A55551   5.076  26.779   6.450
 8730POPC   D2A55552   5.047  26.789   6.750
 8730POPC   C3A55553   5.054  26.815   7.050
 8730POPC   C4A55554   5.068  26.805   7.350
 8730POPC   C1B55555   4.801  26.800   6.450
 8730POPC   C2B55556   4.872  26.778   6.750
 8730POPC   C3B55557   4.842  26.796   7.050
 8730POPC   C4B55558   4.841  26.780   7.350
 8731POPC   NC355559  27.639  30.665   5.550
 8731POPC   PO455560  27.622  30.662   5.850
 8731POPC   GL155561  27.639  30.690   6.150
 8731POPC   GL255562  27.571  30.839   6.150
 8731POPC   C1A55563  27.570  30.674   6.450
 8731POPC   D2A55564  27.548  30.705   6.750
 8731POPC   C3A55565  27.543  30.726   7.050
 8731POPC   C4A55566  27.581  30.700   7.350
 8731POPC   C1B55567  27.525  30.955   6.450
 8731POPC   C2B55568  27.494  30.891   6.750
 8731POPC   C3B55569  27.512  30.907   7.050
 8731POPC   C4B55570  27.449  30.906   7.350
 8732POPC   NC355571  36.855  41.535   5.550
 8732POPC   PO455572  36.888  41.576   5.850
 8732POPC   GL155573  36.947  41.555   6.150
 8732POPC   GL255574  36.980  41.586   6.150
 8732POPC   C1A55575  36.861  41.588   6.450
 8732POPC   D2A55576  36.920  41.563   6.750
 8732POPC   C3A55577  36.926  41.542   7.050
 8732POPC   C4A55578  36.898  41.524   7.350
 8732POPC   C1B55579  37.109  41.561   6.450
 8732POPC   C2B55580  37.147  41.511   6.750
 8732POPC   C3B55581  37.141  41.549   7.050
 8732POPC   C4B55582  37.166  41.565   7.350
 8733POPC   NC355583  13.604  16.736   5.550
 8733POPC   PO455584  13.612  16.751   5.850
 8733POPC   GL155585  13.640  16.738   6.150
 8733POPC   GL255586  13.547  16.596   6.150
 8733POPC   C1A55587  13.671  16.725   6.450
 8733POPC   D2A55588  13.657  16.708   6.750
 8733POPC   C3A55589  13.649  16.748   7.050
 8733POPC   C4A55590  13.609  16.708   7.350
 8733POPC   C1B55591  13.434  16.544   6.450
 8733POPC   C2B55592  13.469  16.507   6.750
 8733POPC   C3B55593  13.470  16.535   7.050
 8733POPC   C4B55594  13.419  16.512   7.350
 8734POPC   NC355595   3.527  33.065   5.550
 8734POPC   PO455596   3.562  33.051   5.850
 8734POPC   GL155597   3.516  32.983   6.150
 8734POPC   GL255598   3.609  33.058   6.150
 8734POPC   C1A55599   3.497  33.050   6.450
 8734POPC   D2A55600   3.569  33.058   6.750
 8734POPC   C3A55601   3.552  32.981   7.050
 8734POPC   C4A55602   3.551  33.056   7.350
 8734POPC   C1B55603   3.731  33.195   6.450
 8734POPC   C2B55604   3.773  33.112   6.750
 8734POPC   C3B55605   3.791  33.134   7.050
 8734POPC   C4B55606   3.752  33.157   7.350
 8735POPC   NC355607   1.990  11.311   5.550
 8735POPC   PO455608   2.011  11.334   5.850
 8735POPC   GL155609   1.977  11.299   6.150
 8735POPC   GL255610   1.833  11.388   6.150
 8735POPC   C1A55611   2.000  11.295   6.450
 8735POPC   D2A55612   1.972  11.304   6.750
 8735POPC   C3A55613   1.966  11.333   7.050
 8735POPC   C4A55614   1.973  11.312   7.350
 8735POPC   C1B55615   1.742  11.389   6.450
 8735POPC   C2B55616   1.769  11.395   6.750
 8735POPC   C3B55617   1.746  11.443   7.050
 8735POPC   C4B55618   1.745  11.395   7.350
 8736POPC   NC355619  15.961  21.363   5.550
 8736POPC   PO455620  15.934  21.430   5.850
 8736POPC   GL155621  15.916  21.369   6.150
 8736POPC   GL255622  15.860  21.328   6.150
 8736POPC   C1A55623  15.943  21.387   6.450
 8736POPC   D2A55624  15.933  21.360   6.750
 8736POPC   C3A55625  15.964  21.399   7.050
 8736POPC   C4A55626  15.933  21.367   7.350
 8736POPC   C1B55627  15.686  21.349   6.450
 8736POPC   C2B55628  15.730  21.366   6.750
 8736POPC   C3B55629  15.687  21.290   7.050
 8736POPC   C4B55630  15.711  21.281   7.350
 8737POPC   NC355631  12.840  17.472   5.550
 8737POPC   PO455632  12.880  17.501   5.850
 8737POPC   GL155633  12.881  17.523   6.150
 8737POPC   GL255634  12.874  17.670   6.150
 8737POPC   C1A55635  12.833  17.461   6.450
 8737POPC   D2A55636  12.808  17.501   6.750
 8737POPC   C3A55637  12.829  17.538   7.050
 8737POPC   C4A55638  12.808  17.542   7.350
 8737POPC   C1B55639  12.809  17.791   6.450
 8737POPC   C2B55640  12.817  17.772   6.750
 8737POPC   C3B55641  12.853  17.755   7.050
 8737POPC   C4B55642  12.830  17.716   7.350
 8738POPC   NC355643  33.063   1.963   5.550
 8738POPC   PO455644  33.047   1.956   5.850
 8738POPC   GL155645  33.060   2.021   6.150
 8738POPC   GL255646  33.080   2.090   6.150
 8738POPC   C1A55647  33.051   2.034   6.450
 8738POPC   D2A55648  33.040   2.008   6.750
 8738POPC   C3A55649  33.015   1.948   7.050
 8738POPC   C4A55650  32.977   1.987   7.350
 8738POPC   C1B55651  33.156   2.131   6.450
 8738POPC   C2B55652  33.159   2.189   6.750
 8738POPC   C3B55653  33.224   2.163   7.050
 8738POPC   C4B55654  33.147   2.168   7.350
 8739POPC   NC355655  40.037  26.065   5.550
 8739POPC   PO455656  39.974  26.075   5.850
 8739POPC   GL155657  40.038  26.020   6.150
 8739POPC   GL255658  39.928  25.971   6.150
 8739POPC   C1A55659  40.052  26.021   6.450
 8739POPC   D2A55660  40.049  26.038   6.750
 8739POPC   C3A55661  39.984  26.018   7.050
 8739POPC   C4A55662  39.962  26.059   7.350
 8739POPC   C1B55663  39.891  25.811   6.450
 8739POPC   C2B55664  39.951  25.815   6.750
 8739POPC   C3B55665  39.946  25.806   7.050
 8739POPC   C4B55666  39.948  25.777   7.350
 8740POPC   NC355667  14.432   3.498   5.550
 8740POPC   PO455668  14.427   3.557   5.850
 8740POPC   GL155669  14.397   3.517   6.150
 8740POPC   GL255670  14.351   3.419   6.150
 8740POPC   C1A55671  14.399   3.573   6.450
 8740POPC   D2A55672  14.377   3.498   6.750
 8740POPC   C3A55673  14.370   3.568   7.050
 8740POPC   C4A55674  14.410   3.531   7.350
 8740POPC   C1B55675  14.258   3.360   6.450
 8740POPC   C2B55676  14.245   3.275   6.750
 8740POPC   C3B55677  14.297   3.339   7.050
 8740POPC   C4B55678  14.297   3.358   7.350
 8741POPC   NC355679  36.114   2.782   5.550
 8741POPC   PO455680  36.105   2.753   5.850
 8741POPC   GL155681  36.093   2.782   6.150
 8741POPC   GL255682  36.229   2.679   6.150
 8741POPC   C1A55683  36.164   2.808   6.450
 8741POPC   D2A55684  36.126   2.726   6.750
 8741POPC   C3A55685  36.104   2.783   7.050
 8741POPC   C4A55686  36.098   2.731   7.350
 8741POPC   C1B55687  36.259   2.522   6.450
 8741POPC   C2B55688  36.263   2.556   6.750
 8741POPC   C3B55689  36.277   2.599   7.050
 8741POPC   C4B55690  36.275   2.578   7.350
 8742POPC   NC355691  25.232   4.347   5.550
 8742POPC   PO455692  25.309   4.281   5.850
 8742POPC   GL155693  25.216   4.280   6.150
 8742POPC   GL255694  25.374   4.179   6.150
 8742POPC   C1A55695  25.302   4.304   6.450
 8742POPC   D2A55696  25.290   4.293   6.750
 8742POPC   C3A55697  25.255   4.323   7.050
 8742POPC   C4A55698  25.245   4.286   7.350
 8742POPC   C1B55699  25.418   4.139   6.450
 8742POPC   C2B55700  25.351   4.135   6.750
 8742POPC   C3B55701  25.375   4.115   7.050
 8742POPC   C4B55702  25.402   4.077   7.350
 8743POPC   NC355703  36.898  15.981   5.550
 8743POPC   PO455704  36.888  15.983   5.850
 8743POPC   GL155705  36.893  15.946   6.150
 8743POPC   GL255706  36.913  16.063   6.150
 8743POPC   C1A55707  36.934  15.936   6.450
 8743POPC   D2A55708  36.918  15.970   6.750
 8743POPC   C3A55709  36.866  15.937   7.050
 8743POPC   C4A55710  36.880  15.942   7.350
 8743POPC   C1B55711  36.936  16.175   6.450
 8743POPC   C2B55712  36.888  16.169   6.750
 8743POPC   C3B55713  36.925  16.169   7.050
 8743POPC   C4B55714  36.932  16.172   7.350
 8744POPC   NC355715  29.892   0.467   5.550
 8744POPC   PO455716  29.906   0.422   5.850
 8744POPC   GL155717  29.884   0.391   6.150
 8744POPC   GL255718  29.786   0.462   6.150
 8744POPC   C1A55719  29.957   0.393   6.450
 8744POPC   D2A55720  29.893   0.413   6.750
 8744POPC   C3A55721  29.970   0.485   7.050
 8744POPC   C4A55722  29.915   0.391   7.350
 8744POPC   C1B55723  29.664   0.461   6.450
 8744POPC   C2B55724  29.664   0.393   6.750
 8744POPC   C3B55725  29.637   0.392   7.050
 8744POPC   C4B55726  29.721   0.412   7.350
 8745POPC   NC355727  36.920   6.644   5.550
 8745POPC   PO455728  36.905   6.667   5.850
 8745POPC   GL155729  36.903   6.645   6.150
 8745POPC   GL255730  36.988   6.772   6.150
 8745POPC   C1A55731  36.870   6.678   6.450
 8745POPC   D2A55732  36.938   6.693   6.750
 8745POPC   C3A55733  36.917   6.621   7.050
 8745POPC   C4A55734  36.861   6.633   7.350
 8745POPC   C1B55735  37.062   6.822   6.450
 8745POPC   C2B55736  37.038   6.813   6.750
 8745POPC   C3B55737  37.098   6.798   7.050
 8745POPC   C4B55738  37.061   6.869   7.350
 8746POPC   NC355739  12.060  32.206   5.550
 8746POPC   PO455740  12.106  32.237   5.850
 8746POPC   GL155741  12.080  32.232   6.150
 8746POPC   GL255742  12.217  32.248   6.150
 8746POPC   C1A55743  12.069  32.266   6.450
 8746POPC   D2A55744  12.092  32.254   6.750
 8746POPC   C3A55745  12.066  32.276   7.050
 8746POPC   C4A55746  12.120  32.239   7.350
 8746POPC   C1B55747  12.279  32.299   6.450
 8746POPC   C2B55748  12.304  32.336   6.750
 8746POPC   C3B55749  12.315  32.350   7.050
 8746POPC   C4B55750  12.297  32.295   7.350
 8747POPC   NC355751   2.756  43.896   5.550
 8747POPC   PO455752   2.720  43.857   5.850
 8747POPC   GL155753   2.734  43.930   6.150
 8747POPC   GL255754   2.716  43.815   6.150
 8747POPC   C1A55755   2.722  43.852   6.450
 8747POPC   D2A55756   2.735  43.930   6.750
 8747POPC   C3A55757   2.720  43.914   7.050
 8747POPC   C4A55758   2.787  43.930   7.350
 8747POPC   C1B55759   2.628  43.730   6.450
 8747POPC   C2B55760   2.616  43.695   6.750
 8747POPC   C3B55761   2.613  43.643   7.050
 8747POPC   C4B55762   2.595  43.702   7.350
 8748POPC   NC355763  35.312  29.162   5.550
 8748POPC   PO455764  35.351  29.153   5.850
 8748POPC   GL155765  35.340  29.115   6.150
 8748POPC   GL255766  35.251  29.235   6.150
 8748POPC   C1A55767  35.338  29.163   6.450
 8748POPC   D2A55768  35.352  29.117   6.750
 8748POPC   C3A55769  35.314  29.137   7.050
 8748POPC   C4A55770  35.358  29.183   7.350
 8748POPC   C1B55771  35.101  29.243   6.450
 8748POPC   C2B55772  35.086  29.245   6.750
 8748POPC   C3B55773  35.152  29.250   7.050
 8748POPC   C4B55774  35.093  29.297   7.350
 8749POPC   NC355775  22.972  37.681   5.550
 8749POPC   PO455776  22.928  37.643   5.850
 8749POPC   GL155777  22.953  37.725   6.150
 8749POPC   GL255778  22.798  37.677   6.150
 8749POPC   C1A55779  22.906  37.649   6.450
 8749POPC   D2A55780  22.932  37.705   6.750
 8749POPC   C3A55781  22.934  37.681   7.050
 8749POPC   C4A55782  22.889  37.684   7.350
 8749POPC   C1B55783  22.681  37.653   6.450
 8749POPC   C2B55784  22.736  37.705   6.750
 8749POPC   C3B55785  22.736  37.711   7.050
 8749POPC   C4B55786  22.674  37.729   7.350
 8750POPC   NC355787   2.763   9.012   5.550
 8750POPC   PO455788   2.805   9.009   5.850
 8750POPC   GL155789   2.745   8.949   6.150
 8750POPC   GL255790   2.863   8.988   6.150
 8750POPC   C1A55791   2.771   9.011   6.450
 8750POPC   D2A55792   2.815   8.977   6.750
 8750POPC   C3A55793   2.787   9.005   7.050
 8750POPC   C4A55794   2.781   9.019   7.350
 8750POPC   C1B55795   3.031   8.927   6.450
 8750POPC   C2B55796   3.002   8.905   6.750
 8750POPC   C3B55797   2.986   8.901   7.050
 8750POPC   C4B55798   3.030   8.903   7.350
 8751POPC   NC355799  44.674  26.088   5.550
 8751POPC   PO455800  44.665  26.057   5.850
 8751POPC   GL155801  44.647  26.003   6.150
 8751POPC   GL255802  44.722  25.979   6.150
 8751POPC   C1A55803  44.618  26.074   6.450
 8751POPC   D2A55804  44.627  26.041   6.750
 8751POPC   C3A55805  44.648  26.066   7.050
 8751POPC   C4A55806  44.625  26.072   7.350
 8751POPC   C1B55807  44.863  25.940   6.450
 8751POPC   C2B55808  44.859  25.942   6.750
 8751POPC   C3B55809  44.833  25.891   7.050
 8751POPC   C4B55810  44.864  25.912   7.350
 8752POPC   NC355811  11.336   6.663   5.550
 8752POPC   PO455812  11.318   6.686   5.850
 8752POPC   GL155813  11.308   6.629   6.150
 8752POPC   GL255814  11.212   6.613   6.150
 8752POPC   C1A55815  11.318   6.688   6.450
 8752POPC   D2A55816  11.294   6.663   6.750
 8752POPC   C3A55817  11.254   6.631   7.050
 8752POPC   C4A55818  11.292   6.599   7.350
 8752POPC   C1B55819  11.113   6.454   6.450
 8752POPC   C2B55820  11.062   6.479   6.750
 8752POPC   C3B55821  11.071   6.460   7.050
 8752POPC   C4B55822  11.060   6.453   7.350
 8753POPC   NC355823  23.736  14.422   5.550
 8753POPC   PO455824  23.690  14.423   5.850
 8753POPC   GL155825  23.678  14.395   6.150
 8753POPC   GL255826  23.724  14.276   6.150
 8753POPC   C1A55827  23.712  14.437   6.450
 8753POPC   D2A55828  23.693  14.364   6.750
 8753POPC   C3A55829  23.675  14.378   7.050
 8753POPC   C4A55830  23.718  14.452   7.350
 8753POPC   C1B55831  23.707  14.138   6.450
 8753POPC   C2B55832  23.758  14.151   6.750
 8753POPC   C3B55833  23.722  14.132   7.050
 8753POPC   C4B55834  23.709  14.182   7.350
 8754POPC   NC355835  37.696  23.748   5.550
 8754POPC   PO455836  37.720  23.742   5.850
 8754POPC   GL155837  37.718  23.763   6.150
 8754POPC   GL255838  37.705  23.813   6.150
 8754POPC   C1A55839  37.720  23.743   6.450
 8754POPC   D2A55840  37.636  23.723   6.750
 8754POPC   C3A55841  37.691  23.713   7.050
 8754POPC   C4A55842  37.644  23.746   7.350
 8754POPC   C1B55843  37.842  23.907   6.450
 8754POPC   C2B55844  37.869  23.951   6.750
 8754POPC   C3B55845  37.805  23.917   7.050
 8754POPC   C4B55846  37.821  23.893   7.350
 8755POPC   NC355847  39.270  15.987   5.550
 8755POPC   PO455848  39.229  15.986   5.850
 8755POPC   GL155849  39.181  15.930   6.150
 8755POPC   GL255850  39.189  16.101   6.150
 8755POPC   C1A55851  39.256  15.944   6.450
 8755POPC   D2A55852  39.197  15.936   6.750
 8755POPC   C3A55853  39.241  15.949   7.050
 8755POPC   C4A55854  39.223  15.967   7.350
 8755POPC   C1B55855  39.104  16.201   6.450
 8755POPC   C2B55856  39.107  16.215   6.750
 8755POPC   C3B55857  39.179  16.154   7.050
 8755POPC   C4B55858  39.106  16.176   7.350
 8756POPC   NC355859  11.342  20.579   5.550
 8756POPC   PO455860  11.288  20.633   5.850
 8756POPC   GL155861  11.280  20.610   6.150
 8756POPC   GL255862  11.404  20.635   6.150
 8756POPC   C1A55863  11.315  20.653   6.450
 8756POPC   D2A55864  11.296  20.618   6.750
 8756POPC   C3A55865  11.288  20.572   7.050
 8756POPC   C4A55866  11.345  20.609   7.350
 8756POPC   C1B55867  11.553  20.579   6.450
 8756POPC   C2B55868  11.540  20.556   6.750
 8756POPC   C3B55869  11.517  20.551   7.050
 8756POPC   C4B55870  11.551  20.587   7.350
 8757POPC   NC355871  44.617  12.805   5.550
 8757POPC   PO455872  44.662  12.873   5.850
 8757POPC   GL155873  44.702  12.856   6.150
 8757POPC   GL255874  44.532  12.874   6.150
 8757POPC   C1A55875  44.624  12.828   6.450
 8757POPC   D2A55876  44.651  12.900   6.750
 8757POPC   C3A55877  44.667  12.805   7.050
 8757POPC   C4A55878  44.684  12.870   7.350
 8757POPC   C1B55879  44.461  12.971   6.450
 8757POPC   C2B55880  44.496  12.950   6.750
 8757POPC   C3B55881  44.453  13.025   7.050
 8757POPC   C4B55882  44.463  12.938   7.350
 8758POPC   NC355883  21.411  40.775   5.550
 8758POPC   PO455884  21.375  40.754   5.850
 8758POPC   GL155885  21.392  40.781   6.150
 8758POPC   GL255886  21.381  40.860   6.150
 8758POPC   C1A55887  21.418  40.805   6.450
 8758POPC   D2A55888  21.424  40.767   6.750
 8758POPC   C3A55889  21.425  40.734   7.050
 8758POPC   C4A55890  21.432  40.807   7.350
 8758POPC   C1B55891  21.457  41.008   6.450
 8758POPC   C2B55892  21.422  41.029   6.750
 8758POPC   C3B55893  21.388  41.024   7.050
 8758POPC   C4B55894  21.440  41.002   7.350
 8759POPC   NC355895  16.733  18.275   5.550
 8759POPC   PO455896  16.764  18.308   5.850
 8759POPC   GL155897  16.711  18.330   6.150
 8759POPC   GL255898  16.785  18.390   6.150
 8759POPC   C1A55899  16.685  18.322   6.450
 8759POPC   D2A55900  16.772  18.259   6.750
 8759POPC   C3A55901  16.715  18.295   7.050
 8759POPC   C4A55902  16.696  18.283   7.350
 8759POPC   C1B55903  16.801  18.514   6.450
 8759POPC   C2B55904  16.847  18.521   6.750
 8759POPC   C3B55905  16.846  18.560   7.050
 8759POPC   C4B55906  16.801  18.465   7.350
 8760POPC   NC355907  40.055  12.124   5.550
 8760POPC   PO455908  39.972  12.117   5.850
 8760POPC   GL155909  40.005  12.060   6.150
 8760POPC   GL255910  39.920  12.021   6.150
 8760POPC   C1A55911  40.028  12.049   6.450
 8760POPC   D2A55912  40.010  12.071   6.750
 8760POPC   C3A55913  39.994  12.043   7.050
 8760POPC   C4A55914  39.980  12.082   7.350
 8760POPC   C1B55915  39.773  11.949   6.450
 8760POPC   C2B55916  39.798  11.919   6.750
 8760POPC   C3B55917  39.804  11.926   7.050
 8760POPC   C4B55918  39.784  11.891   7.350
 8761POPC   NC355919   5.059  34.597   5.550
 8761POPC   PO455920   5.071  34.527   5.850
 8761POPC   GL155921   5.120  34.624   6.150
 8761POPC   GL255922   4.967  34.529   6.150
 8761POPC   C1A55923   5.067  34.590   6.450
 8761POPC   D2A55924   5.127  34.551   6.750
 8761POPC   C3A55925   5.124  34.611   7.050
 8761POPC   C4A55926   5.074  34.535   7.350
 8761POPC   C1B55927   4.812  34.610   6.450
 8761POPC   C2B55928   4.816  34.595   6.750
 8761POPC   C3B55929   4.860  34.529   7.050
 8761POPC   C4B55930   4.825  34.600   7.350
 8762POPC   NC355931  26.073  44.617   5.550
 8762POPC   PO455932  26.054  44.659   5.850
 8762POPC   GL155933  26.023  44.705   6.150
 8762POPC   GL255934  25.941  44.594   6.150
 8762POPC   C1A55935  26.044  44.660   6.450
 8762POPC   D2A55936  26.048  44.629   6.750
 8762POPC   C3A55937  26.063  44.682   7.050
 8762POPC   C4A55938  26.076  44.685   7.350
 8762POPC   C1B55939  25.784  44.549   6.450
 8762POPC   C2B55940  25.841  44.520   6.750
 8762POPC   C3B55941  25.829  44.589   7.050
 8762POPC   C4B55942  25.789  44.520   7.350
 8763POPC   NC355943  24.518  17.498   5.550
 8763POPC   PO455944  24.446  17.478   5.850
 8763POPC   GL155945  24.503  17.553   6.150
 8763POPC   GL255946  24.363  17.428   6.150
 8763POPC   C1A55947  24.490  17.489   6.450
 8763POPC   D2A55948  24.532  17.505   6.750
 8763POPC   C3A55949  24.521  17.509   7.050
 8763POPC   C4A55950  24.526  17.474   7.350
 8763POPC   C1B55951  24.335  17.386   6.450
 8763POPC   C2B55952  24.310  17.385   6.750
 8763POPC   C3B55953  24.251  17.361   7.050
 8763POPC   C4B55954  24.287  17.376   7.350
 8764POPC   NC355955  28.329  37.681   5.550
 8764POPC   PO455956  28.407  37.686   5.850
 8764POPC   GL155957  28.375  37.671   6.150
 8764POPC   GL255958  28.510  37.762   6.150
 8764POPC   C1A55959  28.321  37.657   6.450
 8764POPC   D2A55960  28.332  37.643   6.750
 8764POPC   C3A55961  28.373  37.724   7.050
 8764POPC   C4A55962  28.376  37.701   7.350
 8764POPC   C1B55963  28.649  37.800   6.450
 8764POPC   C2B55964  28.632  37.794   6.750
 8764POPC   C3B55965  28.649  37.798   7.050
 8764POPC   C4B55966  28.625  37.707   7.350
 8765POPC   NC355967   0.481  10.513   5.550
 8765POPC   PO455968   0.410  10.518   5.850
 8765POPC   GL155969   0.474  10.497   6.150
 8765POPC   GL255970   0.550  10.522   6.150
 8765POPC   C1A55971   0.404  10.490   6.450
 8765POPC   D2A55972   0.439  10.514   6.750
 8765POPC   C3A55973   0.434  10.497   7.050
 8765POPC   C4A55974   0.478  10.552   7.350
 8765POPC   C1B55975   0.730  10.523   6.450
 8765POPC   C2B55976   0.725  10.507   6.750
 8765POPC   C3B55977   0.684  10.475   7.050
 8765POPC   C4B55978   0.691  10.511   7.350
 8766POPC   NC355979  30.724  29.166   5.550
 8766POPC   PO455980  30.690  29.147   5.850
 8766POPC   GL155981  30.688  29.151   6.150
 8766POPC   GL255982  30.579  29.201   6.150
 8766POPC   C1A55983  30.709  29.100   6.450
 8766POPC   D2A55984  30.689  29.183   6.750
 8766POPC   C3A55985  30.658  29.173   7.050
 8766POPC   C4A55986  30.686  29.101   7.350
 8766POPC   C1B55987  30.493  29.336   6.450
 8766POPC   C2B55988  30.515  29.282   6.750
 8766POPC   C3B55989  30.474  29.298   7.050
 8766POPC   C4B55990  30.523  29.278   7.350
 8767POPC   NC355991   3.559   1.185   5.550
 8767POPC   PO455992   3.522   1.230   5.850
 8767POPC   GL155993   3.562   1.262   6.150
 8767POPC   GL255994   3.627   1.149   6.150
 8767POPC   C1A55995   3.507   1.221   6.450
 8767POPC   D2A55996   3.493   1.231   6.750
 8767POPC   C3A55997   3.498   1.234   7.050
 8767POPC   C4A55998   3.516   1.250   7.350
 8767POPC   C1B55999   3.630   1.013   6.450
 8767POPC   C2B56000   3.616   0.977   6.750
 8767POPC   C3B56001   3.640   1.037   7.050
 8767POPC   C4B56002   3.648   0.998   7.350
 8768POPC   NC356003  19.067  44.661   5.550
 8768POPC   PO456004  19.092  44.705   5.850
 8768POPC   GL156005  19.066  44.623   6.150
 8768POPC   GL256006  18.963  44.651   6.150
 8768POPC   C1A56007  19.036  44.656   6.450
 8768POPC   D2A56008  19.049  44.697   6.750
 8768POPC   C3A56009  19.046  44.645   7.050
 8768POPC   C4A56010  19.026  44.707   7.350
 8768POPC   C1B56011  18.826  44.696   6.450
 8768POPC   C2B56012  18.853  44.705   6.750
 8768POPC   C3B56013  18.771  44.699   7.050
 8768POPC   C4B56014  18.863  44.704   7.350
 8769POPC   NC356015  13.579  38.424   5.550
 8769POPC   PO456016  13.594  38.437   5.850
 8769POPC   GL156017  13.624  38.413   6.150
 8769POPC   GL256018  13.557  38.555   6.150
 8769POPC   C1A56019  13.634  38.491   6.450
 8769POPC   D2A56020  13.658  38.482   6.750
 8769POPC   C3A56021  13.617  38.491   7.050
 8769POPC   C4A56022  13.659  38.494   7.350
 8769POPC   C1B56023  13.554  38.734   6.450
 8769POPC   C2B56024  13.563  38.727   6.750
 8769POPC   C3B56025  13.535  38.689   7.050
 8769POPC   C4B56026  13.530  38.708   7.350
 8770POPC   NC356027   8.994  30.701   5.550
 8770POPC   PO456028   9.011  30.655   5.850
 8770POPC   GL156029   8.984  30.723   6.150
 8770POPC   GL256030   8.990  30.610   6.150
 8770POPC   C1A56031   8.936  30.702   6.450
 8770POPC   D2A56032   8.945  30.669   6.750
 8770POPC   C3A56033   8.968  30.666   7.050
 8770POPC   C4A56034   8.945  30.674   7.350
 8770POPC   C1B56035   9.013  30.399   6.450
 8770POPC   C2B56036   8.995  30.496   6.750
 8770POPC   C3B56037   9.010  30.440   7.050
 8770POPC   C4B56038   8.968  30.475   7.350
 8771POPC   NC356039   8.991  32.217   5.550
 8771POPC   PO456040   8.976  32.203   5.850
 8771POPC   GL156041   8.932  32.227   6.150
 8771POPC   GL256042   9.072  32.201   6.150
 8771POPC   C1A56043   9.018  32.224   6.450
 8771POPC   D2A56044   8.995  32.246   6.750
 8771POPC   C3A56045   8.990  32.273   7.050
 8771POPC   C4A56046   8.952  32.229   7.350
 8771POPC   C1B56047   9.185  32.202   6.450
 8771POPC   C2B56048   9.239  32.150   6.750
 8771POPC   C3B56049   9.166  32.152   7.050
 8771POPC   C4B56050   9.264  32.233   7.350
 8772POPC   NC356051  19.074  33.055   5.550
 8772POPC   PO456052  19.035  33.051   5.850
 8772POPC   GL156053  19.101  33.039   6.150
 8772POPC   GL256054  19.099  33.145   6.150
 8772POPC   C1A56055  19.075  33.073   6.450
 8772POPC   D2A56056  19.032  32.991   6.750
 8772POPC   C3A56057  19.034  33.031   7.050
 8772POPC   C4A56058  19.083  33.013   7.350
 8772POPC   C1B56059  19.185  33.249   6.450
 8772POPC   C2B56060  19.167  33.262   6.750
 8772POPC   C3B56061  19.217  33.183   7.050
 8772POPC   C4B56062  19.200  33.250   7.350
 8773POPC   NC356063  17.539  28.346   5.550
 8773POPC   PO456064  17.528  28.369   5.850
 8773POPC   GL156065  17.497  28.414   6.150
 8773POPC   GL256066  17.479  28.471   6.150
 8773POPC   C1A56067  17.500  28.410   6.450
 8773POPC   D2A56068  17.509  28.333   6.750
 8773POPC   C3A56069  17.465  28.358   7.050
 8773POPC   C4A56070  17.519  28.333   7.350
 8773POPC   C1B56071  17.478  28.604   6.450
 8773POPC   C2B56072  17.483  28.604   6.750
 8773POPC   C3B56073  17.465  28.598   7.050
 8773POPC   C4B56074  17.469  28.613   7.350
 8774POPC   NC356075  34.543   3.559   5.550
 8774POPC   PO456076  34.567   3.571   5.850
 8774POPC   GL156077  34.592   3.547   6.150
 8774POPC   GL256078  34.595   3.390   6.150
 8774POPC   C1A56079  34.545   3.564   6.450
 8774POPC   D2A56080  34.608   3.501   6.750
 8774POPC   C3A56081  34.622   3.579   7.050
 8774POPC   C4A56082  34.581   3.586   7.350
 8774POPC   C1B56083  34.660   3.327   6.450
 8774POPC   C2B56084  34.625   3.276   6.750
 8774POPC   C3B56085  34.601   3.298   7.050
 8774POPC   C4B56086  34.603   3.346   7.350
 8775POPC   NC356087  43.910  21.339   5.550
 8775POPC   PO456088  43.844  21.381   5.850
 8775POPC   GL156089  43.934  21.432   6.150
 8775POPC   GL256090  43.949  21.487   6.150
 8775POPC   C1A56091  43.896  21.348   6.450
 8775POPC   D2A56092  43.911  21.357   6.750
 8775POPC   C3A56093  43.847  21.374   7.050
 8775POPC   C4A56094  43.841  21.418   7.350
 8775POPC   C1B56095  44.120  21.536   6.450
 8775POPC   C2B56096  44.156  21.463   6.750
 8775POPC   C3B56097  44.092  21.460   7.050
 8775POPC   C4B56098  44.085  21.522   7.350
 8776POPC   NC356099  12.068  40.026   5.550
 8776POPC   PO456100  12.051  39.986   5.850
 8776POPC   GL156101  12.101  40.016   6.150
 8776POPC   GL256102  12.082  39.932   6.150
 8776POPC   C1A56103  12.123  40.026   6.450
 8776POPC   D2A56104  12.086  39.982   6.750
 8776POPC   C3A56105  12.048  40.011   7.050
 8776POPC   C4A56106  12.044  39.984   7.350
 8776POPC   C1B56107  12.170  39.797   6.450
 8776POPC   C2B56108  12.100  39.771   6.750
 8776POPC   C3B56109  12.108  39.772   7.050
 8776POPC   C4B56110  12.159  39.733   7.350
 8777POPC   NC356111  21.392   1.982   5.550
 8777POPC   PO456112  21.347   1.967   5.850
 8777POPC   GL156113  21.428   2.025   6.150
 8777POPC   GL256114  21.254   1.999   6.150
 8777POPC   C1A56115  21.422   1.996   6.450
 8777POPC   D2A56116  21.401   2.026   6.750
 8777POPC   C3A56117  21.391   1.953   7.050
 8777POPC   C4A56118  21.394   2.006   7.350
 8777POPC   C1B56119  21.138   1.944   6.450
 8777POPC   C2B56120  21.144   1.992   6.750
 8777POPC   C3B56121  21.096   1.972   7.050
 8777POPC   C4B56122  21.163   1.941   7.350
 8778POPC   NC356123  23.700   1.211   5.550
 8778POPC   PO456124  23.695   1.224   5.850
 8778POPC   GL156125  23.679   1.171   6.150
 8778POPC   GL256126  23.846   1.176   6.150
 8778POPC   C1A56127  23.727   1.247   6.450
 8778POPC   D2A56128  23.679   1.189   6.750
 8778POPC   C3A56129  23.740   1.173   7.050
 8778POPC   C4A56130  23.671   1.244   7.350
 8778POPC   C1B56131  23.968   1.210   6.450
 8778POPC   C2B56132  24.011   1.214   6.750
 8778POPC   C3B56133  23.955   1.151   7.050
 8778POPC   C4B56134  23.965   1.212   7.350
 8779POPC   NC356135   4.288   1.973   5.550
 8779POPC   PO456136   4.336   1.960   5.850
 8779POPC   GL156137   4.336   2.016   6.150
 8779POPC   GL256138   4.196   2.021   6.150
 8779POPC   C1A56139   4.303   2.002   6.450
 8779POPC   D2A56140   4.325   1.983   6.750
 8779POPC   C3A56141   4.350   2.007   7.050
 8779POPC   C4A56142   4.302   1.972   7.350
 8779POPC   C1B56143   4.084   2.055   6.450
 8779POPC   C2B56144   4.047   2.083   6.750
 8779POPC   C3B56145   4.106   2.077   7.050
 8779POPC   C4B56146   4.082   2.028   7.350
 8780POPC   NC356147  20.658  39.252   5.550
 8780POPC   PO456148  20.566  39.200   5.850
 8780POPC   GL156149  20.587  39.233   6.150
 8780POPC   GL256150  20.712  39.256   6.150
 8780POPC   C1A56151  20.648  39.190   6.450
 8780POPC   D2A56152  20.643  39.209   6.750
 8780POPC   C3A56153  20.588  39.248   7.050
 8780POPC   C4A56154  20.569  39.266   7.350
 8780POPC   C1B56155  20.866  39.304   6.450
 8780POPC   C2B56156  20.807  39.308   6.750
 8780POPC   C3B56157  20.843  39.294   7.050
 8780POPC   C4B56158  20.835  39.297   7.350
 8781POPC   NC356159  43.889  24.490   5.550
 8781POPC   PO456160  43.879  24.473   5.850
 8781POPC   GL156161  43.876  24.507   6.150
 8781POPC   GL256162  44.025  24.501   6.150
 8781POPC   C1A56163  43.884  24.490   6.450
 8781POPC   D2A56164  43.916  24.514   6.750
 8781POPC   C3A56165  43.899  24.489   7.050
 8781POPC   C4A56166  43.879  24.448   7.350
 8781POPC   C1B56167  44.132  24.608   6.450
 8781POPC   C2B56168  44.062  24.596   6.750
 8781POPC   C3B56169  44.091  24.656   7.050
 8781POPC   C4B56170  44.130  24.616   7.350
 8782POPC   NC356171   4.357   1.233   5.550
 8782POPC   PO456172   4.330   1.230   5.850
 8782POPC   GL156173   4.356   1.235   6.150
 8782POPC   GL256174   4.402   1.249   6.150
 8782POPC   C1A56175   4.274   1.194   6.450
 8782POPC   D2A56176   4.301   1.206   6.750
 8782POPC   C3A56177   4.366   1.237   7.050
 8782POPC   C4A56178   4.352   1.193   7.350
 8782POPC   C1B56179   4.567   1.332   6.450
 8782POPC   C2B56180   4.563   1.363   6.750
 8782POPC   C3B56181   4.532   1.345   7.050
 8782POPC   C4B56182   4.578   1.368   7.350
 8783POPC   NC356183  31.442  43.149   5.550
 8783POPC   PO456184  31.427  43.091   5.850
 8783POPC   GL156185  31.497  43.067   6.150
 8783POPC   GL256186  31.398  43.232   6.150
 8783POPC   C1A56187  31.486  43.090   6.450
 8783POPC   D2A56188  31.519  43.074   6.750
 8783POPC   C3A56189  31.506  43.104   7.050
 8783POPC   C4A56190  31.441  43.147   7.350
 8783POPC   C1B56191  31.303  43.350   6.450
 8783POPC   C2B56192  31.325  43.264   6.750
 8783POPC   C3B56193  31.293  43.266   7.050
 8783POPC   C4B56194  31.282  43.295   7.350
 8784POPC   NC356195   4.323  12.086   5.550
 8784POPC   PO456196   4.367  12.074   5.850
 8784POPC   GL156197   4.355  12.046   6.150
 8784POPC   GL256198   4.254  11.993   6.150
 8784POPC   C1A56199   4.309  12.030   6.450
 8784POPC   D2A56200   4.316  12.051   6.750
 8784POPC   C3A56201   4.314  12.115   7.050
 8784POPC   C4A56202   4.336  12.055   7.350
 8784POPC   C1B56203   4.226  11.818   6.450
 8784POPC   C2B56204   4.193  11.884   6.750
 8784POPC   C3B56205   4.249  11.861   7.050
 8784POPC   C4B56206   4.216  11.853   7.350
 8785POPC   NC356207   0.485  15.193   5.550
 8785POPC   PO456208   0.422  15.156   5.850
 8785POPC   GL156209   0.449  15.145   6.150
 8785POPC   GL256210   0.316  15.044   6.150
 8785POPC   C1A56211   0.475  15.171   6.450
 8785POPC   D2A56212   0.482  15.217   6.750
 8785POPC   C3A56213   0.407  15.133   7.050
 8785POPC   C4A56214   0.466  15.149   7.350
 8785POPC   C1B56215   0.262  15.012   6.450
 8785POPC   C2B56216   0.270  14.934   6.750
 8785POPC   C3B56217   0.333  14.991   7.050
 8785POPC   C4B56218   0.323  15.009   7.350
 8786POPC   NC356219  11.257   1.246   5.550
 8786POPC   PO456220  11.282   1.242   5.850
 8786POPC   GL156221  11.276   1.237   6.150
 8786POPC   GL256222  11.340   1.370   6.150
 8786POPC   C1A56223  11.348   1.185   6.450
 8786POPC   D2A56224  11.335   1.260   6.750
 8786POPC   C3A56225  11.299   1.238   7.050
 8786POPC   C4A56226  11.308   1.227   7.350
 8786POPC   C1B56227  11.322   1.480   6.450
 8786POPC   C2B56228  11.333   1.451   6.750
 8786POPC   C3B56229  11.339   1.448   7.050
 8786POPC   C4B56230  11.309   1.498   7.350
 8787POPC   NC356231  40.758  10.538   5.550
 8787POPC   PO456232  40.829  10.538   5.850
 8787POPC   GL156233  40.741  10.496   6.150
 8787POPC   GL256234  40.700  10.622   6.150
 8787POPC   C1A56235  40.746  10.521   6.450
 8787POPC   D2A56236  40.769  10.557   6.750
 8787POPC   C3A56237  40.740  10.561   7.050
 8787POPC   C4A56238  40.799  10.535   7.350
 8787POPC   C1B56239  40.676  10.728   6.450
 8787POPC   C2B56240  40.719  10.797   6.750
 8787POPC   C3B56241  40.629  10.765   7.050
 8787POPC   C4B56242  40.661  10.753   7.350
 8788POPC   NC356243   2.011  23.696   5.550
 8788POPC   PO456244   2.008  23.763   5.850
 8788POPC   GL156245   1.970  23.735   6.150
 8788POPC   GL256246   2.037  23.806   6.150
 8788POPC   C1A56247   2.034  23.672   6.450
 8788POPC   D2A56248   1.941  23.676   6.750
 8788POPC   C3A56249   1.997  23.762   7.050
 8788POPC   C4A56250   2.026  23.761   7.350
 8788POPC   C1B56251   2.126  23.906   6.450
 8788POPC   C2B56252   2.062  23.942   6.750
 8788POPC   C3B56253   2.054  23.937   7.050
 8788POPC   C4B56254   2.104  23.928   7.350
 8789POPC   NC356255  23.717   6.617   5.550
 8789POPC   PO456256  23.738   6.609   5.850
 8789POPC   GL156257  23.745   6.599   6.150
 8789POPC   GL256258  23.729   6.580   6.150
 8789POPC   C1A56259  23.703   6.622   6.450
 8789POPC   D2A56260  23.697   6.685   6.750
 8789POPC   C3A56261  23.764   6.690   7.050
 8789POPC   C4A56262  23.666   6.695   7.350
 8789POPC   C1B56263  23.872   6.404   6.450
 8789POPC   C2B56264  23.803   6.417   6.750
 8789POPC   C3B56265  23.806   6.416   7.050
 8789POPC   C4B56266  23.883   6.454   7.350
 8790POPC   NC356267   8.206  27.544   5.550
 8790POPC   PO456268   8.165  27.614   5.850
 8790POPC   GL156269   8.152  27.568   6.150
 8790POPC   GL256270   8.111  27.483   6.150
 8790POPC   C1A56271   8.187  27.562   6.450
 8790POPC   D2A56272   8.197  27.604   6.750
 8790POPC   C3A56273   8.237  27.583   7.050
 8790POPC   C4A56274   8.151  27.602   7.350
 8790POPC   C1B56275   8.082  27.390   6.450
 8790POPC   C2B56276   8.044  27.424   6.750
 8790POPC   C3B56277   8.079  27.377   7.050
 8790POPC   C4B56278   8.097  27.368   7.350
 8791POPC   NC356279  30.653  11.303   5.550
 8791POPC   PO456280  30.666  11.274   5.850
 8791POPC   GL156281  30.711  11.341   6.150
 8791POPC   GL256282  30.712  11.381   6.150
 8791POPC   C1A56283  30.650  11.316   6.450
 8791POPC   D2A56284  30.684  11.317   6.750
 8791POPC   C3A56285  30.698  11.325   7.050
 8791POPC   C4A56286  30.738  11.266   7.350
 8791POPC   C1B56287  30.733  11.554   6.450
 8791POPC   C2B56288  30.742  11.590   6.750
 8791POPC   C3B56289  30.766  11.558   7.050
 8791POPC   C4B56290  30.691  11.540   7.350
 8792POPC   NC356291   2.806  18.289   5.550
 8792POPC   PO456292   2.802  18.287   5.850
 8792POPC   GL156293   2.814  18.256   6.150
 8792POPC   GL256294   2.892  18.405   6.150
 8792POPC   C1A56295   2.799  18.256   6.450
 8792POPC   D2A56296   2.722  18.319   6.750
 8792POPC   C3A56297   2.799  18.316   7.050
 8792POPC   C4A56298   2.805  18.310   7.350
 8792POPC   C1B56299   2.938  18.478   6.450
 8792POPC   C2B56300   2.956  18.480   6.750
 8792POPC   C3B56301   2.928  18.421   7.050
 8792POPC   C4B56302   2.975  18.473   7.350
 8793POPC   NC356303   7.418  13.635   5.550
 8793POPC   PO456304   7.384  13.616   5.850
 8793POPC   GL156305   7.451  13.593   6.150
 8793POPC   GL256306   7.460  13.471   6.150
 8793POPC   C1A56307   7.453  13.588   6.450
 8793POPC   D2A56308   7.423  13.579   6.750
 8793POPC   C3A56309   7.429  13.663   7.050
 8793POPC   C4A56310   7.457  13.671   7.350
 8793POPC   C1B56311   7.449  13.369   6.450
 8793POPC   C2B56312   7.370  13.377   6.750
 8793POPC   C3B56313   7.383  13.348   7.050
 8793POPC   C4B56314   7.422  13.384   7.350
 8794POPC   NC356315  26.791  35.320   5.550
 8794POPC   PO456316  26.816  35.390   5.850
 8794POPC   GL156317  26.811  35.367   6.150
 8794POPC   GL256318  26.655  35.408   6.150
 8794POPC   C1A56319  26.787  35.352   6.450
 8794POPC   D2A56320  26.799  35.390   6.750
 8794POPC   C3A56321  26.792  35.385   7.050
 8794POPC   C4A56322  26.846  35.383   7.350
 8794POPC   C1B56323  26.592  35.435   6.450
 8794POPC   C2B56324  26.572  35.454   6.750
 8794POPC   C3B56325  26.564  35.472   7.050
 8794POPC   C4B56326  26.609  35.479   7.350
 8795POPC   NC356327  20.587   7.454   5.550
 8795POPC   PO456328  20.651   7.411   5.850
 8795POPC   GL156329  20.576   7.377   6.150
 8795POPC   GL256330  20.493   7.557   6.150
 8795POPC   C1A56331  20.603   7.403   6.450
 8795POPC   D2A56332  20.597   7.382   6.750
 8795POPC   C3A56333  20.569   7.455   7.050
 8795POPC   C4A56334  20.651   7.376   7.350
 8795POPC   C1B56335  20.463   7.602   6.450
 8795POPC   C2B56336  20.417   7.595   6.750
 8795POPC   C3B56337  20.404   7.660   7.050
 8795POPC   C4B56338  20.487   7.623   7.350
 8796POPC   NC356339  22.977   1.211   5.550
 8796POPC   PO456340  22.916   1.197   5.850
 8796POPC   GL156341  22.948   1.184   6.150
 8796POPC   GL256342  22.987   1.289   6.150
 8796POPC   C1A56343  22.967   1.260   6.450
 8796POPC   D2A56344  22.974   1.194   6.750
 8796POPC   C3A56345  22.969   1.247   7.050
 8796POPC   C4A56346  22.981   1.188   7.350
 8796POPC   C1B56347  23.062   1.422   6.450
 8796POPC   C2B56348  23.059   1.414   6.750
 8796POPC   C3B56349  23.094   1.431   7.050
 8796POPC   C4B56350  23.110   1.374   7.350
 8797POPC   NC356351  30.685  19.084   5.550
 8797POPC   PO456352  30.677  19.009   5.850
 8797POPC   GL156353  30.648  19.049   6.150
 8797POPC   GL256354  30.819  18.995   6.150
 8797POPC   C1A56355  30.723  19.069   6.450
 8797POPC   D2A56356  30.705  19.025   6.750
 8797POPC   C3A56357  30.652  19.084   7.050
 8797POPC   C4A56358  30.746  19.031   7.350
 8797POPC   C1B56359  30.954  18.963   6.450
 8797POPC   C2B56360  30.950  18.964   6.750
 8797POPC   C3B56361  30.914  18.989   7.050
 8797POPC   C4B56362  30.948  18.917   7.350
 8798POPC   NC356363  26.050  39.279   5.550
 8798POPC   PO456364  26.010  39.233   5.850
 8798POPC   GL156365  26.007  39.272   6.150
 8798POPC   GL256366  25.869  39.243   6.150
 8798POPC   C1A56367  26.000  39.250   6.450
 8798POPC   D2A56368  26.091  39.264   6.750
 8798POPC   C3A56369  26.037  39.260   7.050
 8798POPC   C4A56370  26.068  39.201   7.350
 8798POPC   C1B56371  25.772  39.264   6.450
 8798POPC   C2B56372  25.780  39.265   6.750
 8798POPC   C3B56373  25.797  39.250   7.050
 8798POPC   C4B56374  25.836  39.296   7.350
 8799POPC   NC356375   0.444  21.361   5.550
 8799POPC   PO456376   0.458  21.380   5.850
 8799POPC   GL156377   0.444  21.342   6.150
 8799POPC   GL256378   0.333  21.320   6.150
 8799POPC   C1A56379   0.460  21.406   6.450
 8799POPC   D2A56380   0.451  21.422   6.750
 8799POPC   C3A56381   0.401  21.410   7.050
 8799POPC   C4A56382   0.396  21.339   7.350
 8799POPC   C1B56383   0.248  21.218   6.450
 8799POPC   C2B56384   0.281  21.212   6.750
 8799POPC   C3B56385   0.192  21.258   7.050
 8799POPC   C4B56386   0.231  21.248   7.350
 8800POPC   NC356387  31.510  31.439   5.550
 8800POPC   PO456388  31.465  31.491   5.850
 8800POPC   GL156389  31.510  31.459   6.150
 8800POPC   GL256390  31.358  31.483   6.150
 8800POPC   C1A56391  31.490  31.497   6.450
 8800POPC   D2A56392  31.433  31.428   6.750
 8800POPC   C3A56393  31.453  31.480   7.050
 8800POPC   C4A56394  31.489  31.426   7.350
 8800POPC   C1B56395  31.200  31.456   6.450
 8800POPC   C2B56396  31.193  31.484   6.750
 8800POPC   C3B56397  31.204  31.422   7.050
 8800POPC   C4B56398  31.192  31.409   7.350
 8801POPC   NC356399  37.662  11.321   5.550
 8801POPC   PO456400  37.704  11.297   5.850
 8801POPC   GL156401  37.729  11.285   6.150
 8801POPC   GL256402  37.559  11.260   6.150
 8801POPC   C1A56403  37.662  11.269   6.450
 8801POPC   D2A56404  37.637  11.256   6.750
 8801POPC   C3A56405  37.685  11.327   7.050
 8801POPC   C4A56406  37.651  11.265   7.350
 8801POPC   C1B56407  37.414  11.265   6.450
 8801POPC   C2B56408  37.474  11.257   6.750
 8801POPC   C3B56409  37.413  11.276   7.050
 8801POPC   C4B56410  37.431  11.235   7.350
 8802POPC   NC356411  33.769  28.395   5.550
 8802POPC   PO456412  33.841  28.363   5.850
 8802POPC   GL156413  33.792  28.327   6.150
 8802POPC   GL256414  33.661  28.273   6.150
 8802POPC   C1A56415  33.771  28.323   6.450
 8802POPC   D2A56416  33.795  28.330   6.750
 8802POPC   C3A56417  33.825  28.324   7.050
 8802POPC   C4A56418  33.828  28.348   7.350
 8802POPC   C1B56419  33.584  28.242   6.450
 8802POPC   C2B56420  33.649  28.177   6.750
 8802POPC   C3B56421  33.580  28.208   7.050
 8802POPC   C4B56422  33.644  28.160   7.350
 8803POPC   NC356423   1.171  40.010   5.550
 8803POPC   PO456424   1.176  40.050   5.850
 8803POPC   GL156425   1.177  39.996   6.150
 8803POPC   GL256426   1.216  40.164   6.150
 8803POPC   C1A56427   1.250  40.046   6.450
 8803POPC   D2A56428   1.168  39.966   6.750
 8803POPC   C3A56429   1.258  40.032   7.050
 8803POPC   C4A56430   1.190  39.974   7.350
 8803POPC   C1B56431   1.169  40.204   6.450
 8803POPC   C2B56432   1.132  40.245   6.750
 8803POPC   C3B56433   1.164  40.235   7.050
 8803POPC   C4B56434   1.171  40.236   7.350
 8804POPC   NC356435  41.590  44.672   5.550
 8804POPC   PO456436  41.542  44.681   5.850
 8804POPC   GL156437  41.517  44.661   6.150
 8804POPC   GL256438  41.470  44.724   6.150
 8804POPC   C1A56439  41.583  44.660   6.450
 8804POPC   D2A56440  41.602  44.697   6.750
 8804POPC   C3A56441  41.591  44.644   7.050
 8804POPC   C4A56442  41.527  44.686   7.350
 8804POPC   C1B56443  41.322  44.748   6.450
 8804POPC   C2B56444  41.265  44.743   6.750
 8804POPC   C3B56445  41.356  44.726   7.050
 8804POPC   C4B56446  41.355  44.676   7.350
 8805POPC   NC356447  19.832  19.822   5.550
 8805POPC   PO456448  19.806  19.811   5.850
 8805POPC   GL156449  19.852  19.857   6.150
 8805POPC   GL256450  19.889  19.722   6.150
 8805POPC   C1A56451  19.793  19.827   6.450
 8805POPC   D2A56452  19.876  19.805   6.750
 8805POPC   C3A56453  19.847  19.880   7.050
 8805POPC   C4A56454  19.874  19.828   7.350
 8805POPC   C1B56455  19.942  19.650   6.450
 8805POPC   C2B56456  19.979  19.618   6.750
 8805POPC   C3B56457  19.991  19.595   7.050
 8805POPC   C4B56458  19.957  19.633   7.350
 8806POPC   NC356459  29.896  43.933   5.550
 8806POPC   PO456460  29.904  43.883   5.850
 8806POPC   GL156461  29.970  43.865   6.150
 8806POPC   GL256462  29.884  43.959   6.150
 8806POPC   C1A56463  29.875  43.913   6.450
 8806POPC   D2A56464  29.881  43.863   6.750
 8806POPC   C3A56465  29.896  43.861   7.050
 8806POPC   C4A56466  29.892  43.930   7.350
 8806POPC   C1B56467  29.823  44.062   6.450
 8806POPC   C2B56468  29.766  44.129   6.750
 8806POPC   C3B56469  29.848  44.109   7.050
 8806POPC   C4B56470  29.784  44.137   7.350
 8807POPC   NC356471   4.366  19.796   5.550
 8807POPC   PO456472   4.296  19.801   5.850
 8807POPC   GL156473   4.295  19.798   6.150
 8807POPC   GL256474   4.205  19.783   6.150
 8807POPC   C1A56475   4.336  19.871   6.450
 8807POPC   D2A56476   4.325  19.788   6.750
 8807POPC   C3A56477   4.284  19.807   7.050
 8807POPC   C4A56478   4.367  19.793   7.350
 8807POPC   C1B56479   4.128  19.735   6.450
 8807POPC   C2B56480   4.050  19.709   6.750
 8807POPC   C3B56481   4.042  19.758   7.050
 8807POPC   C4B56482   4.089  19.714   7.350
 8808POPC   NC356483   5.107  24.488   5.550
 8808POPC   PO456484   5.128  24.491   5.850
 8808POPC   GL156485   5.095  24.450   6.150
 8808POPC   GL256486   5.128  24.334   6.150
 8808POPC   C1A56487   5.107  24.490   6.450
 8808POPC   D2A56488   5.090  24.475   6.750
 8808POPC   C3A56489   5.093  24.473   7.050
 8808POPC   C4A56490   5.079  24.523   7.350
 8808POPC   C1B56491   5.178  24.215   6.450
 8808POPC   C2B56492   5.092  24.204   6.750
 8808POPC   C3B56493   5.153  24.229   7.050
 8808POPC   C4B56494   5.153  24.209   7.350
 8809POPC   NC356495  40.752  20.612   5.550
 8809POPC   PO456496  40.807  20.595   5.850
 8809POPC   GL156497  40.770  20.643   6.150
 8809POPC   GL256498  40.740  20.527   6.150
 8809POPC   C1A56499  40.769  20.617   6.450
 8809POPC   D2A56500  40.816  20.644   6.750
 8809POPC   C3A56501  40.817  20.650   7.050
 8809POPC   C4A56502  40.766  20.623   7.350
 8809POPC   C1B56503  40.737  20.398   6.450
 8809POPC   C2B56504  40.699  20.319   6.750
 8809POPC   C3B56505  40.711  20.347   7.050
 8809POPC   C4B56506  40.690  20.360   7.350
 8810POPC   NC356507   0.483   2.806   5.550
 8810POPC   PO456508   0.482   2.812   5.850
 8810POPC   GL156509   0.449   2.751   6.150
 8810POPC   GL256510   0.339   2.712   6.150
 8810POPC   C1A56511   0.421   2.794   6.450
 8810POPC   D2A56512   0.465   2.760   6.750
 8810POPC   C3A56513   0.423   2.756   7.050
 8810POPC   C4A56514   0.404   2.789   7.350
 8810POPC   C1B56515   0.239   2.575   6.450
 8810POPC   C2B56516   0.243   2.612   6.750
 8810POPC   C3B56517   0.301   2.531   7.050
 8810POPC   C4B56518   0.309   2.546   7.350
 8811POPC   NC356519  18.277  43.893   5.550
 8811POPC   PO456520  18.279  43.861   5.850
 8811POPC   GL156521  18.321  43.925   6.150
 8811POPC   GL256522  18.296  43.965   6.150
 8811POPC   C1A56523  18.274  43.876   6.450
 8811POPC   D2A56524  18.270  43.848   6.750
 8811POPC   C3A56525  18.318  43.928   7.050
 8811POPC   C4A56526  18.282  43.847   7.350
 8811POPC   C1B56527  18.310  44.080   6.450
 8811POPC   C2B56528  18.361  44.150   6.750
 8811POPC   C3B56529  18.334  44.104   7.050
 8811POPC   C4B56530  18.385  44.133   7.350
 8812POPC   NC356531  16.718  21.424   5.550
 8812POPC   PO456532  16.757  21.432   5.850
 8812POPC   GL156533  16.753  21.417   6.150
 8812POPC   GL256534  16.608  21.292   6.150
 8812POPC   C1A56535  16.721  21.411   6.450
 8812POPC   D2A56536  16.778  21.390   6.750
 8812POPC   C3A56537  16.772  21.384   7.050
 8812POPC   C4A56538  16.686  21.338   7.350
 8812POPC   C1B56539  16.609  21.240   6.450
 8812POPC   C2B56540  16.578  21.249   6.750
 8812POPC   C3B56541  16.522  21.245   7.050
 8812POPC   C4B56542  16.547  21.223   7.350
 8813POPC   NC356543  22.177  42.341   5.550
 8813POPC   PO456544  22.176  42.302   5.850
 8813POPC   GL156545  22.199  42.380   6.150
 8813POPC   GL256546  22.095  42.209   6.150
 8813POPC   C1A56547  22.120  42.380   6.450
 8813POPC   D2A56548  22.170  42.320   6.750
 8813POPC   C3A56549  22.150  42.356   7.050
 8813POPC   C4A56550  22.181  42.383   7.350
 8813POPC   C1B56551  22.047  42.103   6.450
 8813POPC   C2B56552  22.115  42.096   6.750
 8813POPC   C3B56553  22.064  42.098   7.050
 8813POPC   C4B56554  22.028  42.150   7.350
 8814POPC   NC356555   0.399   3.500   5.550
 8814POPC   PO456556   0.485   3.574   5.850
 8814POPC   GL156557   0.486   3.506   6.150
 8814POPC   GL256558   0.533   3.446   6.150
 8814POPC   C1A56559   0.427   3.540   6.450
 8814POPC   D2A56560   0.402   3.526   6.750
 8814POPC   C3A56561   0.458   3.558   7.050
 8814POPC   C4A56562   0.400   3.587   7.350
 8814POPC   C1B56563   0.660   3.421   6.450
 8814POPC   C2B56564   0.703   3.425   6.750
 8814POPC   C3B56565   0.627   3.379   7.050
 8814POPC   C4B56566   0.665   3.412   7.350
 8815POPC   NC356567  33.035  30.671   5.550
 8815POPC   PO456568  32.985  30.711   5.850
 8815POPC   GL156569  33.019  30.737   6.150
 8815POPC   GL256570  32.958  30.797   6.150
 8815POPC   C1A56571  33.015  30.654   6.450
 8815POPC   D2A56572  32.985  30.665   6.750
 8815POPC   C3A56573  33.017  30.709   7.050
 8815POPC   C4A56574  33.064  30.728   7.350
 8815POPC   C1B56575  32.917  30.888   6.450
 8815POPC   C2B56576  32.957  30.883   6.750
 8815POPC   C3B56577  32.961  30.891   7.050
 8815POPC   C4B56578  32.893  30.953   7.350
 8816POPC   NC356579  27.577  33.795   5.550
 8816POPC   PO456580  27.565  33.776   5.850
 8816POPC   GL156581  27.563  33.773   6.150
 8816POPC   GL256582  27.694  33.765   6.150
 8816POPC   C1A56583  27.575  33.786   6.450
 8816POPC   D2A56584  27.602  33.817   6.750
 8816POPC   C3A56585  27.555  33.761   7.050
 8816POPC   C4A56586  27.605  33.809   7.350
 8816POPC   C1B56587  27.889  33.827   6.450
 8816POPC   C2B56588  27.862  33.857   6.750
 8816POPC   C3B56589  27.810  33.804   7.050
 8816POPC   C4B56590  27.803  33.803   7.350
 8817POPC   NC356591   3.520   6.686   5.550
 8817POPC   PO456592   3.575   6.647   5.850
 8817POPC   GL156593   3.523   6.669   6.150
 8817POPC   GL256594   3.511   6.741   6.150
 8817POPC   C1A56595   3.543   6.653   6.450
 8817POPC   D2A56596   3.522   6.652   6.750
 8817POPC   C3A56597   3.552   6.677   7.050
 8817POPC   C4A56598   3.543   6.673   7.350
 8817POPC   C1B56599   3.595   6.937   6.450
 8817POPC   C2B56600   3.522   6.917   6.750
 8817POPC   C3B56601   3.612   6.880   7.050
 8817POPC   C4B56602   3.593   6.881   7.350
 8818POPC   NC356603   5.137  43.842   5.550
 8818POPC   PO456604   5.110  43.909   5.850
 8818POPC   GL156605   5.044  43.923   6.150
 8818POPC   GL256606   5.001  43.827   6.150
 8818POPC   C1A56607   5.123  43.909   6.450
 8818POPC   D2A56608   5.057  43.872   6.750
 8818POPC   C3A56609   5.048  43.845   7.050
 8818POPC   C4A56610   5.120  43.854   7.350
 8818POPC   C1B56611   4.948  43.715   6.450
 8818POPC   C2B56612   4.912  43.725   6.750
 8818POPC   C3B56613   4.902  43.695   7.050
 8818POPC   C4B56614   4.888  43.719   7.350
 8819POPC   NC356615  20.628  42.346   5.550
 8819POPC   PO456616  20.597  42.305   5.850
 8819POPC   GL156617  20.624  42.329   6.150
 8819POPC   GL256618  20.443  42.332   6.150
 8819POPC   C1A56619  20.571  42.354   6.450
 8819POPC   D2A56620  20.583  42.350   6.750
 8819POPC   C3A56621  20.561  42.301   7.050
 8819POPC   C4A56622  20.594  42.368   7.350
 8819POPC   C1B56623  20.369  42.329   6.450
 8819POPC   C2B56624  20.330  42.342   6.750
 8819POPC   C3B56625  20.322  42.369   7.050
 8819POPC   C4B56626  20.336  42.360   7.350
 8820POPC   NC356627   1.251  26.837   5.550
 8820POPC   PO456628   1.194  26.793   5.850
 8820POPC   GL156629   1.204  26.851   6.150
 8820POPC   GL256630   1.299  26.938   6.150
 8820POPC   C1A56631   1.170  26.828   6.450
 8820POPC   D2A56632   1.224  26.831   6.750
 8820POPC   C3A56633   1.167  26.859   7.050
 8820POPC   C4A56634   1.216  26.799   7.350
 8820POPC   C1B56635   1.292  27.061   6.450
 8820POPC   C2B56636   1.306  27.069   6.750
 8820POPC   C3B56637   1.298  27.084   7.050
 8820POPC   C4B56638   1.357  27.037   7.350
 8821POPC   NC356639  12.846  43.855   5.550
 8821POPC   PO456640  12.869  43.857   5.850
 8821POPC   GL156641  12.860  43.925   6.150
 8821POPC   GL256642  12.782  43.968   6.150
 8821POPC   C1A56643  12.895  43.909   6.450
 8821POPC   D2A56644  12.819  43.886   6.750
 8821POPC   C3A56645  12.818  43.907   7.050
 8821POPC   C4A56646  12.817  43.859   7.350
 8821POPC   C1B56647  12.722  44.118   6.450
 8821POPC   C2B56648  12.787  44.127   6.750
 8821POPC   C3B56649  12.715  44.160   7.050
 8821POPC   C4B56650  12.800  44.112   7.350
 8822POPC   NC356651  42.320  40.778   5.550
 8822POPC   PO456652  42.323  40.823   5.850
 8822POPC   GL156653  42.300  40.754   6.150
 8822POPC   GL256654  42.505  40.821   6.150
 8822POPC   C1A56655  42.362  40.759   6.450
 8822POPC   D2A56656  42.328  40.749   6.750
 8822POPC   C3A56657  42.320  40.735   7.050
 8822POPC   C4A56658  42.379  40.775   7.350
 8822POPC   C1B56659  42.570  40.772   6.450
 8822POPC   C2B56660  42.579  40.747   6.750
 8822POPC   C3B56661  42.593  40.824   7.050
 8822POPC   C4B56662  42.599  40.815   7.350
 8823POPC   NC356663  22.129  22.897   5.550
 8823POPC   PO456664  22.168  22.953   5.850
 8823POPC   GL156665  22.143  22.986   6.150
 8823POPC   GL256666  22.178  23.063   6.150
 8823POPC   C1A56667  22.149  22.953   6.450
 8823POPC   D2A56668  22.211  22.944   6.750
 8823POPC   C3A56669  22.127  22.986   7.050
 8823POPC   C4A56670  22.179  22.939   7.350
 8823POPC   C1B56671  22.170  23.231   6.450
 8823POPC   C2B56672  22.226  23.176   6.750
 8823POPC   C3B56673  22.210  23.192   7.050
 8823POPC   C4B56674  22.187  23.173   7.350
 8824POPC   NC356675  17.463   4.289   5.550
 8824POPC   PO456676  17.471   4.325   5.850
 8824POPC   GL156677  17.492   4.328   6.150
 8824POPC   GL256678  17.630   4.328   6.150
 8824POPC   C1A56679  17.492   4.336   6.450
 8824POPC   D2A56680  17.478   4.347   6.750
 8824POPC   C3A56681  17.541   4.312   7.050
 8824POPC   C4A56682  17.523   4.273   7.350
 8824POPC   C1B56683  17.751   4.403   6.450
 8824POPC   C2B56684  17.726   4.394   6.750
 8824POPC   C3B56685  17.751   4.357   7.050
 8824POPC   C4B56686  17.747   4.407   7.350
 8825POPC   NC356687  42.343   7.451   5.550
 8825POPC   PO456688  42.381   7.455   5.850
 8825POPC   GL156689  42.356   7.374   6.150
 8825POPC   GL256690  42.471   7.484   6.150
 8825POPC   C1A56691  42.289   7.388   6.450
 8825POPC   D2A56692  42.330   7.471   6.750
 8825POPC   C3A56693  42.337   7.433   7.050
 8825POPC   C4A56694  42.292   7.441   7.350
 8825POPC   C1B56695  42.618   7.452   6.450
 8825POPC   C2B56696  42.590   7.416   6.750
 8825POPC   C3B56697  42.560   7.486   7.050
 8825POPC   C4B56698  42.622   7.411   7.350
 8826POPC   NC356699  36.126  29.134   5.550
 8826POPC   PO456700  36.165  29.171   5.850
 8826POPC   GL156701  36.160  29.130   6.150
 8826POPC   GL256702  36.040  29.059   6.150
 8826POPC   C1A56703  36.132  29.101   6.450
 8826POPC   D2A56704  36.103  29.108   6.750
 8826POPC   C3A56705  36.132  29.160   7.050
 8826POPC   C4A56706  36.082  29.132   7.350
 8826POPC   C1B56707  36.038  28.886   6.450
 8826POPC   C2B56708  36.053  28.900   6.750
 8826POPC   C3B56709  36.016  28.976   7.050
 8826POPC   C4B56710  36.022  28.879   7.350
 8827POPC   NC356711  27.585  19.015   5.550
 8827POPC   PO456712  27.564  19.046   5.850
 8827POPC   GL156713  27.555  19.031   6.150
 8827POPC   GL256714  27.634  19.131   6.150
 8827POPC   C1A56715  27.611  19.011   6.450
 8827POPC   D2A56716  27.622  19.089   6.750
 8827POPC   C3A56717  27.620  19.034   7.050
 8827POPC   C4A56718  27.560  19.018   7.350
 8827POPC   C1B56719  27.728  19.317   6.450
 8827POPC   C2B56720  27.710  19.333   6.750
 8827POPC   C3B56721  27.735  19.250   7.050
 8827POPC   C4B56722  27.701  19.279   7.350
 8828POPC   NC356723   6.688  29.146   5.550
 8828POPC   PO456724   6.693  29.138   5.850
 8828POPC   GL156725   6.632  29.127   6.150
 8828POPC   GL256726   6.784  29.228   6.150
 8828POPC   C1A56727   6.667  29.129   6.450
 8828POPC   D2A56728   6.646  29.194   6.750
 8828POPC   C3A56729   6.667  29.108   7.050
 8828POPC   C4A56730   6.672  29.134   7.350
 8828POPC   C1B56731   6.842  29.274   6.450
 8828POPC   C2B56732   6.791  29.266   6.750
 8828POPC   C3B56733   6.887  29.327   7.050
 8828POPC   C4B56734   6.819  29.337   7.350
 8829POPC   NC356735  29.890  16.757   5.550
 8829POPC   PO456736  29.943  16.757   5.850
 8829POPC   GL156737  29.903  16.682   6.150
 8829POPC   GL256738  30.023  16.799   6.150
 8829POPC   C1A56739  29.904  16.695   6.450
 8829POPC   D2A56740  29.940  16.729   6.750
 8829POPC   C3A56741  29.911  16.765   7.050
 8829POPC   C4A56742  29.908  16.749   7.350
 8829POPC   C1B56743  30.150  16.895   6.450
 8829POPC   C2B56744  30.132  16.922   6.750
 8829POPC   C3B56745  30.070  16.917   7.050
 8829POPC   C4B56746  30.134  16.859   7.350
 8830POPC   NC356747  19.785  40.735   5.550
 8830POPC   PO456748  19.877  40.741   5.850
 8830POPC   GL156749  19.836  40.757   6.150
 8830POPC   GL256750  19.851  40.907   6.150
 8830POPC   C1A56751  19.824  40.805   6.450
 8830POPC   D2A56752  19.791  40.828   6.750
 8830POPC   C3A56753  19.801  40.815   7.050
 8830POPC   C4A56754  19.812  40.828   7.350
 8830POPC   C1B56755  19.846  41.068   6.450
 8830POPC   C2B56756  19.825  41.051   6.750
 8830POPC   C3B56757  19.865  40.991   7.050
 8830POPC   C4B56758  19.869  41.015   7.350
 8831POPC   NC356759  30.676  22.169   5.550
 8831POPC   PO456760  30.704  22.155   5.850
 8831POPC   GL156761  30.671  22.158   6.150
 8831POPC   GL256762  30.596  22.153   6.150
 8831POPC   C1A56763  30.681  22.142   6.450
 8831POPC   D2A56764  30.741  22.148   6.750
 8831POPC   C3A56765  30.653  22.143   7.050
 8831POPC   C4A56766  30.678  22.207   7.350
 8831POPC   C1B56767  30.412  22.175   6.450
 8831POPC   C2B56768  30.415  22.084   6.750
 8831POPC   C3B56769  30.461  22.108   7.050
 8831POPC   C4B56770  30.460  22.151   7.350
 8832POPC   NC356771  16.737  16.704   5.550
 8832POPC   PO456772  16.692  16.688   5.850
 8832POPC   GL156773  16.684  16.731   6.150
 8832POPC   GL256774  16.728  16.869   6.150
 8832POPC   C1A56775  16.684  16.686   6.450
 8832POPC   D2A56776  16.726  16.756   6.750
 8832POPC   C3A56777  16.745  16.706   7.050
 8832POPC   C4A56778  16.731  16.775   7.350
 8832POPC   C1B56779  16.691  16.997   6.450
 8832POPC   C2B56780  16.682  17.011   6.750
 8832POPC   C3B56781  16.697  17.006   7.050
 8832POPC   C4B56782  16.771  17.019   7.350
 8833POPC   NC356783  22.192   4.321   5.550
 8833POPC   PO456784  22.125   4.280   5.850
 8833POPC   GL156785  22.181   4.359   6.150
 8833POPC   GL256786  22.208   4.415   6.150
 8833POPC   C1A56787  22.207   4.301   6.450
 8833POPC   D2A56788  22.136   4.313   6.750
 8833POPC   C3A56789  22.187   4.295   7.050
 8833POPC   C4A56790  22.175   4.358   7.350
 8833POPC   C1B56791  22.333   4.532   6.450
 8833POPC   C2B56792  22.317   4.487   6.750
 8833POPC   C3B56793  22.315   4.563   7.050
 8833POPC   C4B56794  22.256   4.568   7.350
 8834POPC   NC356795   6.646  36.171   5.550
 8834POPC   PO456796   6.691  36.097   5.850
 8834POPC   GL156797   6.677  36.115   6.150
 8834POPC   GL256798   6.741  36.163   6.150
 8834POPC   C1A56799   6.648  36.142   6.450
 8834POPC   D2A56800   6.608  36.120   6.750
 8834POPC   C3A56801   6.651  36.163   7.050
 8834POPC   C4A56802   6.618  36.102   7.350
 8834POPC   C1B56803   6.862  36.262   6.450
 8834POPC   C2B56804   6.818  36.243   6.750
 8834POPC   C3B56805   6.860  36.301   7.050
 8834POPC   C4B56806   6.838  36.276   7.350
 8835POPC   NC356807  35.357  23.743   5.550
 8835POPC   PO456808  35.372  23.751   5.850
 8835POPC   GL156809  35.342  23.724   6.150
 8835POPC   GL256810  35.200  23.694   6.150
 8835POPC   C1A56811  35.355  23.681   6.450
 8835POPC   D2A56812  35.389  23.691   6.750
 8835POPC   C3A56813  35.314  23.750   7.050
 8835POPC   C4A56814  35.368  23.692   7.350
 8835POPC   C1B56815  35.079  23.651   6.450
 8835POPC   C2B56816  35.153  23.645   6.750
 8835POPC   C3B56817  35.111  23.629   7.050
 8835POPC   C4B56818  35.152  23.567   7.350
 8836POPC   NC356819  15.145   2.740   5.550
 8836POPC   PO456820  15.168   2.815   5.850
 8836POPC   GL156821  15.206   2.718   6.150
 8836POPC   GL256822  15.257   2.711   6.150
 8836POPC   C1A56823  15.147   2.735   6.450
 8836POPC   D2A56824  15.182   2.720   6.750
 8836POPC   C3A56825  15.183   2.800   7.050
 8836POPC   C4A56826  15.165   2.734   7.350
 8836POPC   C1B56827  15.373   2.638   6.450
 8836POPC   C2B56828  15.385   2.656   6.750
 8836POPC   C3B56829  15.437   2.693   7.050
 8836POPC   C4B56830  15.431   2.658   7.350
 8837POPC   NC356831  32.219  31.483   5.550
 8837POPC   PO456832  32.221  31.445   5.850
 8837POPC   GL156833  32.280  31.443   6.150
 8837POPC   GL256834  32.118  31.385   6.150
 8837POPC   C1A56835  32.253  31.491   6.450
 8837POPC   D2A56836  32.286  31.493   6.750
 8837POPC   C3A56837  32.201  31.487   7.050
 8837POPC   C4A56838  32.296  31.463   7.350
 8837POPC   C1B56839  32.020  31.352   6.450
 8837POPC   C2B56840  32.092  31.336   6.750
 8837POPC   C3B56841  32.056  31.268   7.050
 8837POPC   C4B56842  32.088  31.271   7.350
 8838POPC   NC356843   3.589   1.952   5.550
 8838POPC   PO456844   3.585   1.975   5.850
 8838POPC   GL156845   3.528   2.021   6.150
 8838POPC   GL256846   3.507   1.930   6.150
 8838POPC   C1A56847   3.577   1.968   6.450
 8838POPC   D2A56848   3.560   1.973   6.750
 8838POPC   C3A56849   3.589   2.007   7.050
 8838POPC   C4A56850   3.524   1.986   7.350
 8838POPC   C1B56851   3.443   1.749   6.450
 8838POPC   C2B56852   3.393   1.782   6.750
 8838POPC   C3B56853   3.458   1.780   7.050
 8838POPC   C4B56854   3.404   1.787   7.350
 8839POPC   NC356855   5.869  12.098   5.550
 8839POPC   PO456856   5.901  12.122   5.850
 8839POPC   GL156857   5.848  12.060   6.150
 8839POPC   GL256858   5.889  11.980   6.150
 8839POPC   C1A56859   5.843  12.042   6.450
 8839POPC   D2A56860   5.888  12.059   6.750
 8839POPC   C3A56861   5.856  12.106   7.050
 8839POPC   C4A56862   5.846  12.041   7.350
 8839POPC   C1B56863   5.877  11.804   6.450
 8839POPC   C2B56864   5.804  11.778   6.750
 8839POPC   C3B56865   5.825  11.864   7.050
 8839POPC   C4B56866   5.825  11.849   7.350
 8840POPC   NC356867  36.091   6.643   5.550
 8840POPC   PO456868  36.166   6.624   5.850
 8840POPC   GL156869  36.131   6.688   6.150
 8840POPC   GL256870  35.976   6.738   6.150
 8840POPC   C1A56871  36.162   6.665   6.450
 8840POPC   D2A56872  36.141   6.617   6.750
 8840POPC   C3A56873  36.119   6.678   7.050
 8840POPC   C4A56874  36.117   6.666   7.350
 8840POPC   C1B56875  35.854   6.753   6.450
 8840POPC   C2B56876  35.880   6.758   6.750
 8840POPC   C3B56877  35.860   6.725   7.050
 8840POPC   C4B56878  35.888   6.796   7.350
 8841POPC   NC356879  29.100  20.597   5.550
 8841POPC   PO456880  29.118  20.637   5.850
 8841POPC   GL156881  29.096  20.612   6.150
 8841POPC   GL256882  29.259  20.537   6.150
 8841POPC   C1A56883  29.106  20.606   6.450
 8841POPC   D2A56884  29.100  20.580   6.750
 8841POPC   C3A56885  29.118  20.561   7.050
 8841POPC   C4A56886  29.138  20.641   7.350
 8841POPC   C1B56887  29.405  20.575   6.450
 8841POPC   C2B56888  29.351  20.567   6.750
 8841POPC   C3B56889  29.384  20.581   7.050
 8841POPC   C4B56890  29.352  20.532   7.350
 8842POPC   NC356891  22.938   6.681   5.550
 8842POPC   PO456892  22.940   6.597   5.850
 8842POPC   GL156893  22.971   6.619   6.150
 8842POPC   GL256894  22.986   6.744   6.150
 8842POPC   C1A56895  22.918   6.633   6.450
 8842POPC   D2A56896  22.897   6.620   6.750
 8842POPC   C3A56897  22.969   6.640   7.050
 8842POPC   C4A56898  22.904   6.619   7.350
 8842POPC   C1B56899  22.991   6.871   6.450
 8842POPC   C2B56900  22.932   6.942   6.750
 8842POPC   C3B56901  22.982   6.908   7.050
 8842POPC   C4B56902  22.933   6.902   7.350
 8843POPC   NC356903  14.417  30.706   5.550
 8843POPC   PO456904  14.426  30.662   5.850
 8843POPC   GL156905  14.382  30.717   6.150
 8843POPC   GL256906  14.465  30.606   6.150
 8843POPC   C1A56907  14.374  30.659   6.450
 8843POPC   D2A56908  14.403  30.735   6.750
 8843POPC   C3A56909  14.427  30.690   7.050
 8843POPC   C4A56910  14.373  30.669   7.350
 8843POPC   C1B56911  14.635  30.520   6.450
 8843POPC   C2B56912  14.617  30.568   6.750
 8843POPC   C3B56913  14.615  30.530   7.050
 8843POPC   C4B56914  14.610  30.572   7.350
 8844POPC   NC356915  33.832   1.966   5.550
 8844POPC   PO456916  33.788   1.961   5.850
 8844POPC   GL156917  33.799   2.020   6.150
 8844POPC   GL256918  33.870   2.096   6.150
 8844POPC   C1A56919  33.834   1.988   6.450
 8844POPC   D2A56920  33.756   1.956   6.750
 8844POPC   C3A56921  33.774   1.990   7.050
 8844POPC   C4A56922  33.830   2.020   7.350
 8844POPC   C1B56923  33.879   2.253   6.450
 8844POPC   C2B56924  33.860   2.194   6.750
 8844POPC   C3B56925  33.891   2.209   7.050
 8844POPC   C4B56926  33.904   2.225   7.350
 8845POPC   NC356927   6.619  24.507   5.550
 8845POPC   PO456928   6.614  24.526   5.850
 8845POPC   GL156929   6.617  24.521   6.150
 8845POPC   GL256930   6.759  24.410   6.150
 8845POPC   C1A56931   6.667  24.446   6.450
 8845POPC   D2A56932   6.624  24.520   6.750
 8845POPC   C3A56933   6.666  24.534   7.050
 8845POPC   C4A56934   6.646  24.456   7.350
 8845POPC   C1B56935   6.863  24.400   6.450
 8845POPC   C2B56936   6.868  24.346   6.750
 8845POPC   C3B56937   6.855  24.339   7.050
 8845POPC   C4B56938   6.917  24.425   7.350
 8846POPC   NC356939  29.176   6.660   5.550
 8846POPC   PO456940  29.153   6.679   5.850
 8846POPC   GL156941  29.103   6.651   6.150
 8846POPC   GL256942  29.085   6.764   6.150
 8846POPC   C1A56943  29.152   6.683   6.450
 8846POPC   D2A56944  29.131   6.685   6.750
 8846POPC   C3A56945  29.186   6.597   7.050
 8846POPC   C4A56946  29.172   6.620   7.350
 8846POPC   C1B56947  28.983   6.812   6.450
 8846POPC   C2B56948  29.046   6.842   6.750
 8846POPC   C3B56949  29.021   6.882   7.050
 8846POPC   C4B56950  28.951   6.852   7.350
 8847POPC   NC356951  34.584  23.700   5.550
 8847POPC   PO456952  34.534  23.762   5.850
 8847POPC   GL156953  34.547  23.740   6.150
 8847POPC   GL256954  34.405  23.764   6.150
 8847POPC   C1A56955  34.577  23.668   6.450
 8847POPC   D2A56956  34.577  23.683   6.750
 8847POPC   C3A56957  34.528  23.694   7.050
 8847POPC   C4A56958  34.564  23.692   7.350
 8847POPC   C1B56959  34.346  23.742   6.450
 8847POPC   C2B56960  34.283  23.751   6.750
 8847POPC   C3B56961  34.305  23.726   7.050
 8847POPC   C4B56962  34.315  23.755   7.350
 8848POPC   NC356963   0.407  23.703   5.550
 8848POPC   PO456964   0.488  23.685   5.850
 8848POPC   GL156965   0.479  23.711   6.150
 8848POPC   GL256966   0.373  23.831   6.150
 8848POPC   C1A56967   0.401  23.699   6.450
 8848POPC   D2A56968   0.470  23.708   6.750
 8848POPC   C3A56969   0.471  23.716   7.050
 8848POPC   C4A56970   0.390  23.752   7.350
 8848POPC   C1B56971   0.430  23.926   6.450
 8848POPC   C2B56972   0.385  23.986   6.750
 8848POPC   C3B56973   0.418  23.941   7.050
 8848POPC   C4B56974   0.395  23.997   7.350
 8849POPC   NC356975  17.538  24.441   5.550
 8849POPC   PO456976  17.519  24.442   5.850
 8849POPC   GL156977  17.467  24.477   6.150
 8849POPC   GL256978  17.548  24.390   6.150
 8849POPC   C1A56979  17.509  24.519   6.450
 8849POPC   D2A56980  17.511  24.468   6.750
 8849POPC   C3A56981  17.509  24.503   7.050
 8849POPC   C4A56982  17.512  24.539   7.350
 8849POPC   C1B56983  17.464  24.201   6.450
 8849POPC   C2B56984  17.475  24.269   6.750
 8849POPC   C3B56985  17.466  24.218   7.050
 8849POPC   C4B56986  17.517  24.260   7.350
 8850POPC   NC356987   7.436  26.853   5.550
 8850POPC   PO456988   7.387  26.815   5.850
 8850POPC   GL156989   7.411  26.854   6.150
 8850POPC   GL256990   7.330  26.853   6.150
 8850POPC   C1A56991   7.461  26.772   6.450
 8850POPC   D2A56992   7.457  26.864   6.750
 8850POPC   C3A56993   7.436  26.785   7.050
 8850POPC   C4A56994   7.399  26.784   7.350
 8850POPC   C1B56995   7.171  26.917   6.450
 8850POPC   C2B56996   7.223  26.967   6.750
 8850POPC   C3B56997   7.148  26.935   7.050
 8850POPC   C4B56998   7.238  26.902   7.350
 8851POPC   NC356999  15.189  43.891   5.550
 8851POPC   PO457000  15.185  43.902   5.850
 8851POPC   GL157001  15.219  43.899   6.150
 8851POPC   GL257002  15.064  43.910   6.150
 8851POPC   C1A57003  15.186  43.861   6.450
 8851POPC   D2A57004  15.136  43.899   6.750
 8851POPC   C3A57005  15.172  43.920   7.050
 8851POPC   C4A57006  15.162  43.895   7.350
 8851POPC   C1B57007  14.951  43.962   6.450
 8851POPC   C2B57008  14.966  43.920   6.750
 8851POPC   C3B57009  14.897  43.924   7.050
 8851POPC   C4B57010  14.965  43.952   7.350
 8852POPC   NC357011  42.341  29.885   5.550
 8852POPC   PO457012  42.336  29.877   5.850
 8852POPC   GL157013  42.373  29.947   6.150
 8852POPC   GL257014  42.237  30.051   6.150
 8852POPC   C1A57015  42.321  29.960   6.450
 8852POPC   D2A57016  42.308  29.910   6.750
 8852POPC   C3A57017  42.369  29.894   7.050
 8852POPC   C4A57018  42.372  29.878   7.350
 8852POPC   C1B57019  42.206  30.101   6.450
 8852POPC   C2B57020  42.166  30.116   6.750
 8852POPC   C3B57021  42.145  30.113   7.050
 8852POPC   C4B57022  42.181  30.123   7.350
 8853POPC   NC357023  39.201   2.766   5.550
 8853POPC   PO457024  39.265   2.762   5.850
 8853POPC   GL157025  39.272   2.814   6.150
 8853POPC   GL257026  39.105   2.808   6.150
 8853POPC   C1A57027  39.229   2.739   6.450
 8853POPC   D2A57028  39.261   2.757   6.750
 8853POPC   C3A57029  39.194   2.756   7.050
 8853POPC   C4A57030  39.187   2.771   7.350
 8853POPC   C1B57031  39.014   2.900   6.450
 8853POPC   C2B57032  39.069   2.873   6.750
 8853POPC   C3B57033  38.977   2.930   7.050
 8853POPC   C4B57034  39.056   2.872   7.350
 8854POPC   NC357035  23.697   3.530   5.550
 8854POPC   PO457036  23.687   3.505   5.850
 8854POPC   GL157037  23.709   3.502   6.150
 8854POPC   GL257038  23.879   3.473   6.150
 8854POPC   C1A57039  23.708   3.560   6.450
 8854POPC   D2A57040  23.726   3.517   6.750
 8854POPC   C3A57041  23.684   3.562   7.050
 8854POPC   C4A57042  23.748   3.552   7.350
 8854POPC   C1B57043  23.951   3.410   6.450
 8854POPC   C2B57044  23.943   3.489   6.750
 8854POPC   C3B57045  23.968   3.479   7.050
 8854POPC   C4B57046  23.996   3.425   7.350
 8855POPC   NC357047  22.896  34.529   5.550
 8855POPC   PO457048  22.952  34.619   5.850
 8855POPC   GL157049  22.892  34.619   6.150
 8855POPC   GL257050  22.795  34.680   6.150
 8855POPC   C1A57051  22.963  34.609   6.450
 8855POPC   D2A57052  22.893  34.584   6.750
 8855POPC   C3A57053  22.948  34.547   7.050
 8855POPC   C4A57054  22.930  34.608   7.350
 8855POPC   C1B57055  22.719  34.719   6.450
 8855POPC   C2B57056  22.769  34.722   6.750
 8855POPC   C3B57057  22.794  34.731   7.050
 8855POPC   C4B57058  22.796  34.756   7.350
 8856POPC   NC357059  37.701  39.960   5.550
 8856POPC   PO457060  37.699  40.054   5.850
 8856POPC   GL157061  37.663  40.005   6.150
 8856POPC   GL257062  37.581  39.927   6.150
 8856POPC   C1A57063  37.666  39.991   6.450
 8856POPC   D2A57064  37.686  39.963   6.750
 8856POPC   C3A57065  37.693  40.007   7.050
 8856POPC   C4A57066  37.694  40.034   7.350
 8856POPC   C1B57067  37.487  39.928   6.450
 8856POPC   C2B57068  37.501  39.915   6.750
 8856POPC   C3B57069  37.415  39.853   7.050
 8856POPC   C4B57070  37.426  39.896   7.350
 8857POPC   NC357071  22.184  13.610   5.550
 8857POPC   PO457072  22.183  13.599   5.850
 8857POPC   GL157073  22.166  13.672   6.150
 8857POPC   GL257074  22.105  13.755   6.150
 8857POPC   C1A57075  22.193  13.579   6.450
 8857POPC   D2A57076  22.188  13.630   6.750
 8857POPC   C3A57077  22.129  13.581   7.050
 8857POPC   C4A57078  22.170  13.619   7.350
 8857POPC   C1B57079  22.057  13.838   6.450
 8857POPC   C2B57080  21.998  13.837   6.750
 8857POPC   C3B57081  22.005  13.806   7.050
 8857POPC   C4B57082  22.015  13.807   7.350
 8858POPC   NC357083  43.153  20.607   5.550
 8858POPC   PO457084  43.097  20.659   5.850
 8858POPC   GL157085  43.134  20.610   6.150
 8858POPC   GL257086  42.963  20.626   6.150
 8858POPC   C1A57087  43.067  20.650   6.450
 8858POPC   D2A57088  43.100  20.578   6.750
 8858POPC   C3A57089  43.144  20.652   7.050
 8858POPC   C4A57090  43.074  20.574   7.350
 8858POPC   C1B57091  42.849  20.596   6.450
 8858POPC   C2B57092  42.861  20.585   6.750
 8858POPC   C3B57093  42.860  20.626   7.050
 8858POPC   C4B57094  42.900  20.655   7.350
 8859POPC   NC357095  22.983  23.726   5.550
 8859POPC   PO457096  22.963  23.726   5.850
 8859POPC   GL157097  22.979  23.706   6.150
 8859POPC   GL257098  22.794  23.725   6.150
 8859POPC   C1A57099  22.933  23.740   6.450
 8859POPC   D2A57100  22.934  23.667   6.750
 8859POPC   C3A57101  22.924  23.762   7.050
 8859POPC   C4A57102  22.926  23.757   7.350
 8859POPC   C1B57103  22.680  23.779   6.450
 8859POPC   C2B57104  22.740  23.779   6.750
 8859POPC   C3B57105  22.739  23.754   7.050
 8859POPC   C4B57106  22.740  23.748   7.350
 8860POPC   NC357107  11.298  16.684   5.550
 8860POPC   PO457108  11.323  16.719   5.850
 8860POPC   GL157109  11.277  16.768   6.150
 8860POPC   GL257110  11.370  16.866   6.150
 8860POPC   C1A57111  11.301  16.691   6.450
 8860POPC   D2A57112  11.258  16.775   6.750
 8860POPC   C3A57113  11.338  16.702   7.050
 8860POPC   C4A57114  11.319  16.778   7.350
 8860POPC   C1B57115  11.383  17.014   6.450
 8860POPC   C2B57116  11.312  16.957   6.750
 8860POPC   C3B57117  11.379  16.931   7.050
 8860POPC   C4B57118  11.307  16.974   7.350
 8861POPC   NC357119   8.153   5.119   5.550
 8861POPC   PO457120   8.149   5.068   5.850
 8861POPC   GL157121   8.198   5.098   6.150
 8861POPC   GL257122   8.237   5.229   6.150
 8861POPC   C1A57123   8.239   5.124   6.450
 8861POPC   D2A57124   8.167   5.077   6.750
 8861POPC   C3A57125   8.215   5.110   7.050
 8861POPC   C4A57126   8.178   5.056   7.350
 8861POPC   C1B57127   8.344   5.331   6.450
 8861POPC   C2B57128   8.392   5.265   6.750
 8861POPC   C3B57129   8.369   5.278   7.050
 8861POPC   C4B57130   8.347   5.336   7.350
 8862POPC   NC357131  23.740   2.036   5.550
 8862POPC   PO457132  23.719   2.001   5.850
 8862POPC   GL157133  23.748   1.983   6.150
 8862POPC   GL257134  23.784   2.132   6.150
 8862POPC   C1A57135  23.763   1.962   6.450
 8862POPC   D2A57136  23.740   1.978   6.750
 8862POPC   C3A57137  23.747   1.953   7.050
 8862POPC   C4A57138  23.708   2.002   7.350
 8862POPC   C1B57139  23.794   2.188   6.450
 8862POPC   C2B57140  23.844   2.231   6.750
 8862POPC   C3B57141  23.806   2.194   7.050
 8862POPC   C4B57142  23.811   2.210   7.350
 8863POPC   NC357143  43.140  15.913   5.550
 8863POPC   PO457144  43.099  15.997   5.850
 8863POPC   GL157145  43.096  15.916   6.150
 8863POPC   GL257146  43.001  15.907   6.150
 8863POPC   C1A57147  43.065  15.927   6.450
 8863POPC   D2A57148  43.067  15.941   6.750
 8863POPC   C3A57149  43.096  15.973   7.050
 8863POPC   C4A57150  43.129  15.985   7.350
 8863POPC   C1B57151  42.905  15.870   6.450
 8863POPC   C2B57152  42.842  15.871   6.750
 8863POPC   C3B57153  42.827  15.907   7.050
 8863POPC   C4B57154  42.829  15.880   7.350
 8864POPC   NC357155   5.085  42.359   5.550
 8864POPC   PO457156   5.081  42.309   5.850
 8864POPC   GL157157   5.143  42.321   6.150
 8864POPC   GL257158   5.177  42.408   6.150
 8864POPC   C1A57159   5.059  42.379   6.450
 8864POPC   D2A57160   5.142  42.355   6.750
 8864POPC   C3A57161   5.090  42.294   7.050
 8864POPC   C4A57162   5.120  42.376   7.350
 8864POPC   C1B57163   5.278  42.427   6.450
 8864POPC   C2B57164   5.273  42.431   6.750
 8864POPC   C3B57165   5.356  42.463   7.050
 8864POPC   C4B57166   5.292  42.480   7.350
 8865POPC   NC357167  22.934  42.326   5.550
 8865POPC   PO457168  22.918  42.365   5.850
 8865POPC   GL157169  22.921  42.347   6.150
 8865POPC   GL257170  22.772  42.246   6.150
 8865POPC   C1A57171  22.926  42.334   6.450
 8865POPC   D2A57172  22.906  42.352   6.750
 8865POPC   C3A57173  22.905  42.339   7.050
 8865POPC   C4A57174  22.896  42.342   7.350
 8865POPC   C1B57175  22.714  42.253   6.450
 8865POPC   C2B57176  22.738  42.232   6.750
 8865POPC   C3B57177  22.745  42.211   7.050
 8865POPC   C4B57178  22.658  42.266   7.350
 8866POPC   NC357179   3.567  22.124   5.550
 8866POPC   PO457180   3.520  22.155   5.850
 8866POPC   GL157181   3.581  22.113   6.150
 8866POPC   GL257182   3.462  22.166   6.150
 8866POPC   C1A57183   3.519  22.139   6.450
 8866POPC   D2A57184   3.557  22.199   6.750
 8866POPC   C3A57185   3.586  22.184   7.050
 8866POPC   C4A57186   3.533  22.165   7.350
 8866POPC   C1B57187   3.297  22.111   6.450
 8866POPC   C2B57188   3.258  22.117   6.750
 8866POPC   C3B57189   3.308  22.175   7.050
 8866POPC   C4B57190   3.329  22.136   7.350
 8867POPC   NC357191  29.917  20.561   5.550
 8867POPC   PO457192  29.939  20.572   5.850
 8867POPC   GL157193  29.919  20.582   6.150
 8867POPC   GL257194  29.858  20.693   6.150
 8867POPC   C1A57195  29.935  20.606   6.450
 8867POPC   D2A57196  29.921  20.659   6.750
 8867POPC   C3A57197  29.957  20.645   7.050
 8867POPC   C4A57198  29.934  20.653   7.350
 8867POPC   C1B57199  29.908  20.850   6.450
 8867POPC   C2B57200  29.914  20.808   6.750
 8867POPC   C3B57201  29.891  20.814   7.050
 8867POPC   C4B57202  29.906  20.814   7.350
 8868POPC   NC357203  29.103  12.050   5.550
 8868POPC   PO457204  29.161  12.102   5.850
 8868POPC   GL157205  29.132  12.091   6.150
 8868POPC   GL257206  29.028  12.160   6.150
 8868POPC   C1A57207  29.138  12.112   6.450
 8868POPC   D2A57208  29.172  12.107   6.750
 8868POPC   C3A57209  29.184  12.094   7.050
 8868POPC   C4A57210  29.178  12.035   7.350
 8868POPC   C1B57211  28.885  12.198   6.450
 8868POPC   C2B57212  28.932  12.135   6.750
 8868POPC   C3B57213  28.962  12.167   7.050
 8868POPC   C4B57214  28.952  12.160   7.350
 8869POPC   NC357215  36.131  17.477   5.550
 8869POPC   PO457216  36.134  17.547   5.850
 8869POPC   GL157217  36.118  17.472   6.150
 8869POPC   GL257218  36.222  17.506   6.150
 8869POPC   C1A57219  36.128  17.472   6.450
 8869POPC   D2A57220  36.152  17.499   6.750
 8869POPC   C3A57221  36.086  17.549   7.050
 8869POPC   C4A57222  36.162  17.457   7.350
 8869POPC   C1B57223  36.367  17.635   6.450
 8869POPC   C2B57224  36.310  17.643   6.750
 8869POPC   C3B57225  36.388  17.577   7.050
 8869POPC   C4B57226  36.377  17.628   7.350
 8870POPC   NC357227  44.627  41.561   5.550
 8870POPC   PO457228  44.674  41.602   5.850
 8870POPC   GL157229  44.652  41.581   6.150
 8870POPC   GL257230  44.727  41.408   6.150
 8870POPC   C1A57231  44.708  41.566   6.450
 8870POPC   D2A57232  44.695  41.581   6.750
 8870POPC   C3A57233  44.630  41.542   7.050
 8870POPC   C4A57234  44.614  41.585   7.350
 8870POPC   C1B57235  44.721  41.278   6.450
 8870POPC   C2B57236  44.758  41.320   6.750
 8870POPC   C3B57237  44.730  41.280   7.050
 8870POPC   C4B57238  44.756  41.358   7.350
 8871POPC   NC357239   7.389  19.794   5.550
 8871POPC   PO457240   7.391  19.875   5.850
 8871POPC   GL157241   7.435  19.867   6.150
 8871POPC   GL257242   7.304  19.887   6.150
 8871POPC   C1A57243   7.441  19.848   6.450
 8871POPC   D2A57244   7.465  19.843   6.750
 8871POPC   C3A57245   7.413  19.871   7.050
 8871POPC   C4A57246   7.427  19.833   7.350
 8871POPC   C1B57247   7.291  20.072   6.450
 8871POPC   C2B57248   7.279  20.032   6.750
 8871POPC   C3B57249   7.311  20.060   7.050
 8871POPC   C4B57250   7.268  20.011   7.350
 8872POPC   NC357251  31.429  14.376   5.550
 8872POPC   PO457252  31.434  14.417   5.850
 8872POPC   GL157253  31.454  14.389   6.150
 8872POPC   GL257254  31.507  14.237   6.150
 8872POPC   C1A57255  31.511  14.376   6.450
 8872POPC   D2A57256  31.480  14.412   6.750
 8872POPC   C3A57257  31.474  14.446   7.050
 8872POPC   C4A57258  31.455  14.436   7.350
 8872POPC   C1B57259  31.479  14.192   6.450
 8872POPC   C2B57260  31.547  14.186   6.750
 8872POPC   C3B57261  31.461  14.154   7.050
 8872POPC   C4B57262  31.495  14.128   7.350
 8873POPC   NC357263  40.032  43.115   5.550
 8873POPC   PO457264  40.009  43.147   5.850
 8873POPC   GL157265  40.006  43.086   6.150
 8873POPC   GL257266  39.902  42.967   6.150
 8873POPC   C1A57267  40.022  43.155   6.450
 8873POPC   D2A57268  39.975  43.113   6.750
 8873POPC   C3A57269  40.013  43.091   7.050
 8873POPC   C4A57270  39.995  43.109   7.350
 8873POPC   C1B57271  39.861  42.936   6.450
 8873POPC   C2B57272  39.870  42.916   6.750
 8873POPC   C3B57273  39.875  42.925   7.050
 8873POPC   C4B57274  39.882  42.865   7.350
 8874POPC   NC357275  40.747  23.679   5.550
 8874POPC   PO457276  40.739  23.708   5.850
 8874POPC   GL157277  40.784  23.695   6.150
 8874POPC   GL257278  40.729  23.829   6.150
 8874POPC   C1A57279  40.747  23.674   6.450
 8874POPC   D2A57280  40.765  23.705   6.750
 8874POPC   C3A57281  40.777  23.685   7.050
 8874POPC   C4A57282  40.735  23.685   7.350
 8874POPC   C1B57283  40.581  23.912   6.450
 8874POPC   C2B57284  40.591  23.891   6.750
 8874POPC   C3B57285  40.620  23.941   7.050
 8874POPC   C4B57286  40.597  23.885   7.350
 8875POPC   NC357287   8.205   2.016   5.550
 8875POPC   PO457288   8.154   2.020   5.850
 8875POPC   GL157289   8.213   1.969   6.150
 8875POPC   GL257290   8.340   1.971   6.150
 8875POPC   C1A57291   8.162   1.952   6.450
 8875POPC   D2A57292   8.211   2.007   6.750
 8875POPC   C3A57293   8.243   1.968   7.050
 8875POPC   C4A57294   8.200   2.015   7.350
 8875POPC   C1B57295   8.462   1.959   6.450
 8875POPC   C2B57296   8.496   2.004   6.750
 8875POPC   C3B57297   8.458   1.924   7.050
 8875POPC   C4B57298   8.409   1.923   7.350
 8876POPC   NC357299  39.248  13.671   5.550
 8876POPC   PO457300  39.250  13.660   5.850
 8876POPC   GL157301  39.235  13.627   6.150
 8876POPC   GL257302  39.135  13.581   6.150
 8876POPC   C1A57303  39.205  13.619   6.450
 8876POPC   D2A57304  39.202  13.610   6.750
 8876POPC   C3A57305  39.249  13.595   7.050
 8876POPC   C4A57306  39.251  13.670   7.350
 8876POPC   C1B57307  38.981  13.453   6.450
 8876POPC   C2B57308  39.012  13.491   6.750
 8876POPC   C3B57309  39.014  13.521   7.050
 8876POPC   C4B57310  39.050  13.491   7.350
 8877POPC   NC357311  27.594  26.013   5.550
 8877POPC   PO457312  27.599  26.077   5.850
 8877POPC   GL157313  27.578  25.999   6.150
 8877POPC   GL257314  27.660  26.161   6.150
 8877POPC   C1A57315  27.615  25.993   6.450
 8877POPC   D2A57316  27.628  25.996   6.750
 8877POPC   C3A57317  27.592  26.005   7.050
 8877POPC   C4A57318  27.621  26.054   7.350
 8877POPC   C1B57319  27.627  26.312   6.450
 8877POPC   C2B57320  27.633  26.277   6.750
 8877POPC   C3B57321  27.617  26.303   7.050
 8877POPC   C4B57322  27.610  26.299   7.350
 8878POPC   NC357323  22.901  40.767   5.550
 8878POPC   PO457324  22.913  40.780   5.850
 8878POPC   GL157325  22.946  40.737   6.150
 8878POPC   GL257326  22.908  40.613   6.150
 8878POPC   C1A57327  22.975  40.793   6.450
 8878POPC   D2A57328  22.958  40.751   6.750
 8878POPC   C3A57329  22.979  40.747   7.050
 8878POPC   C4A57330  22.983  40.754   7.350
 8878POPC   C1B57331  22.925  40.485   6.450
 8878POPC   C2B57332  22.906  40.497   6.750
 8878POPC   C3B57333  22.898  40.511   7.050
 8878POPC   C4B57334  22.937  40.573   7.350
 8879POPC   NC357335  42.356   0.478   5.550
 8879POPC   PO457336  42.289   0.431   5.850
 8879POPC   GL157337  42.325   0.482   6.150
 8879POPC   GL257338  42.469   0.380   6.150
 8879POPC   C1A57339  42.347   0.477   6.450
 8879POPC   D2A57340  42.325   0.441   6.750
 8879POPC   C3A57341  42.292   0.449   7.050
 8879POPC   C4A57342  42.345   0.415   7.350
 8879POPC   C1B57343  42.565   0.260   6.450
 8879POPC   C2B57344  42.499   0.335   6.750
 8879POPC   C3B57345  42.591   0.308   7.050
 8879POPC   C4B57346  42.579   0.322   7.350
 8880POPC   NC357347  36.854  26.000   5.550
 8880POPC   PO457348  36.919  26.081   5.850
 8880POPC   GL157349  36.944  26.036   6.150
 8880POPC   GL257350  36.929  25.942   6.150
 8880POPC   C1A57351  36.875  26.038   6.450
 8880POPC   D2A57352  36.864  26.081   6.750
 8880POPC   C3A57353  36.945  26.001   7.050
 8880POPC   C4A57354  36.895  26.022   7.350
 8880POPC   C1B57355  36.966  25.801   6.450
 8880POPC   C2B57356  36.930  25.744   6.750
 8880POPC   C3B57357  36.900  25.806   7.050
 8880POPC   C4B57358  36.895  25.789   7.350
 8881POPC   NC357359  25.258  42.324   5.550
 8881POPC   PO457360  25.314  42.348   5.850
 8881POPC   GL157361  25.226  42.342   6.150
 8881POPC   GL257362  25.355  42.290   6.150
 8881POPC   C1A57363  25.268  42.300   6.450
 8881POPC   D2A57364  25.292  42.377   6.750
 8881POPC   C3A57365  25.274  42.375   7.050
 8881POPC   C4A57366  25.237  42.351   7.350
 8881POPC   C1B57367  25.551  42.296   6.450
 8881POPC   C2B57368  25.470  42.246   6.750
 8881POPC   C3B57369  25.515  42.265   7.050
 8881POPC   C4B57370  25.480  42.229   7.350
 8882POPC   NC357371  19.857  10.555   5.550
 8882POPC   PO457372  19.815  10.498   5.850
 8882POPC   GL157373  19.865  10.479   6.150
 8882POPC   GL257374  19.865  10.607   6.150
 8882POPC   C1A57375  19.837  10.511   6.450
 8882POPC   D2A57376  19.850  10.562   6.750
 8882POPC   C3A57377  19.812  10.481   7.050
 8882POPC   C4A57378  19.801  10.514   7.350
 8882POPC   C1B57379  20.008  10.678   6.450
 8882POPC   C2B57380  19.993  10.702   6.750
 8882POPC   C3B57381  19.941  10.716   7.050
 8882POPC   C4B57382  19.982  10.749   7.350
 8883POPC   NC357383  37.636  39.207   5.550
 8883POPC   PO457384  37.652  39.265   5.850
 8883POPC   GL157385  37.665  39.189   6.150
 8883POPC   GL257386  37.763  39.335   6.150
 8883POPC   C1A57387  37.693  39.183   6.450
 8883POPC   D2A57388  37.646  39.217   6.750
 8883POPC   C3A57389  37.662  39.237   7.050
 8883POPC   C4A57390  37.703  39.240   7.350
 8883POPC   C1B57391  37.898  39.382   6.450
 8883POPC   C2B57392  37.869  39.390   6.750
 8883POPC   C3B57393  37.868  39.339   7.050
 8883POPC   C4B57394  37.870  39.376   7.350
 8884POPC   NC357395  10.512   5.091   5.550
 8884POPC   PO457396  10.564   5.068   5.850
 8884POPC   GL157397  10.521   5.066   6.150
 8884POPC   GL257398  10.372   5.112   6.150
 8884POPC   C1A57399  10.539   5.048   6.450
 8884POPC   D2A57400  10.561   5.083   6.750
 8884POPC   C3A57401  10.571   5.088   7.050
 8884POPC   C4A57402  10.511   5.127   7.350
 8884POPC   C1B57403  10.268   5.029   6.450
 8884POPC   C2B57404  10.301   5.047   6.750
 8884POPC   C3B57405  10.262   5.077   7.050
 8884POPC   C4B57406  10.293   5.084   7.350
 8885POPC   NC357407  31.496  21.382   5.550
 8885POPC   PO457408  31.499  21.367   5.850
 8885POPC   GL157409  31.454  21.341   6.150
 8885POPC   GL257410  31.348  21.374   6.150
 8885POPC   C1A57411  31.507  21.400   6.450
 8885POPC   D2A57412  31.492  21.397   6.750
 8885POPC   C3A57413  31.487  21.405   7.050
 8885POPC   C4A57414  31.506  21.345   7.350
 8885POPC   C1B57415  31.217  21.362   6.450
 8885POPC   C2B57416  31.246  21.381   6.750
 8885POPC   C3B57417  31.189  21.351   7.050
 8885POPC   C4B57418  31.268  21.302   7.350
 8886POPC   NC357419   8.165  19.800   5.550
 8886POPC   PO457420   8.208  19.857   5.850
 8886POPC   GL157421   8.240  19.840   6.150
 8886POPC   GL257422   8.327  19.807   6.150
 8886POPC   C1A57423   8.169  19.788   6.450
 8886POPC   D2A57424   8.207  19.877   6.750
 8886POPC   C3A57425   8.231  19.856   7.050
 8886POPC   C4A57426   8.244  19.790   7.350
 8886POPC   C1B57427   8.405  19.792   6.450
 8886POPC   C2B57428   8.403  19.749   6.750
 8886POPC   C3B57429   8.414  19.778   7.050
 8886POPC   C4B57430   8.460  19.758   7.350
 8887POPC   NC357431  39.999  38.412   5.550
 8887POPC   PO457432  39.997  38.497   5.850
 8887POPC   GL157433  40.020  38.462   6.150
 8887POPC   GL257434  40.048  38.358   6.150
 8887POPC   C1A57435  39.995  38.460   6.450
 8887POPC   D2A57436  40.039  38.441   6.750
 8887POPC   C3A57437  39.980  38.413   7.050
 8887POPC   C4A57438  40.055  38.502   7.350
 8887POPC   C1B57439  40.028  38.203   6.450
 8887POPC   C2B57440  39.972  38.188   6.750
 8887POPC   C3B57441  39.980  38.180   7.050
 8887POPC   C4B57442  39.998  38.172   7.350
 8888POPC   NC357443  37.680  37.722   5.550
 8888POPC   PO457444  37.727  37.645   5.850
 8888POPC   GL157445  37.630  37.634   6.150
 8888POPC   GL257446  37.565  37.702   6.150
 8888POPC   C1A57447  37.638  37.715   6.450
 8888POPC   D2A57448  37.683  37.706   6.750
 8888POPC   C3A57449  37.657  37.694   7.050
 8888POPC   C4A57450  37.673  37.658   7.350
 8888POPC   C1B57451  37.474  37.803   6.450
 8888POPC   C2B57452  37.452  37.811   6.750
 8888POPC   C3B57453  37.477  37.799   7.050
 8888POPC   C4B57454  37.502  37.791   7.350
 8889POPC   NC357455  18.306  41.511   5.550
 8889POPC   PO457456  18.326  41.530   5.850
 8889POPC   GL157457  18.292  41.568   6.150
 8889POPC   GL257458  18.215  41.692   6.150
 8889POPC   C1A57459  18.251  41.583   6.450
 8889POPC   D2A57460  18.289  41.591   6.750
 8889POPC   C3A57461  18.316  41.526   7.050
 8889POPC   C4A57462  18.278  41.524   7.350
 8889POPC   C1B57463  18.165  41.742   6.450
 8889POPC   C2B57464  18.182  41.810   6.750
 8889POPC   C3B57465  18.170  41.813   7.050
 8889POPC   C4B57466  18.158  41.742   7.350
 8890POPC   NC357467  29.938  36.951   5.550
 8890POPC   PO457468  29.945  36.877   5.850
 8890POPC   GL157469  29.928  36.887   6.150
 8890POPC   GL257470  30.012  36.959   6.150
 8890POPC   C1A57471  29.880  36.876   6.450
 8890POPC   D2A57472  29.942  36.936   6.750
 8890POPC   C3A57473  29.933  36.917   7.050
 8890POPC   C4A57474  29.970  36.935   7.350
 8890POPC   C1B57475  30.202  36.915   6.450
 8890POPC   C2B57476  30.195  36.946   6.750
 8890POPC   C3B57477  30.147  36.989   7.050
 8890POPC   C4B57478  30.160  36.908   7.350
 8891POPC   NC357479   7.417  44.676   5.550
 8891POPC   PO457480   7.437  44.635   5.850
 8891POPC   GL157481   7.372  44.652   6.150
 8891POPC   GL257482   7.273  44.689   6.150
 8891POPC   C1A57483   7.373  44.615   6.450
 8891POPC   D2A57484   7.406  44.707   6.750
 8891POPC   C3A57485   7.425  44.710   7.050
 8891POPC   C4A57486   7.371  44.662   7.350
 8891POPC   C1B57487   7.129  44.668   6.450
 8891POPC   C2B57488   7.193  44.687   6.750
 8891POPC   C3B57489   7.179  44.637   7.050
 8891POPC   C4B57490   7.149  44.679   7.350
 8892POPC   NC357491  16.686  32.979   5.550
 8892POPC   PO457492  16.700  33.026   5.850
 8892POPC   GL157493  16.713  33.067   6.150
 8892POPC   GL257494  16.734  33.131   6.150
 8892POPC   C1A57495  16.725  32.976   6.450
 8892POPC   D2A57496  16.767  33.012   6.750
 8892POPC   C3A57497  16.739  33.051   7.050
 8892POPC   C4A57498  16.763  33.032   7.350
 8892POPC   C1B57499  16.680  33.288   6.450
 8892POPC   C2B57500  16.677  33.271   6.750
 8892POPC   C3B57501  16.742  33.293   7.050
 8892POPC   C4B57502  16.701  33.288   7.350
 8893POPC   NC357503   5.128   8.176   5.550
 8893POPC   PO457504   5.121   8.161   5.850
 8893POPC   GL157505   5.071   8.170   6.150
 8893POPC   GL257506   5.159   8.113   6.150
 8893POPC   C1A57507   5.100   8.149   6.450
 8893POPC   D2A57508   5.110   8.219   6.750
 8893POPC   C3A57509   5.093   8.163   7.050
 8893POPC   C4A57510   5.096   8.233   7.350
 8893POPC   C1B57511   5.245   8.015   6.450
 8893POPC   C2B57512   5.268   8.047   6.750
 8893POPC   C3B57513   5.315   8.033   7.050
 8893POPC   C4B57514   5.301   8.001   7.350
 8894POPC   NC357515  42.349   3.563   5.550
 8894POPC   PO457516  42.319   3.554   5.850
 8894POPC   GL157517  42.359   3.535   6.150
 8894POPC   GL257518  42.444   3.430   6.150
 8894POPC   C1A57519  42.333   3.546   6.450
 8894POPC   D2A57520  42.377   3.527   6.750
 8894POPC   C3A57521  42.285   3.588   7.050
 8894POPC   C4A57522  42.312   3.589   7.350
 8894POPC   C1B57523  42.493   3.348   6.450
 8894POPC   C2B57524  42.539   3.377   6.750
 8894POPC   C3B57525  42.503   3.413   7.050
 8894POPC   C4B57526  42.485   3.357   7.350
 8895POPC   NC357527  27.566  36.129   5.550
 8895POPC   PO457528  27.562  36.126   5.850
 8895POPC   GL157529  27.613  36.153   6.150
 8895POPC   GL257530  27.549  36.253   6.150
 8895POPC   C1A57531  27.569  36.090   6.450
 8895POPC   D2A57532  27.549  36.121   6.750
 8895POPC   C3A57533  27.632  36.157   7.050
 8895POPC   C4A57534  27.571  36.128   7.350
 8895POPC   C1B57535  27.480  36.348   6.450
 8895POPC   C2B57536  27.459  36.277   6.750
 8895POPC   C3B57537  27.434  36.283   7.050
 8895POPC   C4B57538  27.418  36.283   7.350
 8896POPC   NC357539   2.018   2.748   5.550
 8896POPC   PO457540   1.942   2.796   5.850
 8896POPC   GL157541   2.039   2.773   6.150
 8896POPC   GL257542   1.992   2.643   6.150
 8896POPC   C1A57543   1.976   2.730   6.450
 8896POPC   D2A57544   2.015   2.749   6.750
 8896POPC   C3A57545   1.981   2.746   7.050
 8896POPC   C4A57546   1.985   2.737   7.350
 8896POPC   C1B57547   1.930   2.540   6.450
 8896POPC   C2B57548   1.932   2.488   6.750
 8896POPC   C3B57549   1.966   2.508   7.050
 8896POPC   C4B57550   1.972   2.551   7.350
 8897POPC   NC357551  44.678  43.090   5.550
 8897POPC   PO457552  44.624  43.088   5.850
 8897POPC   GL157553  44.699  43.127   6.150
 8897POPC   GL257554  44.500  43.074   6.150
 8897POPC   C1A57555  44.668  43.086   6.450
 8897POPC   D2A57556  44.680  43.132   6.750
 8897POPC   C3A57557  44.664  43.101   7.050
 8897POPC   C4A57558  44.681  43.143   7.350
 8897POPC   C1B57559  44.419  43.093   6.450
 8897POPC   C2B57560  44.380  43.138   6.750
 8897POPC   C3B57561  44.389  43.176   7.050
 8897POPC   C4B57562  44.383  43.116   7.350
 8898POPC   NC357563  44.702   8.229   5.550
 8898POPC   PO457564  44.703   8.154   5.850
 8898POPC   GL157565  44.627   8.207   6.150
 8898POPC   GL257566  44.678   8.094   6.150
 8898POPC   C1A57567  44.643   8.165   6.450
 8898POPC   D2A57568  44.677   8.188   6.750
 8898POPC   C3A57569  44.681   8.179   7.050
 8898POPC   C4A57570  44.654   8.223   7.350
 8898POPC   C1B57571  44.740   7.929   6.450
 8898POPC   C2B57572  44.701   7.992   6.750
 8898POPC   C3B57573  44.787   7.944   7.050
 8898POPC   C4B57574  44.732   7.983   7.350
 8899POPC   NC357575  38.445  20.562   5.550
 8899POPC   PO457576  38.497  20.656   5.850
 8899POPC   GL157577  38.424  20.652   6.150
 8899POPC   GL257578  38.428  20.532   6.150
 8899POPC   C1A57579  38.436  20.643   6.450
 8899POPC   D2A57580  38.444  20.564   6.750
 8899POPC   C3A57581  38.481  20.649   7.050
 8899POPC   C4A57582  38.478  20.638   7.350
 8899POPC   C1B57583  38.503  20.328   6.450
 8899POPC   C2B57584  38.457  20.317   6.750
 8899POPC   C3B57585  38.532  20.345   7.050
 8899POPC   C4B57586  38.494  20.390   7.350
 8900POPC   NC357587  40.055   8.996   5.550
 8900POPC   PO457588  39.966   9.022   5.850
 8900POPC   GL157589  39.992   8.964   6.150
 8900POPC   GL257590  39.928   8.832   6.150
 8900POPC   C1A57591  39.965   8.936   6.450
 8900POPC   D2A57592  39.994   8.998   6.750
 8900POPC   C3A57593  40.026   9.008   7.050
 8900POPC   C4A57594  40.033   8.938   7.350
 8900POPC   C1B57595  39.862   8.727   6.450
 8900POPC   C2B57596  39.832   8.776   6.750
 8900POPC   C3B57597  39.871   8.760   7.050
 8900POPC   C4B57598  39.874   8.784   7.350
 8901POPC   NC357599  36.110  14.433   5.550
 8901POPC   PO457600  36.079  14.405   5.850
 8901POPC   GL157601  36.165  14.362   6.150
 8901POPC   GL257602  36.057  14.415   6.150
 8901POPC   C1A57603  36.085  14.448   6.450
 8901POPC   D2A57604  36.166  14.441   6.750
 8901POPC   C3A57605  36.168  14.406   7.050
 8901POPC   C4A57606  36.150  14.393   7.350
 8901POPC   C1B57607  35.849  14.425   6.450
 8901POPC   C2B57608  35.850  14.437   6.750
 8901POPC   C3B57609  35.837  14.445   7.050
 8901POPC   C4B57610  35.934  14.482   7.350
 8902POPC   NC357611  36.901  13.675   5.550
 8902POPC   PO457612  36.883  13.667   5.850
 8902POPC   GL157613  36.894  13.667   6.150
 8902POPC   GL257614  36.957  13.551   6.150
 8902POPC   C1A57615  36.892  13.602   6.450
 8902POPC   D2A57616  36.890  13.643   6.750
 8902POPC   C3A57617  36.895  13.626   7.050
 8902POPC   C4A57618  36.935  13.662   7.350
 8902POPC   C1B57619  36.950  13.418   6.450
 8902POPC   C2B57620  36.966  13.381   6.750
 8902POPC   C3B57621  36.961  13.393   7.050
 8902POPC   C4B57622  36.982  13.409   7.350
 8903POPC   NC357623  42.332  11.251   5.550
 8903POPC   PO457624  42.360  11.280   5.850
 8903POPC   GL157625  42.338  11.266   6.150
 8903POPC   GL257626  42.451  11.345   6.150
 8903POPC   C1A57627  42.332  11.257   6.450
 8903POPC   D2A57628  42.312  11.319   6.750
 8903POPC   C3A57629  42.306  11.287   7.050
 8903POPC   C4A57630  42.313  11.286   7.350
 8903POPC   C1B57631  42.559  11.486   6.450
 8903POPC   C2B57632  42.522  11.517   6.750
 8903POPC   C3B57633  42.540  11.503   7.050
 8903POPC   C4B57634  42.505  11.486   7.350
 8904POPC   NC357635  36.916  18.321   5.550
 8904POPC   PO457636  36.937  18.279   5.850
 8904POPC   GL157637  36.857  18.239   6.150
 8904POPC   GL257638  36.862  18.353   6.150
 8904POPC   C1A57639  36.931  18.296   6.450
 8904POPC   D2A57640  36.924  18.264   6.750
 8904POPC   C3A57641  36.942  18.325   7.050
 8904POPC   C4A57642  36.925  18.246   7.350
 8904POPC   C1B57643  36.781  18.439   6.450
 8904POPC   C2B57644  36.784  18.481   6.750
 8904POPC   C3B57645  36.709  18.491   7.050
 8904POPC   C4B57646  36.792  18.449   7.350
 8905POPC   NC357647  19.099  17.472   5.550
 8905POPC   PO457648  19.065  17.548   5.850
 8905POPC   GL157649  19.064  17.503   6.150
 8905POPC   GL257650  18.981  17.571   6.150
 8905POPC   C1A57651  19.094  17.481   6.450
 8905POPC   D2A57652  19.025  17.525   6.750
 8905POPC   C3A57653  19.083  17.515   7.050
 8905POPC   C4A57654  19.018  17.523   7.350
 8905POPC   C1B57655  18.811  17.612   6.450
 8905POPC   C2B57656  18.823  17.608   6.750
 8905POPC   C3B57657  18.833  17.620   7.050
 8905POPC   C4B57658  18.823  17.621   7.350
 8906POPC   NC357659  24.503  39.977   5.550
 8906POPC   PO457660  24.519  39.965   5.850
 8906POPC   GL157661  24.489  39.995   6.150
 8906POPC   GL257662  24.626  39.900   6.150
 8906POPC   C1A57663  24.486  39.992   6.450
 8906POPC   D2A57664  24.536  40.028   6.750
 8906POPC   C3A57665  24.468  40.047   7.050
 8906POPC   C4A57666  24.443  39.963   7.350
 8906POPC   C1B57667  24.732  39.910   6.450
 8906POPC   C2B57668  24.728  39.901   6.750
 8906POPC   C3B57669  24.664  39.901   7.050
 8906POPC   C4B57670  24.756  39.872   7.350
 8907POPC   NC357671   1.945   3.521   5.550
 8907POPC   PO457672   1.972   3.501   5.850
 8907POPC   GL157673   1.995   3.496   6.150
 8907POPC   GL257674   2.049   3.429   6.150
 8907POPC   C1A57675   2.006   3.520   6.450
 8907POPC   D2A57676   1.989   3.589   6.750
 8907POPC   C3A57677   2.028   3.567   7.050
 8907POPC   C4A57678   1.972   3.513   7.350
 8907POPC   C1B57679   1.965   3.332   6.450
 8907POPC   C2B57680   2.025   3.259   6.750
 8907POPC   C3B57681   1.989   3.333   7.050
 8907POPC   C4B57682   1.972   3.314   7.350
 8908POPC   NC357683  32.227  26.053   5.550
 8908POPC   PO457684  32.198  26.070   5.850
 8908POPC   GL157685  32.266  26.018   6.150
 8908POPC   GL257686  32.171  26.131   6.150
 8908POPC   C1A57687  32.252  26.049   6.450
 8908POPC   D2A57688  32.278  26.062   6.750
 8908POPC   C3A57689  32.297  26.064   7.050
 8908POPC   C4A57690  32.212  26.053   7.350
 8908POPC   C1B57691  32.036  26.198   6.450
 8908POPC   C2B57692  32.031  26.212   6.750
 8908POPC   C3B57693  32.064  26.156   7.050
 8908POPC   C4B57694  32.068  26.130   7.350
 8909POPC   NC357695  38.449   2.786   5.550
 8909POPC   PO457696  38.492   2.809   5.850
 8909POPC   GL157697  38.492   2.795   6.150
 8909POPC   GL257698  38.425   2.849   6.150
 8909POPC   C1A57699  38.412   2.751   6.450
 8909POPC   D2A57700  38.420   2.720   6.750
 8909POPC   C3A57701  38.454   2.787   7.050
 8909POPC   C4A57702  38.503   2.812   7.350
 8909POPC   C1B57703  38.409   2.970   6.450
 8909POPC   C2B57704  38.362   2.957   6.750
 8909POPC   C3B57705  38.399   3.045   7.050
 8909POPC   C4B57706  38.351   2.981   7.350
 8910POPC   NC357707  33.004  17.523   5.550
 8910POPC   PO457708  33.010  17.532   5.850
 8910POPC   GL157709  32.986  17.524   6.150
 8910POPC   GL257710  32.970  17.583   6.150
 8910POPC   C1A57711  33.034  17.494   6.450
 8910POPC   D2A57712  32.996  17.480   6.750
 8910POPC   C3A57713  33.001  17.494   7.050
 8910POPC   C4A57714  33.013  17.500   7.350
 8910POPC   C1B57715  32.888  17.740   6.450
 8910POPC   C2B57716  32.921  17.747   6.750
 8910POPC   C3B57717  32.881  17.745   7.050
 8910POPC   C4B57718  32.877  17.740   7.350
 8911POPC   NC357719   7.415  29.127   5.550
 8911POPC   PO457720   7.411  29.108   5.850
 8911POPC   GL157721   7.449  29.099   6.150
 8911POPC   GL257722   7.458  29.060   6.150
 8911POPC   C1A57723   7.438  29.169   6.450
 8911POPC   D2A57724   7.371  29.144   6.750
 8911POPC   C3A57725   7.394  29.095   7.050
 8911POPC   C4A57726   7.455  29.110   7.350
 8911POPC   C1B57727   7.482  28.868   6.450
 8911POPC   C2B57728   7.508  28.892   6.750
 8911POPC   C3B57729   7.460  28.920   7.050
 8911POPC   C4B57730   7.504  28.908   7.350
 8912POPC   NC357731   8.952  19.069   5.550
 8912POPC   PO457732   8.992  19.059   5.850
 8912POPC   GL157733   8.931  19.023   6.150
 8912POPC   GL257734   9.042  18.927   6.150
 8912POPC   C1A57735   8.927  19.031   6.450
 8912POPC   D2A57736   8.957  19.071   6.750
 8912POPC   C3A57737   9.021  19.079   7.050
 8912POPC   C4A57738   8.997  19.015   7.350
 8912POPC   C1B57739   9.115  18.879   6.450
 8912POPC   C2B57740   9.136  18.900   6.750
 8912POPC   C3B57741   9.093  18.919   7.050
 8912POPC   C4B57742   9.115  18.845   7.350
 8913POPC   NC357743  35.372   5.854   5.550
 8913POPC   PO457744  35.395   5.829   5.850
 8913POPC   GL157745  35.325   5.876   6.150
 8913POPC   GL257746  35.465   5.828   6.150
 8913POPC   C1A57747  35.400   5.874   6.450
 8913POPC   D2A57748  35.315   5.837   6.750
 8913POPC   C3A57749  35.388   5.913   7.050
 8913POPC   C4A57750  35.394   5.882   7.350
 8913POPC   C1B57751  35.516   5.723   6.450
 8913POPC   C2B57752  35.587   5.742   6.750
 8913POPC   C3B57753  35.535   5.733   7.050
 8913POPC   C4B57754  35.574   5.706   7.350
 8914POPC   NC357755  38.450   5.053   5.550
 8914POPC   PO457756  38.488   5.110   5.850
 8914POPC   GL157757  38.489   5.119   6.150
 8914POPC   GL257758  38.595   5.112   6.150
 8914POPC   C1A57759  38.488   5.137   6.450
 8914POPC   D2A57760  38.424   5.086   6.750
 8914POPC   C3A57761  38.501   5.087   7.050
 8914POPC   C4A57762  38.505   5.130   7.350
 8914POPC   C1B57763  38.713   5.111   6.450
 8914POPC   C2B57764  38.751   5.151   6.750
 8914POPC   C3B57765  38.750   5.140   7.050
 8914POPC   C4B57766  38.693   5.139   7.350
 8915POPC   NC357767  17.457  31.459   5.550
 8915POPC   PO457768  17.520  31.440   5.850
 8915POPC   GL157769  17.521  31.437   6.150
 8915POPC   GL257770  17.577  31.552   6.150
 8915POPC   C1A57771  17.473  31.475   6.450
 8915POPC   D2A57772  17.517  31.491   6.750
 8915POPC   C3A57773  17.481  31.466   7.050
 8915POPC   C4A57774  17.464  31.516   7.350
 8915POPC   C1B57775  17.633  31.667   6.450
 8915POPC   C2B57776  17.711  31.686   6.750
 8915POPC   C3B57777  17.719  31.693   7.050
 8915POPC   C4B57778  17.651  31.616   7.350
 8916POPC   NC357779   5.067  19.059   5.550
 8916POPC   PO457780   5.097  19.057   5.850
 8916POPC   GL157781   5.074  19.044   6.150
 8916POPC   GL257782   5.213  19.127   6.150
 8916POPC   C1A57783   5.111  19.057   6.450
 8916POPC   D2A57784   5.055  19.054   6.750
 8916POPC   C3A57785   5.109  19.065   7.050
 8916POPC   C4A57786   5.141  19.025   7.350
 8916POPC   C1B57787   5.368  19.098   6.450
 8916POPC   C2B57788   5.378  19.093   6.750
 8916POPC   C3B57789   5.384  19.097   7.050
 8916POPC   C4B57790   5.321  19.096   7.350
 8917POPC   NC357791  34.545  43.106   5.550
 8917POPC   PO457792  34.594  43.147   5.850
 8917POPC   GL157793  34.572  43.149   6.150
 8917POPC   GL257794  34.534  43.187   6.150
 8917POPC   C1A57795  34.564  43.124   6.450
 8917POPC   D2A57796  34.606  43.107   6.750
 8917POPC   C3A57797  34.599  43.073   7.050
 8917POPC   C4A57798  34.547  43.105   7.350
 8917POPC   C1B57799  34.542  43.339   6.450
 8917POPC   C2B57800  34.520  43.314   6.750
 8917POPC   C3B57801  34.560  43.388   7.050
 8917POPC   C4B57802  34.562  43.336   7.350
 8918POPC   NC357803  33.778  20.607   5.550
 8918POPC   PO457804  33.845  20.582   5.850
 8918POPC   GL157805  33.811  20.622   6.150
 8918POPC   GL257806  33.933  20.629   6.150
 8918POPC   C1A57807  33.757  20.629   6.450
 8918POPC   D2A57808  33.798  20.618   6.750
 8918POPC   C3A57809  33.784  20.615   7.050
 8918POPC   C4A57810  33.817  20.575   7.350
 8918POPC   C1B57811  34.011  20.620   6.450
 8918POPC   C2B57812  34.069  20.617   6.750
 8918POPC   C3B57813  34.090  20.651   7.050
 8918POPC   C4B57814  34.046  20.597   7.350
 8919POPC   NC357815  43.899  19.858   5.550
 8919POPC   PO457816  43.919  19.836   5.850
 8919POPC   GL157817  43.854  19.791   6.150
 8919POPC   GL257818  43.990  19.723   6.150
 8919POPC   C1A57819  43.925  19.836   6.450
 8919POPC   D2A57820  43.861  19.810   6.750
 8919POPC   C3A57821  43.903  19.811   7.050
 8919POPC   C4A57822  43.863  19.874   7.350
 8919POPC   C1B57823  44.040  19.671   6.450
 8919POPC   C2B57824  44.035  19.611   6.750
 8919POPC   C3B57825  43.997  19.626   7.050
 8919POPC   C4B57826  44.073  19.652   7.350
 8920POPC   NC357827  15.198  14.425   5.550
 8920POPC   PO457828  15.155  14.403   5.850
 8920POPC   GL157829  15.146  14.385   6.150
 8920POPC   GL257830  15.250  14.376   6.150
 8920POPC   C1A57831  15.201  14.363   6.450
 8920POPC   D2A57832  15.218  14.450   6.750
 8920POPC   C3A57833  15.135  14.425   7.050
 8920POPC   C4A57834  15.176  14.370   7.350
 8920POPC   C1B57835  15.434  14.271   6.450
 8920POPC   C2B57836  15.440  14.291   6.750
 8920POPC   C3B57837  15.360  14.264   7.050
 8920POPC   C4B57838  15.416  14.321   7.350
 8921POPC   NC357839   0.476  20.592   5.550
 8921POPC   PO457840   0.440  20.603   5.850
 8921POPC   GL157841   0.456  20.591   6.150
 8921POPC   GL257842   0.547  20.660   6.150
 8921POPC   C1A57843   0.442  20.590   6.450
 8921POPC   D2A57844   0.404  20.648   6.750
 8921POPC   C3A57845   0.438  20.589   7.050
 8921POPC   C4A57846   0.425  20.607   7.350
 8921POPC   C1B57847   0.656  20.724   6.450
 8921POPC   C2B57848   0.665  20.670   6.750
 8921POPC   C3B57849   0.646  20.748   7.050
 8921POPC   C4B57850   0.668  20.715   7.350
 8922POPC   NC357851  42.337  43.862   5.550
 8922POPC   PO457852  42.367  43.886   5.850
 8922POPC   GL157853  42.373  43.920   6.150
 8922POPC   GL257854  42.495  43.828   6.150
 8922POPC   C1A57855  42.376  43.877   6.450
 8922POPC   D2A57856  42.359  43.853   6.750
 8922POPC   C3A57857  42.344  43.848   7.050
 8922POPC   C4A57858  42.379  43.911   7.350
 8922POPC   C1B57859  42.595  43.819   6.450
 8922POPC   C2B57860  42.556  43.868   6.750
 8922POPC   C3B57861  42.623  43.896   7.050
 8922POPC   C4B57862  42.537  43.887   7.350
 8923POPC   NC357863  40.775  38.425   5.550
 8923POPC   PO457864  40.771  38.442   5.850
 8923POPC   GL157865  40.820  38.450   6.150
 8923POPC   GL257866  40.613  38.469   6.150
 8923POPC   C1A57867  40.828  38.439   6.450
 8923POPC   D2A57868  40.781  38.476   6.750
 8923POPC   C3A57869  40.757  38.441   7.050
 8923POPC   C4A57870  40.822  38.456   7.350
 8923POPC   C1B57871  40.554  38.383   6.450
 8923POPC   C2B57872  40.548  38.419   6.750
 8923POPC   C3B57873  40.570  38.366   7.050
 8923POPC   C4B57874  40.510  38.406   7.350
 8924POPC   NC357875  18.328  27.640   5.550
 8924POPC   PO457876  18.320  27.591   5.850
 8924POPC   GL157877  18.289  27.609   6.150
 8924POPC   GL257878  18.370  27.514   6.150
 8924POPC   C1A57879  18.236  27.602   6.450
 8924POPC   D2A57880  18.293  27.615   6.750
 8924POPC   C3A57881  18.294  27.547   7.050
 8924POPC   C4A57882  18.332  27.636   7.350
 8924POPC   C1B57883  18.542  27.489   6.450
 8924POPC   C2B57884  18.488  27.479   6.750
 8924POPC   C3B57885  18.495  27.556   7.050
 8924POPC   C4B57886  18.482  27.492   7.350
 8925POPC   NC357887  24.530  36.938   5.550
 8925POPC   PO457888  24.479  36.929   5.850
 8925POPC   GL157889  24.503  36.873   6.150
 8925POPC   GL257890  24.514  36.787   6.150
 8925POPC   C1A57891  24.475  36.885   6.450
 8925POPC   D2A57892  24.468  36.889   6.750
 8925POPC   C3A57893  24.525  36.923   7.050
 8925POPC   C4A57894  24.503  36.860   7.350
 8925POPC   C1B57895  24.481  36.689   6.450
 8925POPC   C2B57896  24.457  36.685   6.750
 8925POPC   C3B57897  24.464  36.665   7.050
 8925POPC   C4B57898  24.486  36.628   7.350
 8926POPC   NC357899  40.006  30.690   5.550
 8926POPC   PO457900  40.022  30.727   5.850
 8926POPC   GL157901  40.022  30.663   6.150
 8926POPC   GL257902  39.975  30.583   6.150
 8926POPC   C1A57903  40.031  30.655   6.450
 8926POPC   D2A57904  40.053  30.740   6.750
 8926POPC   C3A57905  39.974  30.724   7.050
 8926POPC   C4A57906  39.966  30.725   7.350
 8926POPC   C1B57907  39.837  30.467   6.450
 8926POPC   C2B57908  39.824  30.477   6.750
 8926POPC   C3B57909  39.848  30.454   7.050
 8926POPC   C4B57910  39.806  30.464   7.350
 8927POPC   NC357911  42.325   8.225   5.550
 8927POPC   PO457912  42.345   8.211   5.850
 8927POPC   GL157913  42.352   8.200   6.150
 8927POPC   GL257914  42.235   8.303   6.150
 8927POPC   C1A57915  42.317   8.186   6.450
 8927POPC   D2A57916  42.358   8.183   6.750
 8927POPC   C3A57917  42.312   8.224   7.050
 8927POPC   C4A57918  42.299   8.200   7.350
 8927POPC   C1B57919  42.172   8.372   6.450
 8927POPC   C2B57920  42.084   8.349   6.750
 8927POPC   C3B57921  42.170   8.348   7.050
 8927POPC   C4B57922  42.166   8.354   7.350
 8928POPC   NC357923  12.817  30.740   5.550
 8928POPC   PO457924  12.817  30.678   5.850
 8928POPC   GL157925  12.891  30.663   6.150
 8928POPC   GL257926  12.737  30.798   6.150
 8928POPC   C1A57927  12.843  30.714   6.450
 8928POPC   D2A57928  12.855  30.720   6.750
 8928POPC   C3A57929  12.849  30.704   7.050
 8928POPC   C4A57930  12.836  30.723   7.350
 8928POPC   C1B57931  12.701  30.819   6.450
 8928POPC   C2B57932  12.658  30.869   6.750
 8928POPC   C3B57933  12.618  30.906   7.050
 8928POPC   C4B57934  12.656  30.831   7.350
 8929POPC   NC357935  28.413   5.829   5.550
 8929POPC   PO457936  28.413   5.825   5.850
 8929POPC   GL157937  28.367   5.831   6.150
 8929POPC   GL257938  28.338   5.982   6.150
 8929POPC   C1A57939  28.335   5.834   6.450
 8929POPC   D2A57940  28.380   5.890   6.750
 8929POPC   C3A57941  28.357   5.897   7.050
 8929POPC   C4A57942  28.366   5.845   7.350
 8929POPC   C1B57943  28.283   6.131   6.450
 8929POPC   C2B57944  28.203   6.036   6.750
 8929POPC   C3B57945  28.256   6.083   7.050
 8929POPC   C4B57946  28.290   6.067   7.350
 8930POPC   NC357947  24.517  34.623   5.550
 8930POPC   PO457948  24.477  34.598   5.850
 8930POPC   GL157949  24.467  34.528   6.150
 8930POPC   GL257950  24.566  34.564   6.150
 8930POPC   C1A57951  24.498  34.586   6.450
 8930POPC   D2A57952  24.512  34.537   6.750
 8930POPC   C3A57953  24.507  34.535   7.050
 8930POPC   C4A57954  24.457  34.606   7.350
 8930POPC   C1B57955  24.780  34.475   6.450
 8930POPC   C2B57956  24.729  34.500   6.750
 8930POPC   C3B57957  24.708  34.469   7.050
 8930POPC   C4B57958  24.718  34.558   7.350
 8931POPC   NC357959  14.452  43.066   5.550
 8931POPC   PO457960  14.414  43.145   5.850
 8931POPC   GL157961  14.390  43.073   6.150
 8931POPC   GL257962  14.265  43.125   6.150
 8931POPC   C1A57963  14.369  43.112   6.450
 8931POPC   D2A57964  14.395  43.102   6.750
 8931POPC   C3A57965  14.376  43.124   7.050
 8931POPC   C4A57966  14.453  43.105   7.350
 8931POPC   C1B57967  14.203  43.086   6.450
 8931POPC   C2B57968  14.128  43.061   6.750
 8931POPC   C3B57969  14.168  43.109   7.050
 8931POPC   C4B57970  14.126  43.030   7.350
 8932POPC   NC357971  29.169   0.405   5.550
 8932POPC   PO457972  29.164   0.473   5.850
 8932POPC   GL157973  29.161   0.462   6.150
 8932POPC   GL257974  29.150   0.520   6.150
 8932POPC   C1A57975  29.119   0.423   6.450
 8932POPC   D2A57976  29.104   0.404   6.750
 8932POPC   C3A57977  29.117   0.401   7.050
 8932POPC   C4A57978  29.193   0.466   7.350
 8932POPC   C1B57979  29.049   0.631   6.450
 8932POPC   C2B57980  29.045   0.697   6.750
 8932POPC   C3B57981  29.116   0.687   7.050
 8932POPC   C4B57982  29.057   0.663   7.350
 8933POPC   NC357983  27.583  36.924   5.550
 8933POPC   PO457984  27.584  36.874   5.850
 8933POPC   GL157985  27.575  36.881   6.150
 8933POPC   GL257986  27.580  36.757   6.150
 8933POPC   C1A57987  27.575  36.881   6.450
 8933POPC   D2A57988  27.550  36.950   6.750
 8933POPC   C3A57989  27.575  36.937   7.050
 8933POPC   C4A57990  27.548  36.951   7.350
 8933POPC   C1B57991  27.617  36.698   6.450
 8933POPC   C2B57992  27.643  36.618   6.750
 8933POPC   C3B57993  27.661  36.633   7.050
 8933POPC   C4B57994  27.608  36.665   7.350
 8934POPC   NC357995   6.595   8.228   5.550
 8934POPC   PO457996   6.658   8.226   5.850
 8934POPC   GL157997   6.659   8.176   6.150
 8934POPC   GL257998   6.724   8.293   6.150
 8934POPC   C1A57999   6.679   8.191   6.450
 8934POPC   D2A58000   6.623   8.183   6.750
 8934POPC   C3A58001   6.624   8.175   7.050
 8934POPC   C4A58002   6.658   8.205   7.350
 8934POPC   C1B58003   6.769   8.380   6.450
 8934POPC   C2B58004   6.838   8.389   6.750
 8934POPC   C3B58005   6.808   8.340   7.050
 8934POPC   C4B58006   6.822   8.382   7.350
 8935POPC   NC358007  24.465  24.444   5.550
 8935POPC   PO458008  24.444  24.525   5.850
 8935POPC   GL158009  24.529  24.473   6.150
 8935POPC   GL258010  24.561  24.617   6.150
 8935POPC   C1A58011  24.534  24.522   6.450
 8935POPC   D2A58012  24.478  24.509   6.750
 8935POPC   C3A58013  24.443  24.446   7.050
 8935POPC   C4A58014  24.503  24.524   7.350
 8935POPC   C1B58015  24.617  24.640   6.450
 8935POPC   C2B58016  24.673  24.655   6.750
 8935POPC   C3B58017  24.657  24.710   7.050
 8935POPC   C4B58018  24.625  24.658   7.350
 8936POPC   NC358019   2.802   1.975   5.550
 8936POPC   PO458020   2.751   1.959   5.850
 8936POPC   GL158021   2.750   1.978   6.150
 8936POPC   GL258022   2.808   1.916   6.150
 8936POPC   C1A58023   2.728   2.037   6.450
 8936POPC   D2A58024   2.763   2.005   6.750
 8936POPC   C3A58025   2.811   1.962   7.050
 8936POPC   C4A58026   2.796   1.991   7.350
 8936POPC   C1B58027   2.960   1.848   6.450
 8936POPC   C2B58028   2.961   1.859   6.750
 8936POPC   C3B58029   2.907   1.779   7.050
 8936POPC   C4B58030   2.944   1.839   7.350
 8937POPC   NC358031  41.541  21.413   5.550
 8937POPC   PO458032  41.584  21.336   5.850
 8937POPC   GL158033  41.562  21.410   6.150
 8937POPC   GL258034  41.502  21.478   6.150
 8937POPC   C1A58035  41.553  21.371   6.450
 8937POPC   D2A58036  41.513  21.340   6.750
 8937POPC   C3A58037  41.553  21.394   7.050
 8937POPC   C4A58038  41.576  21.424   7.350
 8937POPC   C1B58039  41.313  21.510   6.450
 8937POPC   C2B58040  41.334  21.500   6.750
 8937POPC   C3B58041  41.325  21.560   7.050
 8937POPC   C4B58042  41.392  21.546   7.350
 8938POPC   NC358043  12.824  15.917   5.550
 8938POPC   PO458044  12.803  15.923   5.850
 8938POPC   GL158045  12.837  15.943   6.150
 8938POPC   GL258046  12.941  16.103   6.150
 8938POPC   C1A58047  12.877  15.920   6.450
 8938POPC   D2A58048  12.844  15.994   6.750
 8938POPC   C3A58049  12.861  15.929   7.050
 8938POPC   C4A58050  12.803  15.969   7.350
 8938POPC   C1B58051  13.012  16.186   6.450
 8938POPC   C2B58052  13.010  16.221   6.750
 8938POPC   C3B58053  12.996  16.131   7.050
 8938POPC   C4B58054  12.929  16.141   7.350
 8939POPC   NC358055   5.045  27.559   5.550
 8939POPC   PO458056   5.110  27.565   5.850
 8939POPC   GL158057   5.113  27.613   6.150
 8939POPC   GL258058   5.052  27.655   6.150
 8939POPC   C1A58059   5.094  27.569   6.450
 8939POPC   D2A58060   5.125  27.601   6.750
 8939POPC   C3A58061   5.100  27.573   7.050
 8939POPC   C4A58062   5.137  27.574   7.350
 8939POPC   C1B58063   4.945  27.755   6.450
 8939POPC   C2B58064   4.878  27.809   6.750
 8939POPC   C3B58065   4.923  27.814   7.050
 8939POPC   C4B58066   4.875  27.771   7.350
 8940POPC   NC358067  15.920   0.487   5.550
 8940POPC   PO458068  15.965   0.488   5.850
 8940POPC   GL158069  15.923   0.423   6.150
 8940POPC   GL258070  15.803   0.410   6.150
 8940POPC   C1A58071  15.970   0.421   6.450
 8940POPC   D2A58072  15.906   0.466   6.750
 8940POPC   C3A58073  15.959   0.475   7.050
 8940POPC   C4A58074  15.961   0.429   7.350
 8940POPC   C1B58075  15.734   0.406   6.450
 8940POPC   C2B58076  15.740   0.382   6.750
 8940POPC   C3B58077  15.714   0.377   7.050
 8940POPC   C4B58078  15.721   0.357   7.350
 8941POPC   NC358079  29.937  33.763   5.550
 8941POPC   PO458080  29.914  33.751   5.850
 8941POPC   GL158081  29.923  33.821   6.150
 8941POPC   GL258082  29.834  33.689   6.150
 8941POPC   C1A58083  29.937  33.821   6.450
 8941POPC   D2A58084  29.939  33.812   6.750
 8941POPC   C3A58085  29.894  33.830   7.050
 8941POPC   C4A58086  29.952  33.834   7.350
 8941POPC   C1B58087  29.743  33.705   6.450
 8941POPC   C2B58088  29.728  33.683   6.750
 8941POPC   C3B58089  29.668  33.623   7.050
 8941POPC   C4B58090  29.663  33.688   7.350
 8942POPC   NC358091  44.634  19.876   5.550
 8942POPC   PO458092  44.621  19.845   5.850
 8942POPC   GL158093  44.709  19.854   6.150
 8942POPC   GL258094  44.543  19.902   6.150
 8942POPC   C1A58095  44.644  19.858   6.450
 8942POPC   D2A58096  44.702  19.817   6.750
 8942POPC   C3A58097  44.701  19.871   7.050
 8942POPC   C4A58098  44.648  19.880   7.350
 8942POPC   C1B58099  44.397  19.874   6.450
 8942POPC   C2B58100  44.446  19.867   6.750
 8942POPC   C3B58101  44.381  19.859   7.050
 8942POPC   C4B58102  44.403  19.926   7.350
 8943POPC   NC358103   6.693  20.658   5.550
 8943POPC   PO458104   6.603  20.604   5.850
 8943POPC   GL158105   6.682  20.614   6.150
 8943POPC   GL258106   6.536  20.566   6.150
 8943POPC   C1A58107   6.692  20.625   6.450
 8943POPC   D2A58108   6.595  20.644   6.750
 8943POPC   C3A58109   6.690  20.579   7.050
 8943POPC   C4A58110   6.669  20.643   7.350
 8943POPC   C1B58111   6.399  20.492   6.450
 8943POPC   C2B58112   6.379  20.545   6.750
 8943POPC   C3B58113   6.393  20.460   7.050
 8943POPC   C4B58114   6.436  20.543   7.350
 8944POPC   NC358115  21.422  25.278   5.550
 8944POPC   PO458116  21.381  25.267   5.850
 8944POPC   GL158117  21.421  25.257   6.150
 8944POPC   GL258118  21.487  25.295   6.150
 8944POPC   C1A58119  21.398  25.239   6.450
 8944POPC   D2A58120  21.407  25.222   6.750
 8944POPC   C3A58121  21.430  25.275   7.050
 8944POPC   C4A58122  21.410  25.289   7.350
 8944POPC   C1B58123  21.594  25.264   6.450
 8944POPC   C2B58124  21.595  25.328   6.750
 8944POPC   C3B58125  21.682  25.253   7.050
 8944POPC   C4B58126  21.588  25.284   7.350
 8945POPC   NC358127  40.812  13.627   5.550
 8945POPC   PO458128  40.741  13.641   5.850
 8945POPC   GL158129  40.794  13.590   6.150
 8945POPC   GL258130  40.840  13.744   6.150
 8945POPC   C1A58131  40.761  13.663   6.450
 8945POPC   D2A58132  40.824  13.622   6.750
 8945POPC   C3A58133  40.791  13.602   7.050
 8945POPC   C4A58134  40.824  13.671   7.350
 8945POPC   C1B58135  40.850  13.914   6.450
 8945POPC   C2B58136  40.830  13.891   6.750
 8945POPC   C3B58137  40.805  13.877   7.050
 8945POPC   C4B58138  40.865  13.911   7.350
 8946POPC   NC358139   1.960  16.708   5.550
 8946POPC   PO458140   1.960  16.736   5.850
 8946POPC   GL158141   2.030  16.696   6.150
 8946POPC   GL258142   1.871  16.715   6.150
 8946POPC   C1A58143   1.991  16.728   6.450
 8946POPC   D2A58144   1.943  16.693   6.750
 8946POPC   C3A58145   1.992  16.688   7.050
 8946POPC   C4A58146   2.015  16.714   7.350
 8946POPC   C1B58147   1.783  16.759   6.450
 8946POPC   C2B58148   1.718  16.811   6.750
 8946POPC   C3B58149   1.755  16.791   7.050
 8946POPC   C4B58150   1.728  16.770   7.350
 8947POPC   NC358151   2.809  40.802   5.550
 8947POPC   PO458152   2.729  40.745   5.850
 8947POPC   GL158153   2.813  40.832   6.150
 8947POPC   GL258154   2.858  40.854   6.150
 8947POPC   C1A58155   2.788  40.735   6.450
 8947POPC   D2A58156   2.774  40.796   6.750
 8947POPC   C3A58157   2.721  40.808   7.050
 8947POPC   C4A58158   2.721  40.779   7.350
 8947POPC   C1B58159   3.006  40.919   6.450
 8947POPC   C2B58160   3.023  40.859   6.750
 8947POPC   C3B58161   2.978  40.873   7.050
 8947POPC   C4B58162   2.953  40.862   7.350
 8948POPC   NC358163  39.276   1.203   5.550
 8948POPC   PO458164  39.198   1.234   5.850
 8948POPC   GL158165  39.243   1.209   6.150
 8948POPC   GL258166  39.339   1.168   6.150
 8948POPC   C1A58167  39.205   1.164   6.450
 8948POPC   D2A58168  39.209   1.191   6.750
 8948POPC   C3A58169  39.243   1.245   7.050
 8948POPC   C4A58170  39.181   1.198   7.350
 8948POPC   C1B58171  39.459   1.252   6.450
 8948POPC   C2B58172  39.438   1.192   6.750
 8948POPC   C3B58173  39.450   1.227   7.050
 8948POPC   C4B58174  39.495   1.268   7.350
 8949POPC   NC358175  19.024   5.897   5.550
 8949POPC   PO458176  19.023   5.826   5.850
 8949POPC   GL158177  19.048   5.911   6.150
 8949POPC   GL258178  18.936   5.959   6.150
 8949POPC   C1A58179  19.084   5.918   6.450
 8949POPC   D2A58180  19.075   5.901   6.750
 8949POPC   C3A58181  19.052   5.827   7.050
 8949POPC   C4A58182  19.077   5.867   7.350
 8949POPC   C1B58183  18.845   5.945   6.450
 8949POPC   C2B58184  18.813   5.944   6.750
 8949POPC   C3B58185  18.839   6.027   7.050
 8949POPC   C4B58186  18.793   5.982   7.350
 8950POPC   NC358187   0.417  27.633   5.550
 8950POPC   PO458188   0.406  27.550   5.850
 8950POPC   GL158189   0.425  27.568   6.150
 8950POPC   GL258190   0.470  27.516   6.150
 8950POPC   C1A58191   0.399  27.624   6.450
 8950POPC   D2A58192   0.417  27.641   6.750
 8950POPC   C3A58193   0.424  27.627   7.050
 8950POPC   C4A58194   0.480  27.640   7.350
 8950POPC   C1B58195   0.482  27.356   6.450
 8950POPC   C2B58196   0.439  27.326   6.750
 8950POPC   C3B58197   0.511  27.299   7.050
 8950POPC   C4B58198   0.448  27.376   7.350
 8951POPC   NC358199  36.936   3.586   5.550
 8951POPC   PO458200  36.949   3.556   5.850
 8951POPC   GL158201  36.924   3.565   6.150
 8951POPC   GL258202  36.801   3.422   6.150
 8951POPC   C1A58203  36.932   3.587   6.450
 8951POPC   D2A58204  36.916   3.511   6.750
 8951POPC   C3A58205  36.876   3.527   7.050
 8951POPC   C4A58206  36.946   3.538   7.350
 8951POPC   C1B58207  36.695   3.394   6.450
 8951POPC   C2B58208  36.692   3.426   6.750
 8951POPC   C3B58209  36.667   3.420   7.050
 8951POPC   C4B58210  36.671   3.404   7.350
 8952POPC   NC358211   2.754  19.837   5.550
 8952POPC   PO458212   2.741  19.855   5.850
 8952POPC   GL158213   2.766  19.857   6.150
 8952POPC   GL258214   2.756  20.000   6.150
 8952POPC   C1A58215   2.736  19.883   6.450
 8952POPC   D2A58216   2.726  19.803   6.750
 8952POPC   C3A58217   2.772  19.789   7.050
 8952POPC   C4A58218   2.778  19.832   7.350
 8952POPC   C1B58219   2.800  20.105   6.450
 8952POPC   C2B58220   2.738  20.068   6.750
 8952POPC   C3B58221   2.808  20.072   7.050
 8952POPC   C4B58222   2.801  20.116   7.350
 8953POPC   NC358223   2.799  23.695   5.550
 8953POPC   PO458224   2.767  23.733   5.850
 8953POPC   GL158225   2.779  23.760   6.150
 8953POPC   GL258226   2.823  23.642   6.150
 8953POPC   C1A58227   2.794  23.728   6.450
 8953POPC   D2A58228   2.719  23.749   6.750
 8953POPC   C3A58229   2.727  23.674   7.050
 8953POPC   C4A58230   2.732  23.673   7.350
 8953POPC   C1B58231   2.935  23.518   6.450
 8953POPC   C2B58232   2.943  23.582   6.750
 8953POPC   C3B58233   2.992  23.555   7.050
 8953POPC   C4B58234   2.952  23.571   7.350
 8954POPC   NC358235  44.702  29.956   5.550
 8954POPC   PO458236  44.708  29.880   5.850
 8954POPC   GL158237  44.679  29.920   6.150
 8954POPC   GL258238  44.605  29.816   6.150
 8954POPC   C1A58239  44.622  29.962   6.450
 8954POPC   D2A58240  44.679  29.970   6.750
 8954POPC   C3A58241  44.681  29.947   7.050
 8954POPC   C4A58242  44.675  29.942   7.350
 8954POPC   C1B58243  44.555  29.724   6.450
 8954POPC   C2B58244  44.498  29.722   6.750
 8954POPC   C3B58245  44.559  29.660   7.050
 8954POPC   C4B58246  44.550  29.720   7.350
 8955POPC   NC358247  19.848  36.089   5.550
 8955POPC   PO458248  19.873  36.139   5.850
 8955POPC   GL158249  19.879  36.152   6.150
 8955POPC   GL258250  19.714  36.137   6.150
 8955POPC   C1A58251  19.846  36.162   6.450
 8955POPC   D2A58252  19.808  36.100   6.750
 8955POPC   C3A58253  19.839  36.131   7.050
 8955POPC   C4A58254  19.820  36.089   7.350
 8955POPC   C1B58255  19.642  36.179   6.450
 8955POPC   C2B58256  19.586  36.240   6.750
 8955POPC   C3B58257  19.610  36.158   7.050
 8955POPC   C4B58258  19.607  36.212   7.350
 8956POPC   NC358259  36.147  39.219   5.550
 8956POPC   PO458260  36.099  39.281   5.850
 8956POPC   GL158261  36.132  39.187   6.150
 8956POPC   GL258262  35.964  39.264   6.150
 8956POPC   C1A58263  36.093  39.265   6.450
 8956POPC   D2A58264  36.145  39.207   6.750
 8956POPC   C3A58265  36.114  39.246   7.050
 8956POPC   C4A58266  36.160  39.261   7.350
 8956POPC   C1B58267  35.906  39.373   6.450
 8956POPC   C2B58268  35.889  39.299   6.750
 8956POPC   C3B58269  35.892  39.294   7.050
 8956POPC   C4B58270  35.920  39.298   7.350
 8957POPC   NC358271  43.857  29.125   5.550
 8957POPC   PO458272  43.866  29.164   5.850
 8957POPC   GL158273  43.914  29.145   6.150
 8957POPC   GL258274  43.806  29.228   6.150
 8957POPC   C1A58275  43.889  29.193   6.450
 8957POPC   D2A58276  43.870  29.174   6.750
 8957POPC   C3A58277  43.881  29.152   7.050
 8957POPC   C4A58278  43.919  29.125   7.350
 8957POPC   C1B58279  43.851  29.375   6.450
 8957POPC   C2B58280  43.780  29.384   6.750
 8957POPC   C3B58281  43.851  29.406   7.050
 8957POPC   C4B58282  43.780  29.357   7.350
 8958POPC   NC358283  27.611  29.921   5.550
 8958POPC   PO458284  27.582  29.897   5.850
 8958POPC   GL158285  27.625  29.944   6.150
 8958POPC   GL258286  27.482  29.848   6.150
 8958POPC   C1A58287  27.559  29.897   6.450
 8958POPC   D2A58288  27.559  29.894   6.750
 8958POPC   C3A58289  27.607  29.919   7.050
 8958POPC   C4A58290  27.637  29.871   7.350
 8958POPC   C1B58291  27.383  29.859   6.450
 8958POPC   C2B58292  27.386  29.921   6.750
 8958POPC   C3B58293  27.357  29.891   7.050
 8958POPC   C4B58294  27.307  29.871   7.350
 8959POPC   NC358295  27.566  40.745   5.550
 8959POPC   PO458296  27.546  40.757   5.850
 8959POPC   GL158297  27.627  40.791   6.150
 8959POPC   GL258298  27.502  40.675   6.150
 8959POPC   C1A58299  27.610  40.771   6.450
 8959POPC   D2A58300  27.620  40.755   6.750
 8959POPC   C3A58301  27.596  40.738   7.050
 8959POPC   C4A58302  27.617  40.735   7.350
 8959POPC   C1B58303  27.425  40.696   6.450
 8959POPC   C2B58304  27.379  40.616   6.750
 8959POPC   C3B58305  27.400  40.662   7.050
 8959POPC   C4B58306  27.379  40.633   7.350
 8960POPC   NC358307   0.465  33.794   5.550
 8960POPC   PO458308   0.452  33.833   5.850
 8960POPC   GL158309   0.478  33.843   6.150
 8960POPC   GL258310   0.562  33.919   6.150
 8960POPC   C1A58311   0.424  33.776   6.450
 8960POPC   D2A58312   0.472  33.791   6.750
 8960POPC   C3A58313   0.448  33.821   7.050
 8960POPC   C4A58314   0.444  33.773   7.350
 8960POPC   C1B58315   0.588  33.976   6.450
 8960POPC   C2B58316   0.615  33.936   6.750
 8960POPC   C3B58317   0.635  33.921   7.050
 8960POPC   C4B58318   0.631  33.923   7.350
 8961POPC   NC358319   5.073  25.313   5.550
 8961POPC   PO458320   5.074  25.293   5.850
 8961POPC   GL158321   5.058  25.246   6.150
 8961POPC   GL258322   4.993  25.203   6.150
 8961POPC   C1A58323   5.136  25.242   6.450
 8961POPC   D2A58324   5.071  25.241   6.750
 8961POPC   C3A58325   5.077  25.246   7.050
 8961POPC   C4A58326   5.067  25.265   7.350
 8961POPC   C1B58327   4.961  25.091   6.450
 8961POPC   C2B58328   4.946  25.027   6.750
 8961POPC   C3B58329   4.979  25.019   7.050
 8961POPC   C4B58330   4.944  25.041   7.350
 8962POPC   NC358331  19.873  42.332   5.550
 8962POPC   PO458332  19.867  42.349   5.850
 8962POPC   GL158333  19.839  42.371   6.150
 8962POPC   GL258334  19.947  42.222   6.150
 8962POPC   C1A58335  19.810  42.345   6.450
 8962POPC   D2A58336  19.879  42.327   6.750
 8962POPC   C3A58337  19.864  42.360   7.050
 8962POPC   C4A58338  19.830  42.373   7.350
 8962POPC   C1B58339  19.916  42.084   6.450
 8962POPC   C2B58340  19.942  42.082   6.750
 8962POPC   C3B58341  19.998  42.139   7.050
 8962POPC   C4B58342  19.916  42.091   7.350
 8963POPC   NC358343  11.342  17.522   5.550
 8963POPC   PO458344  11.338  17.510   5.850
 8963POPC   GL158345  11.281  17.490   6.150
 8963POPC   GL258346  11.417  17.451   6.150
 8963POPC   C1A58347  11.280  17.471   6.450
 8963POPC   D2A58348  11.307  17.471   6.750
 8963POPC   C3A58349  11.286  17.515   7.050
 8963POPC   C4A58350  11.314  17.490   7.350
 8963POPC   C1B58351  11.478  17.347   6.450
 8963POPC   C2B58352  11.557  17.431   6.750
 8963POPC   C3B58353  11.506  17.345   7.050
 8963POPC   C4B58354  11.565  17.357   7.350
 8964POPC   NC358355  35.303  42.342   5.550
 8964POPC   PO458356  35.350  42.379   5.850
 8964POPC   GL158357  35.327  42.362   6.150
 8964POPC   GL258358  35.480  42.370   6.150
 8964POPC   C1A58359  35.394  42.384   6.450
 8964POPC   D2A58360  35.393  42.339   6.750
 8964POPC   C3A58361  35.384  42.320   7.050
 8964POPC   C4A58362  35.345  42.287   7.350
 8964POPC   C1B58363  35.574  42.421   6.450
 8964POPC   C2B58364  35.617  42.409   6.750
 8964POPC   C3B58365  35.555  42.395   7.050
 8964POPC   C4B58366  35.572  42.359   7.350
 8965POPC   NC358367   7.424  37.675   5.550
 8965POPC   PO458368   7.396  37.668   5.850
 8965POPC   GL158369   7.371  37.687   6.150
 8965POPC   GL258370   7.535  37.688   6.150
 8965POPC   C1A58371   7.400  37.673   6.450
 8965POPC   D2A58372   7.394  37.727   6.750
 8965POPC   C3A58373   7.411  37.641   7.050
 8965POPC   C4A58374   7.430  37.719   7.350
 8965POPC   C1B58375   7.658  37.645   6.450
 8965POPC   C2B58376   7.686  37.701   6.750
 8965POPC   C3B58377   7.656  37.652   7.050
 8965POPC   C4B58378   7.682  37.688   7.350
 8966POPC   NC358379  42.346  39.191   5.550
 8966POPC   PO458380  42.337  39.187   5.850
 8966POPC   GL158381  42.341  39.274   6.150
 8966POPC   GL258382  42.171  39.291   6.150
 8966POPC   C1A58383  42.328  39.223   6.450
 8966POPC   D2A58384  42.379  39.243   6.750
 8966POPC   C3A58385  42.331  39.210   7.050
 8966POPC   C4A58386  42.366  39.275   7.350
 8966POPC   C1B58387  42.125  39.299   6.450
 8966POPC   C2B58388  42.065  39.293   6.750
 8966POPC   C3B58389  42.071  39.347   7.050
 8966POPC   C4B58390  42.143  39.301   7.350
 8967POPC   NC358391  34.593  24.506   5.550
 8967POPC   PO458392  34.543  24.493   5.850
 8967POPC   GL158393  34.587  24.467   6.150
 8967POPC   GL258394  34.460  24.361   6.150
 8967POPC   C1A58395  34.602  24.462   6.450
 8967POPC   D2A58396  34.557  24.445   6.750
 8967POPC   C3A58397  34.556  24.511   7.050
 8967POPC   C4A58398  34.540  24.484   7.350
 8967POPC   C1B58399  34.451  24.306   6.450
 8967POPC   C2B58400  34.392  24.261   6.750
 8967POPC   C3B58401  34.471  24.284   7.050
 8967POPC   C4B58402  34.446  24.287   7.350
 8968POPC   NC358403   6.692   1.995   5.550
 8968POPC   PO458404   6.664   2.015   5.850
 8968POPC   GL158405   6.663   2.016   6.150
 8968POPC   GL258406   6.664   1.905   6.150
 8968POPC   C1A58407   6.654   2.036   6.450
 8968POPC   D2A58408   6.683   1.962   6.750
 8968POPC   C3A58409   6.623   1.952   7.050
 8968POPC   C4A58410   6.672   1.950   7.350
 8968POPC   C1B58411   6.615   1.761   6.450
 8968POPC   C2B58412   6.633   1.771   6.750
 8968POPC   C3B58413   6.676   1.737   7.050
 8968POPC   C4B58414   6.605   1.732   7.350
 8969POPC   NC358415  26.822  33.017   5.550
 8969POPC   PO458416  26.855  33.022   5.850
 8969POPC   GL158417  26.859  33.061   6.150
 8969POPC   GL258418  26.798  33.168   6.150
 8969POPC   C1A58419  26.862  33.047   6.450
 8969POPC   D2A58420  26.788  32.988   6.750
 8969POPC   C3A58421  26.853  33.058   7.050
 8969POPC   C4A58422  26.803  33.058   7.350
 8969POPC   C1B58423  26.730  33.268   6.450
 8969POPC   C2B58424  26.694  33.274   6.750
 8969POPC   C3B58425  26.693  33.238   7.050
 8969POPC   C4B58426  26.709  33.207   7.350
 8970POPC   NC358427  42.317  31.510   5.550
 8970POPC   PO458428  42.334  31.429   5.850
 8970POPC   GL158429  42.295  31.506   6.150
 8970POPC   GL258430  42.467  31.424   6.150
 8970POPC   C1A58431  42.347  31.481   6.450
 8970POPC   D2A58432  42.343  31.495   6.750
 8970POPC   C3A58433  42.365  31.475   7.050
 8970POPC   C4A58434  42.292  31.453   7.350
 8970POPC   C1B58435  42.614  31.476   6.450
 8970POPC   C2B58436  42.546  31.412   6.750
 8970POPC   C3B58437  42.533  31.492   7.050
 8970POPC   C4B58438  42.548  31.445   7.350
 8971POPC   NC358439  39.207  16.737   5.550
 8971POPC   PO458440  39.264  16.754   5.850
 8971POPC   GL158441  39.233  16.752   6.150
 8971POPC   GL258442  39.155  16.593   6.150
 8971POPC   C1A58443  39.236  16.727   6.450
 8971POPC   D2A58444  39.242  16.714   6.750
 8971POPC   C3A58445  39.271  16.703   7.050
 8971POPC   C4A58446  39.234  16.694   7.350
 8971POPC   C1B58447  39.150  16.499   6.450
 8971POPC   C2B58448  39.117  16.470   6.750
 8971POPC   C3B58449  39.138  16.460   7.050
 8971POPC   C4B58450  39.144  16.482   7.350
 8972POPC   NC358451  26.796  14.369   5.550
 8972POPC   PO458452  26.831  14.416   5.850
 8972POPC   GL158453  26.814  14.415   6.150
 8972POPC   GL258454  26.907  14.283   6.150
 8972POPC   C1A58455  26.862  14.417   6.450
 8972POPC   D2A58456  26.866  14.357   6.750
 8972POPC   C3A58457  26.810  14.360   7.050
 8972POPC   C4A58458  26.815  14.428   7.350
 8972POPC   C1B58459  26.937  14.202   6.450
 8972POPC   C2B58460  26.963  14.227   6.750
 8972POPC   C3B58461  26.948  14.242   7.050
 8972POPC   C4B58462  26.932  14.187   7.350
 8973POPC   NC358463  22.968  32.267   5.550
 8973POPC   PO458464  22.973  32.212   5.850
 8973POPC   GL158465  22.892  32.253   6.150
 8973POPC   GL258466  23.040  32.359   6.150
 8973POPC   C1A58467  22.970  32.216   6.450
 8973POPC   D2A58468  22.912  32.271   6.750
 8973POPC   C3A58469  22.944  32.231   7.050
 8973POPC   C4A58470  22.984  32.262   7.350
 8973POPC   C1B58471  23.071  32.474   6.450
 8973POPC   C2B58472  23.127  32.403   6.750
 8973POPC   C3B58473  23.139  32.392   7.050
 8973POPC   C4B58474  23.090  32.407   7.350
 8974POPC   NC358475  14.402   0.441   5.550
 8974POPC   PO458476  14.412   0.415   5.850
 8974POPC   GL158477  14.389   0.449   6.150
 8974POPC   GL258478  14.285   0.434   6.150
 8974POPC   C1A58479  14.373   0.400   6.450
 8974POPC   D2A58480  14.397   0.436   6.750
 8974POPC   C3A58481  14.430   0.487   7.050
 8974POPC   C4A58482  14.407   0.406   7.350
 8974POPC   C1B58483  14.152   0.464   6.450
 8974POPC   C2B58484  14.130   0.469   6.750
 8974POPC   C3B58485  14.185   0.431   7.050
 8974POPC   C4B58486  14.115   0.495   7.350
 8975POPC   NC358487  44.671  26.811   5.550
 8975POPC   PO458488  44.653  26.797   5.850
 8975POPC   GL158489  44.678  26.802   6.150
 8975POPC   GL258490  44.793  26.939   6.150
 8975POPC   C1A58491  44.641  26.822   6.450
 8975POPC   D2A58492  44.694  26.853   6.750
 8975POPC   C3A58493  44.642  26.835   7.050
 8975POPC   C4A58494  44.682  26.836   7.350
 8975POPC   C1B58495  44.908  26.924   6.450
 8975POPC   C2B58496  44.873  26.974   6.750
 8975POPC   C3B58497  44.884  26.925   7.050
 8975POPC   C4B58498  44.817  26.928   7.350
 8976POPC   NC358499  22.118  16.697   5.550
 8976POPC   PO458500  22.127  16.700   5.850
 8976POPC   GL158501  22.169  16.692   6.150
 8976POPC   GL258502  22.170  16.888   6.150
 8976POPC   C1A58503  22.161  16.682   6.450
 8976POPC   D2A58504  22.117  16.768   6.750
 8976POPC   C3A58505  22.146  16.711   7.050
 8976POPC   C4A58506  22.184  16.698   7.350
 8976POPC   C1B58507  22.282  17.013   6.450
 8976POPC   C2B58508  22.234  16.929   6.750
 8976POPC   C3B58509  22.238  16.994   7.050
 8976POPC   C4B58510  22.226  16.994   7.350
 8977POPC   NC358511   6.649  11.303   5.550
 8977POPC   PO458512   6.675  11.279   5.850
 8977POPC   GL158513   6.674  11.306   6.150
 8977POPC   GL258514   6.626  11.453   6.150
 8977POPC   C1A58515   6.610  11.317   6.450
 8977POPC   D2A58516   6.652  11.333   6.750
 8977POPC   C3A58517   6.651  11.319   7.050
 8977POPC   C4A58518   6.619  11.341   7.350
 8977POPC   C1B58519   6.673  11.539   6.450
 8977POPC   C2B58520   6.671  11.512   6.750
 8977POPC   C3B58521   6.676  11.557   7.050
 8977POPC   C4B58522   6.696  11.579   7.350
 8978POPC   NC358523   1.258   2.006   5.550
 8978POPC   PO458524   1.187   1.980   5.850
 8978POPC   GL158525   1.174   1.941   6.150
 8978POPC   GL258526   1.190   1.831   6.150
 8978POPC   C1A58527   1.166   1.974   6.450
 8978POPC   D2A58528   1.235   2.022   6.750
 8978POPC   C3A58529   1.215   2.016   7.050
 8978POPC   C4A58530   1.252   1.997   7.350
 8978POPC   C1B58531   1.183   1.764   6.450
 8978POPC   C2B58532   1.248   1.790   6.750
 8978POPC   C3B58533   1.180   1.756   7.050
 8978POPC   C4B58534   1.265   1.690   7.350
 8979POPC   NC358535   1.946   5.056   5.550
 8979POPC   PO458536   2.020   5.138   5.850
 8979POPC   GL158537   1.949   5.092   6.150
 8979POPC   GL258538   1.919   5.161   6.150
 8979POPC   C1A58539   1.984   5.080   6.450
 8979POPC   D2A58540   2.004   5.101   6.750
 8979POPC   C3A58541   2.034   5.093   7.050
 8979POPC   C4A58542   1.956   5.130   7.350
 8979POPC   C1B58543   1.778   5.192   6.450
 8979POPC   C2B58544   1.776   5.273   6.750
 8979POPC   C3B58545   1.811   5.193   7.050
 8979POPC   C4B58546   1.797   5.219   7.350
 8980POPC   NC358547  39.196  37.639   5.550
 8980POPC   PO458548  39.278  37.728   5.850
 8980POPC   GL158549  39.256  37.663   6.150
 8980POPC   GL258550  39.171  37.528   6.150
 8980POPC   C1A58551  39.186  37.729   6.450
 8980POPC   D2A58552  39.262  37.648   6.750
 8980POPC   C3A58553  39.250  37.637   7.050
 8980POPC   C4A58554  39.198  37.658   7.350
 8980POPC   C1B58555  39.185  37.422   6.450
 8980POPC   C2B58556  39.193  37.418   6.750
 8980POPC   C3B58557  39.220  37.451   7.050
 8980POPC   C4B58558  39.168  37.474   7.350
 8981POPC   NC358559   0.419  28.367   5.550
 8981POPC   PO458560   0.462  28.343   5.850
 8981POPC   GL158561   0.415  28.348   6.150
 8981POPC   GL258562   0.515  28.278   6.150
 8981POPC   C1A58563   0.409  28.373   6.450
 8981POPC   D2A58564   0.418  28.395   6.750
 8981POPC   C3A58565   0.417  28.396   7.050
 8981POPC   C4A58566   0.415  28.341   7.350
 8981POPC   C1B58567   0.451  28.173   6.450
 8981POPC   C2B58568   0.529  28.115   6.750
 8981POPC   C3B58569   0.478  28.156   7.050
 8981POPC   C4B58570   0.453  28.106   7.350
 8982POPC   NC358571  15.999  41.551   5.550
 8982POPC   PO458572  15.916  41.511   5.850
 8982POPC   GL158573  15.950  41.603   6.150
 8982POPC   GL258574  15.909  41.424   6.150
 8982POPC   C1A58575  16.005  41.537   6.450
 8982POPC   D2A58576  16.005  41.606   6.750
 8982POPC   C3A58577  15.940  41.547   7.050
 8982POPC   C4A58578  15.916  41.561   7.350
 8982POPC   C1B58579  15.910  41.314   6.450
 8982POPC   C2B58580  15.970  41.347   6.750
 8982POPC   C3B58581  15.971  41.322   7.050
 8982POPC   C4B58582  15.979  41.297   7.350
 8983POPC   NC358583  24.475  20.573   5.550
 8983POPC   PO458584  24.535  20.635   5.850
 8983POPC   GL158585  24.516  20.642   6.150
 8983POPC   GL258586  24.601  20.631   6.150
 8983POPC   C1A58587  24.462  20.628   6.450
 8983POPC   D2A58588  24.470  20.597   6.750
 8983POPC   C3A58589  24.532  20.615   7.050
 8983POPC   C4A58590  24.519  20.615   7.350
 8983POPC   C1B58591  24.761  20.691   6.450
 8983POPC   C2B58592  24.678  20.743   6.750
 8983POPC   C3B58593  24.737  20.724   7.050
 8983POPC   C4B58594  24.702  20.732   7.350
 8984POPC   NC358595  26.003  33.778   5.550
 8984POPC   PO458596  25.995  33.825   5.850
 8984POPC   GL158597  26.088  33.817   6.150
 8984POPC   GL258598  26.062  33.665   6.150
 8984POPC   C1A58599  26.091  33.811   6.450
 8984POPC   D2A58600  26.076  33.829   6.750
 8984POPC   C3A58601  26.003  33.827   7.050
 8984POPC   C4A58602  26.086  33.842   7.350
 8984POPC   C1B58603  26.137  33.594   6.450
 8984POPC   C2B58604  26.149  33.566   6.750
 8984POPC   C3B58605  26.199  33.595   7.050
 8984POPC   C4B58606  26.201  33.601   7.350
 8985POPC   NC358607  28.409  28.349   5.550
 8985POPC   PO458608  28.325  28.344   5.850
 8985POPC   GL158609  28.407  28.340   6.150
 8985POPC   GL258610  28.304  28.283   6.150
 8985POPC   C1A58611  28.395  28.357   6.450
 8985POPC   D2A58612  28.366  28.355   6.750
 8985POPC   C3A58613  28.381  28.350   7.050
 8985POPC   C4A58614  28.401  28.415   7.350
 8985POPC   C1B58615  28.200  28.215   6.450
 8985POPC   C2B58616  28.184  28.180   6.750
 8985POPC   C3B58617  28.167  28.180   7.050
 8985POPC   C4B58618  28.180  28.181   7.350
 8986POPC   NC358619  25.999  27.553   5.550
 8986POPC   PO458620  26.044  27.587   5.850
 8986POPC   GL158621  26.081  27.617   6.150
 8986POPC   GL258622  26.066  27.468   6.150
 8986POPC   C1A58623  25.999  27.572   6.450
 8986POPC   D2A58624  26.083  27.594   6.750
 8986POPC   C3A58625  26.042  27.631   7.050
 8986POPC   C4A58626  25.992  27.589   7.350
 8986POPC   C1B58627  26.116  27.349   6.450
 8986POPC   C2B58628  26.085  27.379   6.750
 8986POPC   C3B58629  26.100  27.345   7.050
 8986POPC   C4B58630  26.144  27.313   7.350
 8987POPC   NC358631  34.618  18.330   5.550
 8987POPC   PO458632  34.606  18.307   5.850
 8987POPC   GL158633  34.546  18.288   6.150
 8987POPC   GL258634  34.415  18.241   6.150
 8987POPC   C1A58635  34.609  18.259   6.450
 8987POPC   D2A58636  34.561  18.327   6.750
 8987POPC   C3A58637  34.536  18.312   7.050
 8987POPC   C4A58638  34.546  18.329   7.350
 8987POPC   C1B58639  34.321  18.280   6.450
 8987POPC   C2B58640  34.327  18.245   6.750
 8987POPC   C3B58641  34.364  18.218   7.050
 8987POPC   C4B58642  34.311  18.246   7.350
 8988POPC   NC358643   2.726  34.615   5.550
 8988POPC   PO458644   2.802  34.603   5.850
 8988POPC   GL158645   2.744  34.561   6.150
 8988POPC   GL258646   2.673  34.447   6.150
 8988POPC   C1A58647   2.719  34.557   6.450
 8988POPC   D2A58648   2.765  34.549   6.750
 8988POPC   C3A58649   2.718  34.614   7.050
 8988POPC   C4A58650   2.757  34.610   7.350
 8988POPC   C1B58651   2.624  34.403   6.450
 8988POPC   C2B58652   2.560  34.370   6.750
 8988POPC   C3B58653   2.551  34.349   7.050
 8988POPC   C4B58654   2.578  34.364   7.350
 8989POPC   NC358655  11.297  43.842   5.550
 8989POPC   PO458656  11.294  43.931   5.850
 8989POPC   GL158657  11.262  43.881   6.150
 8989POPC   GL258658  11.308  43.785   6.150
 8989POPC   C1A58659  11.338  43.880   6.450
 8989POPC   D2A58660  11.280  43.851   6.750
 8989POPC   C3A58661  11.330  43.903   7.050
 8989POPC   C4A58662  11.317  43.888   7.350
 8989POPC   C1B58663  11.248  43.674   6.450
 8989POPC   C2B58664  11.269  43.689   6.750
 8989POPC   C3B58665  11.198  43.622   7.050
 8989POPC   C4B58666  11.289  43.681   7.350
 8990POPC   NC358667  12.892  15.154   5.550
 8990POPC   PO458668  12.857  15.207   5.850
 8990POPC   GL158669  12.892  15.172   6.150
 8990POPC   GL258670  12.834  15.065   6.150
 8990POPC   C1A58671  12.882  15.184   6.450
 8990POPC   D2A58672  12.900  15.159   6.750
 8990POPC   C3A58673  12.830  15.199   7.050
 8990POPC   C4A58674  12.849  15.205   7.350
 8990POPC   C1B58675  12.873  14.926   6.450
 8990POPC   C2B58676  12.804  14.952   6.750
 8990POPC   C3B58677  12.827  14.960   7.050
 8990POPC   C4B58678  12.813  14.883   7.350
 8991POPC   NC358679  25.270  35.331   5.550
 8991POPC   PO458680  25.311  35.381   5.850
 8991POPC   GL158681  25.285  35.387   6.150
 8991POPC   GL258682  25.338  35.271   6.150
 8991POPC   C1A58683  25.275  35.315   6.450
 8991POPC   D2A58684  25.257  35.333   6.750
 8991POPC   C3A58685  25.304  35.320   7.050
 8991POPC   C4A58686  25.230  35.329   7.350
 8991POPC   C1B58687  25.335  35.089   6.450
 8991POPC   C2B58688  25.352  35.125   6.750
 8991POPC   C3B58689  25.359  35.155   7.050
 8991POPC   C4B58690  25.371  35.115   7.350
 8992POPC   NC358691  27.609   6.595   5.550
 8992POPC   PO458692  27.614   6.664   5.850
 8992POPC   GL158693  27.629   6.658   6.150
 8992POPC   GL258694  27.683   6.683   6.150
 8992POPC   C1A58695  27.612   6.655   6.450
 8992POPC   D2A58696  27.577   6.681   6.750
 8992POPC   C3A58697  27.584   6.692   7.050
 8992POPC   C4A58698  27.551   6.668   7.350
 8992POPC   C1B58699  27.790   6.806   6.450
 8992POPC   C2B58700  27.773   6.823   6.750
 8992POPC   C3B58701  27.829   6.783   7.050
 8992POPC   C4B58702  27.756   6.771   7.350
 8993POPC   NC358703   9.731  19.070   5.550
 8993POPC   PO458704   9.739  19.079   5.850
 8993POPC   GL158705   9.710  19.055   6.150
 8993POPC   GL258706   9.640  19.095   6.150
 8993POPC   C1A58707   9.781  19.078   6.450
 8993POPC   D2A58708   9.725  19.059   6.750
 8993POPC   C3A58709   9.789  19.027   7.050
 8993POPC   C4A58710   9.709  19.036   7.350
 8993POPC   C1B58711   9.476  19.028   6.450
 8993POPC   C2B58712   9.536  19.084   6.750
 8993POPC   C3B58713   9.476  19.018   7.050
 8993POPC   C4B58714   9.454  19.074   7.350
 8994POPC   NC358715  33.759   5.850   5.550
 8994POPC   PO458716  33.840   5.880   5.850
 8994POPC   GL158717  33.846   5.830   6.150
 8994POPC   GL258718  33.655   5.872   6.150
 8994POPC   C1A58719  33.834   5.850   6.450
 8994POPC   D2A58720  33.838   5.827   6.750
 8994POPC   C3A58721  33.750   5.824   7.050
 8994POPC   C4A58722  33.835   5.858   7.350
 8994POPC   C1B58723  33.600   5.900   6.450
 8994POPC   C2B58724  33.562   5.989   6.750
 8994POPC   C3B58725  33.595   5.982   7.050
 8994POPC   C4B58726  33.537   5.962   7.350
 8995POPC   NC358727   1.201  44.707   5.550
 8995POPC   PO458728   1.203  44.695   5.850
 8995POPC   GL158729   1.187  44.705   6.150
 8995POPC   GL258730   1.267  44.554   6.150
 8995POPC   C1A58731   1.167  44.661   6.450
 8995POPC   D2A58732   1.242  44.621   6.750
 8995POPC   C3A58733   1.235  44.622   7.050
 8995POPC   C4A58734   1.245  44.665   7.350
 8995POPC   C1B58735   1.421  44.485   6.450
 8995POPC   C2B58736   1.460  44.523   6.750
 8995POPC   C3B58737   1.461  44.474   7.050
 8995POPC   C4B58738   1.430  44.494   7.350
 8996POPC   NC358739  17.529  36.164   5.550
 8996POPC   PO458740  17.546  36.129   5.850
 8996POPC   GL158741  17.511  36.155   6.150
 8996POPC   GL258742  17.546  36.242   6.150
 8996POPC   C1A58743  17.466  36.154   6.450
 8996POPC   D2A58744  17.526  36.133   6.750
 8996POPC   C3A58745  17.464  36.167   7.050
 8996POPC   C4A58746  17.486  36.124   7.350
 8996POPC   C1B58747  17.542  36.427   6.450
 8996POPC   C2B58748  17.566  36.377   6.750
 8996POPC   C3B58749  17.561  36.337   7.050
 8996POPC   C4B58750  17.476  36.336   7.350
 8997POPC   NC358751  30.681   8.161   5.550
 8997POPC   PO458752  30.713   8.172   5.850
 8997POPC   GL158753  30.729   8.147   6.150
 8997POPC   GL258754  30.745   8.056   6.150
 8997POPC   C1A58755  30.744   8.214   6.450
 8997POPC   D2A58756  30.712   8.239   6.750
 8997POPC   C3A58757  30.736   8.195   7.050
 8997POPC   C4A58758  30.734   8.158   7.350
 8997POPC   C1B58759  30.710   7.964   6.450
 8997POPC   C2B58760  30.759   7.959   6.750
 8997POPC   C3B58761  30.672   7.962   7.050
 8997POPC   C4B58762  30.695   7.962   7.350
 8998POPC   NC358763  17.542  42.377   5.550
 8998POPC   PO458764  17.463  42.335   5.850
 8998POPC   GL158765  17.507  42.310   6.150
 8998POPC   GL258766  17.450  42.220   6.150
 8998POPC   C1A58767  17.527  42.340   6.450
 8998POPC   D2A58768  17.520  42.371   6.750
 8998POPC   C3A58769  17.498  42.343   7.050
 8998POPC   C4A58770  17.555  42.308   7.350
 8998POPC   C1B58771  17.432  42.064   6.450
 8998POPC   C2B58772  17.447  42.056   6.750
 8998POPC   C3B58773  17.430  42.056   7.050
 8998POPC   C4B58774  17.461  42.119   7.350
 8999POPC   NC358775  29.187   9.731   5.550
 8999POPC   PO458776  29.142   9.729   5.850
 8999POPC   GL158777  29.156   9.716   6.150
 8999POPC   GL258778  29.229   9.643   6.150
 8999POPC   C1A58779  29.145   9.771   6.450
 8999POPC   D2A58780  29.194   9.700   6.750
 8999POPC   C3A58781  29.098   9.788   7.050
 8999POPC   C4A58782  29.123   9.704   7.350
 8999POPC   C1B58783  29.297   9.607   6.450
 8999POPC   C2B58784  29.368   9.635   6.750
 8999POPC   C3B58785  29.334   9.557   7.050
 8999POPC   C4B58786  29.361   9.599   7.350
 9000POPC   NC358787  16.733  12.863   5.550
 9000POPC   PO458788  16.715  12.881   5.850
 9000POPC   GL158789  16.729  12.806   6.150
 9000POPC   GL258790  16.692  12.994   6.150
 9000POPC   C1A58791  16.751  12.859   6.450
 9000POPC   D2A58792  16.752  12.869   6.750
 9000POPC   C3A58793  16.685  12.866   7.050
 9000POPC   C4A58794  16.696  12.852   7.350
 9000POPC   C1B58795  16.719  13.079   6.450
 9000POPC   C2B58796  16.682  13.095   6.750
 9000POPC   C3B58797  16.698  13.118   7.050
 9000POPC   C4B58798  16.653  13.146   7.350
 9001POPC   NC358799   1.221  39.214   5.550
 9001POPC   PO458800   1.185  39.253   5.850
 9001POPC   GL158801   1.207  39.193   6.150
 9001POPC   GL258802   1.110  39.174   6.150
 9001POPC   C1A58803   1.250  39.193   6.450
 9001POPC   D2A58804   1.202  39.187   6.750
 9001POPC   C3A58805   1.246  39.267   7.050
 9001POPC   C4A58806   1.167  39.222   7.350
 9001POPC   C1B58807   0.980  39.193   6.450
 9001POPC   C2B58808   0.982  39.121   6.750
 9001POPC   C3B58809   0.931  39.134   7.050
 9001POPC   C4B58810   0.994  39.114   7.350
 9002POPC   NC358811  44.629  21.394   5.550
 9002POPC   PO458812  44.681  21.358   5.850
 9002POPC   GL158813  44.660  21.371   6.150
 9002POPC   GL258814  44.593  21.319   6.150
 9002POPC   C1A58815  44.655  21.344   6.450
 9002POPC   D2A58816  44.613  21.407   6.750
 9002POPC   C3A58817  44.660  21.366   7.050
 9002POPC   C4A58818  44.680  21.346   7.350
 9002POPC   C1B58819  44.476  21.256   6.450
 9002POPC   C2B58820  44.487  21.232   6.750
 9002POPC   C3B58821  44.456  21.293   7.050
 9002POPC   C4B58822  44.473  21.304   7.350
 9003POPC   NC358823  40.795   5.825   5.550
 9003POPC   PO458824  40.767   5.845   5.850
 9003POPC   GL158825  40.738   5.828   6.150
 9003POPC   GL258826  40.947   5.813   6.150
 9003POPC   C1A58827  40.733   5.839   6.450
 9003POPC   D2A58828  40.781   5.900   6.750
 9003POPC   C3A58829  40.757   5.876   7.050
 9003POPC   C4A58830  40.737   5.838   7.350
 9003POPC   C1B58831  41.039   5.799   6.450
 9003POPC   C2B58832  41.002   5.767   6.750
 9003POPC   C3B58833  40.977   5.812   7.050
 9003POPC   C4B58834  41.024   5.815   7.350
 9004POPC   NC358835  26.857  30.708   5.550
 9004POPC   PO458836  26.862  30.659   5.850
 9004POPC   GL158837  26.845  30.647   6.150
 9004POPC   GL258838  26.922  30.642   6.150
 9004POPC   C1A58839  26.855  30.736   6.450
 9004POPC   D2A58840  26.787  30.683   6.750
 9004POPC   C3A58841  26.818  30.674   7.050
 9004POPC   C4A58842  26.850  30.662   7.350
 9004POPC   C1B58843  26.993  30.542   6.450
 9004POPC   C2B58844  27.006  30.596   6.750
 9004POPC   C3B58845  27.029  30.601   7.050
 9004POPC   C4B58846  26.996  30.605   7.350
 9005POPC   NC358847   7.378  21.377   5.550
 9005POPC   PO458848   7.461  21.421   5.850
 9005POPC   GL158849   7.399  21.371   6.150
 9005POPC   GL258850   7.496  21.529   6.150
 9005POPC   C1A58851   7.466  21.354   6.450
 9005POPC   D2A58852   7.447  21.420   6.750
 9005POPC   C3A58853   7.444  21.367   7.050
 9005POPC   C4A58854   7.436  21.385   7.350
 9005POPC   C1B58855   7.553  21.572   6.450
 9005POPC   C2B58856   7.572  21.559   6.750
 9005POPC   C3B58857   7.556  21.546   7.050
 9005POPC   C4B58858   7.595  21.604   7.350
 9006POPC   NC358859   2.771  12.826   5.550
 9006POPC   PO458860   2.717  12.821   5.850
 9006POPC   GL158861   2.762  12.808   6.150
 9006POPC   GL258862   2.878  12.846   6.150
 9006POPC   C1A58863   2.719  12.892   6.450
 9006POPC   D2A58864   2.718  12.900   6.750
 9006POPC   C3A58865   2.803  12.871   7.050
 9006POPC   C4A58866   2.732  12.878   7.350
 9006POPC   C1B58867   3.053  12.851   6.450
 9006POPC   C2B58868   3.059  12.762   6.750
 9006POPC   C3B58869   2.981  12.855   7.050
 9006POPC   C4B58870   3.006  12.855   7.350
 9007POPC   NC358871  40.036  19.828   5.550
 9007POPC   PO458872  40.038  19.839   5.850
 9007POPC   GL158873  39.963  19.874   6.150
 9007POPC   GL258874  40.076  19.920   6.150
 9007POPC   C1A58875  39.994  19.850   6.450
 9007POPC   D2A58876  39.982  19.814   6.750
 9007POPC   C3A58877  40.038  19.808   7.050
 9007POPC   C4A58878  40.030  19.797   7.350
 9007POPC   C1B58879  40.163  20.040   6.450
 9007POPC   C2B58880  40.126  20.037   6.750
 9007POPC   C3B58881  40.120  19.989   7.050
 9007POPC   C4B58882  40.188  20.025   7.350
 9008POPC   NC358883  36.111  41.514   5.550
 9008POPC   PO458884  36.140  41.520   5.850
 9008POPC   GL158885  36.121  41.573   6.150
 9008POPC   GL258886  36.074  41.662   6.150
 9008POPC   C1A58887  36.081  41.579   6.450
 9008POPC   D2A58888  36.121  41.561   6.750
 9008POPC   C3A58889  36.147  41.544   7.050
 9008POPC   C4A58890  36.095  41.566   7.350
 9008POPC   C1B58891  35.934  41.781   6.450
 9008POPC   C2B58892  35.942  41.778   6.750
 9008POPC   C3B58893  35.908  41.749   7.050
 9008POPC   C4B58894  35.962  41.764   7.350
 9009POPC   NC358895  32.240   6.679   5.550
 9009POPC   PO458896  32.210   6.648   5.850
 9009POPC   GL158897  32.287   6.650   6.150
 9009POPC   GL258898  32.140   6.730   6.150
 9009POPC   C1A58899  32.291   6.635   6.450
 9009POPC   D2A58900  32.199   6.669   6.750
 9009POPC   C3A58901  32.290   6.607   7.050
 9009POPC   C4A58902  32.226   6.623   7.350
 9009POPC   C1B58903  32.160   6.815   6.450
 9009POPC   C2B58904  32.156   6.852   6.750
 9009POPC   C3B58905  32.097   6.858   7.050
 9009POPC   C4B58906  32.074   6.868   7.350
 9010POPC   NC358907  35.385  44.620   5.550
 9010POPC   PO458908  35.365  44.711   5.850
 9010POPC   GL158909  35.393  44.629   6.150
 9010POPC   GL258910  35.361  44.779   6.150
 9010POPC   C1A58911  35.303  44.613   6.450
 9010POPC   D2A58912  35.393  44.707   6.750
 9010POPC   C3A58913  35.334  44.678   7.050
 9010POPC   C4A58914  35.392  44.630   7.350
 9010POPC   C1B58915  35.352  44.869   6.450
 9010POPC   C2B58916  35.314  44.939   6.750
 9010POPC   C3B58917  35.307  44.871   7.050
 9010POPC   C4B58918  35.287  44.942   7.350
 9011POPC   NC358919  21.432  22.963   5.550
 9011POPC   PO458920  21.340  22.952   5.850
 9011POPC   GL158921  21.433  22.960   6.150
 9011POPC   GL258922  21.221  22.977   6.150
 9011POPC   C1A58923  21.408  22.923   6.450
 9011POPC   D2A58924  21.355  22.966   6.750
 9011POPC   C3A58925  21.354  22.954   7.050
 9011POPC   C4A58926  21.346  22.892   7.350
 9011POPC   C1B58927  21.112  22.957   6.450
 9011POPC   C2B58928  21.096  22.967   6.750
 9011POPC   C3B58929  21.140  22.933   7.050
 9011POPC   C4B58930  21.145  22.991   7.350
 9012POPC   NC358931   9.758  32.248   5.550
 9012POPC   PO458932   9.720  32.248   5.850
 9012POPC   GL158933   9.790  32.239   6.150
 9012POPC   GL258934   9.836  32.110   6.150
 9012POPC   C1A58935   9.794  32.210   6.450
 9012POPC   D2A58936   9.780  32.293   6.750
 9012POPC   C3A58937   9.746  32.206   7.050
 9012POPC   C4A58938   9.780  32.227   7.350
 9012POPC   C1B58939   9.889  32.042   6.450
 9012POPC   C2B58940   9.968  32.039   6.750
 9012POPC   C3B58941   9.948  32.111   7.050
 9012POPC   C4B58942   9.920  32.039   7.350
 9013POPC   NC358943  13.612  36.896   5.550
 9013POPC   PO458944  13.657  36.948   5.850
 9013POPC   GL158945  13.636  36.884   6.150
 9013POPC   GL258946  13.526  36.970   6.150
 9013POPC   C1A58947  13.661  36.889   6.450
 9013POPC   D2A58948  13.613  36.862   6.750
 9013POPC   C3A58949  13.644  36.894   7.050
 9013POPC   C4A58950  13.596  36.926   7.350
 9013POPC   C1B58951  13.550  37.081   6.450
 9013POPC   C2B58952  13.535  37.093   6.750
 9013POPC   C3B58953  13.500  37.133   7.050
 9013POPC   C4B58954  13.466  37.130   7.350
 9014POPC   NC358955  23.704   8.162   5.550
 9014POPC   PO458956  23.736   8.177   5.850
 9014POPC   GL158957  23.713   8.187   6.150
 9014POPC   GL258958  23.625   8.122   6.150
 9014POPC   C1A58959  23.701   8.192   6.450
 9014POPC   D2A58960  23.683   8.241   6.750
 9014POPC   C3A58961  23.747   8.212   7.050
 9014POPC   C4A58962  23.682   8.203   7.350
 9014POPC   C1B58963  23.438   8.140   6.450
 9014POPC   C2B58964  23.475   8.122   6.750
 9014POPC   C3B58965  23.467   8.132   7.050
 9014POPC   C4B58966  23.482   8.163   7.350
 9015POPC   NC358967   9.014  39.979   5.550
 9015POPC   PO458968   8.987  40.018   5.850
 9015POPC   GL158969   8.969  40.027   6.150
 9015POPC   GL258970   8.879  39.991   6.150
 9015POPC   C1A58971   9.020  39.989   6.450
 9015POPC   D2A58972   9.011  40.004   6.750
 9015POPC   C3A58973   9.003  40.053   7.050
 9015POPC   C4A58974   8.960  39.966   7.350
 9015POPC   C1B58975   8.733  39.997   6.450
 9015POPC   C2B58976   8.733  39.973   6.750
 9015POPC   C3B58977   8.762  39.961   7.050
 9015POPC   C4B58978   8.729  39.917   7.350
 9016POPC   NC358979  28.331  34.580   5.550
 9016POPC   PO458980  28.379  34.570   5.850
 9016POPC   GL158981  28.415  34.556   6.150
 9016POPC   GL258982  28.441  34.592   6.150
 9016POPC   C1A58983  28.386  34.555   6.450
 9016POPC   D2A58984  28.345  34.540   6.750
 9016POPC   C3A58985  28.417  34.622   7.050
 9016POPC   C4A58986  28.351  34.593   7.350
 9016POPC   C1B58987  28.545  34.743   6.450
 9016POPC   C2B58988  28.546  34.665   6.750
 9016POPC   C3B58989  28.574  34.733   7.050
 9016POPC   C4B58990  28.582  34.740   7.350
 9017POPC   NC358991   5.843  21.399   5.550
 9017POPC   PO458992   5.841  21.363   5.850
 9017POPC   GL158993   5.887  21.420   6.150
 9017POPC   GL258994   5.804  21.458   6.150
 9017POPC   C1A58995   5.823  21.371   6.450
 9017POPC   D2A58996   5.825  21.409   6.750
 9017POPC   C3A58997   5.849  21.357   7.050
 9017POPC   C4A58998   5.864  21.411   7.350
 9017POPC   C1B58999   5.625  21.553   6.450
 9017POPC   C2B59000   5.647  21.524   6.750
 9017POPC   C3B59001   5.612  21.568   7.050
 9017POPC   C4B59002   5.667  21.496   7.350
 9018POPC   NC359003  17.471  21.407   5.550
 9018POPC   PO459004  17.464  21.366   5.850
 9018POPC   GL159005  17.551  21.380   6.150
 9018POPC   GL259006  17.398  21.488   6.150
 9018POPC   C1A59007  17.465  21.415   6.450
 9018POPC   D2A59008  17.557  21.365   6.750
 9018POPC   C3A59009  17.510  21.395   7.050
 9018POPC   C4A59010  17.499  21.413   7.350
 9018POPC   C1B59011  17.327  21.557   6.450
 9018POPC   C2B59012  17.287  21.591   6.750
 9018POPC   C3B59013  17.360  21.511   7.050
 9018POPC   C4B59014  17.323  21.575   7.350
 9019POPC   NC359015  31.462  15.992   5.550
 9019POPC   PO459016  31.514  15.926   5.850
 9019POPC   GL159017  31.452  15.913   6.150
 9019POPC   GL259018  31.386  16.017   6.150
 9019POPC   C1A59019  31.509  15.933   6.450
 9019POPC   D2A59020  31.452  15.925   6.750
 9019POPC   C3A59021  31.490  15.990   7.050
 9019POPC   C4A59022  31.480  15.972   7.350
 9019POPC   C1B59023  31.213  16.012   6.450
 9019POPC   C2B59024  31.263  16.027   6.750
 9019POPC   C3B59025  31.245  16.059   7.050
 9019POPC   C4B59026  31.223  15.993   7.350
 9020POPC   NC359027  24.518  29.871   5.550
 9020POPC   PO459028  24.483  29.891   5.850
 9020POPC   GL159029  24.523  29.925   6.150
 9020POPC   GL259030  24.359  29.969   6.150
 9020POPC   C1A59031  24.532  29.953   6.450
 9020POPC   D2A59032  24.447  29.916   6.750
 9020POPC   C3A59033  24.451  29.892   7.050
 9020POPC   C4A59034  24.457  29.872   7.350
 9020POPC   C1B59035  24.286  29.973   6.450
 9020POPC   C2B59036  24.212  29.988   6.750
 9020POPC   C3B59037  24.231  29.938   7.050
 9020POPC   C4B59038  24.289  29.984   7.350
 9021POPC   NC359039  22.179  36.087   5.550
 9021POPC   PO459040  22.208  36.121   5.850
 9021POPC   GL159041  22.150  36.110   6.150
 9021POPC   GL259042  22.240  36.072   6.150
 9021POPC   C1A59043  22.172  36.138   6.450
 9021POPC   D2A59044  22.178  36.152   6.750
 9021POPC   C3A59045  22.185  36.109   7.050
 9021POPC   C4A59046  22.133  36.118   7.350
 9021POPC   C1B59047  22.399  36.085   6.450
 9021POPC   C2B59048  22.392  36.122   6.750
 9021POPC   C3B59049  22.361  36.097   7.050
 9021POPC   C4B59050  22.443  36.095   7.350
 9022POPC   NC359051   5.068  43.078   5.550
 9022POPC   PO459052   5.060  43.061   5.850
 9022POPC   GL159053   5.109  43.136   6.150
 9022POPC   GL259054   5.109  43.201   6.150
 9022POPC   C1A59055   5.085  43.060   6.450
 9022POPC   D2A59056   5.116  43.146   6.750
 9022POPC   C3A59057   5.125  43.124   7.050
 9022POPC   C4A59058   5.103  43.136   7.350
 9022POPC   C1B59059   5.045  43.336   6.450
 9022POPC   C2B59060   5.078  43.313   6.750
 9022POPC   C3B59061   5.072  43.349   7.050
 9022POPC   C4B59062   5.105  43.405   7.350
 9023POPC   NC359063  11.283  39.998   5.550
 9023POPC   PO459064  11.301  39.991   5.850
 9023POPC   GL159065  11.310  40.046   6.150
 9023POPC   GL259066  11.266  39.861   6.150
 9023POPC   C1A59067  11.329  40.033   6.450
 9023POPC   D2A59068  11.313  40.009   6.750
 9023POPC   C3A59069  11.251  40.031   7.050
 9023POPC   C4A59070  11.336  40.008   7.350
 9023POPC   C1B59071  11.214  39.734   6.450
 9023POPC   C2B59072  11.187  39.750   6.750
 9023POPC   C3B59073  11.267  39.818   7.050
 9023POPC   C4B59074  11.174  39.741   7.350
 9024POPC   NC359075  36.902  28.406   5.550
 9024POPC   PO459076  36.947  28.400   5.850
 9024POPC   GL159077  36.908  28.319   6.150
 9024POPC   GL259078  36.791  28.479   6.150
 9024POPC   C1A59079  36.864  28.367   6.450
 9024POPC   D2A59080  36.936  28.334   6.750
 9024POPC   C3A59081  36.935  28.411   7.050
 9024POPC   C4A59082  36.884  28.361   7.350
 9024POPC   C1B59083  36.816  28.543   6.450
 9024POPC   C2B59084  36.792  28.601   6.750
 9024POPC   C3B59085  36.760  28.542   7.050
 9024POPC   C4B59086  36.770  28.587   7.350
 9025POPC   NC359087  36.865  19.872   5.550
 9025POPC   PO459088  36.924  19.845   5.850
 9025POPC   GL159089  36.952  19.812   6.150
 9025POPC   GL259090  36.957  19.725   6.150
 9025POPC   C1A59091  36.907  19.843   6.450
 9025POPC   D2A59092  36.869  19.810   6.750
 9025POPC   C3A59093  36.905  19.864   7.050
 9025POPC   C4A59094  36.902  19.821   7.350
 9025POPC   C1B59095  36.979  19.579   6.450
 9025POPC   C2B59096  37.016  19.649   6.750
 9025POPC   C3B59097  37.064  19.643   7.050
 9025POPC   C4B59098  37.035  19.571   7.350
 9026POPC   NC359099  43.131  41.514   5.550
 9026POPC   PO459100  43.116  41.569   5.850
 9026POPC   GL159101  43.081  41.554   6.150
 9026POPC   GL259102  43.236  41.500   6.150
 9026POPC   C1A59103  43.069  41.560   6.450
 9026POPC   D2A59104  43.074  41.583   6.750
 9026POPC   C3A59105  43.131  41.539   7.050
 9026POPC   C4A59106  43.078  41.547   7.350
 9026POPC   C1B59107  43.347  41.452   6.450
 9026POPC   C2B59108  43.365  41.372   6.750
 9026POPC   C3B59109  43.321  41.411   7.050
 9026POPC   C4B59110  43.311  41.387   7.350
 9027POPC   NC359111   5.832  13.595   5.550
 9027POPC   PO459112   5.824  13.670   5.850
 9027POPC   GL159113   5.863  13.644   6.150
 9027POPC   GL259114   5.948  13.603   6.150
 9027POPC   C1A59115   5.832  13.672   6.450
 9027POPC   D2A59116   5.893  13.580   6.750
 9027POPC   C3A59117   5.854  13.639   7.050
 9027POPC   C4A59118   5.825  13.675   7.350
 9027POPC   C1B59119   6.100  13.660   6.450
 9027POPC   C2B59120   6.088  13.609   6.750
 9027POPC   C3B59121   6.169  13.656   7.050
 9027POPC   C4B59122   6.069  13.640   7.350
 9028POPC   NC359123  39.969   1.217   5.550
 9028POPC   PO459124  39.980   1.255   5.850
 9028POPC   GL159125  40.014   1.194   6.150
 9028POPC   GL259126  40.106   1.084   6.150
 9028POPC   C1A59127  40.034   1.241   6.450
 9028POPC   D2A59128  40.009   1.192   6.750
 9028POPC   C3A59129  40.029   1.190   7.050
 9028POPC   C4A59130  40.029   1.230   7.350
 9028POPC   C1B59131  40.217   1.042   6.450
 9028POPC   C2B59132  40.159   1.092   6.750
 9028POPC   C3B59133  40.222   1.035   7.050
 9028POPC   C4B59134  40.185   1.028   7.350
 9029POPC   NC359135  39.232   7.410   5.550
 9029POPC   PO459136  39.272   7.461   5.850
 9029POPC   GL159137  39.221   7.412   6.150
 9029POPC   GL259138  39.360   7.309   6.150
 9029POPC   C1A59139  39.224   7.449   6.450
 9029POPC   D2A59140  39.211   7.380   6.750
 9029POPC   C3A59141  39.268   7.383   7.050
 9029POPC   C4A59142  39.220   7.402   7.350
 9029POPC   C1B59143  39.403   7.235   6.450
 9029POPC   C2B59144  39.437   7.296   6.750
 9029POPC   C3B59145  39.467   7.300   7.050
 9029POPC   C4B59146  39.395   7.264   7.350
 9030POPC   NC359147  15.217  42.358   5.550
 9030POPC   PO459148  15.200  42.362   5.850
 9030POPC   GL159149  15.160  42.288   6.150
 9030POPC   GL259150  15.028  42.328   6.150
 9030POPC   C1A59151  15.219  42.354   6.450
 9030POPC   D2A59152  15.141  42.321   6.750
 9030POPC   C3A59153  15.186  42.376   7.050
 9030POPC   C4A59154  15.195  42.369   7.350
 9030POPC   C1B59155  14.936  42.336   6.450
 9030POPC   C2B59156  14.952  42.397   6.750
 9030POPC   C3B59157  14.937  42.380   7.050
 9030POPC   C4B59158  14.913  42.436   7.350
 9031POPC   NC359159  18.236  29.885   5.550
 9031POPC   PO459160  18.315  29.920   5.850
 9031POPC   GL159161  18.323  29.924   6.150
 9031POPC   GL259162  18.157  29.985   6.150
 9031POPC   C1A59163  18.236  29.966   6.450
 9031POPC   D2A59164  18.248  29.911   6.750
 9031POPC   C3A59165  18.327  29.885   7.050
 9031POPC   C4A59166  18.300  29.914   7.350
 9031POPC   C1B59167  18.061  29.971   6.450
 9031POPC   C2B59168  18.028  29.961   6.750
 9031POPC   C3B59169  18.080  29.988   7.050
 9031POPC   C4B59170  17.998  29.951   7.350
 9032POPC   NC359171  24.489  19.104   5.550
 9032POPC   PO459172  24.520  19.105   5.850
 9032POPC   GL159173  24.474  19.020   6.150
 9032POPC   GL259174  24.434  18.938   6.150
 9032POPC   C1A59175  24.495  19.021   6.450
 9032POPC   D2A59176  24.459  19.098   6.750
 9032POPC   C3A59177  24.485  19.101   7.050
 9032POPC   C4A59178  24.492  19.066   7.350
 9032POPC   C1B59179  24.267  18.868   6.450
 9032POPC   C2B59180  24.309  18.952   6.750
 9032POPC   C3B59181  24.311  18.860   7.050
 9032POPC   C4B59182  24.259  18.873   7.350
 9033POPC   NC359183  17.466   8.940   5.550
 9033POPC   PO459184  17.516   8.955   5.850
 9033POPC   GL159185  17.488   9.008   6.150
 9033POPC   GL259186  17.588   8.836   6.150
 9033POPC   C1A59187  17.460   8.980   6.450
 9033POPC   D2A59188  17.526   8.950   6.750
 9033POPC   C3A59189  17.528   8.965   7.050
 9033POPC   C4A59190  17.514   8.945   7.350
 9033POPC   C1B59191  17.687   8.760   6.450
 9033POPC   C2B59192  17.691   8.802   6.750
 9033POPC   C3B59193  17.662   8.839   7.050
 9033POPC   C4B59194  17.635   8.818   7.350
 9034POPC   NC359195  18.241  13.611   5.550
 9034POPC   PO459196  18.242  13.608   5.850
 9034POPC   GL159197  18.320  13.606   6.150
 9034POPC   GL259198  18.376  13.653   6.150
 9034POPC   C1A59199  18.318  13.587   6.450
 9034POPC   D2A59200  18.269  13.639   6.750
 9034POPC   C3A59201  18.297  13.671   7.050
 9034POPC   C4A59202  18.241  13.644   7.350
 9034POPC   C1B59203  18.525  13.679   6.450
 9034POPC   C2B59204  18.559  13.609   6.750
 9034POPC   C3B59205  18.578  13.617   7.050
 9034POPC   C4B59206  18.539  13.636   7.350
 9035POPC   NC359207  16.754  42.288   5.550
 9035POPC   PO459208  16.723  42.373   5.850
 9035POPC   GL159209  16.770  42.296   6.150
 9035POPC   GL259210  16.796  42.218   6.150
 9035POPC   C1A59211  16.685  42.325   6.450
 9035POPC   D2A59212  16.733  42.324   6.750
 9035POPC   C3A59213  16.731  42.384   7.050
 9035POPC   C4A59214  16.705  42.372   7.350
 9035POPC   C1B59215  16.814  42.052   6.450
 9035POPC   C2B59216  16.765  42.095   6.750
 9035POPC   C3B59217  16.813  42.082   7.050
 9035POPC   C4B59218  16.804  42.101   7.350
 9036POPC   NC359219  40.025  12.864   5.550
 9036POPC   PO459220  40.015  12.874   5.850
 9036POPC   GL159221  40.051  12.878   6.150
 9036POPC   GL259222  39.923  12.752   6.150
 9036POPC   C1A59223  39.971  12.806   6.450
 9036POPC   D2A59224  39.982  12.880   6.750
 9036POPC   C3A59225  40.043  12.845   7.050
 9036POPC   C4A59226  39.985  12.830   7.350
 9036POPC   C1B59227  39.801  12.750   6.450
 9036POPC   C2B59228  39.754  12.665   6.750
 9036POPC   C3B59229  39.837  12.750   7.050
 9036POPC   C4B59230  39.791  12.752   7.350
 9037POPC   NC359231   1.997  13.602   5.550
 9037POPC   PO459232   1.942  13.584   5.850
 9037POPC   GL159233   1.980  13.647   6.150
 9037POPC   GL259234   2.022  13.766   6.150
 9037POPC   C1A59235   1.987  13.665   6.450
 9037POPC   D2A59236   1.964  13.664   6.750
 9037POPC   C3A59237   1.998  13.619   7.050
 9037POPC   C4A59238   1.963  13.637   7.350
 9037POPC   C1B59239   2.029  13.836   6.450
 9037POPC   C2B59240   2.039  13.898   6.750
 9037POPC   C3B59241   2.080  13.877   7.050
 9037POPC   C4B59242   2.097  13.841   7.350
 9038POPC   NC359243   4.356  30.724   5.550
 9038POPC   PO459244   4.279  30.697   5.850
 9038POPC   GL159245   4.338  30.681   6.150
 9038POPC   GL259246   4.338  30.606   6.150
 9038POPC   C1A59247   4.327  30.712   6.450
 9038POPC   D2A59248   4.298  30.737   6.750
 9038POPC   C3A59249   4.313  30.680   7.050
 9038POPC   C4A59250   4.337  30.676   7.350
 9038POPC   C1B59251   4.471  30.507   6.450
 9038POPC   C2B59252   4.501  30.439   6.750
 9038POPC   C3B59253   4.472  30.440   7.050
 9038POPC   C4B59254   4.450  30.439   7.350
 9039POPC   NC359255  25.293   3.570   5.550
 9039POPC   PO459256  25.308   3.575   5.850
 9039POPC   GL159257  25.233   3.538   6.150
 9039POPC   GL259258  25.196   3.514   6.150
 9039POPC   C1A59259  25.244   3.492   6.450
 9039POPC   D2A59260  25.259   3.530   6.750
 9039POPC   C3A59261  25.313   3.580   7.050
 9039POPC   C4A59262  25.278   3.531   7.350
 9039POPC   C1B59263  25.061   3.459   6.450
 9039POPC   C2B59264  25.101   3.389   6.750
 9039POPC   C3B59265  25.088   3.384   7.050
 9039POPC   C4B59266  25.006   3.370   7.350
 9040POPC   NC359267  18.331   9.778   5.550
 9040POPC   PO459268  18.269   9.747   5.850
 9040POPC   GL159269  18.280   9.742   6.150
 9040POPC   GL259270  18.197   9.673   6.150
 9040POPC   C1A59271  18.254   9.763   6.450
 9040POPC   D2A59272  18.284   9.775   6.750
 9040POPC   C3A59273  18.275   9.773   7.050
 9040POPC   C4A59274  18.290   9.699   7.350
 9040POPC   C1B59275  18.120   9.568   6.450
 9040POPC   C2B59276  18.120   9.566   6.750
 9040POPC   C3B59277  18.177   9.546   7.050
 9040POPC   C4B59278  18.174   9.493   7.350
 9041POPC   NC359279  36.095   1.964   5.550
 9041POPC   PO459280  36.147   1.970   5.850
 9041POPC   GL159281  36.140   1.964   6.150
 9041POPC   GL259282  36.253   1.941   6.150
 9041POPC   C1A59283  36.086   1.970   6.450
 9041POPC   D2A59284  36.101   1.944   6.750
 9041POPC   C3A59285  36.103   1.999   7.050
 9041POPC   C4A59286  36.161   1.987   7.350
 9041POPC   C1B59287  36.395   1.955   6.450
 9041POPC   C2B59288  36.321   1.967   6.750
 9041POPC   C3B59289  36.410   1.926   7.050
 9041POPC   C4B59290  36.349   1.888   7.350
 9042POPC   NC359291  25.296  19.788   5.550
 9042POPC   PO459292  25.300  19.857   5.850
 9042POPC   GL159293  25.274  19.855   6.150
 9042POPC   GL259294  25.352  19.712   6.150
 9042POPC   C1A59295  25.315  19.881   6.450
 9042POPC   D2A59296  25.314  19.868   6.750
 9042POPC   C3A59297  25.234  19.790   7.050
 9042POPC   C4A59298  25.276  19.803   7.350
 9042POPC   C1B59299  25.412  19.682   6.450
 9042POPC   C2B59300  25.410  19.632   6.750
 9042POPC   C3B59301  25.413  19.640   7.050
 9042POPC   C4B59302  25.483  19.644   7.350
 9043POPC   NC359303  29.884   7.449   5.550
 9043POPC   PO459304  29.916   7.385   5.850
 9043POPC   GL159305  29.931   7.430   6.150
 9043POPC   GL259306  29.916   7.266   6.150
 9043POPC   C1A59307  29.927   7.405   6.450
 9043POPC   D2A59308  29.895   7.437   6.750
 9043POPC   C3A59309  29.924   7.451   7.050
 9043POPC   C4A59310  29.917   7.390   7.350
 9043POPC   C1B59311  29.884   7.185   6.450
 9043POPC   C2B59312  29.927   7.188   6.750
 9043POPC   C3B59313  29.898   7.154   7.050
 9043POPC   C4B59314  29.919   7.138   7.350
 9044POPC   NC359315   0.424   5.073   5.550
 9044POPC   PO459316   0.395   5.140   5.850
 9044POPC   GL159317   0.414   5.053   6.150
 9044POPC   GL259318   0.425   4.930   6.150
 9044POPC   C1A59319   0.483   5.118   6.450
 9044POPC   D2A59320   0.445   5.087   6.750
 9044POPC   C3A59321   0.421   5.099   7.050
 9044POPC   C4A59322   0.463   5.113   7.350
 9044POPC   C1B59323   0.372   4.841   6.450
 9044POPC   C2B59324   0.403   4.840   6.750
 9044POPC   C3B59325   0.441   4.868   7.050
 9044POPC   C4B59326   0.454   4.887   7.350
 9045POPC   NC359327  33.788   0.404   5.550
 9045POPC   PO459328  33.805   0.434   5.850
 9045POPC   GL159329  33.814   0.423   6.150
 9045POPC   GL259330  33.713   0.548   6.150
 9045POPC   C1A59331  33.818   0.390   6.450
 9045POPC   D2A59332  33.828   0.391   6.750
 9045POPC   C3A59333  33.824   0.449   7.050
 9045POPC   C4A59334  33.775   0.389   7.350
 9045POPC   C1B59335  33.689   0.698   6.450
 9045POPC   C2B59336  33.724   0.696   6.750
 9045POPC   C3B59337  33.677   0.690   7.050
 9045POPC   C4B59338  33.704   0.704   7.350
 9046POPC   NC359339   1.949  29.924   5.550
 9046POPC   PO459340   2.027  29.894   5.850
 9046POPC   GL159341   1.979  29.937   6.150
 9046POPC   GL259342   2.057  29.869   6.150
 9046POPC   C1A59343   1.993  29.911   6.450
 9046POPC   D2A59344   2.013  29.897   6.750
 9046POPC   C3A59345   2.011  29.925   7.050
 9046POPC   C4A59346   2.010  29.963   7.350
 9046POPC   C1B59347   2.159  29.769   6.450
 9046POPC   C2B59348   2.158  29.762   6.750
 9046POPC   C3B59349   2.228  29.810   7.050
 9046POPC   C4B59350   2.191  29.786   7.350
 9047POPC   NC359351   8.945   2.751   5.550
 9047POPC   PO459352   8.979   2.779   5.850
 9047POPC   GL159353   9.007   2.745   6.150
 9047POPC   GL259354   8.803   2.752   6.150
 9047POPC   C1A59355   8.940   2.735   6.450
 9047POPC   D2A59356   8.942   2.726   6.750
 9047POPC   C3A59357   8.991   2.768   7.050
 9047POPC   C4A59358   8.997   2.796   7.350
 9047POPC   C1B59359   8.687   2.777   6.450
 9047POPC   C2B59360   8.760   2.810   6.750
 9047POPC   C3B59361   8.727   2.815   7.050
 9047POPC   C4B59362   8.731   2.823   7.350
 9048POPC   NC359363  17.493   6.670   5.550
 9048POPC   PO459364  17.536   6.684   5.850
 9048POPC   GL159365  17.516   6.612   6.150
 9048POPC   GL259366  17.442   6.630   6.150
 9048POPC   C1A59367  17.529   6.629   6.450
 9048POPC   D2A59368  17.517   6.634   6.750
 9048POPC   C3A59369  17.496   6.599   7.050
 9048POPC   C4A59370  17.486   6.677   7.350
 9048POPC   C1B59371  17.259   6.553   6.450
 9048POPC   C2B59372  17.284   6.589   6.750
 9048POPC   C3B59373  17.236   6.561   7.050
 9048POPC   C4B59374  17.318   6.548   7.350
 9049POPC   NC359375  41.509   7.391   5.550
 9049POPC   PO459376  41.554   7.381   5.850
 9049POPC   GL159377  41.596   7.470   6.150
 9049POPC   GL259378  41.668   7.437   6.150
 9049POPC   C1A59379  41.553   7.417   6.450
 9049POPC   D2A59380  41.539   7.391   6.750
 9049POPC   C3A59381  41.605   7.461   7.050
 9049POPC   C4A59382  41.540   7.437   7.350
 9049POPC   C1B59383  41.762   7.454   6.450
 9049POPC   C2B59384  41.776   7.505   6.750
 9049POPC   C3B59385  41.788   7.502   7.050
 9049POPC   C4B59386  41.796   7.438   7.350
 9050POPC   NC359387  33.849  15.199   5.550
 9050POPC   PO459388  33.809  15.145   5.850
 9050POPC   GL159389  33.783  15.189   6.150
 9050POPC   GL259390  33.851  15.317   6.150
 9050POPC   C1A59391  33.837  15.212   6.450
 9050POPC   D2A59392  33.769  15.177   6.750
 9050POPC   C3A59393  33.771  15.139   7.050
 9050POPC   C4A59394  33.768  15.226   7.350
 9050POPC   C1B59395  33.812  15.470   6.450
 9050POPC   C2B59396  33.821  15.392   6.750
 9050POPC   C3B59397  33.848  15.469   7.050
 9050POPC   C4B59398  33.857  15.471   7.350
 9051POPC   NC359399   2.801  20.600   5.550
 9051POPC   PO459400   2.812  20.564   5.850
 9051POPC   GL159401   2.762  20.582   6.150
 9051POPC   GL259402   2.690  20.766   6.150
 9051POPC   C1A59403   2.717  20.598   6.450
 9051POPC   D2A59404   2.719  20.600   6.750
 9051POPC   C3A59405   2.719  20.578   7.050
 9051POPC   C4A59406   2.806  20.652   7.350
 9051POPC   C1B59407   2.713  20.881   6.450
 9051POPC   C2B59408   2.649  20.834   6.750
 9051POPC   C3B59409   2.667  20.801   7.050
 9051POPC   C4B59410   2.670  20.887   7.350
 9052POPC   NC359411   5.885  42.363   5.550
 9052POPC   PO459412   5.876  42.312   5.850
 9052POPC   GL159413   5.882  42.340   6.150
 9052POPC   GL259414   6.011  42.309   6.150
 9052POPC   C1A59415   5.905  42.304   6.450
 9052POPC   D2A59416   5.916  42.349   6.750
 9052POPC   C3A59417   5.887  42.285   7.050
 9052POPC   C4A59418   5.899  42.326   7.350
 9052POPC   C1B59419   6.137  42.409   6.450
 9052POPC   C2B59420   6.127  42.369   6.750
 9052POPC   C3B59421   6.072  42.384   7.050
 9052POPC   C4B59422   6.117  42.420   7.350
 9053POPC   NC359423   5.110   9.786   5.550
 9053POPC   PO459424   5.070   9.725   5.850
 9053POPC   GL159425   5.096   9.745   6.150
 9053POPC   GL259426   5.115   9.617   6.150
 9053POPC   C1A59427   5.141   9.763   6.450
 9053POPC   D2A59428   5.053   9.724   6.750
 9053POPC   C3A59429   5.081   9.738   7.050
 9053POPC   C4A59430   5.070   9.764   7.350
 9053POPC   C1B59431   5.246   9.499   6.450
 9053POPC   C2B59432   5.211   9.567   6.750
 9053POPC   C3B59433   5.182   9.524   7.050
 9053POPC   C4B59434   5.215   9.512   7.350
 9054POPC   NC359435   3.510  31.516   5.550
 9054POPC   PO459436   3.561  31.455   5.850
 9054POPC   GL159437   3.547  31.471   6.150
 9054POPC   GL259438   3.374  31.496   6.150
 9054POPC   C1A59439   3.497  31.510   6.450
 9054POPC   D2A59440   3.521  31.491   6.750
 9054POPC   C3A59441   3.586  31.498   7.050
 9054POPC   C4A59442   3.517  31.513   7.350
 9054POPC   C1B59443   3.269  31.494   6.450
 9054POPC   C2B59444   3.331  31.562   6.750
 9054POPC   C3B59445   3.332  31.566   7.050
 9054POPC   C4B59446   3.331  31.558   7.350
 9055POPC   NC359447  17.518  15.929   5.550
 9055POPC   PO459448  17.521  15.930   5.850
 9055POPC   GL159449  17.466  15.985   6.150
 9055POPC   GL259450  17.461  15.846   6.150
 9055POPC   C1A59451  17.472  15.912   6.450
 9055POPC   D2A59452  17.525  15.972   6.750
 9055POPC   C3A59453  17.461  15.934   7.050
 9055POPC   C4A59454  17.502  15.954   7.350
 9055POPC   C1B59455  17.453  15.730   6.450
 9055POPC   C2B59456  17.480  15.679   6.750
 9055POPC   C3B59457  17.455  15.712   7.050
 9055POPC   C4B59458  17.483  15.693   7.350
 9056POPC   NC359459   3.558  24.516   5.550
 9056POPC   PO459460   3.566  24.450   5.850
 9056POPC   GL159461   3.590  24.469   6.150
 9056POPC   GL259462   3.441  24.456   6.150
 9056POPC   C1A59463   3.530  24.460   6.450
 9056POPC   D2A59464   3.521  24.450   6.750
 9056POPC   C3A59465   3.543  24.499   7.050
 9056POPC   C4A59466   3.548  24.526   7.350
 9056POPC   C1B59467   3.301  24.510   6.450
 9056POPC   C2B59468   3.303  24.450   6.750
 9056POPC   C3B59469   3.311  24.501   7.050
 9056POPC   C4B59470   3.254  24.491   7.350
 9057POPC   NC359471   8.235  26.834   5.550
 9057POPC   PO459472   8.158  26.863   5.850
 9057POPC   GL159473   8.182  26.837   6.150
 9057POPC   GL259474   8.235  26.921   6.150
 9057POPC   C1A59475   8.163  26.799   6.450
 9057POPC   D2A59476   8.184  26.786   6.750
 9057POPC   C3A59477   8.164  26.799   7.050
 9057POPC   C4A59478   8.193  26.863   7.350
 9057POPC   C1B59479   8.227  27.044   6.450
 9057POPC   C2B59480   8.220  27.077   6.750
 9057POPC   C3B59481   8.250  27.107   7.050
 9057POPC   C4B59482   8.232  27.041   7.350
 9058POPC   NC359483  32.976   5.043   5.550
 9058POPC   PO459484  33.017   5.061   5.850
 9058POPC   GL159485  33.001   5.104   6.150
 9058POPC   GL259486  33.120   5.072   6.150
 9058POPC   C1A59487  33.025   5.125   6.450
 9058POPC   D2A59488  32.998   5.084   6.750
 9058POPC   C3A59489  33.037   5.115   7.050
 9058POPC   C4A59490  33.028   5.055   7.350
 9058POPC   C1B59491  33.309   5.042   6.450
 9058POPC   C2B59492  33.276   5.008   6.750
 9058POPC   C3B59493  33.254   5.019   7.050
 9058POPC   C4B59494  33.262   5.083   7.350
 9059POPC   NC359495  16.724  14.412   5.550
 9059POPC   PO459496  16.689  14.410   5.850
 9059POPC   GL159497  16.688  14.362   6.150
 9059POPC   GL259498  16.674  14.470   6.150
 9059POPC   C1A59499  16.726  14.374   6.450
 9059POPC   D2A59500  16.763  14.360   6.750
 9059POPC   C3A59501  16.775  14.396   7.050
 9059POPC   C4A59502  16.729  14.411   7.350
 9059POPC   C1B59503  16.584  14.632   6.450
 9059POPC   C2B59504  16.652  14.582   6.750
 9059POPC   C3B59505  16.656  14.647   7.050
 9059POPC   C4B59506  16.598  14.644   7.350
 9060POPC   NC359507  17.535  43.076   5.550
 9060POPC   PO459508  17.485  43.095   5.850
 9060POPC   GL159509  17.463  43.140   6.150
 9060POPC   GL259510  17.471  42.945   6.150
 9060POPC   C1A59511  17.511  43.098   6.450
 9060POPC   D2A59512  17.495  43.119   6.750
 9060POPC   C3A59513  17.519  43.072   7.050
 9060POPC   C4A59514  17.490  43.098   7.350
 9060POPC   C1B59515  17.449  42.894   6.450
 9060POPC   C2B59516  17.373  42.838   6.750
 9060POPC   C3B59517  17.379  42.905   7.050
 9060POPC   C4B59518  17.394  42.850   7.350
 9061POPC   NC359519  33.805  14.388   5.550
 9061POPC   PO459520  33.773  14.392   5.850
 9061POPC   GL159521  33.807  14.380   6.150
 9061POPC   GL259522  33.851  14.471   6.150
 9061POPC   C1A59523  33.750  14.449   6.450
 9061POPC   D2A59524  33.754  14.440   6.750
 9061POPC   C3A59525  33.810  14.398   7.050
 9061POPC   C4A59526  33.845  14.392   7.350
 9061POPC   C1B59527  33.948  14.627   6.450
 9061POPC   C2B59528  33.940  14.594   6.750
 9061POPC   C3B59529  33.989  14.641   7.050
 9061POPC   C4B59530  33.944  14.604   7.350
 9062POPC   NC359531   7.384  20.639   5.550
 9062POPC   PO459532   7.385  20.576   5.850
 9062POPC   GL159533   7.397  20.633   6.150
 9062POPC   GL259534   7.354  20.647   6.150
 9062POPC   C1A59535   7.411  20.576   6.450
 9062POPC   D2A59536   7.380  20.650   6.750
 9062POPC   C3A59537   7.456  20.648   7.050
 9062POPC   C4A59538   7.466  20.641   7.350
 9062POPC   C1B59539   7.202  20.755   6.450
 9062POPC   C2B59540   7.259  20.782   6.750
 9062POPC   C3B59541   7.182  20.742   7.050
 9062POPC   C4B59542   7.214  20.723   7.350
 9063POPC   NC359543  41.586  33.777   5.550
 9063POPC   PO459544  41.564  33.823   5.850
 9063POPC   GL159545  41.598  33.762   6.150
 9063POPC   GL259546  41.456  33.942   6.150
 9063POPC   C1A59547  41.514  33.779   6.450
 9063POPC   D2A59548  41.529  33.809   6.750
 9063POPC   C3A59549  41.509  33.834   7.050
 9063POPC   C4A59550  41.582  33.824   7.350
 9063POPC   C1B59551  41.361  34.031   6.450
 9063POPC   C2B59552  41.449  34.045   6.750
 9063POPC   C3B59553  41.409  34.010   7.050
 9063POPC   C4B59554  41.402  33.998   7.350
 9064POPC   NC359555  43.838   5.840   5.550
 9064POPC   PO459556  43.920   5.830   5.850
 9064POPC   GL159557  43.883   5.836   6.150
 9064POPC   GL259558  43.805   5.751   6.150
 9064POPC   C1A59559  43.919   5.850   6.450
 9064POPC   D2A59560  43.896   5.907   6.750
 9064POPC   C3A59561  43.858   5.831   7.050
 9064POPC   C4A59562  43.881   5.908   7.350
 9064POPC   C1B59563  43.795   5.610   6.450
 9064POPC   C2B59564  43.777   5.687   6.750
 9064POPC   C3B59565  43.822   5.628   7.050
 9064POPC   C4B59566  43.766   5.623   7.350
 9065POPC   NC359567  13.656  19.835   5.550
 9065POPC   PO459568  13.584  19.873   5.850
 9065POPC   GL159569  13.651  19.859   6.150
 9065POPC   GL259570  13.712  19.842   6.150
 9065POPC   C1A59571  13.620  19.871   6.450
 9065POPC   D2A59572  13.605  19.862   6.750
 9065POPC   C3A59573  13.611  19.863   7.050
 9065POPC   C4A59574  13.618  19.864   7.350
 9065POPC   C1B59575  13.876  19.964   6.450
 9065POPC   C2B59576  13.875  19.976   6.750
 9065POPC   C3B59577  13.900  19.898   7.050
 9065POPC   C4B59578  13.851  19.968   7.350
 9066POPC   NC359579   2.786  12.087   5.550
 9066POPC   PO459580   2.749  12.113   5.850
 9066POPC   GL159581   2.741  12.035   6.150
 9066POPC   GL259582   2.598  12.047   6.150
 9066POPC   C1A59583   2.753  12.038   6.450
 9066POPC   D2A59584   2.730  12.119   6.750
 9066POPC   C3A59585   2.765  12.070   7.050
 9066POPC   C4A59586   2.741  12.125   7.350
 9066POPC   C1B59587   2.498  11.999   6.450
 9066POPC   C2B59588   2.493  12.032   6.750
 9066POPC   C3B59589   2.573  11.954   7.050
 9066POPC   C4B59590   2.532  12.000   7.350
 9067POPC   NC359591   0.409  29.944   5.550
 9067POPC   PO459592   0.442  29.872   5.850
 9067POPC   GL159593   0.412  29.919   6.150
 9067POPC   GL259594   0.421  30.042   6.150
 9067POPC   C1A59595   0.421  29.899   6.450
 9067POPC   D2A59596   0.455  29.936   6.750
 9067POPC   C3A59597   0.402  29.952   7.050
 9067POPC   C4A59598   0.464  29.962   7.350
 9067POPC   C1B59599   0.401  30.200   6.450
 9067POPC   C2B59600   0.359  30.166   6.750
 9067POPC   C3B59601   0.353  30.131   7.050
 9067POPC   C4B59602   0.341  30.148   7.350
 9068POPC   NC359603  35.393  30.653   5.550
 9068POPC   PO459604  35.388  30.720   5.850
 9068POPC   GL159605  35.332  30.654   6.150
 9068POPC   GL259606  35.307  30.783   6.150
 9068POPC   C1A59607  35.348  30.719   6.450
 9068POPC   D2A59608  35.364  30.706   6.750
 9068POPC   C3A59609  35.321  30.700   7.050
 9068POPC   C4A59610  35.309  30.715   7.350
 9068POPC   C1B59611  35.184  30.858   6.450
 9068POPC   C2B59612  35.151  30.868   6.750
 9068POPC   C3B59613  35.146  30.853   7.050
 9068POPC   C4B59614  35.190  30.875   7.350
 9069POPC   NC359615  24.475  35.378   5.550
 9069POPC   PO459616  24.478  35.313   5.850
 9069POPC   GL159617  24.528  35.305   6.150
 9069POPC   GL259618  24.595  35.207   6.150
 9069POPC   C1A59619  24.487  35.326   6.450
 9069POPC   D2A59620  24.473  35.353   6.750
 9069POPC   C3A59621  24.495  35.356   7.050
 9069POPC   C4A59622  24.475  35.358   7.350
 9069POPC   C1B59623  24.634  35.173   6.450
 9069POPC   C2B59624  24.626  35.133   6.750
 9069POPC   C3B59625  24.635  35.163   7.050
 9069POPC   C4B59626  24.655  35.154   7.350
 9070POPC   NC359627  35.358  38.427   5.550
 9070POPC   PO459628  35.337  38.405   5.850
 9070POPC   GL159629  35.335  38.413   6.150
 9070POPC   GL259630  35.202  38.491   6.150
 9070POPC   C1A59631  35.326  38.452   6.450
 9070POPC   D2A59632  35.345  38.491   6.750
 9070POPC   C3A59633  35.317  38.449   7.050
 9070POPC   C4A59634  35.365  38.487   7.350
 9070POPC   C1B59635  35.093  38.602   6.450
 9070POPC   C2B59636  35.077  38.602   6.750
 9070POPC   C3B59637  35.168  38.574   7.050
 9070POPC   C4B59638  35.173  38.545   7.350
 9071POPC   NC359639  41.526  26.852   5.550
 9071POPC   PO459640  41.591  26.802   5.850
 9071POPC   GL159641  41.563  26.802   6.150
 9071POPC   GL259642  41.554  26.888   6.150
 9071POPC   C1A59643  41.527  26.780   6.450
 9071POPC   D2A59644  41.537  26.855   6.750
 9071POPC   C3A59645  41.563  26.779   7.050
 9071POPC   C4A59646  41.557  26.833   7.350
 9071POPC   C1B59647  41.641  27.008   6.450
 9071POPC   C2B59648  41.645  27.078   6.750
 9071POPC   C3B59649  41.660  27.012   7.050
 9071POPC   C4B59650  41.636  27.065   7.350
 9072POPC   NC359651  43.888   1.262   5.550
 9072POPC   PO459652  43.919   1.184   5.850
 9072POPC   GL159653  43.869   1.259   6.150
 9072POPC   GL259654  43.777   1.101   6.150
 9072POPC   C1A59655  43.916   1.245   6.450
 9072POPC   D2A59656  43.927   1.168   6.750
 9072POPC   C3A59657  43.856   1.180   7.050
 9072POPC   C4A59658  43.902   1.175   7.350
 9072POPC   C1B59659  43.733   0.969   6.450
 9072POPC   C2B59660  43.763   1.009   6.750
 9072POPC   C3B59661  43.757   1.059   7.050
 9072POPC   C4B59662  43.734   0.984   7.350
 9073POPC   NC359663   6.606   9.781   5.550
 9073POPC   PO459664   6.596   9.720   5.850
 9073POPC   GL159665   6.596   9.741   6.150
 9073POPC   GL259666   6.568   9.894   6.150
 9073POPC   C1A59667   6.636   9.727   6.450
 9073POPC   D2A59668   6.638   9.786   6.750
 9073POPC   C3A59669   6.621   9.737   7.050
 9073POPC   C4A59670   6.649   9.741   7.350
 9073POPC   C1B59671   6.464   9.929   6.450
 9073POPC   C2B59672   6.554   9.967   6.750
 9073POPC   C3B59673   6.556   9.997   7.050
 9073POPC   C4B59674   6.491   9.965   7.350
 9074POPC   NC359675  33.053  36.907   5.550
 9074POPC   PO459676  33.065  36.866   5.850
 9074POPC   GL159677  33.070  36.922   6.150
 9074POPC   GL259678  33.176  36.855   6.150
 9074POPC   C1A59679  32.993  36.893   6.450
 9074POPC   D2A59680  32.975  36.902   6.750
 9074POPC   C3A59681  33.058  36.921   7.050
 9074POPC   C4A59682  33.027  36.891   7.350
 9074POPC   C1B59683  33.226  36.767   6.450
 9074POPC   C2B59684  33.217  36.753   6.750
 9074POPC   C3B59685  33.208  36.736   7.050
 9074POPC   C4B59686  33.245  36.761   7.350
 9075POPC   NC359687   6.619  19.872   5.550
 9075POPC   PO459688   6.616  19.800   5.850
 9075POPC   GL159689   6.679  19.825   6.150
 9075POPC   GL259690   6.740  19.775   6.150
 9075POPC   C1A59691   6.679  19.837   6.450
 9075POPC   D2A59692   6.694  19.812   6.750
 9075POPC   C3A59693   6.617  19.818   7.050
 9075POPC   C4A59694   6.615  19.867   7.350
 9075POPC   C1B59695   6.821  19.617   6.450
 9075POPC   C2B59696   6.801  19.686   6.750
 9075POPC   C3B59697   6.804  19.643   7.050
 9075POPC   C4B59698   6.819  19.684   7.350
 9076POPC   NC359699  18.238  38.493   5.550
 9076POPC   PO459700  18.260  38.482   5.850
 9076POPC   GL159701  18.281  38.458   6.150
 9076POPC   GL259702  18.212  38.544   6.150
 9076POPC   C1A59703  18.234  38.433   6.450
 9076POPC   D2A59704  18.326  38.489   6.750
 9076POPC   C3A59705  18.266  38.500   7.050
 9076POPC   C4A59706  18.288  38.457   7.350
 9076POPC   C1B59707  18.044  38.641   6.450
 9076POPC   C2B59708  18.114  38.650   6.750
 9076POPC   C3B59709  18.083  38.554   7.050
 9076POPC   C4B59710  18.110  38.560   7.350
 9077POPC   NC359711  18.291   7.456   5.550
 9077POPC   PO459712  18.254   7.466   5.850
 9077POPC   GL159713  18.263   7.461   6.150
 9077POPC   GL259714  18.239   7.286   6.150
 9077POPC   C1A59715  18.245   7.428   6.450
 9077POPC   D2A59716  18.316   7.420   6.750
 9077POPC   C3A59717  18.332   7.436   7.050
 9077POPC   C4A59718  18.256   7.373   7.350
 9077POPC   C1B59719  18.245   7.183   6.450
 9077POPC   C2B59720  18.321   7.196   6.750
 9077POPC   C3B59721  18.267   7.189   7.050
 9077POPC   C4B59722  18.257   7.193   7.350
 9078POPC   NC359723  21.337  35.378   5.550
 9078POPC   PO459724  21.354  35.307   5.850
 9078POPC   GL159725  21.359  35.331   6.150
 9078POPC   GL259726  21.483  35.325   6.150
 9078POPC   C1A59727  21.376  35.348   6.450
 9078POPC   D2A59728  21.343  35.309   6.750
 9078POPC   C3A59729  21.418  35.380   7.050
 9078POPC   C4A59730  21.369  35.321   7.350
 9078POPC   C1B59731  21.642  35.338   6.450
 9078POPC   C2B59732  21.612  35.320   6.750
 9078POPC   C3B59733  21.646  35.406   7.050
 9078POPC   C4B59734  21.646  35.334   7.350
 9079POPC   NC359735   1.234   2.734   5.550
 9079POPC   PO459736   1.242   2.809   5.850
 9079POPC   GL159737   1.181   2.744   6.150
 9079POPC   GL259738   1.100   2.629   6.150
 9079POPC   C1A59739   1.186   2.772   6.450
 9079POPC   D2A59740   1.179   2.815   6.750
 9079POPC   C3A59741   1.212   2.753   7.050
 9079POPC   C4A59742   1.237   2.754   7.350
 9079POPC   C1B59743   1.009   2.542   6.450
 9079POPC   C2B59744   0.994   2.627   6.750
 9079POPC   C3B59745   1.040   2.577   7.050
 9079POPC   C4B59746   1.017   2.640   7.350
 9080POPC   NC359747   4.295  11.270   5.550
 9080POPC   PO459748   4.285  11.301   5.850
 9080POPC   GL159749   4.275  11.253   6.150
 9080POPC   GL259750   4.359  11.182   6.150
 9080POPC   C1A59751   4.337  11.277   6.450
 9080POPC   D2A59752   4.288  11.255   6.750
 9080POPC   C3A59753   4.335  11.251   7.050
 9080POPC   C4A59754   4.348  11.278   7.350
 9080POPC   C1B59755   4.460  11.024   6.450
 9080POPC   C2B59756   4.436  11.112   6.750
 9080POPC   C3B59757   4.386  11.120   7.050
 9080POPC   C4B59758   4.428  11.033   7.350
 9081POPC   NC359759   7.425   1.219   5.550
 9081POPC   PO459760   7.442   1.208   5.850
 9081POPC   GL159761   7.469   1.259   6.150
 9081POPC   GL259762   7.305   1.289   6.150
 9081POPC   C1A59763   7.467   1.226   6.450
 9081POPC   D2A59764   7.453   1.224   6.750
 9081POPC   C3A59765   7.444   1.241   7.050
 9081POPC   C4A59766   7.452   1.207   7.350
 9081POPC   C1B59767   7.142   1.235   6.450
 9081POPC   C2B59768   7.211   1.290   6.750
 9081POPC   C3B59769   7.133   1.311   7.050
 9081POPC   C4B59770   7.177   1.257   7.350
 9082POPC   NC359771  12.880  10.483   5.550
 9082POPC   PO459772  12.891  10.549   5.850
 9082POPC   GL159773  12.813  10.514   6.150
 9082POPC   GL259774  12.972  10.605   6.150
 9082POPC   C1A59775  12.846  10.552   6.450
 9082POPC   D2A59776  12.868  10.555   6.750
 9082POPC   C3A59777  12.813  10.497   7.050
 9082POPC   C4A59778  12.864  10.525   7.350
 9082POPC   C1B59779  13.038  10.737   6.450
 9082POPC   C2B59780  13.005  10.672   6.750
 9082POPC   C3B59781  13.025  10.670   7.050
 9082POPC   C4B59782  13.077  10.690   7.350
 9083POPC   NC359783   7.432  41.588   5.550
 9083POPC   PO459784   7.404  41.568   5.850
 9083POPC   GL159785   7.420  41.601   6.150
 9083POPC   GL259786   7.539  41.579   6.150
 9083POPC   C1A59787   7.457  41.574   6.450
 9083POPC   D2A59788   7.387  41.534   6.750
 9083POPC   C3A59789   7.471  41.559   7.050
 9083POPC   C4A59790   7.439  41.561   7.350
 9083POPC   C1B59791   7.671  41.705   6.450
 9083POPC   C2B59792   7.622  41.707   6.750
 9083POPC   C3B59793   7.682  41.638   7.050
 9083POPC   C4B59794   7.636  41.624   7.350
 9084POPC   NC359795  31.513  12.892   5.550
 9084POPC   PO459796  31.515  12.838   5.850
 9084POPC   GL159797  31.435  12.808   6.150
 9084POPC   GL259798  31.416  13.001   6.150
 9084POPC   C1A59799  31.462  12.883   6.450
 9084POPC   D2A59800  31.453  12.898   6.750
 9084POPC   C3A59801  31.423  12.860   7.050
 9084POPC   C4A59802  31.496  12.839   7.350
 9084POPC   C1B59803  31.309  13.061   6.450
 9084POPC   C2B59804  31.335  13.075   6.750
 9084POPC   C3B59805  31.295  13.028   7.050
 9084POPC   C4B59806  31.359  13.079   7.350
 9085POPC   NC359807  22.944   5.114   5.550
 9085POPC   PO459808  22.951   5.092   5.850
 9085POPC   GL159809  22.939   5.067   6.150
 9085POPC   GL259810  22.893   5.187   6.150
 9085POPC   C1A59811  22.918   5.077   6.450
 9085POPC   D2A59812  22.931   5.068   6.750
 9085POPC   C3A59813  22.963   5.097   7.050
 9085POPC   C4A59814  22.904   5.108   7.350
 9085POPC   C1B59815  22.873   5.307   6.450
 9085POPC   C2B59816  22.797   5.346   6.750
 9085POPC   C3B59817  22.845   5.317   7.050
 9085POPC   C4B59818  22.884   5.295   7.350
 9086POPC   NC359819   8.942  21.394   5.550
 9086POPC   PO459820   8.931  21.360   5.850
 9086POPC   GL159821   8.941  21.417   6.150
 9086POPC   GL259822   9.102  21.301   6.150
 9086POPC   C1A59823   8.993  21.348   6.450
 9086POPC   D2A59824   8.998  21.390   6.750
 9086POPC   C3A59825   8.973  21.367   7.050
 9086POPC   C4A59826   9.000  21.381   7.350
 9086POPC   C1B59827   9.157  21.218   6.450
 9086POPC   C2B59828   9.180  21.206   6.750
 9086POPC   C3B59829   9.160  21.202   7.050
 9086POPC   C4B59830   9.175  21.233   7.350
 9087POPC   NC359831   7.408   0.404   5.550
 9087POPC   PO459832   7.462   0.432   5.850
 9087POPC   GL159833   7.440   0.450   6.150
 9087POPC   GL259834   7.547   0.489   6.150
 9087POPC   C1A59835   7.395   0.390   6.450
 9087POPC   D2A59836   7.404   0.446   6.750
 9087POPC   C3A59837   7.397   0.420   7.050
 9087POPC   C4A59838   7.420   0.468   7.350
 9087POPC   C1B59839   7.580   0.596   6.450
 9087POPC   C2B59840   7.592   0.616   6.750
 9087POPC   C3B59841   7.642   0.552   7.050
 9087POPC   C4B59842   7.627   0.570   7.350
 9088POPC   NC359843  36.120  36.945   5.550
 9088POPC   PO459844  36.119  36.860   5.850
 9088POPC   GL159845  36.086  36.898   6.150
 9088POPC   GL259846  36.198  36.812   6.150
 9088POPC   C1A59847  36.154  36.952   6.450
 9088POPC   D2A59848  36.088  36.886   6.750
 9088POPC   C3A59849  36.128  36.936   7.050
 9088POPC   C4A59850  36.133  36.915   7.350
 9088POPC   C1B59851  36.308  36.718   6.450
 9088POPC   C2B59852  36.296  36.765   6.750
 9088POPC   C3B59853  36.277  36.685   7.050
 9088POPC   C4B59854  36.317  36.766   7.350
 9089POPC   NC359855  39.980  10.523   5.550
 9089POPC   PO459856  39.980  10.557   5.850
 9089POPC   GL159857  40.006  10.524   6.150
 9089POPC   GL259858  40.009  10.374   6.150
 9089POPC   C1A59859  40.035  10.492   6.450
 9089POPC   D2A59860  39.961  10.494   6.750
 9089POPC   C3A59861  40.026  10.540   7.050
 9089POPC   C4A59862  40.054  10.481   7.350
 9089POPC   C1B59863  40.040  10.307   6.450
 9089POPC   C2B59864  40.055  10.320   6.750
 9089POPC   C3B59865  40.069  10.252   7.050
 9089POPC   C4B59866  40.117  10.281   7.350
 9090POPC   NC359867  15.197  39.211   5.550
 9090POPC   PO459868  15.216  39.242   5.850
 9090POPC   GL159869  15.135  39.211   6.150
 9090POPC   GL259870  15.147  39.171   6.150
 9090POPC   C1A59871  15.148  39.220   6.450
 9090POPC   D2A59872  15.160  39.199   6.750
 9090POPC   C3A59873  15.216  39.197   7.050
 9090POPC   C4A59874  15.213  39.264   7.350
 9090POPC   C1B59875  15.008  38.967   6.450
 9090POPC   C2B59876  15.077  39.025   6.750
 9090POPC   C3B59877  15.060  38.994   7.050
 9090POPC   C4B59878  15.066  39.036   7.350
 9091POPC   NC359879  34.610   0.472   5.550
 9091POPC   PO459880  34.529   0.466   5.850
 9091POPC   GL159881  34.594   0.484   6.150
 9091POPC   GL259882  34.473   0.532   6.150
 9091POPC   C1A59883  34.552   0.419   6.450
 9091POPC   D2A59884  34.590   0.480   6.750
 9091POPC   C3A59885  34.586   0.436   7.050
 9091POPC   C4A59886  34.538   0.409   7.350
 9091POPC   C1B59887  34.465   0.691   6.450
 9091POPC   C2B59888  34.477   0.686   6.750
 9091POPC   C3B59889  34.397   0.602   7.050
 9091POPC   C4B59890  34.469   0.606   7.350
 9092POPC   NC359891   7.453  33.818   5.550
 9092POPC   PO459892   7.451  33.803   5.850
 9092POPC   GL159893   7.455  33.811   6.150
 9092POPC   GL259894   7.591  33.821   6.150
 9092POPC   C1A59895   7.389  33.753   6.450
 9092POPC   D2A59896   7.388  33.762   6.750
 9092POPC   C3A59897   7.466  33.797   7.050
 9092POPC   C4A59898   7.463  33.756   7.350
 9092POPC   C1B59899   7.673  33.743   6.450
 9092POPC   C2B59900   7.687  33.747   6.750
 9092POPC   C3B59901   7.668  33.749   7.050
 9092POPC   C4B59902   7.632  33.707   7.350
 9093POPC   NC359903  17.554  35.365   5.550
 9093POPC   PO459904  17.461  35.325   5.850
 9093POPC   GL159905  17.553  35.373   6.150
 9093POPC   GL259906  17.457  35.190   6.150
 9093POPC   C1A59907  17.498  35.307   6.450
 9093POPC   D2A59908  17.553  35.369   6.750
 9093POPC   C3A59909  17.514  35.357   7.050
 9093POPC   C4A59910  17.513  35.358   7.350
 9093POPC   C1B59911  17.459  35.137   6.450
 9093POPC   C2B59912  17.393  35.072   6.750
 9093POPC   C3B59913  17.408  35.092   7.050
 9093POPC   C4B59914  17.455  35.137   7.350
 9094POPC   NC359915  22.981   7.443   5.550
 9094POPC   PO459916  22.932   7.437   5.850
 9094POPC   GL159917  22.969   7.385   6.150
 9094POPC   GL259918  22.809   7.372   6.150
 9094POPC   C1A59919  22.946   7.440   6.450
 9094POPC   D2A59920  22.932   7.428   6.750
 9094POPC   C3A59921  22.949   7.465   7.050
 9094POPC   C4A59922  22.942   7.381   7.350
 9094POPC   C1B59923  22.678   7.324   6.450
 9094POPC   C2B59924  22.668   7.395   6.750
 9094POPC   C3B59925  22.719   7.360   7.050
 9094POPC   C4B59926  22.723   7.362   7.350
 9095POPC   NC359927  25.291  40.763   5.550
 9095POPC   PO459928  25.218  40.780   5.850
 9095POPC   GL159929  25.237  40.821   6.150
 9095POPC   GL259930  25.185  40.826   6.150
 9095POPC   C1A59931  25.306  40.750   6.450
 9095POPC   D2A59932  25.236  40.799   6.750
 9095POPC   C3A59933  25.297  40.798   7.050
 9095POPC   C4A59934  25.303  40.830   7.350
 9095POPC   C1B59935  25.038  40.824   6.450
 9095POPC   C2B59936  25.023  40.805   6.750
 9095POPC   C3B59937  25.038  40.825   7.050
 9095POPC   C4B59938  25.074  40.824   7.350
 9096POPC   NC359939   8.998   3.524   5.550
 9096POPC   PO459940   8.982   3.492   5.850
 9096POPC   GL159941   8.928   3.525   6.150
 9096POPC   GL259942   8.969   3.615   6.150
 9096POPC   C1A59943   8.992   3.571   6.450
 9096POPC   D2A59944   8.960   3.492   6.750
 9096POPC   C3A59945   8.987   3.522   7.050
 9096POPC   C4A59946   8.937   3.577   7.350
 9096POPC   C1B59947   8.986   3.750   6.450
 9096POPC   C2B59948   9.069   3.827   6.750
 9096POPC   C3B59949   9.066   3.745   7.050
 9096POPC   C4B59950   9.063   3.784   7.350
 9097POPC   NC359951   5.833  15.210   5.550
 9097POPC   PO459952   5.886  15.134   5.850
 9097POPC   GL159953   5.916  15.192   6.150
 9097POPC   GL259954   5.950  15.285   6.150
 9097POPC   C1A59955   5.891  15.138   6.450
 9097POPC   D2A59956   5.840  15.132   6.750
 9097POPC   C3A59957   5.822  15.198   7.050
 9097POPC   C4A59958   5.892  15.226   7.350
 9097POPC   C1B59959   6.006  15.357   6.450
 9097POPC   C2B59960   6.021  15.340   6.750
 9097POPC   C3B59961   6.041  15.354   7.050
 9097POPC   C4B59962   6.068  15.392   7.350
 9098POPC   NC359963  21.383  22.119   5.550
 9098POPC   PO459964  21.366  22.199   5.850
 9098POPC   GL159965  21.424  22.193   6.150
 9098POPC   GL259966  21.296  22.032   6.150
 9098POPC   C1A59967  21.376  22.165   6.450
 9098POPC   D2A59968  21.404  22.179   6.750
 9098POPC   C3A59969  21.340  22.135   7.050
 9098POPC   C4A59970  21.365  22.206   7.350
 9098POPC   C1B59971  21.278  21.948   6.450
 9098POPC   C2B59972  21.281  21.928   6.750
 9098POPC   C3B59973  21.318  21.901   7.050
 9098POPC   C4B59974  21.274  21.974   7.350
 9099POPC   NC359975  23.693  17.504   5.550
 9099POPC   PO459976  23.735  17.480   5.850
 9099POPC   GL159977  23.702  17.515   6.150
 9099POPC   GL259978  23.823  17.620   6.150
 9099POPC   C1A59979  23.666  17.549   6.450
 9099POPC   D2A59980  23.693  17.472   6.750
 9099POPC   C3A59981  23.721  17.515   7.050
 9099POPC   C4A59982  23.700  17.492   7.350
 9099POPC   C1B59983  23.848  17.682   6.450
 9099POPC   C2B59984  23.858  17.737   6.750
 9099POPC   C3B59985  23.916  17.747   7.050
 9099POPC   C4B59986  23.885  17.733   7.350
 9100POPC   NC359987  14.449  13.645   5.550
 9100POPC   PO459988  14.452  13.629   5.850
 9100POPC   GL159989  14.388  13.595   6.150
 9100POPC   GL259990  14.359  13.529   6.150
 9100POPC   C1A59991  14.389  13.589   6.450
 9100POPC   D2A59992  14.443  13.632   6.750
 9100POPC   C3A59993  14.429  13.585   7.050
 9100POPC   C4A59994  14.399  13.646   7.350
 9100POPC   C1B59995  14.209  13.456   6.450
 9100POPC   C2B59996  14.223  13.456   6.750
 9100POPC   C3B59997  14.269  13.416   7.050
 9100POPC   C4B59998  14.199  13.452   7.350
 9101POPC   NC359999  15.170  33.816   5.550
 9101POPC   PO460000  15.146  33.811   5.850
 9101POPC   GL160001  15.176  33.772   6.150
 9101POPC   GL260002  15.188  33.915   6.150
 9101POPC   C1A60003  15.141  33.844   6.450
 9101POPC   D2A60004  15.209  33.780   6.750
 9101POPC   C3A60005  15.151  33.777   7.050
 9101POPC   C4A60006  15.191  33.830   7.350
 9101POPC   C1B60007  15.248  33.985   6.450
 9101POPC   C2B60008  15.271  34.058   6.750
 9101POPC   C3B60009  15.260  34.004   7.050
 9101POPC   C4B60010  15.295  34.026   7.350
 9102POPC   NC360011  14.355   5.896   5.550
 9102POPC   PO460012  14.360   5.859   5.850
 9102POPC   GL160013  14.382   5.857   6.150
 9102POPC   GL260014  14.314   5.919   6.150
 9102POPC   C1A60015  14.376   5.890   6.450
 9102POPC   D2A60016  14.369   5.829   6.750
 9102POPC   C3A60017  14.358   5.842   7.050
 9102POPC   C4A60018  14.379   5.855   7.350
 9102POPC   C1B60019  14.236   6.004   6.450
 9102POPC   C2B60020  14.238   6.016   6.750
 9102POPC   C3B60021  14.213   5.979   7.050
 9102POPC   C4B60022  14.143   5.999   7.350
 9103POPC   NC360023  36.102  22.196   5.550
 9103POPC   PO460024  36.134  22.204   5.850
 9103POPC   GL160025  36.170  22.155   6.150
 9103POPC   GL260026  36.049  22.061   6.150
 9103POPC   C1A60027  36.115  22.143   6.450
 9103POPC   D2A60028  36.173  22.147   6.750
 9103POPC   C3A60029  36.084  22.186   7.050
 9103POPC   C4A60030  36.165  22.164   7.350
 9103POPC   C1B60031  35.928  22.019   6.450
 9103POPC   C2B60032  35.953  22.090   6.750
 9103POPC   C3B60033  35.895  22.053   7.050
 9103POPC   C4B60034  35.861  22.047   7.350
 9104POPC   NC360035  23.734  28.381   5.550
 9104POPC   PO460036  23.747  28.333   5.850
 9104POPC   GL160037  23.755  28.389   6.150
 9104POPC   GL260038  23.674  28.291   6.150
 9104POPC   C1A60039  23.695  28.375   6.450
 9104POPC   D2A60040  23.691  28.334   6.750
 9104POPC   C3A60041  23.738  28.359   7.050
 9104POPC   C4A60042  23.735  28.360   7.350
 9104POPC   C1B60043  23.562  28.171   6.450
 9104POPC   C2B60044  23.593  28.188   6.750
 9104POPC   C3B60045  23.516  28.127   7.050
 9104POPC   C4B60046  23.535  28.187   7.350
 9105POPC   NC360047   6.621   5.047   5.550
 9105POPC   PO460048   6.651   5.083   5.850
 9105POPC   GL160049   6.663   5.076   6.150
 9105POPC   GL260050   6.714   5.088   6.150
 9105POPC   C1A60051   6.622   5.067   6.450
 9105POPC   D2A60052   6.610   5.069   6.750
 9105POPC   C3A60053   6.601   5.077   7.050
 9105POPC   C4A60054   6.602   5.134   7.350
 9105POPC   C1B60055   6.834   4.977   6.450
 9105POPC   C2B60056   6.870   5.024   6.750
 9105POPC   C3B60057   6.850   4.964   7.050
 9105POPC   C4B60058   6.893   5.036   7.350
 9106POPC   NC360059   1.211  19.057   5.550
 9106POPC   PO460060   1.223  19.047   5.850
 9106POPC   GL160061   1.260  19.107   6.150
 9106POPC   GL260062   1.109  19.013   6.150
 9106POPC   C1A60063   1.225  19.098   6.450
 9106POPC   D2A60064   1.200  19.046   6.750
 9106POPC   C3A60065   1.261  19.056   7.050
 9106POPC   C4A60066   1.247  19.052   7.350
 9106POPC   C1B60067   0.926  18.967   6.450
 9106POPC   C2B60068   0.975  18.982   6.750
 9106POPC   C3B60069   0.996  19.026   7.050
 9106POPC   C4B60070   1.010  19.007   7.350
 9107POPC   NC360071   5.129  33.827   5.550
 9107POPC   PO460072   5.071  33.759   5.850
 9107POPC   GL160073   5.083  33.817   6.150
 9107POPC   GL260074   5.137  33.893   6.150
 9107POPC   C1A60075   5.098  33.816   6.450
 9107POPC   D2A60076   5.069  33.767   6.750
 9107POPC   C3A60077   5.141  33.794   7.050
 9107POPC   C4A60078   5.054  33.822   7.350
 9107POPC   C1B60079   5.129  34.021   6.450
 9107POPC   C2B60080   5.095  34.091   6.750
 9107POPC   C3B60081   5.111  34.086   7.050
 9107POPC   C4B60082   5.065  34.054   7.350
 9108POPC   NC360083  21.371   9.756   5.550
 9108POPC   PO460084  21.368   9.784   5.850
 9108POPC   GL160085  21.345   9.705   6.150
 9108POPC   GL260086  21.523   9.669   6.150
 9108POPC   C1A60087  21.378   9.786   6.450
 9108POPC   D2A60088  21.369   9.787   6.750
 9108POPC   C3A60089  21.361   9.796   7.050
 9108POPC   C4A60090  21.366   9.713   7.350
 9108POPC   C1B60091  21.604   9.649   6.450
 9108POPC   C2B60092  21.598   9.661   6.750
 9108POPC   C3B60093  21.629   9.625   7.050
 9108POPC   C4B60094  21.633   9.650   7.350
 9109POPC   NC360095  33.777  42.299   5.550
 9109POPC   PO460096  33.812  42.292   5.850
 9109POPC   GL160097  33.753  42.358   6.150
 9109POPC   GL260098  33.636  42.295   6.150
 9109POPC   C1A60099  33.831  42.323   6.450
 9109POPC   D2A60100  33.782  42.317   6.750
 9109POPC   C3A60101  33.829  42.288   7.050
 9109POPC   C4A60102  33.840  42.341   7.350
 9109POPC   C1B60103  33.575  42.228   6.450
 9109POPC   C2B60104  33.529  42.273   6.750
 9109POPC   C3B60105  33.512  42.235   7.050
 9109POPC   C4B60106  33.572  42.303   7.350
 9110POPC   NC360107  29.967  29.133   5.550
 9110POPC   PO460108  29.875  29.170   5.850
 9110POPC   GL160109  29.911  29.186   6.150
 9110POPC   GL260110  30.063  29.102   6.150
 9110POPC   C1A60111  29.894  29.115   6.450
 9110POPC   D2A60112  29.967  29.100   6.750
 9110POPC   C3A60113  29.875  29.117   7.050
 9110POPC   C4A60114  29.936  29.171   7.350
 9110POPC   C1B60115  30.133  29.181   6.450
 9110POPC   C2B60116  30.193  29.180   6.750
 9110POPC   C3B60117  30.184  29.155   7.050
 9110POPC   C4B60118  30.125  29.145   7.350
 9111POPC   NC360119  36.110  43.931   5.550
 9111POPC   PO460120  36.115  43.847   5.850
 9111POPC   GL160121  36.173  43.882   6.150
 9111POPC   GL260122  36.294  43.913   6.150
 9111POPC   C1A60123  36.086  43.887   6.450
 9111POPC   D2A60124  36.155  43.906   6.750
 9111POPC   C3A60125  36.114  43.897   7.050
 9111POPC   C4A60126  36.091  43.905   7.350
 9111POPC   C1B60127  36.327  44.019   6.450
 9111POPC   C2B60128  36.318  43.933   6.750
 9111POPC   C3B60129  36.393  43.946   7.050
 9111POPC   C4B60130  36.334  43.980   7.350
 9112POPC   NC360131  21.401  37.720   5.550
 9112POPC   PO460132  21.337  37.630   5.850
 9112POPC   GL160133  21.357  37.720   6.150
 9112POPC   GL260134  21.492  37.777   6.150
 9112POPC   C1A60135  21.412  37.702   6.450
 9112POPC   D2A60136  21.360  37.634   6.750
 9112POPC   C3A60137  21.355  37.666   7.050
 9112POPC   C4A60138  21.347  37.678   7.350
 9112POPC   C1B60139  21.495  37.904   6.450
 9112POPC   C2B60140  21.535  37.902   6.750
 9112POPC   C3B60141  21.556  37.874   7.050
 9112POPC   C4B60142  21.499  37.911   7.350
 9113POPC   NC360143  27.639   5.828   5.550
 9113POPC   PO460144  27.584   5.849   5.850
 9113POPC   GL160145  27.553   5.893   6.150
 9113POPC   GL260146  27.547   5.943   6.150
 9113POPC   C1A60147  27.549   5.873   6.450
 9113POPC   D2A60148  27.604   5.896   6.750
 9113POPC   C3A60149  27.608   5.912   7.050
 9113POPC   C4A60150  27.608   5.894   7.350
 9113POPC   C1B60151  27.418   6.054   6.450
 9113POPC   C2B60152  27.427   6.007   6.750
 9113POPC   C3B60153  27.427   6.103   7.050
 9113POPC   C4B60154  27.458   6.084   7.350
 9114POPC   NC360155  23.670  40.781   5.550
 9114POPC   PO460156  23.703  40.791   5.850
 9114POPC   GL160157  23.690  40.810   6.150
 9114POPC   GL260158  23.551  40.820   6.150
 9114POPC   C1A60159  23.761  40.817   6.450
 9114POPC   D2A60160  23.743  40.801   6.750
 9114POPC   C3A60161  23.685  40.815   7.050
 9114POPC   C4A60162  23.686  40.752   7.350
 9114POPC   C1B60163  23.482  40.845   6.450
 9114POPC   C2B60164  23.507  40.879   6.750
 9114POPC   C3B60165  23.514  40.842   7.050
 9114POPC   C4B60166  23.522  40.824   7.350
 9115POPC   NC360167  16.778   4.277   5.550
 9115POPC   PO460168  16.749   4.308   5.850
 9115POPC   GL160169  16.724   4.288   6.150
 9115POPC   GL260170  16.857   4.445   6.150
 9115POPC   C1A60171  16.780   4.321   6.450
 9115POPC   D2A60172  16.683   4.290   6.750
 9115POPC   C3A60173  16.707   4.364   7.050
 9115POPC   C4A60174  16.763   4.366   7.350
 9115POPC   C1B60175  16.897   4.497   6.450
 9115POPC   C2B60176  16.872   4.529   6.750
 9115POPC   C3B60177  16.921   4.452   7.050
 9115POPC   C4B60178  16.889   4.458   7.350
 9116POPC   NC360179  25.290  25.254   5.550
 9116POPC   PO460180  25.308  25.303   5.850
 9116POPC   GL160181  25.219  25.230   6.150
 9116POPC   GL260182  25.420  25.289   6.150
 9116POPC   C1A60183  25.308  25.239   6.450
 9116POPC   D2A60184  25.247  25.260   6.750
 9116POPC   C3A60185  25.231  25.274   7.050
 9116POPC   C4A60186  25.229  25.304   7.350
 9116POPC   C1B60187  25.558  25.259   6.450
 9116POPC   C2B60188  25.480  25.302   6.750
 9116POPC   C3B60189  25.561  25.326   7.050
 9116POPC   C4B60190  25.468  25.298   7.350
 9117POPC   NC360191  20.649  20.660   5.550
 9117POPC   PO460192  20.656  20.623   5.850
 9117POPC   GL160193  20.592  20.612   6.150
 9117POPC   GL260194  20.548  20.722   6.150
 9117POPC   C1A60195  20.609  20.608   6.450
 9117POPC   D2A60196  20.625  20.584   6.750
 9117POPC   C3A60197  20.660  20.652   7.050
 9117POPC   C4A60198  20.659  20.597   7.350
 9117POPC   C1B60199  20.442  20.764   6.450
 9117POPC   C2B60200  20.433  20.820   6.750
 9117POPC   C3B60201  20.442  20.843   7.050
 9117POPC   C4B60202  20.449  20.831   7.350
 9118POPC   NC360203  40.805  16.000   5.550
 9118POPC   PO460204  40.809  15.925   5.850
 9118POPC   GL160205  40.826  15.985   6.150
 9118POPC   GL260206  40.831  16.089   6.150
 9118POPC   C1A60207  40.745  15.968   6.450
 9118POPC   D2A60208  40.777  16.002   6.750
 9118POPC   C3A60209  40.782  15.919   7.050
 9118POPC   C4A60210  40.764  15.999   7.350
 9118POPC   C1B60211  40.944  16.144   6.450
 9118POPC   C2B60212  40.893  16.136   6.750
 9118POPC   C3B60213  40.899  16.192   7.050
 9118POPC   C4B60214  40.885  16.146   7.350
 9119POPC   NC360215  41.541   9.019   5.550
 9119POPC   PO460216  41.602   8.951   5.850
 9119POPC   GL160217  41.518   8.964   6.150
 9119POPC   GL260218  41.465   9.099   6.150
 9119POPC   C1A60219  41.550   8.925   6.450
 9119POPC   D2A60220  41.590   8.949   6.750
 9119POPC   C3A60221  41.574   8.927   7.050
 9119POPC   C4A60222  41.585   8.967   7.350
 9119POPC   C1B60223  41.445   9.177   6.450
 9119POPC   C2B60224  41.406   9.163   6.750
 9119POPC   C3B60225  41.383   9.151   7.050
 9119POPC   C4B60226  41.378   9.199   7.350
 9120POPC   NC360227  40.821  11.330   5.550
 9120POPC   PO460228  40.765  11.326   5.850
 9120POPC   GL160229  40.750  11.310   6.150
 9120POPC   GL260230  40.663  11.185   6.150
 9120POPC   C1A60231  40.813  11.291   6.450
 9120POPC   D2A60232  40.752  11.270   6.750
 9120POPC   C3A60233  40.756  11.331   7.050
 9120POPC   C4A60234  40.739  11.301   7.350
 9120POPC   C1B60235  40.608  11.137   6.450
 9120POPC   C2B60236  40.617  11.167   6.750
 9120POPC   C3B60237  40.619  11.120   7.050
 9120POPC   C4B60238  40.609  11.142   7.350
 9121POPC   NC360239   8.197  40.009   5.550
 9121POPC   PO460240   8.223  39.982   5.850
 9121POPC   GL160241   8.237  40.005   6.150
 9121POPC   GL260242   8.106  40.065   6.150
 9121POPC   C1A60243   8.210  40.035   6.450
 9121POPC   D2A60244   8.186  40.009   6.750
 9121POPC   C3A60245   8.195  40.032   7.050
 9121POPC   C4A60246   8.221  40.001   7.350
 9121POPC   C1B60247   7.980  40.019   6.450
 9121POPC   C2B60248   7.910  40.017   6.750
 9121POPC   C3B60249   7.939  40.100   7.050
 9121POPC   C4B60250   7.942  40.094   7.350
 9122POPC   NC360251  44.700  17.471   5.550
 9122POPC   PO460252  44.692  17.536   5.850
 9122POPC   GL160253  44.698  17.509   6.150
 9122POPC   GL260254  44.672  17.334   6.150
 9122POPC   C1A60255  44.687  17.463   6.450
 9122POPC   D2A60256  44.625  17.469   6.750
 9122POPC   C3A60257  44.662  17.489   7.050
 9122POPC   C4A60258  44.663  17.542   7.350
 9122POPC   C1B60259  44.642  17.219   6.450
 9122POPC   C2B60260  44.732  17.259   6.750
 9122POPC   C3B60261  44.645  17.240   7.050
 9122POPC   C4B60262  44.711  17.269   7.350
 9123POPC   NC360263  14.365  19.097   5.550
 9123POPC   PO460264  14.452  19.048   5.850
 9123POPC   GL160265  14.382  19.069   6.150
 9123POPC   GL260266  14.538  19.128   6.150
 9123POPC   C1A60267  14.362  19.089   6.450
 9123POPC   D2A60268  14.390  19.085   6.750
 9123POPC   C3A60269  14.412  19.022   7.050
 9123POPC   C4A60270  14.388  19.055   7.350
 9123POPC   C1B60271  14.551  19.241   6.450
 9123POPC   C2B60272  14.546  19.266   6.750
 9123POPC   C3B60273  14.592  19.269   7.050
 9123POPC   C4B60274  14.553  19.252   7.350
 9124POPC   NC360275  36.928  42.295   5.550
 9124POPC   PO460276  36.915  42.336   5.850
 9124POPC   GL160277  36.857  42.285   6.150
 9124POPC   GL260278  36.894  42.163   6.150
 9124POPC   C1A60279  36.952  42.371   6.450
 9124POPC   D2A60280  36.945  42.304   6.750
 9124POPC   C3A60281  36.880  42.347   7.050
 9124POPC   C4A60282  36.923  42.357   7.350
 9124POPC   C1B60283  36.950  42.109   6.450
 9124POPC   C2B60284  36.929  42.114   6.750
 9124POPC   C3B60285  36.872  42.115   7.050
 9124POPC   C4B60286  36.863  42.042   7.350
 9125POPC   NC360287  40.818   1.236   5.550
 9125POPC   PO460288  40.819   1.227   5.850
 9125POPC   GL160289  40.791   1.210   6.150
 9125POPC   GL260290  40.676   1.148   6.150
 9125POPC   C1A60291  40.832   1.172   6.450
 9125POPC   D2A60292  40.801   1.231   6.750
 9125POPC   C3A60293  40.788   1.243   7.050
 9125POPC   C4A60294  40.771   1.209   7.350
 9125POPC   C1B60295  40.562   1.078   6.450
 9125POPC   C2B60296  40.559   1.124   6.750
 9125POPC   C3B60297  40.562   1.103   7.050
 9125POPC   C4B60298  40.611   1.078   7.350
 9126POPC   NC360299  30.700   0.417   5.550
 9126POPC   PO460300  30.663   0.484   5.850
 9126POPC   GL160301  30.664   0.388   6.150
 9126POPC   GL260302  30.748   0.554   6.150
 9126POPC   C1A60303  30.721   0.413   6.450
 9126POPC   D2A60304  30.660   0.458   6.750
 9126POPC   C3A60305  30.721   0.426   7.050
 9126POPC   C4A60306  30.662   0.395   7.350
 9126POPC   C1B60307  30.734   0.658   6.450
 9126POPC   C2B60308  30.823   0.721   6.750
 9126POPC   C3B60309  30.781   0.630   7.050
 9126POPC   C4B60310  30.807   0.628   7.350
 9127POPC   NC360311   2.033  21.402   5.550
 9127POPC   PO460312   1.972  21.391   5.850
 9127POPC   GL160313   2.004  21.419   6.150
 9127POPC   GL260314   2.041  21.293   6.150
 9127POPC   C1A60315   1.992  21.392   6.450
 9127POPC   D2A60316   1.967  21.395   6.750
 9127POPC   C3A60317   1.989  21.428   7.050
 9127POPC   C4A60318   2.012  21.366   7.350
 9127POPC   C1B60319   2.148  21.140   6.450
 9127POPC   C2B60320   2.112  21.168   6.750
 9127POPC   C3B60321   2.133  21.183   7.050
 9127POPC   C4B60322   2.123  21.183   7.350
 9128POPC   NC360323  37.630   3.588   5.550
 9128POPC   PO460324  37.664   3.534   5.850
 9128POPC   GL160325  37.695   3.573   6.150
 9128POPC   GL260326  37.801   3.598   6.150
 9128POPC   C1A60327  37.695   3.591   6.450
 9128POPC   D2A60328  37.667   3.575   6.750
 9128POPC   C3A60329  37.656   3.543   7.050
 9128POPC   C4A60330  37.707   3.547   7.350
 9128POPC   C1B60331  37.897   3.631   6.450
 9128POPC   C2B60332  37.936   3.620   6.750
 9128POPC   C3B60333  37.917   3.629   7.050
 9128POPC   C4B60334  37.862   3.645   7.350
 9129POPC   NC360335  19.047  39.192   5.550
 9129POPC   PO460336  19.015  39.266   5.850
 9129POPC   GL160337  19.088  39.231   6.150
 9129POPC   GL260338  18.961  39.362   6.150
 9129POPC   C1A60339  19.011  39.183   6.450
 9129POPC   D2A60340  19.052  39.276   6.750
 9129POPC   C3A60341  19.030  39.250   7.050
 9129POPC   C4A60342  19.087  39.210   7.350
 9129POPC   C1B60343  18.911  39.442   6.450
 9129POPC   C2B60344  18.899  39.475   6.750
 9129POPC   C3B60345  18.861  39.402   7.050
 9129POPC   C4B60346  18.949  39.443   7.350
 9130POPC   NC360347  15.981  15.988   5.550
 9130POPC   PO460348  15.987  15.923   5.850
 9130POPC   GL160349  15.971  15.953   6.150
 9130POPC   GL260350  16.047  15.895   6.150
 9130POPC   C1A60351  15.915  15.944   6.450
 9130POPC   D2A60352  15.935  15.995   6.750
 9130POPC   C3A60353  15.952  15.945   7.050
 9130POPC   C4A60354  15.923  15.938   7.350
 9130POPC   C1B60355  16.146  15.823   6.450
 9130POPC   C2B60356  16.171  15.805   6.750
 9130POPC   C3B60357  16.121  15.756   7.050
 9130POPC   C4B60358  16.165  15.760   7.350
 9131POPC   NC360359  43.159  15.216   5.550
 9131POPC   PO460360  43.123  15.176   5.850
 9131POPC   GL160361  43.124  15.228   6.150
 9131POPC   GL260362  43.109  15.310   6.150
 9131POPC   C1A60363  43.093  15.146   6.450
 9131POPC   D2A60364  43.129  15.182   6.750
 9131POPC   C3A60365  43.148  15.213   7.050
 9131POPC   C4A60366  43.106  15.208   7.350
 9131POPC   C1B60367  43.181  15.470   6.450
 9131POPC   C2B60368  43.186  15.449   6.750
 9131POPC   C3B60369  43.109  15.401   7.050
 9131POPC   C4B60370  43.149  15.432   7.350
 9132POPC   NC360371  34.621  14.438   5.550
 9132POPC   PO460372  34.608  14.424   5.850
 9132POPC   GL160373  34.565  14.368   6.150
 9132POPC   GL260374  34.504  14.337   6.150
 9132POPC   C1A60375  34.543  14.429   6.450
 9132POPC   D2A60376  34.531  14.356   6.750
 9132POPC   C3A60377  34.585  14.391   7.050
 9132POPC   C4A60378  34.580  14.405   7.350
 9132POPC   C1B60379  34.287  14.356   6.450
 9132POPC   C2B60380  34.327  14.324   6.750
 9132POPC   C3B60381  34.289  14.361   7.050
 9132POPC   C4B60382  34.304  14.315   7.350
 9133POPC   NC360383  36.872  15.220   5.550
 9133POPC   PO460384  36.919  15.198   5.850
 9133POPC   GL160385  36.951  15.210   6.150
 9133POPC   GL260386  36.829  15.215   6.150
 9133POPC   C1A60387  36.934  15.212   6.450
 9133POPC   D2A60388  36.882  15.228   6.750
 9133POPC   C3A60389  36.914  15.216   7.050
 9133POPC   C4A60390  36.861  15.139   7.350
 9133POPC   C1B60391  36.658  15.377   6.450
 9133POPC   C2B60392  36.698  15.322   6.750
 9133POPC   C3B60393  36.698  15.329   7.050
 9133POPC   C4B60394  36.708  15.337   7.350
 9134POPC   NC360395  33.845  21.358   5.550
 9134POPC   PO460396  33.821  21.362   5.850
 9134POPC   GL160397  33.834  21.358   6.150
 9134POPC   GL260398  33.640  21.370   6.150
 9134POPC   C1A60399  33.766  21.381   6.450
 9134POPC   D2A60400  33.757  21.403   6.750
 9134POPC   C3A60401  33.777  21.346   7.050
 9134POPC   C4A60402  33.804  21.421   7.350
 9134POPC   C1B60403  33.553  21.342   6.450
 9134POPC   C2B60404  33.538  21.331   6.750
 9134POPC   C3B60405  33.549  21.359   7.050
 9134POPC   C4B60406  33.508  21.363   7.350
 9135POPC   NC360407  15.929  37.690   5.550
 9135POPC   PO460408  15.983  37.668   5.850
 9135POPC   GL160409  15.928  37.662   6.150
 9135POPC   GL260410  15.910  37.566   6.150
 9135POPC   C1A60411  15.922  37.718   6.450
 9135POPC   D2A60412  15.995  37.704   6.750
 9135POPC   C3A60413  15.924  37.697   7.050
 9135POPC   C4A60414  15.946  37.674   7.350
 9135POPC   C1B60415  15.888  37.453   6.450
 9135POPC   C2B60416  15.938  37.451   6.750
 9135POPC   C3B60417  15.935  37.469   7.050
 9135POPC   C4B60418  15.885  37.428   7.350
 9136POPC   NC360419  41.595   4.317   5.550
 9136POPC   PO460420  41.590   4.271   5.850
 9136POPC   GL160421  41.511   4.350   6.150
 9136POPC   GL260422  41.565   4.406   6.150
 9136POPC   C1A60423  41.568   4.361   6.450
 9136POPC   D2A60424  41.586   4.362   6.750
 9136POPC   C3A60425  41.575   4.339   7.050
 9136POPC   C4A60426  41.547   4.287   7.350
 9136POPC   C1B60427  41.562   4.586   6.450
 9136POPC   C2B60428  41.552   4.598   6.750
 9136POPC   C3B60429  41.581   4.532   7.050
 9136POPC   C4B60430  41.520   4.591   7.350
 9137POPC   NC360431  23.727  27.628   5.550
 9137POPC   PO460432  23.736  27.556   5.850
 9137POPC   GL160433  23.727  27.561   6.150
 9137POPC   GL260434  23.758  27.459   6.150
 9137POPC   C1A60435  23.704  27.600   6.450
 9137POPC   D2A60436  23.727  27.613   6.750
 9137POPC   C3A60437  23.732  27.633   7.050
 9137POPC   C4A60438  23.688  27.605   7.350
 9137POPC   C1B60439  23.800  27.392   6.450
 9137POPC   C2B60440  23.750  27.346   6.750
 9137POPC   C3B60441  23.797  27.345   7.050
 9137POPC   C4B60442  23.745  27.306   7.350
 9138POPC   NC360443  37.680  38.475   5.550
 9138POPC   PO460444  37.669  38.407   5.850
 9138POPC   GL160445  37.639  38.478   6.150
 9138POPC   GL260446  37.592  38.353   6.150
 9138POPC   C1A60447  37.673  38.420   6.450
 9138POPC   D2A60448  37.660  38.477   6.750
 9138POPC   C3A60449  37.710  38.492   7.050
 9138POPC   C4A60450  37.666  38.475   7.350
 9138POPC   C1B60451  37.557  38.210   6.450
 9138POPC   C2B60452  37.545  38.254   6.750
 9138POPC   C3B60453  37.574  38.196   7.050
 9138POPC   C4B60454  37.581  38.284   7.350
 9139POPC   NC360455  36.900  24.483   5.550
 9139POPC   PO460456  36.903  24.500   5.850
 9139POPC   GL160457  36.888  24.461   6.150
 9139POPC   GL260458  36.782  24.492   6.150
 9139POPC   C1A60459  36.868  24.529   6.450
 9139POPC   D2A60460  36.863  24.482   6.750
 9139POPC   C3A60461  36.913  24.471   7.050
 9139POPC   C4A60462  36.874  24.496   7.350
 9139POPC   C1B60463  36.663  24.487   6.450
 9139POPC   C2B60464  36.693  24.488   6.750
 9139POPC   C3B60465  36.694  24.510   7.050
 9139POPC   C4B60466  36.661  24.496   7.350
 9140POPC   NC360467  29.118  17.500   5.550
 9140POPC   PO460468  29.143  17.549   5.850
 9140POPC   GL160469  29.133  17.516   6.150
 9140POPC   GL260470  29.098  17.358   6.150
 9140POPC   C1A60471  29.118  17.470   6.450
 9140POPC   D2A60472  29.145  17.510   6.750
 9140POPC   C3A60473  29.175  17.509   7.050
 9140POPC   C4A60474  29.114  17.543   7.350
 9140POPC   C1B60475  29.150  17.228   6.450
 9140POPC   C2B60476  29.064  17.293   6.750
 9140POPC   C3B60477  29.119  17.253   7.050
 9140POPC   C4B60478  29.070  17.291   7.350
 9141POPC   NC360479   4.347   8.984   5.550
 9141POPC   PO460480   4.292   8.955   5.850
 9141POPC   GL160481   4.275   8.929   6.150
 9141POPC   GL260482   4.419   8.929   6.150
 9141POPC   C1A60483   4.306   9.003   6.450
 9141POPC   D2A60484   4.334   9.014   6.750
 9141POPC   C3A60485   4.351   8.969   7.050
 9141POPC   C4A60486   4.279   8.947   7.350
 9141POPC   C1B60487   4.498   8.789   6.450
 9141POPC   C2B60488   4.437   8.794   6.750
 9141POPC   C3B60489   4.513   8.798   7.050
 9141POPC   C4B60490   4.466   8.738   7.350
 9142POPC   NC360491  24.467  38.502   5.550
 9142POPC   PO460492  24.442  38.436   5.850
 9142POPC   GL160493  24.497  38.487   6.150
 9142POPC   GL260494  24.485  38.383   6.150
 9142POPC   C1A60495  24.512  38.443   6.450
 9142POPC   D2A60496  24.513  38.468   6.750
 9142POPC   C3A60497  24.448  38.434   7.050
 9142POPC   C4A60498  24.469  38.412   7.350
 9142POPC   C1B60499  24.567  38.192   6.450
 9142POPC   C2B60500  24.519  38.166   6.750
 9142POPC   C3B60501  24.576  38.170   7.050
 9142POPC   C4B60502  24.570  38.184   7.350
 9143POPC   NC360503  11.302  38.472   5.550
 9143POPC   PO460504  11.304  38.502   5.850
 9143POPC   GL160505  11.348  38.433   6.150
 9143POPC   GL260506  11.315  38.308   6.150
 9143POPC   C1A60507  11.329  38.466   6.450
 9143POPC   D2A60508  11.286  38.439   6.750
 9143POPC   C3A60509  11.303  38.441   7.050
 9143POPC   C4A60510  11.292  38.443   7.350
 9143POPC   C1B60511  11.389  38.178   6.450
 9143POPC   C2B60512  11.334  38.257   6.750
 9143POPC   C3B60513  11.415  38.240   7.050
 9143POPC   C4B60514  11.388  38.259   7.350
 9144POPC   NC360515  29.899  25.301   5.550
 9144POPC   PO460516  29.884  25.264   5.850
 9144POPC   GL160517  29.965  25.217   6.150
 9144POPC   GL260518  29.972  25.392   6.150
 9144POPC   C1A60519  29.931  25.234   6.450
 9144POPC   D2A60520  29.913  25.264   6.750
 9144POPC   C3A60521  29.958  25.265   7.050
 9144POPC   C4A60522  29.970  25.272   7.350
 9144POPC   C1B60523  30.048  25.500   6.450
 9144POPC   C2B60524  30.121  25.481   6.750
 9144POPC   C3B60525  30.105  25.506   7.050
 9144POPC   C4B60526  30.064  25.447   7.350
 9145POPC   NC360527   8.241  18.251   5.550
 9145POPC   PO460528   8.222  18.293   5.850
 9145POPC   GL160529   8.177  18.258   6.150
 9145POPC   GL260530   8.102  18.235   6.150
 9145POPC   C1A60531   8.190  18.333   6.450
 9145POPC   D2A60532   8.215  18.322   6.750
 9145POPC   C3A60533   8.237  18.294   7.050
 9145POPC   C4A60534   8.197  18.251   7.350
 9145POPC   C1B60535   7.927  18.196   6.450
 9145POPC   C2B60536   7.992  18.243   6.750
 9145POPC   C3B60537   8.007  18.234   7.050
 9145POPC   C4B60538   7.932  18.227   7.350
 9146POPC   NC360539  26.804  36.101   5.550
 9146POPC   PO460540  26.782  36.122   5.850
 9146POPC   GL160541  26.802  36.132   6.150
 9146POPC   GL260542  26.747  36.248   6.150
 9146POPC   C1A60543  26.809  36.166   6.450
 9146POPC   D2A60544  26.840  36.082   6.750
 9146POPC   C3A60545  26.859  36.104   7.050
 9146POPC   C4A60546  26.844  36.088   7.350
 9146POPC   C1B60547  26.648  36.311   6.450
 9146POPC   C2B60548  26.676  36.309   6.750
 9146POPC   C3B60549  26.652  36.332   7.050
 9146POPC   C4B60550  26.603  36.321   7.350
 9147POPC   NC360551   8.958  40.818   5.550
 9147POPC   PO460552   9.022  40.785   5.850
 9147POPC   GL160553   8.949  40.751   6.150
 9147POPC   GL260554   8.964  40.715   6.150
 9147POPC   C1A60555   8.998  40.825   6.450
 9147POPC   D2A60556   8.953  40.824   6.750
 9147POPC   C3A60557   8.930  40.736   7.050
 9147POPC   C4A60558   8.946  40.736   7.350
 9147POPC   C1B60559   8.898  40.531   6.450
 9147POPC   C2B60560   8.848  40.527   6.750
 9147POPC   C3B60561   8.905  40.528   7.050
 9147POPC   C4B60562   8.865  40.523   7.350
 9148POPC   NC360563  29.123   4.314   5.550
 9148POPC   PO460564  29.111   4.335   5.850
 9148POPC   GL160565  29.113   4.269   6.150
 9148POPC   GL260566  29.026   4.319   6.150
 9148POPC   C1A60567  29.165   4.275   6.450
 9148POPC   D2A60568  29.175   4.306   6.750
 9148POPC   C3A60569  29.154   4.364   7.050
 9148POPC   C4A60570  29.155   4.282   7.350
 9148POPC   C1B60571  28.915   4.316   6.450
 9148POPC   C2B60572  28.859   4.263   6.750
 9148POPC   C3B60573  28.936   4.290   7.050
 9148POPC   C4B60574  28.932   4.289   7.350
 9149POPC   NC360575  28.383  43.093   5.550
 9149POPC   PO460576  28.348  43.145   5.850
 9149POPC   GL160577  28.338  43.147   6.150
 9149POPC   GL260578  28.456  43.137   6.150
 9149POPC   C1A60579  28.390  43.140   6.450
 9149POPC   D2A60580  28.385  43.156   6.750
 9149POPC   C3A60581  28.404  43.103   7.050
 9149POPC   C4A60582  28.324  43.070   7.350
 9149POPC   C1B60583  28.633  43.113   6.450
 9149POPC   C2B60584  28.606  43.094   6.750
 9149POPC   C3B60585  28.662  43.133   7.050
 9149POPC   C4B60586  28.634  43.046   7.350
 9150POPC   NC360587  31.447   6.599   5.550
 9150POPC   PO460588  31.447   6.674   5.850
 9150POPC   GL160589  31.426   6.610   6.150
 9150POPC   GL260590  31.447   6.568   6.150
 9150POPC   C1A60591  31.510   6.606   6.450
 9150POPC   D2A60592  31.450   6.605   6.750
 9150POPC   C3A60593  31.507   6.650   7.050
 9150POPC   C4A60594  31.476   6.624   7.350
 9150POPC   C1B60595  31.543   6.443   6.450
 9150POPC   C2B60596  31.460   6.368   6.750
 9150POPC   C3B60597  31.546   6.391   7.050
 9150POPC   C4B60598  31.520   6.351   7.350
 9151POPC   NC360599   6.651  43.861   5.550
 9151POPC   PO460600   6.655  43.898   5.850
 9151POPC   GL160601   6.669  43.899   6.150
 9151POPC   GL260602   6.798  43.926   6.150
 9151POPC   C1A60603   6.649  43.869   6.450
 9151POPC   D2A60604   6.609  43.880   6.750
 9151POPC   C3A60605   6.693  43.904   7.050
 9151POPC   C4A60606   6.690  43.922   7.350
 9151POPC   C1B60607   6.864  44.023   6.450
 9151POPC   C2B60608   6.869  43.976   6.750
 9151POPC   C3B60609   6.914  43.971   7.050
 9151POPC   C4B60610   6.895  43.961   7.350
 9152POPC   NC360611  43.078  39.251   5.550
 9152POPC   PO460612  43.115  39.272   5.850
 9152POPC   GL160613  43.160  39.271   6.150
 9152POPC   GL260614  43.030  39.151   6.150
 9152POPC   C1A60615  43.085  39.187   6.450
 9152POPC   D2A60616  43.084  39.186   6.750
 9152POPC   C3A60617  43.143  39.257   7.050
 9152POPC   C4A60618  43.139  39.226   7.350
 9152POPC   C1B60619  42.868  39.111   6.450
 9152POPC   C2B60620  42.942  39.076   6.750
 9152POPC   C3B60621  42.913  39.096   7.050
 9152POPC   C4B60622  42.872  39.139   7.350
 9153POPC   NC360623  43.099  40.006   5.550
 9153POPC   PO460624  43.113  40.013   5.850
 9153POPC   GL160625  43.073  40.048   6.150
 9153POPC   GL260626  43.178  39.989   6.150
 9153POPC   C1A60627  43.125  40.049   6.450
 9153POPC   D2A60628  43.086  40.057   6.750
 9153POPC   C3A60629  43.150  40.053   7.050
 9153POPC   C4A60630  43.110  40.044   7.350
 9153POPC   C1B60631  43.324  39.872   6.450
 9153POPC   C2B60632  43.326  39.901   6.750
 9153POPC   C3B60633  43.322  39.874   7.050
 9153POPC   C4B60634  43.339  39.907   7.350
 9154POPC   NC360635  12.040  43.064   5.550
 9154POPC   PO460636  12.060  43.156   5.850
 9154POPC   GL160637  12.112  43.085   6.150
 9154POPC   GL260638  12.024  42.973   6.150
 9154POPC   C1A60639  12.091  43.113   6.450
 9154POPC   D2A60640  12.071  43.122   6.750
 9154POPC   C3A60641  12.068  43.145   7.050
 9154POPC   C4A60642  12.059  43.080   7.350
 9154POPC   C1B60643  12.054  42.838   6.450
 9154POPC   C2B60644  12.048  42.901   6.750
 9154POPC   C3B60645  12.052  42.830   7.050
 9154POPC   C4B60646  11.995  42.891   7.350
 9155POPC   NC360647  19.833  15.922   5.550
 9155POPC   PO460648  19.810  15.943   5.850
 9155POPC   GL160649  19.855  15.993   6.150
 9155POPC   GL260650  19.960  15.882   6.150
 9155POPC   C1A60651  19.851  15.909   6.450
 9155POPC   D2A60652  19.804  15.962   6.750
 9155POPC   C3A60653  19.811  15.983   7.050
 9155POPC   C4A60654  19.792  15.992   7.350
 9155POPC   C1B60655  20.102  15.834   6.450
 9155POPC   C2B60656  20.015  15.870   6.750
 9155POPC   C3B60657  20.038  15.869   7.050
 9155POPC   C4B60658  20.026  15.829   7.350
 9156POPC   NC360659  29.146   9.013   5.550
 9156POPC   PO460660  29.151   9.022   5.850
 9156POPC   GL160661  29.172   9.015   6.150
 9156POPC   GL260662  29.096   8.842   6.150
 9156POPC   C1A60663  29.136   8.955   6.450
 9156POPC   D2A60664  29.116   8.934   6.750
 9156POPC   C3A60665  29.121   8.974   7.050
 9156POPC   C4A60666  29.146   8.978   7.350
 9156POPC   C1B60667  29.025   8.778   6.450
 9156POPC   C2B60668  28.988   8.751   6.750
 9156POPC   C3B60669  29.002   8.800   7.050
 9156POPC   C4B60670  28.951   8.803   7.350
 9157POPC   NC360671   5.087  11.266   5.550
 9157POPC   PO460672   5.104  11.325   5.850
 9157POPC   GL160673   5.134  11.300   6.150
 9157POPC   GL260674   4.944  11.245   6.150
 9157POPC   C1A60675   5.061  11.314   6.450
 9157POPC   D2A60676   5.082  11.292   6.750
 9157POPC   C3A60677   5.106  11.294   7.050
 9157POPC   C4A60678   5.140  11.269   7.350
 9157POPC   C1B60679   4.917  11.108   6.450
 9157POPC   C2B60680   4.913  11.180   6.750
 9157POPC   C3B60681   4.881  11.156   7.050
 9157POPC   C4B60682   4.874  11.124   7.350
 9158POPC   NC360683  33.777  37.680   5.550
 9158POPC   PO460684  33.780  37.673   5.850
 9158POPC   GL160685  33.810  37.707   6.150
 9158POPC   GL260686  33.806  37.595   6.150
 9158POPC   C1A60687  33.804  37.689   6.450
 9158POPC   D2A60688  33.756  37.691   6.750
 9158POPC   C3A60689  33.806  37.641   7.050
 9158POPC   C4A60690  33.820  37.659   7.350
 9158POPC   C1B60691  33.804  37.446   6.450
 9158POPC   C2B60692  33.739  37.436   6.750
 9158POPC   C3B60693  33.771  37.393   7.050
 9158POPC   C4B60694  33.833  37.412   7.350
 9159POPC   NC360695   0.451  13.663   5.550
 9159POPC   PO460696   0.391  13.630   5.850
 9159POPC   GL160697   0.408  13.622   6.150
 9159POPC   GL260698   0.461  13.703   6.150
 9159POPC   C1A60699   0.434  13.611   6.450
 9159POPC   D2A60700   0.441  13.647   6.750
 9159POPC   C3A60701   0.438  13.633   7.050
 9159POPC   C4A60702   0.405  13.594   7.350
 9159POPC   C1B60703   0.574  13.847   6.450
 9159POPC   C2B60704   0.600  13.809   6.750
 9159POPC   C3B60705   0.573  13.866   7.050
 9159POPC   C4B60706   0.534  13.835   7.350
 9160POPC   NC360707  43.840  33.827   5.550
 9160POPC   PO460708  43.881  33.812   5.850
 9160POPC   GL160709  43.896  33.763   6.150
 9160POPC   GL260710  43.972  33.702   6.150
 9160POPC   C1A60711  43.845  33.829   6.450
 9160POPC   D2A60712  43.871  33.831   6.750
 9160POPC   C3A60713  43.933  33.824   7.050
 9160POPC   C4A60714  43.936  33.786   7.350
 9160POPC   C1B60715  44.073  33.701   6.450
 9160POPC   C2B60716  44.139  33.665   6.750
 9160POPC   C3B60717  44.129  33.745   7.050
 9160POPC   C4B60718  44.070  33.704   7.350
 9161POPC   NC360719  19.819   9.780   5.550
 9161POPC   PO460720  19.787   9.759   5.850
 9161POPC   GL160721  19.785   9.735   6.150
 9161POPC   GL260722  19.905   9.820   6.150
 9161POPC   C1A60723  19.867   9.714   6.450
 9161POPC   D2A60724  19.785   9.778   6.750
 9161POPC   C3A60725  19.792   9.716   7.050
 9161POPC   C4A60726  19.884   9.744   7.350
 9161POPC   C1B60727  20.116   9.812   6.450
 9161POPC   C2B60728  20.112   9.873   6.750
 9161POPC   C3B60729  20.022   9.835   7.050
 9161POPC   C4B60730  20.115   9.819   7.350
 9162POPC   NC360731  16.685  36.108   5.550
 9162POPC   PO460732  16.690  36.126   5.850
 9162POPC   GL160733  16.757  36.087   6.150
 9162POPC   GL260734  16.567  36.151   6.150
 9162POPC   C1A60735  16.741  36.084   6.450
 9162POPC   D2A60736  16.707  36.108   6.750
 9162POPC   C3A60737  16.694  36.147   7.050
 9162POPC   C4A60738  16.687  36.086   7.350
 9162POPC   C1B60739  16.464  36.230   6.450
 9162POPC   C2B60740  16.463  36.151   6.750
 9162POPC   C3B60741  16.451  36.214   7.050
 9162POPC   C4B60742  16.520  36.205   7.350
 9163POPC   NC360743  43.894  14.375   5.550
 9163POPC   PO460744  43.872  14.434   5.850
 9163POPC   GL160745  43.891  14.386   6.150
 9163POPC   GL260746  43.881  14.554   6.150
 9163POPC   C1A60747  43.932  14.407   6.450
 9163POPC   D2A60748  43.877  14.438   6.750
 9163POPC   C3A60749  43.901  14.449   7.050
 9163POPC   C4A60750  43.857  14.423   7.350
 9163POPC   C1B60751  43.804  14.645   6.450
 9163POPC   C2B60752  43.851  14.642   6.750
 9163POPC   C3B60753  43.790  14.661   7.050
 9163POPC   C4B60754  43.811  14.621   7.350
 9164POPC   NC360755  43.903  12.068   5.550
 9164POPC   PO460756  43.893  12.110   5.850
 9164POPC   GL160757  43.915  12.094   6.150
 9164POPC   GL260758  43.823  12.151   6.150
 9164POPC   C1A60759  43.919  12.125   6.450
 9164POPC   D2A60760  43.924  12.093   6.750
 9164POPC   C3A60761  43.870  12.075   7.050
 9164POPC   C4A60762  43.864  12.092   7.350
 9164POPC   C1B60763  43.714  12.260   6.450
 9164POPC   C2B60764  43.759  12.307   6.750
 9164POPC   C3B60765  43.745  12.289   7.050
 9164POPC   C4B60766  43.744  12.274   7.350
 9165POPC   NC360767  43.084  26.069   5.550
 9165POPC   PO460768  43.085  26.021   5.850
 9165POPC   GL160769  43.082  26.081   6.150
 9165POPC   GL260770  43.053  25.945   6.150
 9165POPC   C1A60771  43.146  26.046   6.450
 9165POPC   D2A60772  43.071  26.021   6.750
 9165POPC   C3A60773  43.130  26.020   7.050
 9165POPC   C4A60774  43.079  26.084   7.350
 9165POPC   C1B60775  43.017  25.841   6.450
 9165POPC   C2B60776  43.061  25.784   6.750
 9165POPC   C3B60777  43.038  25.832   7.050
 9165POPC   C4B60778  43.019  25.813   7.350
 9166POPC   NC360779  31.436  44.675   5.550
 9166POPC   PO460780  31.473  44.672   5.850
 9166POPC   GL160781  31.449  44.654   6.150
 9166POPC   GL260782  31.403  44.704   6.150
 9166POPC   C1A60783  31.456  44.636   6.450
 9166POPC   D2A60784  31.449  44.673   6.750
 9166POPC   C3A60785  31.457  44.670   7.050
 9166POPC   C4A60786  31.438  44.636   7.350
 9166POPC   C1B60787  31.333  44.830   6.450
 9166POPC   C2B60788  31.301  44.852   6.750
 9166POPC   C3B60789  31.304  44.797   7.050
 9166POPC   C4B60790  31.257  44.880   7.350
 9167POPC   NC360791  43.109  13.612   5.550
 9167POPC   PO460792  43.126  13.612   5.850
 9167POPC   GL160793  43.108  13.645   6.150
 9167POPC   GL260794  43.210  13.647   6.150
 9167POPC   C1A60795  43.069  13.630   6.450
 9167POPC   D2A60796  43.117  13.672   6.750
 9167POPC   C3A60797  43.100  13.646   7.050
 9167POPC   C4A60798  43.124  13.633   7.350
 9167POPC   C1B60799  43.333  13.684   6.450
 9167POPC   C2B60800  43.343  13.717   6.750
 9167POPC   C3B60801  43.342  13.719   7.050
 9167POPC   C4B60802  43.339  13.671   7.350
 9168POPC   NC360803  22.131  19.065   5.550
 9168POPC   PO460804  22.166  19.102   5.850
 9168POPC   GL160805  22.125  19.045   6.150
 9168POPC   GL260806  22.012  19.099   6.150
 9168POPC   C1A60807  22.148  19.098   6.450
 9168POPC   D2A60808  22.211  19.077   6.750
 9168POPC   C3A60809  22.140  19.072   7.050
 9168POPC   C4A60810  22.113  19.085   7.350
 9168POPC   C1B60811  21.916  19.189   6.450
 9168POPC   C2B60812  22.001  19.236   6.750
 9168POPC   C3B60813  21.921  19.196   7.050
 9168POPC   C4B60814  21.929  19.178   7.350
 9169POPC   NC360815  41.576  43.913   5.550
 9169POPC   PO460816  41.531  43.852   5.850
 9169POPC   GL160817  41.574  43.908   6.150
 9169POPC   GL260818  41.488  43.973   6.150
 9169POPC   C1A60819  41.566  43.859   6.450
 9169POPC   D2A60820  41.565  43.878   6.750
 9169POPC   C3A60821  41.540  43.901   7.050
 9169POPC   C4A60822  41.585  43.851   7.350
 9169POPC   C1B60823  41.493  44.079   6.450
 9169POPC   C2B60824  41.460  44.144   6.750
 9169POPC   C3B60825  41.466  44.117   7.050
 9169POPC   C4B60826  41.447  44.092   7.350
 9170POPC   NC360827  29.879  33.017   5.550
 9170POPC   PO460828  29.931  33.062   5.850
 9170POPC   GL160829  29.916  33.057   6.150
 9170POPC   GL260830  30.035  32.986   6.150
 9170POPC   C1A60831  29.925  33.030   6.450
 9170POPC   D2A60832  29.914  33.029   6.750
 9170POPC   C3A60833  29.875  33.044   7.050
 9170POPC   C4A60834  29.926  32.999   7.350
 9170POPC   C1B60835  30.209  33.006   6.450
 9170POPC   C2B60836  30.177  32.951   6.750
 9170POPC   C3B60837  30.151  32.998   7.050
 9170POPC   C4B60838  30.212  32.932   7.350
 9171POPC   NC360839   5.134  18.248   5.550
 9171POPC   PO460840   5.114  18.311   5.850
 9171POPC   GL160841   5.113  18.266   6.150
 9171POPC   GL260842   5.039  18.424   6.150
 9171POPC   C1A60843   5.113  18.280   6.450
 9171POPC   D2A60844   5.066  18.261   6.750
 9171POPC   C3A60845   5.082  18.326   7.050
 9171POPC   C4A60846   5.110  18.251   7.350
 9171POPC   C1B60847   4.987  18.490   6.450
 9171POPC   C2B60848   5.062  18.567   6.750
 9171POPC   C3B60849   5.004  18.496   7.050
 9171POPC   C4B60850   5.042  18.557   7.350
 9172POPC   NC360851  31.473  23.727   5.550
 9172POPC   PO460852  31.479  23.692   5.850
 9172POPC   GL160853  31.482  23.753   6.150
 9172POPC   GL260854  31.603  23.578   6.150
 9172POPC   C1A60855  31.496  23.669   6.450
 9172POPC   D2A60856  31.498  23.721   6.750
 9172POPC   C3A60857  31.486  23.708   7.050
 9172POPC   C4A60858  31.456  23.735   7.350
 9172POPC   C1B60859  31.618  23.484   6.450
 9172POPC   C2B60860  31.630  23.558   6.750
 9172POPC   C3B60861  31.598  23.493   7.050
 9172POPC   C4B60862  31.588  23.525   7.350
 9173POPC   NC360863  32.214  44.685   5.550
 9173POPC   PO460864  32.259  44.705   5.850
 9173POPC   GL160865  32.240  44.625   6.150
 9173POPC   GL260866  32.149  44.615   6.150
 9173POPC   C1A60867  32.203  44.677   6.450
 9173POPC   D2A60868  32.281  44.656   6.750
 9173POPC   C3A60869  32.297  44.699   7.050
 9173POPC   C4A60870  32.232  44.697   7.350
 9173POPC   C1B60871  32.032  44.653   6.450
 9173POPC   C2B60872  31.995  44.655   6.750
 9173POPC   C3B60873  32.035  44.646   7.050
 9173POPC   C4B60874  32.011  44.629   7.350
 9174POPC   NC360875  26.057  15.983   5.550
 9174POPC   PO460876  25.993  15.936   5.850
 9174POPC   GL160877  26.064  15.905   6.150
 9174POPC   GL260878  25.939  16.040   6.150
 9174POPC   C1A60879  26.002  15.971   6.450
 9174POPC   D2A60880  26.068  15.993   6.750
 9174POPC   C3A60881  25.993  15.948   7.050
 9174POPC   C4A60882  26.061  15.997   7.350
 9174POPC   C1B60883  25.775  16.055   6.450
 9174POPC   C2B60884  25.768  16.091   6.750
 9174POPC   C3B60885  25.787  16.027   7.050
 9174POPC   C4B60886  25.834  16.077   7.350
 9175POPC   NC360887  40.040  42.287   5.550
 9175POPC   PO460888  40.040  42.338   5.850
 9175POPC   GL160889  39.971  42.313   6.150
 9175POPC   GL260890  39.968  42.492   6.150
 9175POPC   C1A60891  40.011  42.295   6.450
 9175POPC   D2A60892  40.003  42.352   6.750
 9175POPC   C3A60893  40.055  42.358   7.050
 9175POPC   C4A60894  40.007  42.334   7.350
 9175POPC   C1B60895  39.949  42.571   6.450
 9175POPC   C2B60896  39.924  42.616   6.750
 9175POPC   C3B60897  39.944  42.575   7.050
 9175POPC   C4B60898  39.910  42.577   7.350
 9176POPC   NC360899   8.194  11.271   5.550
 9176POPC   PO460900   8.164  11.296   5.850
 9176POPC   GL160901   8.184  11.268   6.150
 9176POPC   GL260902   8.067  11.308   6.150
 9176POPC   C1A60903   8.189  11.283   6.450
 9176POPC   D2A60904   8.154  11.331   6.750
 9176POPC   C3A60905   8.217  11.262   7.050
 9176POPC   C4A60906   8.199  11.310   7.350
 9176POPC   C1B60907   7.951  11.429   6.450
 9176POPC   C2B60908   7.983  11.421   6.750
 9176POPC   C3B60909   7.980  11.427   7.050
 9176POPC   C4B60910   7.994  11.394   7.350
 9177POPC   NC360911  31.512   2.757   5.550
 9177POPC   PO460912  31.493   2.767   5.850
 9177POPC   GL160913  31.476   2.767   6.150
 9177POPC   GL260914  31.551   2.778   6.150
 9177POPC   C1A60915  31.508   2.782   6.450
 9177POPC   D2A60916  31.450   2.813   6.750
 9177POPC   C3A60917  31.494   2.793   7.050
 9177POPC   C4A60918  31.506   2.760   7.350
 9177POPC   C1B60919  31.661   2.895   6.450
 9177POPC   C2B60920  31.703   2.849   6.750
 9177POPC   C3B60921  31.693   2.834   7.050
 9177POPC   C4B60922  31.737   2.868   7.350
 9178POPC   NC360923   4.284  36.120   5.550
 9178POPC   PO460924   4.271  36.107   5.850
 9178POPC   GL160925   4.284  36.163   6.150
 9178POPC   GL260926   4.442  36.076   6.150
 9178POPC   C1A60927   4.274  36.087   6.450
 9178POPC   D2A60928   4.336  36.107   6.750
 9178POPC   C3A60929   4.278  36.170   7.050
 9178POPC   C4A60930   4.300  36.123   7.350
 9178POPC   C1B60931   4.574  36.038   6.450
 9178POPC   C2B60932   4.508  35.943   6.750
 9178POPC   C3B60933   4.569  36.005   7.050
 9178POPC   C4B60934   4.510  36.003   7.350
 9179POPC   NC360935   4.293  40.756   5.550
 9179POPC   PO460936   4.335  40.805   5.850
 9179POPC   GL160937   4.288  40.743   6.150
 9179POPC   GL260938   4.315  40.940   6.150
 9179POPC   C1A60939   4.335  40.740   6.450
 9179POPC   D2A60940   4.303  40.735   6.750
 9179POPC   C3A60941   4.367  40.803   7.050
 9179POPC   C4A60942   4.300  40.799   7.350
 9179POPC   C1B60943   4.355  41.010   6.450
 9179POPC   C2B60944   4.413  41.038   6.750
 9179POPC   C3B60945   4.397  40.983   7.050
 9179POPC   C4B60946   4.383  40.988   7.350
 9180POPC   NC360947   5.833  35.378   5.550
 9180POPC   PO460948   5.877  35.360   5.850
 9180POPC   GL160949   5.883  35.383   6.150
 9180POPC   GL260950   5.858  35.477   6.150
 9180POPC   C1A60951   5.850  35.388   6.450
 9180POPC   D2A60952   5.891  35.346   6.750
 9180POPC   C3A60953   5.829  35.310   7.050
 9180POPC   C4A60954   5.878  35.358   7.350
 9180POPC   C1B60955   5.744  35.585   6.450
 9180POPC   C2B60956   5.753  35.541   6.750
 9180POPC   C3B60957   5.736  35.599   7.050
 9180POPC   C4B60958   5.738  35.609   7.350
 9181POPC   NC360959  15.206   0.485   5.550
 9181POPC   PO460960  15.211   0.464   5.850
 9181POPC   GL160961  15.154   0.407   6.150
 9181POPC   GL260962  15.033   0.365   6.150
 9181POPC   C1A60963  15.197   0.413   6.450
 9181POPC   D2A60964  15.134   0.452   6.750
 9181POPC   C3A60965  15.201   0.438   7.050
 9181POPC   C4A60966  15.215   0.437   7.350
 9181POPC   C1B60967  15.021   0.327   6.450
 9181POPC   C2B60968  14.992   0.342   6.750
 9181POPC   C3B60969  14.991   0.342   7.050
 9181POPC   C4B60970  15.018   0.293   7.350
 9182POPC   NC360971  40.011  29.965   5.550
 9182POPC   PO460972  40.043  29.925   5.850
 9182POPC   GL160973  39.994  29.898   6.150
 9182POPC   GL260974  39.971  29.816   6.150
 9182POPC   C1A60975  39.967  29.916   6.450
 9182POPC   D2A60976  39.975  29.878   6.750
 9182POPC   C3A60977  40.000  29.913   7.050
 9182POPC   C4A60978  40.054  29.884   7.350
 9182POPC   C1B60979  39.913  29.705   6.450
 9182POPC   C2B60980  39.900  29.668   6.750
 9182POPC   C3B60981  39.948  29.686   7.050
 9182POPC   C4B60982  39.949  29.667   7.350
 9183POPC   NC360983  31.468   5.141   5.550
 9183POPC   PO460984  31.434   5.110   5.850
 9183POPC   GL160985  31.461   5.068   6.150
 9183POPC   GL260986  31.470   5.244   6.150
 9183POPC   C1A60987  31.460   5.053   6.450
 9183POPC   D2A60988  31.486   5.090   6.750
 9183POPC   C3A60989  31.472   5.134   7.050
 9183POPC   C4A60990  31.440   5.086   7.350
 9183POPC   C1B60991  31.481   5.378   6.450
 9183POPC   C2B60992  31.552   5.365   6.750
 9183POPC   C3B60993  31.526   5.309   7.050
 9183POPC   C4B60994  31.503   5.369   7.350
 9184POPC   NC360995  29.132  43.928   5.550
 9184POPC   PO460996  29.119  43.924   5.850
 9184POPC   GL160997  29.160  43.904   6.150
 9184POPC   GL260998  29.082  43.912   6.150
 9184POPC   C1A60999  29.124  43.903   6.450
 9184POPC   D2A61000  29.145  43.847   6.750
 9184POPC   C3A61001  29.099  43.881   7.050
 9184POPC   C4A61002  29.143  43.918   7.350
 9184POPC   C1B61003  28.907  43.969   6.450
 9184POPC   C2B61004  28.945  44.043   6.750
 9184POPC   C3B61005  28.972  44.019   7.050
 9184POPC   C4B61006  28.936  43.960   7.350
 9185POPC   NC361007   1.192  10.546   5.550
 9185POPC   PO461008   1.176  10.564   5.850
 9185POPC   GL161009   1.207  10.547   6.150
 9185POPC   GL261010   1.094  10.529   6.150
 9185POPC   C1A61011   1.250  10.516   6.450
 9185POPC   D2A61012   1.184  10.521   6.750
 9185POPC   C3A61013   1.164  10.546   7.050
 9185POPC   C4A61014   1.188  10.505   7.350
 9185POPC   C1B61015   1.001  10.589   6.450
 9185POPC   C2B61016   0.943  10.587   6.750
 9185POPC   C3B61017   1.025  10.588   7.050
 9185POPC   C4B61018   0.958  10.654   7.350
 9186POPC   NC361019  39.275   8.243   5.550
 9186POPC   PO461020  39.202   8.234   5.850
 9186POPC   GL161021  39.186   8.202   6.150
 9186POPC   GL261022  39.344   8.122   6.150
 9186POPC   C1A61023  39.193   8.227   6.450
 9186POPC   D2A61024  39.267   8.147   6.750
 9186POPC   C3A61025  39.218   8.188   7.050
 9186POPC   C4A61026  39.261   8.218   7.350
 9186POPC   C1B61027  39.414   8.034   6.450
 9186POPC   C2B61028  39.366   8.053   6.750
 9186POPC   C3B61029  39.367   7.971   7.050
 9186POPC   C4B61030  39.388   8.035   7.350
 9187POPC   NC361031   3.493  21.368   5.550
 9187POPC   PO461032   3.552  21.345   5.850
 9187POPC   GL161033   3.571  21.400   6.150
 9187POPC   GL261034   3.635  21.451   6.150
 9187POPC   C1A61035   3.509  21.375   6.450
 9187POPC   D2A61036   3.577  21.411   6.750
 9187POPC   C3A61037   3.533  21.401   7.050
 9187POPC   C4A61038   3.510  21.351   7.350
 9187POPC   C1B61039   3.706  21.533   6.450
 9187POPC   C2B61040   3.704  21.521   6.750
 9187POPC   C3B61041   3.696  21.581   7.050
 9187POPC   C4B61042   3.696  21.503   7.350
 9188POPC   NC361043   1.191  15.213   5.550
 9188POPC   PO461044   1.181  15.207   5.850
 9188POPC   GL161045   1.180  15.159   6.150
 9188POPC   GL261046   1.307  15.282   6.150
 9188POPC   C1A61047   1.226  15.150   6.450
 9188POPC   D2A61048   1.244  15.199   6.750
 9188POPC   C3A61049   1.175  15.213   7.050
 9188POPC   C4A61050   1.255  15.198   7.350
 9188POPC   C1B61051   1.341  15.427   6.450
 9188POPC   C2B61052   1.315  15.423   6.750
 9188POPC   C3B61053   1.297  15.403   7.050
 9188POPC   C4B61054   1.298  15.388   7.350
 9189POPC   NC361055  19.850  15.175   5.550
 9189POPC   PO461056  19.802  15.212   5.850
 9189POPC   GL161057  19.828  15.225   6.150
 9189POPC   GL261058  19.959  15.129   6.150
 9189POPC   C1A61059  19.871  15.148   6.450
 9189POPC   D2A61060  19.835  15.189   6.750
 9189POPC   C3A61061  19.869  15.175   7.050
 9189POPC   C4A61062  19.804  15.198   7.350
 9189POPC   C1B61063  20.066  15.110   6.450
 9189POPC   C2B61064  20.022  15.067   6.750
 9189POPC   C3B61065  20.113  15.052   7.050
 9189POPC   C4B61066  20.042  15.124   7.350
 9190POPC   NC361067  29.146  19.840   5.550
 9190POPC   PO461068  29.112  19.817   5.850
 9190POPC   GL161069  29.169  19.867   6.150
 9190POPC   GL261070  28.976  19.828   6.150
 9190POPC   C1A61071  29.132  19.856   6.450
 9190POPC   D2A61072  29.159  19.811   6.750
 9190POPC   C3A61073  29.125  19.867   7.050
 9190POPC   C4A61074  29.122  19.884   7.350
 9190POPC   C1B61075  28.876  19.853   6.450
 9190POPC   C2B61076  28.925  19.865   6.750
 9190POPC   C3B61077  28.946  19.944   7.050
 9190POPC   C4B61078  28.898  19.931   7.350
 9191POPC   NC361079  15.926  40.833   5.550
 9191POPC   PO461080  15.912  40.804   5.850
 9191POPC   GL161081  15.987  40.827   6.150
 9191POPC   GL261082  15.893  40.668   6.150
 9191POPC   C1A61083  15.931  40.809   6.450
 9191POPC   D2A61084  15.939  40.787   6.750
 9191POPC   C3A61085  15.967  40.742   7.050
 9191POPC   C4A61086  15.917  40.797   7.350
 9191POPC   C1B61087  15.809  40.595   6.450
 9191POPC   C2B61088  15.807  40.573   6.750
 9191POPC   C3B61089  15.737  40.602   7.050
 9191POPC   C4B61090  15.790  40.598   7.350
 9192POPC   NC361091   8.953  43.922   5.550
 9192POPC   PO461092   8.969  43.905   5.850
 9192POPC   GL161093   9.022  43.877   6.150
 9192POPC   GL261094   8.844  44.001   6.150
 9192POPC   C1A61095   8.954  43.922   6.450
 9192POPC   D2A61096   9.010  43.873   6.750
 9192POPC   C3A61097   8.935  43.875   7.050
 9192POPC   C4A61098   9.013  43.869   7.350
 9192POPC   C1B61099   8.789  44.013   6.450
 9192POPC   C2B61100   8.781  44.012   6.750
 9192POPC   C3B61101   8.777  44.033   7.050
 9192POPC   C4B61102   8.765  44.006   7.350
 9193POPC   NC361103   5.896  39.192   5.550
 9193POPC   PO461104   5.912  39.191   5.850
 9193POPC   GL161105   5.893  39.245   6.150
 9193POPC   GL261106   5.941  39.123   6.150
 9193POPC   C1A61107   5.842  39.231   6.450
 9193POPC   D2A61108   5.915  39.229   6.750
 9193POPC   C3A61109   5.859  39.183   7.050
 9193POPC   C4A61110   5.862  39.275   7.350
 9193POPC   C1B61111   5.922  38.946   6.450
 9193POPC   C2B61112   5.943  39.035   6.750
 9193POPC   C3B61113   5.935  39.017   7.050
 9193POPC   C4B61114   5.971  38.960   7.350
 9194POPC   NC361115   0.410  41.554   5.550
 9194POPC   PO461116   0.446  41.517   5.850
 9194POPC   GL161117   0.404  41.579   6.150
 9194POPC   GL261118   0.353  41.624   6.150
 9194POPC   C1A61119   0.456  41.553   6.450
 9194POPC   D2A61120   0.408  41.579   6.750
 9194POPC   C3A61121   0.459  41.601   7.050
 9194POPC   C4A61122   0.444  41.536   7.350
 9194POPC   C1B61123   0.295  41.754   6.450
 9194POPC   C2B61124   0.264  41.737   6.750
 9194POPC   C3B61125   0.249  41.762   7.050
 9194POPC   C4B61126   0.296  41.750   7.350
 9195POPC   NC361127  18.321  12.814   5.550
 9195POPC   PO461128  18.280  12.852   5.850
 9195POPC   GL161129  18.246  12.899   6.150
 9195POPC   GL261130  18.251  12.757   6.150
 9195POPC   C1A61131  18.315  12.879   6.450
 9195POPC   D2A61132  18.245  12.898   6.750
 9195POPC   C3A61133  18.294  12.827   7.050
 9195POPC   C4A61134  18.261  12.812   7.350
 9195POPC   C1B61135  18.100  12.678   6.450
 9195POPC   C2B61136  18.147  12.651   6.750
 9195POPC   C3B61137  18.106  12.635   7.050
 9195POPC   C4B61138  18.100  12.669   7.350
 9196POPC   NC361139  27.566   4.289   5.550
 9196POPC   PO461140  27.635   4.298   5.850
 9196POPC   GL161141  27.560   4.356   6.150
 9196POPC   GL261142  27.671   4.232   6.150
 9196POPC   C1A61143  27.583   4.361   6.450
 9196POPC   D2A61144  27.552   4.314   6.750
 9196POPC   C3A61145  27.612   4.311   7.050
 9196POPC   C4A61146  27.579   4.269   7.350
 9196POPC   C1B61147  27.779   4.145   6.450
 9196POPC   C2B61148  27.729   4.142   6.750
 9196POPC   C3B61149  27.718   4.152   7.050
 9196POPC   C4B61150  27.766   4.091   7.350
 9197POPC   NC361151  21.377  24.509   5.550
 9197POPC   PO461152  21.409  24.476   5.850
 9197POPC   GL161153  21.435  24.443   6.150
 9197POPC   GL261154  21.442  24.575   6.150
 9197POPC   C1A61155  21.404  24.504   6.450
 9197POPC   D2A61156  21.414  24.532   6.750
 9197POPC   C3A61157  21.346  24.484   7.050
 9197POPC   C4A61158  21.345  24.521   7.350
 9197POPC   C1B61159  21.462  24.770   6.450
 9197POPC   C2B61160  21.428  24.701   6.750
 9197POPC   C3B61161  21.464  24.720   7.050
 9197POPC   C4B61162  21.461  24.714   7.350
 9198POPC   NC361163  39.212  40.772   5.550
 9198POPC   PO461164  39.190  40.766   5.850
 9198POPC   GL161165  39.260  40.821   6.150
 9198POPC   GL261166  39.062  40.810   6.150
 9198POPC   C1A61167  39.203  40.793   6.450
 9198POPC   D2A61168  39.221  40.832   6.750
 9198POPC   C3A61169  39.228  40.824   7.050
 9198POPC   C4A61170  39.182  40.829   7.350
 9198POPC   C1B61171  39.023  40.815   6.450
 9198POPC   C2B61172  39.034  40.866   6.750
 9198POPC   C3B61173  39.001  40.850   7.050
 9198POPC   C4B61174  38.953  40.864   7.350
 9199POPC   NC361175   5.875  30.721   5.550
 9199POPC   PO461176   5.857  30.680   5.850
 9199POPC   GL161177   5.825  30.682   6.150
 9199POPC   GL261178   5.814  30.791   6.150
 9199POPC   C1A61179   5.869  30.650   6.450
 9199POPC   D2A61180   5.873  30.693   6.750
 9199POPC   C3A61181   5.911  30.664   7.050
 9199POPC   C4A61182   5.889  30.681   7.350
 9199POPC   C1B61183   5.726  30.899   6.450
 9199POPC   C2B61184   5.658  30.839   6.750
 9199POPC   C3B61185   5.661  30.873   7.050
 9199POPC   C4B61186   5.716  30.836   7.350
 9200POPC   NC361187  15.213  15.944   5.550
 9200POPC   PO461188  15.150  15.938   5.850
 9200POPC   GL161189  15.144  16.003   6.150
 9200POPC   GL261190  15.304  15.894   6.150
 9200POPC   C1A61191  15.210  15.989   6.450
 9200POPC   D2A61192  15.147  15.934   6.750
 9200POPC   C3A61193  15.211  15.997   7.050
 9200POPC   C4A61194  15.194  16.004   7.350
 9200POPC   C1B61195  15.368  15.763   6.450
 9200POPC   C2B61196  15.404  15.773   6.750
 9200POPC   C3B61197  15.342  15.769   7.050
 9200POPC   C4B61198  15.332  15.825   7.350
 9201POPC   NC361199  25.273   1.946   5.550
 9201POPC   PO461200  25.218   1.942   5.850
 9201POPC   GL161201  25.314   1.996   6.150
 9201POPC   GL261202  25.416   1.922   6.150
 9201POPC   C1A61203  25.288   1.977   6.450
 9201POPC   D2A61204  25.216   1.983   6.750
 9201POPC   C3A61205  25.222   1.975   7.050
 9201POPC   C4A61206  25.251   1.989   7.350
 9201POPC   C1B61207  25.560   1.917   6.450
 9201POPC   C2B61208  25.477   1.964   6.750
 9201POPC   C3B61209  25.465   1.937   7.050
 9201POPC   C4B61210  25.561   1.987   7.350
 9202POPC   NC361211  12.891  26.865   5.550
 9202POPC   PO461212  12.889  26.781   5.850
 9202POPC   GL161213  12.873  26.835   6.150
 9202POPC   GL261214  12.732  26.724   6.150
 9202POPC   C1A61215  12.822  26.854   6.450
 9202POPC   D2A61216  12.828  26.803   6.750
 9202POPC   C3A61217  12.878  26.847   7.050
 9202POPC   C4A61218  12.897  26.785   7.350
 9202POPC   C1B61219  12.610  26.730   6.450
 9202POPC   C2B61220  12.656  26.761   6.750
 9202POPC   C3B61221  12.574  26.733   7.050
 9202POPC   C4B61222  12.623  26.699   7.350
 9203POPC   NC361223  40.024  43.867   5.550
 9203POPC   PO461224  40.003  43.872   5.850
 9203POPC   GL161225  39.957  43.886   6.150
 9203POPC   GL261226  40.077  43.909   6.150
 9203POPC   C1A61227  40.023  43.923   6.450
 9203POPC   D2A61228  39.985  43.872   6.750
 9203POPC   C3A61229  39.964  43.853   7.050
 9203POPC   C4A61230  40.013  43.879   7.350
 9203POPC   C1B61231  40.224  44.039   6.450
 9203POPC   C2B61232  40.186  44.031   6.750
 9203POPC   C3B61233  40.198  44.031   7.050
 9203POPC   C4B61234  40.251  43.986   7.350
 9204POPC   NC361235  39.223   1.988   5.550
 9204POPC   PO461236  39.253   2.005   5.850
 9204POPC   GL161237  39.194   2.013   6.150
 9204POPC   GL261238  39.388   2.075   6.150
 9204POPC   C1A61239  39.192   2.028   6.450
 9204POPC   D2A61240  39.239   1.990   6.750
 9204POPC   C3A61241  39.248   1.974   7.050
 9204POPC   C4A61242  39.223   1.979   7.350
 9204POPC   C1B61243  39.499   2.061   6.450
 9204POPC   C2B61244  39.505   2.054   6.750
 9204POPC   C3B61245  39.466   2.112   7.050
 9204POPC   C4B61246  39.462   2.111   7.350
 9205POPC   NC361247  16.690  44.643   5.550
 9205POPC   PO461248  16.738  44.621   5.850
 9205POPC   GL161249  16.694  44.656   6.150
 9205POPC   GL261250  16.822  44.664   6.150
 9205POPC   C1A61251  16.700  44.665   6.450
 9205POPC   D2A61252  16.754  44.667   6.750
 9205POPC   C3A61253  16.759  44.655   7.050
 9205POPC   C4A61254  16.741  44.655   7.350
 9205POPC   C1B61255  17.015  44.759   6.450
 9205POPC   C2B61256  16.925  44.783   6.750
 9205POPC   C3B61257  16.986  44.735   7.050
 9205POPC   C4B61258  16.981  44.757   7.350
 9206POPC   NC361259   9.720   4.269   5.550
 9206POPC   PO461260   9.707   4.298   5.850
 9206POPC   GL161261   9.773   4.269   6.150
 9206POPC   GL261262   9.623   4.358   6.150
 9206POPC   C1A61263   9.709   4.323   6.450
 9206POPC   D2A61264   9.740   4.281   6.750
 9206POPC   C3A61265   9.766   4.348   7.050
 9206POPC   C4A61266   9.716   4.315   7.350
 9206POPC   C1B61267   9.529   4.356   6.450
 9206POPC   C2B61268   9.539   4.367   6.750
 9206POPC   C3B61269   9.499   4.305   7.050
 9206POPC   C4B61270   9.548   4.292   7.350
 9207POPC   NC361271   3.560  12.097   5.550
 9207POPC   PO461272   3.576  12.054   5.850
 9207POPC   GL161273   3.583  12.031   6.150
 9207POPC   GL261274   3.438  11.980   6.150
 9207POPC   C1A61275   3.567  12.056   6.450
 9207POPC   D2A61276   3.582  12.040   6.750
 9207POPC   C3A61277   3.556  12.084   7.050
 9207POPC   C4A61278   3.541  12.103   7.350
 9207POPC   C1B61279   3.453  11.817   6.450
 9207POPC   C2B61280   3.400  11.876   6.750
 9207POPC   C3B61281   3.414  11.863   7.050
 9207POPC   C4B61282   3.421  11.889   7.350
 9208POPC   NC361283   2.799  42.287   5.550
 9208POPC   PO461284   2.796  42.365   5.850
 9208POPC   GL161285   2.723  42.370   6.150
 9208POPC   GL261286   2.711  42.491   6.150
 9208POPC   C1A61287   2.724  42.290   6.450
 9208POPC   D2A61288   2.722  42.321   6.750
 9208POPC   C3A61289   2.773  42.346   7.050
 9208POPC   C4A61290   2.753  42.298   7.350
 9208POPC   C1B61291   2.624  42.513   6.450
 9208POPC   C2B61292   2.680  42.551   6.750
 9208POPC   C3B61293   2.600  42.546   7.050
 9208POPC   C4B61294   2.696  42.507   7.350
 9209POPC   NC361295  15.974  39.239   5.550
 9209POPC   PO461296  15.911  39.197   5.850
 9209POPC   GL161297  15.968  39.210   6.150
 9209POPC   GL261298  15.943  39.323   6.150
 9209POPC   C1A61299  15.946  39.266   6.450
 9209POPC   D2A61300  15.949  39.223   6.750
 9209POPC   C3A61301  15.909  39.187   7.050
 9209POPC   C4A61302  15.918  39.243   7.350
 9209POPC   C1B61303  15.948  39.477   6.450
 9209POPC   C2B61304  15.970  39.460   6.750
 9209POPC   C3B61305  15.977  39.470   7.050
 9209POPC   C4B61306  15.939  39.497   7.350
 9210POPC   NC361307  33.032  21.354   5.550
 9210POPC   PO461308  32.980  21.433   5.850
 9210POPC   GL161309  33.048  21.352   6.150
 9210POPC   GL261310  32.937  21.474   6.150
 9210POPC   C1A61311  33.061  21.381   6.450
 9210POPC   D2A61312  32.992  21.347   6.750
 9210POPC   C3A61313  33.059  21.354   7.050
 9210POPC   C4A61314  33.053  21.400   7.350
 9210POPC   C1B61315  32.837  21.441   6.450
 9210POPC   C2B61316  32.795  21.479   6.750
 9210POPC   C3B61317  32.750  21.461   7.050
 9210POPC   C4B61318  32.777  21.502   7.350
 9211POPC   NC361319  25.249  44.673   5.550
 9211POPC   PO461320  25.232  44.704   5.850
 9211POPC   GL161321  25.305  44.668   6.150
 9211POPC   GL261322  25.171  44.674   6.150
 9211POPC   C1A61323  25.263  44.651   6.450
 9211POPC   D2A61324  25.283  44.613   6.750
 9211POPC   C3A61325  25.264  44.686   7.050
 9211POPC   C4A61326  25.246  44.678   7.350
 9211POPC   C1B61327  24.990  44.603   6.450
 9211POPC   C2B61328  24.976  44.587   6.750
 9211POPC   C3B61329  25.054  44.649   7.050
 9211POPC   C4B61330  25.024  44.615   7.350
 9212POPC   NC361331  33.817  24.524   5.550
 9212POPC   PO461332  33.802  24.470   5.850
 9212POPC   GL161333  33.826  24.534   6.150
 9212POPC   GL261334  33.733  24.426   6.150
 9212POPC   C1A61335  33.809  24.482   6.450
 9212POPC   D2A61336  33.808  24.496   6.750
 9212POPC   C3A61337  33.799  24.453   7.050
 9212POPC   C4A61338  33.784  24.451   7.350
 9212POPC   C1B61339  33.626  24.348   6.450
 9212POPC   C2B61340  33.566  24.394   6.750
 9212POPC   C3B61341  33.575  24.343   7.050
 9212POPC   C4B61342  33.611  24.369   7.350
 9213POPC   NC361343  40.830   8.981   5.550
 9213POPC   PO461344  40.740   9.013   5.850
 9213POPC   GL161345  40.806   9.014   6.150
 9213POPC   GL261346  40.663   9.052   6.150
 9213POPC   C1A61347  40.776   8.931   6.450
 9213POPC   D2A61348  40.751   8.930   6.750
 9213POPC   C3A61349  40.823   8.994   7.050
 9213POPC   C4A61350  40.822   8.936   7.350
 9213POPC   C1B61351  40.592   9.074   6.450
 9213POPC   C2B61352  40.614   9.147   6.750
 9213POPC   C3B61353  40.601   9.161   7.050
 9213POPC   C4B61354  40.595   9.145   7.350
 9214POPC   NC361355  41.528  42.374   5.550
 9214POPC   PO461356  41.568  42.289   5.850
 9214POPC   GL161357  41.525  42.305   6.150
 9214POPC   GL261358  41.537  42.479   6.150
 9214POPC   C1A61359  41.595  42.307   6.450
 9214POPC   D2A61360  41.578  42.311   6.750
 9214POPC   C3A61361  41.580  42.288   7.050
 9214POPC   C4A61362  41.537  42.347   7.350
 9214POPC   C1B61363  41.489  42.537   6.450
 9214POPC   C2B61364  41.531  42.561   6.750
 9214POPC   C3B61365  41.537  42.559   7.050
 9214POPC   C4B61366  41.498  42.574   7.350
 9215POPC   NC361367   2.743  33.001   5.550
 9215POPC   PO461368   2.784  33.016   5.850
 9215POPC   GL161369   2.803  33.004   6.150
 9215POPC   GL261370   2.806  32.884   6.150
 9215POPC   C1A61371   2.794  33.068   6.450
 9215POPC   D2A61372   2.753  32.998   6.750
 9215POPC   C3A61373   2.751  33.017   7.050
 9215POPC   C4A61374   2.784  32.994   7.350
 9215POPC   C1B61375   2.775  32.754   6.450
 9215POPC   C2B61376   2.782  32.784   6.750
 9215POPC   C3B61377   2.799  32.788   7.050
 9215POPC   C4B61378   2.831  32.795   7.350
 9216POPC   NC361379   6.674  15.203   5.550
 9216POPC   PO461380   6.611  15.142   5.850
 9216POPC   GL161381   6.628  15.154   6.150
 9216POPC   GL261382   6.563  15.051   6.150
 9216POPC   C1A61383   6.692  15.175   6.450
 9216POPC   D2A61384   6.676  15.205   6.750
 9216POPC   C3A61385   6.661  15.168   7.050
 9216POPC   C4A61386   6.668  15.177   7.350
 9216POPC   C1B61387   6.502  14.965   6.450
 9216POPC   C2B61388   6.526  14.976   6.750
 9216POPC   C3B61389   6.440  15.033   7.050
 9216POPC   C4B61390   6.465  14.986   7.350
 9217POPC   NC361391   3.580  42.373   5.550
 9217POPC   PO461392   3.586  42.375   5.850
 9217POPC   GL161393   3.493  42.376   6.150
 9217POPC   GL261394   3.610  42.171   6.150
 9217POPC   C1A61395   3.530  42.310   6.450
 9217POPC   D2A61396   3.536  42.312   6.750
 9217POPC   C3A61397   3.519  42.307   7.050
 9217POPC   C4A61398   3.515  42.319   7.350
 9217POPC   C1B61399   3.542  42.079   6.450
 9217POPC   C2B61400   3.574  42.121   6.750
 9217POPC   C3B61401   3.630  42.094   7.050
 9217POPC   C4B61402   3.547  42.046   7.350
 9218POPC   NC361403  30.665   8.991   5.550
 9218POPC   PO461404  30.701   8.934   5.850
 9218POPC   GL161405  30.718   9.018   6.150
 9218POPC   GL261406  30.577   9.049   6.150
 9218POPC   C1A61407  30.655   8.969   6.450
 9218POPC   D2A61408  30.690   8.924   6.750
 9218POPC   C3A61409  30.725   8.970   7.050
 9218POPC   C4A61410  30.727   8.955   7.350
 9218POPC   C1B61411  30.502   9.135   6.450
 9218POPC   C2B61412  30.495   9.050   6.750
 9218POPC   C3B61413  30.490   9.057   7.050
 9218POPC   C4B61414  30.521   9.038   7.350
 9219POPC   NC361415  15.194  13.612   5.550
 9219POPC   PO461416  15.193  13.617   5.850
 9219POPC   GL161417  15.159  13.601   6.150
 9219POPC   GL261418  15.120  13.702   6.150
 9219POPC   C1A61419  15.159  13.611   6.450
 9219POPC   D2A61420  15.184  13.587   6.750
 9219POPC   C3A61421  15.135  13.582   7.050
 9219POPC   C4A61422  15.218  13.595   7.350
 9219POPC   C1B61423  15.073  13.829   6.450
 9219POPC   C2B61424  15.167  13.834   6.750
 9219POPC   C3B61425  15.076  13.825   7.050
 9219POPC   C4B61426  15.094  13.877   7.350
 9220POPC   NC361427  14.397  36.150   5.550
 9220POPC   PO461428  14.444  36.154   5.850
 9220POPC   GL161429  14.409  36.174   6.150
 9220POPC   GL261430  14.397  36.260   6.150
 9220POPC   C1A61431  14.409  36.144   6.450
 9220POPC   D2A61432  14.420  36.098   6.750
 9220POPC   C3A61433  14.394  36.162   7.050
 9220POPC   C4A61434  14.411  36.099   7.350
 9220POPC   C1B61435  14.384  36.347   6.450
 9220POPC   C2B61436  14.406  36.412   6.750
 9220POPC   C3B61437  14.386  36.335   7.050
 9220POPC   C4B61438  14.362  36.394   7.350
 9221POPC   NC361439  21.386  39.277   5.550
 9221POPC   PO461440  21.367  39.266   5.850
 9221POPC   GL161441  21.403  39.186   6.150
 9221POPC   GL261442  21.396  39.352   6.150
 9221POPC   C1A61443  21.386  39.258   6.450
 9221POPC   D2A61444  21.355  39.203   6.750
 9221POPC   C3A61445  21.411  39.278   7.050
 9221POPC   C4A61446  21.405  39.269   7.350
 9221POPC   C1B61447  21.420  39.458   6.450
 9221POPC   C2B61448  21.416  39.505   6.750
 9221POPC   C3B61449  21.416  39.514   7.050
 9221POPC   C4B61450  21.361  39.468   7.350
 9222POPC   NC361451  34.583  43.857   5.550
 9222POPC   PO461452  34.615  43.911   5.850
 9222POPC   GL161453  34.546  43.919   6.150
 9222POPC   GL261454  34.454  43.781   6.150
 9222POPC   C1A61455  34.596  43.864   6.450
 9222POPC   D2A61456  34.623  43.901   6.750
 9222POPC   C3A61457  34.616  43.850   7.050
 9222POPC   C4A61458  34.603  43.933   7.350
 9222POPC   C1B61459  34.358  43.757   6.450
 9222POPC   C2B61460  34.336  43.776   6.750
 9222POPC   C3B61461  34.405  43.697   7.050
 9222POPC   C4B61462  34.334  43.750   7.350
 9223POPC   NC361463  40.750  34.545   5.550
 9223POPC   PO461464  40.812  34.554   5.850
 9223POPC   GL161465  40.809  34.579   6.150
 9223POPC   GL261466  40.923  34.522   6.150
 9223POPC   C1A61467  40.798  34.585   6.450
 9223POPC   D2A61468  40.829  34.584   6.750
 9223POPC   C3A61469  40.820  34.570   7.050
 9223POPC   C4A61470  40.813  34.548   7.350
 9223POPC   C1B61471  41.061  34.517   6.450
 9223POPC   C2B61472  41.015  34.559   6.750
 9223POPC   C3B61473  41.066  34.515   7.050
 9223POPC   C4B61474  41.017  34.538   7.350
 9224POPC   NC361475   8.204  30.735   5.550
 9224POPC   PO461476   8.220  30.718   5.850
 9224POPC   GL161477   8.165  30.738   6.150
 9224POPC   GL261478   8.167  30.858   6.150
 9224POPC   C1A61479   8.179  30.662   6.450
 9224POPC   D2A61480   8.206  30.704   6.750
 9224POPC   C3A61481   8.149  30.743   7.050
 9224POPC   C4A61482   8.192  30.725   7.350
 9224POPC   C1B61483   8.083  30.924   6.450
 9224POPC   C2B61484   8.171  30.911   6.750
 9224POPC   C3B61485   8.134  30.914   7.050
 9224POPC   C4B61486   8.153  30.928   7.350
 9225POPC   NC361487  28.378  19.027   5.550
 9225POPC   PO461488  28.412  19.050   5.850
 9225POPC   GL161489  28.365  19.093   6.150
 9225POPC   GL261490  28.421  19.173   6.150
 9225POPC   C1A61491  28.349  19.097   6.450
 9225POPC   D2A61492  28.400  19.078   6.750
 9225POPC   C3A61493  28.373  19.082   7.050
 9225POPC   C4A61494  28.329  19.093   7.350
 9225POPC   C1B61495  28.581  19.278   6.450
 9225POPC   C2B61496  28.534  19.269   6.750
 9225POPC   C3B61497  28.506  19.225   7.050
 9225POPC   C4B61498  28.524  19.206   7.350
 9226POPC   NC361499  42.351  35.333   5.550
 9226POPC   PO461500  42.334  35.324   5.850
 9226POPC   GL161501  42.316  35.358   6.150
 9226POPC   GL261502  42.448  35.332   6.150
 9226POPC   C1A61503  42.285  35.323   6.450
 9226POPC   D2A61504  42.379  35.340   6.750
 9226POPC   C3A61505  42.346  35.336   7.050
 9226POPC   C4A61506  42.331  35.368   7.350
 9226POPC   C1B61507  42.611  35.242   6.450
 9226POPC   C2B61508  42.582  35.240   6.750
 9226POPC   C3B61509  42.526  35.256   7.050
 9226POPC   C4B61510  42.606  35.272   7.350
 9227POPC   NC361511   1.172  11.284   5.550
 9227POPC   PO461512   1.235  11.260   5.850
 9227POPC   GL161513   1.263  11.325   6.150
 9227POPC   GL261514   1.253  11.386   6.150
 9227POPC   C1A61515   1.179  11.277   6.450
 9227POPC   D2A61516   1.180  11.321   6.750
 9227POPC   C3A61517   1.219  11.332   7.050
 9227POPC   C4A61518   1.173  11.342   7.350
 9227POPC   C1B61519   1.211  11.564   6.450
 9227POPC   C2B61520   1.237  11.520   6.750
 9227POPC   C3B61521   1.234  11.520   7.050
 9227POPC   C4B61522   1.247  11.567   7.350
 9228POPC   NC361523   0.405  22.985   5.550
 9228POPC   PO461524   0.425  22.941   5.850
 9228POPC   GL161525   0.457  22.945   6.150
 9228POPC   GL261526   0.282  22.993   6.150
 9228POPC   C1A61527   0.421  22.975   6.450
 9228POPC   D2A61528   0.435  22.909   6.750
 9228POPC   C3A61529   0.424  22.914   7.050
 9228POPC   C4A61530   0.480  22.904   7.350
 9228POPC   C1B61531   0.261  23.107   6.450
 9228POPC   C2B61532   0.233  23.069   6.750
 9228POPC   C3B61533   0.181  23.076   7.050
 9228POPC   C4B61534   0.242  23.024   7.350
 9229POPC   NC361535  17.468  37.700   5.550
 9229POPC   PO461536  17.513  37.710   5.850
 9229POPC   GL161537  17.556  37.635   6.150
 9229POPC   GL261538  17.529  37.544   6.150
 9229POPC   C1A61539  17.497  37.694   6.450
 9229POPC   D2A61540  17.542  37.663   6.750
 9229POPC   C3A61541  17.519  37.679   7.050
 9229POPC   C4A61542  17.538  37.670   7.350
 9229POPC   C1B61543  17.442  37.432   6.450
 9229POPC   C2B61544  17.448  37.406   6.750
 9229POPC   C3B61545  17.440  37.394   7.050
 9229POPC   C4B61546  17.484  37.469   7.350
 9230POPC   NC361547  30.739  12.883   5.550
 9230POPC   PO461548  30.673  12.820   5.850
 9230POPC   GL161549  30.695  12.890   6.150
 9230POPC   GL261550  30.576  12.872   6.150
 9230POPC   C1A61551  30.697  12.834   6.450
 9230POPC   D2A61552  30.745  12.895   6.750
 9230POPC   C3A61553  30.724  12.894   7.050
 9230POPC   C4A61554  30.739  12.827   7.350
 9230POPC   C1B61555  30.443  12.966   6.450
 9230POPC   C2B61556  30.450  12.998   6.750
 9230POPC   C3B61557  30.468  12.943   7.050
 9230POPC   C4B61558  30.455  12.975   7.350
 9231POPC   NC361559  43.865  43.907   5.550
 9231POPC   PO461560  43.931  43.864   5.850
 9231POPC   GL161561  43.910  43.883   6.150
 9231POPC   GL261562  44.057  43.883   6.150
 9231POPC   C1A61563  43.929  43.850   6.450
 9231POPC   D2A61564  43.866  43.915   6.750
 9231POPC   C3A61565  43.875  43.870   7.050
 9231POPC   C4A61566  43.856  43.933   7.350
 9231POPC   C1B61567  44.171  43.922   6.450
 9231POPC   C2B61568  44.130  43.930   6.750
 9231POPC   C3B61569  44.102  43.902   7.050
 9231POPC   C4B61570  44.129  43.905   7.350
 9232POPC   NC361571   2.799  31.491   5.550
 9232POPC   PO461572   2.769  31.519   5.850
 9232POPC   GL161573   2.731  31.482   6.150
 9232POPC   GL261574   2.669  31.631   6.150
 9232POPC   C1A61575   2.771  31.494   6.450
 9232POPC   D2A61576   2.725  31.492   6.750
 9232POPC   C3A61577   2.746  31.482   7.050
 9232POPC   C4A61578   2.806  31.427   7.350
 9232POPC   C1B61579   2.693  31.704   6.450
 9232POPC   C2B61580   2.625  31.723   6.750
 9232POPC   C3B61581   2.660  31.719   7.050
 9232POPC   C4B61582   2.645  31.698   7.350
 9233POPC   NC361583   1.963  42.295   5.550
 9233POPC   PO461584   2.028  42.339   5.850
 9233POPC   GL161585   1.990  42.310   6.150
 9233POPC   GL261586   1.908  42.408   6.150
 9233POPC   C1A61587   1.970  42.361   6.450
 9233POPC   D2A61588   2.009  42.371   6.750
 9233POPC   C3A61589   1.948  42.299   7.050
 9233POPC   C4A61590   1.970  42.348   7.350
 9233POPC   C1B61591   1.814  42.493   6.450
 9233POPC   C2B61592   1.768  42.422   6.750
 9233POPC   C3B61593   1.809  42.461   7.050
 9233POPC   C4B61594   1.780  42.431   7.350
 9234POPC   NC361595  32.234   9.774   5.550
 9234POPC   PO461596  32.265   9.706   5.850
 9234POPC   GL161597  32.273   9.714   6.150
 9234POPC   GL261598  32.085   9.679   6.150
 9234POPC   C1A61599  32.265   9.731   6.450
 9234POPC   D2A61600  32.291   9.767   6.750
 9234POPC   C3A61601  32.294   9.788   7.050
 9234POPC   C4A61602  32.216   9.750   7.350
 9234POPC   C1B61603  31.973   9.634   6.450
 9234POPC   C2B61604  32.043   9.649   6.750
 9234POPC   C3B61605  31.983   9.677   7.050
 9234POPC   C4B61606  32.019   9.646   7.350
 9235POPC   NC361607  43.062  40.758   5.550
 9235POPC   PO461608  43.153  40.791   5.850
 9235POPC   GL161609  43.123  40.754   6.150
 9235POPC   GL261610  43.149  40.878   6.150
 9235POPC   C1A61611  43.148  40.795   6.450
 9235POPC   D2A61612  43.077  40.769   6.750
 9235POPC   C3A61613  43.128  40.785   7.050
 9235POPC   C4A61614  43.096  40.814   7.350
 9235POPC   C1B61615  43.150  41.017   6.450
 9235POPC   C2B61616  43.179  41.040   6.750
 9235POPC   C3B61617  43.132  41.002   7.050
 9235POPC   C4B61618  43.181  41.011   7.350
 9236POPC   NC361619   5.823  15.935   5.550
 9236POPC   PO461620   5.876  15.913   5.850
 9236POPC   GL161621   5.873  15.927   6.150
 9236POPC   GL261622   5.925  15.789   6.150
 9236POPC   C1A61623   5.840  15.941   6.450
 9236POPC   D2A61624   5.838  15.974   6.750
 9236POPC   C3A61625   5.854  15.913   7.050
 9236POPC   C4A61626   5.853  15.969   7.350
 9236POPC   C1B61627   5.873  15.680   6.450
 9236POPC   C2B61628   5.890  15.708   6.750
 9236POPC   C3B61629   5.864  15.748   7.050
 9236POPC   C4B61630   5.934  15.677   7.350
 9237POPC   NC361631   1.175  37.698   5.550
 9237POPC   PO461632   1.249  37.720   5.850
 9237POPC   GL161633   1.261  37.667   6.150
 9237POPC   GL261634   1.141  37.785   6.150
 9237POPC   C1A61635   1.176  37.645   6.450
 9237POPC   D2A61636   1.170  37.674   6.750
 9237POPC   C3A61637   1.232  37.676   7.050
 9237POPC   C4A61638   1.215  37.668   7.350
 9237POPC   C1B61639   1.124  37.951   6.450
 9237POPC   C2B61640   1.122  37.907   6.750
 9237POPC   C3B61641   1.160  37.960   7.050
 9237POPC   C4B61642   1.169  37.963   7.350
 9238POPC   NC361643  40.054  20.573   5.550
 9238POPC   PO461644  39.969  20.579   5.850
 9238POPC   GL161645  40.028  20.595   6.150
 9238POPC   GL261646  39.882  20.654   6.150
 9238POPC   C1A61647  39.967  20.633   6.450
 9238POPC   D2A61648  39.973  20.574   6.750
 9238POPC   C3A61649  40.024  20.617   7.050
 9238POPC   C4A61650  40.024  20.570   7.350
 9238POPC   C1B61651  39.751  20.736   6.450
 9238POPC   C2B61652  39.743  20.685   6.750
 9238POPC   C3B61653  39.828  20.734   7.050
 9238POPC   C4B61654  39.758  20.725   7.350
 9239POPC   NC361655  12.106   2.716   5.550
 9239POPC   PO461656  12.070   2.761   5.850
 9239POPC   GL161657  12.064   2.753   6.150
 9239POPC   GL261658  12.231   2.762   6.150
 9239POPC   C1A61659  12.029   2.799   6.450
 9239POPC   D2A61660  12.072   2.779   6.750
 9239POPC   C3A61661  12.119   2.795   7.050
 9239POPC   C4A61662  12.039   2.744   7.350
 9239POPC   C1B61663  12.315   2.757   6.450
 9239POPC   C2B61664  12.304   2.821   6.750
 9239POPC   C3B61665  12.332   2.814   7.050
 9239POPC   C4B61666  12.373   2.745   7.350
 9240POPC   NC361667  12.096  28.330   5.550
 9240POPC   PO461668  12.109  28.380   5.850
 9240POPC   GL161669  12.113  28.326   6.150
 9240POPC   GL261670  11.915  28.401   6.150
 9240POPC   C1A61671  12.118  28.360   6.450
 9240POPC   D2A61672  12.111  28.397   6.750
 9240POPC   C3A61673  12.096  28.400   7.050
 9240POPC   C4A61674  12.045  28.405   7.350
 9240POPC   C1B61675  11.821  28.479   6.450
 9240POPC   C2B61676  11.865  28.460   6.750
 9240POPC   C3B61677  11.794  28.410   7.050
 9240POPC   C4B61678  11.885  28.406   7.350
 9241POPC   NC361679  22.910  19.068   5.550
 9241POPC   PO461680  22.900  19.086   5.850
 9241POPC   GL161681  22.912  19.017   6.150
 9241POPC   GL261682  23.004  18.927   6.150
 9241POPC   C1A61683  22.898  19.063   6.450
 9241POPC   D2A61684  22.960  19.042   6.750
 9241POPC   C3A61685  22.903  19.018   7.050
 9241POPC   C4A61686  22.889  19.010   7.350
 9241POPC   C1B61687  23.130  18.819   6.450
 9241POPC   C2B61688  23.113  18.891   6.750
 9241POPC   C3B61689  23.116  18.815   7.050
 9241POPC   C4B61690  23.084  18.830   7.350
 9242POPC   NC361691  17.509  39.256   5.550
 9242POPC   PO461692  17.493  39.280   5.850
 9242POPC   GL161693  17.460  39.215   6.150
 9242POPC   GL261694  17.462  39.395   6.150
 9242POPC   C1A61695  17.502  39.209   6.450
 9242POPC   D2A61696  17.497  39.214   6.750
 9242POPC   C3A61697  17.461  39.233   7.050
 9242POPC   C4A61698  17.460  39.255   7.350
 9242POPC   C1B61699  17.505  39.468   6.450
 9242POPC   C2B61700  17.501  39.435   6.750
 9242POPC   C3B61701  17.517  39.440   7.050
 9242POPC   C4B61702  17.519  39.446   7.350
 9243POPC   NC361703  19.853  23.719   5.550
 9243POPC   PO461704  19.792  23.731   5.850
 9243POPC   GL161705  19.862  23.710   6.150
 9243POPC   GL261706  19.702  23.700   6.150
 9243POPC   C1A61707  19.826  23.678   6.450
 9243POPC   D2A61708  19.788  23.755   6.750
 9243POPC   C3A61709  19.819  23.678   7.050
 9243POPC   C4A61710  19.786  23.710   7.350
 9243POPC   C1B61711  19.638  23.635   6.450
 9243POPC   C2B61712  19.599  23.702   6.750
 9243POPC   C3B61713  19.634  23.665   7.050
 9243POPC   C4B61714  19.619  23.673   7.350
 9244POPC   NC361715   1.976  40.004   5.550
 9244POPC   PO461716   1.956  40.024   5.850
 9244POPC   GL161717   1.946  40.008   6.150
 9244POPC   GL261718   1.923  39.890   6.150
 9244POPC   C1A61719   2.027  40.056   6.450
 9244POPC   D2A61720   1.954  40.043   6.750
 9244POPC   C3A61721   2.036  39.987   7.050
 9244POPC   C4A61722   1.966  40.003   7.350
 9244POPC   C1B61723   1.801  39.853   6.450
 9244POPC   C2B61724   1.842  39.879   6.750
 9244POPC   C3B61725   1.780  39.857   7.050
 9244POPC   C4B61726   1.828  39.799   7.350
 9245POPC   NC361727   8.246  22.957   5.550
 9245POPC   PO461728   8.215  22.930   5.850
 9245POPC   GL161729   8.187  22.982   6.150
 9245POPC   GL261730   8.098  22.986   6.150
 9245POPC   C1A61731   8.198  22.917   6.450
 9245POPC   D2A61732   8.199  22.891   6.750
 9245POPC   C3A61733   8.187  22.931   7.050
 9245POPC   C4A61734   8.209  22.988   7.350
 9245POPC   C1B61735   8.005  23.124   6.450
 9245POPC   C2B61736   8.039  23.091   6.750
 9245POPC   C3B61737   7.983  23.152   7.050
 9245POPC   C4B61738   8.013  23.070   7.350
 9246POPC   NC361739   6.663  42.358   5.550
 9246POPC   PO461740   6.648  42.333   5.850
 9246POPC   GL161741   6.681  42.339   6.150
 9246POPC   GL261742   6.639  42.231   6.150
 9246POPC   C1A61743   6.661  42.374   6.450
 9246POPC   D2A61744   6.667  42.355   6.750
 9246POPC   C3A61745   6.634  42.373   7.050
 9246POPC   C4A61746   6.640  42.297   7.350
 9246POPC   C1B61747   6.555  42.099   6.450
 9246POPC   C2B61748   6.554  42.073   6.750
 9246POPC   C3B61749   6.561  42.068   7.050
 9246POPC   C4B61750   6.647  42.123   7.350
 9247POPC   NC361751  22.174  21.348   5.550
 9247POPC   PO461752  22.179  21.356   5.850
 9247POPC   GL161753  22.154  21.432   6.150
 9247POPC   GL261754  22.282  21.412   6.150
 9247POPC   C1A61755  22.210  21.351   6.450
 9247POPC   D2A61756  22.190  21.337   6.750
 9247POPC   C3A61757  22.180  21.398   7.050
 9247POPC   C4A61758  22.189  21.350   7.350
 9247POPC   C1B61759  22.412  21.408   6.450
 9247POPC   C2B61760  22.423  21.400   6.750
 9247POPC   C3B61761  22.381  21.423   7.050
 9247POPC   C4B61762  22.397  21.390   7.350
 9248POPC   NC361763  16.718   2.802   5.550
 9248POPC   PO461764  16.761   2.797   5.850
 9248POPC   GL161765  16.774   2.764   6.150
 9248POPC   GL261766  16.812   2.915   6.150
 9248POPC   C1A61767  16.724   2.751   6.450
 9248POPC   D2A61768  16.751   2.780   6.750
 9248POPC   C3A61769  16.770   2.802   7.050
 9248POPC   C4A61770  16.735   2.783   7.350
 9248POPC   C1B61771  16.764   3.008   6.450
 9248POPC   C2B61772  16.838   3.014   6.750
 9248POPC   C3B61773  16.801   3.007   7.050
 9248POPC   C4B61774  16.766   3.001   7.350
 9249POPC   NC361775  22.124   9.741   5.550
 9249POPC   PO461776  22.203   9.795   5.850
 9249POPC   GL161777  22.113   9.755   6.150
 9249POPC   GL261778  22.328   9.742   6.150
 9249POPC   C1A61779  22.144   9.723   6.450
 9249POPC   D2A61780  22.158   9.714   6.750
 9249POPC   C3A61781  22.136   9.739   7.050
 9249POPC   C4A61782  22.133   9.797   7.350
 9249POPC   C1B61783  22.381   9.691   6.450
 9249POPC   C2B61784  22.435   9.775   6.750
 9249POPC   C3B61785  22.460   9.714   7.050
 9249POPC   C4B61786  22.400   9.700   7.350
 9250POPC   NC361787  36.096  12.830   5.550
 9250POPC   PO461788  36.101  12.852   5.850
 9250POPC   GL161789  36.121  12.826   6.150
 9250POPC   GL261790  36.213  12.935   6.150
 9250POPC   C1A61791  36.158  12.819   6.450
 9250POPC   D2A61792  36.120  12.827   6.750
 9250POPC   C3A61793  36.092  12.892   7.050
 9250POPC   C4A61794  36.082  12.850   7.350
 9250POPC   C1B61795  36.343  13.025   6.450
 9250POPC   C2B61796  36.256  13.051   6.750
 9250POPC   C3B61797  36.338  12.997   7.050
 9250POPC   C4B61798  36.263  13.013   7.350
 9251POPC   NC361799  30.683  18.266   5.550
 9251POPC   PO461800  30.672  18.326   5.850
 9251POPC   GL161801  30.728  18.293   6.150
 9251POPC   GL261802  30.830  18.183   6.150
 9251POPC   C1A61803  30.685  18.311   6.450
 9251POPC   D2A61804  30.724  18.271   6.750
 9251POPC   C3A61805  30.662  18.254   7.050
 9251POPC   C4A61806  30.647  18.243   7.350
 9251POPC   C1B61807  30.857  18.098   6.450
 9251POPC   C2B61808  30.887  18.161   6.750
 9251POPC   C3B61809  30.896  18.080   7.050
 9251POPC   C4B61810  30.882  18.101   7.350
 9252POPC   NC361811   1.237  24.510   5.550
 9252POPC   PO461812   1.246  24.456   5.850
 9252POPC   GL161813   1.242  24.503   6.150
 9252POPC   GL261814   1.069  24.464   6.150
 9252POPC   C1A61815   1.252  24.502   6.450
 9252POPC   D2A61816   1.223  24.478   6.750
 9252POPC   C3A61817   1.210  24.492   7.050
 9252POPC   C4A61818   1.247  24.517   7.350
 9252POPC   C1B61819   1.043  24.372   6.450
 9252POPC   C2B61820   1.016  24.327   6.750
 9252POPC   C3B61821   1.012  24.353   7.050
 9252POPC   C4B61822   1.033  24.387   7.350
 9253POPC   NC361823  39.273  12.037   5.550
 9253POPC   PO461824  39.244  12.037   5.850
 9253POPC   GL161825  39.271  12.078   6.150
 9253POPC   GL261826  39.082  12.082   6.150
 9253POPC   C1A61827  39.208  12.119   6.450
 9253POPC   D2A61828  39.203  12.044   6.750
 9253POPC   C3A61829  39.228  12.074   7.050
 9253POPC   C4A61830  39.233  12.109   7.350
 9253POPC   C1B61831  39.032  12.035   6.450
 9253POPC   C2B61832  38.967  12.022   6.750
 9253POPC   C3B61833  39.011  11.997   7.050
 9253POPC   C4B61834  39.001  12.038   7.350
 9254POPC   NC361835  44.699   6.618   5.550
 9254POPC   PO461836  44.703   6.686   5.850
 9254POPC   GL161837  44.613   6.632   6.150
 9254POPC   GL261838  44.694   6.769   6.150
 9254POPC   C1A61839  44.647   6.684   6.450
 9254POPC   D2A61840  44.657   6.656   6.750
 9254POPC   C3A61841  44.627   6.642   7.050
 9254POPC   C4A61842  44.678   6.658   7.350
 9254POPC   C1B61843  44.753   6.877   6.450
 9254POPC   C2B61844  44.751   6.879   6.750
 9254POPC   C3B61845  44.707   6.897   7.050
 9254POPC   C4B61846  44.687   6.867   7.350
 9255POPC   NC361847  24.532  41.515   5.550
 9255POPC   PO461848  24.534  41.538   5.850
 9255POPC   GL161849  24.513  41.563   6.150
 9255POPC   GL261850  24.398  41.691   6.150
 9255POPC   C1A61851  24.469  41.564   6.450
 9255POPC   D2A61852  24.448  41.552   6.750
 9255POPC   C3A61853  24.494  41.567   7.050
 9255POPC   C4A61854  24.448  41.599   7.350
 9255POPC   C1B61855  24.330  41.795   6.450
 9255POPC   C2B61856  24.369  41.777   6.750
 9255POPC   C3B61857  24.364  41.771   7.050
 9255POPC   C4B61858  24.362  41.734   7.350
 9256POPC   NC361859  14.443  33.027   5.550
 9256POPC   PO461860  14.448  33.009   5.850
 9256POPC   GL161861  14.392  33.063   6.150
 9256POPC   GL261862  14.386  32.886   6.150
 9256POPC   C1A61863  14.415  33.027   6.450
 9256POPC   D2A61864  14.359  33.011   6.750
 9256POPC   C3A61865  14.377  33.019   7.050
 9256POPC   C4A61866  14.429  33.057   7.350
 9256POPC   C1B61867  14.462  32.824   6.450
 9256POPC   C2B61868  14.435  32.755   6.750
 9256POPC   C3B61869  14.444  32.767   7.050
 9256POPC   C4B61870  14.452  32.739   7.350
 9257POPC   NC361871   1.198  26.051   5.550
 9257POPC   PO461872   1.241  26.079   5.850
 9257POPC   GL161873   1.183  26.043   6.150
 9257POPC   GL261874   1.306  26.007   6.150
 9257POPC   C1A61875   1.196  26.086   6.450
 9257POPC   D2A61876   1.183  26.064   6.750
 9257POPC   C3A61877   1.224  26.050   7.050
 9257POPC   C4A61878   1.219  26.014   7.350
 9257POPC   C1B61879   1.446  26.060   6.450
 9257POPC   C2B61880   1.502  26.108   6.750
 9257POPC   C3B61881   1.501  26.101   7.050
 9257POPC   C4B61882   1.455  26.044   7.350
 9258POPC   NC361883  34.582  26.842   5.550
 9258POPC   PO461884  34.614  26.815   5.850
 9258POPC   GL161885  34.550  26.839   6.150
 9258POPC   GL261886  34.517  26.905   6.150
 9258POPC   C1A61887  34.584  26.795   6.450
 9258POPC   D2A61888  34.532  26.782   6.750
 9258POPC   C3A61889  34.605  26.812   7.050
 9258POPC   C4A61890  34.531  26.849   7.350
 9258POPC   C1B61891  34.438  26.973   6.450
 9258POPC   C2B61892  34.427  26.951   6.750
 9258POPC   C3B61893  34.427  26.983   7.050
 9258POPC   C4B61894  34.387  27.018   7.350
 9259POPC   NC361895  14.361  17.506   5.550
 9259POPC   PO461896  14.383  17.498   5.850
 9259POPC   GL161897  14.398  17.493   6.150
 9259POPC   GL261898  14.537  17.433   6.150
 9259POPC   C1A61899  14.450  17.503   6.450
 9259POPC   D2A61900  14.414  17.505   6.750
 9259POPC   C3A61901  14.435  17.509   7.050
 9259POPC   C4A61902  14.386  17.524   7.350
 9259POPC   C1B61903  14.593  17.314   6.450
 9259POPC   C2B61904  14.554  17.315   6.750
 9259POPC   C3B61905  14.556  17.298   7.050
 9259POPC   C4B61906  14.550  17.340   7.350
 9260POPC   NC361907  43.138  23.701   5.550
 9260POPC   PO461908  43.071  23.687   5.850
 9260POPC   GL161909  43.160  23.732   6.150
 9260POPC   GL261910  43.244  23.706   6.150
 9260POPC   C1A61911  43.072  23.729   6.450
 9260POPC   D2A61912  43.123  23.751   6.750
 9260POPC   C3A61913  43.142  23.734   7.050
 9260POPC   C4A61914  43.099  23.714   7.350
 9260POPC   C1B61915  43.335  23.815   6.450
 9260POPC   C2B61916  43.313  23.787   6.750
 9260POPC   C3B61917  43.365  23.728   7.050
 9260POPC   C4B61918  43.378  23.753   7.350
 9261POPC   NC361919  33.776  34.625   5.550
 9261POPC   PO461920  33.825  34.581   5.850
 9261POPC   GL161921  33.824  34.571   6.150
 9261POPC   GL261922  33.747  34.712   6.150
 9261POPC   C1A61923  33.816  34.555   6.450
 9261POPC   D2A61924  33.822  34.597   6.750
 9261POPC   C3A61925  33.836  34.592   7.050
 9261POPC   C4A61926  33.816  34.626   7.350
 9261POPC   C1B61927  33.642  34.781   6.450
 9261POPC   C2B61928  33.615  34.787   6.750
 9261POPC   C3B61929  33.619  34.776   7.050
 9261POPC   C4B61930  33.604  34.733   7.350
 9262POPC   NC361931  12.885   2.770   5.550
 9262POPC   PO461932  12.840   2.736   5.850
 9262POPC   GL161933  12.823   2.766   6.150
 9262POPC   GL261934  13.009   2.723   6.150
 9262POPC   C1A61935  12.837   2.759   6.450
 9262POPC   D2A61936  12.886   2.783   6.750
 9262POPC   C3A61937  12.806   2.779   7.050
 9262POPC   C4A61938  12.830   2.722   7.350
 9262POPC   C1B61939  13.100   2.777   6.450
 9262POPC   C2B61940  13.057   2.692   6.750
 9262POPC   C3B61941  13.128   2.711   7.050
 9262POPC   C4B61942  13.117   2.692   7.350
 9263POPC   NC361943  44.685  33.008   5.550
 9263POPC   PO461944  44.613  32.981   5.850
 9263POPC   GL161945  44.706  32.996   6.150
 9263POPC   GL261946  44.689  33.104   6.150
 9263POPC   C1A61947  44.623  33.041   6.450
 9263POPC   D2A61948  44.629  33.068   6.750
 9263POPC   C3A61949  44.680  33.002   7.050
 9263POPC   C4A61950  44.629  33.033   7.350
 9263POPC   C1B61951  44.741  33.221   6.450
 9263POPC   C2B61952  44.791  33.253   6.750
 9263POPC   C3B61953  44.792  33.293   7.050
 9263POPC   C4B61954  44.760  33.210   7.350
 9264POPC   NC361955   9.722  18.288   5.550
 9264POPC   PO461956   9.761  18.320   5.850
 9264POPC   GL161957   9.771  18.274   6.150
 9264POPC   GL261958   9.881  18.254   6.150
 9264POPC   C1A61959   9.788  18.269   6.450
 9264POPC   D2A61960   9.751  18.303   6.750
 9264POPC   C3A61961   9.746  18.317   7.050
 9264POPC   C4A61962   9.787  18.284   7.350
 9264POPC   C1B61963  10.017  18.180   6.450
 9264POPC   C2B61964   9.980  18.240   6.750
 9264POPC   C3B61965  10.017  18.221   7.050
 9264POPC   C4B61966   9.946  18.179   7.350
 9265POPC   NC361967  12.122  44.694   5.550
 9265POPC   PO461968  12.057  44.671   5.850
 9265POPC   GL161969  12.097  44.639   6.150
 9265POPC   GL261970  12.119  44.541   6.150
 9265POPC   C1A61971  12.054  44.708   6.450
 9265POPC   D2A61972  12.105  44.704   6.750
 9265POPC   C3A61973  12.045  44.665   7.050
 9265POPC   C4A61974  12.059  44.689   7.350
 9265POPC   C1B61975  12.103  44.380   6.450
 9265POPC   C2B61976  12.075  44.444   6.750
 9265POPC   C3B61977  12.073  44.403   7.050
 9265POPC   C4B61978  12.083  44.392   7.350
 9266POPC   NC361979  29.132  27.566   5.550
 9266POPC   PO461980  29.113  27.597   5.850
 9266POPC   GL161981  29.158  27.614   6.150
 9266POPC   GL261982  29.212  27.528   6.150
 9266POPC   C1A61983  29.127  27.559   6.450
 9266POPC   D2A61984  29.147  27.621   6.750
 9266POPC   C3A61985  29.170  27.606   7.050
 9266POPC   C4A61986  29.101  27.624   7.350
 9266POPC   C1B61987  29.363  27.488   6.450
 9266POPC   C2B61988  29.420  27.478   6.750
 9266POPC   C3B61989  29.336  27.531   7.050
 9266POPC   C4B61990  29.331  27.544   7.350
 9267POPC   NC361991  38.464  10.476   5.550
 9267POPC   PO461992  38.463  10.492   5.850
 9267POPC   GL161993  38.407  10.518   6.150
 9267POPC   GL261994  38.573  10.582   6.150
 9267POPC   C1A61995  38.436  10.550   6.450
 9267POPC   D2A61996  38.499  10.481   6.750
 9267POPC   C3A61997  38.456  10.550   7.050
 9267POPC   C4A61998  38.436  10.560   7.350
 9267POPC   C1B61999  38.589  10.664   6.450
 9267POPC   C2B62000  38.594  10.686   6.750
 9267POPC   C3B62001  38.614  10.744   7.050
 9267POPC   C4B62002  38.602  10.721   7.350
 9268POPC   NC362003  11.265   1.966   5.550
 9268POPC   PO462004  11.330   2.001   5.850
 9268POPC   GL162005  11.304   2.017   6.150
 9268POPC   GL262006  11.374   1.831   6.150
 9268POPC   C1A62007  11.255   2.039   6.450
 9268POPC   D2A62008  11.306   2.027   6.750
 9268POPC   C3A62009  11.296   1.992   7.050
 9268POPC   C4A62010  11.338   2.013   7.350
 9268POPC   C1B62011  11.373   1.718   6.450
 9268POPC   C2B62012  11.440   1.746   6.750
 9268POPC   C3B62013  11.382   1.718   7.050
 9268POPC   C4B62014  11.397   1.739   7.350
 9269POPC   NC362015  43.110   4.366   5.550
 9269POPC   PO462016  43.069   4.282   5.850
 9269POPC   GL162017  43.092   4.323   6.150
 9269POPC   GL262018  43.061   4.372   6.150
 9269POPC   C1A62019  43.099   4.354   6.450
 9269POPC   D2A62020  43.108   4.271   6.750
 9269POPC   C3A62021  43.146   4.270   7.050
 9269POPC   C4A62022  43.084   4.272   7.350
 9269POPC   C1B62023  42.916   4.522   6.450
 9269POPC   C2B62024  42.931   4.516   6.750
 9269POPC   C3B62025  42.962   4.494   7.050
 9269POPC   C4B62026  42.952   4.541   7.350
 9270POPC   NC362027  18.237   1.232   5.550
 9270POPC   PO462028  18.258   1.208   5.850
 9270POPC   GL162029  18.291   1.231   6.150
 9270POPC   GL262030  18.236   1.124   6.150
 9270POPC   C1A62031  18.243   1.188   6.450
 9270POPC   D2A62032  18.275   1.235   6.750
 9270POPC   C3A62033  18.328   1.196   7.050
 9270POPC   C4A62034  18.269   1.167   7.350
 9270POPC   C1B62035  18.199   0.975   6.450
 9270POPC   C2B62036  18.176   1.014   6.750
 9270POPC   C3B62037  18.186   0.925   7.050
 9270POPC   C4B62038  18.170   0.941   7.350
 9271POPC   NC362039  19.881  43.873   5.550
 9271POPC   PO462040  19.863  43.859   5.850
 9271POPC   GL162041  19.798  43.911   6.150
 9271POPC   GL262042  19.758  43.791   6.150
 9271POPC   C1A62043  19.882  43.906   6.450
 9271POPC   D2A62044  19.822  43.872   6.750
 9271POPC   C3A62045  19.796  43.909   7.050
 9271POPC   C4A62046  19.866  43.888   7.350
 9271POPC   C1B62047  19.651  43.773   6.450
 9271POPC   C2B62048  19.653  43.709   6.750
 9271POPC   C3B62049  19.648  43.737   7.050
 9271POPC   C4B62050  19.618  43.790   7.350
 9272POPC   NC362051   4.323  23.672   5.550
 9272POPC   PO462052   4.362  23.761   5.850
 9272POPC   GL162053   4.326  23.699   6.150
 9272POPC   GL262054   4.279  23.817   6.150
 9272POPC   C1A62055   4.316  23.760   6.450
 9272POPC   D2A62056   4.302  23.738   6.750
 9272POPC   C3A62057   4.290  23.714   7.050
 9272POPC   C4A62058   4.296  23.685   7.350
 9272POPC   C1B62059   4.146  23.956   6.450
 9272POPC   C2B62060   4.137  23.886   6.750
 9272POPC   C3B62061   4.126  23.960   7.050
 9272POPC   C4B62062   4.138  23.963   7.350
 9273POPC   NC362063  29.953  34.560   5.550
 9273POPC   PO462064  29.907  34.616   5.850
 9273POPC   GL162065  29.910  34.621   6.150
 9273POPC   GL262066  29.819  34.653   6.150
 9273POPC   C1A62067  29.970  34.612   6.450
 9273POPC   D2A62068  29.905  34.573   6.750
 9273POPC   C3A62069  29.875  34.618   7.050
 9273POPC   C4A62070  29.903  34.620   7.350
 9273POPC   C1B62071  29.806  34.828   6.450
 9273POPC   C2B62072  29.793  34.792   6.750
 9273POPC   C3B62073  29.837  34.785   7.050
 9273POPC   C4B62074  29.776  34.811   7.350
 9274POPC   NC362075  21.434  11.339   5.550
 9274POPC   PO462076  21.381  11.291   5.850
 9274POPC   GL162077  21.424  11.272   6.150
 9274POPC   GL262078  21.236  11.265   6.150
 9274POPC   C1A62079  21.352  11.259   6.450
 9274POPC   D2A62080  21.394  11.294   6.750
 9274POPC   C3A62081  21.403  11.285   7.050
 9274POPC   C4A62082  21.367  11.294   7.350
 9274POPC   C1B62083  21.118  11.242   6.450
 9274POPC   C2B62084  21.180  11.223   6.750
 9274POPC   C3B62085  21.130  11.260   7.050
 9274POPC   C4B62086  21.169  11.269   7.350
 9275POPC   NC362087  16.753  31.493   5.550
 9275POPC   PO462088  16.705  31.478   5.850
 9275POPC   GL162089  16.715  31.487   6.150
 9275POPC   GL262090  16.634  31.570   6.150
 9275POPC   C1A62091  16.744  31.514   6.450
 9275POPC   D2A62092  16.744  31.493   6.750
 9275POPC   C3A62093  16.745  31.454   7.050
 9275POPC   C4A62094  16.771  31.505   7.350
 9275POPC   C1B62095  16.501  31.608   6.450
 9275POPC   C2B62096  16.543  31.640   6.750
 9275POPC   C3B62097  16.499  31.605   7.050
 9275POPC   C4B62098  16.541  31.567   7.350
 9276POPC   NC362099   9.755  41.560   5.550
 9276POPC   PO462100   9.765  41.533   5.850
 9276POPC   GL162101   9.722  41.509   6.150
 9276POPC   GL262102   9.729  41.386   6.150
 9276POPC   C1A62103   9.796  41.588   6.450
 9276POPC   D2A62104   9.747  41.594   6.750
 9276POPC   C3A62105   9.771  41.510   7.050
 9276POPC   C4A62106   9.797  41.570   7.350
 9276POPC   C1B62107   9.777  41.346   6.450
 9276POPC   C2B62108   9.697  41.330   6.750
 9276POPC   C3B62109   9.741  41.282   7.050
 9276POPC   C4B62110   9.707  41.354   7.350
 9277POPC   NC362111  18.280  25.275   5.550
 9277POPC   PO462112  18.255  25.297   5.850
 9277POPC   GL162113  18.320  25.232   6.150
 9277POPC   GL262114  18.279  25.164   6.150
 9277POPC   C1A62115  18.274  25.284   6.450
 9277POPC   D2A62116  18.276  25.223   6.750
 9277POPC   C3A62117  18.328  25.285   7.050
 9277POPC   C4A62118  18.304  25.254   7.350
 9277POPC   C1B62119  18.298  25.060   6.450
 9277POPC   C2B62120  18.302  25.014   6.750
 9277POPC   C3B62121  18.343  25.059   7.050
 9277POPC   C4B62122  18.372  25.024   7.350
 9278POPC   NC362123  37.649  25.282   5.550
 9278POPC   PO462124  37.645  25.289   5.850
 9278POPC   GL162125  37.718  25.235   6.150
 9278POPC   GL262126  37.728  25.348   6.150
 9278POPC   C1A62127  37.704  25.241   6.450
 9278POPC   D2A62128  37.729  25.303   6.750
 9278POPC   C3A62129  37.710  25.290   7.050
 9278POPC   C4A62130  37.724  25.217   7.350
 9278POPC   C1B62131  37.859  25.423   6.450
 9278POPC   C2B62132  37.869  25.451   6.750
 9278POPC   C3B62133  37.812  25.463   7.050
 9278POPC   C4B62134  37.786  25.447   7.350
 9279POPC   NC362135  43.087  26.805   5.550
 9279POPC   PO462136  43.132  26.791   5.850
 9279POPC   GL162137  43.076  26.788   6.150
 9279POPC   GL262138  43.152  26.986   6.150
 9279POPC   C1A62139  43.090  26.858   6.450
 9279POPC   D2A62140  43.091  26.808   6.750
 9279POPC   C3A62141  43.128  26.819   7.050
 9279POPC   C4A62142  43.125  26.808   7.350
 9279POPC   C1B62143  43.102  27.087   6.450
 9279POPC   C2B62144  43.076  27.044   6.750
 9279POPC   C3B62145  43.089  27.026   7.050
 9279POPC   C4B62146  43.071  27.078   7.350
 9280POPC   NC362147  30.683  42.377   5.550
 9280POPC   PO462148  30.733  42.315   5.850
 9280POPC   GL162149  30.719  42.355   6.150
 9280POPC   GL262150  30.642  42.216   6.150
 9280POPC   C1A62151  30.649  42.361   6.450
 9280POPC   D2A62152  30.725  42.369   6.750
 9280POPC   C3A62153  30.706  42.382   7.050
 9280POPC   C4A62154  30.724  42.344   7.350
 9280POPC   C1B62155  30.615  42.110   6.450
 9280POPC   C2B62156  30.582  42.061   6.750
 9280POPC   C3B62157  30.627  42.067   7.050
 9280POPC   C4B62158  30.616  42.120   7.350
 9281POPC   NC362159  24.483   4.318   5.550
 9281POPC   PO462160  24.513   4.293   5.850
 9281POPC   GL162161  24.535   4.278   6.150
 9281POPC   GL262162  24.475   4.410   6.150
 9281POPC   C1A62163  24.440   4.268   6.450
 9281POPC   D2A62164  24.523   4.277   6.750
 9281POPC   C3A62165  24.458   4.313   7.050
 9281POPC   C4A62166  24.476   4.331   7.350
 9281POPC   C1B62167  24.336   4.547   6.450
 9281POPC   C2B62168  24.366   4.530   6.750
 9281POPC   C3B62169  24.339   4.563   7.050
 9281POPC   C4B62170  24.414   4.573   7.350
 9282POPC   NC362171  37.722  22.167   5.550
 9282POPC   PO462172  37.643  22.184   5.850
 9282POPC   GL162173  37.684  22.195   6.150
 9282POPC   GL262174  37.677  22.036   6.150
 9282POPC   C1A62175  37.659  22.122   6.450
 9282POPC   D2A62176  37.673  22.128   6.750
 9282POPC   C3A62177  37.638  22.206   7.050
 9282POPC   C4A62178  37.667  22.137   7.350
 9282POPC   C1B62179  37.741  21.911   6.450
 9282POPC   C2B62180  37.711  21.905   6.750
 9282POPC   C3B62181  37.725  21.908   7.050
 9282POPC   C4B62182  37.697  21.931   7.350
 9283POPC   NC362183   2.005  27.581   5.550
 9283POPC   PO462184   1.942  27.577   5.850
 9283POPC   GL162185   1.977  27.560   6.150
 9283POPC   GL262186   1.896  27.530   6.150
 9283POPC   C1A62187   2.034  27.620   6.450
 9283POPC   D2A62188   1.973  27.545   6.750
 9283POPC   C3A62189   1.953  27.567   7.050
 9283POPC   C4A62190   1.994  27.617   7.350
 9283POPC   C1B62191   1.817  27.476   6.450
 9283POPC   C2B62192   1.764  27.412   6.750
 9283POPC   C3B62193   1.803  27.487   7.050
 9283POPC   C4B62194   1.775  27.466   7.350
 9284POPC   NC362195  43.159  28.407   5.550
 9284POPC   PO462196  43.142  28.380   5.850
 9284POPC   GL162197  43.081  28.379   6.150
 9284POPC   GL262198  43.222  28.420   6.150
 9284POPC   C1A62199  43.128  28.342   6.450
 9284POPC   D2A62200  43.124  28.332   6.750
 9284POPC   C3A62201  43.147  28.346   7.050
 9284POPC   C4A62202  43.086  28.413   7.350
 9284POPC   C1B62203  43.391  28.406   6.450
 9284POPC   C2B62204  43.359  28.395   6.750
 9284POPC   C3B62205  43.312  28.384   7.050
 9284POPC   C4B62206  43.377  28.422   7.350
 9285POPC   NC362207  22.141   8.983   5.550
 9285POPC   PO462208  22.187   9.018   5.850
 9285POPC   GL162209  22.137   9.018   6.150
 9285POPC   GL262210  22.177   9.141   6.150
 9285POPC   C1A62211  22.142   9.012   6.450
 9285POPC   D2A62212  22.133   8.972   6.750
 9285POPC   C3A62213  22.183   8.997   7.050
 9285POPC   C4A62214  22.164   8.967   7.350
 9285POPC   C1B62215  22.214   9.184   6.450
 9285POPC   C2B62216  22.232   9.245   6.750
 9285POPC   C3B62217  22.227   9.240   7.050
 9285POPC   C4B62218  22.238   9.246   7.350
 9286POPC   NC362219  26.061   7.398   5.550
 9286POPC   PO462220  26.004   7.409   5.850
 9286POPC   GL162221  26.005   7.385   6.150
 9286POPC   GL262222  25.967   7.325   6.150
 9286POPC   C1A62223  26.050   7.470   6.450
 9286POPC   D2A62224  26.017   7.414   6.750
 9286POPC   C3A62225  25.998   7.431   7.050
 9286POPC   C4A62226  26.055   7.444   7.350
 9286POPC   C1B62227  25.949   7.184   6.450
 9286POPC   C2B62228  25.903   7.213   6.750
 9286POPC   C3B62229  25.864   7.248   7.050
 9286POPC   C4B62230  25.865   7.236   7.350
 9287POPC   NC362231   5.118  10.501   5.550
 9287POPC   PO462232   5.096  10.551   5.850
 9287POPC   GL162233   5.049  10.483   6.150
 9287POPC   GL262234   5.127  10.388   6.150
 9287POPC   C1A62235   5.055  10.511   6.450
 9287POPC   D2A62236   5.046  10.533   6.750
 9287POPC   C3A62237   5.081  10.498   7.050
 9287POPC   C4A62238   5.077  10.574   7.350
 9287POPC   C1B62239   5.112  10.323   6.450
 9287POPC   C2B62240   5.166  10.263   6.750
 9287POPC   C3B62241   5.098  10.324   7.050
 9287POPC   C4B62242   5.100  10.291   7.350
 9288POPC   NC362243  16.769  30.684   5.550
 9288POPC   PO462244  16.691  30.670   5.850
 9288POPC   GL162245  16.738  30.709   6.150
 9288POPC   GL262246  16.668  30.676   6.150
 9288POPC   C1A62247  16.701  30.656   6.450
 9288POPC   D2A62248  16.751  30.746   6.750
 9288POPC   C3A62249  16.730  30.693   7.050
 9288POPC   C4A62250  16.776  30.662   7.350
 9288POPC   C1B62251  16.518  30.547   6.450
 9288POPC   C2B62252  16.483  30.615   6.750
 9288POPC   C3B62253  16.458  30.587   7.050
 9288POPC   C4B62254  16.472  30.552   7.350
 9289POPC   NC362255  38.441   6.654   5.550
 9289POPC   PO462256  38.468   6.651   5.850
 9289POPC   GL162257  38.444   6.675   6.150
 9289POPC   GL262258  38.463   6.477   6.150
 9289POPC   C1A62259  38.458   6.597   6.450
 9289POPC   D2A62260  38.448   6.657   6.750
 9289POPC   C3A62261  38.431   6.662   7.050
 9289POPC   C4A62262  38.501   6.622   7.350
 9289POPC   C1B62263  38.465   6.442   6.450
 9289POPC   C2B62264  38.413   6.433   6.750
 9289POPC   C3B62265  38.473   6.368   7.050
 9289POPC   C4B62266  38.417   6.363   7.350
 9290POPC   NC362267  43.137   8.932   5.550
 9290POPC   PO462268  43.143   8.976   5.850
 9290POPC   GL162269  43.133   8.979   6.150
 9290POPC   GL262270  42.943   8.932   6.150
 9290POPC   C1A62271  43.103   8.961   6.450
 9290POPC   D2A62272  43.158   8.988   6.750
 9290POPC   C3A62273  43.159   9.015   7.050
 9290POPC   C4A62274  43.112   8.970   7.350
 9290POPC   C1B62275  42.825   8.966   6.450
 9290POPC   C2B62276  42.826   8.953   6.750
 9290POPC   C3B62277  42.830   8.928   7.050
 9290POPC   C4B62278  42.834   8.962   7.350
 9291POPC   NC362279  33.039  18.260   5.550
 9291POPC   PO462280  33.056  18.321   5.850
 9291POPC   GL162281  33.053  18.322   6.150
 9291POPC   GL262282  33.143  18.335   6.150
 9291POPC   C1A62283  33.039  18.258   6.450
 9291POPC   D2A62284  32.988  18.262   6.750
 9291POPC   C3A62285  32.982  18.281   7.050
 9291POPC   C4A62286  32.977  18.275   7.350
 9291POPC   C1B62287  33.312  18.299   6.450
 9291POPC   C2B62288  33.248  18.318   6.750
 9291POPC   C3B62289  33.233  18.296   7.050
 9291POPC   C4B62290  33.223  18.284   7.350
 9292POPC   NC362291  22.184  43.133   5.550
 9292POPC   PO462292  22.211  43.090   5.850
 9292POPC   GL162293  22.132  43.089   6.150
 9292POPC   GL262294  22.284  43.197   6.150
 9292POPC   C1A62295  22.198  43.139   6.450
 9292POPC   D2A62296  22.126  43.086   6.750
 9292POPC   C3A62297  22.176  43.118   7.050
 9292POPC   C4A62298  22.116  43.108   7.350
 9292POPC   C1B62299  22.290  43.270   6.450
 9292POPC   C2B62300  22.312  43.302   6.750
 9292POPC   C3B62301  22.313  43.289   7.050
 9292POPC   C4B62302  22.279  43.336   7.350
 9293POPC   NC362303   2.776  16.000   5.550
 9293POPC   PO462304   2.768  15.993   5.850
 9293POPC   GL162305   2.767  15.959   6.150
 9293POPC   GL262306   2.916  16.035   6.150
 9293POPC   C1A62307   2.723  16.003   6.450
 9293POPC   D2A62308   2.765  15.967   6.750
 9293POPC   C3A62309   2.716  16.002   7.050
 9293POPC   C4A62310   2.764  15.937   7.350
 9293POPC   C1B62311   2.927  16.129   6.450
 9293POPC   C2B62312   2.964  16.143   6.750
 9293POPC   C3B62313   2.944  16.124   7.050
 9293POPC   C4B62314   2.956  16.124   7.350
 9294POPC   NC362315   5.096  35.373   5.550
 9294POPC   PO462316   5.119  35.317   5.850
 9294POPC   GL162317   5.130  35.373   6.150
 9294POPC   GL262318   5.007  35.412   6.150
 9294POPC   C1A62319   5.059  35.368   6.450
 9294POPC   D2A62320   5.043  35.357   6.750
 9294POPC   C3A62321   5.047  35.336   7.050
 9294POPC   C4A62322   5.129  35.318   7.350
 9294POPC   C1B62323   4.878  35.500   6.450
 9294POPC   C2B62324   4.890  35.456   6.750
 9294POPC   C3B62325   4.896  35.465   7.050
 9294POPC   C4B62326   4.902  35.506   7.350
 9295POPC   NC362327  43.156   0.428   5.550
 9295POPC   PO462328  43.094   0.484   5.850
 9295POPC   GL162329  43.072   0.392   6.150
 9295POPC   GL262330  43.030   0.572   6.150
 9295POPC   C1A62331  43.106   0.457   6.450
 9295POPC   D2A62332  43.108   0.483   6.750
 9295POPC   C3A62333  43.151   0.419   7.050
 9295POPC   C4A62334  43.130   0.474   7.350
 9295POPC   C1B62335  42.963   0.596   6.450
 9295POPC   C2B62336  42.973   0.658   6.750
 9295POPC   C3B62337  42.915   0.602   7.050
 9295POPC   C4B62338  42.992   0.620   7.350
 9296POPC   NC362339  15.206  26.832   5.550
 9296POPC   PO462340  15.143  26.811   5.850
 9296POPC   GL162341  15.146  26.811   6.150
 9296POPC   GL262342  15.221  26.906   6.150
 9296POPC   C1A62343  15.225  26.769   6.450
 9296POPC   D2A62344  15.203  26.863   6.750
 9296POPC   C3A62345  15.228  26.843   7.050
 9296POPC   C4A62346  15.153  26.840   7.350
 9296POPC   C1B62347  15.284  27.044   6.450
 9296POPC   C2B62348  15.365  26.984   6.750
 9296POPC   C3B62349  15.352  27.020   7.050
 9296POPC   C4B62350  15.318  27.050   7.350
 9297POPC   NC362351  26.079   1.193   5.550
 9297POPC   PO462352  26.011   1.200   5.850
 9297POPC   GL162353  26.023   1.221   6.150
 9297POPC   GL262354  26.099   1.347   6.150
 9297POPC   C1A62355  26.080   1.171   6.450
 9297POPC   D2A62356  26.006   1.234   6.750
 9297POPC   C3A62357  26.039   1.224   7.050
 9297POPC   C4A62358  26.062   1.220   7.350
 9297POPC   C1B62359  26.114   1.466   6.450
 9297POPC   C2B62360  26.204   1.411   6.750
 9297POPC   C3B62361  26.197   1.389   7.050
 9297POPC   C4B62362  26.128   1.457   7.350
 9298POPC   NC362363  12.846   2.018   5.550
 9298POPC   PO462364  12.877   2.037   5.850
 9298POPC   GL162365  12.899   1.971   6.150
 9298POPC   GL262366  12.951   1.981   6.150
 9298POPC   C1A62367  12.882   1.990   6.450
 9298POPC   D2A62368  12.835   1.950   6.750
 9298POPC   C3A62369  12.804   2.025   7.050
 9298POPC   C4A62370  12.833   1.966   7.350
 9298POPC   C1B62371  13.124   2.038   6.450
 9298POPC   C2B62372  13.102   2.011   6.750
 9298POPC   C3B62373  13.092   2.044   7.050
 9298POPC   C4B62374  13.129   2.056   7.350
 9299POPC   NC362375  34.593  33.001   5.550
 9299POPC   PO462376  34.604  33.004   5.850
 9299POPC   GL162377  34.542  33.040   6.150
 9299POPC   GL262378  34.656  33.015   6.150
 9299POPC   C1A62379  34.588  33.065   6.450
 9299POPC   D2A62380  34.538  33.025   6.750
 9299POPC   C3A62381  34.587  33.066   7.050
 9299POPC   C4A62382  34.600  33.035   7.350
 9299POPC   C1B62383  34.832  32.972   6.450
 9299POPC   C2B62384  34.858  32.952   6.750
 9299POPC   C3B62385  34.868  33.011   7.050
 9299POPC   C4B62386  34.865  33.011   7.350
 9300POPC   NC362387   0.475  18.269   5.550
 9300POPC   PO462388   0.434  18.316   5.850
 9300POPC   GL162389   0.420  18.255   6.150
 9300POPC   GL262390   0.399  18.435   6.150
 9300POPC   C1A62391   0.398  18.262   6.450
 9300POPC   D2A62392   0.409  18.273   6.750
 9300POPC   C3A62393   0.467  18.278   7.050
 9300POPC   C4A62394   0.391  18.288   7.350
 9300POPC   C1B62395   0.336  18.559   6.450
 9300POPC   C2B62396   0.405  18.477   6.750
 9300POPC   C3B62397   0.333  18.526   7.050
 9300POPC   C4B62398   0.337  18.542   7.350
 9301POPC   NC362399  19.848  21.368   5.550
 9301POPC   PO462400  19.790  21.404   5.850
 9301POPC   GL162401  19.837  21.377   6.150
 9301POPC   GL262402  19.747  21.412   6.150
 9301POPC   C1A62403  19.813  21.362   6.450
 9301POPC   D2A62404  19.872  21.355   6.750
 9301POPC   C3A62405  19.829  21.340   7.050
 9301POPC   C4A62406  19.787  21.372   7.350
 9301POPC   C1B62407  19.586  21.490   6.450
 9301POPC   C2B62408  19.597  21.501   6.750
 9301POPC   C3B62409  19.645  21.507   7.050
 9301POPC   C4B62410  19.665  21.551   7.350
 9302POPC   NC362411  39.972  29.138   5.550
 9302POPC   PO462412  40.023  29.102   5.850
 9302POPC   GL162413  40.014  29.109   6.150
 9302POPC   GL262414  40.112  29.058   6.150
 9302POPC   C1A62415  40.031  29.136   6.450
 9302POPC   D2A62416  40.045  29.186   6.750
 9302POPC   C3A62417  39.989  29.152   7.050
 9302POPC   C4A62418  39.979  29.099   7.350
 9302POPC   C1B62419  40.083  28.929   6.450
 9302POPC   C2B62420  40.126  28.899   6.750
 9302POPC   C3B62421  40.077  28.960   7.050
 9302POPC   C4B62422  40.124  28.925   7.350
 9303POPC   NC362423   4.342  39.218   5.550
 9303POPC   PO462424   4.321  39.242   5.850
 9303POPC   GL162425   4.362  39.226   6.150
 9303POPC   GL262426   4.354  39.161   6.150
 9303POPC   C1A62427   4.367  39.233   6.450
 9303POPC   D2A62428   4.346  39.208   6.750
 9303POPC   C3A62429   4.270  39.225   7.050
 9303POPC   C4A62430   4.333  39.264   7.350
 9303POPC   C1B62431   4.418  39.028   6.450
 9303POPC   C2B62432   4.486  39.074   6.750
 9303POPC   C3B62433   4.452  38.986   7.050
 9303POPC   C4B62434   4.494  39.053   7.350
 9304POPC   NC362435  15.137   3.588   5.550
 9304POPC   PO462436  15.144   3.558   5.850
 9304POPC   GL162437  15.185   3.556   6.150
 9304POPC   GL262438  15.076   3.411   6.150
 9304POPC   C1A62439  15.150   3.514   6.450
 9304POPC   D2A62440  15.202   3.563   6.750
 9304POPC   C3A62441  15.131   3.583   7.050
 9304POPC   C4A62442  15.200   3.541   7.350
 9304POPC   C1B62443  15.000   3.359   6.450
 9304POPC   C2B62444  15.026   3.345   6.750
 9304POPC   C3B62445  15.006   3.325   7.050
 9304POPC   C4B62446  15.047   3.303   7.350
 9305POPC   NC362447  19.860  20.574   5.550
 9305POPC   PO462448  19.819  20.602   5.850
 9305POPC   GL162449  19.823  20.587   6.150
 9305POPC   GL262450  19.762  20.517   6.150
 9305POPC   C1A62451  19.857  20.586   6.450
 9305POPC   D2A62452  19.850  20.606   6.750
 9305POPC   C3A62453  19.850  20.610   7.050
 9305POPC   C4A62454  19.839  20.629   7.350
 9305POPC   C1B62455  19.677  20.392   6.450
 9305POPC   C2B62456  19.680  20.438   6.750
 9305POPC   C3B62457  19.677  20.420   7.050
 9305POPC   C4B62458  19.709  20.419   7.350
 9306POPC   NC362459  22.904  18.314   5.550
 9306POPC   PO462460  22.889  18.311   5.850
 9306POPC   GL162461  22.974  18.308   6.150
 9306POPC   GL262462  22.925  18.442   6.150
 9306POPC   C1A62463  22.920  18.296   6.450
 9306POPC   D2A62464  22.903  18.321   6.750
 9306POPC   C3A62465  22.933  18.276   7.050
 9306POPC   C4A62466  22.932  18.252   7.350
 9306POPC   C1B62467  22.958  18.523   6.450
 9306POPC   C2B62468  22.920  18.525   6.750
 9306POPC   C3B62469  22.944  18.530   7.050
 9306POPC   C4B62470  22.909  18.541   7.350
 9307POPC   NC362471  40.755  42.312   5.550
 9307POPC   PO462472  40.819  42.302   5.850
 9307POPC   GL162473  40.742  42.339   6.150
 9307POPC   GL262474  40.858  42.190   6.150
 9307POPC   C1A62475  40.787  42.296   6.450
 9307POPC   D2A62476  40.798  42.334   6.750
 9307POPC   C3A62477  40.747  42.366   7.050
 9307POPC   C4A62478  40.788  42.315   7.350
 9307POPC   C1B62479  40.812  42.140   6.450
 9307POPC   C2B62480  40.833  42.094   6.750
 9307POPC   C3B62481  40.831  42.041   7.050
 9307POPC   C4B62482  40.834  42.081   7.350
 9308POPC   NC362483  10.502   7.409   5.550
 9308POPC   PO462484  10.519   7.373   5.850
 9308POPC   GL162485  10.558   7.379   6.150
 9308POPC   GL262486  10.384   7.356   6.150
 9308POPC   C1A62487  10.497   7.400   6.450
 9308POPC   D2A62488  10.522   7.426   6.750
 9308POPC   C3A62489  10.547   7.403   7.050
 9308POPC   C4A62490  10.541   7.415   7.350
 9308POPC   C1B62491  10.295   7.282   6.450
 9308POPC   C2B62492  10.359   7.266   6.750
 9308POPC   C3B62493  10.291   7.236   7.050
 9308POPC   C4B62494  10.353   7.217   7.350
 9309POPC   NC362495   3.498  38.442   5.550
 9309POPC   PO462496   3.537  38.481   5.850
 9309POPC   GL162497   3.512  38.416   6.150
 9309POPC   GL262498   3.600  38.311   6.150
 9309POPC   C1A62499   3.536  38.425   6.450
 9309POPC   D2A62500   3.576  38.413   6.750
 9309POPC   C3A62501   3.519  38.499   7.050
 9309POPC   C4A62502   3.567  38.440   7.350
 9309POPC   C1B62503   3.534  38.188   6.450
 9309POPC   C2B62504   3.547  38.221   6.750
 9309POPC   C3B62505   3.611  38.162   7.050
 9309POPC   C4B62506   3.612  38.220   7.350
 9310POPC   NC362507  36.953   1.957   5.550
 9310POPC   PO462508  36.924   1.954   5.850
 9310POPC   GL162509  36.872   2.025   6.150
 9310POPC   GL262510  36.938   1.900   6.150
 9310POPC   C1A62511  36.879   2.021   6.450
 9310POPC   D2A62512  36.872   2.003   6.750
 9310POPC   C3A62513  36.914   1.972   7.050
 9310POPC   C4A62514  36.943   1.984   7.350
 9310POPC   C1B62515  36.938   1.730   6.450
 9310POPC   C2B62516  36.930   1.753   6.750
 9310POPC   C3B62517  36.989   1.788   7.050
 9310POPC   C4B62518  36.971   1.721   7.350
 9311POPC   NC362519  33.040  33.799   5.550
 9311POPC   PO462520  33.040  33.808   5.850
 9311POPC   GL162521  32.994  33.840   6.150
 9311POPC   GL262522  32.909  33.808   6.150
 9311POPC   C1A62523  33.042  33.843   6.450
 9311POPC   D2A62524  33.028  33.819   6.750
 9311POPC   C3A62525  33.063  33.804   7.050
 9311POPC   C4A62526  33.036  33.797   7.350
 9311POPC   C1B62527  32.808  33.964   6.450
 9311POPC   C2B62528  32.761  33.865   6.750
 9311POPC   C3B62529  32.802  33.881   7.050
 9311POPC   C4B62530  32.777  33.870   7.350
 9312POPC   NC362531   2.767  26.816   5.550
 9312POPC   PO462532   2.729  26.768   5.850
 9312POPC   GL162533   2.793  26.807   6.150
 9312POPC   GL262534   2.684  26.907   6.150
 9312POPC   C1A62535   2.737  26.795   6.450
 9312POPC   D2A62536   2.782  26.805   6.750
 9312POPC   C3A62537   2.743  26.842   7.050
 9312POPC   C4A62538   2.766  26.858   7.350
 9312POPC   C1B62539   2.674  27.019   6.450
 9312POPC   C2B62540   2.611  27.015   6.750
 9312POPC   C3B62541   2.663  27.068   7.050
 9312POPC   C4B62542   2.629  27.051   7.350
 9313POPC   NC362543  15.215  16.753   5.550
 9313POPC   PO462544  15.164  16.749   5.850
 9313POPC   GL162545  15.166  16.767   6.150
 9313POPC   GL262546  15.042  16.784   6.150
 9313POPC   C1A62547  15.197  16.751   6.450
 9313POPC   D2A62548  15.223  16.752   6.750
 9313POPC   C3A62549  15.150  16.718   7.050
 9313POPC   C4A62550  15.189  16.687   7.350
 9313POPC   C1B62551  14.977  16.849   6.450
 9313POPC   C2B62552  14.918  16.804   6.750
 9313POPC   C3B62553  14.948  16.767   7.050
 9313POPC   C4B62554  14.930  16.834   7.350
 9314POPC   NC362555  42.379  24.475   5.550
 9314POPC   PO462556  42.328  24.479   5.850
 9314POPC   GL162557  42.360  24.533   6.150
 9314POPC   GL262558  42.251  24.511   6.150
 9314POPC   C1A62559  42.356  24.526   6.450
 9314POPC   D2A62560  42.323  24.506   6.750
 9314POPC   C3A62561  42.303  24.463   7.050
 9314POPC   C4A62562  42.316  24.515   7.350
 9314POPC   C1B62563  42.097  24.505   6.450
 9314POPC   C2B62564  42.068  24.537   6.750
 9314POPC   C3B62565  42.111  24.567   7.050
 9314POPC   C4B62566  42.049  24.581   7.350
 9315POPC   NC362567  26.018  37.702   5.550
 9315POPC   PO462568  26.061  37.669   5.850
 9315POPC   GL162569  26.065  37.630   6.150
 9315POPC   GL262570  25.955  37.816   6.150
 9315POPC   C1A62571  26.032  37.714   6.450
 9315POPC   D2A62572  26.013  37.701   6.750
 9315POPC   C3A62573  26.043  37.632   7.050
 9315POPC   C4A62574  25.998  37.703   7.350
 9315POPC   C1B62575  25.931  37.869   6.450
 9315POPC   C2B62576  25.922  37.899   6.750
 9315POPC   C3B62577  25.934  37.906   7.050
 9315POPC   C4B62578  25.858  37.901   7.350
 9316POPC   NC362579  40.744  16.780   5.550
 9316POPC   PO462580  40.746  16.766   5.850
 9316POPC   GL162581  40.810  16.760   6.150
 9316POPC   GL262582  40.704  16.644   6.150
 9316POPC   C1A62583  40.826  16.766   6.450
 9316POPC   D2A62584  40.766  16.758   6.750
 9316POPC   C3A62585  40.793  16.729   7.050
 9316POPC   C4A62586  40.818  16.774   7.350
 9316POPC   C1B62587  40.610  16.580   6.450
 9316POPC   C2B62588  40.654  16.577   6.750
 9316POPC   C3B62589  40.585  16.535   7.050
 9316POPC   C4B62590  40.620  16.512   7.350
 9317POPC   NC362591   8.988  25.996   5.550
 9317POPC   PO462592   9.006  25.992   5.850
 9317POPC   GL162593   8.949  26.008   6.150
 9317POPC   GL262594   8.982  25.883   6.150
 9317POPC   C1A62595   8.957  25.993   6.450
 9317POPC   D2A62596   9.006  26.012   6.750
 9317POPC   C3A62597   8.958  26.032   7.050
 9317POPC   C4A62598   8.930  26.075   7.350
 9317POPC   C1B62599   9.078  25.836   6.450
 9317POPC   C2B62600   9.099  25.841   6.750
 9317POPC   C3B62601   9.079  25.811   7.050
 9317POPC   C4B62602   9.076  25.772   7.350
 9318POPC   NC362603  19.069   8.994   5.550
 9318POPC   PO462604  19.053   8.944   5.850
 9318POPC   GL162605  19.085   8.988   6.150
 9318POPC   GL262606  18.913   9.047   6.150
 9318POPC   C1A62607  19.050   8.983   6.450
 9318POPC   D2A62608  19.095   8.955   6.750
 9318POPC   C3A62609  19.054   8.960   7.050
 9318POPC   C4A62610  19.010   9.006   7.350
 9318POPC   C1B62611  18.869   9.086   6.450
 9318POPC   C2B62612  18.841   9.077   6.750
 9318POPC   C3B62613  18.792   9.101   7.050
 9318POPC   C4B62614  18.813   9.039   7.350
 9319POPC   NC362615  40.752  22.162   5.550
 9319POPC   PO462616  40.743  22.202   5.850
 9319POPC   GL162617  40.787  22.185   6.150
 9319POPC   GL262618  40.862  22.134   6.150
 9319POPC   C1A62619  40.794  22.194   6.450
 9319POPC   D2A62620  40.751  22.211   6.750
 9319POPC   C3A62621  40.820  22.147   7.050
 9319POPC   C4A62622  40.802  22.153   7.350
 9319POPC   C1B62623  41.073  22.198   6.450
 9319POPC   C2B62624  41.050  22.195   6.750
 9319POPC   C3B62625  41.027  22.136   7.050
 9319POPC   C4B62626  40.996  22.187   7.350
 9320POPC   NC362627  34.603  22.184   5.550
 9320POPC   PO462628  34.576  22.211   5.850
 9320POPC   GL162629  34.528  22.197   6.150
 9320POPC   GL262630  34.613  22.087   6.150
 9320POPC   C1A62631  34.600  22.187   6.450
 9320POPC   D2A62632  34.623  22.160   6.750
 9320POPC   C3A62633  34.530  22.166   7.050
 9320POPC   C4A62634  34.596  22.159   7.350
 9320POPC   C1B62635  34.677  21.911   6.450
 9320POPC   C2B62636  34.709  21.978   6.750
 9320POPC   C3B62637  34.688  21.966   7.050
 9320POPC   C4B62638  34.703  21.968   7.350
 9321POPC   NC362639  40.754  15.167   5.550
 9321POPC   PO462640  40.742  15.223   5.850
 9321POPC   GL162641  40.789  15.170   6.150
 9321POPC   GL262642  40.832  15.038   6.150
 9321POPC   C1A62643  40.805  15.138   6.450
 9321POPC   D2A62644  40.780  15.132   6.750
 9321POPC   C3A62645  40.737  15.154   7.050
 9321POPC   C4A62646  40.750  15.141   7.350
 9321POPC   C1B62647  40.845  14.901   6.450
 9321POPC   C2B62648  40.913  14.989   6.750
 9321POPC   C3B62649  40.869  14.895   7.050
 9321POPC   C4B62650  40.859  14.980   7.350
 9322POPC   NC362651  32.995  19.844   5.550
 9322POPC   PO462652  33.006  19.865   5.850
 9322POPC   GL162653  33.052  19.871   6.150
 9322POPC   GL262654  32.974  19.700   6.150
 9322POPC   C1A62655  32.977  19.863   6.450
 9322POPC   D2A62656  33.051  19.871   6.750
 9322POPC   C3A62657  33.034  19.797   7.050
 9322POPC   C4A62658  33.024  19.815   7.350
 9322POPC   C1B62659  32.889  19.578   6.450
 9322POPC   C2B62660  32.871  19.573   6.750
 9322POPC   C3B62661  32.936  19.660   7.050
 9322POPC   C4B62662  32.882  19.611   7.350
 9323POPC   NC362663  19.018  22.922   5.550
 9323POPC   PO462664  19.028  22.892   5.850
 9323POPC   GL162665  19.065  22.948   6.150
 9323POPC   GL262666  18.887  22.929   6.150
 9323POPC   C1A62667  19.076  22.910   6.450
 9323POPC   D2A62668  19.103  22.980   6.750
 9323POPC   C3A62669  19.051  22.982   7.050
 9323POPC   C4A62670  19.031  22.973   7.350
 9323POPC   C1B62671  18.772  22.964   6.450
 9323POPC   C2B62672  18.833  23.006   6.750
 9323POPC   C3B62673  18.786  22.961   7.050
 9323POPC   C4B62674  18.774  22.960   7.350
 9324POPC   NC362675  31.510   0.389   5.550
 9324POPC   PO462676  31.466   0.466   5.850
 9324POPC   GL162677  31.453   0.391   6.150
 9324POPC   GL262678  31.564   0.408   6.150
 9324POPC   C1A62679  31.488   0.414   6.450
 9324POPC   D2A62680  31.481   0.402   6.750
 9324POPC   C3A62681  31.484   0.435   7.050
 9324POPC   C4A62682  31.442   0.466   7.350
 9324POPC   C1B62683  31.690   0.385   6.450
 9324POPC   C2B62684  31.717   0.390   6.750
 9324POPC   C3B62685  31.753   0.439   7.050
 9324POPC   C4B62686  31.740   0.419   7.350
 9325POPC   NC362687  26.052  30.705   5.550
 9325POPC   PO462688  26.002  30.719   5.850
 9325POPC   GL162689  26.086  30.686   6.150
 9325POPC   GL262690  26.157  30.668   6.150
 9325POPC   C1A62691  26.009  30.678   6.450
 9325POPC   D2A62692  26.047  30.736   6.750
 9325POPC   C3A62693  26.066  30.713   7.050
 9325POPC   C4A62694  26.054  30.712   7.350
 9325POPC   C1B62695  26.285  30.676   6.450
 9325POPC   C2B62696  26.280  30.647   6.750
 9325POPC   C3B62697  26.277  30.661   7.050
 9325POPC   C4B62698  26.290  30.621   7.350
 9326POPC   NC362699   8.161  43.924   5.550
 9326POPC   PO462700   8.165  43.857   5.850
 9326POPC   GL162701   8.238  43.845   6.150
 9326POPC   GL262702   8.214  43.779   6.150
 9326POPC   C1A62703   8.191  43.903   6.450
 9326POPC   D2A62704   8.191  43.837   6.750
 9326POPC   C3A62705   8.214  43.849   7.050
 9326POPC   C4A62706   8.167  43.901   7.350
 9326POPC   C1B62707   8.189  43.663   6.450
 9326POPC   C2B62708   8.172  43.668   6.750
 9326POPC   C3B62709   8.201  43.658   7.050
 9326POPC   C4B62710   8.218  43.672   7.350
 9327POPC   NC362711   6.690  22.961   5.550
 9327POPC   PO462712   6.621  22.984   5.850
 9327POPC   GL162713   6.601  22.915   6.150
 9327POPC   GL262714   6.719  23.073   6.150
 9327POPC   C1A62715   6.678  22.904   6.450
 9327POPC   D2A62716   6.614  22.928   6.750
 9327POPC   C3A62717   6.627  22.940   7.050
 9327POPC   C4A62718   6.618  22.928   7.350
 9327POPC   C1B62719   6.737  23.184   6.450
 9327POPC   C2B62720   6.714  23.199   6.750
 9327POPC   C3B62721   6.700  23.164   7.050
 9327POPC   C4B62722   6.789  23.157   7.350
 9328POPC   NC362723  38.477  37.727   5.550
 9328POPC   PO462724  38.452  37.710   5.850
 9328POPC   GL162725  38.430  37.661   6.150
 9328POPC   GL262726  38.313  37.720   6.150
 9328POPC   C1A62727  38.478  37.703   6.450
 9328POPC   D2A62728  38.426  37.685   6.750
 9328POPC   C3A62729  38.484  37.652   7.050
 9328POPC   C4A62730  38.430  37.643   7.350
 9328POPC   C1B62731  38.229  37.846   6.450
 9328POPC   C2B62732  38.280  37.844   6.750
 9328POPC   C3B62733  38.309  37.809   7.050
 9328POPC   C4B62734  38.278  37.878   7.350
 9329POPC   NC362735  15.952  31.444   5.550
 9329POPC   PO462736  15.977  31.434   5.850
 9329POPC   GL162737  15.948  31.449   6.150
 9329POPC   GL262738  16.000  31.560   6.150
 9329POPC   C1A62739  15.907  31.517   6.450
 9329POPC   D2A62740  15.978  31.481   6.750
 9329POPC   C3A62741  15.917  31.447   7.050
 9329POPC   C4A62742  15.992  31.472   7.350
 9329POPC   C1B62743  15.990  31.666   6.450
 9329POPC   C2B62744  16.008  31.676   6.750
 9329POPC   C3B62745  16.069  31.670   7.050
 9329POPC   C4B62746  16.076  31.676   7.350
 9330POPC   NC362747  22.960  41.530   5.550
 9330POPC   PO462748  22.898  41.575   5.850
 9330POPC   GL162749  22.976  41.573   6.150
 9330POPC   GL262750  22.872  41.649   6.150
 9330POPC   C1A62751  22.965  41.569   6.450
 9330POPC   D2A62752  22.889  41.599   6.750
 9330POPC   C3A62753  22.898  41.509   7.050
 9330POPC   C4A62754  22.986  41.591   7.350
 9330POPC   C1B62755  22.809  41.799   6.450
 9330POPC   C2B62756  22.866  41.812   6.750
 9330POPC   C3B62757  22.858  41.836   7.050
 9330POPC   C4B62758  22.825  41.746   7.350
 9331POPC   NC362759  38.481  23.738   5.550
 9331POPC   PO462760  38.504  23.706   5.850
 9331POPC   GL162761  38.450  23.759   6.150
 9331POPC   GL262762  38.594  23.650   6.150
 9331POPC   C1A62763  38.421  23.678   6.450
 9331POPC   D2A62764  38.434  23.739   6.750
 9331POPC   C3A62765  38.494  23.756   7.050
 9331POPC   C4A62766  38.444  23.677   7.350
 9331POPC   C1B62767  38.636  23.521   6.450
 9331POPC   C2B62768  38.648  23.500   6.750
 9331POPC   C3B62769  38.632  23.520   7.050
 9331POPC   C4B62770  38.680  23.590   7.350
 9332POPC   NC362771  26.056  33.074   5.550
 9332POPC   PO462772  26.049  33.054   5.850
 9332POPC   GL162773  26.048  33.057   6.150
 9332POPC   GL262774  26.129  33.080   6.150
 9332POPC   C1A62775  26.029  33.004   6.450
 9332POPC   D2A62776  26.024  33.037   6.750
 9332POPC   C3A62777  26.056  33.069   7.050
 9332POPC   C4A62778  26.075  33.034   7.350
 9332POPC   C1B62779  26.282  33.100   6.450
 9332POPC   C2B62780  26.249  33.099   6.750
 9332POPC   C3B62781  26.323  33.037   7.050
 9332POPC   C4B62782  26.288  33.096   7.350
 9333POPC   NC362783   2.761  22.133   5.550
 9333POPC   PO462784   2.778  22.208   5.850
 9333POPC   GL162785   2.792  22.166   6.150
 9333POPC   GL262786   2.686  22.224   6.150
 9333POPC   C1A62787   2.728  22.127   6.450
 9333POPC   D2A62788   2.757  22.118   6.750
 9333POPC   C3A62789   2.768  22.163   7.050
 9333POPC   C4A62790   2.769  22.192   7.350
 9333POPC   C1B62791   2.610  22.352   6.450
 9333POPC   C2B62792   2.645  22.367   6.750
 9333POPC   C3B62793   2.619  22.369   7.050
 9333POPC   C4B62794   2.664  22.415   7.350
 9334POPC   NC362795  33.004  35.345   5.550
 9334POPC   PO462796  33.016  35.368   5.850
 9334POPC   GL162797  33.048  35.372   6.150
 9334POPC   GL262798  32.931  35.438   6.150
 9334POPC   C1A62799  32.997  35.328   6.450
 9334POPC   D2A62800  33.051  35.397   6.750
 9334POPC   C3A62801  32.978  35.363   7.050
 9334POPC   C4A62802  33.057  35.395   7.350
 9334POPC   C1B62803  32.906  35.561   6.450
 9334POPC   C2B62804  32.939  35.601   6.750
 9334POPC   C3B62805  32.873  35.568   7.050
 9334POPC   C4B62806  32.950  35.538   7.350
 9335POPC   NC362807  40.820  30.740   5.550
 9335POPC   PO462808  40.785  30.733   5.850
 9335POPC   GL162809  40.746  30.743   6.150
 9335POPC   GL262810  40.754  30.790   6.150
 9335POPC   C1A62811  40.822  30.715   6.450
 9335POPC   D2A62812  40.828  30.654   6.750
 9335POPC   C3A62813  40.797  30.736   7.050
 9335POPC   C4A62814  40.788  30.731   7.350
 9335POPC   C1B62815  40.692  30.922   6.450
 9335POPC   C2B62816  40.636  30.939   6.750
 9335POPC   C3B62817  40.675  30.959   7.050
 9335POPC   C4B62818  40.695  30.883   7.350
 9336POPC   NC362819  21.408  36.860   5.550
 9336POPC   PO462820  21.361  36.904   5.850
 9336POPC   GL162821  21.371  36.944   6.150
 9336POPC   GL262822  21.268  36.852   6.150
 9336POPC   C1A62823  21.425  36.871   6.450
 9336POPC   D2A62824  21.363  36.867   6.750
 9336POPC   C3A62825  21.431  36.931   7.050
 9336POPC   C4A62826  21.349  36.945   7.350
 9336POPC   C1B62827  21.091  36.879   6.450
 9336POPC   C2B62828  21.122  36.887   6.750
 9336POPC   C3B62829  21.168  36.854   7.050
 9336POPC   C4B62830  21.094  36.870   7.350
 9337POPC   NC362831   4.298  17.548   5.550
 9337POPC   PO462832   4.276  17.461   5.850
 9337POPC   GL162833   4.339  17.530   6.150
 9337POPC   GL262834   4.294  17.594   6.150
 9337POPC   C1A62835   4.279  17.528   6.450
 9337POPC   D2A62836   4.272  17.533   6.750
 9337POPC   C3A62837   4.343  17.509   7.050
 9337POPC   C4A62838   4.303  17.535   7.350
 9337POPC   C1B62839   4.229  17.716   6.450
 9337POPC   C2B62840   4.268  17.763   6.750
 9337POPC   C3B62841   4.263  17.739   7.050
 9337POPC   C4B62842   4.218  17.746   7.350
 9338POPC   NC362843  33.824  36.855   5.550
 9338POPC   PO462844  33.760  36.927   5.850
 9338POPC   GL162845  33.790  36.864   6.150
 9338POPC   GL262846  33.840  36.991   6.150
 9338POPC   C1A62847  33.751  36.877   6.450
 9338POPC   D2A62848  33.757  36.860   6.750
 9338POPC   C3A62849  33.753  36.900   7.050
 9338POPC   C4A62850  33.775  36.868   7.350
 9338POPC   C1B62851  33.892  37.178   6.450
 9338POPC   C2B62852  33.884  37.141   6.750
 9338POPC   C3B62853  33.942  37.174   7.050
 9338POPC   C4B62854  33.912  37.158   7.350
 9339POPC   NC362855   8.995   6.599   5.550
 9339POPC   PO462856   9.022   6.660   5.850
 9339POPC   GL162857   8.929   6.693   6.150
 9339POPC   GL262858   8.992   6.730   6.150
 9339POPC   C1A62859   8.998   6.691   6.450
 9339POPC   D2A62860   8.979   6.683   6.750
 9339POPC   C3A62861   8.992   6.603   7.050
 9339POPC   C4A62862   9.014   6.695   7.350
 9339POPC   C1B62863   8.977   6.881   6.450
 9339POPC   C2B62864   9.031   6.917   6.750
 9339POPC   C3B62865   8.977   6.916   7.050
 9339POPC   C4B62866   9.031   6.928   7.350
 9340POPC   NC362867  29.160  32.267   5.550
 9340POPC   PO462868  29.182  32.261   5.850
 9340POPC   GL162869  29.105  32.279   6.150
 9340POPC   GL262870  29.136  32.380   6.150
 9340POPC   C1A62871  29.134  32.258   6.450
 9340POPC   D2A62872  29.121  32.255   6.750
 9340POPC   C3A62873  29.095  32.204   7.050
 9340POPC   C4A62874  29.158  32.256   7.350
 9340POPC   C1B62875  29.213  32.485   6.450
 9340POPC   C2B62876  29.135  32.512   6.750
 9340POPC   C3B62877  29.157  32.523   7.050
 9340POPC   C4B62878  29.196  32.457   7.350
 9341POPC   NC362879  21.338  20.585   5.550
 9341POPC   PO462880  21.346  20.570   5.850
 9341POPC   GL162881  21.417  20.645   6.150
 9341POPC   GL262882  21.243  20.601   6.150
 9341POPC   C1A62883  21.428  20.611   6.450
 9341POPC   D2A62884  21.361  20.628   6.750
 9341POPC   C3A62885  21.433  20.656   7.050
 9341POPC   C4A62886  21.359  20.652   7.350
 9341POPC   C1B62887  21.123  20.572   6.450
 9341POPC   C2B62888  21.141  20.544   6.750
 9341POPC   C3B62889  21.151  20.571   7.050
 9341POPC   C4B62890  21.151  20.622   7.350
 9342POPC   NC362891   6.624  23.718   5.550
 9342POPC   PO462892   6.608  23.717   5.850
 9342POPC   GL162893   6.607  23.720   6.150
 9342POPC   GL262894   6.730  23.572   6.150
 9342POPC   C1A62895   6.630  23.697   6.450
 9342POPC   D2A62896   6.647  23.711   6.750
 9342POPC   C3A62897   6.641  23.675   7.050
 9342POPC   C4A62898   6.676  23.742   7.350
 9342POPC   C1B62899   6.766  23.500   6.450
 9342POPC   C2B62900   6.706  23.506   6.750
 9342POPC   C3B62901   6.732  23.438   7.050
 9342POPC   C4B62902   6.733  23.475   7.350
 9343POPC   NC362903  40.742  29.168   5.550
 9343POPC   PO462904  40.737  29.190   5.850
 9343POPC   GL162905  40.798  29.098   6.150
 9343POPC   GL262906  40.794  29.241   6.150
 9343POPC   C1A62907  40.814  29.179   6.450
 9343POPC   D2A62908  40.775  29.142   6.750
 9343POPC   C3A62909  40.824  29.125   7.050
 9343POPC   C4A62910  40.790  29.191   7.350
 9343POPC   C1B62911  40.783  29.400   6.450
 9343POPC   C2B62912  40.741  29.386   6.750
 9343POPC   C3B62913  40.806  29.435   7.050
 9343POPC   C4B62914  40.762  29.362   7.350
 9344POPC   NC362915  15.949  13.612   5.550
 9344POPC   PO462916  15.981  13.651   5.850
 9344POPC   GL162917  15.909  13.581   6.150
 9344POPC   GL262918  16.090  13.571   6.150
 9344POPC   C1A62919  15.961  13.660   6.450
 9344POPC   D2A62920  15.941  13.622   6.750
 9344POPC   C3A62921  15.943  13.643   7.050
 9344POPC   C4A62922  15.973  13.665   7.350
 9344POPC   C1B62923  16.176  13.521   6.450
 9344POPC   C2B62924  16.174  13.526   6.750
 9344POPC   C3B62925  16.164  13.468   7.050
 9344POPC   C4B62926  16.196  13.493   7.350
 9345POPC   NC362927   2.030  10.545   5.550
 9345POPC   PO462928   2.004  10.560   5.850
 9345POPC   GL162929   2.026  10.521   6.150
 9345POPC   GL262930   1.967  10.659   6.150
 9345POPC   C1A62931   2.004  10.528   6.450
 9345POPC   D2A62932   1.996  10.515   6.750
 9345POPC   C3A62933   1.946  10.571   7.050
 9345POPC   C4A62934   1.987  10.519   7.350
 9345POPC   C1B62935   1.928  10.787   6.450
 9345POPC   C2B62936   1.934  10.804   6.750
 9345POPC   C3B62937   1.952  10.794   7.050
 9345POPC   C4B62938   2.018  10.735   7.350
 9346POPC   NC362939   1.247  38.422   5.550
 9346POPC   PO462940   1.193  38.497   5.850
 9346POPC   GL162941   1.228  38.443   6.150
 9346POPC   GL262942   1.332  38.574   6.150
 9346POPC   C1A62943   1.178  38.428   6.450
 9346POPC   D2A62944   1.199  38.460   6.750
 9346POPC   C3A62945   1.223  38.409   7.050
 9346POPC   C4A62946   1.207  38.460   7.350
 9346POPC   C1B62947   1.377  38.573   6.450
 9346POPC   C2B62948   1.414  38.585   6.750
 9346POPC   C3B62949   1.373  38.585   7.050
 9346POPC   C4B62950   1.418  38.657   7.350
 9347POPC   NC362951  28.362  17.508   5.550
 9347POPC   PO462952  28.405  17.545   5.850
 9347POPC   GL162953  28.417  17.525   6.150
 9347POPC   GL262954  28.275  17.590   6.150
 9347POPC   C1A62955  28.349  17.464   6.450
 9347POPC   D2A62956  28.369  17.508   6.750
 9347POPC   C3A62957  28.411  17.517   7.050
 9347POPC   C4A62958  28.367  17.533   7.350
 9347POPC   C1B62959  28.123  17.652   6.450
 9347POPC   C2B62960  28.114  17.668   6.750
 9347POPC   C3B62961  28.103  17.600   7.050
 9347POPC   C4B62962  28.194  17.608   7.350
 9348POPC   NC362963   7.425  22.138   5.550
 9348POPC   PO462964   7.394  22.134   5.850
 9348POPC   GL162965   7.446  22.116   6.150
 9348POPC   GL262966   7.362  22.043   6.150
 9348POPC   C1A62967   7.420  22.114   6.450
 9348POPC   D2A62968   7.421  22.131   6.750
 9348POPC   C3A62969   7.460  22.115   7.050
 9348POPC   C4A62970   7.439  22.113   7.350
 9348POPC   C1B62971   7.257  21.973   6.450
 9348POPC   C2B62972   7.239  21.930   6.750
 9348POPC   C3B62973   7.260  21.946   7.050
 9348POPC   C4B62974   7.266  21.925   7.350
 9349POPC   NC362975  38.419   8.196   5.550
 9349POPC   PO462976  38.475   8.147   5.850
 9349POPC   GL162977  38.453   8.181   6.150
 9349POPC   GL262978  38.366   8.234   6.150
 9349POPC   C1A62979  38.455   8.151   6.450
 9349POPC   D2A62980  38.442   8.152   6.750
 9349POPC   C3A62981  38.463   8.199   7.050
 9349POPC   C4A62982  38.436   8.230   7.350
 9349POPC   C1B62983  38.214   8.341   6.450
 9349POPC   C2B62984  38.201   8.310   6.750
 9349POPC   C3B62985  38.241   8.319   7.050
 9349POPC   C4B62986  38.247   8.355   7.350
 9350POPC   NC362987  15.163  12.867   5.550
 9350POPC   PO462988  15.222  12.867   5.850
 9350POPC   GL162989  15.171  12.834   6.150
 9350POPC   GL262990  15.056  12.801   6.150
 9350POPC   C1A62991  15.169  12.835   6.450
 9350POPC   D2A62992  15.191  12.859   6.750
 9350POPC   C3A62993  15.216  12.809   7.050
 9350POPC   C4A62994  15.188  12.839   7.350
 9350POPC   C1B62995  14.916  12.773   6.450
 9350POPC   C2B62996  14.929  12.691   6.750
 9350POPC   C3B62997  14.947  12.777   7.050
 9350POPC   C4B62998  15.007  12.764   7.350
 9351POPC   NC362999  44.617  31.478   5.550
 9351POPC   PO463000  44.640  31.468   5.850
 9351POPC   GL163001  44.642  31.521   6.150
 9351POPC   GL263002  44.724  31.545   6.150
 9351POPC   C1A63003  44.634  31.439   6.450
 9351POPC   D2A63004  44.710  31.473   6.750
 9351POPC   C3A63005  44.710  31.441   7.050
 9351POPC   C4A63006  44.685  31.447   7.350
 9351POPC   C1B63007  44.848  31.617   6.450
 9351POPC   C2B63008  44.854  31.669   6.750
 9351POPC   C3B63009  44.840  31.667   7.050
 9351POPC   C4B63010  44.876  31.670   7.350
 9352POPC   NC363011  33.787  25.249   5.550
 9352POPC   PO463012  33.832  25.237   5.850
 9352POPC   GL163013  33.784  25.279   6.150
 9352POPC   GL263014  33.933  25.242   6.150
 9352POPC   C1A63015  33.797  25.234   6.450
 9352POPC   D2A63016  33.847  25.268   6.750
 9352POPC   C3A63017  33.825  25.262   7.050
 9352POPC   C4A63018  33.803  25.243   7.350
 9352POPC   C1B63019  34.003  25.141   6.450
 9352POPC   C2B63020  34.009  25.172   6.750
 9352POPC   C3B63021  34.036  25.205   7.050
 9352POPC   C4B63022  34.008  25.206   7.350
 9353POPC   NC363023  42.315  18.257   5.550
 9353POPC   PO463024  42.318  18.299   5.850
 9353POPC   GL163025  42.383  18.262   6.150
 9353POPC   GL263026  42.261  18.426   6.150
 9353POPC   C1A63027  42.308  18.303   6.450
 9353POPC   D2A63028  42.353  18.312   6.750
 9353POPC   C3A63029  42.340  18.237   7.050
 9353POPC   C4A63030  42.321  18.256   7.350
 9353POPC   C1B63031  42.237  18.494   6.450
 9353POPC   C2B63032  42.213  18.524   6.750
 9353POPC   C3B63033  42.239  18.536   7.050
 9353POPC   C4B63034  42.169  18.532   7.350
 9354POPC   NC363035  43.843   8.183   5.550
 9354POPC   PO463036  43.898   8.225   5.850
 9354POPC   GL163037  43.893   8.191   6.150
 9354POPC   GL263038  43.780   8.214   6.150
 9354POPC   C1A63039  43.924   8.185   6.450
 9354POPC   D2A63040  43.862   8.222   6.750
 9354POPC   C3A63041  43.846   8.167   7.050
 9354POPC   C4A63042  43.933   8.243   7.350
 9354POPC   C1B63043  43.629   8.255   6.450
 9354POPC   C2B63044  43.669   8.231   6.750
 9354POPC   C3B63045  43.640   8.280   7.050
 9354POPC   C4B63046  43.638   8.291   7.350
 9355POPC   NC363047  31.483  26.072   5.550
 9355POPC   PO463048  31.496  26.051   5.850
 9355POPC   GL163049  31.446  26.057   6.150
 9355POPC   GL263050  31.373  25.992   6.150
 9355POPC   C1A63051  31.427  26.041   6.450
 9355POPC   D2A63052  31.433  26.057   6.750
 9355POPC   C3A63053  31.512  26.078   7.050
 9355POPC   C4A63054  31.503  26.030   7.350
 9355POPC   C1B63055  31.284  25.931   6.450
 9355POPC   C2B63056  31.277  25.875   6.750
 9355POPC   C3B63057  31.295  25.898   7.050
 9355POPC   C4B63058  31.274  25.916   7.350
 9356POPC   NC363059   3.570  39.188   5.550
 9356POPC   PO463060   3.498  39.204   5.850
 9356POPC   GL163061   3.584  39.210   6.150
 9356POPC   GL263062   3.526  39.097   6.150
 9356POPC   C1A63063   3.519  39.238   6.450
 9356POPC   D2A63064   3.507  39.232   6.750
 9356POPC   C3A63065   3.586  39.208   7.050
 9356POPC   C4A63066   3.557  39.263   7.350
 9356POPC   C1B63067   3.472  39.012   6.450
 9356POPC   C2B63068   3.509  38.991   6.750
 9356POPC   C3B63069   3.474  38.959   7.050
 9356POPC   C4B63070   3.544  38.991   7.350
 9357POPC   NC363071  14.445  39.223   5.550
 9357POPC   PO463072  14.369  39.213   5.850
 9357POPC   GL163073  14.387  39.206   6.150
 9357POPC   GL263074  14.411  39.319   6.150
 9357POPC   C1A63075  14.402  39.249   6.450
 9357POPC   D2A63076  14.368  39.277   6.750
 9357POPC   C3A63077  14.365  39.244   7.050
 9357POPC   C4A63078  14.409  39.277   7.350
 9357POPC   C1B63079  14.512  39.492   6.450
 9357POPC   C2B63080  14.508  39.456   6.750
 9357POPC   C3B63081  14.428  39.497   7.050
 9357POPC   C4B63082  14.443  39.443   7.350
 9358POPC   NC363083  12.058  41.547   5.550
 9358POPC   PO463084  12.106  41.515   5.850
 9358POPC   GL163085  12.076  41.556   6.150
 9358POPC   GL263086  12.088  41.481   6.150
 9358POPC   C1A63087  12.111  41.554   6.450
 9358POPC   D2A63088  12.053  41.557   6.750
 9358POPC   C3A63089  12.103  41.562   7.050
 9358POPC   C4A63090  12.050  41.598   7.350
 9358POPC   C1B63091  12.039  41.340   6.450
 9358POPC   C2B63092  12.047  41.351   6.750
 9358POPC   C3B63093  12.002  41.285   7.050
 9358POPC   C4B63094  11.976  41.335   7.350
 9359POPC   NC363095  29.953  15.987   5.550
 9359POPC   PO463096  29.937  15.971   5.850
 9359POPC   GL163097  29.960  15.908   6.150
 9359POPC   GL263098  29.900  15.844   6.150
 9359POPC   C1A63099  29.893  15.942   6.450
 9359POPC   D2A63100  29.962  15.974   6.750
 9359POPC   C3A63101  29.970  15.934   7.050
 9359POPC   C4A63102  29.932  15.909   7.350
 9359POPC   C1B63103  29.827  15.745   6.450
 9359POPC   C2B63104  29.876  15.699   6.750
 9359POPC   C3B63105  29.917  15.674   7.050
 9359POPC   C4B63106  29.889  15.741   7.350
 9360POPC   NC363107  34.613  35.378   5.550
 9360POPC   PO463108  34.577  35.342   5.850
 9360POPC   GL163109  34.540  35.363   6.150
 9360POPC   GL263110  34.655  35.351   6.150
 9360POPC   C1A63111  34.551  35.361   6.450
 9360POPC   D2A63112  34.539  35.304   6.750
 9360POPC   C3A63113  34.554  35.384   7.050
 9360POPC   C4A63114  34.600  35.308   7.350
 9360POPC   C1B63115  34.831  35.314   6.450
 9360POPC   C2B63116  34.785  35.316   6.750
 9360POPC   C3B63117  34.772  35.297   7.050
 9360POPC   C4B63118  34.785  35.292   7.350
 9361POPC   NC363119  19.016  43.102   5.550
 9361POPC   PO463120  19.018  43.133   5.850
 9361POPC   GL163121  19.061  43.135   6.150
 9361POPC   GL263122  19.194  43.193   6.150
 9361POPC   C1A63123  19.100  43.085   6.450
 9361POPC   D2A63124  19.056  43.158   6.750
 9361POPC   C3A63125  19.093  43.153   7.050
 9361POPC   C4A63126  19.097  43.113   7.350
 9361POPC   C1B63127  19.249  43.215   6.450
 9361POPC   C2B63128  19.225  43.249   6.750
 9361POPC   C3B63129  19.313  43.267   7.050
 9361POPC   C4B63130  19.219  43.296   7.350
 9362POPC   NC363131  17.509   1.186   5.550
 9362POPC   PO463132  17.525   1.174   5.850
 9362POPC   GL163133  17.466   1.225   6.150
 9362POPC   GL263134  17.467   1.307   6.150
 9362POPC   C1A63135  17.487   1.167   6.450
 9362POPC   D2A63136  17.472   1.228   6.750
 9362POPC   C3A63137  17.486   1.216   7.050
 9362POPC   C4A63138  17.547   1.196   7.350
 9362POPC   C1B63139  17.418   1.437   6.450
 9362POPC   C2B63140  17.409   1.410   6.750
 9362POPC   C3B63141  17.407   1.428   7.050
 9362POPC   C4B63142  17.358   1.450   7.350
 9363POPC   NC363143   5.045   6.618   5.550
 9363POPC   PO463144   5.095   6.682   5.850
 9363POPC   GL163145   5.106   6.695   6.150
 9363POPC   GL263146   5.131   6.537   6.150
 9363POPC   C1A63147   5.091   6.596   6.450
 9363POPC   D2A63148   5.141   6.613   6.750
 9363POPC   C3A63149   5.064   6.634   7.050
 9363POPC   C4A63150   5.103   6.639   7.350
 9363POPC   C1B63151   5.154   6.455   6.450
 9363POPC   C2B63152   5.185   6.364   6.750
 9363POPC   C3B63153   5.214   6.425   7.050
 9363POPC   C4B63154   5.127   6.442   7.350
 9364POPC   NC363155  18.261  16.723   5.550
 9364POPC   PO463156  18.279  16.725   5.850
 9364POPC   GL163157  18.236  16.691   6.150
 9364POPC   GL263158  18.342  16.825   6.150
 9364POPC   C1A63159  18.326  16.687   6.450
 9364POPC   D2A63160  18.280  16.753   6.750
 9364POPC   C3A63161  18.324  16.722   7.050
 9364POPC   C4A63162  18.276  16.696   7.350
 9364POPC   C1B63163  18.418  16.920   6.450
 9364POPC   C2B63164  18.404  16.917   6.750
 9364POPC   C3B63165  18.446  16.898   7.050
 9364POPC   C4B63166  18.439  16.946   7.350
 9365POPC   NC363167  37.705  29.909   5.550
 9365POPC   PO463168  37.687  29.949   5.850
 9365POPC   GL163169  37.686  29.948   6.150
 9365POPC   GL263170  37.745  30.059   6.150
 9365POPC   C1A63171  37.688  29.877   6.450
 9365POPC   D2A63172  37.724  29.922   6.750
 9365POPC   C3A63173  37.720  29.935   7.050
 9365POPC   C4A63174  37.707  29.914   7.350
 9365POPC   C1B63175  37.723  30.106   6.450
 9365POPC   C2B63176  37.759  30.167   6.750
 9365POPC   C3B63177  37.786  30.114   7.050
 9365POPC   C4B63178  37.787  30.113   7.350
 9366POPC   NC363179  42.312  26.818   5.550
 9366POPC   PO463180  42.377  26.859   5.850
 9366POPC   GL163181  42.322  26.822   6.150
 9366POPC   GL263182  42.260  26.875   6.150
 9366POPC   C1A63183  42.346  26.836   6.450
 9366POPC   D2A63184  42.348  26.841   6.750
 9366POPC   C3A63185  42.368  26.856   7.050
 9366POPC   C4A63186  42.309  26.809   7.350
 9366POPC   C1B63187  42.131  26.851   6.450
 9366POPC   C2B63188  42.117  26.913   6.750
 9366POPC   C3B63189  42.091  26.907   7.050
 9366POPC   C4B63190  42.136  26.938   7.350
 9367POPC   NC363191   5.862  40.039   5.550
 9367POPC   PO463192   5.865  40.016   5.850
 9367POPC   GL163193   5.831  39.989   6.150
 9367POPC   GL263194   5.746  40.008   6.150
 9367POPC   C1A63195   5.856  40.017   6.450
 9367POPC   D2A63196   5.896  39.989   6.750
 9367POPC   C3A63197   5.865  40.043   7.050
 9367POPC   C4A63198   5.872  39.981   7.350
 9367POPC   C1B63199   5.625  39.940   6.450
 9367POPC   C2B63200   5.596  39.952   6.750
 9367POPC   C3B63201   5.644  39.944   7.050
 9367POPC   C4B63202   5.581  39.943   7.350
 9368POPC   NC363203  10.487  43.061   5.550
 9368POPC   PO463204  10.491  43.062   5.850
 9368POPC   GL163205  10.532  43.066   6.150
 9368POPC   GL263206  10.446  42.964   6.150
 9368POPC   C1A63207  10.559  43.111   6.450
 9368POPC   D2A63208  10.527  43.113   6.750
 9368POPC   C3A63209  10.550  43.094   7.050
 9368POPC   C4A63210  10.499  43.081   7.350
 9368POPC   C1B63211  10.416  42.844   6.450
 9368POPC   C2B63212  10.425  42.920   6.750
 9368POPC   C3B63213  10.405  42.916   7.050
 9368POPC   C4B63214  10.435  42.902   7.350
 9369POPC   NC363215  19.867  22.113   5.550
 9369POPC   PO463216  19.873  22.200   5.850
 9369POPC   GL163217  19.846  22.176   6.150
 9369POPC   GL263218  19.804  22.238   6.150
 9369POPC   C1A63219  19.852  22.205   6.450
 9369POPC   D2A63220  19.789  22.147   6.750
 9369POPC   C3A63221  19.870  22.167   7.050
 9369POPC   C4A63222  19.830  22.173   7.350
 9369POPC   C1B63223  19.718  22.367   6.450
 9369POPC   C2B63224  19.684  22.373   6.750
 9369POPC   C3B63225  19.672  22.309   7.050
 9369POPC   C4B63226  19.703  22.328   7.350
 9370POPC   NC363227  19.037  14.410   5.550
 9370POPC   PO463228  19.079  14.421   5.850
 9370POPC   GL163229  19.075  14.380   6.150
 9370POPC   GL263230  19.087  14.314   6.150
 9370POPC   C1A63231  19.018  14.432   6.450
 9370POPC   D2A63232  19.099  14.391   6.750
 9370POPC   C3A63233  19.076  14.415   7.050
 9370POPC   C4A63234  19.108  14.442   7.350
 9370POPC   C1B63235  19.212  14.180   6.450
 9370POPC   C2B63236  19.168  14.199   6.750
 9370POPC   C3B63237  19.187  14.205   7.050
 9370POPC   C4B63238  19.192  14.130   7.350
 9371POPC   NC363239  29.965  28.342   5.550
 9371POPC   PO463240  29.874  28.394   5.850
 9371POPC   GL163241  29.934  28.375   6.150
 9371POPC   GL263242  29.758  28.434   6.150
 9371POPC   C1A63243  29.933  28.355   6.450
 9371POPC   D2A63244  29.909  28.338   6.750
 9371POPC   C3A63245  29.909  28.340   7.050
 9371POPC   C4A63246  29.944  28.319   7.350
 9371POPC   C1B63247  29.650  28.504   6.450
 9371POPC   C2B63248  29.727  28.488   6.750
 9371POPC   C3B63249  29.669  28.492   7.050
 9371POPC   C4B63250  29.656  28.426   7.350
 9372POPC   NC363251   4.362  36.883   5.550
 9372POPC   PO463252   4.328  36.939   5.850
 9372POPC   GL163253   4.348  36.920   6.150
 9372POPC   GL263254   4.483  36.892   6.150
 9372POPC   C1A63255   4.320  36.930   6.450
 9372POPC   D2A63256   4.347  36.935   6.750
 9372POPC   C3A63257   4.272  36.866   7.050
 9372POPC   C4A63258   4.328  36.883   7.350
 9372POPC   C1B63259   4.571  36.906   6.450
 9372POPC   C2B63260   4.575  36.957   6.750
 9372POPC   C3B63261   4.534  36.948   7.050
 9372POPC   C4B63262   4.531  36.902   7.350
 9373POPC   NC363263  17.473  36.871   5.550
 9373POPC   PO463264  17.482  36.906   5.850
 9373POPC   GL163265  17.506  36.899   6.150
 9373POPC   GL263266  17.406  36.868   6.150
 9373POPC   C1A63267  17.530  36.878   6.450
 9373POPC   D2A63268  17.535  36.932   6.750
 9373POPC   C3A63269  17.488  36.943   7.050
 9373POPC   C4A63270  17.486  36.936   7.350
 9373POPC   C1B63271  17.281  36.925   6.450
 9373POPC   C2B63272  17.249  36.880   6.750
 9373POPC   C3B63273  17.228  36.908   7.050
 9373POPC   C4B63274  17.247  36.922   7.350
 9374POPC   NC363275   8.217   3.526   5.550
 9374POPC   PO463276   8.228   3.529   5.850
 9374POPC   GL163277   8.226   3.533   6.150
 9374POPC   GL263278   8.053   3.467   6.150
 9374POPC   C1A63279   8.152   3.538   6.450
 9374POPC   D2A63280   8.174   3.550   6.750
 9374POPC   C3A63281   8.245   3.549   7.050
 9374POPC   C4A63282   8.150   3.507   7.350
 9374POPC   C1B63283   7.957   3.498   6.450
 9374POPC   C2B63284   7.914   3.417   6.750
 9374POPC   C3B63285   7.997   3.432   7.050
 9374POPC   C4B63286   7.963   3.472   7.350
 9375POPC   NC363287  20.644  43.082   5.550
 9375POPC   PO463288  20.658  43.132   5.850
 9375POPC   GL163289  20.582  43.096   6.150
 9375POPC   GL263290  20.675  43.134   6.150
 9375POPC   C1A63291  20.585  43.085   6.450
 9375POPC   D2A63292  20.612  43.063   6.750
 9375POPC   C3A63293  20.583  43.113   7.050
 9375POPC   C4A63294  20.605  43.097   7.350
 9375POPC   C1B63295  20.837  43.238   6.450
 9375POPC   C2B63296  20.861  43.238   6.750
 9375POPC   C3B63297  20.830  43.211   7.050
 9375POPC   C4B63298  20.824  43.177   7.350
 9376POPC   NC363299   3.586  29.887   5.550
 9376POPC   PO463300   3.557  29.924   5.850
 9376POPC   GL163301   3.518  29.953   6.150
 9376POPC   GL263302   3.433  29.925   6.150
 9376POPC   C1A63303   3.581  29.929   6.450
 9376POPC   D2A63304   3.527  29.907   6.750
 9376POPC   C3A63305   3.543  29.952   7.050
 9376POPC   C4A63306   3.515  29.939   7.350
 9376POPC   C1B63307   3.324  29.951   6.450
 9376POPC   C2B63308   3.315  29.955   6.750
 9376POPC   C3B63309   3.300  29.898   7.050
 9376POPC   C4B63310   3.287  29.893   7.350
 9377POPC   NC363311  19.094  26.855   5.550
 9377POPC   PO463312  19.099  26.857   5.850
 9377POPC   GL163313  19.105  26.795   6.150
 9377POPC   GL263314  19.210  26.753   6.150
 9377POPC   C1A63315  19.071  26.847   6.450
 9377POPC   D2A63316  19.101  26.784   6.750
 9377POPC   C3A63317  19.067  26.860   7.050
 9377POPC   C4A63318  19.091  26.822   7.350
 9377POPC   C1B63319  19.316  26.769   6.450
 9377POPC   C2B63320  19.330  26.777   6.750
 9377POPC   C3B63321  19.268  26.774   7.050
 9377POPC   C4B63322  19.305  26.755   7.350
 9378POPC   NC363323  40.762  14.426   5.550
 9378POPC   PO463324  40.805  14.373   5.850
 9378POPC   GL163325  40.814  14.376   6.150
 9378POPC   GL263326  40.877  14.544   6.150
 9378POPC   C1A63327  40.756  14.412   6.450
 9378POPC   D2A63328  40.736  14.403   6.750
 9378POPC   C3A63329  40.814  14.437   7.050
 9378POPC   C4A63330  40.742  14.372   7.350
 9378POPC   C1B63331  40.878  14.580   6.450
 9378POPC   C2B63332  40.861  14.638   6.750
 9378POPC   C3B63333  40.864  14.669   7.050
 9378POPC   C4B63334  40.891  14.658   7.350
 9379POPC   NC363335  41.597  40.817   5.550
 9379POPC   PO463336  41.539  40.758   5.850
 9379POPC   GL163337  41.558  40.809   6.150
 9379POPC   GL263338  41.504  40.873   6.150
 9379POPC   C1A63339  41.576  40.766   6.450
 9379POPC   D2A63340  41.584  40.744   6.750
 9379POPC   C3A63341  41.539  40.812   7.050
 9379POPC   C4A63342  41.579  40.798   7.350
 9379POPC   C1B63343  41.490  41.013   6.450
 9379POPC   C2B63344  41.518  41.025   6.750
 9379POPC   C3B63345  41.468  40.985   7.050
 9379POPC   C4B63346  41.496  41.046   7.350
 9380POPC   NC363347  19.048  16.693   5.550
 9380POPC   PO463348  19.046  16.727   5.850
 9380POPC   GL163349  19.050  16.724   6.150
 9380POPC   GL263350  19.082  16.888   6.150
 9380POPC   C1A63351  19.059  16.759   6.450
 9380POPC   D2A63352  19.086  16.774   6.750
 9380POPC   C3A63353  19.021  16.690   7.050
 9380POPC   C4A63354  19.099  16.751   7.350
 9380POPC   C1B63355  19.178  16.915   6.450
 9380POPC   C2B63356  19.140  16.981   6.750
 9380POPC   C3B63357  19.130  16.971   7.050
 9380POPC   C4B63358  19.146  16.912   7.350
 9381POPC   NC363359  40.758   6.685   5.550
 9381POPC   PO463360  40.766   6.642   5.850
 9381POPC   GL163361  40.779   6.618   6.150
 9381POPC   GL263362  40.869   6.626   6.150
 9381POPC   C1A63363  40.826   6.646   6.450
 9381POPC   D2A63364  40.778   6.664   6.750
 9381POPC   C3A63365  40.792   6.670   7.050
 9381POPC   C4A63366  40.764   6.626   7.350
 9381POPC   C1B63367  41.061   6.584   6.450
 9381POPC   C2B63368  41.006   6.629   6.750
 9381POPC   C3B63369  41.020   6.665   7.050
 9381POPC   C4B63370  40.982   6.648   7.350
 9382POPC   NC363371  37.677  12.860   5.550
 9382POPC   PO463372  37.721  12.842   5.850
 9382POPC   GL163373  37.691  12.887   6.150
 9382POPC   GL263374  37.810  12.862   6.150
 9382POPC   C1A63375  37.658  12.845   6.450
 9382POPC   D2A63376  37.643  12.846   6.750
 9382POPC   C3A63377  37.717  12.889   7.050
 9382POPC   C4A63378  37.709  12.814   7.350
 9382POPC   C1B63379  37.861  12.980   6.450
 9382POPC   C2B63380  37.952  12.973   6.750
 9382POPC   C3B63381  37.888  12.918   7.050
 9382POPC   C4B63382  37.860  12.996   7.350
 9383POPC   NC363383   6.598  39.984   5.550
 9383POPC   PO463384   6.641  40.040   5.850
 9383POPC   GL163385   6.683  40.031   6.150
 9383POPC   GL263386   6.614  40.102   6.150
 9383POPC   C1A63387   6.679  39.991   6.450
 9383POPC   D2A63388   6.687  40.016   6.750
 9383POPC   C3A63389   6.602  40.040   7.050
 9383POPC   C4A63390   6.665  40.013   7.350
 9383POPC   C1B63391   6.525  40.221   6.450
 9383POPC   C2B63392   6.478  40.246   6.750
 9383POPC   C3B63393   6.458  40.201   7.050
 9383POPC   C4B63394   6.521  40.169   7.350
 9384POPC   NC363395  24.462  43.913   5.550
 9384POPC   PO463396  24.477  43.856   5.850
 9384POPC   GL163397  24.442  43.886   6.150
 9384POPC   GL263398  24.400  43.997   6.150
 9384POPC   C1A63399  24.485  43.839   6.450
 9384POPC   D2A63400  24.512  43.862   6.750
 9384POPC   C3A63401  24.504  43.869   7.050
 9384POPC   C4A63402  24.524  43.885   7.350
 9384POPC   C1B63403  24.363  44.074   6.450
 9384POPC   C2B63404  24.370  44.131   6.750
 9384POPC   C3B63405  24.454  44.159   7.050
 9384POPC   C4B63406  24.435  44.096   7.350
 9385POPC   NC363407  20.586  14.440   5.550
 9385POPC   PO463408  20.567  14.386   5.850
 9385POPC   GL163409  20.636  14.399   6.150
 9385POPC   GL263410  20.513  14.388   6.150
 9385POPC   C1A63411  20.573  14.394   6.450
 9385POPC   D2A63412  20.659  14.372   6.750
 9385POPC   C3A63413  20.632  14.370   7.050
 9385POPC   C4A63414  20.658  14.422   7.350
 9385POPC   C1B63415  20.411  14.286   6.450
 9385POPC   C2B63416  20.375  14.289   6.750
 9385POPC   C3B63417  20.396  14.338   7.050
 9385POPC   C4B63418  20.399  14.327   7.350
 9386POPC   NC363419  39.230  15.189   5.550
 9386POPC   PO463420  39.240  15.225   5.850
 9386POPC   GL163421  39.205  15.203   6.150
 9386POPC   GL263422  39.337  15.167   6.150
 9386POPC   C1A63423  39.274  15.197   6.450
 9386POPC   D2A63424  39.256  15.135   6.750
 9386POPC   C3A63425  39.235  15.150   7.050
 9386POPC   C4A63426  39.192  15.198   7.350
 9386POPC   C1B63427  39.457  15.268   6.450
 9386POPC   C2B63428  39.425  15.218   6.750
 9386POPC   C3B63429  39.496  15.267   7.050
 9386POPC   C4B63430  39.433  15.258   7.350
 9387POPC   NC363431  25.286  39.253   5.550
 9387POPC   PO463432  25.253  39.247   5.850
 9387POPC   GL163433  25.296  39.194   6.150
 9387POPC   GL263434  25.361  39.281   6.150
 9387POPC   C1A63435  25.263  39.199   6.450
 9387POPC   D2A63436  25.239  39.263   6.750
 9387POPC   C3A63437  25.281  39.224   7.050
 9387POPC   C4A63438  25.313  39.198   7.350
 9387POPC   C1B63439  25.433  39.413   6.450
 9387POPC   C2B63440  25.451  39.411   6.750
 9387POPC   C3B63441  25.411  39.463   7.050
 9387POPC   C4B63442  25.418  39.441   7.350
 9388POPC   NC363443  14.402  41.527   5.550
 9388POPC   PO463444  14.428  41.588   5.850
 9388POPC   GL163445  14.430  41.600   6.150
 9388POPC   GL263446  14.506  41.524   6.150
 9388POPC   C1A63447  14.396  41.512   6.450
 9388POPC   D2A63448  14.356  41.576   6.750
 9388POPC   C3A63449  14.411  41.526   7.050
 9388POPC   C4A63450  14.418  41.604   7.350
 9388POPC   C1B63451  14.674  41.564   6.450
 9388POPC   C2B63452  14.605  41.554   6.750
 9388POPC   C3B63453  14.697  41.541   7.050
 9388POPC   C4B63454  14.612  41.606   7.350
 9389POPC   NC363455  22.148   7.456   5.550
 9389POPC   PO463456  22.124   7.446   5.850
 9389POPC   GL163457  22.206   7.381   6.150
 9389POPC   GL263458  22.024   7.343   6.150
 9389POPC   C1A63459  22.115   7.410   6.450
 9389POPC   D2A63460  22.163   7.422   6.750
 9389POPC   C3A63461  22.154   7.383   7.050
 9389POPC   C4A63462  22.158   7.458   7.350
 9389POPC   C1B63463  22.011   7.287   6.450
 9389POPC   C2B63464  22.023   7.232   6.750
 9389POPC   C3B63465  21.962   7.293   7.050
 9389POPC   C4B63466  22.004   7.241   7.350
 9390POPC   NC363467  39.984   5.109   5.550
 9390POPC   PO463468  40.050   5.055   5.850
 9390POPC   GL163469  40.023   5.057   6.150
 9390POPC   GL263470  40.018   5.258   6.150
 9390POPC   C1A63471  39.969   5.119   6.450
 9390POPC   D2A63472  39.969   5.110   6.750
 9390POPC   C3A63473  40.015   5.091   7.050
 9390POPC   C4A63474  39.968   5.049   7.350
 9390POPC   C1B63475  39.972   5.289   6.450
 9390POPC   C2B63476  39.974   5.386   6.750
 9390POPC   C3B63477  39.994   5.330   7.050
 9390POPC   C4B63478  39.976   5.336   7.350
 9391POPC   NC363479  26.800  18.325   5.550
 9391POPC   PO463480  26.859  18.252   5.850
 9391POPC   GL163481  26.842  18.284   6.150
 9391POPC   GL263482  26.813  18.167   6.150
 9391POPC   C1A63483  26.817  18.311   6.450
 9391POPC   D2A63484  26.825  18.245   6.750
 9391POPC   C3A63485  26.855  18.277   7.050
 9391POPC   C4A63486  26.779  18.288   7.350
 9391POPC   C1B63487  26.689  18.038   6.450
 9391POPC   C2B63488  26.746  18.036   6.750
 9391POPC   C3B63489  26.727  17.997   7.050
 9391POPC   C4B63490  26.715  18.064   7.350
 9392POPC   NC363491   4.348   2.759   5.550
 9392POPC   PO463492   4.278   2.735   5.850
 9392POPC   GL163493   4.327   2.739   6.150
 9392POPC   GL263494   4.274   2.911   6.150
 9392POPC   C1A63495   4.344   2.736   6.450
 9392POPC   D2A63496   4.358   2.731   6.750
 9392POPC   C3A63497   4.274   2.796   7.050
 9392POPC   C4A63498   4.346   2.812   7.350
 9392POPC   C1B63499   4.244   3.045   6.450
 9392POPC   C2B63500   4.257   2.965   6.750
 9392POPC   C3B63501   4.264   2.991   7.050
 9392POPC   C4B63502   4.226   3.008   7.350
 9393POPC   NC363503  37.644  41.516   5.550
 9393POPC   PO463504  37.683  41.555   5.850
 9393POPC   GL163505  37.645  41.530   6.150
 9393POPC   GL263506  37.696  41.464   6.150
 9393POPC   C1A63507  37.725  41.546   6.450
 9393POPC   D2A63508  37.658  41.597   6.750
 9393POPC   C3A63509  37.725  41.553   7.050
 9393POPC   C4A63510  37.684  41.510   7.350
 9393POPC   C1B63511  37.668  41.324   6.450
 9393POPC   C2B63512  37.656  41.318   6.750
 9393POPC   C3B63513  37.667  41.323   7.050
 9393POPC   C4B63514  37.713  41.327   7.350
 9394POPC   NC363515   5.101  23.751   5.550
 9394POPC   PO463516   5.074  23.747   5.850
 9394POPC   GL163517   5.142  23.674   6.150
 9394POPC   GL263518   4.971  23.812   6.150
 9394POPC   C1A63519   5.050  23.760   6.450
 9394POPC   D2A63520   5.077  23.703   6.750
 9394POPC   C3A63521   5.071  23.729   7.050
 9394POPC   C4A63522   5.075  23.740   7.350
 9394POPC   C1B63523   4.878  23.891   6.450
 9394POPC   C2B63524   4.919  23.881   6.750
 9394POPC   C3B63525   4.871  23.827   7.050
 9394POPC   C4B63526   4.857  23.837   7.350
 9395POPC   NC363527  24.532  43.101   5.550
 9395POPC   PO463528  24.507  43.157   5.850
 9395POPC   GL163529  24.534  43.147   6.150
 9395POPC   GL263530  24.323  43.122   6.150
 9395POPC   C1A63531  24.441  43.146   6.450
 9395POPC   D2A63532  24.510  43.063   6.750
 9395POPC   C3A63533  24.501  43.072   7.050
 9395POPC   C4A63534  24.456  43.068   7.350
 9395POPC   C1B63535  24.214  43.090   6.450
 9395POPC   C2B63536  24.277  43.042   6.750
 9395POPC   C3B63537  24.298  43.016   7.050
 9395POPC   C4B63538  24.299  43.007   7.350
 9396POPC   NC363539   7.429  36.874   5.550
 9396POPC   PO463540   7.384  36.878   5.850
 9396POPC   GL163541   7.371  36.902   6.150
 9396POPC   GL263542   7.461  37.004   6.150
 9396POPC   C1A63543   7.379  36.937   6.450
 9396POPC   D2A63544   7.462  36.901   6.750
 9396POPC   C3A63545   7.405  36.934   7.050
 9396POPC   C4A63546   7.378  36.938   7.350
 9396POPC   C1B63547   7.565  37.119   6.450
 9396POPC   C2B63548   7.592  37.071   6.750
 9396POPC   C3B63549   7.565  37.144   7.050
 9396POPC   C4B63550   7.562  37.153   7.350
 9397POPC   NC363551  38.478  26.866   5.550
 9397POPC   PO463552  38.471  26.833   5.850
 9397POPC   GL163553  38.459  26.774   6.150
 9397POPC   GL263554  38.398  26.984   6.150
 9397POPC   C1A63555  38.504  26.854   6.450
 9397POPC   D2A63556  38.463  26.786   6.750
 9397POPC   C3A63557  38.430  26.862   7.050
 9397POPC   C4A63558  38.467  26.850   7.350
 9397POPC   C1B63559  38.425  27.085   6.450
 9397POPC   C2B63560  38.460  27.046   6.750
 9397POPC   C3B63561  38.422  27.038   7.050
 9397POPC   C4B63562  38.477  27.024   7.350
 9398POPC   NC363563  22.906  39.245   5.550
 9398POPC   PO463564  22.927  39.250   5.850
 9398POPC   GL163565  22.954  39.241   6.150
 9398POPC   GL263566  23.038  39.302   6.150
 9398POPC   C1A63567  22.960  39.195   6.450
 9398POPC   D2A63568  22.937  39.211   6.750
 9398POPC   C3A63569  22.925  39.255   7.050
 9398POPC   C4A63570  22.965  39.202   7.350
 9398POPC   C1B63571  23.192  39.366   6.450
 9398POPC   C2B63572  23.179  39.390   6.750
 9398POPC   C3B63573  23.142  39.327   7.050
 9398POPC   C4B63574  23.143  39.347   7.350
 9399POPC   NC363575   7.431   5.045   5.550
 9399POPC   PO463576   7.387   5.137   5.850
 9399POPC   GL163577   7.401   5.138   6.150
 9399POPC   GL263578   7.356   5.020   6.150
 9399POPC   C1A63579   7.419   5.060   6.450
 9399POPC   D2A63580   7.396   5.059   6.750
 9399POPC   C3A63581   7.374   5.046   7.050
 9399POPC   C4A63582   7.443   5.087   7.350
 9399POPC   C1B63583   7.331   4.852   6.450
 9399POPC   C2B63584   7.338   4.837   6.750
 9399POPC   C3B63585   7.358   4.887   7.050
 9399POPC   C4B63586   7.363   4.868   7.350
 9400POPC   NC363587  33.797  19.794   5.550
 9400POPC   PO463588  33.813  19.797   5.850
 9400POPC   GL163589  33.814  19.821   6.150
 9400POPC   GL263590  33.768  19.696   6.150
 9400POPC   C1A63591  33.840  19.816   6.450
 9400POPC   D2A63592  33.815  19.881   6.750
 9400POPC   C3A63593  33.800  19.818   7.050
 9400POPC   C4A63594  33.789  19.820   7.350
 9400POPC   C1B63595  33.707  19.557   6.450
 9400POPC   C2B63596  33.745  19.546   6.750
 9400POPC   C3B63597  33.753  19.578   7.050
 9400POPC   C4B63598  33.765  19.570   7.350
 9401POPC   NC363599   1.999  37.722   5.550
 9401POPC   PO463600   1.968  37.701   5.850
 9401POPC   GL163601   1.983  37.644   6.150
 9401POPC   GL263602   2.082  37.624   6.150
 9401POPC   C1A63603   1.988  37.683   6.450
 9401POPC   D2A63604   2.018  37.715   6.750
 9401POPC   C3A63605   1.970  37.630   7.050
 9401POPC   C4A63606   1.978  37.658   7.350
 9401POPC   C1B63607   2.187  37.558   6.450
 9401POPC   C2B63608   2.228  37.548   6.750
 9401POPC   C3B63609   2.225  37.580   7.050
 9401POPC   C4B63610   2.186  37.586   7.350
 9402POPC   NC363611  31.452   5.898   5.550
 9402POPC   PO463612  31.500   5.851   5.850
 9402POPC   GL163613  31.428   5.904   6.150
 9402POPC   GL263614  31.632   5.832   6.150
 9402POPC   C1A63615  31.470   5.875   6.450
 9402POPC   D2A63616  31.458   5.912   6.750
 9402POPC   C3A63617  31.467   5.873   7.050
 9402POPC   C4A63618  31.461   5.894   7.350
 9402POPC   C1B63619  31.728   5.748   6.450
 9402POPC   C2B63620  31.670   5.787   6.750
 9402POPC   C3B63621  31.711   5.829   7.050
 9402POPC   C4B63622  31.670   5.842   7.350
 9403POPC   NC363623   5.140   2.751   5.550
 9403POPC   PO463624   5.123   2.796   5.850
 9403POPC   GL163625   5.107   2.733   6.150
 9403POPC   GL263626   5.174   2.645   6.150
 9403POPC   C1A63627   5.140   2.750   6.450
 9403POPC   D2A63628   5.089   2.782   6.750
 9403POPC   C3A63629   5.082   2.794   7.050
 9403POPC   C4A63630   5.102   2.728   7.350
 9403POPC   C1B63631   5.227   2.620   6.450
 9403POPC   C2B63632   5.214   2.625   6.750
 9403POPC   C3B63633   5.246   2.593   7.050
 9403POPC   C4B63634   5.298   2.539   7.350
 9404POPC   NC363635  13.640  29.180   5.550
 9404POPC   PO463636  13.602  29.148   5.850
 9404POPC   GL163637  13.670  29.164   6.150
 9404POPC   GL263638  13.629  29.237   6.150
 9404POPC   C1A63639  13.664  29.146   6.450
 9404POPC   D2A63640  13.604  29.167   6.750
 9404POPC   C3A63641  13.640  29.140   7.050
 9404POPC   C4A63642  13.614  29.098   7.350
 9404POPC   C1B63643  13.578  29.404   6.450
 9404POPC   C2B63644  13.545  29.401   6.750
 9404POPC   C3B63645  13.555  29.345   7.050
 9404POPC   C4B63646  13.582  29.354   7.350
 9405POPC   NC363647   1.205   3.498   5.550
 9405POPC   PO463648   1.246   3.583   5.850
 9405POPC   GL163649   1.219   3.510   6.150
 9405POPC   GL263650   1.277   3.598   6.150
 9405POPC   C1A63651   1.218   3.503   6.450
 9405POPC   D2A63652   1.194   3.540   6.750
 9405POPC   C3A63653   1.257   3.546   7.050
 9405POPC   C4A63654   1.212   3.508   7.350
 9405POPC   C1B63655   1.380   3.657   6.450
 9405POPC   C2B63656   1.435   3.675   6.750
 9405POPC   C3B63657   1.400   3.748   7.050
 9405POPC   C4B63658   1.454   3.723   7.350
 9406POPC   NC363659   3.552  36.875   5.550
 9406POPC   PO463660   3.516  36.882   5.850
 9406POPC   GL163661   3.505  36.921   6.150
 9406POPC   GL263662   3.426  36.906   6.150
 9406POPC   C1A63663   3.572  36.931   6.450
 9406POPC   D2A63664   3.590  36.857   6.750
 9406POPC   C3A63665   3.515  36.884   7.050
 9406POPC   C4A63666   3.573  36.910   7.350
 9406POPC   C1B63667   3.311  36.919   6.450
 9406POPC   C2B63668   3.325  36.867   6.750
 9406POPC   C3B63669   3.311  36.835   7.050
 9406POPC   C4B63670   3.283  36.921   7.350
 9407POPC   NC363671  22.912   2.804   5.550
 9407POPC   PO463672  22.985   2.727   5.850
 9407POPC   GL163673  22.982   2.745   6.150
 9407POPC   GL263674  23.002   2.672   6.150
 9407POPC   C1A63675  22.964   2.765   6.450
 9407POPC   D2A63676  22.901   2.774   6.750
 9407POPC   C3A63677  22.986   2.807   7.050
 9407POPC   C4A63678  22.957   2.795   7.350
 9407POPC   C1B63679  23.020   2.507   6.450
 9407POPC   C2B63680  22.945   2.524   6.750
 9407POPC   C3B63681  22.959   2.556   7.050
 9407POPC   C4B63682  22.939   2.505   7.350
 9408POPC   NC363683  26.834   5.124   5.550
 9408POPC   PO463684  26.772   5.093   5.850
 9408POPC   GL163685  26.831   5.051   6.150
 9408POPC   GL263686  26.800   4.940   6.150
 9408POPC   C1A63687  26.794   5.055   6.450
 9408POPC   D2A63688  26.866   5.081   6.750
 9408POPC   C3A63689  26.849   5.077   7.050
 9408POPC   C4A63690  26.807   5.095   7.350
 9408POPC   C1B63691  26.734   4.807   6.450
 9408POPC   C2B63692  26.753   4.829   6.750
 9408POPC   C3B63693  26.742   4.900   7.050
 9408POPC   C4B63694  26.758   4.870   7.350
 9409POPC   NC363695  10.487   8.950   5.550
 9409POPC   PO463696  10.537   8.955   5.850
 9409POPC   GL163697  10.552   8.968   6.150
 9409POPC   GL263698  10.439   9.066   6.150
 9409POPC   C1A63699  10.514   8.986   6.450
 9409POPC   D2A63700  10.518   8.997   6.750
 9409POPC   C3A63701  10.549   8.932   7.050
 9409POPC   C4A63702  10.506   8.962   7.350
 9409POPC   C1B63703  10.315   9.125   6.450
 9409POPC   C2B63704  10.357   9.175   6.750
 9409POPC   C3B63705  10.350   9.117   7.050
 9409POPC   C4B63706  10.404   9.201   7.350
 9410POPC   NC363707  35.321  19.794   5.550
 9410POPC   PO463708  35.397  19.824   5.850
 9410POPC   GL163709  35.315  19.868   6.150
 9410POPC   GL263710  35.404  19.764   6.150
 9410POPC   C1A63711  35.370  19.853   6.450
 9410POPC   D2A63712  35.318  19.844   6.750
 9410POPC   C3A63713  35.347  19.834   7.050
 9410POPC   C4A63714  35.383  19.848   7.350
 9410POPC   C1B63715  35.526  19.647   6.450
 9410POPC   C2B63716  35.505  19.668   6.750
 9410POPC   C3B63717  35.516  19.655   7.050
 9410POPC   C4B63718  35.517  19.605   7.350
 9411POPC   NC363719   5.051  15.971   5.550
 9411POPC   PO463720   5.083  15.917   5.850
 9411POPC   GL163721   5.140  16.001   6.150
 9411POPC   GL263722   5.161  15.866   6.150
 9411POPC   C1A63723   5.078  15.990   6.450
 9411POPC   D2A63724   5.095  16.004   6.750
 9411POPC   C3A63725   5.135  15.995   7.050
 9411POPC   C4A63726   5.093  15.967   7.350
 9411POPC   C1B63727   5.319  15.890   6.450
 9411POPC   C2B63728   5.337  15.831   6.750
 9411POPC   C3B63729   5.306  15.902   7.050
 9411POPC   C4B63730   5.363  15.903   7.350
 9412POPC   NC363731  15.928  28.323   5.550
 9412POPC   PO463732  15.954  28.401   5.850
 9412POPC   GL163733  15.981  28.413   6.150
 9412POPC   GL263734  15.862  28.306   6.150
 9412POPC   C1A63735  15.992  28.405   6.450
 9412POPC   D2A63736  15.923  28.345   6.750
 9412POPC   C3A63737  15.984  28.351   7.050
 9412POPC   C4A63738  15.953  28.328   7.350
 9412POPC   C1B63739  15.674  28.332   6.450
 9412POPC   C2B63740  15.717  28.329   6.750
 9412POPC   C3B63741  15.699  28.296   7.050
 9412POPC   C4B63742  15.739  28.331   7.350
 9413POPC   NC363743   8.227  39.261   5.550
 9413POPC   PO463744   8.220  39.257   5.850
 9413POPC   GL163745   8.184  39.199   6.150
 9413POPC   GL263746   8.298  39.269   6.150
 9413POPC   C1A63747   8.164  39.242   6.450
 9413POPC   D2A63748   8.207  39.201   6.750
 9413POPC   C3A63749   8.175  39.211   7.050
 9413POPC   C4A63750   8.241  39.268   7.350
 9413POPC   C1B63751   8.403  39.219   6.450
 9413POPC   C2B63752   8.476  39.253   6.750
 9413POPC   C3B63753   8.423  39.279   7.050
 9413POPC   C4B63754   8.413  39.239   7.350
 9414POPC   NC363755  23.728  26.019   5.550
 9414POPC   PO463756  23.756  26.086   5.850
 9414POPC   GL163757  23.699  26.017   6.150
 9414POPC   GL263758  23.855  26.150   6.150
 9414POPC   C1A63759  23.687  26.033   6.450
 9414POPC   D2A63760  23.758  26.002   6.750
 9414POPC   C3A63761  23.680  26.028   7.050
 9414POPC   C4A63762  23.685  26.036   7.350
 9414POPC   C1B63763  23.974  26.148   6.450
 9414POPC   C2B63764  23.926  26.194   6.750
 9414POPC   C3B63765  23.886  26.207   7.050
 9414POPC   C4B63766  23.884  26.135   7.350
 9415POPC   NC363767  15.914  43.933   5.550
 9415POPC   PO463768  15.943  43.896   5.850
 9415POPC   GL163769  15.950  43.922   6.150
 9415POPC   GL263770  15.901  43.791   6.150
 9415POPC   C1A63771  15.992  43.913   6.450
 9415POPC   D2A63772  15.934  43.862   6.750
 9415POPC   C3A63773  15.993  43.934   7.050
 9415POPC   C4A63774  16.002  43.932   7.350
 9415POPC   C1B63775  15.912  43.592   6.450
 9415POPC   C2B63776  15.981  43.677   6.750
 9415POPC   C3B63777  15.905  43.671   7.050
 9415POPC   C4B63778  15.928  43.648   7.350
 9416POPC   NC363779   3.556  34.620   5.550
 9416POPC   PO463780   3.567  34.586   5.850
 9416POPC   GL163781   3.547  34.614   6.150
 9416POPC   GL263782   3.572  34.498   6.150
 9416POPC   C1A63783   3.573  34.574   6.450
 9416POPC   D2A63784   3.546  34.580   6.750
 9416POPC   C3A63785   3.532  34.622   7.050
 9416POPC   C4A63786   3.524  34.594   7.350
 9416POPC   C1B63787   3.713  34.384   6.450
 9416POPC   C2B63788   3.683  34.357   6.750
 9416POPC   C3B63789   3.672  34.385   7.050
 9416POPC   C4B63790   3.645  34.406   7.350
 9417POPC   NC363791  44.673  24.491   5.550
 9417POPC   PO463792  44.688  24.464   5.850
 9417POPC   GL163793  44.697  24.447   6.150
 9417POPC   GL263794  44.753  24.574   6.150
 9417POPC   C1A63795  44.703  24.531   6.450
 9417POPC   D2A63796  44.702  24.504   6.750
 9417POPC   C3A63797  44.694  24.465   7.050
 9417POPC   C4A63798  44.642  24.475   7.350
 9417POPC   C1B63799  44.907  24.601   6.450
 9417POPC   C2B63800  44.902  24.572   6.750
 9417POPC   C3B63801  44.856  24.596   7.050
 9417POPC   C4B63802  44.883  24.592   7.350
 9418POPC   NC363803   2.798  39.220   5.550
 9418POPC   PO463804   2.735  39.197   5.850
 9418POPC   GL163805   2.773  39.246   6.150
 9418POPC   GL263806   2.844  39.133   6.150
 9418POPC   C1A63807   2.764  39.213   6.450
 9418POPC   D2A63808   2.766  39.182   6.750
 9418POPC   C3A63809   2.751  39.279   7.050
 9418POPC   C4A63810   2.750  39.245   7.350
 9418POPC   C1B63811   2.883  39.053   6.450
 9418POPC   C2B63812   2.872  39.004   6.750
 9418POPC   C3B63813   2.888  38.978   7.050
 9418POPC   C4B63814   2.866  39.035   7.350
 9419POPC   NC363815  34.619  39.235   5.550
 9419POPC   PO463816  34.527  39.231   5.850
 9419POPC   GL163817  34.559  39.242   6.150
 9419POPC   GL263818  34.470  39.272   6.150
 9419POPC   C1A63819  34.579  39.190   6.450
 9419POPC   D2A63820  34.594  39.266   6.750
 9419POPC   C3A63821  34.587  39.188   7.050
 9419POPC   C4A63822  34.590  39.255   7.350
 9419POPC   C1B63823  34.372  39.240   6.450
 9419POPC   C2B63824  34.291  39.213   6.750
 9419POPC   C3B63825  34.295  39.278   7.050
 9419POPC   C4B63826  34.351  39.249   7.350
 9420POPC   NC363827   8.168  37.685   5.550
 9420POPC   PO463828   8.183  37.673   5.850
 9420POPC   GL163829   8.166  37.655   6.150
 9420POPC   GL263830   8.077  37.729   6.150
 9420POPC   C1A63831   8.228  37.688   6.450
 9420POPC   D2A63832   8.160  37.724   6.750
 9420POPC   C3A63833   8.194  37.714   7.050
 9420POPC   C4A63834   8.238  37.658   7.350
 9420POPC   C1B63835   8.000  37.824   6.450
 9420POPC   C2B63836   7.949  37.752   6.750
 9420POPC   C3B63837   8.016  37.809   7.050
 9420POPC   C4B63838   7.971  37.788   7.350
 9421POPC   NC363839   1.993   4.285   5.550
 9421POPC   PO463840   1.954   4.310   5.850
 9421POPC   GL163841   1.950   4.316   6.150
 9421POPC   GL263842   1.990   4.432   6.150
 9421POPC   C1A63843   2.008   4.350   6.450
 9421POPC   D2A63844   1.987   4.359   6.750
 9421POPC   C3A63845   1.992   4.293   7.050
 9421POPC   C4A63846   2.003   4.342   7.350
 9421POPC   C1B63847   1.898   4.549   6.450
 9421POPC   C2B63848   1.962   4.595   6.750
 9421POPC   C3B63849   1.921   4.569   7.050
 9421POPC   C4B63850   1.903   4.595   7.350
 9422POPC   NC363851  11.302  28.411   5.550
 9422POPC   PO463852  11.270  28.356   5.850
 9422POPC   GL163853  11.286  28.369   6.150
 9422POPC   GL263854  11.256  28.422   6.150
 9422POPC   C1A63855  11.314  28.319   6.450
 9422POPC   D2A63856  11.308  28.360   6.750
 9422POPC   C3A63857  11.317  28.398   7.050
 9422POPC   C4A63858  11.335  28.392   7.350
 9422POPC   C1B63859  11.173  28.537   6.450
 9422POPC   C2B63860  11.124  28.579   6.750
 9422POPC   C3B63861  11.174  28.589   7.050
 9422POPC   C4B63862  11.156  28.526   7.350
 9423POPC   NC363863  33.008  22.201   5.550
 9423POPC   PO463864  33.034  22.130   5.850
 9423POPC   GL163865  33.063  22.191   6.150
 9423POPC   GL263866  33.087  22.299   6.150
 9423POPC   C1A63867  33.024  22.114   6.450
 9423POPC   D2A63868  33.028  22.157   6.750
 9423POPC   C3A63869  33.044  22.178   7.050
 9423POPC   C4A63870  32.998  22.178   7.350
 9423POPC   C1B63871  33.104  22.446   6.450
 9423POPC   C2B63872  33.050  22.400   6.750
 9423POPC   C3B63873  33.042  22.407   7.050
 9423POPC   C4B63874  33.079  22.362   7.350
 9424POPC   NC363875  19.079   2.786   5.550
 9424POPC   PO463876  19.018   2.791   5.850
 9424POPC   GL163877  19.105   2.742   6.150
 9424POPC   GL263878  19.115   2.631   6.150
 9424POPC   C1A63879  19.071   2.799   6.450
 9424POPC   D2A63880  19.011   2.756   6.750
 9424POPC   C3A63881  19.071   2.741   7.050
 9424POPC   C4A63882  19.028   2.766   7.350
 9424POPC   C1B63883  19.138   2.483   6.450
 9424POPC   C2B63884  19.160   2.480   6.750
 9424POPC   C3B63885  19.093   2.559   7.050
 9424POPC   C4B63886  19.113   2.523   7.350
 9425POPC   NC363887  37.695   1.167   5.550
 9425POPC   PO463888  37.653   1.212   5.850
 9425POPC   GL163889  37.718   1.199   6.150
 9425POPC   GL263890  37.840   1.259   6.150
 9425POPC   C1A63891  37.726   1.257   6.450
 9425POPC   D2A63892  37.682   1.183   6.750
 9425POPC   C3A63893  37.669   1.233   7.050
 9425POPC   C4A63894  37.645   1.241   7.350
 9425POPC   C1B63895  37.889   1.304   6.450
 9425POPC   C2B63896  37.905   1.324   6.750
 9425POPC   C3B63897  37.920   1.333   7.050
 9425POPC   C4B63898  37.943   1.319   7.350
 9426POPC   NC363899  26.031  16.714   5.550
 9426POPC   PO463900  26.080  16.735   5.850
 9426POPC   GL163901  26.018  16.761   6.150
 9426POPC   GL263902  25.985  16.626   6.150
 9426POPC   C1A63903  26.056  16.744   6.450
 9426POPC   D2A63904  26.010  16.770   6.750
 9426POPC   C3A63905  26.002  16.724   7.050
 9426POPC   C4A63906  26.046  16.711   7.350
 9426POPC   C1B63907  25.936  16.467   6.450
 9426POPC   C2B63908  25.952  16.520   6.750
 9426POPC   C3B63909  25.882  16.478   7.050
 9426POPC   C4B63910  25.940  16.503   7.350
 9427POPC   NC363911  41.517  25.248   5.550
 9427POPC   PO463912  41.526  25.250   5.850
 9427POPC   GL163913  41.542  25.281   6.150
 9427POPC   GL263914  41.654  25.335   6.150
 9427POPC   C1A63915  41.539  25.279   6.450
 9427POPC   D2A63916  41.521  25.303   6.750
 9427POPC   C3A63917  41.516  25.224   7.050
 9427POPC   C4A63918  41.523  25.267   7.350
 9427POPC   C1B63919  41.751  25.450   6.450
 9427POPC   C2B63920  41.802  25.384   6.750
 9427POPC   C3B63921  41.727  25.422   7.050
 9427POPC   C4B63922  41.723  25.387   7.350
 9428POPC   NC363923  25.217   7.399   5.550
 9428POPC   PO463924  25.292   7.390   5.850
 9428POPC   GL163925  25.292   7.418   6.150
 9428POPC   GL263926  25.193   7.366   6.150
 9428POPC   C1A63927  25.283   7.428   6.450
 9428POPC   D2A63928  25.245   7.390   6.750
 9428POPC   C3A63929  25.217   7.412   7.050
 9428POPC   C4A63930  25.230   7.389   7.350
 9428POPC   C1B63931  25.068   7.306   6.450
 9428POPC   C2B63932  24.993   7.348   6.750
 9428POPC   C3B63933  25.064   7.339   7.050
 9428POPC   C4B63934  25.013   7.349   7.350
 9429POPC   NC363935   1.233  22.897   5.550
 9429POPC   PO463936   1.172  22.944   5.850
 9429POPC   GL163937   1.176  22.928   6.150
 9429POPC   GL263938   1.353  22.929   6.150
 9429POPC   C1A63939   1.234  22.953   6.450
 9429POPC   D2A63940   1.206  22.987   6.750
 9429POPC   C3A63941   1.185  22.906   7.050
 9429POPC   C4A63942   1.169  22.948   7.350
 9429POPC   C1B63943   1.461  22.881   6.450
 9429POPC   C2B63944   1.422  22.957   6.750
 9429POPC   C3B63945   1.488  22.949   7.050
 9429POPC   C4B63946   1.466  22.870   7.350
 9430POPC   NC363947  20.587   3.492   5.550
 9430POPC   PO463948  20.579   3.545   5.850
 9430POPC   GL163949  20.599   3.517   6.150
 9430POPC   GL263950  20.483   3.618   6.150
 9430POPC   C1A63951  20.603   3.548   6.450
 9430POPC   D2A63952  20.624   3.496   6.750
 9430POPC   C3A63953  20.587   3.587   7.050
 9430POPC   C4A63954  20.631   3.554   7.350
 9430POPC   C1B63955  20.348   3.622   6.450
 9430POPC   C2B63956  20.365   3.594   6.750
 9430POPC   C3B63957  20.368   3.673   7.050
 9430POPC   C4B63958  20.407   3.661   7.350
 9431POPC   NC363959   2.033  19.811   5.550
 9431POPC   PO463960   2.037  19.817   5.850
 9431POPC   GL163961   1.962  19.794   6.150
 9431POPC   GL263962   2.104  19.829   6.150
 9431POPC   C1A63963   1.944  19.853   6.450
 9431POPC   D2A63964   1.941  19.881   6.750
 9431POPC   C3A63965   1.995  19.789   7.050
 9431POPC   C4A63966   2.001  19.832   7.350
 9431POPC   C1B63967   2.198  19.849   6.450
 9431POPC   C2B63968   2.197  19.874   6.750
 9431POPC   C3B63969   2.195  19.917   7.050
 9431POPC   C4B63970   2.236  19.857   7.350
 9432POPC   NC363971  21.363  13.582   5.550
 9432POPC   PO463972  21.379  13.600   5.850
 9432POPC   GL163973  21.390  13.617   6.150
 9432POPC   GL263974  21.463  13.677   6.150
 9432POPC   C1A63975  21.420  13.656   6.450
 9432POPC   D2A63976  21.415  13.587   6.750
 9432POPC   C3A63977  21.417  13.609   7.050
 9432POPC   C4A63978  21.416  13.677   7.350
 9432POPC   C1B63979  21.658  13.671   6.450
 9432POPC   C2B63980  21.602  13.658   6.750
 9432POPC   C3B63981  21.649  13.712   7.050
 9432POPC   C4B63982  21.673  13.731   7.350
 9433POPC   NC363983  36.881  39.237   5.550
 9433POPC   PO463984  36.876  39.263   5.850
 9433POPC   GL163985  36.950  39.193   6.150
 9433POPC   GL263986  37.033  39.322   6.150
 9433POPC   C1A63987  36.862  39.203   6.450
 9433POPC   D2A63988  36.903  39.276   6.750
 9433POPC   C3A63989  36.862  39.219   7.050
 9433POPC   C4A63990  36.897  39.236   7.350
 9433POPC   C1B63991  37.085  39.464   6.450
 9433POPC   C2B63992  37.117  39.381   6.750
 9433POPC   C3B63993  37.080  39.434   7.050
 9433POPC   C4B63994  37.103  39.446   7.350
 9434POPC   NC363995  37.658   8.197   5.550
 9434POPC   PO463996  37.684   8.209   5.850
 9434POPC   GL163997  37.696   8.217   6.150
 9434POPC   GL263998  37.588   8.158   6.150
 9434POPC   C1A63999  37.719   8.197   6.450
 9434POPC   D2A64000  37.640   8.150   6.750
 9434POPC   C3A64001  37.631   8.246   7.050
 9434POPC   C4A64002  37.705   8.153   7.350
 9434POPC   C1B64003  37.480   8.032   6.450
 9434POPC   C2B64004  37.453   8.008   6.750
 9434POPC   C3B64005  37.450   8.052   7.050
 9434POPC   C4B64006  37.506   8.055   7.350
 9435POPC   NC364007  22.166  36.894   5.550
 9435POPC   PO464008  22.113  36.946   5.850
 9435POPC   GL164009  22.113  36.864   6.150
 9435POPC   GL264010  22.012  36.949   6.150
 9435POPC   C1A64011  22.184  36.893   6.450
 9435POPC   D2A64012  22.179  36.929   6.750
 9435POPC   C3A64013  22.136  36.924   7.050
 9435POPC   C4A64014  22.203  36.928   7.350
 9435POPC   C1B64015  21.962  36.905   6.450
 9435POPC   C2B64016  21.894  36.914   6.750
 9435POPC   C3B64017  21.913  36.916   7.050
 9435POPC   C4B64018  21.940  36.903   7.350
 9436POPC   NC364019  28.399   1.187   5.550
 9436POPC   PO464020  28.383   1.211   5.850
 9436POPC   GL164021  28.353   1.176   6.150
 9436POPC   GL264022  28.423   1.172   6.150
 9436POPC   C1A64023  28.389   1.202   6.450
 9436POPC   D2A64024  28.406   1.226   6.750
 9436POPC   C3A64025  28.381   1.188   7.050
 9436POPC   C4A64026  28.411   1.238   7.350
 9436POPC   C1B64027  28.533   1.076   6.450
 9436POPC   C2B64028  28.492   1.078   6.750
 9436POPC   C3B64029  28.517   1.063   7.050
 9436POPC   C4B64030  28.589   0.987   7.350
 9437POPC   NC364031  17.503  22.115   5.550
 9437POPC   PO464032  17.522  22.159   5.850
 9437POPC   GL164033  17.460  22.120   6.150
 9437POPC   GL264034  17.376  22.220   6.150
 9437POPC   C1A64035  17.481  22.159   6.450
 9437POPC   D2A64036  17.470  22.192   6.750
 9437POPC   C3A64037  17.458  22.140   7.050
 9437POPC   C4A64038  17.458  22.135   7.350
 9437POPC   C1B64039  17.245  22.231   6.450
 9437POPC   C2B64040  17.304  22.139   6.750
 9437POPC   C3B64041  17.218  22.197   7.050
 9437POPC   C4B64042  17.221  22.220   7.350
 9438POPC   NC364043  43.845  20.596   5.550
 9438POPC   PO464044  43.849  20.602   5.850
 9438POPC   GL164045  43.926  20.636   6.150
 9438POPC   GL264046  43.983  20.702   6.150
 9438POPC   C1A64047  43.908  20.607   6.450
 9438POPC   D2A64048  43.923  20.641   6.750
 9438POPC   C3A64049  43.838  20.660   7.050
 9438POPC   C4A64050  43.854  20.631   7.350
 9438POPC   C1B64051  44.068  20.756   6.450
 9438POPC   C2B64052  44.064  20.812   6.750
 9438POPC   C3B64053  44.054  20.765   7.050
 9438POPC   C4B64054  44.095  20.743   7.350
 9439POPC   NC364055  35.332  24.440   5.550
 9439POPC   PO464056  35.365  24.514   5.850
 9439POPC   GL164057  35.386  24.529   6.150
 9439POPC   GL264058  35.463  24.502   6.150
 9439POPC   C1A64059  35.382  24.469   6.450
 9439POPC   D2A64060  35.372  24.487   6.750
 9439POPC   C3A64061  35.361  24.494   7.050
 9439POPC   C4A64062  35.349  24.520   7.350
 9439POPC   C1B64063  35.560  24.583   6.450
 9439POPC   C2B64064  35.556  24.612   6.750
 9439POPC   C3B64065  35.539  24.598   7.050
 9439POPC   C4B64066  35.609  24.608   7.350
 9440POPC   NC364067   0.428  33.028   5.550
 9440POPC   PO464068   0.406  33.060   5.850
 9440POPC   GL164069   0.423  33.047   6.150
 9440POPC   GL264070   0.380  33.111   6.150
 9440POPC   C1A64071   0.395  33.054   6.450
 9440POPC   D2A64072   0.448  33.032   6.750
 9440POPC   C3A64073   0.445  32.990   7.050
 9440POPC   C4A64074   0.398  32.990   7.350
 9440POPC   C1B64075   0.364  33.306   6.450
 9440POPC   C2B64076   0.411  33.316   6.750
 9440POPC   C3B64077   0.392  33.282   7.050
 9440POPC   C4B64078   0.328  33.262   7.350
 9441POPC   NC364079  22.162  41.541   5.550
 9441POPC   PO464080  22.147  41.553   5.850
 9441POPC   GL164081  22.204  41.589   6.150
 9441POPC   GL264082  22.116  41.664   6.150
 9441POPC   C1A64083  22.156  41.529   6.450
 9441POPC   D2A64084  22.143  41.522   6.750
 9441POPC   C3A64085  22.152  41.548   7.050
 9441POPC   C4A64086  22.209  41.513   7.350
 9441POPC   C1B64087  22.085  41.836   6.450
 9441POPC   C2B64088  22.083  41.746   6.750
 9441POPC   C3B64089  22.063  41.752   7.050
 9441POPC   C4B64090  22.068  41.763   7.350
 9442POPC   NC364091   2.739  16.710   5.550
 9442POPC   PO464092   2.801  16.731   5.850
 9442POPC   GL164093   2.745  16.722   6.150
 9442POPC   GL264094   2.883  16.866   6.150
 9442POPC   C1A64095   2.738  16.731   6.450
 9442POPC   D2A64096   2.755  16.754   6.750
 9442POPC   C3A64097   2.746  16.699   7.050
 9442POPC   C4A64098   2.747  16.728   7.350
 9442POPC   C1B64099   2.895  16.971   6.450
 9442POPC   C2B64100   2.892  16.894   6.750
 9442POPC   C3B64101   2.881  16.957   7.050
 9442POPC   C4B64102   2.946  16.941   7.350
 9443POPC   NC364103  37.699   0.480   5.550
 9443POPC   PO464104  37.713   0.471   5.850
 9443POPC   GL164105  37.677   0.442   6.150
 9443POPC   GL264106  37.573   0.567   6.150
 9443POPC   C1A64107  37.672   0.455   6.450
 9443POPC   D2A64108  37.635   0.486   6.750
 9443POPC   C3A64109  37.647   0.392   7.050
 9443POPC   C4A64110  37.729   0.432   7.350
 9443POPC   C1B64111  37.544   0.632   6.450
 9443POPC   C2B64112  37.609   0.676   6.750
 9443POPC   C3B64113  37.576   0.630   7.050
 9443POPC   C4B64114  37.573   0.641   7.350
 9444POPC   NC364115  27.607  10.482   5.550
 9444POPC   PO464116  27.573  10.499   5.850
 9444POPC   GL164117  27.622  10.502   6.150
 9444POPC   GL264118  27.728  10.439   6.150
 9444POPC   C1A64119  27.548  10.531   6.450
 9444POPC   D2A64120  27.575  10.551   6.750
 9444POPC   C3A64121  27.563  10.554   7.050
 9444POPC   C4A64122  27.611  10.499   7.350
 9444POPC   C1B64123  27.812  10.459   6.450
 9444POPC   C2B64124  27.809  10.457   6.750
 9444POPC   C3B64125  27.875  10.464   7.050
 9444POPC   C4B64126  27.816  10.474   7.350
 9445POPC   NC364127  10.498  39.216   5.550
 9445POPC   PO464128  10.485  39.242   5.850
 9445POPC   GL164129  10.541  39.215   6.150
 9445POPC   GL264130  10.610  39.228   6.150
 9445POPC   C1A64131  10.497  39.183   6.450
 9445POPC   D2A64132  10.528  39.195   6.750
 9445POPC   C3A64133  10.556  39.274   7.050
 9445POPC   C4A64134  10.520  39.219   7.350
 9445POPC   C1B64135  10.792  39.338   6.450
 9445POPC   C2B64136  10.760  39.270   6.750
 9445POPC   C3B64137  10.766  39.325   7.050
 9445POPC   C4B64138  10.741  39.276   7.350
 9446POPC   NC364139  12.809  29.940   5.550
 9446POPC   PO464140  12.804  29.902   5.850
 9446POPC   GL164141  12.851  29.897   6.150
 9446POPC   GL264142  12.774  29.901   6.150
 9446POPC   C1A64143  12.848  29.912   6.450
 9446POPC   D2A64144  12.846  29.923   6.750
 9446POPC   C3A64145  12.836  29.947   7.050
 9446POPC   C4A64146  12.838  29.887   7.350
 9446POPC   C1B64147  12.641  29.925   6.450
 9446POPC   C2B64148  12.618  29.878   6.750
 9446POPC   C3B64149  12.597  29.865   7.050
 9446POPC   C4B64150  12.616  29.941   7.350
 9447POPC   NC364151  43.871  35.390   5.550
 9447POPC   PO464152  43.856  35.357   5.850
 9447POPC   GL164153  43.914  35.342   6.150
 9447POPC   GL264154  43.965  35.293   6.150
 9447POPC   C1A64155  43.863  35.360   6.450
 9447POPC   D2A64156  43.882  35.306   6.750
 9447POPC   C3A64157  43.856  35.333   7.050
 9447POPC   C4A64158  43.853  35.339   7.350
 9447POPC   C1B64159  44.104  35.303   6.450
 9447POPC   C2B64160  44.087  35.368   6.750
 9447POPC   C3B64161  44.089  35.318   7.050
 9447POPC   C4B64162  44.164  35.279   7.350
 9448POPC   NC364163  21.386   7.442   5.550
 9448POPC   PO464164  21.420   7.468   5.850
 9448POPC   GL164165  21.435   7.434   6.150
 9448POPC   GL264166  21.264   7.329   6.150
 9448POPC   C1A64167  21.398   7.410   6.450
 9448POPC   D2A64168  21.340   7.398   6.750
 9448POPC   C3A64169  21.383   7.376   7.050
 9448POPC   C4A64170  21.418   7.432   7.350
 9448POPC   C1B64171  21.125   7.271   6.450
 9448POPC   C2B64172  21.192   7.284   6.750
 9448POPC   C3B64173  21.161   7.342   7.050
 9448POPC   C4B64174  21.180   7.326   7.350
 9449POPC   NC364175   9.788  39.227   5.550
 9449POPC   PO464176   9.735  39.251   5.850
 9449POPC   GL164177   9.724  39.249   6.150
 9449POPC   GL264178   9.827  39.214   6.150
 9449POPC   C1A64179   9.752  39.227   6.450
 9449POPC   D2A64180   9.793  39.265   6.750
 9449POPC   C3A64181   9.785  39.246   7.050
 9449POPC   C4A64182   9.709  39.275   7.350
 9449POPC   C1B64183   9.971  39.128   6.450
 9449POPC   C2B64184   9.993  39.168   6.750
 9449POPC   C3B64185  10.000  39.129   7.050
 9449POPC   C4B64186  10.032  39.100   7.350
 9450POPC   NC364187   5.105  13.668   5.550
 9450POPC   PO464188   5.082  13.607   5.850
 9450POPC   GL164189   5.050  13.653   6.150
 9450POPC   GL264190   5.001  13.744   6.150
 9450POPC   C1A64191   5.099  13.646   6.450
 9450POPC   D2A64192   5.056  13.610   6.750
 9450POPC   C3A64193   5.126  13.618   7.050
 9450POPC   C4A64194   5.045  13.598   7.350
 9450POPC   C1B64195   5.021  13.840   6.450
 9450POPC   C2B64196   5.006  13.828   6.750
 9450POPC   C3B64197   5.019  13.818   7.050
 9450POPC   C4B64198   4.961  13.854   7.350
 9451POPC   NC364199  21.377  41.513   5.550
 9451POPC   PO464200  21.434  41.597   5.850
 9451POPC   GL164201  21.406  41.526   6.150
 9451POPC   GL264202  21.284  41.513   6.150
 9451POPC   C1A64203  21.379  41.597   6.450
 9451POPC   D2A64204  21.350  41.587   6.750
 9451POPC   C3A64205  21.343  41.595   7.050
 9451POPC   C4A64206  21.379  41.520   7.350
 9451POPC   C1B64207  21.185  41.428   6.450
 9451POPC   C2B64208  21.173  41.451   6.750
 9451POPC   C3B64209  21.163  41.402   7.050
 9451POPC   C4B64210  21.140  41.477   7.350
 9452POPC   NC364211  28.407  29.897   5.550
 9452POPC   PO464212  28.379  29.879   5.850
 9452POPC   GL164213  28.379  29.936   6.150
 9452POPC   GL264214  28.465  29.911   6.150
 9452POPC   C1A64215  28.348  29.959   6.450
 9452POPC   D2A64216  28.352  29.898   6.750
 9452POPC   C3A64217  28.391  29.920   7.050
 9452POPC   C4A64218  28.401  29.893   7.350
 9452POPC   C1B64219  28.600  29.851   6.450
 9452POPC   C2B64220  28.550  29.851   6.750
 9452POPC   C3B64221  28.622  29.789   7.050
 9452POPC   C4B64222  28.571  29.851   7.350
 9453POPC   NC364223   9.734  22.896   5.550
 9453POPC   PO464224   9.728  22.919   5.850
 9453POPC   GL164225   9.766  22.947   6.150
 9453POPC   GL264226   9.853  22.900   6.150
 9453POPC   C1A64227   9.716  22.927   6.450
 9453POPC   D2A64228   9.713  22.926   6.750
 9453POPC   C3A64229   9.708  22.983   7.050
 9453POPC   C4A64230   9.752  22.892   7.350
 9453POPC   C1B64231   9.959  22.889   6.450
 9453POPC   C2B64232   9.954  22.862   6.750
 9453POPC   C3B64233  10.017  22.831   7.050
 9453POPC   C4B64234   9.945  22.890   7.350
 9454POPC   NC364235  28.360  11.251   5.550
 9454POPC   PO464236  28.361  11.324   5.850
 9454POPC   GL164237  28.324  11.299   6.150
 9454POPC   GL264238  28.449  11.342   6.150
 9454POPC   C1A64239  28.366  11.310   6.450
 9454POPC   D2A64240  28.373  11.293   6.750
 9454POPC   C3A64241  28.337  11.257   7.050
 9454POPC   C4A64242  28.344  11.315   7.350
 9454POPC   C1B64243  28.594  11.356   6.450
 9454POPC   C2B64244  28.608  11.341   6.750
 9454POPC   C3B64245  28.574  11.343   7.050
 9454POPC   C4B64246  28.607  11.306   7.350
 9455POPC   NC364247  40.753  37.719   5.550
 9455POPC   PO464248  40.799  37.726   5.850
 9455POPC   GL164249  40.830  37.657   6.150
 9455POPC   GL264250  40.676  37.608   6.150
 9455POPC   C1A64251  40.829  37.648   6.450
 9455POPC   D2A64252  40.826  37.673   6.750
 9455POPC   C3A64253  40.818  37.665   7.050
 9455POPC   C4A64254  40.797  37.648   7.350
 9455POPC   C1B64255  40.593  37.575   6.450
 9455POPC   C2B64256  40.519  37.573   6.750
 9455POPC   C3B64257  40.536  37.603   7.050
 9455POPC   C4B64258  40.538  37.573   7.350
 9456POPC   NC364259  31.494  20.651   5.550
 9456POPC   PO464260  31.449  20.637   5.850
 9456POPC   GL164261  31.429  20.618   6.150
 9456POPC   GL264262  31.467  20.737   6.150
 9456POPC   C1A64263  31.473  20.605   6.450
 9456POPC   D2A64264  31.460  20.645   6.750
 9456POPC   C3A64265  31.470  20.575   7.050
 9456POPC   C4A64266  31.440  20.631   7.350
 9456POPC   C1B64267  31.434  20.825   6.450
 9456POPC   C2B64268  31.370  20.887   6.750
 9456POPC   C3B64269  31.447  20.892   7.050
 9456POPC   C4B64270  31.378  20.819   7.350
 9457POPC   NC364271  44.655  28.419   5.550
 9457POPC   PO464272  44.702  28.380   5.850
 9457POPC   GL164273  44.686  28.327   6.150
 9457POPC   GL264274  44.774  28.297   6.150
 9457POPC   C1A64275  44.634  28.364   6.450
 9457POPC   D2A64276  44.655  28.355   6.750
 9457POPC   C3A64277  44.666  28.386   7.050
 9457POPC   C4A64278  44.676  28.376   7.350
 9457POPC   C1B64279  44.882  28.197   6.450
 9457POPC   C2B64280  44.872  28.212   6.750
 9457POPC   C3B64281  44.853  28.185   7.050
 9457POPC   C4B64282  44.871  28.197   7.350
 9458POPC   NC364283  25.277  28.390   5.550
 9458POPC   PO464284  25.298  28.377   5.850
 9458POPC   GL164285  25.284  28.405   6.150
 9458POPC   GL264286  25.169  28.327   6.150
 9458POPC   C1A64287  25.265  28.356   6.450
 9458POPC   D2A64288  25.232  28.332   6.750
 9458POPC   C3A64289  25.295  28.379   7.050
 9458POPC   C4A64290  25.229  28.327   7.350
 9458POPC   C1B64291  25.098  28.232   6.450
 9458POPC   C2B64292  25.106  28.267   6.750
 9458POPC   C3B64293  25.098  28.203   7.050
 9458POPC   C4B64294  25.104  28.174   7.350
 9459POPC   NC364295  39.215   3.586   5.550
 9459POPC   PO464296  39.197   3.518   5.850
 9459POPC   GL164297  39.246   3.588   6.150
 9459POPC   GL264298  39.237   3.621   6.150
 9459POPC   C1A64299  39.280   3.587   6.450
 9459POPC   D2A64300  39.210   3.527   6.750
 9459POPC   C3A64301  39.276   3.536   7.050
 9459POPC   C4A64302  39.224   3.560   7.350
 9459POPC   C1B64303  39.256   3.779   6.450
 9459POPC   C2B64304  39.193   3.756   6.750
 9459POPC   C3B64305  39.290   3.811   7.050
 9459POPC   C4B64306  39.214   3.772   7.350
 9460POPC   NC364307  19.785   0.444   5.550
 9460POPC   PO464308  19.860   0.426   5.850
 9460POPC   GL164309  19.847   0.485   6.150
 9460POPC   GL264310  19.813   0.363   6.150
 9460POPC   C1A64311  19.884   0.398   6.450
 9460POPC   D2A64312  19.878   0.429   6.750
 9460POPC   C3A64313  19.847   0.407   7.050
 9460POPC   C4A64314  19.816   0.389   7.350
 9460POPC   C1B64315  19.917   0.216   6.450
 9460POPC   C2B64316  19.872   0.220   6.750
 9460POPC   C3B64317  19.841   0.157   7.050
 9460POPC   C4B64318  19.856   0.169   7.350
 9461POPC   NC364319  42.295  40.004   5.550
 9461POPC   PO464320  42.355  40.012   5.850
 9461POPC   GL164321  42.351  40.014   6.150
 9461POPC   GL264322  42.396  39.878   6.150
 9461POPC   C1A64323  42.330  40.004   6.450
 9461POPC   D2A64324  42.341  39.976   6.750
 9461POPC   C3A64325  42.306  40.048   7.050
 9461POPC   C4A64326  42.350  40.043   7.350
 9461POPC   C1B64327  42.375  39.820   6.450
 9461POPC   C2B64328  42.463  39.815   6.750
 9461POPC   C3B64329  42.466  39.799   7.050
 9461POPC   C4B64330  42.398  39.777   7.350
 9462POPC   NC364331   0.472   7.453   5.550
 9462POPC   PO464332   0.478   7.446   5.850
 9462POPC   GL164333   0.424   7.451   6.150
 9462POPC   GL264334   0.299   7.446   6.150
 9462POPC   C1A64335   0.459   7.455   6.450
 9462POPC   D2A64336   0.469   7.438   6.750
 9462POPC   C3A64337   0.397   7.373   7.050
 9462POPC   C4A64338   0.453   7.446   7.350
 9462POPC   C1B64339   0.213   7.538   6.450
 9462POPC   C2B64340   0.238   7.462   6.750
 9462POPC   C3B64341   0.214   7.476   7.050
 9462POPC   C4B64342   0.246   7.514   7.350
 9463POPC   NC364343  29.178  15.199   5.550
 9463POPC   PO464344  29.152  15.193   5.850
 9463POPC   GL164345  29.166  15.219   6.150
 9463POPC   GL264346  29.221  15.326   6.150
 9463POPC   C1A64347  29.101  15.165   6.450
 9463POPC   D2A64348  29.193  15.138   6.750
 9463POPC   C3A64349  29.147  15.201   7.050
 9463POPC   C4A64350  29.187  15.149   7.350
 9463POPC   C1B64351  29.249  15.375   6.450
 9463POPC   C2B64352  29.272  15.416   6.750
 9463POPC   C3B64353  29.236  15.434   7.050
 9463POPC   C4B64354  29.251  15.437   7.350
 9464POPC   NC364355  32.292  34.603   5.550
 9464POPC   PO464356  32.266  34.536   5.850
 9464POPC   GL164357  32.290  34.564   6.150
 9464POPC   GL264358  32.308  34.704   6.150
 9464POPC   C1A64359  32.280  34.547   6.450
 9464POPC   D2A64360  32.264  34.614   6.750
 9464POPC   C3A64361  32.245  34.579   7.050
 9464POPC   C4A64362  32.251  34.576   7.350
 9464POPC   C1B64363  32.273  34.803   6.450
 9464POPC   C2B64364  32.294  34.869   6.750
 9464POPC   C3B64365  32.271  34.784   7.050
 9464POPC   C4B64366  32.302  34.800   7.350
 9465POPC   NC364367  30.735  44.708   5.550
 9465POPC   PO464368  30.666  44.690   5.850
 9465POPC   GL164369  30.683  44.698   6.150
 9465POPC   GL264370  30.556  44.630   6.150
 9465POPC   C1A64371  30.697  44.621   6.450
 9465POPC   D2A64372  30.744  44.635   6.750
 9465POPC   C3A64373  30.713  44.651   7.050
 9465POPC   C4A64374  30.660  44.614   7.350
 9465POPC   C1B64375  30.480  44.676   6.450
 9465POPC   C2B64376  30.457  44.686   6.750
 9465POPC   C3B64377  30.494  44.697   7.050
 9465POPC   C4B64378  30.420  44.671   7.350
 9466POPC   NC364379   3.569   5.917   5.550
 9466POPC   PO464380   3.539   5.907   5.850
 9466POPC   GL164381   3.563   5.899   6.150
 9466POPC   GL264382   3.419   5.933   6.150
 9466POPC   C1A64383   3.504   5.843   6.450
 9466POPC   D2A64384   3.586   5.865   6.750
 9466POPC   C3A64385   3.519   5.870   7.050
 9466POPC   C4A64386   3.562   5.837   7.350
 9466POPC   C1B64387   3.284   6.027   6.450
 9466POPC   C2B64388   3.272   5.947   6.750
 9466POPC   C3B64389   3.321   5.973   7.050
 9466POPC   C4B64390   3.298   5.998   7.350
 9467POPC   NC364391   1.178  42.339   5.550
 9467POPC   PO464392   1.232  42.286   5.850
 9467POPC   GL164393   1.254  42.304   6.150
 9467POPC   GL264394   1.120  42.289   6.150
 9467POPC   C1A64395   1.238  42.380   6.450
 9467POPC   D2A64396   1.216  42.325   6.750
 9467POPC   C3A64397   1.234  42.327   7.050
 9467POPC   C4A64398   1.192  42.298   7.350
 9467POPC   C1B64399   0.952  42.338   6.450
 9467POPC   C2B64400   0.944  42.327   6.750
 9467POPC   C3B64401   0.937  42.303   7.050
 9467POPC   C4B64402   1.007  42.351   7.350
 9468POPC   NC364403  17.554   5.072   5.550
 9468POPC   PO464404  17.543   5.143   5.850
 9468POPC   GL164405  17.516   5.116   6.150
 9468POPC   GL264406  17.437   5.034   6.150
 9468POPC   C1A64407  17.469   5.080   6.450
 9468POPC   D2A64408  17.529   5.141   6.750
 9468POPC   C3A64409  17.467   5.057   7.050
 9468POPC   C4A64410  17.484   5.132   7.350
 9468POPC   C1B64411  17.232   4.982   6.450
 9468POPC   C2B64412  17.303   5.031   6.750
 9468POPC   C3B64413  17.255   5.013   7.050
 9468POPC   C4B64414  17.270   5.041   7.350
 9469POPC   NC364415  31.498  27.635   5.550
 9469POPC   PO464416  31.483  27.623   5.850
 9469POPC   GL164417  31.468  27.630   6.150
 9469POPC   GL264418  31.518  27.728   6.150
 9469POPC   C1A64419  31.442  27.632   6.450
 9469POPC   D2A64420  31.514  27.595   6.750
 9469POPC   C3A64421  31.509  27.569   7.050
 9469POPC   C4A64422  31.424  27.594   7.350
 9469POPC   C1B64423  31.595  27.792   6.450
 9469POPC   C2B64424  31.522  27.788   6.750
 9469POPC   C3B64425  31.552  27.783   7.050
 9469POPC   C4B64426  31.551  27.825   7.350
 9470POPC   NC364427  33.758  33.789   5.550
 9470POPC   PO464428  33.841  33.795   5.850
 9470POPC   GL164429  33.753  33.756   6.150
 9470POPC   GL264430  33.896  33.834   6.150
 9470POPC   C1A64431  33.791  33.795   6.450
 9470POPC   D2A64432  33.780  33.760   6.750
 9470POPC   C3A64433  33.817  33.784   7.050
 9470POPC   C4A64434  33.833  33.840   7.350
 9470POPC   C1B64435  34.003  33.952   6.450
 9470POPC   C2B64436  34.036  33.893   6.750
 9470POPC   C3B64437  34.016  33.944   7.050
 9470POPC   C4B64438  34.063  33.973   7.350
 9471POPC   NC364439  27.618   8.948   5.550
 9471POPC   PO464440  27.634   8.938   5.850
 9471POPC   GL164441  27.613   8.934   6.150
 9471POPC   GL264442  27.747   8.893   6.150
 9471POPC   C1A64443  27.623   8.944   6.450
 9471POPC   D2A64444  27.631   8.950   6.750
 9471POPC   C3A64445  27.615   9.006   7.050
 9471POPC   C4A64446  27.623   8.965   7.350
 9471POPC   C1B64447  27.778   8.805   6.450
 9471POPC   C2B64448  27.819   8.807   6.750
 9471POPC   C3B64449  27.816   8.836   7.050
 9471POPC   C4B64450  27.851   8.869   7.350
 9472POPC   NC364451  35.362  41.600   5.550
 9472POPC   PO464452  35.374  41.512   5.850
 9472POPC   GL164453  35.391  41.560   6.150
 9472POPC   GL264454  35.501  41.526   6.150
 9472POPC   C1A64455  35.394  41.557   6.450
 9472POPC   D2A64456  35.370  41.595   6.750
 9472POPC   C3A64457  35.327  41.559   7.050
 9472POPC   C4A64458  35.360  41.608   7.350
 9472POPC   C1B64459  35.565  41.440   6.450
 9472POPC   C2B64460  35.562  41.504   6.750
 9472POPC   C3B64461  35.539  41.415   7.050
 9472POPC   C4B64462  35.591  41.441   7.350
 9473POPC   NC364463  15.980  43.086   5.550
 9473POPC   PO464464  15.947  43.135   5.850
 9473POPC   GL164465  15.919  43.142   6.150
 9473POPC   GL264466  15.866  43.145   6.150
 9473POPC   C1A64467  15.996  43.098   6.450
 9473POPC   D2A64468  15.952  43.150   6.750
 9473POPC   C3A64469  15.928  43.079   7.050
 9473POPC   C4A64470  15.948  43.102   7.350
 9473POPC   C1B64471  15.723  43.087   6.450
 9473POPC   C2B64472  15.658  43.062   6.750
 9473POPC   C3B64473  15.730  43.090   7.050
 9473POPC   C4B64474  15.734  43.128   7.350
 9474POPC   NC364475  13.656   2.019   5.550
 9474POPC   PO464476  13.662   2.012   5.850
 9474POPC   GL164477  13.649   1.981   6.150
 9474POPC   GL264478  13.685   2.145   6.150
 9474POPC   C1A64479  13.651   2.023   6.450
 9474POPC   D2A64480  13.593   1.954   6.750
 9474POPC   C3A64481  13.654   2.010   7.050
 9474POPC   C4A64482  13.645   2.018   7.350
 9474POPC   C1B64483  13.619   2.280   6.450
 9474POPC   C2B64484  13.608   2.193   6.750
 9474POPC   C3B64485  13.684   2.229   7.050
 9474POPC   C4B64486  13.613   2.203   7.350
 9475POPC   NC364487   5.917  44.693   5.550
 9475POPC   PO464488   5.854  44.688   5.850
 9475POPC   GL164489   5.864  44.689   6.150
 9475POPC   GL264490   5.751  44.713   6.150
 9475POPC   C1A64491   5.875  44.640   6.450
 9475POPC   D2A64492   5.821  44.646   6.750
 9475POPC   C3A64493   5.852  44.625   7.050
 9475POPC   C4A64494   5.915  44.697   7.350
 9475POPC   C1B64495   5.658  44.809   6.450
 9475POPC   C2B64496   5.686  44.859   6.750
 9475POPC   C3B64497   5.753  44.814   7.050
 9475POPC   C4B64498   5.717  44.820   7.350
 9476POPC   NC364499  35.325  28.371   5.550
 9476POPC   PO464500  35.319  28.385   5.850
 9476POPC   GL164501  35.399  28.326   6.150
 9476POPC   GL264502  35.197  28.319   6.150
 9476POPC   C1A64503  35.333  28.372   6.450
 9476POPC   D2A64504  35.308  28.348   6.750
 9476POPC   C3A64505  35.356  28.391   7.050
 9476POPC   C4A64506  35.362  28.409   7.350
 9476POPC   C1B64507  35.068  28.327   6.450
 9476POPC   C2B64508  35.099  28.383   6.750
 9476POPC   C3B64509  35.056  28.330   7.050
 9476POPC   C4B64510  35.100  28.324   7.350
 9477POPC   NC364511  26.827  32.207   5.550
 9477POPC   PO464512  26.814  32.226   5.850
 9477POPC   GL164513  26.825  32.213   6.150
 9477POPC   GL264514  26.690  32.347   6.150
 9477POPC   C1A64515  26.771  32.289   6.450
 9477POPC   D2A64516  26.866  32.239   6.750
 9477POPC   C3A64517  26.848  32.205   7.050
 9477POPC   C4A64518  26.810  32.243   7.350
 9477POPC   C1B64519  26.619  32.362   6.450
 9477POPC   C2B64520  26.644  32.400   6.750
 9477POPC   C3B64521  26.548  32.320   7.050
 9477POPC   C4B64522  26.574  32.355   7.350
 9478POPC   NC364523  24.528  29.125   5.550
 9478POPC   PO464524  24.462  29.129   5.850
 9478POPC   GL164525  24.532  29.169   6.150
 9478POPC   GL264526  24.552  29.220   6.150
 9478POPC   C1A64527  24.501  29.112   6.450
 9478POPC   D2A64528  24.488  29.118   6.750
 9478POPC   C3A64529  24.499  29.126   7.050
 9478POPC   C4A64530  24.474  29.171   7.350
 9478POPC   C1B64531  24.701  29.281   6.450
 9478POPC   C2B64532  24.724  29.261   6.750
 9478POPC   C3B64533  24.737  29.278   7.050
 9478POPC   C4B64534  24.714  29.291   7.350
 9479POPC   NC364535   9.741   5.917   5.550
 9479POPC   PO464536   9.753   5.907   5.850
 9479POPC   GL164537   9.707   5.824   6.150
 9479POPC   GL264538   9.893   5.935   6.150
 9479POPC   C1A64539   9.726   5.859   6.450
 9479POPC   D2A64540   9.788   5.853   6.750
 9479POPC   C3A64541   9.761   5.918   7.050
 9479POPC   C4A64542   9.758   5.916   7.350
 9479POPC   C1B64543   9.957   6.013   6.450
 9479POPC   C2B64544   9.916   6.050   6.750
 9479POPC   C3B64545   9.969   6.039   7.050
 9479POPC   C4B64546   9.973   5.994   7.350
 9480POPC   NC364547  18.248  25.998   5.550
 9480POPC   PO464548  18.330  26.049   5.850
 9480POPC   GL164549  18.303  26.024   6.150
 9480POPC   GL264550  18.193  25.969   6.150
 9480POPC   C1A64551  18.332  26.090   6.450
 9480POPC   D2A64552  18.241  26.042   6.750
 9480POPC   C3A64553  18.236  26.006   7.050
 9480POPC   C4A64554  18.262  26.051   7.350
 9480POPC   C1B64555  18.158  25.761   6.450
 9480POPC   C2B64556  18.168  25.789   6.750
 9480POPC   C3B64557  18.235  25.822   7.050
 9480POPC   C4B64558  18.218  25.774   7.350
 9481POPC   NC364559  15.206  44.658   5.550
 9481POPC   PO464560  15.208  44.671   5.850
 9481POPC   GL164561  15.206  44.674   6.150
 9481POPC   GL264562  15.018  44.666   6.150
 9481POPC   C1A64563  15.182  44.632   6.450
 9481POPC   D2A64564  15.211  44.690   6.750
 9481POPC   C3A64565  15.132  44.614   7.050
 9481POPC   C4A64566  15.212  44.644   7.350
 9481POPC   C1B64567  14.905  44.706   6.450
 9481POPC   C2B64568  14.935  44.719   6.750
 9481POPC   C3B64569  14.913  44.686   7.050
 9481POPC   C4B64570  14.944  44.724   7.350
 9482POPC   NC364571  36.175  26.073   5.550
 9482POPC   PO464572  36.082  25.998   5.850
 9482POPC   GL164573  36.100  26.061   6.150
 9482POPC   GL264574  36.189  25.928   6.150
 9482POPC   C1A64575  36.142  26.044   6.450
 9482POPC   D2A64576  36.084  26.044   6.750
 9482POPC   C3A64577  36.171  26.013   7.050
 9482POPC   C4A64578  36.133  26.033   7.350
 9482POPC   C1B64579  36.160  25.751   6.450
 9482POPC   C2B64580  36.137  25.764   6.750
 9482POPC   C3B64581  36.201  25.837   7.050
 9482POPC   C4B64582  36.121  25.815   7.350
 9483POPC   NC364583   8.977   5.839   5.550
 9483POPC   PO464584   9.013   5.841   5.850
 9483POPC   GL164585   9.008   5.914   6.150
 9483POPC   GL264586   9.081   5.914   6.150
 9483POPC   C1A64587   8.943   5.874   6.450
 9483POPC   D2A64588   8.947   5.889   6.750
 9483POPC   C3A64589   8.928   5.913   7.050
 9483POPC   C4A64590   8.985   5.823   7.350
 9483POPC   C1B64591   9.219   5.920   6.450
 9483POPC   C2B64592   9.241   5.912   6.750
 9483POPC   C3B64593   9.180   5.910   7.050
 9483POPC   C4B64594   9.194   5.931   7.350
 9484POPC   NC364595   5.858  28.332   5.550
 9484POPC   PO464596   5.857  28.328   5.850
 9484POPC   GL164597   5.828  28.377   6.150
 9484POPC   GL264598   5.962  28.513   6.150
 9484POPC   C1A64599   5.899  28.401   6.450
 9484POPC   D2A64600   5.882  28.337   6.750
 9484POPC   C3A64601   5.852  28.391   7.050
 9484POPC   C4A64602   5.841  28.337   7.350
 9484POPC   C1B64603   6.007  28.608   6.450
 9484POPC   C2B64604   5.999  28.569   6.750
 9484POPC   C3B64605   6.032  28.560   7.050
 9484POPC   C4B64606   6.035  28.545   7.350
 9485POPC   NC364607  36.127   5.065   5.550
 9485POPC   PO464608  36.134   5.045   5.850
 9485POPC   GL164609  36.147   5.083   6.150
 9485POPC   GL264610  36.154   4.990   6.150
 9485POPC   C1A64611  36.147   5.080   6.450
 9485POPC   D2A64612  36.095   5.094   6.750
 9485POPC   C3A64613  36.114   5.093   7.050
 9485POPC   C4A64614  36.157   5.051   7.350
 9485POPC   C1B64615  36.273   4.881   6.450
 9485POPC   C2B64616  36.268   4.837   6.750
 9485POPC   C3B64617  36.205   4.885   7.050
 9485POPC   C4B64618  36.237   4.886   7.350
 9486POPC   NC364619  28.411  30.684   5.550
 9486POPC   PO464620  28.337  30.694   5.850
 9486POPC   GL164621  28.343  30.742   6.150
 9486POPC   GL264622  28.392  30.823   6.150
 9486POPC   C1A64623  28.400  30.656   6.450
 9486POPC   D2A64624  28.343  30.674   6.750
 9486POPC   C3A64625  28.325  30.744   7.050
 9486POPC   C4A64626  28.325  30.704   7.350
 9486POPC   C1B64627  28.516  30.971   6.450
 9486POPC   C2B64628  28.479  30.879   6.750
 9486POPC   C3B64629  28.443  30.969   7.050
 9486POPC   C4B64630  28.425  30.887   7.350
 9487POPC   NC364631  42.339   5.865   5.550
 9487POPC   PO464632  42.312   5.858   5.850
 9487POPC   GL164633  42.357   5.889   6.150
 9487POPC   GL264634  42.188   5.931   6.150
 9487POPC   C1A64635  42.358   5.916   6.450
 9487POPC   D2A64636  42.330   5.846   6.750
 9487POPC   C3A64637  42.369   5.833   7.050
 9487POPC   C4A64638  42.313   5.919   7.350
 9487POPC   C1B64639  42.109   5.958   6.450
 9487POPC   C2B64640  42.059   5.891   6.750
 9487POPC   C3B64641  42.075   5.940   7.050
 9487POPC   C4B64642  42.071   5.946   7.350
 9488POPC   NC364643  21.372  34.576   5.550
 9488POPC   PO464644  21.346  34.608   5.850
 9488POPC   GL164645  21.363  34.598   6.150
 9488POPC   GL264646  21.221  34.577   6.150
 9488POPC   C1A64647  21.347  34.537   6.450
 9488POPC   D2A64648  21.365  34.580   6.750
 9488POPC   C3A64649  21.354  34.605   7.050
 9488POPC   C4A64650  21.425  34.539   7.350
 9488POPC   C1B64651  21.182  34.624   6.450
 9488POPC   C2B64652  21.148  34.694   6.750
 9488POPC   C3B64653  21.167  34.699   7.050
 9488POPC   C4B64654  21.112  34.705   7.350
 9489POPC   NC364655  29.178  42.293   5.550
 9489POPC   PO464656  29.144  42.376   5.850
 9489POPC   GL164657  29.141  42.302   6.150
 9489POPC   GL264658  29.023  42.361   6.150
 9489POPC   C1A64659  29.171  42.350   6.450
 9489POPC   D2A64660  29.136  42.349   6.750
 9489POPC   C3A64661  29.162  42.346   7.050
 9489POPC   C4A64662  29.180  42.345   7.350
 9489POPC   C1B64663  28.951  42.448   6.450
 9489POPC   C2B64664  28.897  42.472   6.750
 9489POPC   C3B64665  28.937  42.497   7.050
 9489POPC   C4B64666  28.931  42.476   7.350
 9490POPC   NC364667  30.661  43.849   5.550
 9490POPC   PO464668  30.710  43.900   5.850
 9490POPC   GL164669  30.717  43.879   6.150
 9490POPC   GL264670  30.674  43.809   6.150
 9490POPC   C1A64671  30.697  43.886   6.450
 9490POPC   D2A64672  30.677  43.876   6.750
 9490POPC   C3A64673  30.702  43.846   7.050
 9490POPC   C4A64674  30.743  43.871   7.350
 9490POPC   C1B64675  30.708  43.597   6.450
 9490POPC   C2B64676  30.745  43.637   6.750
 9490POPC   C3B64677  30.785  43.661   7.050
 9490POPC   C4B64678  30.743  43.675   7.350
 9491POPC   NC364679  38.408  44.613   5.550
 9491POPC   PO464680  38.438  44.624   5.850
 9491POPC   GL164681  38.411  44.665   6.150
 9491POPC   GL264682  38.460  44.836   6.150
 9491POPC   C1A64683  38.453  44.641   6.450
 9491POPC   D2A64684  38.497  44.663   6.750
 9491POPC   C3A64685  38.449  44.669   7.050
 9491POPC   C4A64686  38.451  44.636   7.350
 9491POPC   C1B64687  38.446  44.889   6.450
 9491POPC   C2B64688  38.404  44.913   6.750
 9491POPC   C3B64689  38.427  44.863   7.050
 9491POPC   C4B64690  38.468  44.914   7.350
 9492POPC   NC364691  31.477   8.236   5.550
 9492POPC   PO464692  31.491   8.155   5.850
 9492POPC   GL164693  31.428   8.180   6.150
 9492POPC   GL264694  31.586   8.305   6.150
 9492POPC   C1A64695  31.515   8.221   6.450
 9492POPC   D2A64696  31.431   8.169   6.750
 9492POPC   C3A64697  31.500   8.221   7.050
 9492POPC   C4A64698  31.448   8.213   7.350
 9492POPC   C1B64699  31.654   8.348   6.450
 9492POPC   C2B64700  31.618   8.322   6.750
 9492POPC   C3B64701  31.705   8.346   7.050
 9492POPC   C4B64702  31.707   8.307   7.350
 9493POPC   NC364703  27.593  33.018   5.550
 9493POPC   PO464704  27.612  33.048   5.850
 9493POPC   GL164705  27.585  33.050   6.150
 9493POPC   GL264706  27.476  33.087   6.150
 9493POPC   C1A64707  27.559  33.045   6.450
 9493POPC   D2A64708  27.594  33.026   6.750
 9493POPC   C3A64709  27.629  33.071   7.050
 9493POPC   C4A64710  27.571  33.062   7.350
 9493POPC   C1B64711  27.435  33.165   6.450
 9493POPC   C2B64712  27.442  33.257   6.750
 9493POPC   C3B64713  27.444  33.260   7.050
 9493POPC   C4B64714  27.460  33.242   7.350
 9494POPC   NC364715  11.273   4.319   5.550
 9494POPC   PO464716  11.331   4.359   5.850
 9494POPC   GL164717  11.348   4.365   6.150
 9494POPC   GL264718  11.222   4.288   6.150
 9494POPC   C1A64719  11.320   4.280   6.450
 9494POPC   D2A64720  11.294   4.270   6.750
 9494POPC   C3A64721  11.344   4.294   7.050
 9494POPC   C4A64722  11.278   4.287   7.350
 9494POPC   C1B64723  11.059   4.121   6.450
 9494POPC   C2B64724  11.062   4.188   6.750
 9494POPC   C3B64725  11.075   4.133   7.050
 9494POPC   C4B64726  11.137   4.126   7.350
 9495POPC   NC364727  13.582  13.633   5.550
 9495POPC   PO464728  13.645  13.632   5.850
 9495POPC   GL164729  13.620  13.581   6.150
 9495POPC   GL264730  13.559  13.598   6.150
 9495POPC   C1A64731  13.641  13.647   6.450
 9495POPC   D2A64732  13.649  13.587   6.750
 9495POPC   C3A64733  13.592  13.621   7.050
 9495POPC   C4A64734  13.584  13.629   7.350
 9495POPC   C1B64735  13.458  13.518   6.450
 9495POPC   C2B64736  13.455  13.488   6.750
 9495POPC   C3B64737  13.451  13.460   7.050
 9495POPC   C4B64738  13.407  13.460   7.350
 9496POPC   NC364739  12.818   1.216   5.550
 9496POPC   PO464740  12.853   1.181   5.850
 9496POPC   GL164741  12.832   1.216   6.150
 9496POPC   GL264742  12.758   1.301   6.150
 9496POPC   C1A64743  12.849   1.242   6.450
 9496POPC   D2A64744  12.899   1.207   6.750
 9496POPC   C3A64745  12.859   1.240   7.050
 9496POPC   C4A64746  12.866   1.207   7.350
 9496POPC   C1B64747  12.681   1.405   6.450
 9496POPC   C2B64748  12.639   1.397   6.750
 9496POPC   C3B64749  12.693   1.386   7.050
 9496POPC   C4B64750  12.655   1.363   7.350
 9497POPC   NC364751   7.399  28.366   5.550
 9497POPC   PO464752   7.431  28.344   5.850
 9497POPC   GL164753   7.395  28.376   6.150
 9497POPC   GL264754   7.535  28.382   6.150
 9497POPC   C1A64755   7.461  28.345   6.450
 9497POPC   D2A64756   7.408  28.373   6.750
 9497POPC   C3A64757   7.445  28.333   7.050
 9497POPC   C4A64758   7.377  28.412   7.350
 9497POPC   C1B64759   7.707  28.383   6.450
 9497POPC   C2B64760   7.646  28.303   6.750
 9497POPC   C3B64761   7.689  28.327   7.050
 9497POPC   C4B64762   7.656  28.348   7.350
 9498POPC   NC364763   1.197   9.730   5.550
 9498POPC   PO464764   1.246   9.750   5.850
 9498POPC   GL164765   1.207   9.746   6.150
 9498POPC   GL264766   1.352   9.791   6.150
 9498POPC   C1A64767   1.231   9.698   6.450
 9498POPC   D2A64768   1.195   9.782   6.750
 9498POPC   C3A64769   1.260   9.782   7.050
 9498POPC   C4A64770   1.205   9.746   7.350
 9498POPC   C1B64771   1.419   9.934   6.450
 9498POPC   C2B64772   1.389   9.880   6.750
 9498POPC   C3B64773   1.401   9.917   7.050
 9498POPC   C4B64774   1.431   9.889   7.350
 9499POPC   NC364775  37.646   5.047   5.550
 9499POPC   PO464776  37.687   5.086   5.850
 9499POPC   GL164777  37.729   5.046   6.150
 9499POPC   GL264778  37.715   5.201   6.150
 9499POPC   C1A64779  37.684   5.060   6.450
 9499POPC   D2A64780  37.701   5.088   6.750
 9499POPC   C3A64781  37.700   5.111   7.050
 9499POPC   C4A64782  37.647   5.118   7.350
 9499POPC   C1B64783  37.737   5.391   6.450
 9499POPC   C2B64784  37.715   5.313   6.750
 9499POPC   C3B64785  37.661   5.326   7.050
 9499POPC   C4B64786  37.696   5.375   7.350
 9500POPC   NC364787  34.529   5.142   5.550
 9500POPC   PO464788  34.547   5.111   5.850
 9500POPC   GL164789  34.577   5.044   6.150
 9500POPC   GL264790  34.478   5.206   6.150
 9500POPC   C1A64791  34.554   5.092   6.450
 9500POPC   D2A64792  34.594   5.089   6.750
 9500POPC   C3A64793  34.617   5.062   7.050
 9500POPC   C4A64794  34.532   5.097   7.350
 9500POPC   C1B64795  34.372   5.234   6.450
 9500POPC   C2B64796  34.418   5.256   6.750
 9500POPC   C3B64797  34.367   5.240   7.050
 9500POPC   C4B64798  34.358   5.265   7.350
 9501POPC   NC364799  38.444   3.554   5.550
 9501POPC   PO464800  38.412   3.498   5.850
 9501POPC   GL164801  38.434   3.545   6.150
 9501POPC   GL264802  38.518   3.467   6.150
 9501POPC   C1A64803  38.475   3.524   6.450
 9501POPC   D2A64804  38.439   3.537   6.750
 9501POPC   C3A64805  38.497   3.542   7.050
 9501POPC   C4A64806  38.409   3.501   7.350
 9501POPC   C1B64807  38.626   3.403   6.450
 9501POPC   C2B64808  38.627   3.366   6.750
 9501POPC   C3B64809  38.626   3.368   7.050
 9501POPC   C4B64810  38.689   3.350   7.350
 9502POPC   NC364811  39.222  43.159   5.550
 9502POPC   PO464812  39.233  43.127   5.850
 9502POPC   GL164813  39.183  43.072   6.150
 9502POPC   GL264814  39.153  43.116   6.150
 9502POPC   C1A64815  39.264  43.104   6.450
 9502POPC   D2A64816  39.181  43.080   6.750
 9502POPC   C3A64817  39.253  43.088   7.050
 9502POPC   C4A64818  39.240  43.074   7.350
 9502POPC   C1B64819  39.027  43.070   6.450
 9502POPC   C2B64820  38.996  43.137   6.750
 9502POPC   C3B64821  38.972  43.135   7.050
 9502POPC   C4B64822  39.001  43.162   7.350
 9503POPC   NC364823  32.271  19.791   5.550
 9503POPC   PO464824  32.218  19.880   5.850
 9503POPC   GL164825  32.211  19.865   6.150
 9503POPC   GL264826  32.231  19.991   6.150
 9503POPC   C1A64827  32.246  19.822   6.450
 9503POPC   D2A64828  32.268  19.809   6.750
 9503POPC   C3A64829  32.230  19.791   7.050
 9503POPC   C4A64830  32.260  19.785   7.350
 9503POPC   C1B64831  32.214  20.121   6.450
 9503POPC   C2B64832  32.306  20.103   6.750
 9503POPC   C3B64833  32.289  20.053   7.050
 9503POPC   C4B64834  32.303  20.093   7.350
 9504POPC   NC364835  15.147  33.002   5.550
 9504POPC   PO464836  15.197  33.018   5.850
 9504POPC   GL164837  15.157  33.023   6.150
 9504POPC   GL264838  15.103  32.975   6.150
 9504POPC   C1A64839  15.223  33.033   6.450
 9504POPC   D2A64840  15.175  33.027   6.750
 9504POPC   C3A64841  15.152  33.074   7.050
 9504POPC   C4A64842  15.194  33.040   7.350
 9504POPC   C1B64843  14.912  32.962   6.450
 9504POPC   C2B64844  14.898  32.971   6.750
 9504POPC   C3B64845  14.954  32.915   7.050
 9504POPC   C4B64846  14.915  32.986   7.350
 9505POPC   NC364847   5.133  44.702   5.550
 9505POPC   PO464848   5.108  44.616   5.850
 9505POPC   GL164849   5.044  44.626   6.150
 9505POPC   GL264850   5.117  44.501   6.150
 9505POPC   C1A64851   5.065  44.709   6.450
 9505POPC   D2A64852   5.138  44.686   6.750
 9505POPC   C3A64853   5.129  44.640   7.050
 9505POPC   C4A64854   5.142  44.705   7.350
 9505POPC   C1B64855   5.033  44.440   6.450
 9505POPC   C2B64856   5.093  44.465   6.750
 9505POPC   C3B64857   5.066  44.458   7.050
 9505POPC   C4B64858   5.037  44.456   7.350
 9506POPC   NC364859   3.512  26.034   5.550
 9506POPC   PO464860   3.566  26.026   5.850
 9506POPC   GL164861   3.494  25.998   6.150
 9506POPC   GL264862   3.674  25.973   6.150
 9506POPC   C1A64863   3.558  26.055   6.450
 9506POPC   D2A64864   3.534  25.994   6.750
 9506POPC   C3A64865   3.493  26.022   7.050
 9506POPC   C4A64866   3.492  26.023   7.350
 9506POPC   C1B64867   3.748  25.858   6.450
 9506POPC   C2B64868   3.717  25.911   6.750
 9506POPC   C3B64869   3.775  25.854   7.050
 9506POPC   C4B64870   3.758  25.877   7.350
 9507POPC   NC364871  17.459   3.508   5.550
 9507POPC   PO464872  17.510   3.514   5.850
 9507POPC   GL164873  17.496   3.541   6.150
 9507POPC   GL264874  17.375   3.542   6.150
 9507POPC   C1A64875  17.480   3.557   6.450
 9507POPC   D2A64876  17.519   3.585   6.750
 9507POPC   C3A64877  17.532   3.560   7.050
 9507POPC   C4A64878  17.493   3.562   7.350
 9507POPC   C1B64879  17.277   3.649   6.450
 9507POPC   C2B64880  17.278   3.594   6.750
 9507POPC   C3B64881  17.229   3.617   7.050
 9507POPC   C4B64882  17.299   3.583   7.350
 9508POPC   NC364883  41.522  43.066   5.550
 9508POPC   PO464884  41.532  43.129   5.850
 9508POPC   GL164885  41.588  43.081   6.150
 9508POPC   GL264886  41.588  43.005   6.150
 9508POPC   C1A64887  41.604  43.148   6.450
 9508POPC   D2A64888  41.558  43.086   6.750
 9508POPC   C3A64889  41.522  43.119   7.050
 9508POPC   C4A64890  41.568  43.122   7.350
 9508POPC   C1B64891  41.639  42.875   6.450
 9508POPC   C2B64892  41.642  42.826   6.750
 9508POPC   C3B64893  41.601  42.838   7.050
 9508POPC   C4B64894  41.633  42.851   7.350
 9509POPC   NC364895  25.272  39.988   5.550
 9509POPC   PO464896  25.222  40.021   5.850
 9509POPC   GL164897  25.245  40.054   6.150
 9509POPC   GL264898  25.248  40.177   6.150
 9509POPC   C1A64899  25.243  39.999   6.450
 9509POPC   D2A64900  25.296  40.017   6.750
 9509POPC   C3A64901  25.288  39.957   7.050
 9509POPC   C4A64902  25.315  40.035   7.350
 9509POPC   C1B64903  25.278  40.235   6.450
 9509POPC   C2B64904  25.294  40.257   6.750
 9509POPC   C3B64905  25.263  40.299   7.050
 9509POPC   C4B64906  25.304  40.276   7.350
 9510POPC   NC364907  40.744   2.762   5.550
 9510POPC   PO464908  40.743   2.721   5.850
 9510POPC   GL164909  40.804   2.800   6.150
 9510POPC   GL264910  40.740   2.873   6.150
 9510POPC   C1A64911  40.822   2.732   6.450
 9510POPC   D2A64912  40.778   2.755   6.750
 9510POPC   C3A64913  40.754   2.814   7.050
 9510POPC   C4A64914  40.831   2.759   7.350
 9510POPC   C1B64915  40.751   2.997   6.450
 9510POPC   C2B64916  40.746   2.982   6.750
 9510POPC   C3B64917  40.799   2.986   7.050
 9510POPC   C4B64918  40.729   2.972   7.350
 9511POPC   NC364919  20.658  21.343   5.550
 9511POPC   PO464920  20.626  21.419   5.850
 9511POPC   GL164921  20.643  21.432   6.150
 9511POPC   GL264922  20.492  21.365   6.150
 9511POPC   C1A64923  20.589  21.364   6.450
 9511POPC   D2A64924  20.603  21.434   6.750
 9511POPC   C3A64925  20.652  21.412   7.050
 9511POPC   C4A64926  20.637  21.352   7.350
 9511POPC   C1B64927  20.418  21.294   6.450
 9511POPC   C2B64928  20.413  21.262   6.750
 9511POPC   C3B64929  20.391  21.271   7.050
 9511POPC   C4B64930  20.360  21.293   7.350
 9512POPC   NC364931  20.603  38.435   5.550
 9512POPC   PO464932  20.622  38.428   5.850
 9512POPC   GL164933  20.583  38.413   6.150
 9512POPC   GL264934  20.709  38.429   6.150
 9512POPC   C1A64935  20.630  38.439   6.450
 9512POPC   D2A64936  20.605  38.491   6.750
 9512POPC   C3A64937  20.641  38.438   7.050
 9512POPC   C4A64938  20.641  38.436   7.350
 9512POPC   C1B64939  20.805  38.439   6.450
 9512POPC   C2B64940  20.867  38.363   6.750
 9512POPC   C3B64941  20.827  38.367   7.050
 9512POPC   C4B64942  20.856  38.364   7.350
 9513POPC   NC364943  15.154   4.279   5.550
 9513POPC   PO464944  15.189   4.285   5.850
 9513POPC   GL164945  15.218   4.359   6.150
 9513POPC   GL264946  15.038   4.382   6.150
 9513POPC   C1A64947  15.161   4.292   6.450
 9513POPC   D2A64948  15.130   4.366   6.750
 9513POPC   C3A64949  15.211   4.352   7.050
 9513POPC   C4A64950  15.206   4.337   7.350
 9513POPC   C1B64951  15.013   4.440   6.450
 9513POPC   C2B64952  14.990   4.499   6.750
 9513POPC   C3B64953  14.946   4.470   7.050
 9513POPC   C4B64954  14.954   4.444   7.350
 9514POPC   NC364955  21.398  21.366   5.550
 9514POPC   PO464956  21.431  21.361   5.850
 9514POPC   GL164957  21.371  21.354   6.150
 9514POPC   GL264958  21.327  21.227   6.150
 9514POPC   C1A64959  21.347  21.397   6.450
 9514POPC   D2A64960  21.341  21.351   6.750
 9514POPC   C3A64961  21.432  21.375   7.050
 9514POPC   C4A64962  21.406  21.411   7.350
 9514POPC   C1B64963  21.295  21.174   6.450
 9514POPC   C2B64964  21.340  21.150   6.750
 9514POPC   C3B64965  21.340  21.184   7.050
 9514POPC   C4B64966  21.351  21.173   7.350
 9515POPC   NC364967   3.519  26.778   5.550
 9515POPC   PO464968   3.502  26.835   5.850
 9515POPC   GL164969   3.581  26.830   6.150
 9515POPC   GL264970   3.589  26.936   6.150
 9515POPC   C1A64971   3.536  26.834   6.450
 9515POPC   D2A64972   3.499  26.817   6.750
 9515POPC   C3A64973   3.501  26.844   7.050
 9515POPC   C4A64974   3.563  26.779   7.350
 9515POPC   C1B64975   3.613  27.028   6.450
 9515POPC   C2B64976   3.599  27.061   6.750
 9515POPC   C3B64977   3.523  27.111   7.050
 9515POPC   C4B64978   3.561  27.042   7.350
 9516POPC   NC364979  15.142  12.075   5.550
 9516POPC   PO464980  15.169  12.116   5.850
 9516POPC   GL164981  15.221  12.029   6.150
 9516POPC   GL264982  15.290  12.165   6.150
 9516POPC   C1A64983  15.210  12.047   6.450
 9516POPC   D2A64984  15.196  12.028   6.750
 9516POPC   C3A64985  15.150  12.086   7.050
 9516POPC   C4A64986  15.217  12.121   7.350
 9516POPC   C1B64987  15.407  12.160   6.450
 9516POPC   C2B64988  15.390  12.157   6.750
 9516POPC   C3B64989  15.462  12.199   7.050
 9516POPC   C4B64990  15.458  12.129   7.350
 9517POPC   NC364991  43.881  44.630   5.550
 9517POPC   PO464992  43.891  44.661   5.850
 9517POPC   GL164993  43.924  44.673   6.150
 9517POPC   GL264994  43.832  44.808   6.150
 9517POPC   C1A64995  43.899  44.684   6.450
 9517POPC   D2A64996  43.913  44.670   6.750
 9517POPC   C3A64997  43.917  44.629   7.050
 9517POPC   C4A64998  43.931  44.677   7.350
 9517POPC   C1B64999  43.782  44.815   6.450
 9517POPC   C2B65000  43.760  44.842   6.750
 9517POPC   C3B65001  43.712  44.883   7.050
 9517POPC   C4B65002  43.728  44.810   7.350
 9518POPC   NC365003   4.348   8.234   5.550
 9518POPC   PO465004   4.362   8.152   5.850
 9518POPC   GL165005   4.287   8.168   6.150
 9518POPC   GL265006   4.430   8.183   6.150
 9518POPC   C1A65007   4.288   8.241   6.450
 9518POPC   D2A65008   4.367   8.221   6.750
 9518POPC   C3A65009   4.355   8.227   7.050
 9518POPC   C4A65010   4.354   8.201   7.350
 9518POPC   C1B65011   4.514   8.092   6.450
 9518POPC   C2B65012   4.560   8.130   6.750
 9518POPC   C3B65013   4.521   8.059   7.050
 9518POPC   C4B65014   4.580   8.094   7.350
 9519POPC   NC365015  12.097  27.625   5.550
 9519POPC   PO465016  12.056  27.639   5.850
 9519POPC   GL165017  12.053  27.636   6.150
 9519POPC   GL265018  11.952  27.601   6.150
 9519POPC   C1A65019  12.051  27.642   6.450
 9519POPC   D2A65020  12.075  27.588   6.750
 9519POPC   C3A65021  12.069  27.638   7.050
 9519POPC   C4A65022  12.089  27.546   7.350
 9519POPC   C1B65023  11.795  27.628   6.450
 9519POPC   C2B65024  11.844  27.643   6.750
 9519POPC   C3B65025  11.879  27.657   7.050
 9519POPC   C4B65026  11.837  27.668   7.350
 9520POPC   NC365027  33.805  19.018   5.550
 9520POPC   PO465028  33.781  19.042   5.850
 9520POPC   GL165029  33.785  19.058   6.150
 9520POPC   GL265030  33.770  19.173   6.150
 9520POPC   C1A65031  33.808  19.073   6.450
 9520POPC   D2A65032  33.780  19.104   6.750
 9520POPC   C3A65033  33.802  19.099   7.050
 9520POPC   C4A65034  33.838  19.089   7.350
 9520POPC   C1B65035  33.722  19.233   6.450
 9520POPC   C2B65036  33.723  19.277   6.750
 9520POPC   C3B65037  33.646  19.283   7.050
 9520POPC   C4B65038  33.720  19.262   7.350
 9521POPC   NC365039  39.247  42.330   5.550
 9521POPC   PO465040  39.230  42.363   5.850
 9521POPC   GL165041  39.237  42.315   6.150
 9521POPC   GL265042  39.318  42.411   6.150
 9521POPC   C1A65043  39.228  42.295   6.450
 9521POPC   D2A65044  39.226  42.348   6.750
 9521POPC   C3A65045  39.237  42.368   7.050
 9521POPC   C4A65046  39.204  42.310   7.350
 9521POPC   C1B65047  39.370  42.470   6.450
 9521POPC   C2B65048  39.393  42.472   6.750
 9521POPC   C3B65049  39.362  42.538   7.050
 9521POPC   C4B65050  39.424  42.473   7.350
 9522POPC   NC365051  22.123  26.032   5.550
 9522POPC   PO465052  22.150  26.025   5.850
 9522POPC   GL165053  22.144  26.036   6.150
 9522POPC   GL265054  22.229  25.907   6.150
 9522POPC   C1A65055  22.176  26.004   6.450
 9522POPC   D2A65056  22.198  25.993   6.750
 9522POPC   C3A65057  22.167  26.042   7.050
 9522POPC   C4A65058  22.201  25.999   7.350
 9522POPC   C1B65059  22.334  25.864   6.450
 9522POPC   C2B65060  22.363  25.914   6.750
 9522POPC   C3B65061  22.300  25.864   7.050
 9522POPC   C4B65062  22.383  25.899   7.350
 9523POPC   NC365063   2.734  41.564   5.550
 9523POPC   PO465064   2.734  41.530   5.850
 9523POPC   GL165065   2.774  41.509   6.150
 9523POPC   GL265066   2.907  41.624   6.150
 9523POPC   C1A65067   2.792  41.518   6.450
 9523POPC   D2A65068   2.729  41.532   6.750
 9523POPC   C3A65069   2.787  41.598   7.050
 9523POPC   C4A65070   2.727  41.512   7.350
 9523POPC   C1B65071   2.977  41.623   6.450
 9523POPC   C2B65072   3.009  41.596   6.750
 9523POPC   C3B65073   3.002  41.667   7.050
 9523POPC   C4B65074   3.019  41.637   7.350
 9524POPC   NC365075  25.248   5.857   5.550
 9524POPC   PO465076  25.283   5.891   5.850
 9524POPC   GL165077  25.297   5.844   6.150
 9524POPC   GL265078  25.159   5.855   6.150
 9524POPC   C1A65079  25.242   5.870   6.450
 9524POPC   D2A65080  25.242   5.872   6.750
 9524POPC   C3A65081  25.271   5.842   7.050
 9524POPC   C4A65082  25.260   5.833   7.350
 9524POPC   C1B65083  25.048   5.759   6.450
 9524POPC   C2B65084  25.071   5.739   6.750
 9524POPC   C3B65085  25.081   5.743   7.050
 9524POPC   C4B65086  25.049   5.708   7.350
 9525POPC   NC365087  22.941  21.345   5.550
 9525POPC   PO465088  22.903  21.383   5.850
 9525POPC   GL165089  22.984  21.370   6.150
 9525POPC   GL265090  22.865  21.412   6.150
 9525POPC   C1A65091  22.928  21.361   6.450
 9525POPC   D2A65092  22.936  21.410   6.750
 9525POPC   C3A65093  22.930  21.377   7.050
 9525POPC   C4A65094  22.946  21.408   7.350
 9525POPC   C1B65095  22.699  21.430   6.450
 9525POPC   C2B65096  22.680  21.492   6.750
 9525POPC   C3B65097  22.691  21.488   7.050
 9525POPC   C4B65098  22.702  21.451   7.350
 9526POPC   NC365099  44.692  36.097   5.550
 9526POPC   PO465100  44.635  36.132   5.850
 9526POPC   GL165101  44.615  36.137   6.150
 9526POPC   GL265102  44.596  36.262   6.150
 9526POPC   C1A65103  44.708  36.175   6.450
 9526POPC   D2A65104  44.696  36.156   6.750
 9526POPC   C3A65105  44.707  36.162   7.050
 9526POPC   C4A65106  44.635  36.093   7.350
 9526POPC   C1B65107  44.500  36.357   6.450
 9526POPC   C2B65108  44.553  36.294   6.750
 9526POPC   C3B65109  44.577  36.323   7.050
 9526POPC   C4B65110  44.507  36.376   7.350
 9527POPC   NC365111  43.124  31.481   5.550
 9527POPC   PO465112  43.158  31.464   5.850
 9527POPC   GL165113  43.082  31.488   6.150
 9527POPC   GL265114  43.167  31.325   6.150
 9527POPC   C1A65115  43.090  31.522   6.450
 9527POPC   D2A65116  43.098  31.430   6.750
 9527POPC   C3A65117  43.103  31.503   7.050
 9527POPC   C4A65118  43.062  31.515   7.350
 9527POPC   C1B65119  43.240  31.282   6.450
 9527POPC   C2B65120  43.236  31.284   6.750
 9527POPC   C3B65121  43.275  31.248   7.050
 9527POPC   C4B65122  43.220  31.286   7.350
 9528POPC   NC365123  26.814  15.190   5.550
 9528POPC   PO465124  26.788  15.133   5.850
 9528POPC   GL165125  26.816  15.198   6.150
 9528POPC   GL265126  26.718  15.075   6.150
 9528POPC   C1A65127  26.854  15.140   6.450
 9528POPC   D2A65128  26.799  15.162   6.750
 9528POPC   C3A65129  26.825  15.170   7.050
 9528POPC   C4A65130  26.855  15.220   7.350
 9528POPC   C1B65131  26.626  15.057   6.450
 9528POPC   C2B65132  26.590  14.959   6.750
 9528POPC   C3B65133  26.599  14.959   7.050
 9528POPC   C4B65134  26.684  15.016   7.350
 9529POPC   NC365135  29.190  19.037   5.550
 9529POPC   PO465136  29.167  19.107   5.850
 9529POPC   GL165137  29.103  19.040   6.150
 9529POPC   GL265138  29.247  19.091   6.150
 9529POPC   C1A65139  29.188  19.104   6.450
 9529POPC   D2A65140  29.106  19.068   6.750
 9529POPC   C3A65141  29.100  19.035   7.050
 9529POPC   C4A65142  29.138  19.103   7.350
 9529POPC   C1B65143  29.382  19.099   6.450
 9529POPC   C2B65144  29.421  19.123   6.750
 9529POPC   C3B65145  29.371  19.139   7.050
 9529POPC   C4B65146  29.352  19.153   7.350
 9530POPC   NC365147  44.617  40.054   5.550
 9530POPC   PO465148  44.650  40.033   5.850
 9530POPC   GL165149  44.624  40.055   6.150
 9530POPC   GL265150  44.587  40.135   6.150
 9530POPC   C1A65151  44.674  40.050   6.450
 9530POPC   D2A65152  44.651  39.986   6.750
 9530POPC   C3A65153  44.695  39.997   7.050
 9530POPC   C4A65154  44.667  39.960   7.350
 9530POPC   C1B65155  44.564  40.262   6.450
 9530POPC   C2B65156  44.577  40.232   6.750
 9530POPC   C3B65157  44.598  40.295   7.050
 9530POPC   C4B65158  44.628  40.200   7.350
 9531POPC   NC365159  13.586  12.047   5.550
 9531POPC   PO465160  13.633  12.047   5.850
 9531POPC   GL165161  13.624  12.091   6.150
 9531POPC   GL265162  13.561  12.162   6.150
 9531POPC   C1A65163  13.611  12.107   6.450
 9531POPC   D2A65164  13.668  12.125   6.750
 9531POPC   C3A65165  13.612  12.088   7.050
 9531POPC   C4A65166  13.646  12.031   7.350
 9531POPC   C1B65167  13.452  12.173   6.450
 9531POPC   C2B65168  13.451  12.201   6.750
 9531POPC   C3B65169  13.379  12.222   7.050
 9531POPC   C4B65170  13.420  12.237   7.350
 9532POPC   NC365171   2.725  36.856   5.550
 9532POPC   PO465172   2.734  36.869   5.850
 9532POPC   GL165173   2.752  36.938   6.150
 9532POPC   GL265174   2.612  36.875   6.150
 9532POPC   C1A65175   2.772  36.863   6.450
 9532POPC   D2A65176   2.772  36.925   6.750
 9532POPC   C3A65177   2.788  36.881   7.050
 9532POPC   C4A65178   2.733  36.949   7.350
 9532POPC   C1B65179   2.533  36.823   6.450
 9532POPC   C2B65180   2.520  36.805   6.750
 9532POPC   C3B65181   2.584  36.818   7.050
 9532POPC   C4B65182   2.536  36.755   7.350
 9533POPC   NC365183  42.318   2.003   5.550
 9533POPC   PO465184  42.313   1.951   5.850
 9533POPC   GL165185  42.345   1.966   6.150
 9533POPC   GL265186  42.448   2.105   6.150
 9533POPC   C1A65187  42.376   1.950   6.450
 9533POPC   D2A65188  42.287   1.958   6.750
 9533POPC   C3A65189  42.287   1.961   7.050
 9533POPC   C4A65190  42.347   2.010   7.350
 9533POPC   C1B65191  42.568   2.163   6.450
 9533POPC   C2B65192  42.566   2.115   6.750
 9533POPC   C3B65193  42.501   2.106   7.050
 9533POPC   C4B65194  42.554   2.203   7.350
 9534POPC   NC365195  36.894  29.193   5.550
 9534POPC   PO465196  36.875  29.172   5.850
 9534POPC   GL165197  36.942  29.176   6.150
 9534POPC   GL265198  36.850  29.211   6.150
 9534POPC   C1A65199  36.918  29.136   6.450
 9534POPC   D2A65200  36.877  29.173   6.750
 9534POPC   C3A65201  36.938  29.134   7.050
 9534POPC   C4A65202  36.944  29.172   7.350
 9534POPC   C1B65203  36.678  29.336   6.450
 9534POPC   C2B65204  36.670  29.348   6.750
 9534POPC   C3B65205  36.709  29.281   7.050
 9534POPC   C4B65206  36.681  29.293   7.350
 9535POPC   NC365207  34.584   2.738   5.550
 9535POPC   PO465208  34.547   2.763   5.850
 9535POPC   GL165209  34.539   2.728   6.150
 9535POPC   GL265210  34.554   2.654   6.150
 9535POPC   C1A65211  34.581   2.721   6.450
 9535POPC   D2A65212  34.605   2.783   6.750
 9535POPC   C3A65213  34.534   2.723   7.050
 9535POPC   C4A65214  34.536   2.791   7.350
 9535POPC   C1B65215  34.550   2.506   6.450
 9535POPC   C2B65216  34.548   2.469   6.750
 9535POPC   C3B65217  34.541   2.538   7.050
 9535POPC   C4B65218  34.638   2.524   7.350
 9536POPC   NC365219  29.120  26.037   5.550
 9536POPC   PO465220  29.160  26.091   5.850
 9536POPC   GL165221  29.100  26.087   6.150
 9536POPC   GL265222  29.281  25.988   6.150
 9536POPC   C1A65223  29.153  26.024   6.450
 9536POPC   D2A65224  29.142  26.075   6.750
 9536POPC   C3A65225  29.121  26.049   7.050
 9536POPC   C4A65226  29.096  26.007   7.350
 9536POPC   C1B65227  29.372  26.060   6.450
 9536POPC   C2B65228  29.412  25.990   6.750
 9536POPC   C3B65229  29.349  25.999   7.050
 9536POPC   C4B65230  29.422  25.986   7.350
 9537POPC   NC365231  19.060   7.431   5.550
 9537POPC   PO465232  19.085   7.454   5.850
 9537POPC   GL165233  19.108   7.430   6.150
 9537POPC   GL265234  19.173   7.544   6.150
 9537POPC   C1A65235  19.022   7.381   6.450
 9537POPC   D2A65236  19.039   7.468   6.750
 9537POPC   C3A65237  19.061   7.417   7.050
 9537POPC   C4A65238  19.101   7.467   7.350
 9537POPC   C1B65239  19.220   7.542   6.450
 9537POPC   C2B65240  19.242   7.531   6.750
 9537POPC   C3B65241  19.244   7.586   7.050
 9537POPC   C4B65242  19.207   7.621   7.350
 9538POPC   NC365243  13.666  20.611   5.550
 9538POPC   PO465244  13.673  20.589   5.850
 9538POPC   GL165245  13.675  20.593   6.150
 9538POPC   GL265246  13.615  20.510   6.150
 9538POPC   C1A65247  13.622  20.631   6.450
 9538POPC   D2A65248  13.608  20.622   6.750
 9538POPC   C3A65249  13.659  20.565   7.050
 9538POPC   C4A65250  13.597  20.613   7.350
 9538POPC   C1B65251  13.485  20.412   6.450
 9538POPC   C2B65252  13.580  20.349   6.750
 9538POPC   C3B65253  13.557  20.343   7.050
 9538POPC   C4B65254  13.583  20.405   7.350
 9539POPC   NC365255  24.508  44.711   5.550
 9539POPC   PO465256  24.463  44.675   5.850
 9539POPC   GL165257  24.440  44.633   6.150
 9539POPC   GL265258  24.397  44.803   6.150
 9539POPC   C1A65259  24.498  44.652   6.450
 9539POPC   D2A65260  24.465  44.629   6.750
 9539POPC   C3A65261  24.496  44.694   7.050
 9539POPC   C4A65262  24.444  44.660   7.350
 9539POPC   C1B65263  24.387  44.933   6.450
 9539POPC   C2B65264  24.370  44.909   6.750
 9539POPC   C3B65265  24.387  44.853   7.050
 9539POPC   C4B65266  24.359  44.875   7.350
 9540POPC   NC365267  26.056  40.032   5.550
 9540POPC   PO465268  26.085  40.040   5.850
 9540POPC   GL165269  25.993  39.994   6.150
 9540POPC   GL265270  25.968  40.049   6.150
 9540POPC   C1A65271  26.040  39.986   6.450
 9540POPC   D2A65272  26.001  39.985   6.750
 9540POPC   C3A65273  26.090  39.966   7.050
 9540POPC   C4A65274  26.006  40.010   7.350
 9540POPC   C1B65275  25.903  40.211   6.450
 9540POPC   C2B65276  25.833  40.223   6.750
 9540POPC   C3B65277  25.827  40.176   7.050
 9540POPC   C4B65278  25.887  40.190   7.350
 9541POPC   NC365279  39.204  26.854   5.550
 9541POPC   PO465280  39.237  26.786   5.850
 9541POPC   GL165281  39.211  26.851   6.150
 9541POPC   GL265282  39.271  26.897   6.150
 9541POPC   C1A65283  39.247  26.819   6.450
 9541POPC   D2A65284  39.226  26.853   6.750
 9541POPC   C3A65285  39.231  26.776   7.050
 9541POPC   C4A65286  39.187  26.828   7.350
 9541POPC   C1B65287  39.284  27.040   6.450
 9541POPC   C2B65288  39.251  27.051   6.750
 9541POPC   C3B65289  39.269  27.039   7.050
 9541POPC   C4B65290  39.302  27.094   7.350
 9542POPC   NC365291  44.641  14.406   5.550
 9542POPC   PO465292  44.659  14.403   5.850
 9542POPC   GL165293  44.625  14.383   6.150
 9542POPC   GL265294  44.601  14.386   6.150
 9542POPC   C1A65295  44.702  14.404   6.450
 9542POPC   D2A65296  44.654  14.416   6.750
 9542POPC   C3A65297  44.695  14.428   7.050
 9542POPC   C4A65298  44.615  14.404   7.350
 9542POPC   C1B65299  44.425  14.284   6.450
 9542POPC   C2B65300  44.484  14.299   6.750
 9542POPC   C3B65301  44.416  14.329   7.050
 9542POPC   C4B65302  44.398  14.328   7.350
 9543POPC   NC365303   2.723   3.523   5.550
 9543POPC   PO465304   2.779   3.559   5.850
 9543POPC   GL165305   2.769   3.519   6.150
 9543POPC   GL265306   2.866   3.607   6.150
 9543POPC   C1A65307   2.781   3.508   6.450
 9543POPC   D2A65308   2.800   3.556   6.750
 9543POPC   C3A65309   2.766   3.538   7.050
 9543POPC   C4A65310   2.787   3.571   7.350
 9543POPC   C1B65311   3.009   3.621   6.450
 9543POPC   C2B65312   3.043   3.659   6.750
 9543POPC   C3B65313   3.045   3.668   7.050
 9543POPC   C4B65314   3.027   3.643   7.350
 9544POPC   NC365315  26.800   4.344   5.550
 9544POPC   PO465316  26.809   4.304   5.850
 9544POPC   GL165317  26.833   4.309   6.150
 9544POPC   GL265318  26.652   4.377   6.150
 9544POPC   C1A65319  26.819   4.280   6.450
 9544POPC   D2A65320  26.775   4.302   6.750
 9544POPC   C3A65321  26.781   4.349   7.050
 9544POPC   C4A65322  26.805   4.366   7.350
 9544POPC   C1B65323  26.616   4.316   6.450
 9544POPC   C2B65324  26.596   4.346   6.750
 9544POPC   C3B65325  26.590   4.336   7.050
 9544POPC   C4B65326  26.589   4.384   7.350
 9545POPC   NC365327  22.208   8.197   5.550
 9545POPC   PO465328  22.200   8.179   5.850
 9545POPC   GL165329  22.190   8.176   6.150
 9545POPC   GL265330  22.088   8.212   6.150
 9545POPC   C1A65331  22.118   8.212   6.450
 9545POPC   D2A65332  22.131   8.185   6.750
 9545POPC   C3A65333  22.115   8.237   7.050
 9545POPC   C4A65334  22.183   8.216   7.350
 9545POPC   C1B65335  21.943   8.097   6.450
 9545POPC   C2B65336  21.925   8.177   6.750
 9545POPC   C3B65337  21.921   8.126   7.050
 9545POPC   C4B65338  21.968   8.121   7.350
 9546POPC   NC365339   0.389  43.074   5.550
 9546POPC   PO465340   0.423  43.062   5.850
 9546POPC   GL165341   0.396  43.152   6.150
 9546POPC   GL265342   0.522  43.013   6.150
 9546POPC   C1A65343   0.432  43.128   6.450
 9546POPC   D2A65344   0.463  43.080   6.750
 9546POPC   C3A65345   0.392  43.074   7.050
 9546POPC   C4A65346   0.486  43.121   7.350
 9546POPC   C1B65347   0.649  42.947   6.450
 9546POPC   C2B65348   0.612  42.990   6.750
 9546POPC   C3B65349   0.681  42.931   7.050
 9546POPC   C4B65350   0.692  42.962   7.350
 9547POPC   NC365351  28.353   5.104   5.550
 9547POPC   PO465352  28.371   5.138   5.850
 9547POPC   GL165353  28.362   5.119   6.150
 9547POPC   GL265354  28.299   5.178   6.150
 9547POPC   C1A65355  28.419   5.118   6.450
 9547POPC   D2A65356  28.342   5.133   6.750
 9547POPC   C3A65357  28.416   5.109   7.050
 9547POPC   C4A65358  28.326   5.103   7.350
 9547POPC   C1B65359  28.231   5.287   6.450
 9547POPC   C2B65360  28.279   5.311   6.750
 9547POPC   C3B65361  28.224   5.313   7.050
 9547POPC   C4B65362  28.266   5.322   7.350
 9548POPC   NC365363  39.958  15.947   5.550
 9548POPC   PO465364  39.978  15.907   5.850
 9548POPC   GL165365  40.011  15.919   6.150
 9548POPC   GL265366  40.052  15.800   6.150
 9548POPC   C1A65367  40.037  15.935   6.450
 9548POPC   D2A65368  40.010  15.942   6.750
 9548POPC   C3A65369  40.046  15.981   7.050
 9548POPC   C4A65370  40.035  15.961   7.350
 9548POPC   C1B65371  40.115  15.703   6.450
 9548POPC   C2B65372  40.070  15.743   6.750
 9548POPC   C3B65373  40.060  15.749   7.050
 9548POPC   C4B65374  40.055  15.710   7.350
 9549POPC   NC365375   9.713  31.427   5.550
 9549POPC   PO465376   9.790  31.488   5.850
 9549POPC   GL165377   9.733  31.520   6.150
 9549POPC   GL265378   9.757  31.634   6.150
 9549POPC   C1A65379   9.702  31.495   6.450
 9549POPC   D2A65380   9.700  31.475   6.750
 9549POPC   C3A65381   9.739  31.463   7.050
 9549POPC   C4A65382   9.758  31.433   7.350
 9549POPC   C1B65383   9.750  31.694   6.450
 9549POPC   C2B65384   9.787  31.769   6.750
 9549POPC   C3B65385   9.776  31.711   7.050
 9549POPC   C4B65386   9.726  31.696   7.350
 9550POPC   NC365387  27.605  27.635   5.550
 9550POPC   PO465388  27.601  27.572   5.850
 9550POPC   GL165389  27.602  27.602   6.150
 9550POPC   GL265390  27.566  27.666   6.150
 9550POPC   C1A65391  27.570  27.562   6.450
 9550POPC   D2A65392  27.558  27.604   6.750
 9550POPC   C3A65393  27.586  27.567   7.050
 9550POPC   C4A65394  27.588  27.544   7.350
 9550POPC   C1B65395  27.460  27.760   6.450
 9550POPC   C2B65396  27.480  27.845   6.750
 9550POPC   C3B65397  27.435  27.766   7.050
 9550POPC   C4B65398  27.482  27.837   7.350
 9551POPC   NC365399  22.938   3.583   5.550
 9551POPC   PO465400  22.897   3.546   5.850
 9551POPC   GL165401  22.939   3.511   6.150
 9551POPC   GL265402  22.792   3.500   6.150
 9551POPC   C1A65403  22.964   3.548   6.450
 9551POPC   D2A65404  22.889   3.566   6.750
 9551POPC   C3A65405  22.895   3.561   7.050
 9551POPC   C4A65406  22.908   3.582   7.350
 9551POPC   C1B65407  22.725   3.524   6.450
 9551POPC   C2B65408  22.743   3.440   6.750
 9551POPC   C3B65409  22.716   3.458   7.050
 9551POPC   C4B65410  22.732   3.499   7.350
 9552POPC   NC365411   7.447  10.544   5.550
 9552POPC   PO465412   7.465  10.481   5.850
 9552POPC   GL165413   7.439  10.518   6.150
 9552POPC   GL265414   7.422  10.409   6.150
 9552POPC   C1A65415   7.456  10.530   6.450
 9552POPC   D2A65416   7.374  10.520   6.750
 9552POPC   C3A65417   7.455  10.477   7.050
 9552POPC   C4A65418   7.432  10.574   7.350
 9552POPC   C1B65419   7.446  10.288   6.450
 9552POPC   C2B65420   7.367  10.264   6.750
 9552POPC   C3B65421   7.436  10.227   7.050
 9552POPC   C4B65422   7.436  10.240   7.350
 9553POPC   NC365423  18.319  33.834   5.550
 9553POPC   PO465424  18.299  33.848   5.850
 9553POPC   GL165425  18.257  33.805   6.150
 9553POPC   GL265426  18.375  33.890   6.150
 9553POPC   C1A65427  18.274  33.788   6.450
 9553POPC   D2A65428  18.261  33.774   6.750
 9553POPC   C3A65429  18.320  33.781   7.050
 9553POPC   C4A65430  18.265  33.785   7.350
 9553POPC   C1B65431  18.460  33.902   6.450
 9553POPC   C2B65432  18.493  33.941   6.750
 9553POPC   C3B65433  18.478  33.905   7.050
 9553POPC   C4B65434  18.471  33.992   7.350
 9554POPC   NC365435  44.709   8.925   5.550
 9554POPC   PO465436  44.670   8.929   5.850
 9554POPC   GL165437  44.626   8.933   6.150
 9554POPC   GL265438  44.568   9.062   6.150
 9554POPC   C1A65439  44.683   8.975   6.450
 9554POPC   D2A65440  44.644   8.930   6.750
 9554POPC   C3A65441  44.626   9.002   7.050
 9554POPC   C4A65442  44.706   8.950   7.350
 9554POPC   C1B65443  44.464   9.122   6.450
 9554POPC   C2B65444  44.471   9.065   6.750
 9554POPC   C3B65445  44.454   9.094   7.050
 9554POPC   C4B65446  44.485   9.067   7.350
 9555POPC   NC365447   8.964  28.371   5.550
 9555POPC   PO465448   8.976  28.372   5.850
 9555POPC   GL165449   8.961  28.350   6.150
 9555POPC   GL265450   9.075  28.251   6.150
 9555POPC   C1A65451   9.011  28.339   6.450
 9555POPC   D2A65452   8.932  28.340   6.750
 9555POPC   C3A65453   8.960  28.379   7.050
 9555POPC   C4A65454   9.022  28.358   7.350
 9555POPC   C1B65455   9.039  28.170   6.450
 9555POPC   C2B65456   9.060  28.160   6.750
 9555POPC   C3B65457   9.128  28.130   7.050
 9555POPC   C4B65458   9.080  28.129   7.350
 9556POPC   NC365459  43.868   3.570   5.550
 9556POPC   PO465460  43.870   3.523   5.850
 9556POPC   GL165461  43.884   3.581   6.150
 9556POPC   GL265462  43.923   3.482   6.150
 9556POPC   C1A65463  43.842   3.526   6.450
 9556POPC   D2A65464  43.858   3.520   6.750
 9556POPC   C3A65465  43.865   3.542   7.050
 9556POPC   C4A65466  43.861   3.495   7.350
 9556POPC   C1B65467  44.047   3.316   6.450
 9556POPC   C2B65468  44.026   3.309   6.750
 9556POPC   C3B65469  44.011   3.314   7.050
 9556POPC   C4B65470  44.075   3.361   7.350
 9557POPC   NC365471  25.258  29.160   5.550
 9557POPC   PO465472  25.286  29.179   5.850
 9557POPC   GL165473  25.216  29.170   6.150
 9557POPC   GL265474  25.208  29.242   6.150
 9557POPC   C1A65475  25.303  29.150   6.450
 9557POPC   D2A65476  25.312  29.142   6.750
 9557POPC   C3A65477  25.272  29.159   7.050
 9557POPC   C4A65478  25.281  29.177   7.350
 9557POPC   C1B65479  25.292  29.420   6.450
 9557POPC   C2B65480  25.207  29.443   6.750
 9557POPC   C3B65481  25.230  29.410   7.050
 9557POPC   C4B65482  25.220  29.435   7.350
 9558POPC   NC365483  21.346  42.310   5.550
 9558POPC   PO465484  21.390  42.318   5.850
 9558POPC   GL165485  21.408  42.372   6.150
 9558POPC   GL265486  21.481  42.262   6.150
 9558POPC   C1A65487  21.408  42.376   6.450
 9558POPC   D2A65488  21.339  42.300   6.750
 9558POPC   C3A65489  21.362  42.378   7.050
 9558POPC   C4A65490  21.414  42.357   7.350
 9558POPC   C1B65491  21.621  42.235   6.450
 9558POPC   C2B65492  21.629  42.204   6.750
 9558POPC   C3B65493  21.608  42.159   7.050
 9558POPC   C4B65494  21.643  42.250   7.350
 9559POPC   NC365495  23.739  31.472   5.550
 9559POPC   PO465496  23.755  31.489   5.850
 9559POPC   GL165497  23.729  31.500   6.150
 9559POPC   GL265498  23.751  31.398   6.150
 9559POPC   C1A65499  23.713  31.441   6.450
 9559POPC   D2A65500  23.754  31.451   6.750
 9559POPC   C3A65501  23.763  31.444   7.050
 9559POPC   C4A65502  23.693  31.435   7.350
 9559POPC   C1B65503  23.793  31.209   6.450
 9559POPC   C2B65504  23.772  31.199   6.750
 9559POPC   C3B65505  23.768  31.197   7.050
 9559POPC   C4B65506  23.725  31.253   7.350
 9560POPC   NC365507  41.530  16.723   5.550
 9560POPC   PO465508  41.541  16.775   5.850
 9560POPC   GL165509  41.585  16.720   6.150
 9560POPC   GL265510  41.620  16.575   6.150
 9560POPC   C1A65511  41.595  16.780   6.450
 9560POPC   D2A65512  41.519  16.685   6.750
 9560POPC   C3A65513  41.527  16.703   7.050
 9560POPC   C4A65514  41.544  16.715   7.350
 9560POPC   C1B65515  41.674  16.484   6.450
 9560POPC   C2B65516  41.723  16.533   6.750
 9560POPC   C3B65517  41.731  16.563   7.050
 9560POPC   C4B65518  41.719  16.493   7.350
 9561POPC   NC365519  15.131   1.240   5.550
 9561POPC   PO465520  15.136   1.202   5.850
 9561POPC   GL165521  15.191   1.210   6.150
 9561POPC   GL265522  15.098   1.298   6.150
 9561POPC   C1A65523  15.225   1.193   6.450
 9561POPC   D2A65524  15.159   1.249   6.750
 9561POPC   C3A65525  15.155   1.188   7.050
 9561POPC   C4A65526  15.131   1.220   7.350
 9561POPC   C1B65527  15.013   1.342   6.450
 9561POPC   C2B65528  14.953   1.361   6.750
 9561POPC   C3B65529  15.013   1.362   7.050
 9561POPC   C4B65530  14.986   1.342   7.350
 9562POPC   NC365531   5.884   0.466   5.550
 9562POPC   PO465532   5.904   0.444   5.850
 9562POPC   GL165533   5.891   0.443   6.150
 9562POPC   GL265534   6.015   0.404   6.150
 9562POPC   C1A65535   5.852   0.455   6.450
 9562POPC   D2A65536   5.826   0.486   6.750
 9562POPC   C3A65537   5.905   0.391   7.050
 9562POPC   C4A65538   5.857   0.462   7.350
 9562POPC   C1B65539   6.121   0.275   6.450
 9562POPC   C2B65540   6.070   0.297   6.750
 9562POPC   C3B65541   6.045   0.326   7.050
 9562POPC   C4B65542   6.078   0.306   7.350
 9563POPC   NC365543   2.812   2.773   5.550
 9563POPC   PO465544   2.812   2.783   5.850
 9563POPC   GL165545   2.777   2.716   6.150
 9563POPC   GL265546   2.668   2.782   6.150
 9563POPC   C1A65547   2.737   2.809   6.450
 9563POPC   D2A65548   2.752   2.738   6.750
 9563POPC   C3A65549   2.806   2.718   7.050
 9563POPC   C4A65550   2.814   2.745   7.350
 9563POPC   C1B65551   2.507   2.773   6.450
 9563POPC   C2B65552   2.536   2.766   6.750
 9563POPC   C3B65553   2.485   2.734   7.050
 9563POPC   C4B65554   2.556   2.802   7.350
 9564POPC   NC365555   1.181   1.182   5.550
 9564POPC   PO465556   1.168   1.257   5.850
 9564POPC   GL165557   1.191   1.183   6.150
 9564POPC   GL265558   1.283   1.124   6.150
 9564POPC   C1A65559   1.188   1.175   6.450
 9564POPC   D2A65560   1.213   1.261   6.750
 9564POPC   C3A65561   1.190   1.237   7.050
 9564POPC   C4A65562   1.257   1.264   7.350
 9564POPC   C1B65563   1.361   1.021   6.450
 9564POPC   C2B65564   1.384   1.011   6.750
 9564POPC   C3B65565   1.386   1.007   7.050
 9564POPC   C4B65566   1.392   1.102   7.350
 9565POPC   NC365567  43.102  32.979   5.550
 9565POPC   PO465568  43.130  32.983   5.850
 9565POPC   GL165569  43.131  33.069   6.150
 9565POPC   GL265570  43.242  33.111   6.150
 9565POPC   C1A65571  43.094  33.069   6.450
 9565POPC   D2A65572  43.109  32.976   6.750
 9565POPC   C3A65573  43.118  33.025   7.050
 9565POPC   C4A65574  43.138  33.013   7.350
 9565POPC   C1B65575  43.242  33.190   6.450
 9565POPC   C2B65576  43.317  33.200   6.750
 9565POPC   C3B65577  43.258  33.225   7.050
 9565POPC   C4B65578  43.315  33.254   7.350
 9566POPC   NC365579  36.082  22.896   5.550
 9566POPC   PO465580  36.132  22.935   5.850
 9566POPC   GL165581  36.110  22.928   6.150
 9566POPC   GL265582  36.063  22.881   6.150
 9566POPC   C1A65583  36.154  22.914   6.450
 9566POPC   D2A65584  36.097  22.891   6.750
 9566POPC   C3A65585  36.135  22.893   7.050
 9566POPC   C4A65586  36.109  22.934   7.350
 9566POPC   C1B65587  36.012  22.712   6.450
 9566POPC   C2B65588  35.959  22.700   6.750
 9566POPC   C3B65589  36.018  22.740   7.050
 9566POPC   C4B65590  36.025  22.769   7.350
 9567POPC   NC365591  39.999  13.612   5.550
 9567POPC   PO465592  39.958  13.596   5.850
 9567POPC   GL165593  39.977  13.636   6.150
 9567POPC   GL265594  40.057  13.729   6.150
 9567POPC   C1A65595  40.006  13.672   6.450
 9567POPC   D2A65596  39.957  13.602   6.750
 9567POPC   C3A65597  40.032  13.621   7.050
 9567POPC   C4A65598  40.027  13.583   7.350
 9567POPC   C1B65599  40.196  13.842   6.450
 9567POPC   C2B65600  40.142  13.840   6.750
 9567POPC   C3B65601  40.173  13.827   7.050
 9567POPC   C4B65602  40.223  13.812   7.350
 9568POPC   NC365603  31.501  33.817   5.550
 9568POPC   PO465604  31.467  33.774   5.850
 9568POPC   GL165605  31.499  33.822   6.150
 9568POPC   GL265606  31.367  33.885   6.150
 9568POPC   C1A65607  31.515  33.815   6.450
 9568POPC   D2A65608  31.483  33.769   6.750
 9568POPC   C3A65609  31.432  33.782   7.050
 9568POPC   C4A65610  31.478  33.788   7.350
 9568POPC   C1B65611  31.280  33.933   6.450
 9568POPC   C2B65612  31.327  33.969   6.750
 9568POPC   C3B65613  31.312  33.988   7.050
 9568POPC   C4B65614  31.272  34.017   7.350
 9569POPC   NC365615   2.793  21.371   5.550
 9569POPC   PO465616   2.787  21.432   5.850
 9569POPC   GL165617   2.773  21.360   6.150
 9569POPC   GL265618   2.839  21.235   6.150
 9569POPC   C1A65619   2.767  21.370   6.450
 9569POPC   D2A65620   2.781  21.357   6.750
 9569POPC   C3A65621   2.744  21.345   7.050
 9569POPC   C4A65622   2.810  21.429   7.350
 9569POPC   C1B65623   2.823  21.118   6.450
 9569POPC   C2B65624   2.843  21.196   6.750
 9569POPC   C3B65625   2.850  21.115   7.050
 9569POPC   C4B65626   2.855  21.124   7.350
 9570POPC   NC365627  28.348   9.000   5.550
 9570POPC   PO465628  28.360   8.935   5.850
 9570POPC   GL165629  28.338   8.985   6.150
 9570POPC   GL265630  28.280   8.887   6.150
 9570POPC   C1A65631  28.324   8.982   6.450
 9570POPC   D2A65632  28.392   8.967   6.750
 9570POPC   C3A65633  28.380   9.019   7.050
 9570POPC   C4A65634  28.385   8.934   7.350
 9570POPC   C1B65635  28.180   8.805   6.450
 9570POPC   C2B65636  28.135   8.792   6.750
 9570POPC   C3B65637  28.198   8.850   7.050
 9570POPC   C4B65638  28.178   8.779   7.350
 9571POPC   NC365639  29.175  29.134   5.550
 9571POPC   PO465640  29.178  29.146   5.850
 9571POPC   GL165641  29.158  29.170   6.150
 9571POPC   GL265642  29.073  29.040   6.150
 9571POPC   C1A65643  29.144  29.155   6.450
 9571POPC   D2A65644  29.097  29.109   6.750
 9571POPC   C3A65645  29.174  29.183   7.050
 9571POPC   C4A65646  29.168  29.162   7.350
 9571POPC   C1B65647  29.028  28.949   6.450
 9571POPC   C2B65648  29.023  28.952   6.750
 9571POPC   C3B65649  29.030  28.870   7.050
 9571POPC   C4B65650  29.031  28.896   7.350
 9572POPC   NC365651  19.031   0.400   5.550
 9572POPC   PO465652  19.016   0.482   5.850
 9572POPC   GL165653  19.059   0.467   6.150
 9572POPC   GL265654  19.153   0.504   6.150
 9572POPC   C1A65655  19.097   0.413   6.450
 9572POPC   D2A65656  19.092   0.409   6.750
 9572POPC   C3A65657  19.103   0.425   7.050
 9572POPC   C4A65658  19.053   0.450   7.350
 9572POPC   C1B65659  19.201   0.606   6.450
 9572POPC   C2B65660  19.213   0.679   6.750
 9572POPC   C3B65661  19.225   0.614   7.050
 9572POPC   C4B65662  19.237   0.685   7.350
 9573POPC   NC365663  29.191   5.092   5.550
 9573POPC   PO465664  29.157   5.087   5.850
 9573POPC   GL165665  29.148   5.110   6.150
 9573POPC   GL265666  29.059   5.167   6.150
 9573POPC   C1A65667  29.164   5.060   6.450
 9573POPC   D2A65668  29.128   5.143   6.750
 9573POPC   C3A65669  29.173   5.051   7.050
 9573POPC   C4A65670  29.146   5.096   7.350
 9573POPC   C1B65671  28.972   5.277   6.450
 9573POPC   C2B65672  28.963   5.204   6.750
 9573POPC   C3B65673  28.926   5.230   7.050
 9573POPC   C4B65674  28.974   5.232   7.350
 9574POPC   NC365675  25.219  37.641   5.550
 9574POPC   PO465676  25.297  37.641   5.850
 9574POPC   GL165677  25.278  37.640   6.150
 9574POPC   GL265678  25.186  37.807   6.150
 9574POPC   C1A65679  25.307  37.710   6.450
 9574POPC   D2A65680  25.235  37.708   6.750
 9574POPC   C3A65681  25.312  37.725   7.050
 9574POPC   C4A65682  25.236  37.678   7.350
 9574POPC   C1B65683  25.083  37.822   6.450
 9574POPC   C2B65684  25.048  37.856   6.750
 9574POPC   C3B65685  25.103  37.849   7.050
 9574POPC   C4B65686  25.103  37.889   7.350
 9575POPC   NC365687  27.547  15.976   5.550
 9575POPC   PO465688  27.609  15.936   5.850
 9575POPC   GL165689  27.591  15.907   6.150
 9575POPC   GL265690  27.516  15.881   6.150
 9575POPC   C1A65691  27.571  15.944   6.450
 9575POPC   D2A65692  27.631  15.913   6.750
 9575POPC   C3A65693  27.564  16.004   7.050
 9575POPC   C4A65694  27.617  15.939   7.350
 9575POPC   C1B65695  27.398  15.853   6.450
 9575POPC   C2B65696  27.352  15.774   6.750
 9575POPC   C3B65697  27.338  15.862   7.050
 9575POPC   C4B65698  27.414  15.820   7.350
 9576POPC   NC365699  22.946   8.207   5.550
 9576POPC   PO465700  22.896   8.188   5.850
 9576POPC   GL165701  22.982   8.245   6.150
 9576POPC   GL265702  22.849   8.261   6.150
 9576POPC   C1A65703  22.897   8.183   6.450
 9576POPC   D2A65704  22.946   8.172   6.750
 9576POPC   C3A65705  22.984   8.244   7.050
 9576POPC   C4A65706  22.956   8.245   7.350
 9576POPC   C1B65707  22.696   8.277   6.450
 9576POPC   C2B65708  22.681   8.269   6.750
 9576POPC   C3B65709  22.680   8.326   7.050
 9576POPC   C4B65710  22.762   8.294   7.350
 9577POPC   NC365711  24.495  37.711   5.550
 9577POPC   PO465712  24.480  37.694   5.850
 9577POPC   GL165713  24.485  37.631   6.150
 9577POPC   GL265714  24.613  37.703   6.150
 9577POPC   C1A65715  24.448  37.675   6.450
 9577POPC   D2A65716  24.500  37.719   6.750
 9577POPC   C3A65717  24.538  37.649   7.050
 9577POPC   C4A65718  24.539  37.678   7.350
 9577POPC   C1B65719  24.766  37.756   6.450
 9577POPC   C2B65720  24.773  37.803   6.750
 9577POPC   C3B65721  24.760  37.773   7.050
 9577POPC   C4B65722  24.732  37.743   7.350
 9578POPC   NC365723   2.780  24.535   5.550
 9578POPC   PO465724   2.742  24.513   5.850
 9578POPC   GL165725   2.802  24.485   6.150
 9578POPC   GL265726   2.831  24.546   6.150
 9578POPC   C1A65727   2.755  24.440   6.450
 9578POPC   D2A65728   2.755  24.530   6.750
 9578POPC   C3A65729   2.772  24.522   7.050
 9578POPC   C4A65730   2.811  24.475   7.350
 9578POPC   C1B65731   3.020  24.612   6.450
 9578POPC   C2B65732   3.033  24.550   6.750
 9578POPC   C3B65733   3.007  24.573   7.050
 9578POPC   C4B65734   2.982  24.615   7.350
 9579POPC   NC365735  17.542   5.829   5.550
 9579POPC   PO465736  17.475   5.850   5.850
 9579POPC   GL165737  17.555   5.833   6.150
 9579POPC   GL265738  17.538   5.732   6.150
 9579POPC   C1A65739  17.481   5.864   6.450
 9579POPC   D2A65740  17.503   5.899   6.750
 9579POPC   C3A65741  17.478   5.833   7.050
 9579POPC   C4A65742  17.522   5.886   7.350
 9579POPC   C1B65743  17.644   5.714   6.450
 9579POPC   C2B65744  17.627   5.689   6.750
 9579POPC   C3B65745  17.689   5.641   7.050
 9579POPC   C4B65746  17.655   5.630   7.350
 9580POPC   NC365747  29.919  12.060   5.550
 9580POPC   PO465748  29.951  12.035   5.850
 9580POPC   GL165749  29.924  12.032   6.150
 9580POPC   GL265750  29.952  11.930   6.150
 9580POPC   C1A65751  29.930  12.062   6.450
 9580POPC   D2A65752  29.913  12.053   6.750
 9580POPC   C3A65753  29.959  12.105   7.050
 9580POPC   C4A65754  29.914  12.047   7.350
 9580POPC   C1B65755  30.016  11.861   6.450
 9580POPC   C2B65756  30.084  11.863   6.750
 9580POPC   C3B65757  30.042  11.863   7.050
 9580POPC   C4B65758  29.994  11.863   7.350
 9581POPC   NC365759   0.478  40.746   5.550
 9581POPC   PO465760   0.396  40.825   5.850
 9581POPC   GL165761   0.399  40.782   6.150
 9581POPC   GL265762   0.290  40.755   6.150
 9581POPC   C1A65763   0.477  40.777   6.450
 9581POPC   D2A65764   0.477  40.823   6.750
 9581POPC   C3A65765   0.401  40.761   7.050
 9581POPC   C4A65766   0.436  40.821   7.350
 9581POPC   C1B65767   0.226  40.690   6.450
 9581POPC   C2B65768   0.183  40.767   6.750
 9581POPC   C3B65769   0.218  40.717   7.050
 9581POPC   C4B65770   0.178  40.754   7.350
 9582POPC   NC365771  12.116  18.291   5.550
 9582POPC   PO465772  12.115  18.314   5.850
 9582POPC   GL165773  12.068  18.320   6.150
 9582POPC   GL265774  12.138  18.417   6.150
 9582POPC   C1A65775  12.042  18.267   6.450
 9582POPC   D2A65776  12.037  18.317   6.750
 9582POPC   C3A65777  12.119  18.300   7.050
 9582POPC   C4A65778  12.111  18.332   7.350
 9582POPC   C1B65779  12.164  18.489   6.450
 9582POPC   C2B65780  12.136  18.570   6.750
 9582POPC   C3B65781  12.148  18.531   7.050
 9582POPC   C4B65782  12.162  18.530   7.350
 9583POPC   NC365783  11.286   3.541   5.550
 9583POPC   PO465784  11.342   3.500   5.850
 9583POPC   GL165785  11.315   3.538   6.150
 9583POPC   GL265786  11.313   3.465   6.150
 9583POPC   C1A65787  11.313   3.564   6.450
 9583POPC   D2A65788  11.283   3.570   6.750
 9583POPC   C3A65789  11.326   3.561   7.050
 9583POPC   C4A65790  11.311   3.499   7.350
 9583POPC   C1B65791  11.462   3.274   6.450
 9583POPC   C2B65792  11.463   3.317   6.750
 9583POPC   C3B65793  11.366   3.274   7.050
 9583POPC   C4B65794  11.410   3.349   7.350
 9584POPC   NC365795  15.994  32.215   5.550
 9584POPC   PO465796  15.961  32.297   5.850
 9584POPC   GL165797  15.907  32.247   6.150
 9584POPC   GL265798  16.036  32.222   6.150
 9584POPC   C1A65799  15.945  32.270   6.450
 9584POPC   D2A65800  15.964  32.238   6.750
 9584POPC   C3A65801  15.994  32.275   7.050
 9584POPC   C4A65802  15.909  32.275   7.350
 9584POPC   C1B65803  16.234  32.216   6.450
 9584POPC   C2B65804  16.237  32.205   6.750
 9584POPC   C3B65805  16.207  32.285   7.050
 9584POPC   C4B65806  16.189  32.270   7.350
 9585POPC   NC365807  44.695  22.205   5.550
 9585POPC   PO465808  44.684  22.203   5.850
 9585POPC   GL165809  44.656  22.170   6.150
 9585POPC   GL265810  44.515  22.188   6.150
 9585POPC   C1A65811  44.646  22.119   6.450
 9585POPC   D2A65812  44.625  22.186   6.750
 9585POPC   C3A65813  44.631  22.194   7.050
 9585POPC   C4A65814  44.650  22.141   7.350
 9585POPC   C1B65815  44.398  22.300   6.450
 9585POPC   C2B65816  44.463  22.229   6.750
 9585POPC   C3B65817  44.441  22.213   7.050
 9585POPC   C4B65818  44.423  22.220   7.350
 9586POPC   NC365819  42.298  19.080   5.550
 9586POPC   PO465820  42.311  19.104   5.850
 9586POPC   GL165821  42.296  19.081   6.150
 9586POPC   GL265822  42.229  19.059   6.150
 9586POPC   C1A65823  42.335  19.100   6.450
 9586POPC   D2A65824  42.321  19.055   6.750
 9586POPC   C3A65825  42.307  19.049   7.050
 9586POPC   C4A65826  42.316  19.026   7.350
 9586POPC   C1B65827  42.129  19.085   6.450
 9586POPC   C2B65828  42.125  19.083   6.750
 9586POPC   C3B65829  42.069  19.024   7.050
 9586POPC   C4B65830  42.068  19.015   7.350
 9587POPC   NC365831  18.262   6.633   5.550
 9587POPC   PO465832  18.285   6.609   5.850
 9587POPC   GL165833  18.283   6.639   6.150
 9587POPC   GL265834  18.415   6.678   6.150
 9587POPC   C1A65835  18.292   6.641   6.450
 9587POPC   D2A65836  18.321   6.647   6.750
 9587POPC   C3A65837  18.283   6.665   7.050
 9587POPC   C4A65838  18.322   6.661   7.350
 9587POPC   C1B65839  18.472   6.714   6.450
 9587POPC   C2B65840  18.528   6.701   6.750
 9587POPC   C3B65841  18.512   6.687   7.050
 9587POPC   C4B65842  18.535   6.763   7.350
 9588POPC   NC365843  36.086  36.175   5.550
 9588POPC   PO465844  36.139  36.157   5.850
 9588POPC   GL165845  36.119  36.092   6.150
 9588POPC   GL265846  36.228  36.030   6.150
 9588POPC   C1A65847  36.109  36.107   6.450
 9588POPC   D2A65848  36.095  36.114   6.750
 9588POPC   C3A65849  36.172  36.136   7.050
 9588POPC   C4A65850  36.110  36.082   7.350
 9588POPC   C1B65851  36.360  35.982   6.450
 9588POPC   C2B65852  36.350  35.973   6.750
 9588POPC   C3B65853  36.278  35.950   7.050
 9588POPC   C4B65854  36.334  35.996   7.350
 9589POPC   NC365855  35.305  43.890   5.550
 9589POPC   PO465856  35.387  43.896   5.850
 9589POPC   GL165857  35.310  43.877   6.150
 9589POPC   GL265858  35.305  44.032   6.150
 9589POPC   C1A65859  35.396  43.842   6.450
 9589POPC   D2A65860  35.367  43.844   6.750
 9589POPC   C3A65861  35.309  43.905   7.050
 9589POPC   C4A65862  35.371  43.894   7.350
 9589POPC   C1B65863  35.309  44.111   6.450
 9589POPC   C2B65864  35.251  44.137   6.750
 9589POPC   C3B65865  35.244  44.132   7.050
 9589POPC   C4B65866  35.235  44.073   7.350
 9590POPC   NC365867   3.520  20.607   5.550
 9590POPC   PO465868   3.549  20.626   5.850
 9590POPC   GL165869   3.512  20.587   6.150
 9590POPC   GL265870   3.626  20.726   6.150
 9590POPC   C1A65871   3.527  20.616   6.450
 9590POPC   D2A65872   3.569  20.578   6.750
 9590POPC   C3A65873   3.497  20.562   7.050
 9590POPC   C4A65874   3.570  20.623   7.350
 9590POPC   C1B65875   3.699  20.766   6.450
 9590POPC   C2B65876   3.745  20.772   6.750
 9590POPC   C3B65877   3.700  20.741   7.050
 9590POPC   C4B65878   3.769  20.791   7.350
 9591POPC   NC365879  19.832  39.256   5.550
 9591POPC   PO465880  19.848  39.217   5.850
 9591POPC   GL165881  19.832  39.200   6.150
 9591POPC   GL265882  19.915  39.208   6.150
 9591POPC   C1A65883  19.873  39.257   6.450
 9591POPC   D2A65884  19.851  39.246   6.750
 9591POPC   C3A65885  19.793  39.254   7.050
 9591POPC   C4A65886  19.852  39.209   7.350
 9591POPC   C1B65887  20.004  39.094   6.450
 9591POPC   C2B65888  20.101  39.159   6.750
 9591POPC   C3B65889  20.050  39.160   7.050
 9591POPC   C4B65890  20.060  39.111   7.350
 9592POPC   NC365891  25.306  14.368   5.550
 9592POPC   PO465892  25.221  14.384   5.850
 9592POPC   GL165893  25.266  14.382   6.150
 9592POPC   GL265894  25.337  14.455   6.150
 9592POPC   C1A65895  25.286  14.390   6.450
 9592POPC   D2A65896  25.233  14.397   6.750
 9592POPC   C3A65897  25.242  14.418   7.050
 9592POPC   C4A65898  25.294  14.406   7.350
 9592POPC   C1B65899  25.452  14.514   6.450
 9592POPC   C2B65900  25.417  14.538   6.750
 9592POPC   C3B65901  25.428  14.568   7.050
 9592POPC   C4B65902  25.504  14.534   7.350
 9593POPC   NC365903  10.509  11.260   5.550
 9593POPC   PO465904  10.500  11.323   5.850
 9593POPC   GL165905  10.531  11.271   6.150
 9593POPC   GL265906  10.447  11.443   6.150
 9593POPC   C1A65907  10.547  11.347   6.450
 9593POPC   D2A65908  10.511  11.259   6.750
 9593POPC   C3A65909  10.524  11.282   7.050
 9593POPC   C4A65910  10.479  11.306   7.350
 9593POPC   C1B65911  10.416  11.506   6.450
 9593POPC   C2B65912  10.397  11.525   6.750
 9593POPC   C3B65913  10.414  11.551   7.050
 9593POPC   C4B65914  10.334  11.483   7.350
 9594POPC   NC365915   2.745   5.895   5.550
 9594POPC   PO465916   2.768   5.868   5.850
 9594POPC   GL165917   2.763   5.879   6.150
 9594POPC   GL265918   2.682   5.704   6.150
 9594POPC   C1A65919   2.785   5.908   6.450
 9594POPC   D2A65920   2.746   5.882   6.750
 9594POPC   C3A65921   2.800   5.843   7.050
 9594POPC   C4A65922   2.729   5.837   7.350
 9594POPC   C1B65923   2.674   5.665   6.450
 9594POPC   C2B65924   2.632   5.681   6.750
 9594POPC   C3B65925   2.718   5.684   7.050
 9594POPC   C4B65926   2.637   5.665   7.350
 9595POPC   NC365927   8.987  37.667   5.550
 9595POPC   PO465928   9.022  37.728   5.850
 9595POPC   GL165929   8.926  37.659   6.150
 9595POPC   GL265930   9.081  37.699   6.150
 9595POPC   C1A65931   8.991  37.679   6.450
 9595POPC   D2A65932   8.980  37.714   6.750
 9595POPC   C3A65933   8.956  37.713   7.050
 9595POPC   C4A65934   8.971  37.650   7.350
 9595POPC   C1B65935   9.228  37.757   6.450
 9595POPC   C2B65936   9.228  37.712   6.750
 9595POPC   C3B65937   9.232  37.664   7.050
 9595POPC   C4B65938   9.247  37.742   7.350
 9596POPC   NC365939  36.107  40.797   5.550
 9596POPC   PO465940  36.135  40.793   5.850
 9596POPC   GL165941  36.143  40.830   6.150
 9596POPC   GL265942  36.005  40.827   6.150
 9596POPC   C1A65943  36.107  40.765   6.450
 9596POPC   D2A65944  36.126  40.819   6.750
 9596POPC   C3A65945  36.081  40.826   7.050
 9596POPC   C4A65946  36.079  40.832   7.350
 9596POPC   C1B65947  35.882  40.867   6.450
 9596POPC   C2B65948  35.881  40.931   6.750
 9596POPC   C3B65949  35.871  40.869   7.050
 9596POPC   C4B65950  35.960  40.926   7.350
 9597POPC   NC365951   0.401  12.845   5.550
 9597POPC   PO465952   0.457  12.810   5.850
 9597POPC   GL165953   0.425  12.889   6.150
 9597POPC   GL265954   0.571  12.889   6.150
 9597POPC   C1A65955   0.440  12.868   6.450
 9597POPC   D2A65956   0.460  12.827   6.750
 9597POPC   C3A65957   0.390  12.818   7.050
 9597POPC   C4A65958   0.406  12.829   7.350
 9597POPC   C1B65959   0.642  13.024   6.450
 9597POPC   C2B65960   0.646  13.024   6.750
 9597POPC   C3B65961   0.651  13.066   7.050
 9597POPC   C4B65962   0.620  12.979   7.350
 9598POPC   NC365963   3.537  25.308   5.550
 9598POPC   PO465964   3.541  25.224   5.850
 9598POPC   GL165965   3.590  25.297   6.150
 9598POPC   GL265966   3.464  25.383   6.150
 9598POPC   C1A65967   3.492  25.222   6.450
 9598POPC   D2A65968   3.567  25.287   6.750
 9598POPC   C3A65969   3.512  25.276   7.050
 9598POPC   C4A65970   3.588  25.291   7.350
 9598POPC   C1B65971   3.358  25.441   6.450
 9598POPC   C2B65972   3.371  25.488   6.750
 9598POPC   C3B65973   3.351  25.441   7.050
 9598POPC   C4B65974   3.374  25.401   7.350
 9599POPC   NC365975   2.784   6.617   5.550
 9599POPC   PO465976   2.755   6.620   5.850
 9599POPC   GL165977   2.767   6.604   6.150
 9599POPC   GL265978   2.610   6.713   6.150
 9599POPC   C1A65979   2.759   6.688   6.450
 9599POPC   D2A65980   2.776   6.606   6.750
 9599POPC   C3A65981   2.766   6.595   7.050
 9599POPC   C4A65982   2.776   6.657   7.350
 9599POPC   C1B65983   2.498   6.673   6.450
 9599POPC   C2B65984   2.478   6.646   6.750
 9599POPC   C3B65985   2.542   6.662   7.050
 9599POPC   C4B65986   2.489   6.723   7.350
 9600POPC   NC365987  22.131   5.908   5.550
 9600POPC   PO465988  22.173   5.914   5.850
 9600POPC   GL165989  22.159   5.916   6.150
 9600POPC   GL265990  22.214   5.741   6.150
 9600POPC   C1A65991  22.121   5.852   6.450
 9600POPC   D2A65992  22.114   5.890   6.750
 9600POPC   C3A65993  22.185   5.868   7.050
 9600POPC   C4A65994  22.167   5.913   7.350
 9600POPC   C1B65995  22.215   5.610   6.450
 9600POPC   C2B65996  22.280   5.645   6.750
 9600POPC   C3B65997  22.230   5.667   7.050
 9600POPC   C4B65998  22.240   5.667   7.350
 9601POPC   NC365999  42.291  37.719   5.550
 9601POPC   PO466000  42.292  37.631   5.850
 9601POPC   GL166001  42.289  37.708   6.150
 9601POPC   GL266002  42.342  37.810   6.150
 9601POPC   C1A66003  42.341  37.637   6.450
 9601POPC   D2A66004  42.288  37.645   6.750
 9601POPC   C3A66005  42.380  37.684   7.050
 9601POPC   C4A66006  42.322  37.659   7.350
 9601POPC   C1B66007  42.334  37.935   6.450
 9601POPC   C2B66008  42.344  37.881   6.750
 9601POPC   C3B66009  42.384  37.890   7.050
 9601POPC   C4B66010  42.366  37.891   7.350
 9602POPC   NC366011   1.971  33.804   5.550
 9602POPC   PO466012   1.980  33.813   5.850
 9602POPC   GL166013   1.965  33.767   6.150
 9602POPC   GL266014   2.041  33.660   6.150
 9602POPC   C1A66015   1.988  33.784   6.450
 9602POPC   D2A66016   1.988  33.795   6.750
 9602POPC   C3A66017   2.037  33.802   7.050
 9602POPC   C4A66018   2.007  33.826   7.350
 9602POPC   C1B66019   2.127  33.592   6.450
 9602POPC   C2B66020   2.149  33.566   6.750
 9602POPC   C3B66021   2.100  33.612   7.050
 9602POPC   C4B66022   2.070  33.563   7.350
 9603POPC   NC366023  19.105   8.163   5.550
 9603POPC   PO466024  19.100   8.160   5.850
 9603POPC   GL166025  19.063   8.244   6.150
 9603POPC   GL266026  18.972   8.121   6.150
 9603POPC   C1A66027  19.069   8.208   6.450
 9603POPC   D2A66028  19.052   8.163   6.750
 9603POPC   C3A66029  19.029   8.218   7.050
 9603POPC   C4A66030  19.024   8.163   7.350
 9603POPC   C1B66031  18.835   8.176   6.450
 9603POPC   C2B66032  18.853   8.107   6.750
 9603POPC   C3B66033  18.836   8.132   7.050
 9603POPC   C4B66034  18.854   8.138   7.350
 9604POPC   NC366035  33.036  15.199   5.550
 9604POPC   PO466036  33.073  15.188   5.850
 9604POPC   GL166037  33.020  15.189   6.150
 9604POPC   GL266038  32.953  15.103   6.150
 9604POPC   C1A66039  33.047  15.200   6.450
 9604POPC   D2A66040  33.056  15.199   6.750
 9604POPC   C3A66041  33.064  15.225   7.050
 9604POPC   C4A66042  33.003  15.165   7.350
 9604POPC   C1B66043  32.962  14.922   6.450
 9604POPC   C2B66044  33.011  14.893   6.750
 9604POPC   C3B66045  32.983  14.950   7.050
 9604POPC   C4B66046  33.001  14.972   7.350
 9605POPC   NC366047   0.460   0.412   5.550
 9605POPC   PO466048   0.480   0.424   5.850
 9605POPC   GL166049   0.452   0.390   6.150
 9605POPC   GL266050   0.540   0.345   6.150
 9605POPC   C1A66051   0.421   0.433   6.450
 9605POPC   D2A66052   0.480   0.402   6.750
 9605POPC   C3A66053   0.464   0.484   7.050
 9605POPC   C4A66054   0.445   0.466   7.350
 9605POPC   C1B66055   0.654   0.242   6.450
 9605POPC   C2B66056   0.671   0.268   6.750
 9605POPC   C3B66057   0.619   0.283   7.050
 9605POPC   C4B66058   0.601   0.279   7.350
 9606POPC   NC366059  15.181  19.026   5.550
 9606POPC   PO466060  15.215  19.022   5.850
 9606POPC   GL166061  15.175  19.065   6.150
 9606POPC   GL266062  15.103  19.078   6.150
 9606POPC   C1A66063  15.191  19.107   6.450
 9606POPC   D2A66064  15.133  19.086   6.750
 9606POPC   C3A66065  15.196  19.101   7.050
 9606POPC   C4A66066  15.169  19.059   7.350
 9606POPC   C1B66067  14.966  19.096   6.450
 9606POPC   C2B66068  14.983  19.184   6.750
 9606POPC   C3B66069  14.963  19.184   7.050
 9606POPC   C4B66070  14.952  19.140   7.350
 9607POPC   NC366071  29.182  43.112   5.550
 9607POPC   PO466072  29.102  43.136   5.850
 9607POPC   GL166073  29.150  43.089   6.150
 9607POPC   GL266074  29.194  42.977   6.150
 9607POPC   C1A66075  29.176  43.079   6.450
 9607POPC   D2A66076  29.109  43.156   6.750
 9607POPC   C3A66077  29.172  43.095   7.050
 9607POPC   C4A66078  29.108  43.076   7.350
 9607POPC   C1B66079  29.220  42.833   6.450
 9607POPC   C2B66080  29.197  42.915   6.750
 9607POPC   C3B66081  29.191  42.841   7.050
 9607POPC   C4B66082  29.241  42.842   7.350
 9608POPC   NC366083  33.074  14.392   5.550
 9608POPC   PO466084  33.024  14.355   5.850
 9608POPC   GL166085  32.986  14.423   6.150
 9608POPC   GL266086  32.897  14.331   6.150
 9608POPC   C1A66087  33.002  14.432   6.450
 9608POPC   D2A66088  33.011  14.393   6.750
 9608POPC   C3A66089  33.001  14.355   7.050
 9608POPC   C4A66090  33.014  14.390   7.350
 9608POPC   C1B66091  32.834  14.309   6.450
 9608POPC   C2B66092  32.866  14.259   6.750
 9608POPC   C3B66093  32.849  14.281   7.050
 9608POPC   C4B66094  32.801  14.271   7.350
 9609POPC   NC366095  17.472  15.208   5.550
 9609POPC   PO466096  17.471  15.176   5.850
 9609POPC   GL166097  17.466  15.152   6.150
 9609POPC   GL266098  17.617  15.277   6.150
 9609POPC   C1A66099  17.504  15.164   6.450
 9609POPC   D2A66100  17.540  15.201   6.750
 9609POPC   C3A66101  17.475  15.169   7.050
 9609POPC   C4A66102  17.514  15.177   7.350
 9609POPC   C1B66103  17.639  15.373   6.450
 9609POPC   C2B66104  17.676  15.359   6.750
 9609POPC   C3B66105  17.618  15.378   7.050
 9609POPC   C4B66106  17.673  15.400   7.350
 9610POPC   NC366107  44.630   1.236   5.550
 9610POPC   PO466108  44.688   1.239   5.850
 9610POPC   GL166109  44.693   1.166   6.150
 9610POPC   GL266110  44.791   1.295   6.150
 9610POPC   C1A66111  44.698   1.210   6.450
 9610POPC   D2A66112  44.704   1.205   6.750
 9610POPC   C3A66113  44.667   1.170   7.050
 9610POPC   C4A66114  44.700   1.212   7.350
 9610POPC   C1B66115  44.884   1.383   6.450
 9610POPC   C2B66116  44.873   1.392   6.750
 9610POPC   C3B66117  44.810   1.321   7.050
 9610POPC   C4B66118  44.865   1.357   7.350
 9611POPC   NC366119  12.804  42.364   5.550
 9611POPC   PO466120  12.888  42.300   5.850
 9611POPC   GL166121  12.808  42.293   6.150
 9611POPC   GL266122  12.805  42.409   6.150
 9611POPC   C1A66123  12.886  42.373   6.450
 9611POPC   D2A66124  12.873  42.308   6.750
 9611POPC   C3A66125  12.817  42.353   7.050
 9611POPC   C4A66126  12.855  42.336   7.350
 9611POPC   C1B66127  12.739  42.544   6.450
 9611POPC   C2B66128  12.701  42.555   6.750
 9611POPC   C3B66129  12.749  42.568   7.050
 9611POPC   C4B66130  12.767  42.593   7.350
 9612POPC   NC366131   9.736  30.693   5.550
 9612POPC   PO466132   9.748  30.717   5.850
 9612POPC   GL166133   9.714  30.699   6.150
 9612POPC   GL266134   9.863  30.784   6.150
 9612POPC   C1A66135   9.749  30.670   6.450
 9612POPC   D2A66136   9.764  30.657   6.750
 9612POPC   C3A66137   9.754  30.701   7.050
 9612POPC   C4A66138   9.790  30.647   7.350
 9612POPC   C1B66139  10.010  30.868   6.450
 9612POPC   C2B66140  10.009  30.856   6.750
 9612POPC   C3B66141   9.937  30.780   7.050
 9612POPC   C4B66142   9.975  30.811   7.350
 9613POPC   NC366143  32.214  32.240   5.550
 9613POPC   PO466144  32.275  32.205   5.850
 9613POPC   GL166145  32.253  32.238   6.150
 9613POPC   GL266146  32.214  32.113   6.150
 9613POPC   C1A66147  32.210  32.266   6.450
 9613POPC   D2A66148  32.295  32.204   6.750
 9613POPC   C3A66149  32.287  32.291   7.050
 9613POPC   C4A66150  32.241  32.246   7.350
 9613POPC   C1B66151  32.149  31.984   6.450
 9613POPC   C2B66152  32.161  31.976   6.750
 9613POPC   C3B66153  32.168  32.047   7.050
 9613POPC   C4B66154  32.160  32.023   7.350
 9614POPC   NC366155  40.045   8.158   5.550
 9614POPC   PO466156  39.958   8.202   5.850
 9614POPC   GL166157  39.997   8.209   6.150
 9614POPC   GL266158  39.926   8.085   6.150
 9614POPC   C1A66159  40.001   8.225   6.450
 9614POPC   D2A66160  40.031   8.179   6.750
 9614POPC   C3A66161  40.044   8.149   7.050
 9614POPC   C4A66162  40.021   8.156   7.350
 9614POPC   C1B66163  39.855   7.989   6.450
 9614POPC   C2B66164  39.940   7.976   6.750
 9614POPC   C3B66165  39.921   7.998   7.050
 9614POPC   C4B66166  39.917   7.941   7.350
 9615POPC   NC366167  29.183  35.333   5.550
 9615POPC   PO466168  29.155  35.306   5.850
 9615POPC   GL166169  29.174  35.321   6.150
 9615POPC   GL266170  29.281  35.407   6.150
 9615POPC   C1A66171  29.115  35.389   6.450
 9615POPC   D2A66172  29.163  35.399   6.750
 9615POPC   C3A66173  29.130  35.339   7.050
 9615POPC   C4A66174  29.151  35.315   7.350
 9615POPC   C1B66175  29.370  35.458   6.450
 9615POPC   C2B66176  29.360  35.531   6.750
 9615POPC   C3B66177  29.326  35.500   7.050
 9615POPC   C4B66178  29.301  35.466   7.350
 9616POPC   NC366179  13.594  40.054   5.550
 9616POPC   PO466180  13.676  40.027   5.850
 9616POPC   GL166181  13.588  39.967   6.150
 9616POPC   GL266182  13.608  40.142   6.150
 9616POPC   C1A66183  13.591  39.966   6.450
 9616POPC   D2A66184  13.612  39.972   6.750
 9616POPC   C3A66185  13.676  39.998   7.050
 9616POPC   C4A66186  13.586  40.039   7.350
 9616POPC   C1B66187  13.640  40.256   6.450
 9616POPC   C2B66188  13.694  40.219   6.750
 9616POPC   C3B66189  13.636  40.252   7.050
 9616POPC   C4B66190  13.677  40.281   7.350
 9617POPC   NC366191  39.267  22.165   5.550
 9617POPC   PO466192  39.232  22.147   5.850
 9617POPC   GL166193  39.253  22.169   6.150
 9617POPC   GL266194  39.158  22.067   6.150
 9617POPC   C1A66195  39.274  22.204   6.450
 9617POPC   D2A66196  39.217  22.187   6.750
 9617POPC   C3A66197  39.260  22.150   7.050
 9617POPC   C4A66198  39.274  22.169   7.350
 9617POPC   C1B66199  39.126  21.940   6.450
 9617POPC   C2B66200  39.124  21.939   6.750
 9617POPC   C3B66201  39.079  21.968   7.050
 9617POPC   C4B66202  39.108  21.896   7.350
 9618POPC   NC366203   2.806  14.393   5.550
 9618POPC   PO466204   2.793  14.390   5.850
 9618POPC   GL166205   2.751  14.382   6.150
 9618POPC   GL266206   2.700  14.531   6.150
 9618POPC   C1A66207   2.779  14.443   6.450
 9618POPC   D2A66208   2.762  14.428   6.750
 9618POPC   C3A66209   2.724  14.398   7.050
 9618POPC   C4A66210   2.767  14.369   7.350
 9618POPC   C1B66211   2.589  14.589   6.450
 9618POPC   C2B66212   2.648  14.637   6.750
 9618POPC   C3B66213   2.667  14.640   7.050
 9618POPC   C4B66214   2.668  14.654   7.350
 9619POPC   NC366215   0.413   1.191   5.550
 9619POPC   PO466216   0.398   1.243   5.850
 9619POPC   GL166217   0.395   1.192   6.150
 9619POPC   GL266218   0.348   1.094   6.150
 9619POPC   C1A66219   0.430   1.239   6.450
 9619POPC   D2A66220   0.398   1.254   6.750
 9619POPC   C3A66221   0.462   1.172   7.050
 9619POPC   C4A66222   0.443   1.261   7.350
 9619POPC   C1B66223   0.202   1.022   6.450
 9619POPC   C2B66224   0.211   1.085   6.750
 9619POPC   C3B66225   0.221   1.044   7.050
 9619POPC   C4B66226   0.254   1.101   7.350
 9620POPC   NC366227  17.488  34.608   5.550
 9620POPC   PO466228  17.514  34.622   5.850
 9620POPC   GL166229  17.470  34.621   6.150
 9620POPC   GL266230  17.383  34.655   6.150
 9620POPC   C1A66231  17.531  34.598   6.450
 9620POPC   D2A66232  17.514  34.555   6.750
 9620POPC   C3A66233  17.486  34.533   7.050
 9620POPC   C4A66234  17.547  34.594   7.350
 9620POPC   C1B66235  17.310  34.688   6.450
 9620POPC   C2B66236  17.313  34.688   6.750
 9620POPC   C3B66237  17.330  34.702   7.050
 9620POPC   C4B66238  17.269  34.687   7.350
 9621POPC   NC366239   0.434  36.087   5.550
 9621POPC   PO466240   0.450  36.082   5.850
 9621POPC   GL166241   0.483  36.123   6.150
 9621POPC   GL266242   0.414  36.000   6.150
 9621POPC   C1A66243   0.417  36.123   6.450
 9621POPC   D2A66244   0.472  36.121   6.750
 9621POPC   C3A66245   0.481  36.119   7.050
 9621POPC   C4A66246   0.425  36.157   7.350
 9621POPC   C1B66247   0.475  35.885   6.450
 9621POPC   C2B66248   0.423  35.912   6.750
 9621POPC   C3B66249   0.404  35.882   7.050
 9621POPC   C4B66250   0.430  35.906   7.350
 9622POPC   NC366251  29.101  24.520   5.550
 9622POPC   PO466252  29.113  24.451   5.850
 9622POPC   GL166253  29.123  24.530   6.150
 9622POPC   GL266254  29.052  24.395   6.150
 9622POPC   C1A66255  29.189  24.443   6.450
 9622POPC   D2A66256  29.099  24.444   6.750
 9622POPC   C3A66257  29.146  24.529   7.050
 9622POPC   C4A66258  29.192  24.457   7.350
 9622POPC   C1B66259  28.936  24.362   6.450
 9622POPC   C2B66260  28.968  24.276   6.750
 9622POPC   C3B66261  28.972  24.354   7.050
 9622POPC   C4B66262  28.919  24.324   7.350
 9623POPC   NC366263  41.533  36.177   5.550
 9623POPC   PO466264  41.571  36.154   5.850
 9623POPC   GL166265  41.554  36.111   6.150
 9623POPC   GL266266  41.657  36.244   6.150
 9623POPC   C1A66267  41.525  36.133   6.450
 9623POPC   D2A66268  41.531  36.134   6.750
 9623POPC   C3A66269  41.536  36.124   7.050
 9623POPC   C4A66270  41.588  36.121   7.350
 9623POPC   C1B66271  41.725  36.260   6.450
 9623POPC   C2B66272  41.772  36.269   6.750
 9623POPC   C3B66273  41.706  36.247   7.050
 9623POPC   C4B66274  41.729  36.280   7.350
 9624POPC   NC366275  36.135   0.434   5.550
 9624POPC   PO466276  36.105   0.415   5.850
 9624POPC   GL166277  36.112   0.444   6.150
 9624POPC   GL266278  35.978   0.338   6.150
 9624POPC   C1A66279  36.100   0.390   6.450
 9624POPC   D2A66280  36.136   0.455   6.750
 9624POPC   C3A66281  36.102   0.400   7.050
 9624POPC   C4A66282  36.112   0.451   7.350
 9624POPC   C1B66283  35.912   0.317   6.450
 9624POPC   C2B66284  35.875   0.302   6.750
 9624POPC   C3B66285  35.903   0.259   7.050
 9624POPC   C4B66286  35.906   0.282   7.350
 9625POPC   NC366287   1.985  30.672   5.550
 9625POPC   PO466288   2.039  30.647   5.850
 9625POPC   GL166289   1.996  30.660   6.150
 9625POPC   GL266290   2.111  30.764   6.150
 9625POPC   C1A66291   1.953  30.671   6.450
 9625POPC   D2A66292   1.954  30.734   6.750
 9625POPC   C3A66293   2.027  30.674   7.050
 9625POPC   C4A66294   2.022  30.670   7.350
 9625POPC   C1B66295   2.199  30.816   6.450
 9625POPC   C2B66296   2.182  30.746   6.750
 9625POPC   C3B66297   2.241  30.741   7.050
 9625POPC   C4B66298   2.185  30.798   7.350
 9626POPC   NC366299  17.538  32.280   5.550
 9626POPC   PO466300  17.478  32.272   5.850
 9626POPC   GL166301  17.551  32.287   6.150
 9626POPC   GL266302  17.526  32.086   6.150
 9626POPC   C1A66303  17.464  32.223   6.450
 9626POPC   D2A66304  17.504  32.213   6.750
 9626POPC   C3A66305  17.517  32.267   7.050
 9626POPC   C4A66306  17.494  32.275   7.350
 9626POPC   C1B66307  17.622  31.995   6.450
 9626POPC   C2B66308  17.553  32.047   6.750
 9626POPC   C3B66309  17.619  31.988   7.050
 9626POPC   C4B66310  17.615  32.003   7.350
 9627POPC   NC366311  16.756   5.044   5.550
 9627POPC   PO466312  16.760   5.071   5.850
 9627POPC   GL166313  16.709   5.062   6.150
 9627POPC   GL266314  16.807   5.054   6.150
 9627POPC   C1A66315  16.755   5.052   6.450
 9627POPC   D2A66316  16.735   5.050   6.750
 9627POPC   C3A66317  16.711   5.064   7.050
 9627POPC   C4A66318  16.747   5.086   7.350
 9627POPC   C1B66319  16.962   5.070   6.450
 9627POPC   C2B66320  17.014   5.068   6.750
 9627POPC   C3B66321  16.973   5.082   7.050
 9627POPC   C4B66322  16.942   5.139   7.350
 9628POPC   NC366323  34.600  25.275   5.550
 9628POPC   PO466324  34.538  25.294   5.850
 9628POPC   GL166325  34.616  25.266   6.150
 9628POPC   GL266326  34.618  25.348   6.150
 9628POPC   C1A66327  34.560  25.282   6.450
 9628POPC   D2A66328  34.540  25.244   6.750
 9628POPC   C3A66329  34.619  25.296   7.050
 9628POPC   C4A66330  34.527  25.307   7.350
 9628POPC   C1B66331  34.613  25.546   6.450
 9628POPC   C2B66332  34.615  25.508   6.750
 9628POPC   C3B66333  34.620  25.550   7.050
 9628POPC   C4B66334  34.654  25.517   7.350
 9629POPC   NC366335   5.073  36.910   5.550
 9629POPC   PO466336   5.089  36.901   5.850
 9629POPC   GL166337   5.071  36.907   6.150
 9629POPC   GL266338   5.082  36.796   6.150
 9629POPC   C1A66339   5.113  36.895   6.450
 9629POPC   D2A66340   5.080  36.953   6.750
 9629POPC   C3A66341   5.128  36.924   7.050
 9629POPC   C4A66342   5.088  36.949   7.350
 9629POPC   C1B66343   5.021  36.653   6.450
 9629POPC   C2B66344   5.015  36.677   6.750
 9629POPC   C3B66345   5.061  36.651   7.050
 9629POPC   C4B66346   5.057  36.642   7.350
 9630POPC   NC366347  43.909  22.173   5.550
 9630POPC   PO466348  43.880  22.203   5.850
 9630POPC   GL166349  43.923  22.208   6.150
 9630POPC   GL266350  43.844  22.242   6.150
 9630POPC   C1A66351  43.855  22.196   6.450
 9630POPC   D2A66352  43.905  22.178   6.750
 9630POPC   C3A66353  43.909  22.179   7.050
 9630POPC   C4A66354  43.921  22.173   7.350
 9630POPC   C1B66355  43.814  22.386   6.450
 9630POPC   C2B66356  43.762  22.347   6.750
 9630POPC   C3B66357  43.802  22.406   7.050
 9630POPC   C4B66358  43.812  22.345   7.350
 9631POPC   NC366359   1.202  34.552   5.550
 9631POPC   PO466360   1.240  34.591   5.850
 9631POPC   GL166361   1.186  34.536   6.150
 9631POPC   GL266362   1.162  34.435   6.150
 9631POPC   C1A66363   1.249  34.537   6.450
 9631POPC   D2A66364   1.204  34.543   6.750
 9631POPC   C3A66365   1.245  34.540   7.050
 9631POPC   C4A66366   1.226  34.583   7.350
 9631POPC   C1B66367   1.210  34.296   6.450
 9631POPC   C2B66368   1.210  34.343   6.750
 9631POPC   C3B66369   1.149  34.318   7.050
 9631POPC   C4B66370   1.206  34.360   7.350
 9632POPC   NC366371  14.398  40.042   5.550
 9632POPC   PO466372  14.373  40.003   5.850
 9632POPC   GL166373  14.400  39.998   6.150
 9632POPC   GL266374  14.455  40.069   6.150
 9632POPC   C1A66375  14.413  40.032   6.450
 9632POPC   D2A66376  14.368  39.979   6.750
 9632POPC   C3A66377  14.441  40.053   7.050
 9632POPC   C4A66378  14.374  40.022   7.350
 9632POPC   C1B66379  14.599  40.229   6.450
 9632POPC   C2B66380  14.588  40.196   6.750
 9632POPC   C3B66381  14.623  40.175   7.050
 9632POPC   C4B66382  14.588  40.215   7.350
 9633POPC   NC366383  17.473  40.039   5.550
 9633POPC   PO466384  17.554  39.995   5.850
 9633POPC   GL166385  17.556  39.991   6.150
 9633POPC   GL266386  17.609  39.942   6.150
 9633POPC   C1A66387  17.519  39.997   6.450
 9633POPC   D2A66388  17.543  40.037   6.750
 9633POPC   C3A66389  17.556  40.021   7.050
 9633POPC   C4A66390  17.492  39.995   7.350
 9633POPC   C1B66391  17.746  39.899   6.450
 9633POPC   C2B66392  17.737  39.895   6.750
 9633POPC   C3B66393  17.743  39.894   7.050
 9633POPC   C4B66394  17.732  39.838   7.350
 9634POPC   NC366395  20.598  35.358   5.550
 9634POPC   PO466396  20.649  35.371   5.850
 9634POPC   GL166397  20.571  35.392   6.150
 9634POPC   GL266398  20.531  35.386   6.150
 9634POPC   C1A66399  20.648  35.343   6.450
 9634POPC   D2A66400  20.567  35.401   6.750
 9634POPC   C3A66401  20.631  35.320   7.050
 9634POPC   C4A66402  20.592  35.328   7.350
 9634POPC   C1B66403  20.383  35.411   6.450
 9634POPC   C2B66404  20.350  35.388   6.750
 9634POPC   C3B66405  20.414  35.383   7.050
 9634POPC   C4B66406  20.381  35.403   7.350
 9635POPC   NC366407  36.080  19.830   5.550
 9635POPC   PO466408  36.097  19.817   5.850
 9635POPC   GL166409  36.122  19.855   6.150
 9635POPC   GL266410  36.301  19.806   6.150
 9635POPC   C1A66411  36.145  19.838   6.450
 9635POPC   D2A66412  36.107  19.807   6.750
 9635POPC   C3A66413  36.169  19.798   7.050
 9635POPC   C4A66414  36.171  19.814   7.350
 9635POPC   C1B66415  36.420  19.787   6.450
 9635POPC   C2B66416  36.364  19.821   6.750
 9635POPC   C3B66417  36.380  19.861   7.050
 9635POPC   C4B66418  36.427  19.809   7.350
 9636POPC   NC366419  20.585  19.841   5.550
 9636POPC   PO466420  20.646  19.787   5.850
 9636POPC   GL166421  20.601  19.832   6.150
 9636POPC   GL266422  20.602  19.938   6.150
 9636POPC   C1A66423  20.579  19.815   6.450
 9636POPC   D2A66424  20.658  19.812   6.750
 9636POPC   C3A66425  20.622  19.841   7.050
 9636POPC   C4A66426  20.609  19.819   7.350
 9636POPC   C1B66427  20.725  20.081   6.450
 9636POPC   C2B66428  20.707  20.040   6.750
 9636POPC   C3B66429  20.657  20.109   7.050
 9636POPC   C4B66430  20.669  20.056   7.350
 9637POPC   NC366431  28.370   9.766   5.550
 9637POPC   PO466432  28.356   9.738   5.850
 9637POPC   GL166433  28.405   9.751   6.150
 9637POPC   GL266434  28.394   9.634   6.150
 9637POPC   C1A66435  28.321   9.775   6.450
 9637POPC   D2A66436  28.413   9.720   6.750
 9637POPC   C3A66437  28.392   9.722   7.050
 9637POPC   C4A66438  28.401   9.729   7.350
 9637POPC   C1B66439  28.451   9.502   6.450
 9637POPC   C2B66440  28.436   9.465   6.750
 9637POPC   C3B66441  28.427   9.500   7.050
 9637POPC   C4B66442  28.421   9.522   7.350
 9638POPC   NC366443  19.098   3.568   5.550
 9638POPC   PO466444  19.059   3.584   5.850
 9638POPC   GL166445  19.014   3.537   6.150
 9638POPC   GL266446  18.993   3.681   6.150
 9638POPC   C1A66447  19.045   3.537   6.450
 9638POPC   D2A66448  19.010   3.582   6.750
 9638POPC   C3A66449  19.063   3.554   7.050
 9638POPC   C4A66450  19.087   3.583   7.350
 9638POPC   C1B66451  18.944   3.765   6.450
 9638POPC   C2B66452  18.910   3.751   6.750
 9638POPC   C3B66453  18.964   3.765   7.050
 9638POPC   C4B66454  18.953   3.787   7.350
 9639POPC   NC366455  36.899  14.373   5.550
 9639POPC   PO466456  36.938  14.386   5.850
 9639POPC   GL166457  36.941  14.365   6.150
 9639POPC   GL266458  36.917  14.548   6.150
 9639POPC   C1A66459  36.877  14.365   6.450
 9639POPC   D2A66460  36.910  14.380   6.750
 9639POPC   C3A66461  36.911  14.389   7.050
 9639POPC   C4A66462  36.950  14.403   7.350
 9639POPC   C1B66463  36.975  14.675   6.450
 9639POPC   C2B66464  36.944  14.677   6.750
 9639POPC   C3B66465  36.988  14.633   7.050
 9639POPC   C4B66466  36.977  14.650   7.350
 9640POPC   NC366467  43.108   9.714   5.550
 9640POPC   PO466468  43.083   9.737   5.850
 9640POPC   GL166469  43.074   9.757   6.150
 9640POPC   GL266470  43.100   9.871   6.150
 9640POPC   C1A66471  43.121   9.710   6.450
 9640POPC   D2A66472  43.070   9.721   6.750
 9640POPC   C3A66473  43.101   9.774   7.050
 9640POPC   C4A66474  43.093   9.784   7.350
 9640POPC   C1B66475  43.044   9.958   6.450
 9640POPC   C2B66476  43.097  10.032   6.750
 9640POPC   C3B66477  43.065  10.013   7.050
 9640POPC   C4B66478  43.057  10.014   7.350
 9641POPC   NC366479   8.971  36.879   5.550
 9641POPC   PO466480   8.952  36.864   5.850
 9641POPC   GL166481   8.978  36.888   6.150
 9641POPC   GL266482   9.034  36.877   6.150
 9641POPC   C1A66483   8.945  36.913   6.450
 9641POPC   D2A66484   8.932  36.902   6.750
 9641POPC   C3A66485   9.009  36.914   7.050
 9641POPC   C4A66486   8.970  36.930   7.350
 9641POPC   C1B66487   9.203  36.779   6.450
 9641POPC   C2B66488   9.210  36.739   6.750
 9641POPC   C3B66489   9.196  36.754   7.050
 9641POPC   C4B66490   9.147  36.718   7.350
 9642POPC   NC366491   6.645   4.297   5.550
 9642POPC   PO466492   6.663   4.322   5.850
 9642POPC   GL166493   6.618   4.325   6.150
 9642POPC   GL266494   6.499   4.362   6.150
 9642POPC   C1A66495   6.626   4.324   6.450
 9642POPC   D2A66496   6.615   4.346   6.750
 9642POPC   C3A66497   6.611   4.347   7.050
 9642POPC   C4A66498   6.661   4.340   7.350
 9642POPC   C1B66499   6.391   4.400   6.450
 9642POPC   C2B66500   6.385   4.383   6.750
 9642POPC   C3B66501   6.396   4.379   7.050
 9642POPC   C4B66502   6.421   4.360   7.350
 9643POPC   NC366503  43.115  36.920   5.550
 9643POPC   PO466504  43.087  36.929   5.850
 9643POPC   GL166505  43.129  36.905   6.150
 9643POPC   GL266506  42.958  36.874   6.150
 9643POPC   C1A66507  43.072  36.952   6.450
 9643POPC   D2A66508  43.146  36.858   6.750
 9643POPC   C3A66509  43.110  36.899   7.050
 9643POPC   C4A66510  43.155  36.891   7.350
 9643POPC   C1B66511  42.858  36.769   6.450
 9643POPC   C2B66512  42.936  36.757   6.750
 9643POPC   C3B66513  42.881  36.784   7.050
 9643POPC   C4B66514  42.864  36.743   7.350
 9644POPC   NC366515  16.745  25.273   5.550
 9644POPC   PO466516  16.704  25.297   5.850
 9644POPC   GL166517  16.751  25.253   6.150
 9644POPC   GL266518  16.797  25.133   6.150
 9644POPC   C1A66519  16.732  25.305   6.450
 9644POPC   D2A66520  16.738  25.270   6.750
 9644POPC   C3A66521  16.771  25.264   7.050
 9644POPC   C4A66522  16.773  25.268   7.350
 9644POPC   C1B66523  16.786  25.068   6.450
 9644POPC   C2B66524  16.739  25.043   6.750
 9644POPC   C3B66525  16.800  25.036   7.050
 9644POPC   C4B66526  16.755  25.041   7.350
 9645POPC   NC366527  22.127  20.593   5.550
 9645POPC   PO466528  22.188  20.620   5.850
 9645POPC   GL166529  22.196  20.576   6.150
 9645POPC   GL266530  22.158  20.523   6.150
 9645POPC   C1A66531  22.195  20.655   6.450
 9645POPC   D2A66532  22.150  20.566   6.750
 9645POPC   C3A66533  22.130  20.653   7.050
 9645POPC   C4A66534  22.203  20.563   7.350
 9645POPC   C1B66535  22.177  20.327   6.450
 9645POPC   C2B66536  22.209  20.383   6.750
 9645POPC   C3B66537  22.176  20.360   7.050
 9645POPC   C4B66538  22.229  20.365   7.350
 9646POPC   NC366539  38.497  25.230   5.550
 9646POPC   PO466540  38.505  25.223   5.850
 9646POPC   GL166541  38.426  25.236   6.150
 9646POPC   GL266542  38.318  25.299   6.150
 9646POPC   C1A66543  38.491  25.313   6.450
 9646POPC   D2A66544  38.440  25.302   6.750
 9646POPC   C3A66545  38.465  25.222   7.050
 9646POPC   C4A66546  38.454  25.220   7.350
 9646POPC   C1B66547  38.211  25.284   6.450
 9646POPC   C2B66548  38.224  25.286   6.750
 9646POPC   C3B66549  38.223  25.282   7.050
 9646POPC   C4B66550  38.170  25.304   7.350
 9647POPC   NC366551  19.104   1.201   5.550
 9647POPC   PO466552  19.033   1.172   5.850
 9647POPC   GL166553  19.038   1.174   6.150
 9647POPC   GL266554  19.143   1.150   6.150
 9647POPC   C1A66555  19.018   1.259   6.450
 9647POPC   D2A66556  19.106   1.189   6.750
 9647POPC   C3A66557  19.073   1.184   7.050
 9647POPC   C4A66558  19.025   1.164   7.350
 9647POPC   C1B66559  19.251   1.074   6.450
 9647POPC   C2B66560  19.305   1.080   6.750
 9647POPC   C3B66561  19.307   1.035   7.050
 9647POPC   C4B66562  19.269   1.057   7.350
 9648POPC   NC366563  21.424   1.201   5.550
 9648POPC   PO466564  21.396   1.180   5.850
 9648POPC   GL166565  21.345   1.233   6.150
 9648POPC   GL266566  21.345   1.383   6.150
 9648POPC   C1A66567  21.386   1.226   6.450
 9648POPC   D2A66568  21.427   1.259   6.750
 9648POPC   C3A66569  21.369   1.241   7.050
 9648POPC   C4A66570  21.340   1.236   7.350
 9648POPC   C1B66571  21.307   1.461   6.450
 9648POPC   C2B66572  21.286   1.436   6.750
 9648POPC   C3B66573  21.341   1.481   7.050
 9648POPC   C4B66574  21.331   1.416   7.350
 9649POPC   NC366575  38.438  29.136   5.550
 9649POPC   PO466576  38.415  29.135   5.850
 9649POPC   GL166577  38.414  29.170   6.150
 9649POPC   GL266578  38.347  29.163   6.150
 9649POPC   C1A66579  38.454  29.097   6.450
 9649POPC   D2A66580  38.420  29.184   6.750
 9649POPC   C3A66581  38.470  29.173   7.050
 9649POPC   C4A66582  38.440  29.115   7.350
 9649POPC   C1B66583  38.164  29.179   6.450
 9649POPC   C2B66584  38.248  29.214   6.750
 9649POPC   C3B66585  38.177  29.222   7.050
 9649POPC   C4B66586  38.257  29.178   7.350
 9650POPC   NC366587  39.967  22.122   5.550
 9650POPC   PO466588  39.985  22.121   5.850
 9650POPC   GL166589  40.013  22.194   6.150
 9650POPC   GL266590  40.112  22.191   6.150
 9650POPC   C1A66591  40.021  22.195   6.450
 9650POPC   D2A66592  40.023  22.129   6.750
 9650POPC   C3A66593  40.003  22.128   7.050
 9650POPC   C4A66594  40.010  22.178   7.350
 9650POPC   C1B66595  40.222  22.146   6.450
 9650POPC   C2B66596  40.214  22.159   6.750
 9650POPC   C3B66597  40.289  22.147   7.050
 9650POPC   C4B66598  40.304  22.099   7.350
 9651POPC   NC366599   4.351  33.059   5.550
 9651POPC   PO466600   4.320  32.979   5.850
 9651POPC   GL166601   4.337  32.977   6.150
 9651POPC   GL266602   4.206  32.988   6.150
 9651POPC   C1A66603   4.351  33.008   6.450
 9651POPC   D2A66604   4.316  33.061   6.750
 9651POPC   C3A66605   4.358  33.006   7.050
 9651POPC   C4A66606   4.328  33.064   7.350
 9651POPC   C1B66607   4.089  32.946   6.450
 9651POPC   C2B66608   4.120  32.896   6.750
 9651POPC   C3B66609   4.118  32.869   7.050
 9651POPC   C4B66610   4.058  32.940   7.350
 9652POPC   NC366611  33.766  35.347   5.550
 9652POPC   PO466612  33.824  35.312   5.850
 9652POPC   GL166613  33.762  35.323   6.150
 9652POPC   GL266614  33.925  35.302   6.150
 9652POPC   C1A66615  33.827  35.328   6.450
 9652POPC   D2A66616  33.765  35.348   6.750
 9652POPC   C3A66617  33.787  35.400   7.050
 9652POPC   C4A66618  33.818  35.373   7.350
 9652POPC   C1B66619  33.965  35.131   6.450
 9652POPC   C2B66620  33.925  35.193   6.750
 9652POPC   C3B66621  34.002  35.214   7.050
 9652POPC   C4B66622  33.968  35.193   7.350
 9653POPC   NC366623  41.554   8.238   5.550
 9653POPC   PO466624  41.532   8.154   5.850
 9653POPC   GL166625  41.510   8.194   6.150
 9653POPC   GL266626  41.613   8.254   6.150
 9653POPC   C1A66627  41.528   8.193   6.450
 9653POPC   D2A66628  41.569   8.210   6.750
 9653POPC   C3A66629  41.603   8.214   7.050
 9653POPC   C4A66630  41.532   8.164   7.350
 9653POPC   C1B66631  41.723   8.354   6.450
 9653POPC   C2B66632  41.682   8.372   6.750
 9653POPC   C3B66633  41.690   8.349   7.050
 9653POPC   C4B66634  41.682   8.352   7.350
 9654POPC   NC366635  22.141   0.395   5.550
 9654POPC   PO466636  22.195   0.430   5.850
 9654POPC   GL166637  22.126   0.405   6.150
 9654POPC   GL266638  22.254   0.497   6.150
 9654POPC   C1A66639  22.140   0.418   6.450
 9654POPC   D2A66640  22.208   0.394   6.750
 9654POPC   C3A66641  22.148   0.471   7.050
 9654POPC   C4A66642  22.182   0.444   7.350
 9654POPC   C1B66643  22.333   0.677   6.450
 9654POPC   C2B66644  22.256   0.688   6.750
 9654POPC   C3B66645  22.324   0.663   7.050
 9654POPC   C4B66646  22.331   0.601   7.350
 9655POPC   NC366647  39.216   4.277   5.550
 9655POPC   PO466648  39.211   4.291   5.850
 9655POPC   GL166649  39.215   4.313   6.150
 9655POPC   GL266650  39.137   4.277   6.150
 9655POPC   C1A66651  39.211   4.302   6.450
 9655POPC   D2A66652  39.185   4.279   6.750
 9655POPC   C3A66653  39.239   4.342   7.050
 9655POPC   C4A66654  39.207   4.329   7.350
 9655POPC   C1B66655  39.015   4.132   6.450
 9655POPC   C2B66656  39.013   4.166   6.750
 9655POPC   C3B66657  39.069   4.205   7.050
 9655POPC   C4B66658  39.053   4.129   7.350
 9656POPC   NC366659   9.735  28.337   5.550
 9656POPC   PO466660   9.792  28.388   5.850
 9656POPC   GL166661   9.783  28.348   6.150
 9656POPC   GL266662   9.767  28.456   6.150
 9656POPC   C1A66663   9.758  28.397   6.450
 9656POPC   D2A66664   9.798  28.360   6.750
 9656POPC   C3A66665   9.796  28.401   7.050
 9656POPC   C4A66666   9.798  28.413   7.350
 9656POPC   C1B66667   9.839  28.624   6.450
 9656POPC   C2B66668   9.838  28.555   6.750
 9656POPC   C3B66669   9.843  28.593   7.050
 9656POPC   C4B66670   9.864  28.542   7.350
 9657POPC   NC366671   5.844   9.019   5.550
 9657POPC   PO466672   5.830   9.006   5.850
 9657POPC   GL166673   5.887   8.972   6.150
 9657POPC   GL266674   5.755   8.908   6.150
 9657POPC   C1A66675   5.874   8.960   6.450
 9657POPC   D2A66676   5.856   8.948   6.750
 9657POPC   C3A66677   5.902   8.927   7.050
 9657POPC   C4A66678   5.892   8.975   7.350
 9657POPC   C1B66679   5.676   8.733   6.450
 9657POPC   C2B66680   5.771   8.732   6.750
 9657POPC   C3B66681   5.703   8.810   7.050
 9657POPC   C4B66682   5.765   8.780   7.350
 9658POPC   NC366683  29.926   4.367   5.550
 9658POPC   PO466684  29.915   4.305   5.850
 9658POPC   GL166685  29.945   4.315   6.150
 9658POPC   GL266686  30.026   4.421   6.150
 9658POPC   C1A66687  29.942   4.268   6.450
 9658POPC   D2A66688  29.882   4.270   6.750
 9658POPC   C3A66689  29.940   4.297   7.050
 9658POPC   C4A66690  29.914   4.299   7.350
 9658POPC   C1B66691  30.098   4.525   6.450
 9658POPC   C2B66692  30.070   4.439   6.750
 9658POPC   C3B66693  30.118   4.434   7.050
 9658POPC   C4B66694  30.092   4.431   7.350
 9659POPC   NC366695  22.933  26.055   5.550
 9659POPC   PO466696  22.963  26.035   5.850
 9659POPC   GL166697  22.902  26.036   6.150
 9659POPC   GL266698  23.043  26.025   6.150
 9659POPC   C1A66699  22.957  25.998   6.450
 9659POPC   D2A66700  22.926  26.027   6.750
 9659POPC   C3A66701  22.975  26.048   7.050
 9659POPC   C4A66702  22.985  26.005   7.350
 9659POPC   C1B66703  23.180  26.075   6.450
 9659POPC   C2B66704  23.203  26.051   6.750
 9659POPC   C3B66705  23.141  26.066   7.050
 9659POPC   C4B66706  23.158  26.095   7.350
 9660POPC   NC366707  33.067  29.175   5.550
 9660POPC   PO466708  33.009  29.186   5.850
 9660POPC   GL166709  33.027  29.154   6.150
 9660POPC   GL266710  33.107  29.155   6.150
 9660POPC   C1A66711  33.006  29.129   6.450
 9660POPC   D2A66712  33.035  29.131   6.750
 9660POPC   C3A66713  32.996  29.114   7.050
 9660POPC   C4A66714  33.070  29.105   7.350
 9660POPC   C1B66715  33.229  29.111   6.450
 9660POPC   C2B66716  33.224  29.133   6.750
 9660POPC   C3B66717  33.272  29.114   7.050
 9660POPC   C4B66718  33.236  29.161   7.350
 9661POPC   NC366719  19.865  34.580   5.550
 9661POPC   PO466720  19.812  34.595   5.850
 9661POPC   GL166721  19.874  34.565   6.150
 9661POPC   GL266722  19.884  34.677   6.150
 9661POPC   C1A66723  19.822  34.591   6.450
 9661POPC   D2A66724  19.792  34.621   6.750
 9661POPC   C3A66725  19.827  34.555   7.050
 9661POPC   C4A66726  19.839  34.536   7.350
 9661POPC   C1B66727  20.000  34.732   6.450
 9661POPC   C2B66728  19.985  34.785   6.750
 9661POPC   C3B66729  20.048  34.710   7.050
 9661POPC   C4B66730  19.991  34.742   7.350
 9662POPC   NC366731  25.238  26.083   5.550
 9662POPC   PO466732  25.249  26.033   5.850
 9662POPC   GL166733  25.259  26.078   6.150
 9662POPC   GL266734  25.155  26.100   6.150
 9662POPC   C1A66735  25.229  26.081   6.450
 9662POPC   D2A66736  25.265  26.005   6.750
 9662POPC   C3A66737  25.224  26.012   7.050
 9662POPC   C4A66738  25.267  26.008   7.350
 9662POPC   C1B66739  25.023  26.174   6.450
 9662POPC   C2B66740  25.007  26.154   6.750
 9662POPC   C3B66741  25.008  26.172   7.050
 9662POPC   C4B66742  25.068  26.131   7.350
 9663POPC   NC366743  10.505   9.797   5.550
 9663POPC   PO466744  10.505   9.778   5.850
 9663POPC   GL166745  10.573   9.765   6.150
 9663POPC   GL266746  10.634   9.665   6.150
 9663POPC   C1A66747  10.559   9.787   6.450
 9663POPC   D2A66748  10.557   9.784   6.750
 9663POPC   C3A66749  10.555   9.764   7.050
 9663POPC   C4A66750  10.490   9.721   7.350
 9663POPC   C1B66751  10.656   9.540   6.450
 9663POPC   C2B66752  10.655   9.583   6.750
 9663POPC   C3B66753  10.658   9.578   7.050
 9663POPC   C4B66754  10.685   9.581   7.350
 9664POPC   NC366755  16.763   5.831   5.550
 9664POPC   PO466756  16.684   5.826   5.850
 9664POPC   GL166757  16.769   5.839   6.150
 9664POPC   GL266758  16.894   5.944   6.150
 9664POPC   C1A66759  16.711   5.850   6.450
 9664POPC   D2A66760  16.694   5.838   6.750
 9664POPC   C3A66761  16.689   5.819   7.050
 9664POPC   C4A66762  16.723   5.840   7.350
 9664POPC   C1B66763  16.940   5.980   6.450
 9664POPC   C2B66764  16.932   5.937   6.750
 9664POPC   C3B66765  16.957   5.977   7.050
 9664POPC   C4B66766  17.018   5.920   7.350
 9665POPC   NC366767  23.674  13.622   5.550
 9665POPC   PO466768  23.677  13.652   5.850
 9665POPC   GL166769  23.697  13.604   6.150
 9665POPC   GL266770  23.648  13.539   6.150
 9665POPC   C1A66771  23.721  13.646   6.450
 9665POPC   D2A66772  23.747  13.620   6.750
 9665POPC   C3A66773  23.736  13.601   7.050
 9665POPC   C4A66774  23.705  13.605   7.350
 9665POPC   C1B66775  23.472  13.499   6.450
 9665POPC   C2B66776  23.471  13.542   6.750
 9665POPC   C3B66777  23.459  13.509   7.050
 9665POPC   C4B66778  23.550  13.501   7.350
 9666POPC   NC366779  18.275   4.324   5.550
 9666POPC   PO466780  18.315   4.361   5.850
 9666POPC   GL166781  18.279   4.324   6.150
 9666POPC   GL266782  18.304   4.415   6.150
 9666POPC   C1A66783  18.286   4.285   6.450
 9666POPC   D2A66784  18.247   4.309   6.750
 9666POPC   C3A66785  18.275   4.364   7.050
 9666POPC   C4A66786  18.283   4.342   7.350
 9666POPC   C1B66787  18.219   4.611   6.450
 9666POPC   C2B66788  18.236   4.551   6.750
 9666POPC   C3B66789  18.229   4.539   7.050
 9666POPC   C4B66790  18.209   4.531   7.350
 9667POPC   NC366791   4.309  20.645   5.550
 9667POPC   PO466792   4.324  20.574   5.850
 9667POPC   GL166793   4.304  20.579   6.150
 9667POPC   GL266794   4.172  20.672   6.150
 9667POPC   C1A66795   4.294  20.646   6.450
 9667POPC   D2A66796   4.285  20.630   6.750
 9667POPC   C3A66797   4.317  20.615   7.050
 9667POPC   C4A66798   4.330  20.578   7.350
 9667POPC   C1B66799   4.083  20.648   6.450
 9667POPC   C2B66800   4.051  20.680   6.750
 9667POPC   C3B66801   4.116  20.659   7.050
 9667POPC   C4B66802   4.058  20.644   7.350
 9668POPC   NC366803   1.953  26.821   5.550
 9668POPC   PO466804   2.005  26.842   5.850
 9668POPC   GL166805   1.992  26.865   6.150
 9668POPC   GL266806   1.909  26.705   6.150
 9668POPC   C1A66807   1.982  26.772   6.450
 9668POPC   D2A66808   1.963  26.818   6.750
 9668POPC   C3A66809   1.942  26.864   7.050
 9668POPC   C4A66810   1.968  26.811   7.350
 9668POPC   C1B66811   1.797  26.581   6.450
 9668POPC   C2B66812   1.838  26.584   6.750
 9668POPC   C3B66813   1.788  26.601   7.050
 9668POPC   C4B66814   1.829  26.644   7.350
 9669POPC   NC366815  29.135  28.402   5.550
 9669POPC   PO466816  29.100  28.389   5.850
 9669POPC   GL166817  29.131  28.338   6.150
 9669POPC   GL266818  29.209  28.262   6.150
 9669POPC   C1A66819  29.148  28.369   6.450
 9669POPC   D2A66820  29.103  28.401   6.750
 9669POPC   C3A66821  29.141  28.417   7.050
 9669POPC   C4A66822  29.157  28.338   7.350
 9669POPC   C1B66823  29.287  28.133   6.450
 9669POPC   C2B66824  29.281  28.145   6.750
 9669POPC   C3B66825  29.256  28.136   7.050
 9669POPC   C4B66826  29.244  28.156   7.350
 9670POPC   NC366827   5.908   3.584   5.550
 9670POPC   PO466828   5.903   3.501   5.850
 9670POPC   GL166829   5.829   3.591   6.150
 9670POPC   GL266830   5.766   3.614   6.150
 9670POPC   C1A66831   5.907   3.510   6.450
 9670POPC   D2A66832   5.849   3.516   6.750
 9670POPC   C3A66833   5.841   3.575   7.050
 9670POPC   C4A66834   5.889   3.585   7.350
 9670POPC   C1B66835   5.729   3.686   6.450
 9670POPC   C2B66836   5.656   3.707   6.750
 9670POPC   C3B66837   5.661   3.775   7.050
 9670POPC   C4B66838   5.745   3.695   7.350
 9671POPC   NC366839  26.046  19.026   5.550
 9671POPC   PO466840  26.046  19.070   5.850
 9671POPC   GL166841  26.071  19.057   6.150
 9671POPC   GL266842  26.062  18.934   6.150
 9671POPC   C1A66843  26.043  19.017   6.450
 9671POPC   D2A66844  25.999  19.061   6.750
 9671POPC   C3A66845  26.069  19.068   7.050
 9671POPC   C4A66846  26.021  19.047   7.350
 9671POPC   C1B66847  26.217  18.815   6.450
 9671POPC   C2B66848  26.197  18.795   6.750
 9671POPC   C3B66849  26.196  18.886   7.050
 9671POPC   C4B66850  26.203  18.794   7.350
 9672POPC   NC366851  10.534  43.876   5.550
 9672POPC   PO466852  10.556  43.932   5.850
 9672POPC   GL166853  10.550  43.918   6.150
 9672POPC   GL266854  10.607  44.023   6.150
 9672POPC   C1A66855  10.544  43.859   6.450
 9672POPC   D2A66856  10.504  43.887   6.750
 9672POPC   C3A66857  10.484  43.905   7.050
 9672POPC   C4A66858  10.497  43.891   7.350
 9672POPC   C1B66859  10.602  44.095   6.450
 9672POPC   C2B66860  10.654  44.136   6.750
 9672POPC   C3B66861  10.590  44.123   7.050
 9672POPC   C4B66862  10.600  44.151   7.350
 9673POPC   NC366863  30.666  30.681   5.550
 9673POPC   PO466864  30.726  30.742   5.850
 9673POPC   GL166865  30.713  30.706   6.150
 9673POPC   GL266866  30.633  30.819   6.150
 9673POPC   C1A66867  30.689  30.694   6.450
 9673POPC   D2A66868  30.725  30.704   6.750
 9673POPC   C3A66869  30.716  30.736   7.050
 9673POPC   C4A66870  30.669  30.660   7.350
 9673POPC   C1B66871  30.562  30.928   6.450
 9673POPC   C2B66872  30.583  30.866   6.750
 9673POPC   C3B66873  30.518  30.884   7.050
 9673POPC   C4B66874  30.539  30.903   7.350
 9674POPC   NC366875   5.867  10.520   5.550
 9674POPC   PO466876   5.825  10.542   5.850
 9674POPC   GL166877   5.878  10.536   6.150
 9674POPC   GL266878   5.831  10.680   6.150
 9674POPC   C1A66879   5.835  10.530   6.450
 9674POPC   D2A66880   5.855  10.509   6.750
 9674POPC   C3A66881   5.846  10.478   7.050
 9674POPC   C4A66882   5.835  10.501   7.350
 9674POPC   C1B66883   5.816  10.808   6.450
 9674POPC   C2B66884   5.847  10.779   6.750
 9674POPC   C3B66885   5.762  10.765   7.050
 9674POPC   C4B66886   5.844  10.801   7.350
 9675POPC   NC366887  19.108  32.253   5.550
 9675POPC   PO466888  19.016  32.219   5.850
 9675POPC   GL166889  19.068  32.287   6.150
 9675POPC   GL266890  18.981  32.339   6.150
 9675POPC   C1A66891  19.055  32.232   6.450
 9675POPC   D2A66892  19.036  32.252   6.750
 9675POPC   C3A66893  19.081  32.285   7.050
 9675POPC   C4A66894  19.070  32.297   7.350
 9675POPC   C1B66895  18.913  32.417   6.450
 9675POPC   C2B66896  18.892  32.433   6.750
 9675POPC   C3B66897  18.916  32.415   7.050
 9675POPC   C4B66898  18.906  32.429   7.350
 9676POPC   NC366899   4.308  32.251   5.550
 9676POPC   PO466900   4.331  32.281   5.850
 9676POPC   GL166901   4.284  32.199   6.150
 9676POPC   GL266902   4.353  32.398   6.150
 9676POPC   C1A66903   4.344  32.228   6.450
 9676POPC   D2A66904   4.352  32.280   6.750
 9676POPC   C3A66905   4.363  32.283   7.050
 9676POPC   C4A66906   4.290  32.201   7.350
 9676POPC   C1B66907   4.289  32.490   6.450
 9676POPC   C2B66908   4.342  32.472   6.750
 9676POPC   C3B66909   4.301  32.535   7.050
 9676POPC   C4B66910   4.357  32.547   7.350
 9677POPC   NC366911  32.988  13.622   5.550
 9677POPC   PO466912  33.027  13.600   5.850
 9677POPC   GL166913  32.992  13.649   6.150
 9677POPC   GL266914  32.925  13.494   6.150
 9677POPC   C1A66915  33.049  13.594   6.450
 9677POPC   D2A66916  33.071  13.658   6.750
 9677POPC   C3A66917  33.045  13.602   7.050
 9677POPC   C4A66918  33.045  13.586   7.350
 9677POPC   C1B66919  32.953  13.368   6.450
 9677POPC   C2B66920  32.937  13.430   6.750
 9677POPC   C3B66921  32.961  13.403   7.050
 9677POPC   C4B66922  32.932  13.357   7.350
 9678POPC   NC366923  12.813   5.090   5.550
 9678POPC   PO466924  12.881   5.065   5.850
 9678POPC   GL166925  12.853   5.090   6.150
 9678POPC   GL266926  12.717   5.079   6.150
 9678POPC   C1A66927  12.831   5.044   6.450
 9678POPC   D2A66928  12.829   5.124   6.750
 9678POPC   C3A66929  12.820   5.131   7.050
 9678POPC   C4A66930  12.870   5.055   7.350
 9678POPC   C1B66931  12.589   5.035   6.450
 9678POPC   C2B66932  12.622   4.998   6.750
 9678POPC   C3B66933  12.578   5.005   7.050
 9678POPC   C4B66934  12.627   5.086   7.350
 9679POPC   NC366935  39.269  17.490   5.550
 9679POPC   PO466936  39.186  17.500   5.850
 9679POPC   GL166937  39.233  17.516   6.150
 9679POPC   GL266938  39.243  17.415   6.150
 9679POPC   C1A66939  39.217  17.499   6.450
 9679POPC   D2A66940  39.213  17.489   6.750
 9679POPC   C3A66941  39.187  17.529   7.050
 9679POPC   C4A66942  39.258  17.529   7.350
 9679POPC   C1B66943  39.367  17.273   6.450
 9679POPC   C2B66944  39.364  17.331   6.750
 9679POPC   C3B66945  39.341  17.289   7.050
 9679POPC   C4B66946  39.353  17.280   7.350
 9680POPC   NC366947  37.723   9.758   5.550
 9680POPC   PO466948  37.684   9.726   5.850
 9680POPC   GL166949  37.664   9.730   6.150
 9680POPC   GL266950  37.535   9.825   6.150
 9680POPC   C1A66951  37.650   9.727   6.450
 9680POPC   D2A66952  37.645   9.778   6.750
 9680POPC   C3A66953  37.647   9.759   7.050
 9680POPC   C4A66954  37.705   9.764   7.350
 9680POPC   C1B66955  37.453   9.923   6.450
 9680POPC   C2B66956  37.488   9.919   6.750
 9680POPC   C3B66957  37.503   9.936   7.050
 9680POPC   C4B66958  37.488   9.956   7.350
 9681POPC   NC366959  39.196  23.711   5.550
 9681POPC   PO466960  39.219  23.687   5.850
 9681POPC   GL166961  39.235  23.704   6.150
 9681POPC   GL266962  39.290  23.844   6.150
 9681POPC   C1A66963  39.212  23.763   6.450
 9681POPC   D2A66964  39.245  23.750   6.750
 9681POPC   C3A66965  39.195  23.713   7.050
 9681POPC   C4A66966  39.208  23.738   7.350
 9681POPC   C1B66967  39.278  23.919   6.450
 9681POPC   C2B66968  39.341  23.996   6.750
 9681POPC   C3B66969  39.347  23.914   7.050
 9681POPC   C4B66970  39.272  23.935   7.350
 9682POPC   NC366971  25.232  33.826   5.550
 9682POPC   PO466972  25.229  33.760   5.850
 9682POPC   GL166973  25.280  33.754   6.150
 9682POPC   GL266974  25.367  33.776   6.150
 9682POPC   C1A66975  25.232  33.822   6.450
 9682POPC   D2A66976  25.302  33.822   6.750
 9682POPC   C3A66977  25.257  33.760   7.050
 9682POPC   C4A66978  25.222  33.787   7.350
 9682POPC   C1B66979  25.558  33.827   6.450
 9682POPC   C2B66980  25.480  33.878   6.750
 9682POPC   C3B66981  25.490  33.877   7.050
 9682POPC   C4B66982  25.467  33.806   7.350
 9683POPC   NC366983  33.814  33.044   5.550
 9683POPC   PO466984  33.754  32.998   5.850
 9683POPC   GL166985  33.753  33.049   6.150
 9683POPC   GL266986  33.910  32.978   6.150
 9683POPC   C1A66987  33.834  33.026   6.450
 9683POPC   D2A66988  33.755  33.028   6.750
 9683POPC   C3A66989  33.814  33.005   7.050
 9683POPC   C4A66990  33.793  33.028   7.350
 9683POPC   C1B66991  34.063  32.894   6.450
 9683POPC   C2B66992  34.072  32.887   6.750
 9683POPC   C3B66993  34.008  32.876   7.050
 9683POPC   C4B66994  34.016  32.909   7.350
 9684POPC   NC366995  15.170  36.886   5.550
 9684POPC   PO466996  15.188  36.861   5.850
 9684POPC   GL166997  15.161  36.950   6.150
 9684POPC   GL266998  15.038  36.959   6.150
 9684POPC   C1A66999  15.148  36.937   6.450
 9684POPC   D2A67000  15.196  36.949   6.750
 9684POPC   C3A67001  15.178  36.864   7.050
 9684POPC   C4A67002  15.195  36.914   7.350
 9684POPC   C1B67003  14.959  36.929   6.450
 9684POPC   C2B67004  14.931  36.884   6.750
 9684POPC   C3B67005  14.920  36.954   7.050
 9684POPC   C4B67006  14.918  36.952   7.350
 9685POPC   NC367007  31.477  35.345   5.550
 9685POPC   PO467008  31.521  35.392   5.850
 9685POPC   GL167009  31.423  35.360   6.150
 9685POPC   GL267010  31.531  35.399   6.150
 9685POPC   C1A67011  31.438  35.321   6.450
 9685POPC   D2A67012  31.497  35.351   6.750
 9685POPC   C3A67013  31.522  35.390   7.050
 9685POPC   C4A67014  31.430  35.393   7.350
 9685POPC   C1B67015  31.647  35.441   6.450
 9685POPC   C2B67016  31.691  35.453   6.750
 9685POPC   C3B67017  31.653  35.503   7.050
 9685POPC   C4B67018  31.725  35.485   7.350
 9686POPC   NC367019   4.359  43.119   5.550
 9686POPC   PO467020   4.341  43.114   5.850
 9686POPC   GL167021   4.358  43.125   6.150
 9686POPC   GL267022   4.217  43.116   6.150
 9686POPC   C1A67023   4.295  43.077   6.450
 9686POPC   D2A67024   4.320  43.128   6.750
 9686POPC   C3A67025   4.269  43.143   7.050
 9686POPC   C4A67026   4.280  43.130   7.350
 9686POPC   C1B67027   4.039  43.029   6.450
 9686POPC   C2B67028   4.099  43.041   6.750
 9686POPC   C3B67029   4.045  43.057   7.050
 9686POPC   C4B67030   4.060  43.045   7.350
 9687POPC   NC367031  35.325  29.954   5.550
 9687POPC   PO467032  35.311  29.899   5.850
 9687POPC   GL167033  35.312  29.969   6.150
 9687POPC   GL267034  35.370  29.828   6.150
 9687POPC   C1A67035  35.330  29.899   6.450
 9687POPC   D2A67036  35.385  29.942   6.750
 9687POPC   C3A67037  35.381  29.936   7.050
 9687POPC   C4A67038  35.322  29.875   7.350
 9687POPC   C1B67039  35.312  29.666   6.450
 9687POPC   C2B67040  35.289  29.721   6.750
 9687POPC   C3B67041  35.289  29.718   7.050
 9687POPC   C4B67042  35.338  29.726   7.350
 9688POPC   NC367043   3.571  40.802   5.550
 9688POPC   PO467044   3.511  40.803   5.850
 9688POPC   GL167045   3.591  40.744   6.150
 9688POPC   GL267046   3.415  40.765   6.150
 9688POPC   C1A67047   3.553  40.827   6.450
 9688POPC   D2A67048   3.559  40.769   6.750
 9688POPC   C3A67049   3.502  40.743   7.050
 9688POPC   C4A67050   3.558  40.755   7.350
 9688POPC   C1B67051   3.289  40.735   6.450
 9688POPC   C2B67052   3.347  40.655   6.750
 9688POPC   C3B67053   3.348  40.734   7.050
 9688POPC   C4B67054   3.271  40.716   7.350
 9689POPC   NC367055   3.537  41.556   5.550
 9689POPC   PO467056   3.571  41.580   5.850
 9689POPC   GL167057   3.524  41.562   6.150
 9689POPC   GL267058   3.406  41.573   6.150
 9689POPC   C1A67059   3.543  41.571   6.450
 9689POPC   D2A67060   3.552  41.563   6.750
 9689POPC   C3A67061   3.499  41.544   7.050
 9689POPC   C4A67062   3.505  41.530   7.350
 9689POPC   C1B67063   3.336  41.547   6.450
 9689POPC   C2B67064   3.306  41.572   6.750
 9689POPC   C3B67065   3.273  41.513   7.050
 9689POPC   C4B67066   3.304  41.578   7.350
 9690POPC   NC367067  17.483   7.463   5.550
 9690POPC   PO467068  17.514   7.455   5.850
 9690POPC   GL167069  17.519   7.425   6.150
 9690POPC   GL267070  17.349   7.349   6.150
 9690POPC   C1A67071  17.498   7.452   6.450
 9690POPC   D2A67072  17.467   7.444   6.750
 9690POPC   C3A67073  17.519   7.433   7.050
 9690POPC   C4A67074  17.459   7.429   7.350
 9690POPC   C1B67075  17.306   7.305   6.450
 9690POPC   C2B67076  17.263   7.350   6.750
 9690POPC   C3B67077  17.277   7.318   7.050
 9690POPC   C4B67078  17.284   7.357   7.350
 9691POPC   NC367079   6.623  19.088   5.550
 9691POPC   PO467080   6.611  19.019   5.850
 9691POPC   GL167081   6.655  19.103   6.150
 9691POPC   GL267082   6.495  18.980   6.150
 9691POPC   C1A67083   6.678  19.012   6.450
 9691POPC   D2A67084   6.673  19.056   6.750
 9691POPC   C3A67085   6.654  19.028   7.050
 9691POPC   C4A67086   6.681  19.100   7.350
 9691POPC   C1B67087   6.447  18.909   6.450
 9691POPC   C2B67088   6.385  18.908   6.750
 9691POPC   C3B67089   6.420  18.911   7.050
 9691POPC   C4B67090   6.473  18.920   7.350
 9692POPC   NC367091   3.590   3.540   5.550
 9692POPC   PO467092   3.536   3.538   5.850
 9692POPC   GL167093   3.516   3.533   6.150
 9692POPC   GL267094   3.490   3.595   6.150
 9692POPC   C1A67095   3.517   3.533   6.450
 9692POPC   D2A67096   3.524   3.549   6.750
 9692POPC   C3A67097   3.547   3.588   7.050
 9692POPC   C4A67098   3.591   3.554   7.350
 9692POPC   C1B67099   3.315   3.688   6.450
 9692POPC   C2B67100   3.368   3.659   6.750
 9692POPC   C3B67101   3.401   3.751   7.050
 9692POPC   C4B67102   3.398   3.661   7.350
 9693POPC   NC367103   8.183  41.534   5.550
 9693POPC   PO467104   8.216  41.565   5.850
 9693POPC   GL167105   8.185  41.517   6.150
 9693POPC   GL267106   8.140  41.431   6.150
 9693POPC   C1A67107   8.148  41.538   6.450
 9693POPC   D2A67108   8.203  41.594   6.750
 9693POPC   C3A67109   8.200  41.561   7.050
 9693POPC   C4A67110   8.210  41.600   7.350
 9693POPC   C1B67111   8.098  41.330   6.450
 9693POPC   C2B67112   8.157  41.327   6.750
 9693POPC   C3B67113   8.147  41.324   7.050
 9693POPC   C4B67114   8.137  41.316   7.350
 9694POPC   NC367115  29.150  10.523   5.550
 9694POPC   PO467116  29.098  10.502   5.850
 9694POPC   GL167117  29.145  10.493   6.150
 9694POPC   GL267118  29.116  10.585   6.150
 9694POPC   C1A67119  29.115  10.570   6.450
 9694POPC   D2A67120  29.145  10.535   6.750
 9694POPC   C3A67121  29.107  10.531   7.050
 9694POPC   C4A67122  29.151  10.573   7.350
 9694POPC   C1B67123  29.057  10.698   6.450
 9694POPC   C2B67124  29.001  10.782   6.750
 9694POPC   C3B67125  28.993  10.748   7.050
 9694POPC   C4B67126  29.024  10.779   7.350
 9695POPC   NC367127  43.120  35.391   5.550
 9695POPC   PO467128  43.126  35.392   5.850
 9695POPC   GL167129  43.110  35.375   6.150
 9695POPC   GL267130  43.020  35.282   6.150
 9695POPC   C1A67131  43.093  35.345   6.450
 9695POPC   D2A67132  43.137  35.395   6.750
 9695POPC   C3A67133  43.151  35.328   7.050
 9695POPC   C4A67134  43.160  35.372   7.350
 9695POPC   C1B67135  42.958  35.131   6.450
 9695POPC   C2B67136  42.974  35.186   6.750
 9695POPC   C3B67137  42.976  35.162   7.050
 9695POPC   C4B67138  42.907  35.166   7.350
 9696POPC   NC367139  19.103  40.761   5.550
 9696POPC   PO467140  19.098  40.748   5.850
 9696POPC   GL167141  19.089  40.780   6.150
 9696POPC   GL267142  19.095  40.872   6.150
 9696POPC   C1A67143  19.102  40.809   6.450
 9696POPC   D2A67144  19.032  40.739   6.750
 9696POPC   C3A67145  19.038  40.745   7.050
 9696POPC   C4A67146  19.051  40.780   7.350
 9696POPC   C1B67147  19.135  41.040   6.450
 9696POPC   C2B67148  19.143  41.021   6.750
 9696POPC   C3B67149  19.127  40.979   7.050
 9696POPC   C4B67150  19.134  40.998   7.350
 9697POPC   NC367151  38.465  38.478   5.550
 9697POPC   PO467152  38.470  38.496   5.850
 9697POPC   GL167153  38.421  38.414   6.150
 9697POPC   GL267154  38.470  38.323   6.150
 9697POPC   C1A67155  38.475  38.414   6.450
 9697POPC   D2A67156  38.423  38.498   6.750
 9697POPC   C3A67157  38.472  38.406   7.050
 9697POPC   C4A67158  38.480  38.454   7.350
 9697POPC   C1B67159  38.612  38.209   6.450
 9697POPC   C2B67160  38.580  38.220   6.750
 9697POPC   C3B67161  38.594  38.284   7.050
 9697POPC   C4B67162  38.610  38.268   7.350
 9698POPC   NC367163  27.635  35.380   5.550
 9698POPC   PO467164  27.640  35.363   5.850
 9698POPC   GL167165  27.553  35.315   6.150
 9698POPC   GL267166  27.658  35.266   6.150
 9698POPC   C1A67167  27.590  35.368   6.450
 9698POPC   D2A67168  27.591  35.400   6.750
 9698POPC   C3A67169  27.549  35.370   7.050
 9698POPC   C4A67170  27.622  35.350   7.350
 9698POPC   C1B67171  27.743  35.101   6.450
 9698POPC   C2B67172  27.707  35.106   6.750
 9698POPC   C3B67173  27.744  35.147   7.050
 9698POPC   C4B67174  27.756  35.164   7.350
 9699POPC   NC367175   1.186   7.429   5.550
 9699POPC   PO467176   1.214   7.372   5.850
 9699POPC   GL167177   1.196   7.403   6.150
 9699POPC   GL267178   1.319   7.337   6.150
 9699POPC   C1A67179   1.184   7.469   6.450
 9699POPC   D2A67180   1.240   7.391   6.750
 9699POPC   C3A67181   1.166   7.469   7.050
 9699POPC   C4A67182   1.200   7.391   7.350
 9699POPC   C1B67183   1.373   7.270   6.450
 9699POPC   C2B67184   1.370   7.255   6.750
 9699POPC   C3B67185   1.374   7.217   7.050
 9699POPC   C4B67186   1.401   7.256   7.350
 9700POPC   NC367187  41.574   5.831   5.550
 9700POPC   PO467188  41.608   5.848   5.850
 9700POPC   GL167189  41.603   5.916   6.150
 9700POPC   GL267190  41.678   5.868   6.150
 9700POPC   C1A67191  41.546   5.849   6.450
 9700POPC   D2A67192  41.589   5.915   6.750
 9700POPC   C3A67193  41.576   5.912   7.050
 9700POPC   C4A67194  41.539   5.873   7.350
 9700POPC   C1B67195  41.816   5.824   6.450
 9700POPC   C2B67196  41.829   5.832   6.750
 9700POPC   C3B67197  41.851   5.850   7.050
 9700POPC   C4B67198  41.760   5.856   7.350
 9701POPC   NC367199  36.917  36.142   5.550
 9701POPC   PO467200  36.930  36.124   5.850
 9701POPC   GL167201  36.929  36.148   6.150
 9701POPC   GL267202  36.789  36.035   6.150
 9701POPC   C1A67203  36.889  36.080   6.450
 9701POPC   D2A67204  36.866  36.108   6.750
 9701POPC   C3A67205  36.880  36.117   7.050
 9701POPC   C4A67206  36.889  36.122   7.350
 9701POPC   C1B67207  36.692  35.959   6.450
 9701POPC   C2B67208  36.726  35.998   6.750
 9701POPC   C3B67209  36.686  36.008   7.050
 9701POPC   C4B67210  36.725  35.927   7.350
 9702POPC   NC367211  25.230  29.964   5.550
 9702POPC   PO467212  25.235  29.875   5.850
 9702POPC   GL167213  25.297  29.943   6.150
 9702POPC   GL267214  25.363  29.842   6.150
 9702POPC   C1A67215  25.239  29.969   6.450
 9702POPC   D2A67216  25.304  29.945   6.750
 9702POPC   C3A67217  25.287  29.963   7.050
 9702POPC   C4A67218  25.275  29.882   7.350
 9702POPC   C1B67219  25.433  29.707   6.450
 9702POPC   C2B67220  25.410  29.721   6.750
 9702POPC   C3B67221  25.433  29.795   7.050
 9702POPC   C4B67222  25.407  29.743   7.350
 9703POPC   NC367223  10.504   8.163   5.550
 9703POPC   PO467224  10.496   8.185   5.850
 9703POPC   GL167225  10.488   8.154   6.150
 9703POPC   GL267226  10.594   8.209   6.150
 9703POPC   C1A67227  10.524   8.172   6.450
 9703POPC   D2A67228  10.522   8.231   6.750
 9703POPC   C3A67229  10.492   8.217   7.050
 9703POPC   C4A67230  10.489   8.227   7.350
 9703POPC   C1B67231  10.797   8.242   6.450
 9703POPC   C2B67232  10.796   8.311   6.750
 9703POPC   C3B67233  10.709   8.275   7.050
 9703POPC   C4B67234  10.719   8.327   7.350
 9704POPC   NC367235  24.445   3.525   5.550
 9704POPC   PO467236  24.497   3.497   5.850
 9704POPC   GL167237  24.499   3.549   6.150
 9704POPC   GL267238  24.626   3.531   6.150
 9704POPC   C1A67239  24.459   3.543   6.450
 9704POPC   D2A67240  24.485   3.556   6.750
 9704POPC   C3A67241  24.461   3.555   7.050
 9704POPC   C4A67242  24.462   3.508   7.350
 9704POPC   C1B67243  24.778   3.599   6.450
 9704POPC   C2B67244  24.748   3.614   6.750
 9704POPC   C3B67245  24.688   3.643   7.050
 9704POPC   C4B67246  24.722   3.566   7.350
 9705POPC   NC367247   7.389  19.033   5.550
 9705POPC   PO467248   7.423  19.107   5.850
 9705POPC   GL167249   7.382  19.099   6.150
 9705POPC   GL267250   7.435  19.221   6.150
 9705POPC   C1A67251   7.387  19.028   6.450
 9705POPC   D2A67252   7.421  19.088   6.750
 9705POPC   C3A67253   7.378  19.033   7.050
 9705POPC   C4A67254   7.404  19.045   7.350
 9705POPC   C1B67255   7.424  19.311   6.450
 9705POPC   C2B67256   7.461  19.273   6.750
 9705POPC   C3B67257   7.460  19.266   7.050
 9705POPC   C4B67258   7.443  19.331   7.350
 9706POPC   NC367259  33.016  42.372   5.550
 9706POPC   PO467260  33.033  42.384   5.850
 9706POPC   GL167261  33.016  42.384   6.150
 9706POPC   GL267262  32.883  42.299   6.150
 9706POPC   C1A67263  33.053  42.290   6.450
 9706POPC   D2A67264  32.995  42.373   6.750
 9706POPC   C3A67265  33.006  42.363   7.050
 9706POPC   C4A67266  33.053  42.370   7.350
 9706POPC   C1B67267  32.767  42.289   6.450
 9706POPC   C2B67268  32.762  42.322   6.750
 9706POPC   C3B67269  32.773  42.311   7.050
 9706POPC   C4B67270  32.767  42.330   7.350
 9707POPC   NC367271  40.050  40.734   5.550
 9707POPC   PO467272  40.007  40.767   5.850
 9707POPC   GL167273  40.027  40.825   6.150
 9707POPC   GL267274  40.071  40.755   6.150
 9707POPC   C1A67275  39.976  40.787   6.450
 9707POPC   D2A67276  39.976  40.782   6.750
 9707POPC   C3A67277  40.030  40.804   7.050
 9707POPC   C4A67278  40.047  40.766   7.350
 9707POPC   C1B67279  40.242  40.667   6.450
 9707POPC   C2B67280  40.257  40.685   6.750
 9707POPC   C3B67281  40.266  40.675   7.050
 9707POPC   C4B67282  40.237  40.615   7.350
 9708POPC   NC367283   1.944  38.504   5.550
 9708POPC   PO467284   1.947  38.450   5.850
 9708POPC   GL167285   1.973  38.491   6.150
 9708POPC   GL267286   1.951  38.548   6.150
 9708POPC   C1A67287   1.957  38.415   6.450
 9708POPC   D2A67288   1.963  38.440   6.750
 9708POPC   C3A67289   1.962  38.463   7.050
 9708POPC   C4A67290   1.994  38.491   7.350
 9708POPC   C1B67291   1.829  38.653   6.450
 9708POPC   C2B67292   1.855  38.661   6.750
 9708POPC   C3B67293   1.906  38.636   7.050
 9708POPC   C4B67294   1.903  38.680   7.350
 9709POPC   NC367295  43.117   6.661   5.550
 9709POPC   PO467296  43.080   6.691   5.850
 9709POPC   GL167297  43.108   6.679   6.150
 9709POPC   GL267298  43.051   6.705   6.150
 9709POPC   C1A67299  43.079   6.666   6.450
 9709POPC   D2A67300  43.063   6.629   6.750
 9709POPC   C3A67301  43.080   6.672   7.050
 9709POPC   C4A67302  43.097   6.641   7.350
 9709POPC   C1B67303  42.955   6.848   6.450
 9709POPC   C2B67304  42.960   6.793   6.750
 9709POPC   C3B67305  42.932   6.780   7.050
 9709POPC   C4B67306  42.947   6.819   7.350
 9710POPC   NC367307  22.948  38.483   5.550
 9710POPC   PO467308  22.937  38.419   5.850
 9710POPC   GL167309  22.936  38.469   6.150
 9710POPC   GL267310  23.017  38.595   6.150
 9710POPC   C1A67311  22.955  38.445   6.450
 9710POPC   D2A67312  22.917  38.449   6.750
 9710POPC   C3A67313  22.916  38.453   7.050
 9710POPC   C4A67314  22.986  38.465   7.350
 9710POPC   C1B67315  23.056  38.718   6.450
 9710POPC   C2B67316  22.985  38.673   6.750
 9710POPC   C3B67317  23.052  38.685   7.050
 9710POPC   C4B67318  22.980  38.690   7.350
 9711POPC   NC367319  30.698   6.604   5.550
 9711POPC   PO467320  30.701   6.595   5.850
 9711POPC   GL167321  30.655   6.674   6.150
 9711POPC   GL267322  30.644   6.510   6.150
 9711POPC   C1A67323  30.702   6.677   6.450
 9711POPC   D2A67324  30.710   6.645   6.750
 9711POPC   C3A67325  30.691   6.626   7.050
 9711POPC   C4A67326  30.693   6.683   7.350
 9711POPC   C1B67327  30.558   6.402   6.450
 9711POPC   C2B67328  30.599   6.445   6.750
 9711POPC   C3B67329  30.560   6.460   7.050
 9711POPC   C4B67330  30.520   6.445   7.350
 9712POPC   NC367331  21.407   5.108   5.550
 9712POPC   PO467332  21.419   5.142   5.850
 9712POPC   GL167333  21.389   5.128   6.150
 9712POPC   GL267334  21.499   5.160   6.150
 9712POPC   C1A67335  21.370   5.099   6.450
 9712POPC   D2A67336  21.346   5.045   6.750
 9712POPC   C3A67337  21.417   5.048   7.050
 9712POPC   C4A67338  21.378   5.094   7.350
 9712POPC   C1B67339  21.660   5.157   6.450
 9712POPC   C2B67340  21.637   5.192   6.750
 9712POPC   C3B67341  21.592   5.192   7.050
 9712POPC   C4B67342  21.665   5.148   7.350
 9713POPC   NC367343  32.222  18.303   5.550
 9713POPC   PO467344  32.242  18.327   5.850
 9713POPC   GL167345  32.226  18.307   6.150
 9713POPC   GL267346  32.150  18.297   6.150
 9713POPC   C1A67347  32.232  18.271   6.450
 9713POPC   D2A67348  32.200  18.329   6.750
 9713POPC   C3A67349  32.274  18.309   7.050
 9713POPC   C4A67350  32.256  18.317   7.350
 9713POPC   C1B67351  31.953  18.311   6.450
 9713POPC   C2B67352  31.959  18.353   6.750
 9713POPC   C3B67353  32.015  18.308   7.050
 9713POPC   C4B67354  32.039  18.311   7.350
 9714POPC   NC367355  32.217  28.326   5.550
 9714POPC   PO467356  32.218  28.320   5.850
 9714POPC   GL167357  32.264  28.328   6.150
 9714POPC   GL267358  32.349  28.246   6.150
 9714POPC   C1A67359  32.247  28.393   6.450
 9714POPC   D2A67360  32.231  28.376   6.750
 9714POPC   C3A67361  32.251  28.396   7.050
 9714POPC   C4A67362  32.295  28.393   7.350
 9714POPC   C1B67363  32.443  28.223   6.450
 9714POPC   C2B67364  32.405  28.200   6.750
 9714POPC   C3B67365  32.439  28.128   7.050
 9714POPC   C4B67366  32.360  28.216   7.350
 9715POPC   NC367367  38.491  14.386   5.550
 9715POPC   PO467368  38.442  14.440   5.850
 9715POPC   GL167369  38.475  14.442   6.150
 9715POPC   GL267370  38.361  14.469   6.150
 9715POPC   C1A67371  38.431  14.441   6.450
 9715POPC   D2A67372  38.490  14.449   6.750
 9715POPC   C3A67373  38.411  14.363   7.050
 9715POPC   C4A67374  38.424  14.414   7.350
 9715POPC   C1B67375  38.345  14.651   6.450
 9715POPC   C2B67376  38.281  14.649   6.750
 9715POPC   C3B67377  38.323  14.567   7.050
 9715POPC   C4B67378  38.283  14.630   7.350
 9716POPC   NC367379  12.058   4.305   5.550
 9716POPC   PO467380  12.084   4.295   5.850
 9716POPC   GL167381  12.052   4.329   6.150
 9716POPC   GL267382  12.188   4.300   6.150
 9716POPC   C1A67383  12.106   4.286   6.450
 9716POPC   D2A67384  12.089   4.366   6.750
 9716POPC   C3A67385  12.093   4.277   7.050
 9716POPC   C4A67386  12.091   4.314   7.350
 9716POPC   C1B67387  12.323   4.200   6.450
 9716POPC   C2B67388  12.340   4.183   6.750
 9716POPC   C3B67389  12.290   4.178   7.050
 9716POPC   C4B67390  12.330   4.193   7.350
 9717POPC   NC367391   2.757  29.918   5.550
 9717POPC   PO467392   2.814  29.938   5.850
 9717POPC   GL167393   2.721  29.935   6.150
 9717POPC   GL267394   2.799  29.843   6.150
 9717POPC   C1A67395   2.783  29.882   6.450
 9717POPC   D2A67396   2.730  29.926   6.750
 9717POPC   C3A67397   2.807  29.909   7.050
 9717POPC   C4A67398   2.809  29.947   7.350
 9717POPC   C1B67399   2.810  29.670   6.450
 9717POPC   C2B67400   2.808  29.654   6.750
 9717POPC   C3B67401   2.818  29.709   7.050
 9717POPC   C4B67402   2.836  29.689   7.350
 9718POPC   NC367403  21.371  40.026   5.550
 9718POPC   PO467404  21.431  39.973   5.850
 9718POPC   GL167405  21.357  39.960   6.150
 9718POPC   GL267406  21.429  39.958   6.150
 9718POPC   C1A67407  21.430  40.012   6.450
 9718POPC   D2A67408  21.340  39.958   6.750
 9718POPC   C3A67409  21.381  39.998   7.050
 9718POPC   C4A67410  21.402  40.049   7.350
 9718POPC   C1B67411  21.539  39.868   6.450
 9718POPC   C2B67412  21.563  39.816   6.750
 9718POPC   C3B67413  21.584  39.868   7.050
 9718POPC   C4B67414  21.519  39.866   7.350
 9719POPC   NC367415   2.814  39.982   5.550
 9719POPC   PO467416   2.799  40.029   5.850
 9719POPC   GL167417   2.738  39.994   6.150
 9719POPC   GL267418   2.788  40.172   6.150
 9719POPC   C1A67419   2.736  39.989   6.450
 9719POPC   D2A67420   2.754  40.009   6.750
 9719POPC   C3A67421   2.804  39.969   7.050
 9719POPC   C4A67422   2.726  39.973   7.350
 9719POPC   C1B67423   2.847  40.253   6.450
 9719POPC   C2B67424   2.801  40.218   6.750
 9719POPC   C3B67425   2.863  40.287   7.050
 9719POPC   C4B67426   2.813  40.263   7.350
 9720POPC   NC367427   5.880  20.606   5.550
 9720POPC   PO467428   5.868  20.614   5.850
 9720POPC   GL167429   5.861  20.595   6.150
 9720POPC   GL267430   6.022  20.587   6.150
 9720POPC   C1A67431   5.849  20.636   6.450
 9720POPC   D2A67432   5.827  20.629   6.750
 9720POPC   C3A67433   5.858  20.641   7.050
 9720POPC   C4A67434   5.885  20.603   7.350
 9720POPC   C1B67435   6.073  20.491   6.450
 9720POPC   C2B67436   6.117  20.499   6.750
 9720POPC   C3B67437   6.103  20.496   7.050
 9720POPC   C4B67438   6.056  20.516   7.350
 9721POPC   NC367439  44.678  43.904   5.550
 9721POPC   PO467440  44.680  43.885   5.850
 9721POPC   GL167441  44.688  43.852   6.150
 9721POPC   GL267442  44.611  43.798   6.150
 9721POPC   C1A67443  44.652  43.877   6.450
 9721POPC   D2A67444  44.675  43.862   6.750
 9721POPC   C3A67445  44.691  43.923   7.050
 9721POPC   C4A67446  44.641  43.863   7.350
 9721POPC   C1B67447  44.641  43.607   6.450
 9721POPC   C2B67448  44.689  43.638   6.750
 9721POPC   C3B67449  44.659  43.606   7.050
 9721POPC   C4B67450  44.688  43.617   7.350
 9722POPC   NC367451  40.824   5.082   5.550
 9722POPC   PO467452  40.795   5.103   5.850
 9722POPC   GL167453  40.776   5.138   6.150
 9722POPC   GL267454  40.615   5.161   6.150
 9722POPC   C1A67455  40.742   5.101   6.450
 9722POPC   D2A67456  40.734   5.082   6.750
 9722POPC   C3A67457  40.828   5.131   7.050
 9722POPC   C4A67458  40.791   5.072   7.350
 9722POPC   C1B67459  40.519   5.141   6.450
 9722POPC   C2B67460  40.562   5.164   6.750
 9722POPC   C3B67461  40.546   5.131   7.050
 9722POPC   C4B67462  40.559   5.127   7.350
 9723POPC   NC367463   5.915  24.491   5.550
 9723POPC   PO467464   5.859  24.486   5.850
 9723POPC   GL167465   5.854  24.537   6.150
 9723POPC   GL267466   5.967  24.598   6.150
 9723POPC   C1A67467   5.835  24.525   6.450
 9723POPC   D2A67468   5.832  24.474   6.750
 9723POPC   C3A67469   5.866  24.522   7.050
 9723POPC   C4A67470   5.859  24.443   7.350
 9723POPC   C1B67471   6.056  24.698   6.450
 9723POPC   C2B67472   6.047  24.713   6.750
 9723POPC   C3B67473   6.025  24.677   7.050
 9723POPC   C4B67474   6.072  24.637   7.350
 9724POPC   NC367475  15.967  36.136   5.550
 9724POPC   PO467476  15.984  36.146   5.850
 9724POPC   GL167477  15.935  36.093   6.150
 9724POPC   GL267478  15.985  35.997   6.150
 9724POPC   C1A67479  15.983  36.121   6.450
 9724POPC   D2A67480  15.963  36.142   6.750
 9724POPC   C3A67481  15.967  36.119   7.050
 9724POPC   C4A67482  15.979  36.144   7.350
 9724POPC   C1B67483  16.114  35.955   6.450
 9724POPC   C2B67484  16.060  35.954   6.750
 9724POPC   C3B67485  16.110  35.939   7.050
 9724POPC   C4B67486  16.087  35.933   7.350
 9725POPC   NC367487  31.428  12.058   5.550
 9725POPC   PO467488  31.472  12.045   5.850
 9725POPC   GL167489  31.473  12.058   6.150
 9725POPC   GL267490  31.438  12.207   6.150
 9725POPC   C1A67491  31.512  12.088   6.450
 9725POPC   D2A67492  31.522  12.071   6.750
 9725POPC   C3A67493  31.482  12.042   7.050
 9725POPC   C4A67494  31.445  12.086   7.350
 9725POPC   C1B67495  31.343  12.323   6.450
 9725POPC   C2B67496  31.371  12.266   6.750
 9725POPC   C3B67497  31.368  12.280   7.050
 9725POPC   C4B67498  31.361  12.345   7.350
 9726POPC   NC367499  39.240  43.879   5.550
 9726POPC   PO467500  39.229  43.871   5.850
 9726POPC   GL167501  39.203  43.919   6.150
 9726POPC   GL267502  39.381  43.921   6.150
 9726POPC   C1A67503  39.251  43.856   6.450
 9726POPC   D2A67504  39.210  43.923   6.750
 9726POPC   C3A67505  39.188  43.895   7.050
 9726POPC   C4A67506  39.211  43.855   7.350
 9726POPC   C1B67507  39.459  44.006   6.450
 9726POPC   C2B67508  39.410  44.023   6.750
 9726POPC   C3B67509  39.409  44.034   7.050
 9726POPC   C4B67510  39.395  44.057   7.350
 9727POPC   NC367511  23.680  36.094   5.550
 9727POPC   PO467512  23.672  36.146   5.850
 9727POPC   GL167513  23.741  36.100   6.150
 9727POPC   GL267514  23.842  36.083   6.150
 9727POPC   C1A67515  23.687  36.139   6.450
 9727POPC   D2A67516  23.680  36.156   6.750
 9727POPC   C3A67517  23.723  36.147   7.050
 9727POPC   C4A67518  23.721  36.108   7.350
 9727POPC   C1B67519  23.888  36.016   6.450
 9727POPC   C2B67520  23.901  36.044   6.750
 9727POPC   C3B67521  23.974  35.972   7.050
 9727POPC   C4B67522  23.938  36.018   7.350
 9728POPC   NC367523   8.987  17.496   5.550
 9728POPC   PO467524   8.928  17.530   5.850
 9728POPC   GL167525   9.010  17.528   6.150
 9728POPC   GL267526   9.051  17.538   6.150
 9728POPC   C1A67527   8.941  17.532   6.450
 9728POPC   D2A67528   8.960  17.521   6.750
 9728POPC   C3A67529   8.950  17.497   7.050
 9728POPC   C4A67530   8.955  17.537   7.350
 9728POPC   C1B67531   9.231  17.572   6.450
 9728POPC   C2B67532   9.252  17.519   6.750
 9728POPC   C3B67533   9.189  17.513   7.050
 9728POPC   C4B67534   9.258  17.555   7.350
 9729POPC   NC367535  10.498  39.964   5.550
 9729POPC   PO467536  10.493  40.055   5.850
 9729POPC   GL167537  10.542  39.981   6.150
 9729POPC   GL267538  10.579  40.161   6.150
 9729POPC   C1A67539  10.509  39.993   6.450
 9729POPC   D2A67540  10.491  40.047   6.750
 9729POPC   C3A67541  10.509  40.033   7.050
 9729POPC   C4A67542  10.514  40.026   7.350
 9729POPC   C1B67543  10.570  40.280   6.450
 9729POPC   C2B67544  10.530  40.280   6.750
 9729POPC   C3B67545  10.592  40.235   7.050
 9729POPC   C4B67546  10.615  40.247   7.350
 9730POPC   NC367547  42.327  19.861   5.550
 9730POPC   PO467548  42.357  19.869   5.850
 9730POPC   GL167549  42.300  19.876   6.150
 9730POPC   GL267550  42.190  19.885   6.150
 9730POPC   C1A67551  42.306  19.834   6.450
 9730POPC   D2A67552  42.349  19.792   6.750
 9730POPC   C3A67553  42.333  19.846   7.050
 9730POPC   C4A67554  42.308  19.803   7.350
 9730POPC   C1B67555  42.095  19.884   6.450
 9730POPC   C2B67556  42.035  19.835   6.750
 9730POPC   C3B67557  42.061  19.888   7.050
 9730POPC   C4B67558  42.076  19.831   7.350
 9731POPC   NC367559  33.024  25.228   5.550
 9731POPC   PO467560  33.073  25.282   5.850
 9731POPC   GL167561  33.038  25.240   6.150
 9731POPC   GL267562  33.107  25.354   6.150
 9731POPC   C1A67563  33.065  25.230   6.450
 9731POPC   D2A67564  32.976  25.308   6.750
 9731POPC   C3A67565  33.054  25.251   7.050
 9731POPC   C4A67566  32.975  25.275   7.350
 9731POPC   C1B67567  33.214  25.358   6.450
 9731POPC   C2B67568  33.241  25.332   6.750
 9731POPC   C3B67569  33.261  25.322   7.050
 9731POPC   C4B67570  33.303  25.367   7.350
 9732POPC   NC367571  43.931   2.719   5.550
 9732POPC   PO467572  43.917   2.730   5.850
 9732POPC   GL167573  43.899   2.811   6.150
 9732POPC   GL267574  44.038   2.837   6.150
 9732POPC   C1A67575  43.915   2.790   6.450
 9732POPC   D2A67576  43.932   2.746   6.750
 9732POPC   C3A67577  43.859   2.791   7.050
 9732POPC   C4A67578  43.887   2.800   7.350
 9732POPC   C1B67579  44.095   2.821   6.450
 9732POPC   C2B67580  44.090   2.795   6.750
 9732POPC   C3B67581  44.122   2.821   7.050
 9732POPC   C4B67582  44.161   2.859   7.350
 9733POPC   NC367583   3.513  15.193   5.550
 9733POPC   PO467584   3.512  15.224   5.850
 9733POPC   GL167585   3.574  15.194   6.150
 9733POPC   GL267586   3.598  15.103   6.150
 9733POPC   C1A67587   3.528  15.181   6.450
 9733POPC   D2A67588   3.549  15.171   6.750
 9733POPC   C3A67589   3.494  15.189   7.050
 9733POPC   C4A67590   3.529  15.224   7.350
 9733POPC   C1B67591   3.624  14.893   6.450
 9733POPC   C2B67592   3.629  14.947   6.750
 9733POPC   C3B67593   3.611  14.896   7.050
 9733POPC   C4B67594   3.532  14.916   7.350
 9734POPC   NC367595  28.343  18.241   5.550
 9734POPC   PO467596  28.397  18.294   5.850
 9734POPC   GL167597  28.330  18.328   6.150
 9734POPC   GL267598  28.268  18.208   6.150
 9734POPC   C1A67599  28.383  18.317   6.450
 9734POPC   D2A67600  28.390  18.323   6.750
 9734POPC   C3A67601  28.363  18.282   7.050
 9734POPC   C4A67602  28.327  18.276   7.350
 9734POPC   C1B67603  28.252  18.119   6.450
 9734POPC   C2B67604  28.193  18.135   6.750
 9734POPC   C3B67605  28.206  18.056   7.050
 9734POPC   C4B67606  28.222  18.089   7.350
 9735POPC   NC367607   1.970  39.268   5.550
 9735POPC   PO467608   1.964  39.190   5.850
 9735POPC   GL167609   1.941  39.214   6.150
 9735POPC   GL267610   2.106  39.130   6.150
 9735POPC   C1A67611   2.008  39.247   6.450
 9735POPC   D2A67612   2.009  39.203   6.750
 9735POPC   C3A67613   1.951  39.273   7.050
 9735POPC   C4A67614   2.012  39.251   7.350
 9735POPC   C1B67615   2.161  39.035   6.450
 9735POPC   C2B67616   2.127  39.083   6.750
 9735POPC   C3B67617   2.159  39.095   7.050
 9735POPC   C4B67618   2.183  39.073   7.350
 9736POPC   NC367619  19.027  29.882   5.550
 9736POPC   PO467620  19.047  29.969   5.850
 9736POPC   GL167621  19.016  29.967   6.150
 9736POPC   GL267622  19.176  29.775   6.150
 9736POPC   C1A67623  19.102  29.919   6.450
 9736POPC   D2A67624  19.020  29.883   6.750
 9736POPC   C3A67625  19.024  29.970   7.050
 9736POPC   C4A67626  19.050  29.919   7.350
 9736POPC   C1B67627  19.216  29.763   6.450
 9736POPC   C2B67628  19.194  29.739   6.750
 9736POPC   C3B67629  19.168  29.691   7.050
 9736POPC   C4B67630  19.251  29.685   7.350
 9737POPC   NC367631   2.739  38.415   5.550
 9737POPC   PO467632   2.731  38.423   5.850
 9737POPC   GL167633   2.809  38.411   6.150
 9737POPC   GL267634   2.618  38.449   6.150
 9737POPC   C1A67635   2.775  38.450   6.450
 9737POPC   D2A67636   2.773  38.494   6.750
 9737POPC   C3A67637   2.803  38.441   7.050
 9737POPC   C4A67638   2.808  38.495   7.350
 9737POPC   C1B67639   2.509  38.430   6.450
 9737POPC   C2B67640   2.568  38.387   6.750
 9737POPC   C3B67641   2.537  38.393   7.050
 9737POPC   C4B67642   2.567  38.371   7.350
 9738POPC   NC367643  26.787  37.720   5.550
 9738POPC   PO467644  26.790  37.705   5.850
 9738POPC   GL167645  26.783  37.712   6.150
 9738POPC   GL267646  26.901  37.641   6.150
 9738POPC   C1A67647  26.853  37.719   6.450
 9738POPC   D2A67648  26.791  37.693   6.750
 9738POPC   C3A67649  26.859  37.685   7.050
 9738POPC   C4A67650  26.825  37.639   7.350
 9738POPC   C1B67651  27.092  37.609   6.450
 9738POPC   C2B67652  27.018  37.630   6.750
 9738POPC   C3B67653  27.076  37.605   7.050
 9738POPC   C4B67654  27.105  37.655   7.350
 9739POPC   NC367655   1.250  18.248   5.550
 9739POPC   PO467656   1.251  18.279   5.850
 9739POPC   GL167657   1.249  18.286   6.150
 9739POPC   GL267658   1.318  18.402   6.150
 9739POPC   C1A67659   1.263  18.331   6.450
 9739POPC   D2A67660   1.210  18.291   6.750
 9739POPC   C3A67661   1.227  18.292   7.050
 9739POPC   C4A67662   1.214  18.293   7.350
 9739POPC   C1B67663   1.435  18.412   6.450
 9739POPC   C2B67664   1.394  18.469   6.750
 9739POPC   C3B67665   1.410  18.492   7.050
 9739POPC   C4B67666   1.419  18.444   7.350
 9740POPC   NC367667   3.501  19.035   5.550
 9740POPC   PO467668   3.535  19.039   5.850
 9740POPC   GL167669   3.569  19.028   6.150
 9740POPC   GL267670   3.403  19.094   6.150
 9740POPC   C1A67671   3.511  19.092   6.450
 9740POPC   D2A67672   3.496  19.037   6.750
 9740POPC   C3A67673   3.508  19.069   7.050
 9740POPC   C4A67674   3.508  19.053   7.350
 9740POPC   C1B67675   3.269  19.007   6.450
 9740POPC   C2B67676   3.284  19.036   6.750
 9740POPC   C3B67677   3.319  19.091   7.050
 9740POPC   C4B67678   3.263  19.000   7.350
 9741POPC   NC367679  13.615  31.496   5.550
 9741POPC   PO467680  13.659  31.501   5.850
 9741POPC   GL167681  13.621  31.476   6.150
 9741POPC   GL267682  13.754  31.396   6.150
 9741POPC   C1A67683  13.654  31.489   6.450
 9741POPC   D2A67684  13.602  31.468   6.750
 9741POPC   C3A67685  13.582  31.490   7.050
 9741POPC   C4A67686  13.645  31.488   7.350
 9741POPC   C1B67687  13.896  31.392   6.450
 9741POPC   C2B67688  13.827  31.382   6.750
 9741POPC   C3B67689  13.841  31.341   7.050
 9741POPC   C4B67690  13.818  31.388   7.350
 9742POPC   NC367691   8.969  22.984   5.550
 9742POPC   PO467692   8.993  22.914   5.850
 9742POPC   GL167693   8.989  22.932   6.150
 9742POPC   GL267694   9.091  22.939   6.150
 9742POPC   C1A67695   8.968  22.958   6.450
 9742POPC   D2A67696   9.002  22.927   6.750
 9742POPC   C3A67697   8.926  22.908   7.050
 9742POPC   C4A67698   8.991  22.953   7.350
 9742POPC   C1B67699   9.225  22.887   6.450
 9742POPC   C2B67700   9.253  22.920   6.750
 9742POPC   C3B67701   9.181  22.963   7.050
 9742POPC   C4B67702   9.200  22.937   7.350
 9743POPC   NC367703   7.412   5.826   5.550
 9743POPC   PO467704   7.441   5.836   5.850
 9743POPC   GL167705   7.408   5.874   6.150
 9743POPC   GL267706   7.331   5.788   6.150
 9743POPC   C1A67707   7.380   5.819   6.450
 9743POPC   D2A67708   7.456   5.841   6.750
 9743POPC   C3A67709   7.440   5.851   7.050
 9743POPC   C4A67710   7.465   5.839   7.350
 9743POPC   C1B67711   7.288   5.637   6.450
 9743POPC   C2B67712   7.339   5.609   6.750
 9743POPC   C3B67713   7.254   5.610   7.050
 9743POPC   C4B67714   7.321   5.669   7.350
 9744POPC   NC367715  18.288   5.055   5.550
 9744POPC   PO467716  18.258   5.099   5.850
 9744POPC   GL167717  18.330   5.132   6.150
 9744POPC   GL267718  18.261   5.180   6.150
 9744POPC   C1A67719  18.248   5.065   6.450
 9744POPC   D2A67720  18.319   5.098   6.750
 9744POPC   C3A67721  18.259   5.094   7.050
 9744POPC   C4A67722  18.253   5.123   7.350
 9744POPC   C1B67723  18.280   5.304   6.450
 9744POPC   C2B67724  18.265   5.378   6.750
 9744POPC   C3B67725  18.329   5.304   7.050
 9744POPC   C4B67726  18.318   5.296   7.350
 9745POPC   NC367727  44.680  20.660   5.550
 9745POPC   PO467728  44.642  20.622   5.850
 9745POPC   GL167729  44.622  20.636   6.150
 9745POPC   GL267730  44.751  20.625   6.150
 9745POPC   C1A67731  44.693  20.652   6.450
 9745POPC   D2A67732  44.645  20.640   6.750
 9745POPC   C3A67733  44.679  20.632   7.050
 9745POPC   C4A67734  44.681  20.573   7.350
 9745POPC   C1B67735  44.909  20.559   6.450
 9745POPC   C2B67736  44.872  20.544   6.750
 9745POPC   C3B67737  44.858  20.554   7.050
 9745POPC   C4B67738  44.884  20.509   7.350
 9746POPC   NC367739  36.129  16.761   5.550
 9746POPC   PO467740  36.131  16.717   5.850
 9746POPC   GL167741  36.125  16.704   6.150
 9746POPC   GL267742  36.036  16.662   6.150
 9746POPC   C1A67743  36.130  16.767   6.450
 9746POPC   D2A67744  36.138  16.720   6.750
 9746POPC   C3A67745  36.095  16.736   7.050
 9746POPC   C4A67746  36.143  16.710   7.350
 9746POPC   C1B67747  35.973  16.532   6.450
 9746POPC   C2B67748  36.009  16.515   6.750
 9746POPC   C3B67749  36.019  16.542   7.050
 9746POPC   C4B67750  36.027  16.504   7.350
 9747POPC   NC367751   7.457  35.316   5.550
 9747POPC   PO467752   7.388  35.303   5.850
 9747POPC   GL167753   7.421  35.339   6.150
 9747POPC   GL267754   7.464  35.461   6.150
 9747POPC   C1A67755   7.402  35.315   6.450
 9747POPC   D2A67756   7.422  35.384   6.750
 9747POPC   C3A67757   7.379  35.316   7.050
 9747POPC   C4A67758   7.403  35.338   7.350
 9747POPC   C1B67759   7.581  35.587   6.450
 9747POPC   C2B67760   7.573  35.566   6.750
 9747POPC   C3B67761   7.539  35.563   7.050
 9747POPC   C4B67762   7.556  35.553   7.350
 9748POPC   NC367763   2.730  11.323   5.550
 9748POPC   PO467764   2.795  11.337   5.850
 9748POPC   GL167765   2.784  11.296   6.150
 9748POPC   GL267766   2.672  11.268   6.150
 9748POPC   C1A67767   2.804  11.254   6.450
 9748POPC   D2A67768   2.796  11.296   6.750
 9748POPC   C3A67769   2.781  11.251   7.050
 9748POPC   C4A67770   2.781  11.295   7.350
 9748POPC   C1B67771   2.561  11.263   6.450
 9748POPC   C2B67772   2.516  11.268   6.750
 9748POPC   C3B67773   2.544  11.178   7.050
 9748POPC   C4B67774   2.562  11.174   7.350
 9749POPC   NC367775  23.700  43.932   5.550
 9749POPC   PO467776  23.703  43.880   5.850
 9749POPC   GL167777  23.757  43.928   6.150
 9749POPC   GL267778  23.557  43.887   6.150
 9749POPC   C1A67779  23.683  43.887   6.450
 9749POPC   D2A67780  23.685  43.923   6.750
 9749POPC   C3A67781  23.753  43.928   7.050
 9749POPC   C4A67782  23.694  43.904   7.350
 9749POPC   C1B67783  23.480  43.905   6.450
 9749POPC   C2B67784  23.455  43.876   6.750
 9749POPC   C3B67785  23.492  43.912   7.050
 9749POPC   C4B67786  23.470  43.875   7.350
 9750POPC   NC367787   8.949  41.597   5.550
 9750POPC   PO467788   8.959  41.541   5.850
 9750POPC   GL167789   8.996  41.570   6.150
 9750POPC   GL267790   8.991  41.671   6.150
 9750POPC   C1A67791   8.942  41.554   6.450
 9750POPC   D2A67792   8.944  41.543   6.750
 9750POPC   C3A67793   8.991  41.525   7.050
 9750POPC   C4A67794   9.013  41.564   7.350
 9750POPC   C1B67795   9.124  41.823   6.450
 9750POPC   C2B67796   9.105  41.828   6.750
 9750POPC   C3B67797   9.042  41.743   7.050
 9750POPC   C4B67798   9.115  41.790   7.350
 9751POPC   NC367799  43.901  19.011   5.550
 9751POPC   PO467800  43.852  19.012   5.850
 9751POPC   GL167801  43.894  19.086   6.150
 9751POPC   GL267802  43.772  19.074   6.150
 9751POPC   C1A67803  43.893  19.036   6.450
 9751POPC   D2A67804  43.862  19.093   6.750
 9751POPC   C3A67805  43.878  19.106   7.050
 9751POPC   C4A67806  43.859  19.106   7.350
 9751POPC   C1B67807  43.619  19.051   6.450
 9751POPC   C2B67808  43.662  19.114   6.750
 9751POPC   C3B67809  43.681  19.108   7.050
 9751POPC   C4B67810  43.625  19.100   7.350
 9752POPC   NC367811  34.583  36.936   5.550
 9752POPC   PO467812  34.531  36.885   5.850
 9752POPC   GL167813  34.613  36.935   6.150
 9752POPC   GL267814  34.636  36.834   6.150
 9752POPC   C1A67815  34.613  36.886   6.450
 9752POPC   D2A67816  34.623  36.885   6.750
 9752POPC   C3A67817  34.615  36.915   7.050
 9752POPC   C4A67818  34.564  36.934   7.350
 9752POPC   C1B67819  34.745  36.738   6.450
 9752POPC   C2B67820  34.756  36.802   6.750
 9752POPC   C3B67821  34.806  36.787   7.050
 9752POPC   C4B67822  34.809  36.779   7.350
 9753POPC   NC367823  35.399  36.908   5.550
 9753POPC   PO467824  35.308  36.907   5.850
 9753POPC   GL167825  35.315  36.897   6.150
 9753POPC   GL267826  35.458  36.988   6.150
 9753POPC   C1A67827  35.364  36.877   6.450
 9753POPC   D2A67828  35.363  36.883   6.750
 9753POPC   C3A67829  35.334  36.867   7.050
 9753POPC   C4A67830  35.351  36.870   7.350
 9753POPC   C1B67831  35.537  36.993   6.450
 9753POPC   C2B67832  35.618  37.021   6.750
 9753POPC   C3B67833  35.560  37.027   7.050
 9753POPC   C4B67834  35.597  37.013   7.350
 9754POPC   NC367835  15.992  27.596   5.550
 9754POPC   PO467836  15.956  27.603   5.850
 9754POPC   GL167837  15.956  27.638   6.150
 9754POPC   GL267838  15.902  27.698   6.150
 9754POPC   C1A67839  15.919  27.562   6.450
 9754POPC   D2A67840  15.927  27.557   6.750
 9754POPC   C3A67841  15.955  27.633   7.050
 9754POPC   C4A67842  16.002  27.599   7.350
 9754POPC   C1B67843  15.841  27.834   6.450
 9754POPC   C2B67844  15.828  27.765   6.750
 9754POPC   C3B67845  15.831  27.755   7.050
 9754POPC   C4B67846  15.782  27.818   7.350
 9755POPC   NC367847   8.178  26.044   5.550
 9755POPC   PO467848   8.207  26.030   5.850
 9755POPC   GL167849   8.232  26.054   6.150
 9755POPC   GL267850   8.063  26.048   6.150
 9755POPC   C1A67851   8.206  26.078   6.450
 9755POPC   D2A67852   8.176  26.013   6.750
 9755POPC   C3A67853   8.187  26.077   7.050
 9755POPC   C4A67854   8.169  26.026   7.350
 9755POPC   C1B67855   7.976  26.110   6.450
 9755POPC   C2B67856   7.964  26.125   6.750
 9755POPC   C3B67857   7.948  26.102   7.050
 9755POPC   C4B67858   7.982  26.120   7.350
 9756POPC   NC367859  14.390  28.376   5.550
 9756POPC   PO467860  14.423  28.326   5.850
 9756POPC   GL167861  14.402  28.340   6.150
 9756POPC   GL267862  14.499  28.458   6.150
 9756POPC   C1A67863  14.379  28.347   6.450
 9756POPC   D2A67864  14.383  28.395   6.750
 9756POPC   C3A67865  14.388  28.382   7.050
 9756POPC   C4A67866  14.414  28.366   7.350
 9756POPC   C1B67867  14.576  28.511   6.450
 9756POPC   C2B67868  14.589  28.481   6.750
 9756POPC   C3B67869  14.631  28.494   7.050
 9756POPC   C4B67870  14.620  28.523   7.350
 9757POPC   NC367871  43.132  10.494   5.550
 9757POPC   PO467872  43.141  10.533   5.850
 9757POPC   GL167873  43.081  10.565   6.150
 9757POPC   GL267874  42.975  10.662   6.150
 9757POPC   C1A67875  43.080  10.524   6.450
 9757POPC   D2A67876  43.142  10.541   6.750
 9757POPC   C3A67877  43.081  10.522   7.050
 9757POPC   C4A67878  43.080  10.515   7.350
 9757POPC   C1B67879  42.983  10.657   6.450
 9757POPC   C2B67880  42.913  10.708   6.750
 9757POPC   C3B67881  42.907  10.705   7.050
 9757POPC   C4B67882  42.932  10.666   7.350
 9758POPC   NC367883  38.493  16.727   5.550
 9758POPC   PO467884  38.419  16.739   5.850
 9758POPC   GL167885  38.442  16.703   6.150
 9758POPC   GL267886  38.421  16.566   6.150
 9758POPC   C1A67887  38.414  16.781   6.450
 9758POPC   D2A67888  38.475  16.708   6.750
 9758POPC   C3A67889  38.431  16.720   7.050
 9758POPC   C4A67890  38.418  16.740   7.350
 9758POPC   C1B67891  38.462  16.531   6.450
 9758POPC   C2B67892  38.467  16.507   6.750
 9758POPC   C3B67893  38.434  16.439   7.050
 9758POPC   C4B67894  38.391  16.453   7.350
 9759POPC   NC367895  12.119  29.906   5.550
 9759POPC   PO467896  12.061  29.891   5.850
 9759POPC   GL167897  12.056  29.936   6.150
 9759POPC   GL267898  11.937  29.945   6.150
 9759POPC   C1A67899  12.080  29.913   6.450
 9759POPC   D2A67900  12.027  29.950   6.750
 9759POPC   C3A67901  12.107  29.942   7.050
 9759POPC   C4A67902  12.062  29.881   7.350
 9759POPC   C1B67903  11.881  30.019   6.450
 9759POPC   C2B67904  11.854  30.019   6.750
 9759POPC   C3B67905  11.890  30.057   7.050
 9759POPC   C4B67906  11.892  30.000   7.350
 9760POPC   NC367907  26.780  26.000   5.550
 9760POPC   PO467908  26.786  26.042   5.850
 9760POPC   GL167909  26.780  26.053   6.150
 9760POPC   GL267910  26.931  26.188   6.150
 9760POPC   C1A67911  26.846  26.006   6.450
 9760POPC   D2A67912  26.839  26.070   6.750
 9760POPC   C3A67913  26.811  26.054   7.050
 9760POPC   C4A67914  26.863  26.056   7.350
 9760POPC   C1B67915  26.977  26.273   6.450
 9760POPC   C2B67916  26.995  26.243   6.750
 9760POPC   C3B67917  26.920  26.263   7.050
 9760POPC   C4B67918  27.015  26.226   7.350
 9761POPC   NC367919  38.500  19.788   5.550
 9761POPC   PO467920  38.449  19.860   5.850
 9761POPC   GL167921  38.436  19.818   6.150
 9761POPC   GL267922  38.531  19.847   6.150
 9761POPC   C1A67923  38.460  19.881   6.450
 9761POPC   D2A67924  38.479  19.867   6.750
 9761POPC   C3A67925  38.409  19.829   7.050
 9761POPC   C4A67926  38.447  19.870   7.350
 9761POPC   C1B67927  38.669  19.808   6.450
 9761POPC   C2B67928  38.656  19.888   6.750
 9761POPC   C3B67929  38.664  19.837   7.050
 9761POPC   C4B67930  38.743  19.851   7.350
 9762POPC   NC367931  36.920  23.671   5.550
 9762POPC   PO467932  36.918  23.718   5.850
 9762POPC   GL167933  36.897  23.719   6.150
 9762POPC   GL267934  36.937  23.588   6.150
 9762POPC   C1A67935  36.879  23.714   6.450
 9762POPC   D2A67936  36.895  23.739   6.750
 9762POPC   C3A67937  36.920  23.713   7.050
 9762POPC   C4A67938  36.910  23.713   7.350
 9762POPC   C1B67939  37.017  23.532   6.450
 9762POPC   C2B67940  37.037  23.527   6.750
 9762POPC   C3B67941  37.014  23.546   7.050
 9762POPC   C4B67942  37.067  23.564   7.350
 9763POPC   NC367943  13.621  30.713   5.550
 9763POPC   PO467944  13.636  30.690   5.850
 9763POPC   GL167945  13.578  30.694   6.150
 9763POPC   GL267946  13.472  30.718   6.150
 9763POPC   C1A67947  13.614  30.721   6.450
 9763POPC   D2A67948  13.615  30.650   6.750
 9763POPC   C3A67949  13.666  30.725   7.050
 9763POPC   C4A67950  13.674  30.691   7.350
 9763POPC   C1B67951  13.394  30.745   6.450
 9763POPC   C2B67952  13.392  30.834   6.750
 9763POPC   C3B67953  13.439  30.743   7.050
 9763POPC   C4B67954  13.384  30.765   7.350
 9764POPC   NC367955  44.700  42.357   5.550
 9764POPC   PO467956  44.650  42.302   5.850
 9764POPC   GL167957  44.707  42.306   6.150
 9764POPC   GL267958  44.572  42.279   6.150
 9764POPC   C1A67959  44.627  42.332   6.450
 9764POPC   D2A67960  44.666  42.360   6.750
 9764POPC   C3A67961  44.699  42.304   7.050
 9764POPC   C4A67962  44.618  42.321   7.350
 9764POPC   C1B67963  44.464  42.279   6.450
 9764POPC   C2B67964  44.427  42.307   6.750
 9764POPC   C3B67965  44.377  42.272   7.050
 9764POPC   C4B67966  44.423  42.294   7.350
 9765POPC   NC367967  26.810  28.358   5.550
 9765POPC   PO467968  26.814  28.397   5.850
 9765POPC   GL167969  26.793  28.341   6.150
 9765POPC   GL267970  26.660  28.333   6.150
 9765POPC   C1A67971  26.783  28.382   6.450
 9765POPC   D2A67972  26.786  28.417   6.750
 9765POPC   C3A67973  26.803  28.352   7.050
 9765POPC   C4A67974  26.812  28.377   7.350
 9765POPC   C1B67975  26.571  28.297   6.450
 9765POPC   C2B67976  26.578  28.303   6.750
 9765POPC   C3B67977  26.528  28.309   7.050
 9765POPC   C4B67978  26.610  28.284   7.350
 9766POPC   NC367979   5.865  36.861   5.550
 9766POPC   PO467980   5.821  36.934   5.850
 9766POPC   GL167981   5.899  36.921   6.150
 9766POPC   GL267982   5.929  37.007   6.150
 9766POPC   C1A67983   5.822  36.916   6.450
 9766POPC   D2A67984   5.884  36.940   6.750
 9766POPC   C3A67985   5.837  36.875   7.050
 9766POPC   C4A67986   5.902  36.861   7.350
 9766POPC   C1B67987   5.974  37.174   6.450
 9766POPC   C2B67988   6.014  37.106   6.750
 9766POPC   C3B67989   5.960  37.133   7.050
 9766POPC   C4B67990   5.923  37.091   7.350
 9767POPC   NC367991  28.401   8.231   5.550
 9767POPC   PO467992  28.394   8.153   5.850
 9767POPC   GL167993  28.393   8.210   6.150
 9767POPC   GL267994  28.378   8.292   6.150
 9767POPC   C1A67995  28.336   8.241   6.450
 9767POPC   D2A67996  28.388   8.218   6.750
 9767POPC   C3A67997  28.341   8.213   7.050
 9767POPC   C4A67998  28.334   8.204   7.350
 9767POPC   C1B67999  28.402   8.492   6.450
 9767POPC   C2B68000  28.411   8.458   6.750
 9767POPC   C3B68001  28.352   8.451   7.050
 9767POPC   C4B68002  28.396   8.454   7.350
 9768POPC   NC368003  41.513  26.067   5.550
 9768POPC   PO468004  41.532  26.010   5.850
 9768POPC   GL168005  41.520  26.067   6.150
 9768POPC   GL268006  41.494  26.123   6.150
 9768POPC   C1A68007  41.579  26.024   6.450
 9768POPC   D2A68008  41.566  26.028   6.750
 9768POPC   C3A68009  41.585  26.001   7.050
 9768POPC   C4A68010  41.586  26.064   7.350
 9768POPC   C1B68011  41.354  26.155   6.450
 9768POPC   C2B68012  41.338  26.219   6.750
 9768POPC   C3B68013  41.350  26.174   7.050
 9768POPC   C4B68014  41.358  26.222   7.350
 9769POPC   NC368015  16.746  10.485   5.550
 9769POPC   PO468016  16.719  10.504   5.850
 9769POPC   GL168017  16.701  10.510   6.150
 9769POPC   GL268018  16.794  10.622   6.150
 9769POPC   C1A68019  16.774  10.558   6.450
 9769POPC   D2A68020  16.761  10.566   6.750
 9769POPC   C3A68021  16.687  10.538   7.050
 9769POPC   C4A68022  16.756  10.488   7.350
 9769POPC   C1B68023  16.757  10.779   6.450
 9769POPC   C2B68024  16.834  10.791   6.750
 9769POPC   C3B68025  16.818  10.775   7.050
 9769POPC   C4B68026  16.754  10.742   7.350
 9770POPC   NC368027  37.673  18.328   5.550
 9770POPC   PO468028  37.713  18.286   5.850
 9770POPC   GL168029  37.706  18.242   6.150
 9770POPC   GL268030  37.800  18.324   6.150
 9770POPC   C1A68031  37.637  18.303   6.450
 9770POPC   D2A68032  37.680  18.305   6.750
 9770POPC   C3A68033  37.634  18.242   7.050
 9770POPC   C4A68034  37.718  18.328   7.350
 9770POPC   C1B68035  37.856  18.371   6.450
 9770POPC   C2B68036  37.901  18.417   6.750
 9770POPC   C3B68037  37.861  18.438   7.050
 9770POPC   C4B68038  37.902  18.445   7.350
 9771POPC   NC368039  29.179   2.015   5.550
 9771POPC   PO468040  29.101   1.972   5.850
 9771POPC   GL168041  29.133   1.957   6.150
 9771POPC   GL268042  29.079   2.091   6.150
 9771POPC   C1A68043  29.130   1.972   6.450
 9771POPC   D2A68044  29.133   2.006   6.750
 9771POPC   C3A68045  29.154   1.948   7.050
 9771POPC   C4A68046  29.116   2.019   7.350
 9771POPC   C1B68047  29.013   2.193   6.450
 9771POPC   C2B68048  28.953   2.223   6.750
 9771POPC   C3B68049  29.024   2.195   7.050
 9771POPC   C4B68050  28.939   2.180   7.350
 9772POPC   NC368051   1.952  43.137   5.550
 9772POPC   PO468052   2.007  43.065   5.850
 9772POPC   GL168053   1.958  43.087   6.150
 9772POPC   GL268054   2.056  43.219   6.150
 9772POPC   C1A68055   1.972  43.078   6.450
 9772POPC   D2A68056   1.952  43.137   6.750
 9772POPC   C3A68057   1.983  43.070   7.050
 9772POPC   C4A68058   1.991  43.142   7.350
 9772POPC   C1B68059   2.066  43.369   6.450
 9772POPC   C2B68060   2.078  43.372   6.750
 9772POPC   C3B68061   2.083  43.300   7.050
 9772POPC   C4B68062   2.106  43.342   7.350
 9773POPC   NC368063  34.601  29.935   5.550
 9773POPC   PO468064  34.590  29.883   5.850
 9773POPC   GL168065  34.532  29.891   6.150
 9773POPC   GL268066  34.455  30.037   6.150
 9773POPC   C1A68067  34.552  29.905   6.450
 9773POPC   D2A68068  34.573  29.960   6.750
 9773POPC   C3A68069  34.617  29.896   7.050
 9773POPC   C4A68070  34.539  29.948   7.350
 9773POPC   C1B68071  34.325  30.089   6.450
 9773POPC   C2B68072  34.394  30.021   6.750
 9773POPC   C3B68073  34.326  30.016   7.050
 9773POPC   C4B68074  34.323  30.047   7.350
 9774POPC   NC368075   7.381   4.355   5.550
 9774POPC   PO468076   7.383   4.296   5.850
 9774POPC   GL168077   7.414   4.277   6.150
 9774POPC   GL268078   7.394   4.477   6.150
 9774POPC   C1A68079   7.393   4.291   6.450
 9774POPC   D2A68080   7.459   4.272   6.750
 9774POPC   C3A68081   7.391   4.352   7.050
 9774POPC   C4A68082   7.379   4.355   7.350
 9774POPC   C1B68083   7.416   4.523   6.450
 9774POPC   C2B68084   7.443   4.593   6.750
 9774POPC   C3B68085   7.420   4.526   7.050
 9774POPC   C4B68086   7.453   4.534   7.350
 9775POPC   NC368087  19.021  19.095   5.550
 9775POPC   PO468088  19.083  19.050   5.850
 9775POPC   GL168089  19.095  19.065   6.150
 9775POPC   GL268090  19.061  18.953   6.150
 9775POPC   C1A68091  19.033  19.033   6.450
 9775POPC   D2A68092  19.031  19.095   6.750
 9775POPC   C3A68093  19.057  19.108   7.050
 9775POPC   C4A68094  19.103  19.014   7.350
 9775POPC   C1B68095  19.120  18.775   6.450
 9775POPC   C2B68096  19.090  18.785   6.750
 9775POPC   C3B68097  19.094  18.809   7.050
 9775POPC   C4B68098  19.110  18.804   7.350
 9776POPC   NC368099  43.137  27.605   5.550
 9776POPC   PO468100  43.091  27.576   5.850
 9776POPC   GL168101  43.071  27.635   6.150
 9776POPC   GL268102  43.146  27.467   6.150
 9776POPC   C1A68103  43.114  27.639   6.450
 9776POPC   D2A68104  43.093  27.624   6.750
 9776POPC   C3A68105  43.083  27.555   7.050
 9776POPC   C4A68106  43.078  27.577   7.350
 9776POPC   C1B68107  43.165  27.373   6.450
 9776POPC   C2B68108  43.173  27.346   6.750
 9776POPC   C3B68109  43.141  27.332   7.050
 9776POPC   C4B68110  43.132  27.328   7.350
 9777POPC   NC368111  43.846  17.495   5.550
 9777POPC   PO468112  43.926  17.495   5.850
 9777POPC   GL168113  43.881  17.539   6.150
 9777POPC   GL268114  43.824  17.380   6.150
 9777POPC   C1A68115  43.845  17.457   6.450
 9777POPC   D2A68116  43.882  17.517   6.750
 9777POPC   C3A68117  43.849  17.506   7.050
 9777POPC   C4A68118  43.895  17.532   7.350
 9777POPC   C1B68119  43.702  17.371   6.450
 9777POPC   C2B68120  43.706  17.309   6.750
 9777POPC   C3B68121  43.735  17.378   7.050
 9777POPC   C4B68122  43.683  17.347   7.350
 9778POPC   NC368123   0.426   4.339   5.550
 9778POPC   PO468124   0.433   4.361   5.850
 9778POPC   GL168125   0.436   4.326   6.150
 9778POPC   GL268126   0.471   4.205   6.150
 9778POPC   C1A68127   0.426   4.305   6.450
 9778POPC   D2A68128   0.390   4.337   6.750
 9778POPC   C3A68129   0.482   4.307   7.050
 9778POPC   C4A68130   0.467   4.340   7.350
 9778POPC   C1B68131   0.555   4.083   6.450
 9778POPC   C2B68132   0.552   4.134   6.750
 9778POPC   C3B68133   0.622   4.100   7.050
 9778POPC   C4B68134   0.558   4.125   7.350
 9779POPC   NC368135  36.092  25.231   5.550
 9779POPC   PO468136  36.116  25.251   5.850
 9779POPC   GL168137  36.098  25.263   6.150
 9779POPC   GL268138  36.070  25.372   6.150
 9779POPC   C1A68139  36.137  25.289   6.450
 9779POPC   D2A68140  36.106  25.301   6.750
 9779POPC   C3A68141  36.156  25.279   7.050
 9779POPC   C4A68142  36.172  25.277   7.350
 9779POPC   C1B68143  36.111  25.506   6.450
 9779POPC   C2B68144  36.089  25.526   6.750
 9779POPC   C3B68145  36.145  25.481   7.050
 9779POPC   C4B68146  36.070  25.468   7.350
 9780POPC   NC368147  12.121   3.532   5.550
 9780POPC   PO468148  12.123   3.515   5.850
 9780POPC   GL168149  12.086   3.547   6.150
 9780POPC   GL268150  12.122   3.405   6.150
 9780POPC   C1A68151  12.039   3.569   6.450
 9780POPC   D2A68152  12.045   3.504   6.750
 9780POPC   C3A68153  12.056   3.553   7.050
 9780POPC   C4A68154  12.078   3.554   7.350
 9780POPC   C1B68155  12.161   3.299   6.450
 9780POPC   C2B68156  12.231   3.342   6.750
 9780POPC   C3B68157  12.226   3.277   7.050
 9780POPC   C4B68158  12.161   3.350   7.350
 9781POPC   NC368159  15.963  11.283   5.550
 9781POPC   PO468160  15.941  11.307   5.850
 9781POPC   GL168161  15.990  11.338   6.150
 9781POPC   GL268162  15.852  11.288   6.150
 9781POPC   C1A68163  15.910  11.340   6.450
 9781POPC   D2A68164  15.966  11.296   6.750
 9781POPC   C3A68165  15.999  11.259   7.050
 9781POPC   C4A68166  15.948  11.288   7.350
 9781POPC   C1B68167  15.739  11.229   6.450
 9781POPC   C2B68168  15.723  11.165   6.750
 9781POPC   C3B68169  15.684  11.194   7.050
 9781POPC   C4B68170  15.742  11.154   7.350
 9782POPC   NC368171  40.831  12.042   5.550
 9782POPC   PO468172  40.812  12.061   5.850
 9782POPC   GL168173  40.758  12.118   6.150
 9782POPC   GL268174  40.868  11.965   6.150
 9782POPC   C1A68175  40.774  12.034   6.450
 9782POPC   D2A68176  40.799  12.031   6.750
 9782POPC   C3A68177  40.813  12.051   7.050
 9782POPC   C4A68178  40.745  12.035   7.350
 9782POPC   C1B68179  40.890  11.794   6.450
 9782POPC   C2B68180  40.906  11.846   6.750
 9782POPC   C3B68181  40.889  11.814   7.050
 9782POPC   C4B68182  40.870  11.791   7.350
 9783POPC   NC368183   5.052  28.415   5.550
 9783POPC   PO468184   5.045  28.403   5.850
 9783POPC   GL168185   5.102  28.333   6.150
 9783POPC   GL268186   5.146  28.266   6.150
 9783POPC   C1A68187   5.063  28.409   6.450
 9783POPC   D2A68188   5.124  28.338   6.750
 9783POPC   C3A68189   5.140  28.327   7.050
 9783POPC   C4A68190   5.119  28.378   7.350
 9783POPC   C1B68191   5.235  28.227   6.450
 9783POPC   C2B68192   5.300  28.176   6.750
 9783POPC   C3B68193   5.313  28.234   7.050
 9783POPC   C4B68194   5.275  28.189   7.350
 9784POPC   NC368195   1.980  22.183   5.550
 9784POPC   PO468196   2.030  22.150   5.850
 9784POPC   GL168197   1.998  22.135   6.150
 9784POPC   GL268198   2.096  22.262   6.150
 9784POPC   C1A68199   1.957  22.137   6.450
 9784POPC   D2A68200   2.022  22.188   6.750
 9784POPC   C3A68201   1.960  22.185   7.050
 9784POPC   C4A68202   1.990  22.123   7.350
 9784POPC   C1B68203   2.080  22.373   6.450
 9784POPC   C2B68204   2.125  22.406   6.750
 9784POPC   C3B68205   2.143  22.349   7.050
 9784POPC   C4B68206   2.145  22.414   7.350
 9785POPC   NC368207  19.818  12.083   5.550
 9785POPC   PO468208  19.867  12.052   5.850
 9785POPC   GL168209  19.877  12.032   6.150
 9785POPC   GL268210  19.909  11.993   6.150
 9785POPC   C1A68211  19.788  12.090   6.450
 9785POPC   D2A68212  19.793  12.078   6.750
 9785POPC   C3A68213  19.817  12.125   7.050
 9785POPC   C4A68214  19.841  12.034   7.350
 9785POPC   C1B68215  19.968  11.845   6.450
 9785POPC   C2B68216  20.003  11.824   6.750
 9785POPC   C3B68217  19.995  11.833   7.050
 9785POPC   C4B68218  19.967  11.857   7.350
 9786POPC   NC368219   2.737  26.034   5.550
 9786POPC   PO468220   2.801  26.013   5.850
 9786POPC   GL168221   2.810  26.081   6.150
 9786POPC   GL268222   2.670  25.972   6.150
 9786POPC   C1A68223   2.743  26.037   6.450
 9786POPC   D2A68224   2.804  26.059   6.750
 9786POPC   C3A68225   2.795  26.017   7.050
 9786POPC   C4A68226   2.797  26.014   7.350
 9786POPC   C1B68227   2.610  25.820   6.450
 9786POPC   C2B68228   2.672  25.801   6.750
 9786POPC   C3B68229   2.632  25.854   7.050
 9786POPC   C4B68230   2.650  25.835   7.350
 9787POPC   NC368231  29.919   6.618   5.550
 9787POPC   PO468232  29.898   6.606   5.850
 9787POPC   GL168233  29.926   6.658   6.150
 9787POPC   GL268234  30.025   6.614   6.150
 9787POPC   C1A68235  29.919   6.669   6.450
 9787POPC   D2A68236  29.945   6.609   6.750
 9787POPC   C3A68237  29.942   6.666   7.050
 9787POPC   C4A68238  29.890   6.638   7.350
 9787POPC   C1B68239  30.117   6.592   6.450
 9787POPC   C2B68240  30.133   6.572   6.750
 9787POPC   C3B68241  30.206   6.548   7.050
 9787POPC   C4B68242  30.131   6.588   7.350
 9788POPC   NC368243   6.670  38.483   5.550
 9788POPC   PO468244   6.628  38.450   5.850
 9788POPC   GL168245   6.626  38.466   6.150
 9788POPC   GL268246   6.737  38.553   6.150
 9788POPC   C1A68247   6.652  38.480   6.450
 9788POPC   D2A68248   6.595  38.490   6.750
 9788POPC   C3A68249   6.651  38.428   7.050
 9788POPC   C4A68250   6.627  38.445   7.350
 9788POPC   C1B68251   6.822  38.618   6.450
 9788POPC   C2B68252   6.772  38.692   6.750
 9788POPC   C3B68253   6.768  38.657   7.050
 9788POPC   C4B68254   6.791  38.680   7.350
 9789POPC   NC368255  39.242  39.262   5.550
 9789POPC   PO468256  39.265  39.185   5.850
 9789POPC   GL168257  39.207  39.201   6.150
 9789POPC   GL268258  39.261  39.158   6.150
 9789POPC   C1A68259  39.197  39.242   6.450
 9789POPC   D2A68260  39.193  39.233   6.750
 9789POPC   C3A68261  39.260  39.237   7.050
 9789POPC   C4A68262  39.247  39.196   7.350
 9789POPC   C1B68263  39.369  38.958   6.450
 9789POPC   C2B68264  39.362  39.042   6.750
 9789POPC   C3B68265  39.315  39.039   7.050
 9789POPC   C4B68266  39.342  38.964   7.350
 9790POPC   NC368267   0.424  30.703   5.550
 9790POPC   PO468268   0.479  30.742   5.850
 9790POPC   GL168269   0.433  30.669   6.150
 9790POPC   GL268270   0.421  30.619   6.150
 9790POPC   C1A68271   0.416  30.671   6.450
 9790POPC   D2A68272   0.405  30.663   6.750
 9790POPC   C3A68273   0.445  30.729   7.050
 9790POPC   C4A68274   0.478  30.706   7.350
 9790POPC   C1B68275   0.543  30.457   6.450
 9790POPC   C2B68276   0.515  30.493   6.750
 9790POPC   C3B68277   0.484  30.450   7.050
 9790POPC   C4B68278   0.528  30.406   7.350
 9791POPC   NC368279  36.939   7.379   5.550
 9791POPC   PO468280  36.925   7.372   5.850
 9791POPC   GL168281  36.914   7.452   6.150
 9791POPC   GL268282  37.055   7.321   6.150
 9791POPC   C1A68283  36.854   7.425   6.450
 9791POPC   D2A68284  36.862   7.392   6.750
 9791POPC   C3A68285  36.867   7.447   7.050
 9791POPC   C4A68286  36.884   7.460   7.350
 9791POPC   C1B68287  37.078   7.304   6.450
 9791POPC   C2B68288  37.122   7.294   6.750
 9791POPC   C3B68289  37.152   7.323   7.050
 9791POPC   C4B68290  37.080   7.291   7.350
 9792POPC   NC368291  27.568  28.382   5.550
 9792POPC   PO468292  27.572  28.358   5.850
 9792POPC   GL168293  27.598  28.407   6.150
 9792POPC   GL268294  27.672  28.259   6.150
 9792POPC   C1A68295  27.577  28.338   6.450
 9792POPC   D2A68296  27.578  28.395   6.750
 9792POPC   C3A68297  27.598  28.381   7.050
 9792POPC   C4A68298  27.638  28.352   7.350
 9792POPC   C1B68299  27.674  28.147   6.450
 9792POPC   C2B68300  27.676  28.182   6.750
 9792POPC   C3B68301  27.699  28.102   7.050
 9792POPC   C4B68302  27.700  28.174   7.350
 9793POPC   NC368303  20.647   6.606   5.550
 9793POPC   PO468304  20.579   6.595   5.850
 9793POPC   GL168305  20.561   6.640   6.150
 9793POPC   GL268306  20.495   6.541   6.150
 9793POPC   C1A68307  20.641   6.675   6.450
 9793POPC   D2A68308  20.630   6.638   6.750
 9793POPC   C3A68309  20.601   6.642   7.050
 9793POPC   C4A68310  20.650   6.682   7.350
 9793POPC   C1B68311  20.434   6.536   6.450
 9793POPC   C2B68312  20.395   6.512   6.750
 9793POPC   C3B68313  20.396   6.565   7.050
 9793POPC   C4B68314  20.367   6.537   7.350
 9794POPC   NC368315  17.506  17.529   5.550
 9794POPC   PO468316  17.461  17.466   5.850
 9794POPC   GL168317  17.483  17.525   6.150
 9794POPC   GL268318  17.393  17.571   6.150
 9794POPC   C1A68319  17.507  17.498   6.450
 9794POPC   D2A68320  17.523  17.461   6.750
 9794POPC   C3A68321  17.503  17.548   7.050
 9794POPC   C4A68322  17.461  17.462   7.350
 9794POPC   C1B68323  17.337  17.668   6.450
 9794POPC   C2B68324  17.354  17.724   6.750
 9794POPC   C3B68325  17.393  17.685   7.050
 9794POPC   C4B68326  17.318  17.679   7.350
 9795POPC   NC368327  31.467  18.301   5.550
 9795POPC   PO468328  31.496  18.258   5.850
 9795POPC   GL168329  31.478  18.291   6.150
 9795POPC   GL268330  31.346  18.345   6.150
 9795POPC   C1A68331  31.436  18.319   6.450
 9795POPC   D2A68332  31.443  18.320   6.750
 9795POPC   C3A68333  31.513  18.332   7.050
 9795POPC   C4A68334  31.423  18.250   7.350
 9795POPC   C1B68335  31.192  18.379   6.450
 9795POPC   C2B68336  31.236  18.316   6.750
 9795POPC   C3B68337  31.191  18.360   7.050
 9795POPC   C4B68338  31.179  18.359   7.350
 9796POPC   NC368339  16.697  39.275   5.550
 9796POPC   PO468340  16.706  39.253   5.850
 9796POPC   GL168341  16.717  39.248   6.150
 9796POPC   GL268342  16.821  39.274   6.150
 9796POPC   C1A68343  16.686  39.268   6.450
 9796POPC   D2A68344  16.691  39.198   6.750
 9796POPC   C3A68345  16.686  39.248   7.050
 9796POPC   C4A68346  16.755  39.252   7.350
 9796POPC   C1B68347  16.950  39.388   6.450
 9796POPC   C2B68348  16.933  39.398   6.750
 9796POPC   C3B68349  16.947  39.320   7.050
 9796POPC   C4B68350  16.943  39.325   7.350
 9797POPC   NC368351   5.876  19.799   5.550
 9797POPC   PO468352   5.862  19.877   5.850
 9797POPC   GL168353   5.884  19.843   6.150
 9797POPC   GL268354   5.842  19.736   6.150
 9797POPC   C1A68355   5.843  19.859   6.450
 9797POPC   D2A68356   5.852  19.831   6.750
 9797POPC   C3A68357   5.919  19.840   7.050
 9797POPC   C4A68358   5.833  19.846   7.350
 9797POPC   C1B68359   5.767  19.634   6.450
 9797POPC   C2B68360   5.788  19.596   6.750
 9797POPC   C3B68361   5.808  19.579   7.050
 9797POPC   C4B68362   5.799  19.557   7.350
 9798POPC   NC368363   6.675  26.839   5.550
 9798POPC   PO468364   6.641  26.851   5.850
 9798POPC   GL168365   6.685  26.815   6.150
 9798POPC   GL268366   6.541  26.678   6.150
 9798POPC   C1A68367   6.627  26.842   6.450
 9798POPC   D2A68368   6.658  26.787   6.750
 9798POPC   C3A68369   6.667  26.848   7.050
 9798POPC   C4A68370   6.675  26.820   7.350
 9798POPC   C1B68371   6.454  26.654   6.450
 9798POPC   C2B68372   6.463  26.649   6.750
 9798POPC   C3B68373   6.449  26.647   7.050
 9798POPC   C4B68374   6.433  26.616   7.350
 9799POPC   NC368375  25.994  38.445   5.550
 9799POPC   PO468376  26.007  38.417   5.850
 9799POPC   GL168377  26.041  38.415   6.150
 9799POPC   GL268378  26.200  38.367   6.150
 9799POPC   C1A68379  26.067  38.463   6.450
 9799POPC   D2A68380  26.053  38.421   6.750
 9799POPC   C3A68381  26.073  38.480   7.050
 9799POPC   C4A68382  26.054  38.482   7.350
 9799POPC   C1B68383  26.284  38.369   6.450
 9799POPC   C2B68384  26.301  38.352   6.750
 9799POPC   C3B68385  26.315  38.368   7.050
 9799POPC   C4B68386  26.247  38.360   7.350
 9800POPC   NC368387  16.744   3.574   5.550
 9800POPC   PO468388  16.776   3.523   5.850
 9800POPC   GL168389  16.696   3.504   6.150
 9800POPC   GL268390  16.688   3.443   6.150
 9800POPC   C1A68391  16.769   3.558   6.450
 9800POPC   D2A68392  16.772   3.560   6.750
 9800POPC   C3A68393  16.713   3.508   7.050
 9800POPC   C4A68394  16.683   3.547   7.350
 9800POPC   C1B68395  16.614   3.388   6.450
 9800POPC   C2B68396  16.589   3.310   6.750
 9800POPC   C3B68397  16.554   3.362   7.050
 9800POPC   C4B68398  16.544   3.305   7.350
 9801POPC   NC368399  19.044  41.593   5.550
 9801POPC   PO468400  19.098  41.577   5.850
 9801POPC   GL168401  19.064  41.591   6.150
 9801POPC   GL268402  18.989  41.398   6.150
 9801POPC   C1A68403  19.015  41.572   6.450
 9801POPC   D2A68404  19.026  41.590   6.750
 9801POPC   C3A68405  19.101  41.552   7.050
 9801POPC   C4A68406  19.069  41.541   7.350
 9801POPC   C1B68407  19.005  41.337   6.450
 9801POPC   C2B68408  19.009  41.323   6.750
 9801POPC   C3B68409  19.048  41.359   7.050
 9801POPC   C4B68410  19.062  41.345   7.350
 9802POPC   NC368411  40.750   3.558   5.550
 9802POPC   PO468412  40.767   3.569   5.850
 9802POPC   GL168413  40.762   3.590   6.150
 9802POPC   GL268414  40.755   3.693   6.150
 9802POPC   C1A68415  40.737   3.493   6.450
 9802POPC   D2A68416  40.773   3.524   6.750
 9802POPC   C3A68417  40.784   3.589   7.050
 9802POPC   C4A68418  40.755   3.546   7.350
 9802POPC   C1B68419  40.734   3.774   6.450
 9802POPC   C2B68420  40.723   3.829   6.750
 9802POPC   C3B68421  40.735   3.830   7.050
 9802POPC   C4B68422  40.703   3.807   7.350
 9803POPC   NC368423   8.198  36.880   5.550
 9803POPC   PO468424   8.200  36.912   5.850
 9803POPC   GL168425   8.192  36.868   6.150
 9803POPC   GL268426   8.325  36.819   6.150
 9803POPC   C1A68427   8.221  36.941   6.450
 9803POPC   D2A68428   8.223  36.882   6.750
 9803POPC   C3A68429   8.215  36.923   7.050
 9803POPC   C4A68430   8.236  36.910   7.350
 9803POPC   C1B68431   8.461  36.818   6.450
 9803POPC   C2B68432   8.438  36.836   6.750
 9803POPC   C3B68433   8.401  36.795   7.050
 9803POPC   C4B68434   8.449  36.862   7.350
 9804POPC   NC368435   8.238  42.295   5.550
 9804POPC   PO468436   8.210  42.312   5.850
 9804POPC   GL168437   8.203  42.327   6.150
 9804POPC   GL268438   8.098  42.409   6.150
 9804POPC   C1A68439   8.209  42.357   6.450
 9804POPC   D2A68440   8.233  42.364   6.750
 9804POPC   C3A68441   8.234  42.306   7.050
 9804POPC   C4A68442   8.154  42.300   7.350
 9804POPC   C1B68443   8.042  42.508   6.450
 9804POPC   C2B68444   8.004  42.530   6.750
 9804POPC   C3B68445   8.038  42.497   7.050
 9804POPC   C4B68446   8.026  42.565   7.350
 9805POPC   NC368447  15.173  27.601   5.550
 9805POPC   PO468448  15.153  27.618   5.850
 9805POPC   GL168449  15.220  27.562   6.150
 9805POPC   GL268450  15.088  27.567   6.150
 9805POPC   C1A68451  15.195  27.612   6.450
 9805POPC   D2A68452  15.224  27.558   6.750
 9805POPC   C3A68453  15.133  27.580   7.050
 9805POPC   C4A68454  15.157  27.579   7.350
 9805POPC   C1B68455  14.957  27.556   6.450
 9805POPC   C2B68456  14.958  27.538   6.750
 9805POPC   C3B68457  14.959  27.483   7.050
 9805POPC   C4B68458  14.978  27.524   7.350
 9806POPC   NC368459  14.393  15.155   5.550
 9806POPC   PO468460  14.430  15.181   5.850
 9806POPC   GL168461  14.394  15.162   6.150
 9806POPC   GL268462  14.290  15.194   6.150
 9806POPC   C1A68463  14.364  15.153   6.450
 9806POPC   D2A68464  14.430  15.220   6.750
 9806POPC   C3A68465  14.357  15.186   7.050
 9806POPC   C4A68466  14.431  15.163   7.350
 9806POPC   C1B68467  14.179  15.190   6.450
 9806POPC   C2B68468  14.179  15.183   6.750
 9806POPC   C3B68469  14.166  15.169   7.050
 9806POPC   C4B68470  14.125  15.177   7.350
 9807POPC   NC368471  42.371  14.429   5.550
 9807POPC   PO468472  42.306  14.425   5.850
 9807POPC   GL168473  42.348  14.453   6.150
 9807POPC   GL268474  42.195  14.491   6.150
 9807POPC   C1A68475  42.368  14.393   6.450
 9807POPC   D2A68476  42.367  14.358   6.750
 9807POPC   C3A68477  42.338  14.430   7.050
 9807POPC   C4A68478  42.327  14.397   7.350
 9807POPC   C1B68479  42.133  14.476   6.450
 9807POPC   C2B68480  42.153  14.540   6.750
 9807POPC   C3B68481  42.088  14.482   7.050
 9807POPC   C4B68482  42.129  14.541   7.350
 9808POPC   NC368483   7.438  11.309   5.550
 9808POPC   PO468484   7.468  11.278   5.850
 9808POPC   GL168485   7.404  11.292   6.150
 9808POPC   GL268486   7.565  11.322   6.150
 9808POPC   C1A68487   7.451  11.320   6.450
 9808POPC   D2A68488   7.412  11.299   6.750
 9808POPC   C3A68489   7.429  11.301   7.050
 9808POPC   C4A68490   7.415  11.294   7.350
 9808POPC   C1B68491   7.716  11.291   6.450
 9808POPC   C2B68492   7.708  11.346   6.750
 9808POPC   C3B68493   7.675  11.273   7.050
 9808POPC   C4B68494   7.696  11.265   7.350
 9809POPC   NC368495   6.601  35.388   5.550
 9809POPC   PO468496   6.678  35.311   5.850
 9809POPC   GL168497   6.630  35.398   6.150
 9809POPC   GL268498   6.674  35.517   6.150
 9809POPC   C1A68499   6.659  35.345   6.450
 9809POPC   D2A68500   6.681  35.355   6.750
 9809POPC   C3A68501   6.668  35.341   7.050
 9809POPC   C4A68502   6.640  35.383   7.350
 9809POPC   C1B68503   6.650  35.624   6.450
 9809POPC   C2B68504   6.634  35.555   6.750
 9809POPC   C3B68505   6.584  35.591   7.050
 9809POPC   C4B68506   6.610  35.564   7.350
 9810POPC   NC368507  34.609   2.019   5.550
 9810POPC   PO468508  34.539   1.945   5.850
 9810POPC   GL168509  34.571   2.000   6.150
 9810POPC   GL268510  34.548   2.082   6.150
 9810POPC   C1A68511  34.577   1.959   6.450
 9810POPC   D2A68512  34.589   2.026   6.750
 9810POPC   C3A68513  34.529   1.945   7.050
 9810POPC   C4A68514  34.548   2.032   7.350
 9810POPC   C1B68515  34.600   2.269   6.450
 9810POPC   C2B68516  34.599   2.221   6.750
 9810POPC   C3B68517  34.598   2.280   7.050
 9810POPC   C4B68518  34.633   2.282   7.350
 9811POPC   NC368519  32.226  21.341   5.550
 9811POPC   PO468520  32.211  21.352   5.850
 9811POPC   GL168521  32.259  21.400   6.150
 9811POPC   GL268522  32.279  21.295   6.150
 9811POPC   C1A68523  32.245  21.363   6.450
 9811POPC   D2A68524  32.215  21.360   6.750
 9811POPC   C3A68525  32.270  21.429   7.050
 9811POPC   C4A68526  32.268  21.428   7.350
 9811POPC   C1B68527  32.367  21.195   6.450
 9811POPC   C2B68528  32.317  21.137   6.750
 9811POPC   C3B68529  32.369  21.158   7.050
 9811POPC   C4B68530  32.293  21.128   7.350
 9812POPC   NC368531  25.253  38.451   5.550
 9812POPC   PO468532  25.256  38.434   5.850
 9812POPC   GL168533  25.216  38.467   6.150
 9812POPC   GL268534  25.341  38.413   6.150
 9812POPC   C1A68535  25.250  38.476   6.450
 9812POPC   D2A68536  25.247  38.414   6.750
 9812POPC   C3A68537  25.290  38.451   7.050
 9812POPC   C4A68538  25.236  38.443   7.350
 9812POPC   C1B68539  25.532  38.367   6.450
 9812POPC   C2B68540  25.462  38.405   6.750
 9812POPC   C3B68541  25.527  38.329   7.050
 9812POPC   C4B68542  25.505  38.340   7.350
 9813POPC   NC368543  38.473  28.400   5.550
 9813POPC   PO468544  38.495  28.356   5.850
 9813POPC   GL168545  38.466  28.392   6.150
 9813POPC   GL268546  38.550  28.427   6.150
 9813POPC   C1A68547  38.494  28.380   6.450
 9813POPC   D2A68548  38.425  28.412   6.750
 9813POPC   C3A68549  38.480  28.388   7.050
 9813POPC   C4A68550  38.458  28.342   7.350
 9813POPC   C1B68551  38.711  28.384   6.450
 9813POPC   C2B68552  38.712  28.427   6.750
 9813POPC   C3B68553  38.670  28.440   7.050
 9813POPC   C4B68554  38.743  28.353   7.350
 9814POPC   NC368555  41.606  37.640   5.550
 9814POPC   PO468556  41.553  37.714   5.850
 9814POPC   GL168557  41.549  37.719   6.150
 9814POPC   GL268558  41.672  37.585   6.150
 9814POPC   C1A68559  41.574  37.688   6.450
 9814POPC   D2A68560  41.542  37.633   6.750
 9814POPC   C3A68561  41.602  37.630   7.050
 9814POPC   C4A68562  41.565  37.676   7.350
 9814POPC   C1B68563  41.821  37.542   6.450
 9814POPC   C2B68564  41.734  37.517   6.750
 9814POPC   C3B68565  41.784  37.571   7.050
 9814POPC   C4B68566  41.810  37.600   7.350
 9815POPC   NC368567  43.858  25.228   5.550
 9815POPC   PO468568  43.869  25.238   5.850
 9815POPC   GL168569  43.845  25.264   6.150
 9815POPC   GL268570  44.012  25.161   6.150
 9815POPC   C1A68571  43.844  25.256   6.450
 9815POPC   D2A68572  43.871  25.282   6.750
 9815POPC   C3A68573  43.909  25.314   7.050
 9815POPC   C4A68574  43.919  25.228   7.350
 9815POPC   C1B68575  44.045  25.071   6.450
 9815POPC   C2B68576  44.090  25.096   6.750
 9815POPC   C3B68577  44.085  25.125   7.050
 9815POPC   C4B68578  44.083  25.108   7.350
 9816POPC   NC368579  18.246  19.049   5.550
 9816POPC   PO468580  18.298  19.084   5.850
 9816POPC   GL168581  18.309  19.086   6.150
 9816POPC   GL268582  18.319  19.150   6.150
 9816POPC   C1A68583  18.317  19.080   6.450
 9816POPC   D2A68584  18.290  19.098   6.750
 9816POPC   C3A68585  18.303  19.077   7.050
 9816POPC   C4A68586  18.282  19.047   7.350
 9816POPC   C1B68587  18.310  19.357   6.450
 9816POPC   C2B68588  18.274  19.261   6.750
 9816POPC   C3B68589  18.299  19.272   7.050
 9816POPC   C4B68590  18.297  19.301   7.350
 9817POPC   NC368591  40.780  21.409   5.550
 9817POPC   PO468592  40.777  21.373   5.850
 9817POPC   GL168593  40.819  21.418   6.150
 9817POPC   GL268594  40.651  21.351   6.150
 9817POPC   C1A68595  40.747  21.354   6.450
 9817POPC   D2A68596  40.763  21.341   6.750
 9817POPC   C3A68597  40.753  21.379   7.050
 9817POPC   C4A68598  40.794  21.368   7.350
 9817POPC   C1B68599  40.538  21.404   6.450
 9817POPC   C2B68600  40.559  21.417   6.750
 9817POPC   C3B68601  40.519  21.417   7.050
 9817POPC   C4B68602  40.558  21.379   7.350
 9818POPC   NC368603   4.284  27.625   5.550
 9818POPC   PO468604   4.321  27.629   5.850
 9818POPC   GL168605   4.297  27.585   6.150
 9818POPC   GL268606   4.287  27.737   6.150
 9818POPC   C1A68607   4.290  27.553   6.450
 9818POPC   D2A68608   4.334  27.590   6.750
 9818POPC   C3A68609   4.331  27.554   7.050
 9818POPC   C4A68610   4.309  27.597   7.350
 9818POPC   C1B68611   4.323  27.856   6.450
 9818POPC   C2B68612   4.332  27.801   6.750
 9818POPC   C3B68613   4.305  27.861   7.050
 9818POPC   C4B68614   4.353  27.811   7.350
 9819POPC   NC368615  38.447  39.245   5.550
 9819POPC   PO468616  38.484  39.218   5.850
 9819POPC   GL168617  38.465  39.219   6.150
 9819POPC   GL268618  38.483  39.376   6.150
 9819POPC   C1A68619  38.442  39.280   6.450
 9819POPC   D2A68620  38.485  39.255   6.750
 9819POPC   C3A68621  38.482  39.274   7.050
 9819POPC   C4A68622  38.457  39.264   7.350
 9819POPC   C1B68623  38.570  39.490   6.450
 9819POPC   C2B68624  38.528  39.479   6.750
 9819POPC   C3B68625  38.532  39.496   7.050
 9819POPC   C4B68626  38.548  39.455   7.350
 9820POPC   NC368627  43.084  16.726   5.550
 9820POPC   PO468628  43.148  16.729   5.850
 9820POPC   GL168629  43.097  16.772   6.150
 9820POPC   GL268630  43.106  16.596   6.150
 9820POPC   C1A68631  43.067  16.694   6.450
 9820POPC   D2A68632  43.131  16.733   6.750
 9820POPC   C3A68633  43.073  16.756   7.050
 9820POPC   C4A68634  43.158  16.771   7.350
 9820POPC   C1B68635  43.039  16.487   6.450
 9820POPC   C2B68636  43.080  16.447   6.750
 9820POPC   C3B68637  43.071  16.516   7.050
 9820POPC   C4B68638  43.076  16.502   7.350
 9821POPC   NC368639  36.953  11.298   5.550
 9821POPC   PO468640  36.952  11.253   5.850
 9821POPC   GL168641  36.951  11.291   6.150
 9821POPC   GL268642  36.830  11.394   6.150
 9821POPC   C1A68643  36.915  11.275   6.450
 9821POPC   D2A68644  36.887  11.332   6.750
 9821POPC   C3A68645  36.881  11.350   7.050
 9821POPC   C4A68646  36.947  11.349   7.350
 9821POPC   C1B68647  36.741  11.480   6.450
 9821POPC   C2B68648  36.661  11.433   6.750
 9821POPC   C3B68649  36.716  11.446   7.050
 9821POPC   C4B68650  36.703  11.427   7.350
 9822POPC   NC368651  37.699   1.970   5.550
 9822POPC   PO468652  37.634   2.008   5.850
 9822POPC   GL168653  37.647   2.010   6.150
 9822POPC   GL268654  37.574   2.011   6.150
 9822POPC   C1A68655  37.657   2.018   6.450
 9822POPC   D2A68656  37.681   1.940   6.750
 9822POPC   C3A68657  37.658   2.029   7.050
 9822POPC   C4A68658  37.653   1.998   7.350
 9822POPC   C1B68659  37.448   2.080   6.450
 9822POPC   C2B68660  37.462   2.073   6.750
 9822POPC   C3B68661  37.419   2.022   7.050
 9822POPC   C4B68662  37.477   2.064   7.350
 9823POPC   NC368663  14.363  16.777   5.550
 9823POPC   PO468664  14.398  16.698   5.850
 9823POPC   GL168665  14.392  16.709   6.150
 9823POPC   GL268666  14.331  16.835   6.150
 9823POPC   C1A68667  14.431  16.712   6.450
 9823POPC   D2A68668  14.393  16.738   6.750
 9823POPC   C3A68669  14.433  16.689   7.050
 9823POPC   C4A68670  14.355  16.712   7.350
 9823POPC   C1B68671  14.218  16.855   6.450
 9823POPC   C2B68672  14.164  16.819   6.750
 9823POPC   C3B68673  14.208  16.852   7.050
 9823POPC   C4B68674  14.154  16.813   7.350
 9824POPC   NC368675  31.449  15.208   5.550
 9824POPC   PO468676  31.446  15.225   5.850
 9824POPC   GL168677  31.493  15.167   6.150
 9824POPC   GL268678  31.555  15.208   6.150
 9824POPC   C1A68679  31.457  15.167   6.450
 9824POPC   D2A68680  31.482  15.208   6.750
 9824POPC   C3A68681  31.501  15.171   7.050
 9824POPC   C4A68682  31.458  15.157   7.350
 9824POPC   C1B68683  31.712  15.165   6.450
 9824POPC   C2B68684  31.769  15.132   6.750
 9824POPC   C3B68685  31.768  15.167   7.050
 9824POPC   C4B68686  31.736  15.163   7.350
 9825POPC   NC368687   9.760   7.469   5.550
 9825POPC   PO468688   9.705   7.424   5.850
 9825POPC   GL168689   9.730   7.435   6.150
 9825POPC   GL268690   9.858   7.434   6.150
 9825POPC   C1A68691   9.722   7.406   6.450
 9825POPC   D2A68692   9.780   7.395   6.750
 9825POPC   C3A68693   9.762   7.384   7.050
 9825POPC   C4A68694   9.747   7.408   7.350
 9825POPC   C1B68695  10.023   7.482   6.450
 9825POPC   C2B68696  10.024   7.492   6.750
 9825POPC   C3B68697   9.982   7.500   7.050
 9825POPC   C4B68698   9.929   7.495   7.350
 9826POPC   NC368699  44.643  35.393   5.550
 9826POPC   PO468700  44.683  35.387   5.850
 9826POPC   GL168701  44.673  35.398   6.150
 9826POPC   GL268702  44.674  35.494   6.150
 9826POPC   C1A68703  44.688  35.381   6.450
 9826POPC   D2A68704  44.622  35.398   6.750
 9826POPC   C3A68705  44.616  35.325   7.050
 9826POPC   C4A68706  44.695  35.316   7.350
 9826POPC   C1B68707  44.815  35.528   6.450
 9826POPC   C2B68708  44.732  35.542   6.750
 9826POPC   C3B68709  44.747  35.603   7.050
 9826POPC   C4B68710  44.723  35.578   7.350
 9827POPC   NC368711   7.372  43.124   5.550
 9827POPC   PO468712   7.405  43.132   5.850
 9827POPC   GL168713   7.470  43.128   6.150
 9827POPC   GL268714   7.540  43.107   6.150
 9827POPC   C1A68715   7.423  43.110   6.450
 9827POPC   D2A68716   7.398  43.090   6.750
 9827POPC   C3A68717   7.466  43.123   7.050
 9827POPC   C4A68718   7.412  43.111   7.350
 9827POPC   C1B68719   7.689  43.121   6.450
 9827POPC   C2B68720   7.716  43.159   6.750
 9827POPC   C3B68721   7.664  43.184   7.050
 9827POPC   C4B68722   7.636  43.149   7.350
 9828POPC   NC368723  43.850  32.241   5.550
 9828POPC   PO468724  43.919  32.277   5.850
 9828POPC   GL168725  43.908  32.274   6.150
 9828POPC   GL268726  43.795  32.137   6.150
 9828POPC   C1A68727  43.887  32.230   6.450
 9828POPC   D2A68728  43.881  32.268   6.750
 9828POPC   C3A68729  43.880  32.229   7.050
 9828POPC   C4A68730  43.865  32.258   7.350
 9828POPC   C1B68731  43.669  32.070   6.450
 9828POPC   C2B68732  43.672  32.050   6.750
 9828POPC   C3B68733  43.696  32.030   7.050
 9828POPC   C4B68734  43.744  32.025   7.350
 9829POPC   NC368735   5.047  29.110   5.550
 9829POPC   PO468736   5.106  29.158   5.850
 9829POPC   GL168737   5.075  29.115   6.150
 9829POPC   GL268738   5.205  29.254   6.150
 9829POPC   C1A68739   5.074  29.181   6.450
 9829POPC   D2A68740   5.086  29.104   6.750
 9829POPC   C3A68741   5.085  29.131   7.050
 9829POPC   C4A68742   5.107  29.120   7.350
 9829POPC   C1B68743   5.309  29.285   6.450
 9829POPC   C2B68744   5.327  29.285   6.750
 9829POPC   C3B68745   5.301  29.226   7.050
 9829POPC   C4B68746   5.281  29.309   7.350
 9830POPC   NC368747   1.176   5.842   5.550
 9830POPC   PO468748   1.223   5.876   5.850
 9830POPC   GL168749   1.204   5.895   6.150
 9830POPC   GL268750   1.261   5.985   6.150
 9830POPC   C1A68751   1.242   5.835   6.450
 9830POPC   D2A68752   1.200   5.825   6.750
 9830POPC   C3A68753   1.174   5.858   7.050
 9830POPC   C4A68754   1.167   5.825   7.350
 9830POPC   C1B68755   1.334   6.053   6.450
 9830POPC   C2B68756   1.326   6.120   6.750
 9830POPC   C3B68757   1.345   6.022   7.050
 9830POPC   C4B68758   1.326   6.056   7.350
 9831POPC   NC368759  36.932  21.382   5.550
 9831POPC   PO468760  36.903  21.373   5.850
 9831POPC   GL168761  36.881  21.435   6.150
 9831POPC   GL268762  36.786  21.272   6.150
 9831POPC   C1A68763  36.895  21.390   6.450
 9831POPC   D2A68764  36.854  21.392   6.750
 9831POPC   C3A68765  36.948  21.430   7.050
 9831POPC   C4A68766  36.948  21.354   7.350
 9831POPC   C1B68767  36.717  21.259   6.450
 9831POPC   C2B68768  36.662  21.242   6.750
 9831POPC   C3B68769  36.673  21.203   7.050
 9831POPC   C4B68770  36.719  21.206   7.350
 9832POPC   NC368771  13.662   2.747   5.550
 9832POPC   PO468772  13.597   2.783   5.850
 9832POPC   GL168773  13.650   2.751   6.150
 9832POPC   GL268774  13.770   2.770   6.150
 9832POPC   C1A68775  13.598   2.782   6.450
 9832POPC   D2A68776  13.629   2.741   6.750
 9832POPC   C3A68777  13.587   2.754   7.050
 9832POPC   C4A68778  13.611   2.800   7.350
 9832POPC   C1B68779  13.857   2.845   6.450
 9832POPC   C2B68780  13.874   2.854   6.750
 9832POPC   C3B68781  13.915   2.788   7.050
 9832POPC   C4B68782  13.851   2.781   7.350
 9833POPC   NC368783  21.400   8.982   5.550
 9833POPC   PO468784  21.361   8.966   5.850
 9833POPC   GL168785  21.368   9.006   6.150
 9833POPC   GL268786  21.508   8.962   6.150
 9833POPC   C1A68787  21.337   8.955   6.450
 9833POPC   D2A68788  21.407   8.926   6.750
 9833POPC   C3A68789  21.347   8.944   7.050
 9833POPC   C4A68790  21.424   8.951   7.350
 9833POPC   C1B68791  21.682   9.023   6.450
 9833POPC   C2B68792  21.633   8.975   6.750
 9833POPC   C3B68793  21.644   8.971   7.050
 9833POPC   C4B68794  21.609   9.005   7.350
 9834POPC   NC368795  39.229  27.627   5.550
 9834POPC   PO468796  39.215  27.593   5.850
 9834POPC   GL168797  39.232  27.575   6.150
 9834POPC   GL268798  39.360  27.594   6.150
 9834POPC   C1A68799  39.230  27.545   6.450
 9834POPC   D2A68800  39.236  27.588   6.750
 9834POPC   C3A68801  39.265  27.596   7.050
 9834POPC   C4A68802  39.281  27.611   7.350
 9834POPC   C1B68803  39.437  27.577   6.450
 9834POPC   C2B68804  39.469  27.622   6.750
 9834POPC   C3B68805  39.438  27.671   7.050
 9834POPC   C4B68806  39.493  27.672   7.350
 9835POPC   NC368807   2.720  37.666   5.550
 9835POPC   PO468808   2.791  37.700   5.850
 9835POPC   GL168809   2.760  37.680   6.150
 9835POPC   GL268810   2.602  37.727   6.150
 9835POPC   C1A68811   2.804  37.631   6.450
 9835POPC   D2A68812   2.815  37.689   6.750
 9835POPC   C3A68813   2.772  37.717   7.050
 9835POPC   C4A68814   2.746  37.709   7.350
 9835POPC   C1B68815   2.545  37.638   6.450
 9835POPC   C2B68816   2.508  37.725   6.750
 9835POPC   C3B68817   2.513  37.707   7.050
 9835POPC   C4B68818   2.521  37.715   7.350
 9836POPC   NC368819  26.044  36.931   5.550
 9836POPC   PO468820  26.042  36.931   5.850
 9836POPC   GL168821  26.012  36.901   6.150
 9836POPC   GL268822  26.097  36.955   6.150
 9836POPC   C1A68823  26.067  36.873   6.450
 9836POPC   D2A68824  26.033  36.866   6.750
 9836POPC   C3A68825  26.001  36.899   7.050
 9836POPC   C4A68826  26.007  36.909   7.350
 9836POPC   C1B68827  26.253  37.064   6.450
 9836POPC   C2B68828  26.278  37.086   6.750
 9836POPC   C3B68829  26.279  37.092   7.050
 9836POPC   C4B68830  26.293  37.082   7.350
 9837POPC   NC368831  11.265  10.570   5.550
 9837POPC   PO468832  11.287  10.509   5.850
 9837POPC   GL168833  11.255  10.556   6.150
 9837POPC   GL268834  11.139  10.562   6.150
 9837POPC   C1A68835  11.339  10.489   6.450
 9837POPC   D2A68836  11.290  10.573   6.750
 9837POPC   C3A68837  11.333  10.562   7.050
 9837POPC   C4A68838  11.311  10.556   7.350
 9837POPC   C1B68839  11.116  10.620   6.450
 9837POPC   C2B68840  11.103  10.641   6.750
 9837POPC   C3B68841  11.063  10.588   7.050
 9837POPC   C4B68842  11.109  10.665   7.350
 9838POPC   NC368843  28.383  14.389   5.550
 9838POPC   PO468844  28.384  14.357   5.850
 9838POPC   GL168845  28.370  14.451   6.150
 9838POPC   GL268846  28.497  14.335   6.150
 9838POPC   C1A68847  28.389  14.450   6.450
 9838POPC   D2A68848  28.402  14.387   6.750
 9838POPC   C3A68849  28.329  14.409   7.050
 9838POPC   C4A68850  28.352  14.402   7.350
 9838POPC   C1B68851  28.603  14.237   6.450
 9838POPC   C2B68852  28.618  14.218   6.750
 9838POPC   C3B68853  28.530  14.281   7.050
 9838POPC   C4B68854  28.621  14.229   7.350
 9839POPC   NC368855   9.707   5.058   5.550
 9839POPC   PO468856   9.707   5.070   5.850
 9839POPC   GL168857   9.737   5.050   6.150
 9839POPC   GL268858   9.851   5.040   6.150
 9839POPC   C1A68859   9.718   5.114   6.450
 9839POPC   D2A68860   9.750   5.108   6.750
 9839POPC   C3A68861   9.779   5.111   7.050
 9839POPC   C4A68862   9.710   5.137   7.350
 9839POPC   C1B68863   9.946   4.982   6.450
 9839POPC   C2B68864   9.960   4.965   6.750
 9839POPC   C3B68865   9.921   4.921   7.050
 9839POPC   C4B68866   9.955   4.969   7.350
 9840POPC   NC368867  40.022  14.403   5.550
 9840POPC   PO468868  39.962  14.423   5.850
 9840POPC   GL168869  40.020  14.361   6.150
 9840POPC   GL268870  40.010  14.572   6.150
 9840POPC   C1A68871  39.958  14.426   6.450
 9840POPC   D2A68872  40.034  14.355   6.750
 9840POPC   C3A68873  39.958  14.389   7.050
 9840POPC   C4A68874  40.012  14.368   7.350
 9840POPC   C1B68875  39.963  14.666   6.450
 9840POPC   C2B68876  39.918  14.614   6.750
 9840POPC   C3B68877  39.892  14.603   7.050
 9840POPC   C4B68878  39.979  14.600   7.350
 9841POPC   NC368879  19.827   4.327   5.550
 9841POPC   PO468880  19.838   4.303   5.850
 9841POPC   GL168881  19.857   4.277   6.150
 9841POPC   GL268882  19.843   4.414   6.150
 9841POPC   C1A68883  19.855   4.286   6.450
 9841POPC   D2A68884  19.811   4.365   6.750
 9841POPC   C3A68885  19.856   4.324   7.050
 9841POPC   C4A68886  19.874   4.323   7.350
 9841POPC   C1B68887  19.883   4.563   6.450
 9841POPC   C2B68888  19.947   4.520   6.750
 9841POPC   C3B68889  19.928   4.509   7.050
 9841POPC   C4B68890  19.875   4.503   7.350
 9842POPC   NC368891  22.207  22.194   5.550
 9842POPC   PO468892  22.119  22.160   5.850
 9842POPC   GL168893  22.186  22.166   6.150
 9842POPC   GL268894  22.056  22.093   6.150
 9842POPC   C1A68895  22.196  22.199   6.450
 9842POPC   D2A68896  22.205  22.200   6.750
 9842POPC   C3A68897  22.117  22.168   7.050
 9842POPC   C4A68898  22.146  22.126   7.350
 9842POPC   C1B68899  21.956  22.072   6.450
 9842POPC   C2B68900  21.949  22.095   6.750
 9842POPC   C3B68901  21.897  22.067   7.050
 9842POPC   C4B68902  21.881  22.049   7.350
 9843POPC   NC368903  24.470  26.794   5.550
 9843POPC   PO468904  24.521  26.825   5.850
 9843POPC   GL168905  24.523  26.838   6.150
 9843POPC   GL268906  24.576  26.689   6.150
 9843POPC   C1A68907  24.539  26.797   6.450
 9843POPC   D2A68908  24.521  26.801   6.750
 9843POPC   C3A68909  24.510  26.820   7.050
 9843POPC   C4A68910  24.459  26.817   7.350
 9843POPC   C1B68911  24.555  26.553   6.450
 9843POPC   C2B68912  24.638  26.586   6.750
 9843POPC   C3B68913  24.570  26.633   7.050
 9843POPC   C4B68914  24.617  26.639   7.350
 9844POPC   NC368915  36.092   1.257   5.550
 9844POPC   PO468916  36.143   1.187   5.850
 9844POPC   GL168917  36.171   1.261   6.150
 9844POPC   GL268918  36.122   1.116   6.150
 9844POPC   C1A68919  36.100   1.262   6.450
 9844POPC   D2A68920  36.115   1.248   6.750
 9844POPC   C3A68921  36.158   1.200   7.050
 9844POPC   C4A68922  36.123   1.176   7.350
 9844POPC   C1B68923  36.116   0.952   6.450
 9844POPC   C2B68924  36.143   0.958   6.750
 9844POPC   C3B68925  36.098   0.956   7.050
 9844POPC   C4B68926  36.065   0.931   7.350
 9845POPC   NC368927  36.138   4.359   5.550
 9845POPC   PO468928  36.100   4.338   5.850
 9845POPC   GL168929  36.168   4.317   6.150
 9845POPC   GL268930  36.137   4.216   6.150
 9845POPC   C1A68931  36.121   4.345   6.450
 9845POPC   D2A68932  36.156   4.278   6.750
 9845POPC   C3A68933  36.156   4.339   7.050
 9845POPC   C4A68934  36.093   4.268   7.350
 9845POPC   C1B68935  36.111   4.031   6.450
 9845POPC   C2B68936  36.122   4.044   6.750
 9845POPC   C3B68937  36.090   4.045   7.050
 9845POPC   C4B68938  36.166   4.040   7.350
 9846POPC   NC368939  15.192  37.636   5.550
 9846POPC   PO468940  15.198  37.664   5.850
 9846POPC   GL168941  15.201  37.634   6.150
 9846POPC   GL268942  15.092  37.593   6.150
 9846POPC   C1A68943  15.227  37.652   6.450
 9846POPC   D2A68944  15.191  37.729   6.750
 9846POPC   C3A68945  15.169  37.646   7.050
 9846POPC   C4A68946  15.140  37.640   7.350
 9846POPC   C1B68947  14.949  37.547   6.450
 9846POPC   C2B68948  14.947  37.530   6.750
 9846POPC   C3B68949  14.953  37.519   7.050
 9846POPC   C4B68950  14.964  37.527   7.350
 9847POPC   NC368951  42.354  29.101   5.550
 9847POPC   PO468952  42.318  29.179   5.850
 9847POPC   GL168953  42.318  29.190   6.150
 9847POPC   GL268954  42.263  29.071   6.150
 9847POPC   C1A68955  42.338  29.134   6.450
 9847POPC   D2A68956  42.294  29.177   6.750
 9847POPC   C3A68957  42.329  29.170   7.050
 9847POPC   C4A68958  42.310  29.162   7.350
 9847POPC   C1B68959  42.114  28.989   6.450
 9847POPC   C2B68960  42.180  29.033   6.750
 9847POPC   C3B68961  42.116  28.952   7.050
 9847POPC   C4B68962  42.133  28.993   7.350
 9848POPC   NC368963  32.991  32.278   5.550
 9848POPC   PO468964  33.064  32.218   5.850
 9848POPC   GL168965  33.062  32.253   6.150
 9848POPC   GL268966  33.019  32.122   6.150
 9848POPC   C1A68967  32.982  32.200   6.450
 9848POPC   D2A68968  33.073  32.274   6.750
 9848POPC   C3A68969  33.065  32.274   7.050
 9848POPC   C4A68970  32.992  32.262   7.350
 9848POPC   C1B68971  33.104  31.963   6.450
 9848POPC   C2B68972  33.081  31.972   6.750
 9848POPC   C3B68973  33.046  31.959   7.050
 9848POPC   C4B68974  33.057  32.010   7.350
 9849POPC   NC368975  26.028   4.276   5.550
 9849POPC   PO468976  26.029   4.341   5.850
 9849POPC   GL168977  26.036   4.316   6.150
 9849POPC   GL268978  26.151   4.223   6.150
 9849POPC   C1A68979  26.065   4.345   6.450
 9849POPC   D2A68980  26.011   4.341   6.750
 9849POPC   C3A68981  26.010   4.334   7.050
 9849POPC   C4A68982  26.047   4.342   7.350
 9849POPC   C1B68983  26.248   4.156   6.450
 9849POPC   C2B68984  26.266   4.116   6.750
 9849POPC   C3B68985  26.243   4.173   7.050
 9849POPC   C4B68986  26.198   4.132   7.350
 9850POPC   NC368987  24.533  15.921   5.550
 9850POPC   PO468988  24.490  15.994   5.850
 9850POPC   GL168989  24.507  15.994   6.150
 9850POPC   GL268990  24.401  16.094   6.150
 9850POPC   C1A68991  24.516  15.982   6.450
 9850POPC   D2A68992  24.528  15.956   6.750
 9850POPC   C3A68993  24.491  15.954   7.050
 9850POPC   C4A68994  24.481  15.908   7.350
 9850POPC   C1B68995  24.313  16.164   6.450
 9850POPC   C2B68996  24.354  16.120   6.750
 9850POPC   C3B68997  24.312  16.190   7.050
 9850POPC   C4B68998  24.316  16.121   7.350
 9851POPC   NC368999   6.635  27.553   5.550
 9851POPC   PO469000   6.666  27.577   5.850
 9851POPC   GL169001   6.665  27.625   6.150
 9851POPC   GL269002   6.755  27.733   6.150
 9851POPC   C1A69003   6.630  27.571   6.450
 9851POPC   D2A69004   6.694  27.621   6.750
 9851POPC   C3A69005   6.652  27.622   7.050
 9851POPC   C4A69006   6.692  27.571   7.350
 9851POPC   C1B69007   6.837  27.781   6.450
 9851POPC   C2B69008   6.834  27.769   6.750
 9851POPC   C3B69009   6.820  27.835   7.050
 9851POPC   C4B69010   6.800  27.807   7.350
 9852POPC   NC369011  24.479   1.170   5.550
 9852POPC   PO469012  24.527   1.228   5.850
 9852POPC   GL169013  24.539   1.218   6.150
 9852POPC   GL269014  24.393   1.168   6.150
 9852POPC   C1A69015  24.523   1.233   6.450
 9852POPC   D2A69016  24.478   1.194   6.750
 9852POPC   C3A69017  24.511   1.235   7.050
 9852POPC   C4A69018  24.485   1.249   7.350
 9852POPC   C1B69019  24.254   1.034   6.450
 9852POPC   C2B69020  24.247   1.058   6.750
 9852POPC   C3B69021  24.287   1.021   7.050
 9852POPC   C4B69022  24.282   1.077   7.350
 9853POPC   NC369023   1.228  32.997   5.550
 9853POPC   PO469024   1.230  33.033   5.850
 9853POPC   GL169025   1.238  32.988   6.150
 9853POPC   GL269026   1.346  33.083   6.150
 9853POPC   C1A69027   1.216  33.002   6.450
 9853POPC   D2A69028   1.189  33.035   6.750
 9853POPC   C3A69029   1.234  33.023   7.050
 9853POPC   C4A69030   1.191  33.058   7.350
 9853POPC   C1B69031   1.442  33.130   6.450
 9853POPC   C2B69032   1.457  33.113   6.750
 9853POPC   C3B69033   1.411  33.176   7.050
 9853POPC   C4B69034   1.457  33.182   7.350
 9854POPC   NC369035  25.232   2.807   5.550
 9854POPC   PO469036  25.224   2.783   5.850
 9854POPC   GL169037  25.304   2.769   6.150
 9854POPC   GL269038  25.416   2.827   6.150
 9854POPC   C1A69039  25.295   2.771   6.450
 9854POPC   D2A69040  25.219   2.815   6.750
 9854POPC   C3A69041  25.250   2.814   7.050
 9854POPC   C4A69042  25.262   2.744   7.350
 9854POPC   C1B69043  25.461   2.846   6.450
 9854POPC   C2B69044  25.444   2.895   6.750
 9854POPC   C3B69045  25.464   2.896   7.050
 9854POPC   C4B69046  25.501   2.849   7.350
 9855POPC   NC369047  22.987  36.117   5.550
 9855POPC   PO469048  22.918  36.149   5.850
 9855POPC   GL169049  22.922  36.085   6.150
 9855POPC   GL269050  23.010  36.270   6.150
 9855POPC   C1A69051  22.980  36.087   6.450
 9855POPC   D2A69052  22.984  36.106   6.750
 9855POPC   C3A69053  22.927  36.081   7.050
 9855POPC   C4A69054  22.917  36.176   7.350
 9855POPC   C1B69055  23.086  36.368   6.450
 9855POPC   C2B69056  23.039  36.365   6.750
 9855POPC   C3B69057  23.060  36.314   7.050
 9855POPC   C4B69058  23.065  36.350   7.350
 9856POPC   NC369059   8.224  32.230   5.550
 9856POPC   PO469060   8.199  32.256   5.850
 9856POPC   GL169061   8.240  32.281   6.150
 9856POPC   GL269062   8.323  32.326   6.150
 9856POPC   C1A69063   8.183  32.200   6.450
 9856POPC   D2A69064   8.242  32.202   6.750
 9856POPC   C3A69065   8.184  32.210   7.050
 9856POPC   C4A69066   8.212  32.292   7.350
 9856POPC   C1B69067   8.396  32.296   6.450
 9856POPC   C2B69068   8.404  32.287   6.750
 9856POPC   C3B69069   8.457  32.368   7.050
 9856POPC   C4B69070   8.453  32.312   7.350
 9857POPC   NC369071  12.844   4.349   5.550
 9857POPC   PO469072  12.819   4.308   5.850
 9857POPC   GL169073  12.845   4.339   6.150
 9857POPC   GL269074  12.900   4.457   6.150
 9857POPC   C1A69075  12.877   4.272   6.450
 9857POPC   D2A69076  12.804   4.329   6.750
 9857POPC   C3A69077  12.843   4.313   7.050
 9857POPC   C4A69078  12.856   4.291   7.350
 9857POPC   C1B69079  12.915   4.590   6.450
 9857POPC   C2B69080  12.883   4.546   6.750
 9857POPC   C3B69081  12.869   4.580   7.050
 9857POPC   C4B69082  12.911   4.591   7.350
 9858POPC   NC369083  16.725  28.348   5.550
 9858POPC   PO469084  16.751  28.399   5.850
 9858POPC   GL169085  16.706  28.326   6.150
 9858POPC   GL269086  16.805  28.437   6.150
 9858POPC   C1A69087  16.682  28.340   6.450
 9858POPC   D2A69088  16.728  28.395   6.750
 9858POPC   C3A69089  16.699  28.320   7.050
 9858POPC   C4A69090  16.755  28.389   7.350
 9858POPC   C1B69091  16.956  28.434   6.450
 9858POPC   C2B69092  16.969  28.450   6.750
 9858POPC   C3B69093  16.932  28.450   7.050
 9858POPC   C4B69094  16.983  28.443   7.350
 9859POPC   NC369095   9.752   8.939   5.550
 9859POPC   PO469096   9.755   8.955   5.850
 9859POPC   GL169097   9.726   9.018   6.150
 9859POPC   GL269098   9.651   8.888   6.150
 9859POPC   C1A69099   9.703   8.985   6.450
 9859POPC   D2A69100   9.718   8.961   6.750
 9859POPC   C3A69101   9.786   9.001   7.050
 9859POPC   C4A69102   9.716   8.941   7.350
 9859POPC   C1B69103   9.628   8.751   6.450
 9859POPC   C2B69104   9.599   8.771   6.750
 9859POPC   C3B69105   9.636   8.730   7.050
 9859POPC   C4B69106   9.560   8.799   7.350
 9860POPC   NC369107   5.903  26.027   5.550
 9860POPC   PO469108   5.820  26.080   5.850
 9860POPC   GL169109   5.900  26.064   6.150
 9860POPC   GL269110   5.964  26.149   6.150
 9860POPC   C1A69111   5.852  26.045   6.450
 9860POPC   D2A69112   5.860  26.054   6.750
 9860POPC   C3A69113   5.842  26.011   7.050
 9860POPC   C4A69114   5.822  26.049   7.350
 9860POPC   C1B69115   6.033  26.288   6.450
 9860POPC   C2B69116   6.039  26.192   6.750
 9860POPC   C3B69117   5.994  26.244   7.050
 9860POPC   C4B69118   6.046  26.199   7.350
 9861POPC   NC369119  44.677   4.308   5.550
 9861POPC   PO469120  44.664   4.299   5.850
 9861POPC   GL169121  44.664   4.290   6.150
 9861POPC   GL269122  44.656   4.417   6.150
 9861POPC   C1A69123  44.708   4.322   6.450
 9861POPC   D2A69124  44.613   4.353   6.750
 9861POPC   C3A69125  44.633   4.317   7.050
 9861POPC   C4A69126  44.703   4.352   7.350
 9861POPC   C1B69127  44.742   4.597   6.450
 9861POPC   C2B69128  44.786   4.552   6.750
 9861POPC   C3B69129  44.742   4.566   7.050
 9861POPC   C4B69130  44.757   4.529   7.350
 9862POPC   NC369131  33.793  15.927   5.550
 9862POPC   PO469132  33.760  15.986   5.850
 9862POPC   GL169133  33.765  15.979   6.150
 9862POPC   GL269134  33.959  16.055   6.150
 9862POPC   C1A69135  33.810  15.959   6.450
 9862POPC   D2A69136  33.799  15.910   6.750
 9862POPC   C3A69137  33.781  16.001   7.050
 9862POPC   C4A69138  33.752  15.955   7.350
 9862POPC   C1B69139  34.057  16.079   6.450
 9862POPC   C2B69140  34.048  16.050   6.750
 9862POPC   C3B69141  34.012  16.028   7.050
 9862POPC   C4B69142  34.068  16.091   7.350
 9863POPC   NC369143  28.360   4.314   5.550
 9863POPC   PO469144  28.395   4.364   5.850
 9863POPC   GL169145  28.349   4.336   6.150
 9863POPC   GL269146  28.464   4.182   6.150
 9863POPC   C1A69147  28.418   4.294   6.450
 9863POPC   D2A69148  28.388   4.327   6.750
 9863POPC   C3A69149  28.363   4.272   7.050
 9863POPC   C4A69150  28.349   4.326   7.350
 9863POPC   C1B69151  28.508   4.083   6.450
 9863POPC   C2B69152  28.484   4.085   6.750
 9863POPC   C3B69153  28.492   4.103   7.050
 9863POPC   C4B69154  28.493   4.064   7.350
 9864POPC   NC369155  15.946  44.613   5.550
 9864POPC   PO469156  15.945  44.689   5.850
 9864POPC   GL169157  15.923  44.656   6.150
 9864POPC   GL269158  16.030  44.674   6.150
 9864POPC   C1A69159  15.926  44.629   6.450
 9864POPC   D2A69160  15.946  44.710   6.750
 9864POPC   C3A69161  15.971  44.653   7.050
 9864POPC   C4A69162  15.944  44.674   7.350
 9864POPC   C1B69163  16.233  44.721   6.450
 9864POPC   C2B69164  16.178  44.700   6.750
 9864POPC   C3B69165  16.235  44.752   7.050
 9864POPC   C4B69166  16.189  44.759   7.350
 9865POPC   NC369167  29.957   3.589   5.550
 9865POPC   PO469168  29.926   3.514   5.850
 9865POPC   GL169169  29.881   3.532   6.150
 9865POPC   GL269170  29.823   3.552   6.150
 9865POPC   C1A69171  29.896   3.524   6.450
 9865POPC   D2A69172  29.939   3.536   6.750
 9865POPC   C3A69173  29.935   3.572   7.050
 9865POPC   C4A69174  29.926   3.587   7.350
 9865POPC   C1B69175  29.703   3.595   6.450
 9865POPC   C2B69176  29.718   3.632   6.750
 9865POPC   C3B69177  29.675   3.578   7.050
 9865POPC   C4B69178  29.666   3.613   7.350
 9866POPC   NC369179  41.558  30.706   5.550
 9866POPC   PO469180  41.578  30.656   5.850
 9866POPC   GL169181  41.546  30.703   6.150
 9866POPC   GL269182  41.634  30.663   6.150
 9866POPC   C1A69183  41.586  30.687   6.450
 9866POPC   D2A69184  41.535  30.729   6.750
 9866POPC   C3A69185  41.542  30.717   7.050
 9866POPC   C4A69186  41.601  30.689   7.350
 9866POPC   C1B69187  41.813  30.630   6.450
 9866POPC   C2B69188  41.756  30.689   6.750
 9866POPC   C3B69189  41.796  30.654   7.050
 9866POPC   C4B69190  41.819  30.608   7.350
 9867POPC   NC369191  40.007   2.787   5.550
 9867POPC   PO469192  39.993   2.726   5.850
 9867POPC   GL169193  39.992   2.726   6.150
 9867POPC   GL269194  39.933   2.705   6.150
 9867POPC   C1A69195  40.011   2.741   6.450
 9867POPC   D2A69196  39.973   2.785   6.750
 9867POPC   C3A69197  39.958   2.770   7.050
 9867POPC   C4A69198  40.048   2.757   7.350
 9867POPC   C1B69199  39.790   2.653   6.450
 9867POPC   C2B69200  39.769   2.648   6.750
 9867POPC   C3B69201  39.813   2.586   7.050
 9867POPC   C4B69202  39.774   2.591   7.350
 9868POPC   NC369203  26.090  43.085   5.550
 9868POPC   PO469204  26.018  43.095   5.850
 9868POPC   GL169205  26.049  43.083   6.150
 9868POPC   GL269206  25.907  43.121   6.150
 9868POPC   C1A69207  26.077  43.138   6.450
 9868POPC   D2A69208  25.996  43.156   6.750
 9868POPC   C3A69209  26.056  43.156   7.050
 9868POPC   C4A69210  26.062  43.087   7.350
 9868POPC   C1B69211  25.777  43.266   6.450
 9868POPC   C2B69212  25.802  43.239   6.750
 9868POPC   C3B69213  25.813  43.235   7.050
 9868POPC   C4B69214  25.799  43.229   7.350
 9869POPC   NC369215  12.832  19.880   5.550
 9869POPC   PO469216  12.805  19.863   5.850
 9869POPC   GL169217  12.886  19.787   6.150
 9869POPC   GL269218  12.749  19.865   6.150
 9869POPC   C1A69219  12.877  19.847   6.450
 9869POPC   D2A69220  12.825  19.852   6.750
 9869POPC   C3A69221  12.889  19.875   7.050
 9869POPC   C4A69222  12.855  19.881   7.350
 9869POPC   C1B69223  12.633  19.974   6.450
 9869POPC   C2B69224  12.615  19.989   6.750
 9869POPC   C3B69225  12.654  19.955   7.050
 9869POPC   C4B69226  12.619  19.933   7.350
 9870POPC   NC369227   9.710   0.418   5.550
 9870POPC   PO469228   9.780   0.458   5.850
 9870POPC   GL169229   9.723   0.394   6.150
 9870POPC   GL269230   9.912   0.361   6.150
 9870POPC   C1A69231   9.778   0.433   6.450
 9870POPC   D2A69232   9.709   0.486   6.750
 9870POPC   C3A69233   9.739   0.417   7.050
 9870POPC   C4A69234   9.710   0.418   7.350
 9870POPC   C1B69235   9.942   0.394   6.450
 9870POPC   C2B69236  10.027   0.379   6.750
 9870POPC   C3B69237   9.965   0.332   7.050
 9870POPC   C4B69238  10.013   0.394   7.350
 9871POPC   NC369239  38.412  40.055   5.550
 9871POPC   PO469240  38.455  39.989   5.850
 9871POPC   GL169241  38.487  40.053   6.150
 9871POPC   GL269242  38.610  40.021   6.150
 9871POPC   C1A69243  38.426  39.991   6.450
 9871POPC   D2A69244  38.459  40.018   6.750
 9871POPC   C3A69245  38.441  39.993   7.050
 9871POPC   C4A69246  38.434  39.960   7.350
 9871POPC   C1B69247  38.680  40.045   6.450
 9871POPC   C2B69248  38.673  40.039   6.750
 9871POPC   C3B69249  38.648  40.111   7.050
 9871POPC   C4B69250  38.695  40.051   7.350
 9872POPC   NC369251   5.107  29.887   5.550
 9872POPC   PO469252   5.097  29.921   5.850
 9872POPC   GL169253   5.086  29.882   6.150
 9872POPC   GL269254   5.004  29.981   6.150
 9872POPC   C1A69255   5.143  29.907   6.450
 9872POPC   D2A69256   5.121  29.962   6.750
 9872POPC   C3A69257   5.055  29.922   7.050
 9872POPC   C4A69258   5.075  29.877   7.350
 9872POPC   C1B69259   4.883  30.086   6.450
 9872POPC   C2B69260   4.890  30.110   6.750
 9872POPC   C3B69261   4.940  30.121   7.050
 9872POPC   C4B69262   4.896  30.105   7.350
 9873POPC   NC369263   7.406  32.199   5.550
 9873POPC   PO469264   7.375  32.240   5.850
 9873POPC   GL169265   7.387  32.277   6.150
 9873POPC   GL269266   7.406  32.127   6.150
 9873POPC   C1A69267   7.398  32.257   6.450
 9873POPC   D2A69268   7.428  32.227   6.750
 9873POPC   C3A69269   7.451  32.270   7.050
 9873POPC   C4A69270   7.433  32.228   7.350
 9873POPC   C1B69271   7.321  32.008   6.450
 9873POPC   C2B69272   7.286  32.052   6.750
 9873POPC   C3B69273   7.363  31.995   7.050
 9873POPC   C4B69274   7.352  32.013   7.350
 9874POPC   NC369275  30.720  23.692   5.550
 9874POPC   PO469276  30.727  23.736   5.850
 9874POPC   GL169277  30.670  23.733   6.150
 9874POPC   GL269278  30.625  23.582   6.150
 9874POPC   C1A69279  30.728  23.716   6.450
 9874POPC   D2A69280  30.665  23.684   6.750
 9874POPC   C3A69281  30.703  23.675   7.050
 9874POPC   C4A69282  30.719  23.755   7.350
 9874POPC   C1B69283  30.484  23.574   6.450
 9874POPC   C2B69284  30.481  23.545   6.750
 9874POPC   C3B69285  30.549  23.503   7.050
 9874POPC   C4B69286  30.479  23.484   7.350
 9875POPC   NC369287   6.615   0.441   5.550
 9875POPC   PO469288   6.606   0.398   5.850
 9875POPC   GL169289   6.635   0.449   6.150
 9875POPC   GL269290   6.678   0.335   6.150
 9875POPC   C1A69291   6.624   0.415   6.450
 9875POPC   D2A69292   6.606   0.414   6.750
 9875POPC   C3A69293   6.600   0.426   7.050
 9875POPC   C4A69294   6.675   0.446   7.350
 9875POPC   C1B69295   6.647   0.170   6.450
 9875POPC   C2B69296   6.706   0.185   6.750
 9875POPC   C3B69297   6.704   0.226   7.050
 9875POPC   C4B69298   6.704   0.178   7.350
 9876POPC   NC369299  29.115  18.282   5.550
 9876POPC   PO469300  29.100  18.303   5.850
 9876POPC   GL169301  29.156  18.327   6.150
 9876POPC   GL269302  29.093  18.145   6.150
 9876POPC   C1A69303  29.113  18.303   6.450
 9876POPC   D2A69304  29.111  18.329   6.750
 9876POPC   C3A69305  29.110  18.262   7.050
 9876POPC   C4A69306  29.151  18.266   7.350
 9876POPC   C1B69307  29.113  18.062   6.450
 9876POPC   C2B69308  29.091  18.079   6.750
 9876POPC   C3B69309  29.092  18.029   7.050
 9876POPC   C4B69310  29.082  18.006   7.350
 9877POPC   NC369311   8.956  19.797   5.550
 9877POPC   PO469312   8.968  19.863   5.850
 9877POPC   GL169313   8.942  19.844   6.150
 9877POPC   GL269314   9.024  19.668   6.150
 9877POPC   C1A69315   8.989  19.853   6.450
 9877POPC   D2A69316   8.927  19.818   6.750
 9877POPC   C3A69317   8.994  19.884   7.050
 9877POPC   C4A69318   8.992  19.884   7.350
 9877POPC   C1B69319   8.984  19.600   6.450
 9877POPC   C2B69320   8.985  19.574   6.750
 9877POPC   C3B69321   8.977  19.570   7.050
 9877POPC   C4B69322   8.990  19.632   7.350
 9878POPC   NC369323  20.562  11.301   5.550
 9878POPC   PO469324  20.654  11.313   5.850
 9878POPC   GL169325  20.635  11.266   6.150
 9878POPC   GL269326  20.593  11.189   6.150
 9878POPC   C1A69327  20.623  11.321   6.450
 9878POPC   D2A69328  20.656  11.259   6.750
 9878POPC   C3A69329  20.569  11.323   7.050
 9878POPC   C4A69330  20.578  11.293   7.350
 9878POPC   C1B69331  20.573  11.052   6.450
 9878POPC   C2B69332  20.514  11.091   6.750
 9878POPC   C3B69333  20.571  11.034   7.050
 9878POPC   C4B69334  20.493  11.071   7.350
 9879POPC   NC369335  15.226  11.251   5.550
 9879POPC   PO469336  15.139  11.252   5.850
 9879POPC   GL169337  15.194  11.264   6.150
 9879POPC   GL269338  15.026  11.291   6.150
 9879POPC   C1A69339  15.145  11.264   6.450
 9879POPC   D2A69340  15.195  11.261   6.750
 9879POPC   C3A69341  15.131  11.282   7.050
 9879POPC   C4A69342  15.187  11.280   7.350
 9879POPC   C1B69343  14.950  11.225   6.450
 9879POPC   C2B69344  14.976  11.193   6.750
 9879POPC   C3B69345  14.966  11.267   7.050
 9879POPC   C4B69346  14.987  11.275   7.350
 9880POPC   NC369347   7.396  15.994   5.550
 9880POPC   PO469348   7.438  15.924   5.850
 9880POPC   GL169349   7.418  15.990   6.150
 9880POPC   GL269350   7.378  15.884   6.150
 9880POPC   C1A69351   7.394  15.926   6.450
 9880POPC   D2A69352   7.427  15.925   6.750
 9880POPC   C3A69353   7.434  15.967   7.050
 9880POPC   C4A69354   7.451  15.937   7.350
 9880POPC   C1B69355   7.283  15.750   6.450
 9880POPC   C2B69356   7.270  15.718   6.750
 9880POPC   C3B69357   7.351  15.707   7.050
 9880POPC   C4B69358   7.330  15.706   7.350
 9881POPC   NC369359  33.844  18.249   5.550
 9881POPC   PO469360  33.774  18.301   5.850
 9881POPC   GL169361  33.845  18.242   6.150
 9881POPC   GL269362  33.711  18.369   6.150
 9881POPC   C1A69363  33.845  18.268   6.450
 9881POPC   D2A69364  33.780  18.294   6.750
 9881POPC   C3A69365  33.817  18.307   7.050
 9881POPC   C4A69366  33.777  18.302   7.350
 9881POPC   C1B69367  33.658  18.471   6.450
 9881POPC   C2B69368  33.693  18.486   6.750
 9881POPC   C3B69369  33.724  18.492   7.050
 9881POPC   C4B69370  33.689  18.466   7.350
 9882POPC   NC369371  29.931  35.398   5.550
 9882POPC   PO469372  29.881  35.327   5.850
 9882POPC   GL169373  29.920  35.316   6.150
 9882POPC   GL269374  30.023  35.268   6.150
 9882POPC   C1A69375  29.923  35.325   6.450
 9882POPC   D2A69376  29.915  35.343   6.750
 9882POPC   C3A69377  29.922  35.303   7.050
 9882POPC   C4A69378  29.918  35.317   7.350
 9882POPC   C1B69379  30.064  35.151   6.450
 9882POPC   C2B69380  30.091  35.192   6.750
 9882POPC   C3B69381  30.147  35.204   7.050
 9882POPC   C4B69382  30.059  35.166   7.350
 9883POPC   NC369383  20.579   2.749   5.550
 9883POPC   PO469384  20.613   2.732   5.850
 9883POPC   GL169385  20.587   2.814   6.150
 9883POPC   GL269386  20.491   2.687   6.150
 9883POPC   C1A69387  20.658   2.765   6.450
 9883POPC   D2A69388  20.627   2.787   6.750
 9883POPC   C3A69389  20.570   2.751   7.050
 9883POPC   C4A69390  20.575   2.759   7.350
 9883POPC   C1B69391  20.404   2.599   6.450
 9883POPC   C2B69392  20.423   2.578   6.750
 9883POPC   C3B69393  20.445   2.545   7.050
 9883POPC   C4B69394  20.461   2.545   7.350
 9884POPC   NC369395  14.358  42.306   5.550
 9884POPC   PO469396  14.374  42.369   5.850
 9884POPC   GL169397  14.414  42.365   6.150
 9884POPC   GL269398  14.308  42.445   6.150
 9884POPC   C1A69399  14.393  42.305   6.450
 9884POPC   D2A69400  14.449  42.377   6.750
 9884POPC   C3A69401  14.363  42.383   7.050
 9884POPC   C4A69402  14.419  42.370   7.350
 9884POPC   C1B69403  14.201  42.424   6.450
 9884POPC   C2B69404  14.231  42.459   6.750
 9884POPC   C3B69405  14.158  42.451   7.050
 9884POPC   C4B69406  14.199  42.437   7.350
 9885POPC   NC369407  26.014  24.521   5.550
 9885POPC   PO469408  26.003  24.471   5.850
 9885POPC   GL169409  26.053  24.450   6.150
 9885POPC   GL269410  25.970  24.657   6.150
 9885POPC   C1A69411  26.048  24.495   6.450
 9885POPC   D2A69412  26.058  24.459   6.750
 9885POPC   C3A69413  26.019  24.448   7.050
 9885POPC   C4A69414  25.998  24.477   7.350
 9885POPC   C1B69415  25.966  24.687   6.450
 9885POPC   C2B69416  25.942  24.747   6.750
 9885POPC   C3B69417  25.967  24.768   7.050
 9885POPC   C4B69418  25.965  24.694   7.350
 9886POPC   NC369419  33.754   1.242   5.550
 9886POPC   PO469420  33.822   1.222   5.850
 9886POPC   GL169421  33.792   1.225   6.150
 9886POPC   GL269422  33.942   1.177   6.150
 9886POPC   C1A69423  33.839   1.203   6.450
 9886POPC   D2A69424  33.813   1.227   6.750
 9886POPC   C3A69425  33.799   1.185   7.050
 9886POPC   C4A69426  33.810   1.212   7.350
 9886POPC   C1B69427  34.022   1.012   6.450
 9886POPC   C2B69428  34.002   1.003   6.750
 9886POPC   C3B69429  34.013   1.030   7.050
 9886POPC   C4B69430  33.960   1.070   7.350
 9887POPC   NC369431   9.008  31.489   5.550
 9887POPC   PO469432   9.011  31.428   5.850
 9887POPC   GL169433   8.956  31.493   6.150
 9887POPC   GL269434   8.986  31.304   6.150
 9887POPC   C1A69435   8.991  31.450   6.450
 9887POPC   D2A69436   8.981  31.475   6.750
 9887POPC   C3A69437   9.011  31.449   7.050
 9887POPC   C4A69438   9.001  31.428   7.350
 9887POPC   C1B69439   9.000  31.227   6.450
 9887POPC   C2B69440   8.924  31.179   6.750
 9887POPC   C3B69441   8.995  31.248   7.050
 9887POPC   C4B69442   8.976  31.208   7.350
 9888POPC   NC369443   8.978  39.197   5.550
 9888POPC   PO469444   8.927  39.192   5.850
 9888POPC   GL169445   9.003  39.235   6.150
 9888POPC   GL269446   8.939  39.318   6.150
 9888POPC   C1A69447   8.936  39.217   6.450
 9888POPC   D2A69448   9.010  39.194   6.750
 9888POPC   C3A69449   9.007  39.247   7.050
 9888POPC   C4A69450   9.014  39.185   7.350
 9888POPC   C1B69451   8.893  39.458   6.450
 9888POPC   C2B69452   8.871  39.407   6.750
 9888POPC   C3B69453   8.814  39.448   7.050
 9888POPC   C4B69454   8.881  39.485   7.350
 9889POPC   NC369455  42.363  33.810   5.550
 9889POPC   PO469456  42.339  33.756   5.850
 9889POPC   GL169457  42.330  33.778   6.150
 9889POPC   GL269458  42.285  33.934   6.150
 9889POPC   C1A69459  42.348  33.847   6.450
 9889POPC   D2A69460  42.305  33.812   6.750
 9889POPC   C3A69461  42.381  33.802   7.050
 9889POPC   C4A69462  42.293  33.826   7.350
 9889POPC   C1B69463  42.151  33.961   6.450
 9889POPC   C2B69464  42.172  33.957   6.750
 9889POPC   C3B69465  42.165  33.996   7.050
 9889POPC   C4B69466  42.116  33.933   7.350
 9890POPC   NC369467  39.249  18.263   5.550
 9890POPC   PO469468  39.259  18.270   5.850
 9890POPC   GL169469  39.227  18.263   6.150
 9890POPC   GL269470  39.395  18.261   6.150
 9890POPC   C1A69471  39.264  18.285   6.450
 9890POPC   D2A69472  39.225  18.330   6.750
 9890POPC   C3A69473  39.278  18.258   7.050
 9890POPC   C4A69474  39.271  18.313   7.350
 9890POPC   C1B69475  39.504  18.277   6.450
 9890POPC   C2B69476  39.484  18.292   6.750
 9890POPC   C3B69477  39.480  18.240   7.050
 9890POPC   C4B69478  39.457  18.260   7.350
 9891POPC   NC369479   5.867  34.543   5.550
 9891POPC   PO469480   5.917  34.625   5.850
 9891POPC   GL169481   5.849  34.619   6.150
 9891POPC   GL269482   5.793  34.651   6.150
 9891POPC   C1A69483   5.897  34.568   6.450
 9891POPC   D2A69484   5.839  34.565   6.750
 9891POPC   C3A69485   5.907  34.529   7.050
 9891POPC   C4A69486   5.821  34.538   7.350
 9891POPC   C1B69487   5.831  34.776   6.450
 9891POPC   C2B69488   5.830  34.818   6.750
 9891POPC   C3B69489   5.787  34.819   7.050
 9891POPC   C4B69490   5.755  34.837   7.350
 9892POPC   NC369491   0.407  42.289   5.550
 9892POPC   PO469492   0.411  42.325   5.850
 9892POPC   GL169493   0.437  42.369   6.150
 9892POPC   GL269494   0.440  42.221   6.150
 9892POPC   C1A69495   0.474  42.346   6.450
 9892POPC   D2A69496   0.417  42.347   6.750
 9892POPC   C3A69497   0.458  42.322   7.050
 9892POPC   C4A69498   0.442  42.347   7.350
 9892POPC   C1B69499   0.387  42.128   6.450
 9892POPC   C2B69500   0.433  42.053   6.750
 9892POPC   C3B69501   0.427  42.082   7.050
 9892POPC   C4B69502   0.418  42.074   7.350
 9893POPC   NC369503  17.542  18.280   5.550
 9893POPC   PO469504  17.492  18.304   5.850
 9893POPC   GL169505  17.501  18.292   6.150
 9893POPC   GL269506  17.490  18.199   6.150
 9893POPC   C1A69507  17.477  18.282   6.450
 9893POPC   D2A69508  17.494  18.235   6.750
 9893POPC   C3A69509  17.472  18.316   7.050
 9893POPC   C4A69510  17.514  18.243   7.350
 9893POPC   C1B69511  17.518  18.063   6.450
 9893POPC   C2B69512  17.509  18.064   6.750
 9893POPC   C3B69513  17.494  18.015   7.050
 9893POPC   C4B69514  17.520  18.048   7.350
 9894POPC   NC369515  20.611  40.811   5.550
 9894POPC   PO469516  20.658  40.768   5.850
 9894POPC   GL169517  20.568  40.736   6.150
 9894POPC   GL269518  20.602  40.686   6.150
 9894POPC   C1A69519  20.640  40.740   6.450
 9894POPC   D2A69520  20.575  40.779   6.750
 9894POPC   C3A69521  20.627  40.785   7.050
 9894POPC   C4A69522  20.605  40.752   7.350
 9894POPC   C1B69523  20.626  40.505   6.450
 9894POPC   C2B69524  20.680  40.532   6.750
 9894POPC   C3B69525  20.681  40.487   7.050
 9894POPC   C4B69526  20.593  40.580   7.350
 9895POPC   NC369527  44.614  19.025   5.550
 9895POPC   PO469528  44.633  19.076   5.850
 9895POPC   GL169529  44.693  19.036   6.150
 9895POPC   GL269530  44.644  19.001   6.150
 9895POPC   C1A69531  44.636  19.057   6.450
 9895POPC   D2A69532  44.691  19.040   6.750
 9895POPC   C3A69533  44.704  19.071   7.050
 9895POPC   C4A69534  44.651  19.089   7.350
 9895POPC   C1B69535  44.523  18.858   6.450
 9895POPC   C2B69536  44.505  18.812   6.750
 9895POPC   C3B69537  44.571  18.876   7.050
 9895POPC   C4B69538  44.544  18.883   7.350
 9896POPC   NC369539  34.595   5.843   5.550
 9896POPC   PO469540  34.595   5.832   5.850
 9896POPC   GL169541  34.548   5.891   6.150
 9896POPC   GL269542  34.441   5.885   6.150
 9896POPC   C1A69543  34.553   5.911   6.450
 9896POPC   D2A69544  34.591   5.819   6.750
 9896POPC   C3A69545  34.588   5.858   7.050
 9896POPC   C4A69546  34.612   5.882   7.350
 9896POPC   C1B69547  34.305   5.772   6.450
 9896POPC   C2B69548  34.374   5.808   6.750
 9896POPC   C3B69549  34.299   5.815   7.050
 9896POPC   C4B69550  34.335   5.835   7.350
 9897POPC   NC369551  12.089  39.269   5.550
 9897POPC   PO469552  12.110  39.237   5.850
 9897POPC   GL169553  12.044  39.205   6.150
 9897POPC   GL269554  11.949  39.287   6.150
 9897POPC   C1A69555  12.078  39.273   6.450
 9897POPC   D2A69556  12.113  39.249   6.750
 9897POPC   C3A69557  12.063  39.226   7.050
 9897POPC   C4A69558  12.061  39.248   7.350
 9897POPC   C1B69559  11.840  39.339   6.450
 9897POPC   C2B69560  11.884  39.377   6.750
 9897POPC   C3B69561  11.911  39.424   7.050
 9897POPC   C4B69562  11.868  39.357   7.350
 9898POPC   NC369563   8.240  44.673   5.550
 9898POPC   PO469564   8.172  44.688   5.850
 9898POPC   GL169565   8.220  44.698   6.150
 9898POPC   GL269566   8.280  44.553   6.150
 9898POPC   C1A69567   8.219  44.708   6.450
 9898POPC   D2A69568   8.181  44.650   6.750
 9898POPC   C3A69569   8.173  44.711   7.050
 9898POPC   C4A69570   8.183  44.708   7.350
 9898POPC   C1B69571   8.272  44.464   6.450
 9898POPC   C2B69572   8.301  44.436   6.750
 9898POPC   C3B69573   8.338  44.410   7.050
 9898POPC   C4B69574   8.283  44.394   7.350
 9899POPC   NC369575  12.114  10.506   5.550
 9899POPC   PO469576  12.054  10.562   5.850
 9899POPC   GL169577  12.116  10.559   6.150
 9899POPC   GL269578  12.109  10.668   6.150
 9899POPC   C1A69579  12.047  10.508   6.450
 9899POPC   D2A69580  12.126  10.555   6.750
 9899POPC   C3A69581  12.071  10.491   7.050
 9899POPC   C4A69582  12.094  10.535   7.350
 9899POPC   C1B69583  12.164  10.688   6.450
 9899POPC   C2B69584  12.221  10.756   6.750
 9899POPC   C3B69585  12.175  10.720   7.050
 9899POPC   C4B69586  12.192  10.743   7.350
 9900POPC   NC369587   0.420  25.218   5.550
 9900POPC   PO469588   0.468  25.223   5.850
 9900POPC   GL169589   0.446  25.245   6.150
 9900POPC   GL269590   0.422  25.372   6.150
 9900POPC   C1A69591   0.439  25.255   6.450
 9900POPC   D2A69592   0.467  25.235   6.750
 9900POPC   C3A69593   0.420  25.224   7.050
 9900POPC   C4A69594   0.452  25.240   7.350
 9900POPC   C1B69595   0.427  25.506   6.450
 9900POPC   C2B69596   0.439  25.537   6.750
 9900POPC   C3B69597   0.429  25.518   7.050
 9900POPC   C4B69598   0.476  25.517   7.350
 9901POPC   NC369599  18.274  24.482   5.550
 9901POPC   PO469600  18.309  24.442   5.850
 9901POPC   GL169601  18.331  24.467   6.150
 9901POPC   GL269602  18.205  24.452   6.150
 9901POPC   C1A69603  18.309  24.496   6.450
 9901POPC   D2A69604  18.277  24.480   6.750
 9901POPC   C3A69605  18.251  24.450   7.050
 9901POPC   C4A69606  18.295  24.474   7.350
 9901POPC   C1B69607  18.018  24.385   6.450
 9901POPC   C2B69608  18.033  24.404   6.750
 9901POPC   C3B69609  18.009  24.367   7.050
 9901POPC   C4B69610  18.076  24.418   7.350
 9902POPC   NC369611  36.948  43.143   5.550
 9902POPC   PO469612  36.862  43.088   5.850
 9902POPC   GL169613  36.943  43.121   6.150
 9902POPC   GL269614  36.902  42.976   6.150
 9902POPC   C1A69615  36.893  43.079   6.450
 9902POPC   D2A69616  36.925  43.133   6.750
 9902POPC   C3A69617  36.900  43.076   7.050
 9902POPC   C4A69618  36.862  43.094   7.350
 9902POPC   C1B69619  36.857  42.838   6.450
 9902POPC   C2B69620  36.909  42.848   6.750
 9902POPC   C3B69621  36.877  42.895   7.050
 9902POPC   C4B69622  36.838  42.879   7.350
 9903POPC   NC369623   8.995  29.181   5.550
 9903POPC   PO469624   9.019  29.131   5.850
 9903POPC   GL169625   8.926  29.162   6.150
 9903POPC   GL269626   9.052  29.077   6.150
 9903POPC   C1A69627   8.937  29.190   6.450
 9903POPC   D2A69628   8.990  29.184   6.750
 9903POPC   C3A69629   8.985  29.153   7.050
 9903POPC   C4A69630   8.983  29.100   7.350
 9903POPC   C1B69631   9.248  29.091   6.450
 9903POPC   C2B69632   9.170  29.106   6.750
 9903POPC   C3B69633   9.202  29.035   7.050
 9903POPC   C4B69634   9.165  29.051   7.350
 9904POPC   NC369635  44.657  33.810   5.550
 9904POPC   PO469636  44.669  33.752   5.850
 9904POPC   GL169637  44.686  33.772   6.150
 9904POPC   GL269638  44.534  33.844   6.150
 9904POPC   C1A69639  44.706  33.752   6.450
 9904POPC   D2A69640  44.637  33.798   6.750
 9904POPC   C3A69641  44.624  33.828   7.050
 9904POPC   C4A69642  44.675  33.789   7.350
 9904POPC   C1B69643  44.409  33.806   6.450
 9904POPC   C2B69644  44.418  33.814   6.750
 9904POPC   C3B69645  44.402  33.844   7.050
 9904POPC   C4B69646  44.447  33.850   7.350
 9905POPC   NC369647  10.538   6.679   5.550
 9905POPC   PO469648  10.551   6.674   5.850
 9905POPC   GL169649  10.572   6.639   6.150
 9905POPC   GL269650  10.686   6.615   6.150
 9905POPC   C1A69651  10.520   6.653   6.450
 9905POPC   D2A69652  10.525   6.639   6.750
 9905POPC   C3A69653  10.531   6.610   7.050
 9905POPC   C4A69654  10.484   6.666   7.350
 9905POPC   C1B69655  10.790   6.633   6.450
 9905POPC   C2B69656  10.787   6.646   6.750
 9905POPC   C3B69657  10.770   6.635   7.050
 9905POPC   C4B69658  10.805   6.596   7.350
 9906POPC   NC369659  22.181  35.344   5.550
 9906POPC   PO469660  22.128  35.386   5.850
 9906POPC   GL169661  22.122  35.319   6.150
 9906POPC   GL269662  22.262  35.417   6.150
 9906POPC   C1A69663  22.178  35.370   6.450
 9906POPC   D2A69664  22.136  35.331   6.750
 9906POPC   C3A69665  22.144  35.317   7.050
 9906POPC   C4A69666  22.140  35.357   7.350
 9906POPC   C1B69667  22.392  35.430   6.450
 9906POPC   C2B69668  22.405  35.449   6.750
 9906POPC   C3B69669  22.376  35.477   7.050
 9906POPC   C4B69670  22.407  35.445   7.350
 9907POPC   NC369671  43.123   1.258   5.550
 9907POPC   PO469672  43.141   1.193   5.850
 9907POPC   GL169673  43.126   1.203   6.150
 9907POPC   GL269674  43.064   1.369   6.150
 9907POPC   C1A69675  43.125   1.233   6.450
 9907POPC   D2A69676  43.083   1.199   6.750
 9907POPC   C3A69677  43.142   1.188   7.050
 9907POPC   C4A69678  43.136   1.190   7.350
 9907POPC   C1B69679  43.081   1.461   6.450
 9907POPC   C2B69680  43.068   1.445   6.750
 9907POPC   C3B69681  43.100   1.445   7.050
 9907POPC   C4B69682  43.133   1.425   7.350
 9908POPC   NC369683   1.204  43.115   5.550
 9908POPC   PO469684   1.259  43.148   5.850
 9908POPC   GL169685   1.191  43.085   6.150
 9908POPC   GL269686   1.185  43.239   6.150
 9908POPC   C1A69687   1.213  43.073   6.450
 9908POPC   D2A69688   1.214  43.103   6.750
 9908POPC   C3A69689   1.213  43.092   7.050
 9908POPC   C4A69690   1.212  43.091   7.350
 9908POPC   C1B69691   1.232  43.351   6.450
 9908POPC   C2B69692   1.166  43.359   6.750
 9908POPC   C3B69693   1.225  43.364   7.050
 9908POPC   C4B69694   1.225  43.377   7.350
 9909POPC   NC369695   1.209   9.004   5.550
 9909POPC   PO469696   1.254   8.937   5.850
 9909POPC   GL169697   1.249   8.991   6.150
 9909POPC   GL269698   1.048   8.986   6.150
 9909POPC   C1A69699   1.210   8.968   6.450
 9909POPC   D2A69700   1.168   8.940   6.750
 9909POPC   C3A69701   1.198   8.985   7.050
 9909POPC   C4A69702   1.249   8.942   7.350
 9909POPC   C1B69703   1.006   8.977   6.450
 9909POPC   C2B69704   0.962   8.980   6.750
 9909POPC   C3B69705   0.980   9.019   7.050
 9909POPC   C4B69706   0.973   9.034   7.350
 9910POPC   NC369707  29.121  32.986   5.550
 9910POPC   PO469708  29.163  33.046   5.850
 9910POPC   GL169709  29.131  32.979   6.150
 9910POPC   GL269710  29.252  33.043   6.150
 9910POPC   C1A69711  29.122  33.025   6.450
 9910POPC   D2A69712  29.118  32.979   6.750
 9910POPC   C3A69713  29.119  33.048   7.050
 9910POPC   C4A69714  29.118  33.013   7.350
 9910POPC   C1B69715  29.416  32.945   6.450
 9910POPC   C2B69716  29.412  32.965   6.750
 9910POPC   C3B69717  29.399  32.943   7.050
 9910POPC   C4B69718  29.349  33.018   7.350
 9911POPC   NC369719  18.288  12.096   5.550
 9911POPC   PO469720  18.281  12.096   5.850
 9911POPC   GL169721  18.233  12.038   6.150
 9911POPC   GL269722  18.333  12.230   6.150
 9911POPC   C1A69723  18.268  12.101   6.450
 9911POPC   D2A69724  18.290  12.073   6.750
 9911POPC   C3A69725  18.246  12.103   7.050
 9911POPC   C4A69726  18.325  12.105   7.350
 9911POPC   C1B69727  18.380  12.292   6.450
 9911POPC   C2B69728  18.378  12.323   6.750
 9911POPC   C3B69729  18.378  12.293   7.050
 9911POPC   C4B69730  18.379  12.284   7.350
 9912POPC   NC369731  26.021   2.035   5.550
 9912POPC   PO469732  26.084   1.968   5.850
 9912POPC   GL169733  26.029   1.987   6.150
 9912POPC   GL269734  25.963   2.061   6.150
 9912POPC   C1A69735  26.083   1.992   6.450
 9912POPC   D2A69736  26.064   2.010   6.750
 9912POPC   C3A69737  26.050   2.006   7.050
 9912POPC   C4A69738  25.995   1.957   7.350
 9912POPC   C1B69739  25.873   2.145   6.450
 9912POPC   C2B69740  25.857   2.101   6.750
 9912POPC   C3B69741  25.857   2.157   7.050
 9912POPC   C4B69742  25.809   2.156   7.350
 9913POPC   NC369743  43.088  42.337   5.550
 9913POPC   PO469744  43.106  42.382   5.850
 9913POPC   GL169745  43.096  42.366   6.150
 9913POPC   GL269746  43.259  42.311   6.150
 9913POPC   C1A69747  43.119  42.376   6.450
 9913POPC   D2A69748  43.131  42.296   6.750
 9913POPC   C3A69749  43.092  42.330   7.050
 9913POPC   C4A69750  43.117  42.370   7.350
 9913POPC   C1B69751  43.343  42.244   6.450
 9913POPC   C2B69752  43.307  42.240   6.750
 9913POPC   C3B69753  43.295  42.220   7.050
 9913POPC   C4B69754  43.291  42.240   7.350
 9914POPC   NC369755  42.379  38.459   5.550
 9914POPC   PO469756  42.344  38.490   5.850
 9914POPC   GL169757  42.372  38.452   6.150
 9914POPC   GL269758  42.460  38.430   6.150
 9914POPC   C1A69759  42.311  38.408   6.450
 9914POPC   D2A69760  42.315  38.472   6.750
 9914POPC   C3A69761  42.354  38.423   7.050
 9914POPC   C4A69762  42.364  38.459   7.350
 9914POPC   C1B69763  42.559  38.357   6.450
 9914POPC   C2B69764  42.575  38.378   6.750
 9914POPC   C3B69765  42.505  38.340   7.050
 9914POPC   C4B69766  42.529  38.329   7.350
 9915POPC   NC369767  22.976  26.799   5.550
 9915POPC   PO469768  22.920  26.855   5.850
 9915POPC   GL169769  22.924  26.810   6.150
 9915POPC   GL269770  22.890  26.894   6.150
 9915POPC   C1A69771  22.922  26.804   6.450
 9915POPC   D2A69772  22.988  26.862   6.750
 9915POPC   C3A69773  22.902  26.776   7.050
 9915POPC   C4A69774  22.915  26.854   7.350
 9915POPC   C1B69775  22.793  26.950   6.450
 9915POPC   C2B69776  22.797  26.991   6.750
 9915POPC   C3B69777  22.716  26.955   7.050
 9915POPC   C4B69778  22.770  26.986   7.350
 9916POPC   NC369779   5.053  39.975   5.550
 9916POPC   PO469780   5.130  39.966   5.850
 9916POPC   GL169781   5.064  39.978   6.150
 9916POPC   GL269782   4.996  40.137   6.150
 9916POPC   C1A69783   5.130  40.011   6.450
 9916POPC   D2A69784   5.115  39.999   6.750
 9916POPC   C3A69785   5.131  39.984   7.050
 9916POPC   C4A69786   5.054  40.010   7.350
 9916POPC   C1B69787   4.916  40.173   6.450
 9916POPC   C2B69788   4.945  40.202   6.750
 9916POPC   C3B69789   5.001  40.226   7.050
 9916POPC   C4B69790   4.993  40.231   7.350
 9917POPC   NC369791  17.521  16.723   5.550
 9917POPC   PO469792  17.512  16.719   5.850
 9917POPC   GL169793  17.475  16.707   6.150
 9917POPC   GL269794  17.543  16.668   6.150
 9917POPC   C1A69795  17.542  16.761   6.450
 9917POPC   D2A69796  17.479  16.692   6.750
 9917POPC   C3A69797  17.494  16.686   7.050
 9917POPC   C4A69798  17.554  16.695   7.350
 9917POPC   C1B69799  17.618  16.540   6.450
 9917POPC   C2B69800  17.636  16.567   6.750
 9917POPC   C3B69801  17.648  16.518   7.050
 9917POPC   C4B69802  17.705  16.505   7.350
 9918POPC   NC369803  37.717  19.786   5.550
 9918POPC   PO469804  37.712  19.860   5.850
 9918POPC   GL169805  37.695  19.852   6.150
 9918POPC   GL269806  37.720  19.681   6.150
 9918POPC   C1A69807  37.703  19.799   6.450
 9918POPC   D2A69808  37.661  19.875   6.750
 9918POPC   C3A69809  37.662  19.877   7.050
 9918POPC   C4A69810  37.651  19.821   7.350
 9918POPC   C1B69811  37.768  19.633   6.450
 9918POPC   C2B69812  37.763  19.578   6.750
 9918POPC   C3B69813  37.823  19.637   7.050
 9918POPC   C4B69814  37.799  19.576   7.350
 9919POPC   NC369815  39.185   8.986   5.550
 9919POPC   PO469816  39.215   8.928   5.850
 9919POPC   GL169817  39.273   8.966   6.150
 9919POPC   GL269818  39.072   9.025   6.150
 9919POPC   C1A69819  39.204   8.959   6.450
 9919POPC   D2A69820  39.229   9.000   6.750
 9919POPC   C3A69821  39.182   8.967   7.050
 9919POPC   C4A69822  39.277   8.980   7.350
 9919POPC   C1B69823  39.013   9.114   6.450
 9919POPC   C2B69824  39.050   9.051   6.750
 9919POPC   C3B69825  38.988   9.090   7.050
 9919POPC   C4B69826  39.061   9.132   7.350
 9920POPC   NC369827  28.401  43.928   5.550
 9920POPC   PO469828  28.341  43.868   5.850
 9920POPC   GL169829  28.372  43.891   6.150
 9920POPC   GL269830  28.485  43.795   6.150
 9920POPC   C1A69831  28.364  43.927   6.450
 9920POPC   D2A69832  28.402  43.890   6.750
 9920POPC   C3A69833  28.362  43.871   7.050
 9920POPC   C4A69834  28.376  43.848   7.350
 9920POPC   C1B69835  28.601  43.791   6.450
 9920POPC   C2B69836  28.630  43.817   6.750
 9920POPC   C3B69837  28.565  43.803   7.050
 9920POPC   C4B69838  28.610  43.720   7.350
 9921POPC   NC369839   3.584  29.146   5.550
 9921POPC   PO469840   3.536  29.120   5.850
 9921POPC   GL169841   3.564  29.103   6.150
 9921POPC   GL269842   3.596  29.018   6.150
 9921POPC   C1A69843   3.557  29.177   6.450
 9921POPC   D2A69844   3.503  29.166   6.750
 9921POPC   C3A69845   3.520  29.119   7.050
 9921POPC   C4A69846   3.510  29.135   7.350
 9921POPC   C1B69847   3.611  28.945   6.450
 9921POPC   C2B69848   3.621  28.870   6.750
 9921POPC   C3B69849   3.595  28.906   7.050
 9921POPC   C4B69850   3.668  28.901   7.350
 9922POPC   NC369851   8.158   4.360   5.550
 9922POPC   PO469852   8.167   4.360   5.850
 9922POPC   GL169853   8.165   4.277   6.150
 9922POPC   GL269854   8.347   4.264   6.150
 9922POPC   C1A69855   8.197   4.312   6.450
 9922POPC   D2A69856   8.219   4.307   6.750
 9922POPC   C3A69857   8.157   4.281   7.050
 9922POPC   C4A69858   8.241   4.322   7.350
 9922POPC   C1B69859   8.450   4.210   6.450
 9922POPC   C2B69860   8.427   4.249   6.750
 9922POPC   C3B69861   8.470   4.221   7.050
 9922POPC   C4B69862   8.445   4.214   7.350
 9923POPC   NC369863  16.771  36.859   5.550
 9923POPC   PO469864  16.771  36.910   5.850
 9923POPC   GL169865  16.757  36.932   6.150
 9923POPC   GL269866  16.702  36.791   6.150
 9923POPC   C1A69867  16.760  36.880   6.450
 9923POPC   D2A69868  16.700  36.949   6.750
 9923POPC   C3A69869  16.765  36.916   7.050
 9923POPC   C4A69870  16.701  36.940   7.350
 9923POPC   C1B69871  16.713  36.636   6.450
 9923POPC   C2B69872  16.762  36.696   6.750
 9923POPC   C3B69873  16.757  36.607   7.050
 9923POPC   C4B69874  16.720  36.683   7.350
 9924POPC   NC369875  35.391  43.115   5.550
 9924POPC   PO469876  35.363  43.066   5.850
 9924POPC   GL169877  35.388  43.128   6.150
 9924POPC   GL269878  35.276  42.963   6.150
 9924POPC   C1A69879  35.387  43.110   6.450
 9924POPC   D2A69880  35.357  43.108   6.750
 9924POPC   C3A69881  35.323  43.109   7.050
 9924POPC   C4A69882  35.357  43.123   7.350
 9924POPC   C1B69883  35.197  42.872   6.450
 9924POPC   C2B69884  35.180  42.916   6.750
 9924POPC   C3B69885  35.235  42.878   7.050
 9924POPC   C4B69886  35.271  42.908   7.350
 9925POPC   NC369887  36.130  15.151   5.550
 9925POPC   PO469888  36.116  15.167   5.850
 9925POPC   GL169889  36.136  15.137   6.150
 9925POPC   GL269890  36.191  15.145   6.150
 9925POPC   C1A69891  36.085  15.173   6.450
 9925POPC   D2A69892  36.128  15.144   6.750
 9925POPC   C3A69893  36.079  15.143   7.050
 9925POPC   C4A69894  36.120  15.211   7.350
 9925POPC   C1B69895  36.351  15.029   6.450
 9925POPC   C2B69896  36.348  15.048   6.750
 9925POPC   C3B69897  36.346  15.017   7.050
 9925POPC   C4B69898  36.346  15.082   7.350
 9926POPC   NC369899   5.895  12.867   5.550
 9926POPC   PO469900   5.884  12.873   5.850
 9926POPC   GL169901   5.862  12.848   6.150
 9926POPC   GL269902   5.844  12.746   6.150
 9926POPC   C1A69903   5.917  12.830   6.450
 9926POPC   D2A69904   5.860  12.899   6.750
 9926POPC   C3A69905   5.848  12.898   7.050
 9926POPC   C4A69906   5.896  12.828   7.350
 9926POPC   C1B69907   5.914  12.615   6.450
 9926POPC   C2B69908   5.839  12.623   6.750
 9926POPC   C3B69909   5.868  12.601   7.050
 9926POPC   C4B69910   5.930  12.611   7.350
 9927POPC   NC369911  43.921  43.150   5.550
 9927POPC   PO469912  43.903  43.134   5.850
 9927POPC   GL169913  43.878  43.101   6.150
 9927POPC   GL269914  43.921  42.979   6.150
 9927POPC   C1A69915  43.866  43.125   6.450
 9927POPC   D2A69916  43.853  43.108   6.750
 9927POPC   C3A69917  43.920  43.122   7.050
 9927POPC   C4A69918  43.930  43.081   7.350
 9927POPC   C1B69919  43.999  42.859   6.450
 9927POPC   C2B69920  43.948  42.929   6.750
 9927POPC   C3B69921  43.981  42.888   7.050
 9927POPC   C4B69922  44.011  42.934   7.350
 9928POPC   NC369923  36.110  42.381   5.550
 9928POPC   PO469924  36.117  42.376   5.850
 9928POPC   GL169925  36.148  42.317   6.150
 9928POPC   GL269926  36.191  42.229   6.150
 9928POPC   C1A69927  36.088  42.311   6.450
 9928POPC   D2A69928  36.174  42.336   6.750
 9928POPC   C3A69929  36.088  42.292   7.050
 9928POPC   C4A69930  36.120  42.378   7.350
 9928POPC   C1B69931  36.306  42.164   6.450
 9928POPC   C2B69932  36.252  42.173   6.750
 9928POPC   C3B69933  36.238  42.117   7.050
 9928POPC   C4B69934  36.263  42.120   7.350
 9929POPC   NC369935  27.559  32.225   5.550
 9929POPC   PO469936  27.609  32.220   5.850
 9929POPC   GL169937  27.561  32.232   6.150
 9929POPC   GL269938  27.501  32.368   6.150
 9929POPC   C1A69939  27.605  32.227   6.450
 9929POPC   D2A69940  27.620  32.216   6.750
 9929POPC   C3A69941  27.575  32.292   7.050
 9929POPC   C4A69942  27.548  32.298   7.350
 9929POPC   C1B69943  27.438  32.425   6.450
 9929POPC   C2B69944  27.481  32.438   6.750
 9929POPC   C3B69945  27.406  32.483   7.050
 9929POPC   C4B69946  27.468  32.404   7.350
 9930POPC   NC369947  39.992   5.827   5.550
 9930POPC   PO469948  39.972   5.841   5.850
 9930POPC   GL169949  39.973   5.880   6.150
 9930POPC   GL269950  39.892   5.886   6.150
 9930POPC   C1A69951  40.025   5.894   6.450
 9930POPC   D2A69952  40.002   5.908   6.750
 9930POPC   C3A69953  39.975   5.912   7.050
 9930POPC   C4A69954  39.990   5.896   7.350
 9930POPC   C1B69955  39.774   5.896   6.450
 9930POPC   C2B69956  39.720   5.872   6.750
 9930POPC   C3B69957  39.806   5.798   7.050
 9930POPC   C4B69958  39.708   5.892   7.350
 9931POPC   NC369959   8.246   9.735   5.550
 9931POPC   PO469960   8.173   9.732   5.850
 9931POPC   GL169961   8.195   9.748   6.150
 9931POPC   GL269962   8.092   9.679   6.150
 9931POPC   C1A69963   8.176   9.730   6.450
 9931POPC   D2A69964   8.149   9.740   6.750
 9931POPC   C3A69965   8.170   9.766   7.050
 9931POPC   C4A69966   8.212   9.749   7.350
 9931POPC   C1B69967   7.910   9.653   6.450
 9931POPC   C2B69968   7.968   9.642   6.750
 9931POPC   C3B69969   7.912   9.687   7.050
 9931POPC   C4B69970   7.982   9.706   7.350
 9932POPC   NC369971  21.408  12.822   5.550
 9932POPC   PO469972  21.405  12.840   5.850
 9932POPC   GL169973  21.338  12.844   6.150
 9932POPC   GL269974  21.527  12.817   6.150
 9932POPC   C1A69975  21.338  12.834   6.450
 9932POPC   D2A69976  21.391  12.900   6.750
 9932POPC   C3A69977  21.402  12.880   7.050
 9932POPC   C4A69978  21.413  12.840   7.350
 9932POPC   C1B69979  21.570  12.699   6.450
 9932POPC   C2B69980  21.605  12.751   6.750
 9932POPC   C3B69981  21.591  12.740   7.050
 9932POPC   C4B69982  21.589  12.714   7.350
 9933POPC   NC369983   5.897  14.394   5.550
 9933POPC   PO469984   5.887  14.428   5.850
 9933POPC   GL169985   5.851  14.357   6.150
 9933POPC   GL269986   5.940  14.271   6.150
 9933POPC   C1A69987   5.824  14.391   6.450
 9933POPC   D2A69988   5.914  14.383   6.750
 9933POPC   C3A69989   5.825  14.377   7.050
 9933POPC   C4A69990   5.868  14.450   7.350
 9933POPC   C1B69991   5.960  14.122   6.450
 9933POPC   C2B69992   5.956  14.138   6.750
 9933POPC   C3B69993   5.899  14.184   7.050
 9933POPC   C4B69994   5.958  14.129   7.350
 9934POPC   NC369995  15.944  29.912   5.550
 9934POPC   PO469996  15.982  29.942   5.850
 9934POPC   GL169997  15.942  29.893   6.150
 9934POPC   GL269998  16.028  29.828   6.150
 9934POPC   C1A69999  15.963  29.903   6.450
 9934POPC   D2A70000  15.948  29.964   6.750
 9934POPC   C3A70001  15.918  29.935   7.050
 9934POPC   C4A70002  15.917  29.931   7.350
 9934POPC   C1B70003  16.064  29.699   6.450
 9934POPC   C2B70004  16.100  29.723   6.750
 9934POPC   C3B70005  16.050  29.741   7.050
 9934POPC   C4B70006  16.075  29.707   7.350
 9935POPC   NC370007  16.759  22.166   5.550
 9935POPC   PO470008  16.729  22.182   5.850
 9935POPC   GL170009  16.701  22.177   6.150
 9935POPC   GL270010  16.838  22.187   6.150
 9935POPC   C1A70011  16.688  22.207   6.450
 9935POPC   D2A70012  16.770  22.205   6.750
 9935POPC   C3A70013  16.681  22.195   7.050
 9935POPC   C4A70014  16.770  22.204   7.350
 9935POPC   C1B70015  16.975  22.266   6.450
 9935POPC   C2B70016  16.981  22.310   6.750
 9935POPC   C3B70017  16.952  22.300   7.050
 9935POPC   C4B70018  16.990  22.243   7.350
 9936POPC   NC370019  29.958   2.730   5.550
 9936POPC   PO470020  29.928   2.754   5.850
 9936POPC   GL170021  29.890   2.794   6.150
 9936POPC   GL270022  29.859   2.861   6.150
 9936POPC   C1A70023  29.929   2.736   6.450
 9936POPC   D2A70024  29.912   2.803   6.750
 9936POPC   C3A70025  29.900   2.723   7.050
 9936POPC   C4A70026  29.901   2.739   7.350
 9936POPC   C1B70027  29.756   2.921   6.450
 9936POPC   C2B70028  29.718   2.920   6.750
 9936POPC   C3B70029  29.715   2.940   7.050
 9936POPC   C4B70030  29.694   2.921   7.350
 9937POPC   NC370031  12.892  37.702   5.550
 9937POPC   PO470032  12.831  37.638   5.850
 9937POPC   GL170033  12.873  37.639   6.150
 9937POPC   GL270034  12.794  37.546   6.150
 9937POPC   C1A70035  12.884  37.703   6.450
 9937POPC   D2A70036  12.845  37.727   6.750
 9937POPC   C3A70037  12.808  37.645   7.050
 9937POPC   C4A70038  12.809  37.681   7.350
 9937POPC   C1B70039  12.698  37.483   6.450
 9937POPC   C2B70040  12.698  37.425   6.750
 9937POPC   C3B70041  12.674  37.468   7.050
 9937POPC   C4B70042  12.752  37.491   7.350
 9938POPC   NC370043  36.103  26.824   5.550
 9938POPC   PO470044  36.115  26.813   5.850
 9938POPC   GL170045  36.125  26.772   6.150
 9938POPC   GL270046  36.047  26.969   6.150
 9938POPC   C1A70047  36.154  26.798   6.450
 9938POPC   D2A70048  36.082  26.770   6.750
 9938POPC   C3A70049  36.142  26.837   7.050
 9938POPC   C4A70050  36.151  26.779   7.350
 9938POPC   C1B70051  36.095  27.053   6.450
 9938POPC   C2B70052  36.011  27.107   6.750
 9938POPC   C3B70053  36.019  27.036   7.050
 9938POPC   C4B70054  36.057  27.096   7.350
 9939POPC   NC370055  37.713  27.584   5.550
 9939POPC   PO470056  37.689  27.566   5.850
 9939POPC   GL170057  37.637  27.606   6.150
 9939POPC   GL270058  37.794  27.569   6.150
 9939POPC   C1A70059  37.673  27.566   6.450
 9939POPC   D2A70060  37.656  27.630   6.750
 9939POPC   C3A70061  37.633  27.639   7.050
 9939POPC   C4A70062  37.710  27.620   7.350
 9939POPC   C1B70063  37.938  27.494   6.450
 9939POPC   C2B70064  37.903  27.488   6.750
 9939POPC   C3B70065  37.916  27.531   7.050
 9939POPC   C4B70066  37.947  27.489   7.350
 9940POPC   NC370067  25.276  34.592   5.550
 9940POPC   PO470068  25.269  34.613   5.850
 9940POPC   GL170069  25.245  34.529   6.150
 9940POPC   GL270070  25.338  34.444   6.150
 9940POPC   C1A70071  25.229  34.565   6.450
 9940POPC   D2A70072  25.295  34.601   6.750
 9940POPC   C3A70073  25.243  34.580   7.050
 9940POPC   C4A70074  25.265  34.585   7.350
 9940POPC   C1B70075  25.424  34.414   6.450
 9940POPC   C2B70076  25.422  34.392   6.750
 9940POPC   C3B70077  25.359  34.352   7.050
 9940POPC   C4B70078  25.410  34.414   7.350
 9941POPC   NC370079   1.196  33.756   5.550
 9941POPC   PO470080   1.165  33.818   5.850
 9941POPC   GL170081   1.249  33.834   6.150
 9941POPC   GL270082   1.331  33.850   6.150
 9941POPC   C1A70083   1.182  33.754   6.450
 9941POPC   D2A70084   1.246  33.761   6.750
 9941POPC   C3A70085   1.241  33.780   7.050
 9941POPC   C4A70086   1.208  33.751   7.350
 9941POPC   C1B70087   1.467  33.796   6.450
 9941POPC   C2B70088   1.455  33.829   6.750
 9941POPC   C3B70089   1.472  33.852   7.050
 9941POPC   C4B70090   1.493  33.795   7.350
 9942POPC   NC370091  20.595  19.102   5.550
 9942POPC   PO470092  20.628  19.069   5.850
 9942POPC   GL170093  20.594  19.066   6.150
 9942POPC   GL270094  20.508  19.129   6.150
 9942POPC   C1A70095  20.648  19.043   6.450
 9942POPC   D2A70096  20.588  19.077   6.750
 9942POPC   C3A70097  20.634  19.096   7.050
 9942POPC   C4A70098  20.582  19.087   7.350
 9942POPC   C1B70099  20.390  19.187   6.450
 9942POPC   C2B70100  20.366  19.201   6.750
 9942POPC   C3B70101  20.434  19.219   7.050
 9942POPC   C4B70102  20.414  19.204   7.350
 9943POPC   NC370103  33.002  26.044   5.550
 9943POPC   PO470104  33.022  26.029   5.850
 9943POPC   GL170105  33.033  26.024   6.150
 9943POPC   GL270106  33.132  26.153   6.150
 9943POPC   C1A70107  33.007  26.015   6.450
 9943POPC   D2A70108  33.002  26.081   6.750
 9943POPC   C3A70109  32.985  26.037   7.050
 9943POPC   C4A70110  33.053  26.086   7.350
 9943POPC   C1B70111  33.251  26.250   6.450
 9943POPC   C2B70112  33.228  26.264   6.750
 9943POPC   C3B70113  33.243  26.179   7.050
 9943POPC   C4B70114  33.225  26.235   7.350
 9944POPC   NC370115  42.364  34.611   5.550
 9944POPC   PO470116  42.294  34.540   5.850
 9944POPC   GL170117  42.336  34.574   6.150
 9944POPC   GL270118  42.386  34.463   6.150
 9944POPC   C1A70119  42.354  34.602   6.450
 9944POPC   D2A70120  42.330  34.547   6.750
 9944POPC   C3A70121  42.347  34.622   7.050
 9944POPC   C4A70122  42.298  34.560   7.350
 9944POPC   C1B70123  42.462  34.408   6.450
 9944POPC   C2B70124  42.427  34.393   6.750
 9944POPC   C3B70125  42.436  34.338   7.050
 9944POPC   C4B70126  42.484  34.406   7.350
 9945POPC   NC370127  43.107  29.905   5.550
 9945POPC   PO470128  43.069  29.963   5.850
 9945POPC   GL170129  43.089  29.902   6.150
 9945POPC   GL270130  43.206  30.042   6.150
 9945POPC   C1A70131  43.157  29.906   6.450
 9945POPC   D2A70132  43.124  29.926   6.750
 9945POPC   C3A70133  43.129  29.967   7.050
 9945POPC   C4A70134  43.072  29.919   7.350
 9945POPC   C1B70135  43.192  30.132   6.450
 9945POPC   C2B70136  43.216  30.139   6.750
 9945POPC   C3B70137  43.188  30.173   7.050
 9945POPC   C4B70138  43.265  30.131   7.350
 9946POPC   NC370139   4.297  28.412   5.550
 9946POPC   PO470140   4.349  28.412   5.850
 9946POPC   GL170141   4.292  28.344   6.150
 9946POPC   GL270142   4.428  28.512   6.150
 9946POPC   C1A70143   4.293  28.391   6.450
 9946POPC   D2A70144   4.281  28.399   6.750
 9946POPC   C3A70145   4.315  28.377   7.050
 9946POPC   C4A70146   4.359  28.357   7.350
 9946POPC   C1B70147   4.458  28.568   6.450
 9946POPC   C2B70148   4.414  28.553   6.750
 9946POPC   C3B70149   4.457  28.574   7.050
 9946POPC   C4B70150   4.425  28.576   7.350
 9947POPC   NC370151  34.605  26.052   5.550
 9947POPC   PO470152  34.552  26.037   5.850
 9947POPC   GL170153  34.608  26.039   6.150
 9947POPC   GL270154  34.652  26.119   6.150
 9947POPC   C1A70155  34.604  26.031   6.450
 9947POPC   D2A70156  34.561  25.999   6.750
 9947POPC   C3A70157  34.564  26.028   7.050
 9947POPC   C4A70158  34.607  25.999   7.350
 9947POPC   C1B70159  34.791  26.126   6.450
 9947POPC   C2B70160  34.780  26.079   6.750
 9947POPC   C3B70161  34.850  26.110   7.050
 9947POPC   C4B70162  34.805  26.089   7.350
 9948POPC   NC370163  32.241  20.650   5.550
 9948POPC   PO470164  32.232  20.604   5.850
 9948POPC   GL170165  32.291  20.600   6.150
 9948POPC   GL270166  32.399  20.656   6.150
 9948POPC   C1A70167  32.294  20.589   6.450
 9948POPC   D2A70168  32.254  20.621   6.750
 9948POPC   C3A70169  32.278  20.630   7.050
 9948POPC   C4A70170  32.250  20.628   7.350
 9948POPC   C1B70171  32.473  20.725   6.450
 9948POPC   C2B70172  32.424  20.772   6.750
 9948POPC   C3B70173  32.462  20.740   7.050
 9948POPC   C4B70174  32.438  20.748   7.350
 9949POPC   NC370175  43.874  15.949   5.550
 9949POPC   PO470176  43.850  15.961   5.850
 9949POPC   GL170177  43.933  15.961   6.150
 9949POPC   GL270178  43.863  16.129   6.150
 9949POPC   C1A70179  43.900  15.909   6.450
 9949POPC   D2A70180  43.879  15.954   6.750
 9949POPC   C3A70181  43.896  15.940   7.050
 9949POPC   C4A70182  43.917  15.941   7.350
 9949POPC   C1B70183  43.943  16.169   6.450
 9949POPC   C2B70184  43.927  16.239   6.750
 9949POPC   C3B70185  43.855  16.220   7.050
 9949POPC   C4B70186  43.932  16.173   7.350
 9950POPC   NC370187  25.232  36.173   5.550
 9950POPC   PO470188  25.284  36.170   5.850
 9950POPC   GL170189  25.296  36.113   6.150
 9950POPC   GL270190  25.246  36.003   6.150
 9950POPC   C1A70191  25.222  36.081   6.450
 9950POPC   D2A70192  25.249  36.082   6.750
 9950POPC   C3A70193  25.251  36.152   7.050
 9950POPC   C4A70194  25.255  36.135   7.350
 9950POPC   C1B70195  25.316  35.879   6.450
 9950POPC   C2B70196  25.275  35.885   6.750
 9950POPC   C3B70197  25.286  35.876   7.050
 9950POPC   C4B70198  25.251  35.863   7.350
 9951POPC   NC370199  16.777  19.074   5.550
 9951POPC   PO470200  16.701  19.106   5.850
 9951POPC   GL170201  16.699  19.106   6.150
 9951POPC   GL270202  16.825  19.067   6.150
 9951POPC   C1A70203  16.761  19.083   6.450
 9951POPC   D2A70204  16.727  19.015   6.750
 9951POPC   C3A70205  16.727  19.090   7.050
 9951POPC   C4A70206  16.746  19.033   7.350
 9951POPC   C1B70207  16.987  19.004   6.450
 9951POPC   C2B70208  17.007  19.091   6.750
 9951POPC   C3B70209  16.989  19.071   7.050
 9951POPC   C4B70210  16.955  19.075   7.350
 9952POPC   NC370211   4.280   3.526   5.550
 9952POPC   PO470212   4.336   3.559   5.850
 9952POPC   GL170213   4.271   3.556   6.150
 9952POPC   GL270214   4.202   3.663   6.150
 9952POPC   C1A70215   4.318   3.510   6.450
 9952POPC   D2A70216   4.290   3.584   6.750
 9952POPC   C3A70217   4.352   3.555   7.050
 9952POPC   C4A70218   4.331   3.576   7.350
 9952POPC   C1B70219   4.118   3.729   6.450
 9952POPC   C2B70220   4.165   3.699   6.750
 9952POPC   C3B70221   4.159   3.718   7.050
 9952POPC   C4B70222   4.111   3.669   7.350
 9953POPC   NC370223   5.131  16.690   5.550
 9953POPC   PO470224   5.101  16.700   5.850
 9953POPC   GL170225   5.093  16.709   6.150
 9953POPC   GL270226   4.927  16.714   6.150
 9953POPC   C1A70227   5.114  16.756   6.450
 9953POPC   D2A70228   5.109  16.717   6.750
 9953POPC   C3A70229   5.106  16.742   7.050
 9953POPC   C4A70230   5.134  16.737   7.350
 9953POPC   C1B70231   4.837  16.730   6.450
 9953POPC   C2B70232   4.894  16.750   6.750
 9953POPC   C3B70233   4.804  16.718   7.050
 9953POPC   C4B70234   4.871  16.732   7.350
 9954POPC   NC370235  30.660  29.911   5.550
 9954POPC   PO470236  30.689  29.911   5.850
 9954POPC   GL170237  30.706  29.951   6.150
 9954POPC   GL270238  30.674  29.797   6.150
 9954POPC   C1A70239  30.650  29.874   6.450
 9954POPC   D2A70240  30.724  29.933   6.750
 9954POPC   C3A70241  30.652  29.887   7.050
 9954POPC   C4A70242  30.738  29.943   7.350
 9954POPC   C1B70243  30.522  29.730   6.450
 9954POPC   C2B70244  30.515  29.748   6.750
 9954POPC   C3B70245  30.526  29.757   7.050
 9954POPC   C4B70246  30.597  29.672   7.350
 9955POPC   NC370247   5.087   3.504   5.550
 9955POPC   PO470248   5.089   3.492   5.850
 9955POPC   GL170249   5.092   3.516   6.150
 9955POPC   GL270250   4.993   3.477   6.150
 9955POPC   C1A70251   5.113   3.538   6.450
 9955POPC   D2A70252   5.095   3.528   6.750
 9955POPC   C3A70253   5.138   3.554   7.050
 9955POPC   C4A70254   5.054   3.545   7.350
 9955POPC   C1B70255   4.910   3.475   6.450
 9955POPC   C2B70256   4.859   3.415   6.750
 9955POPC   C3B70257   4.885   3.467   7.050
 9955POPC   C4B70258   4.828   3.418   7.350
 9956POPC   NC370259  25.294  16.772   5.550
 9956POPC   PO470260  25.278  16.777   5.850
 9956POPC   GL170261  25.280  16.722   6.150
 9956POPC   GL270262  25.240  16.611   6.150
 9956POPC   C1A70263  25.268  16.731   6.450
 9956POPC   D2A70264  25.231  16.700   6.750
 9956POPC   C3A70265  25.228  16.700   7.050
 9956POPC   C4A70266  25.275  16.730   7.350
 9956POPC   C1B70267  25.274  16.459   6.450
 9956POPC   C2B70268  25.258  16.517   6.750
 9956POPC   C3B70269  25.317  16.500   7.050
 9956POPC   C4B70270  25.227  16.491   7.350
 9957POPC   NC370271  26.012  42.333   5.550
 9957POPC   PO470272  26.054  42.374   5.850
 9957POPC   GL170273  26.088  42.361   6.150
 9957POPC   GL270274  26.138  42.196   6.150
 9957POPC   C1A70275  26.056  42.286   6.450
 9957POPC   D2A70276  26.012  42.316   6.750
 9957POPC   C3A70277  25.993  42.345   7.050
 9957POPC   C4A70278  26.061  42.332   7.350
 9957POPC   C1B70279  26.242  42.101   6.450
 9957POPC   C2B70280  26.201  42.169   6.750
 9957POPC   C3B70281  26.164  42.140   7.050
 9957POPC   C4B70282  26.214  42.139   7.350
 9958POPC   NC370283  14.446  19.843   5.550
 9958POPC   PO470284  14.398  19.803   5.850
 9958POPC   GL170285  14.406  19.804   6.150
 9958POPC   GL270286  14.394  19.917   6.150
 9958POPC   C1A70287  14.383  19.832   6.450
 9958POPC   D2A70288  14.442  19.875   6.750
 9958POPC   C3A70289  14.392  19.881   7.050
 9958POPC   C4A70290  14.425  19.812   7.350
 9958POPC   C1B70291  14.455  20.073   6.450
 9958POPC   C2B70292  14.428  20.103   6.750
 9958POPC   C3B70293  14.466  20.070   7.050
 9958POPC   C4B70294  14.445  20.051   7.350
 9959POPC   NC370295  39.983   6.670   5.550
 9959POPC   PO470296  39.973   6.637   5.850
 9959POPC   GL170297  39.986   6.691   6.150
 9959POPC   GL270298  39.905   6.531   6.150
 9959POPC   C1A70299  39.961   6.683   6.450
 9959POPC   D2A70300  39.967   6.626   6.750
 9959POPC   C3A70301  39.973   6.676   7.050
 9959POPC   C4A70302  40.035   6.674   7.350
 9959POPC   C1B70303  39.888   6.452   6.450
 9959POPC   C2B70304  39.857   6.399   6.750
 9959POPC   C3B70305  39.906   6.466   7.050
 9959POPC   C4B70306  39.859   6.458   7.350
 9960POPC   NC370307  19.828   6.661   5.550
 9960POPC   PO470308  19.817   6.612   5.850
 9960POPC   GL170309  19.858   6.605   6.150
 9960POPC   GL270310  19.686   6.714   6.150
 9960POPC   C1A70311  19.802   6.668   6.450
 9960POPC   D2A70312  19.880   6.618   6.750
 9960POPC   C3A70313  19.826   6.653   7.050
 9960POPC   C4A70314  19.795   6.641   7.350
 9960POPC   C1B70315  19.668   6.820   6.450
 9960POPC   C2B70316  19.626   6.841   6.750
 9960POPC   C3B70317  19.622   6.800   7.050
 9960POPC   C4B70318  19.664   6.821   7.350
 9961POPC   NC370319  29.161  22.168   5.550
 9961POPC   PO470320  29.125  22.205   5.850
 9961POPC   GL170321  29.188  22.153   6.150
 9961POPC   GL270322  29.212  22.015   6.150
 9961POPC   C1A70323  29.147  22.197   6.450
 9961POPC   D2A70324  29.122  22.180   6.750
 9961POPC   C3A70325  29.115  22.181   7.050
 9961POPC   C4A70326  29.096  22.204   7.350
 9961POPC   C1B70327  29.155  21.880   6.450
 9961POPC   C2B70328  29.151  21.901   6.750
 9961POPC   C3B70329  29.150  21.877   7.050
 9961POPC   C4B70330  29.216  21.899   7.350
 9962POPC   NC370331  15.189  43.073   5.550
 9962POPC   PO470332  15.166  43.133   5.850
 9962POPC   GL170333  15.130  43.091   6.150
 9962POPC   GL270334  15.260  43.217   6.150
 9962POPC   C1A70335  15.194  43.093   6.450
 9962POPC   D2A70336  15.185  43.090   6.750
 9962POPC   C3A70337  15.169  43.081   7.050
 9962POPC   C4A70338  15.206  43.130   7.350
 9962POPC   C1B70339  15.347  43.345   6.450
 9962POPC   C2B70340  15.298  43.345   6.750
 9962POPC   C3B70341  15.323  43.343   7.050
 9962POPC   C4B70342  15.301  43.306   7.350
 9963POPC   NC370343  43.880  39.228   5.550
 9963POPC   PO470344  43.931  39.234   5.850
 9963POPC   GL170345  43.853  39.192   6.150
 9963POPC   GL270346  43.732  39.278   6.150
 9963POPC   C1A70347  43.905  39.266   6.450
 9963POPC   D2A70348  43.910  39.251   6.750
 9963POPC   C3A70349  43.882  39.262   7.050
 9963POPC   C4A70350  43.894  39.258   7.350
 9963POPC   C1B70351  43.636  39.247   6.450
 9963POPC   C2B70352  43.665  39.314   6.750
 9963POPC   C3B70353  43.663  39.253   7.050
 9963POPC   C4B70354  43.673  39.256   7.350
 9964POPC   NC370355   3.494   7.431   5.550
 9964POPC   PO470356   3.539   7.468   5.850
 9964POPC   GL170357   3.579   7.398   6.150
 9964POPC   GL270358   3.543   7.583   6.150
 9964POPC   C1A70359   3.555   7.402   6.450
 9964POPC   D2A70360   3.577   7.387   6.750
 9964POPC   C3A70361   3.510   7.425   7.050
 9964POPC   C4A70362   3.509   7.465   7.350
 9964POPC   C1B70363   3.644   7.629   6.450
 9964POPC   C2B70364   3.588   7.673   6.750
 9964POPC   C3B70365   3.587   7.618   7.050
 9964POPC   C4B70366   3.599   7.702   7.350
 9965POPC   NC370367   2.749  36.141   5.550
 9965POPC   PO470368   2.751  36.166   5.850
 9965POPC   GL170369   2.769  36.098   6.150
 9965POPC   GL270370   2.901  36.164   6.150
 9965POPC   C1A70371   2.734  36.145   6.450
 9965POPC   D2A70372   2.784  36.119   6.750
 9965POPC   C3A70373   2.726  36.085   7.050
 9965POPC   C4A70374   2.813  36.081   7.350
 9965POPC   C1B70375   3.018  36.216   6.450
 9965POPC   C2B70376   3.029  36.169   6.750
 9965POPC   C3B70377   2.998  36.199   7.050
 9965POPC   C4B70378   3.045  36.188   7.350
 9966POPC   NC370379  25.301   0.487   5.550
 9966POPC   PO470380  25.273   0.389   5.850
 9966POPC   GL170381  25.223   0.396   6.150
 9966POPC   GL270382  25.326   0.339   6.150
 9966POPC   C1A70383  25.303   0.430   6.450
 9966POPC   D2A70384  25.307   0.428   6.750
 9966POPC   C3A70385  25.298   0.477   7.050
 9966POPC   C4A70386  25.246   0.483   7.350
 9966POPC   C1B70387  25.410   0.220   6.450
 9966POPC   C2B70388  25.439   0.262   6.750
 9966POPC   C3B70389  25.419   0.231   7.050
 9966POPC   C4B70390  25.395   0.269   7.350
 9967POPC   NC370391  32.240  43.144   5.550
 9967POPC   PO470392  32.277  43.112   5.850
 9967POPC   GL170393  32.297  43.113   6.150
 9967POPC   GL270394  32.171  42.950   6.150
 9967POPC   C1A70395  32.219  43.110   6.450
 9967POPC   D2A70396  32.235  43.106   6.750
 9967POPC   C3A70397  32.217  43.140   7.050
 9967POPC   C4A70398  32.213  43.134   7.350
 9967POPC   C1B70399  32.195  42.899   6.450
 9967POPC   C2B70400  32.169  42.914   6.750
 9967POPC   C3B70401  32.167  42.874   7.050
 9967POPC   C4B70402  32.131  42.840   7.350
 9968POPC   NC370403  31.449   2.038   5.550
 9968POPC   PO470404  31.500   2.029   5.850
 9968POPC   GL170405  31.437   1.974   6.150
 9968POPC   GL270406  31.457   2.117   6.150
 9968POPC   C1A70407  31.488   1.964   6.450
 9968POPC   D2A70408  31.485   1.959   6.750
 9968POPC   C3A70409  31.485   2.006   7.050
 9968POPC   C4A70410  31.428   2.014   7.350
 9968POPC   C1B70411  31.337   2.176   6.450
 9968POPC   C2B70412  31.340   2.258   6.750
 9968POPC   C3B70413  31.384   2.248   7.050
 9968POPC   C4B70414  31.338   2.215   7.350
 9969POPC   NC370415   0.404  40.023   5.550
 9969POPC   PO470416   0.451  39.984   5.850
 9969POPC   GL170417   0.486  39.982   6.150
 9969POPC   GL270418   0.287  39.969   6.150
 9969POPC   C1A70419   0.407  40.018   6.450
 9969POPC   D2A70420   0.419  39.971   6.750
 9969POPC   C3A70421   0.412  40.039   7.050
 9969POPC   C4A70422   0.459  40.035   7.350
 9969POPC   C1B70423   0.152  39.932   6.450
 9969POPC   C2B70424   0.145  39.949   6.750
 9969POPC   C3B70425   0.166  39.959   7.050
 9969POPC   C4B70426   0.175  39.954   7.350
 9970POPC   NC370427  24.484  36.106   5.550
 9970POPC   PO470428  24.494  36.124   5.850
 9970POPC   GL170429  24.440  36.123   6.150
 9970POPC   GL270430  24.530  36.250   6.150
 9970POPC   C1A70431  24.535  36.100   6.450
 9970POPC   D2A70432  24.459  36.150   6.750
 9970POPC   C3A70433  24.537  36.134   7.050
 9970POPC   C4A70434  24.491  36.101   7.350
 9970POPC   C1B70435  24.555  36.388   6.450
 9970POPC   C2B70436  24.476  36.404   6.750
 9970POPC   C3B70437  24.476  36.384   7.050
 9970POPC   C4B70438  24.501  36.349   7.350
 9971POPC   NC370439  11.298  15.907   5.550
 9971POPC   PO470440  11.265  15.926   5.850
 9971POPC   GL170441  11.303  15.956   6.150
 9971POPC   GL270442  11.343  15.802   6.150
 9971POPC   C1A70443  11.266  15.924   6.450
 9971POPC   D2A70444  11.341  15.972   6.750
 9971POPC   C3A70445  11.313  15.987   7.050
 9971POPC   C4A70446  11.280  15.962   7.350
 9971POPC   C1B70447  11.278  15.657   6.450
 9971POPC   C2B70448  11.284  15.720   6.750
 9971POPC   C3B70449  11.257  15.746   7.050
 9971POPC   C4B70450  11.266  15.714   7.350
 9972POPC   NC370451  29.123  11.311   5.550
 9972POPC   PO470452  29.179  11.294   5.850
 9972POPC   GL170453  29.173  11.273   6.150
 9972POPC   GL270454  29.116  11.441   6.150
 9972POPC   C1A70455  29.134  11.285   6.450
 9972POPC   D2A70456  29.138  11.291   6.750
 9972POPC   C3A70457  29.178  11.333   7.050
 9972POPC   C4A70458  29.168  11.279   7.350
 9972POPC   C1B70459  29.196  11.563   6.450
 9972POPC   C2B70460  29.115  11.548   6.750
 9972POPC   C3B70461  29.204  11.512   7.050
 9972POPC   C4B70462  29.129  11.505   7.350
 9973POPC   NC370463  16.708  15.990   5.550
 9973POPC   PO470464  16.779  15.918   5.850
 9973POPC   GL170465  16.746  15.914   6.150
 9973POPC   GL270466  16.695  15.870   6.150
 9973POPC   C1A70467  16.695  16.002   6.450
 9973POPC   D2A70468  16.778  15.973   6.750
 9973POPC   C3A70469  16.691  15.981   7.050
 9973POPC   C4A70470  16.735  15.957   7.350
 9973POPC   C1B70471  16.713  15.699   6.450
 9973POPC   C2B70472  16.725  15.672   6.750
 9973POPC   C3B70473  16.740  15.678   7.050
 9973POPC   C4B70474  16.734  15.714   7.350
 9974POPC   NC370475  28.404  27.627   5.550
 9974POPC   PO470476  28.352  27.611   5.850
 9974POPC   GL170477  28.330  27.564   6.150
 9974POPC   GL270478  28.282  27.495   6.150
 9974POPC   C1A70479  28.341  27.599   6.450
 9974POPC   D2A70480  28.364  27.628   6.750
 9974POPC   C3A70481  28.415  27.642   7.050
 9974POPC   C4A70482  28.411  27.587   7.350
 9974POPC   C1B70483  28.154  27.429   6.450
 9974POPC   C2B70484  28.144  27.513   6.750
 9974POPC   C3B70485  28.151  27.463   7.050
 9974POPC   C4B70486  28.170  27.460   7.350
 9975POPC   NC370487  15.163  18.282   5.550
 9975POPC   PO470488  15.175  18.259   5.850
 9975POPC   GL170489  15.144  18.282   6.150
 9975POPC   GL270490  15.075  18.236   6.150
 9975POPC   C1A70491  15.226  18.239   6.450
 9975POPC   D2A70492  15.156  18.310   6.750
 9975POPC   C3A70493  15.196  18.274   7.050
 9975POPC   C4A70494  15.193  18.288   7.350
 9975POPC   C1B70495  14.950  18.177   6.450
 9975POPC   C2B70496  14.945  18.217   6.750
 9975POPC   C3B70497  14.916  18.202   7.050
 9975POPC   C4B70498  14.993  18.190   7.350
 9976POPC   NC370499  18.314  42.306   5.550
 9976POPC   PO470500  18.238  42.344   5.850
 9976POPC   GL170501  18.239  42.339   6.150
 9976POPC   GL270502  18.241  42.229   6.150
 9976POPC   C1A70503  18.288  42.318   6.450
 9976POPC   D2A70504  18.308  42.286   6.750
 9976POPC   C3A70505  18.298  42.362   7.050
 9976POPC   C4A70506  18.284  42.361   7.350
 9976POPC   C1B70507  18.199  42.094   6.450
 9976POPC   C2B70508  18.182  42.100   6.750
 9976POPC   C3B70509  18.130  42.114   7.050
 9976POPC   C4B70510  18.115  42.149   7.350
 9977POPC   NC370511  31.490  30.662   5.550
 9977POPC   PO470512  31.476  30.684   5.850
 9977POPC   GL170513  31.458  30.746   6.150
 9977POPC   GL270514  31.625  30.657   6.150
 9977POPC   C1A70515  31.427  30.734   6.450
 9977POPC   D2A70516  31.452  30.736   6.750
 9977POPC   C3A70517  31.520  30.652   7.050
 9977POPC   C4A70518  31.518  30.698   7.350
 9977POPC   C1B70519  31.703  30.580   6.450
 9977POPC   C2B70520  31.733  30.593   6.750
 9977POPC   C3B70521  31.689  30.612   7.050
 9977POPC   C4B70522  31.748  30.643   7.350
 9978POPC   NC370523   5.837  16.710   5.550
 9978POPC   PO470524   5.903  16.705   5.850
 9978POPC   GL170525   5.839  16.770   6.150
 9978POPC   GL270526   5.971  16.817   6.150
 9978POPC   C1A70527   5.902  16.733   6.450
 9978POPC   D2A70528   5.879  16.727   6.750
 9978POPC   C3A70529   5.844  16.703   7.050
 9978POPC   C4A70530   5.905  16.712   7.350
 9978POPC   C1B70531   6.150  16.768   6.450
 9978POPC   C2B70532   6.091  16.780   6.750
 9978POPC   C3B70533   6.105  16.762   7.050
 9978POPC   C4B70534   6.075  16.804   7.350
 9979POPC   NC370535   0.488  14.433   5.550
 9979POPC   PO470536   0.456  14.383   5.850
 9979POPC   GL170537   0.476  14.450   6.150
 9979POPC   GL270538   0.437  14.550   6.150
 9979POPC   C1A70539   0.425  14.365   6.450
 9979POPC   D2A70540   0.425  14.425   6.750
 9979POPC   C3A70541   0.411  14.421   7.050
 9979POPC   C4A70542   0.444  14.442   7.350
 9979POPC   C1B70543   0.401  14.610   6.450
 9979POPC   C2B70544   0.380  14.655   6.750
 9979POPC   C3B70545   0.419  14.667   7.050
 9979POPC   C4B70546   0.437  14.604   7.350
 9980POPC   NC370547   0.450  37.638   5.550
 9980POPC   PO470548   0.440  37.666   5.850
 9980POPC   GL170549   0.408  37.669   6.150
 9980POPC   GL270550   0.585  37.728   6.150
 9980POPC   C1A70551   0.427  37.722   6.450
 9980POPC   D2A70552   0.416  37.724   6.750
 9980POPC   C3A70553   0.451  37.696   7.050
 9980POPC   C4A70554   0.448  37.692   7.350
 9980POPC   C1B70555   0.671  37.755   6.450
 9980POPC   C2B70556   0.622  37.827   6.750
 9980POPC   C3B70557   0.626  37.779   7.050
 9980POPC   C4B70558   0.707  37.777   7.350
 9981POPC   NC370559  19.826  32.986   5.550
 9981POPC   PO470560  19.823  32.984   5.850
 9981POPC   GL170561  19.858  33.048   6.150
 9981POPC   GL270562  19.934  32.954   6.150
 9981POPC   C1A70563  19.882  33.009   6.450
 9981POPC   D2A70564  19.825  33.015   6.750
 9981POPC   C3A70565  19.825  33.051   7.050
 9981POPC   C4A70566  19.883  33.073   7.350
 9981POPC   C1B70567  20.051  32.880   6.450
 9981POPC   C2B70568  20.093  32.867   6.750
 9981POPC   C3B70569  20.065  32.906   7.050
 9981POPC   C4B70570  20.040  32.880   7.350
 9982POPC   NC370571  19.880   1.955   5.550
 9982POPC   PO470572  19.854   1.965   5.850
 9982POPC   GL170573  19.825   1.977   6.150
 9982POPC   GL270574  19.775   1.875   6.150
 9982POPC   C1A70575  19.845   1.955   6.450
 9982POPC   D2A70576  19.826   1.946   6.750
 9982POPC   C3A70577  19.842   2.025   7.050
 9982POPC   C4A70578  19.808   1.987   7.350
 9982POPC   C1B70579  19.752   1.725   6.450
 9982POPC   C2B70580  19.765   1.786   6.750
 9982POPC   C3B70581  19.783   1.753   7.050
 9982POPC   C4B70582  19.741   1.777   7.350
 9983POPC   NC370583  32.292  29.964   5.550
 9983POPC   PO470584  32.239  29.961   5.850
 9983POPC   GL170585  32.242  29.948   6.150
 9983POPC   GL270586  32.380  29.909   6.150
 9983POPC   C1A70587  32.227  29.909   6.450
 9983POPC   D2A70588  32.219  29.945   6.750
 9983POPC   C3A70589  32.280  29.895   7.050
 9983POPC   C4A70590  32.214  29.871   7.350
 9983POPC   C1B70591  32.517  29.972   6.450
 9983POPC   C2B70592  32.465  29.953   6.750
 9983POPC   C3B70593  32.497  30.004   7.050
 9983POPC   C4B70594  32.510  29.920   7.350
 9984POPC   NC370595  42.327  23.736   5.550
 9984POPC   PO470596  42.286  23.695   5.850
 9984POPC   GL170597  42.303  23.763   6.150
 9984POPC   GL270598  42.222  23.718   6.150
 9984POPC   C1A70599  42.337  23.754   6.450
 9984POPC   D2A70600  42.291  23.684   6.750
 9984POPC   C3A70601  42.312  23.705   7.050
 9984POPC   C4A70602  42.327  23.688   7.350
 9984POPC   C1B70603  42.048  23.670   6.450
 9984POPC   C2B70604  42.121  23.664   6.750
 9984POPC   C3B70605  42.095  23.741   7.050
 9984POPC   C4B70606  42.069  23.694   7.350
 9985POPC   NC370607  32.217   1.241   5.550
 9985POPC   PO470608  32.259   1.175   5.850
 9985POPC   GL170609  32.239   1.255   6.150
 9985POPC   GL270610  32.217   1.126   6.150
 9985POPC   C1A70611  32.264   1.165   6.450
 9985POPC   D2A70612  32.258   1.184   6.750
 9985POPC   C3A70613  32.251   1.255   7.050
 9985POPC   C4A70614  32.231   1.182   7.350
 9985POPC   C1B70615  32.092   0.962   6.450
 9985POPC   C2B70616  32.119   1.044   6.750
 9985POPC   C3B70617  32.128   0.977   7.050
 9985POPC   C4B70618  32.077   1.034   7.350
 9986POPC   NC370619   6.596  18.304   5.550
 9986POPC   PO470620   6.654  18.283   5.850
 9986POPC   GL170621   6.666  18.319   6.150
 9986POPC   GL270622   6.653  18.413   6.150
 9986POPC   C1A70623   6.666  18.245   6.450
 9986POPC   D2A70624   6.683  18.301   6.750
 9986POPC   C3A70625   6.674  18.257   7.050
 9986POPC   C4A70626   6.620  18.307   7.350
 9986POPC   C1B70627   6.755  18.485   6.450
 9986POPC   C2B70628   6.739  18.552   6.750
 9986POPC   C3B70629   6.726  18.486   7.050
 9986POPC   C4B70630   6.744  18.511   7.350
 9987POPC   NC370631   9.739  17.557   5.550
 9987POPC   PO470632   9.761  17.463   5.850
 9987POPC   GL170633   9.778  17.552   6.150
 9987POPC   GL270634   9.697  17.418   6.150
 9987POPC   C1A70635   9.798  17.549   6.450
 9987POPC   D2A70636   9.703  17.556   6.750
 9987POPC   C3A70637   9.701  17.473   7.050
 9987POPC   C4A70638   9.738  17.495   7.350
 9987POPC   C1B70639   9.637  17.260   6.450
 9987POPC   C2B70640   9.586  17.340   6.750
 9987POPC   C3B70641   9.620  17.332   7.050
 9987POPC   C4B70642   9.595  17.270   7.350
 9988POPC   NC370643  32.201   4.356   5.550
 9988POPC   PO470644  32.250   4.321   5.850
 9988POPC   GL170645  32.210   4.279   6.150
 9988POPC   GL270646  32.331   4.218   6.150
 9988POPC   C1A70647  32.227   4.357   6.450
 9988POPC   D2A70648  32.228   4.292   6.750
 9988POPC   C3A70649  32.272   4.366   7.050
 9988POPC   C4A70650  32.273   4.322   7.350
 9988POPC   C1B70651  32.276   4.109   6.450
 9988POPC   C2B70652  32.283   4.091   6.750
 9988POPC   C3B70653  32.340   4.062   7.050
 9988POPC   C4B70654  32.320   4.065   7.350
 9989POPC   NC370655  35.400  36.100   5.550
 9989POPC   PO470656  35.335  36.128   5.850
 9989POPC   GL170657  35.302  36.121   6.150
 9989POPC   GL270658  35.351  36.005   6.150
 9989POPC   C1A70659  35.329  36.159   6.450
 9989POPC   D2A70660  35.304  36.117   6.750
 9989POPC   C3A70661  35.371  36.170   7.050
 9989POPC   C4A70662  35.360  36.140   7.350
 9989POPC   C1B70663  35.385  35.853   6.450
 9989POPC   C2B70664  35.394  35.892   6.750
 9989POPC   C3B70665  35.399  35.872   7.050
 9989POPC   C4B70666  35.430  35.881   7.350
 9990POPC   NC370667  23.734  19.856   5.550
 9990POPC   PO470668  23.755  19.785   5.850
 9990POPC   GL170669  23.709  19.851   6.150
 9990POPC   GL270670  23.688  19.894   6.150
 9990POPC   C1A70671  23.764  19.834   6.450
 9990POPC   D2A70672  23.693  19.786   6.750
 9990POPC   C3A70673  23.691  19.855   7.050
 9990POPC   C4A70674  23.679  19.874   7.350
 9990POPC   C1B70675  23.557  20.087   6.450
 9990POPC   C2B70676  23.562  20.028   6.750
 9990POPC   C3B70677  23.555  20.073   7.050
 9990POPC   C4B70678  23.569  20.029   7.350
 9991POPC   NC370679  14.375  14.435   5.550
 9991POPC   PO470680  14.397  14.448   5.850
 9991POPC   GL170681  14.411  14.375   6.150
 9991POPC   GL270682  14.238  14.419   6.150
 9991POPC   C1A70683  14.450  14.392   6.450
 9991POPC   D2A70684  14.400  14.396   6.750
 9991POPC   C3A70685  14.448  14.434   7.050
 9991POPC   C4A70686  14.451  14.446   7.350
 9991POPC   C1B70687  14.193  14.329   6.450
 9991POPC   C2B70688  14.125  14.386   6.750
 9991POPC   C3B70689  14.173  14.342   7.050
 9991POPC   C4B70690  14.167  14.308   7.350
 9992POPC   NC370691  30.697   2.769   5.550
 9992POPC   PO470692  30.667   2.750   5.850
 9992POPC   GL170693  30.710   2.804   6.150
 9992POPC   GL270694  30.650   2.728   6.150
 9992POPC   C1A70695  30.742   2.769   6.450
 9992POPC   D2A70696  30.655   2.811   6.750
 9992POPC   C3A70697  30.740   2.791   7.050
 9992POPC   C4A70698  30.656   2.815   7.350
 9992POPC   C1B70699  30.485   2.643   6.450
 9992POPC   C2B70700  30.508   2.573   6.750
 9992POPC   C3B70701  30.477   2.553   7.050
 9992POPC   C4B70702  30.518   2.631   7.350
 9993POPC   NC370703  41.519  34.538   5.550
 9993POPC   PO470704  41.541  34.543   5.850
 9993POPC   GL170705  41.576  34.624   6.150
 9993POPC   GL270706  41.532  34.736   6.150
 9993POPC   C1A70707  41.526  34.609   6.450
 9993POPC   D2A70708  41.594  34.620   6.750
 9993POPC   C3A70709  41.559  34.548   7.050
 9993POPC   C4A70710  41.519  34.589   7.350
 9993POPC   C1B70711  41.556  34.784   6.450
 9993POPC   C2B70712  41.593  34.854   6.750
 9993POPC   C3B70713  41.530  34.826   7.050
 9993POPC   C4B70714  41.576  34.791   7.350
 9994POPC   NC370715  12.102  26.805   5.550
 9994POPC   PO470716  12.108  26.800   5.850
 9994POPC   GL170717  12.035  26.775   6.150
 9994POPC   GL270718  11.987  26.675   6.150
 9994POPC   C1A70719  12.045  26.789   6.450
 9994POPC   D2A70720  12.063  26.798   6.750
 9994POPC   C3A70721  12.082  26.826   7.050
 9994POPC   C4A70722  12.058  26.840   7.350
 9994POPC   C1B70723  11.979  26.576   6.450
 9994POPC   C2B70724  11.992  26.619   6.750
 9994POPC   C3B70725  11.958  26.609   7.050
 9994POPC   C4B70726  12.024  26.618   7.350
 9995POPC   NC370727   5.100  20.576   5.550
 9995POPC   PO470728   5.090  20.635   5.850
 9995POPC   GL170729   5.076  20.649   6.150
 9995POPC   GL270730   5.257  20.595   6.150
 9995POPC   C1A70731   5.111  20.647   6.450
 9995POPC   D2A70732   5.131  20.648   6.750
 9995POPC   C3A70733   5.110  20.610   7.050
 9995POPC   C4A70734   5.091  20.590   7.350
 9995POPC   C1B70735   5.302  20.497   6.450
 9995POPC   C2B70736   5.342  20.482   6.750
 9995POPC   C3B70737   5.293  20.495   7.050
 9995POPC   C4B70738   5.357  20.533   7.350
 9996POPC   NC370739  14.428  18.266   5.550
 9996POPC   PO470740  14.373  18.286   5.850
 9996POPC   GL170741  14.434  18.236   6.150
 9996POPC   GL270742  14.277  18.318   6.150
 9996POPC   C1A70743  14.369  18.265   6.450
 9996POPC   D2A70744  14.363  18.318   6.750
 9996POPC   C3A70745  14.414  18.312   7.050
 9996POPC   C4A70746  14.357  18.315   7.350
 9996POPC   C1B70747  14.160  18.298   6.450
 9996POPC   C2B70748  14.129  18.382   6.750
 9996POPC   C3B70749  14.140  18.388   7.050
 9996POPC   C4B70750  14.158  18.390   7.350
 9997POPC   NC370751  19.853  26.020   5.550
 9997POPC   PO470752  19.829  26.078   5.850
 9997POPC   GL170753  19.880  26.040   6.150
 9997POPC   GL270754  19.783  26.092   6.150
 9997POPC   C1A70755  19.841  26.042   6.450
 9997POPC   D2A70756  19.807  26.071   6.750
 9997POPC   C3A70757  19.846  26.020   7.050
 9997POPC   C4A70758  19.823  26.029   7.350
 9997POPC   C1B70759  19.679  26.216   6.450
 9997POPC   C2B70760  19.719  26.231   6.750
 9997POPC   C3B70761  19.651  26.279   7.050
 9997POPC   C4B70762  19.722  26.212   7.350
 9998POPC   NC370763   4.289  31.505   5.550
 9998POPC   PO470764   4.275  31.447   5.850
 9998POPC   GL170765   4.314  31.464   6.150
 9998POPC   GL270766   4.290  31.360   6.150
 9998POPC   C1A70767   4.273  31.458   6.450
 9998POPC   D2A70768   4.303  31.477   6.750
 9998POPC   C3A70769   4.333  31.518   7.050
 9998POPC   C4A70770   4.296  31.507   7.350
 9998POPC   C1B70771   4.200  31.224   6.450
 9998POPC   C2B70772   4.129  31.313   6.750
 9998POPC   C3B70773   4.213  31.246   7.050
 9998POPC   C4B70774   4.149  31.261   7.350
 9999POPC   NC370775   3.557  23.715   5.550
 9999POPC   PO470776   3.537  23.690   5.850
 9999POPC   GL170777   3.535  23.727   6.150
 9999POPC   GL270778   3.477  23.630   6.150
 9999POPC   C1A70779   3.495  23.706   6.450
 9999POPC   D2A70780   3.538  23.708   6.750
 9999POPC   C3A70781   3.494  23.744   7.050
 9999POPC   C4A70782   3.559  23.746   7.350
 9999POPC   C1B70783   3.385  23.471   6.450
 9999POPC   C2B70784   3.418  23.472   6.750
 9999POPC   C3B70785   3.413  23.511   7.050
 9999POPC   C4B70786   3.462  23.470   7.350
10000POPC   NC370787  37.649  29.194   5.550
10000POPC   PO470788  37.668  29.108   5.850
10000POPC   GL170789  37.650  29.177   6.150
10000POPC   GL270790  37.619  29.221   6.150
10000POPC   C1A70791  37.727  29.187   6.450
10000POPC   D2A70792  37.689  29.156   6.750
10000POPC   C3A70793  37.694  29.104   7.050
10000POPC   C4A70794  37.703  29.107   7.350
10000POPC   C1B70795  37.623  29.408   6.450
10000POPC   C2B70796  37.617  29.353   6.750
10000POPC   C3B70797  37.618  29.423   7.050
10000POPC   C4B70798  37.657  29.365   7.350
10001POPC   NC370799   9.785  40.750   5.550
10001POPC   PO470800   9.714  40.735   5.850
10001POPC   GL170801   9.759  40.791   6.150
10001POPC   GL270802   9.767  40.703   6.150
10001POPC   C1A70803   9.714  40.778   6.450
10001POPC   D2A70804   9.781  40.809   6.750
10001POPC   C3A70805   9.770  40.812   7.050
10001POPC   C4A70806   9.726  40.746   7.350
10001POPC   C1B70807   9.773  40.552   6.450
10001POPC   C2B70808   9.717  40.574   6.750
10001POPC   C3B70809   9.733  40.500   7.050
10001POPC   C4B70810   9.750  40.543   7.350
10002POPC   NC370811   8.194  20.576   5.550
10002POPC   PO470812   8.154  20.582   5.850
10002POPC   GL170813   8.173  20.576   6.150
10002POPC   GL270814   8.047  20.563   6.150
10002POPC   C1A70815   8.174  20.626   6.450
10002POPC   D2A70816   8.149  20.618   6.750
10002POPC   C3A70817   8.244  20.570   7.050
10002POPC   C4A70818   8.167  20.648   7.350
10002POPC   C1B70819   7.982  20.525   6.450
10002POPC   C2B70820   7.936  20.505   6.750
10002POPC   C3B70821   7.998  20.541   7.050
10002POPC   C4B70822   7.970  20.482   7.350
10003POPC   NC370823  41.551  18.275   5.550
10003POPC   PO470824  41.558  18.281   5.850
10003POPC   GL170825  41.585  18.332   6.150
10003POPC   GL270826  41.718  18.201   6.150
10003POPC   C1A70827  41.580  18.315   6.450
10003POPC   D2A70828  41.555  18.273   6.750
10003POPC   C3A70829  41.524  18.295   7.050
10003POPC   C4A70830  41.586  18.315   7.350
10003POPC   C1B70831  41.765  18.210   6.450
10003POPC   C2B70832  41.822  18.247   6.750
10003POPC   C3B70833  41.814  18.198   7.050
10003POPC   C4B70834  41.838  18.236   7.350
10004POPC   NC370835   6.690  31.432   5.550
10004POPC   PO470836   6.636  31.512   5.850
10004POPC   GL170837   6.635  31.449   6.150
10004POPC   GL270838   6.510  31.401   6.150
10004POPC   C1A70839   6.602  31.458   6.450
10004POPC   D2A70840   6.668  31.456   6.750
10004POPC   C3A70841   6.595  31.508   7.050
10004POPC   C4A70842   6.602  31.454   7.350
10004POPC   C1B70843   6.424  31.433   6.450
10004POPC   C2B70844   6.390  31.373   6.750
10004POPC   C3B70845   6.401  31.376   7.050
10004POPC   C4B70846   6.424  31.402   7.350
10005POPC   NC370847  32.252  43.890   5.550
10005POPC   PO470848  32.259  43.858   5.850
10005POPC   GL170849  32.272  43.898   6.150
10005POPC   GL270850  32.405  43.972   6.150
10005POPC   C1A70851  32.248  43.856   6.450
10005POPC   D2A70852  32.227  43.918   6.750
10005POPC   C3A70853  32.279  43.889   7.050
10005POPC   C4A70854  32.253  43.921   7.350
10005POPC   C1B70855  32.515  44.005   6.450
10005POPC   C2B70856  32.525  44.020   6.750
10005POPC   C3B70857  32.501  44.021   7.050
10005POPC   C4B70858  32.497  43.970   7.350
10006POPC   NC370859   5.831  33.798   5.550
10006POPC   PO470860   5.888  33.755   5.850
10006POPC   GL170861   5.841  33.825   6.150
10006POPC   GL270862   5.946  33.794   6.150
10006POPC   C1A70863   5.899  33.848   6.450
10006POPC   D2A70864   5.902  33.810   6.750
10006POPC   C3A70865   5.853  33.759   7.050
10006POPC   C4A70866   5.827  33.817   7.350
10006POPC   C1B70867   6.061  33.747   6.450
10006POPC   C2B70868   6.079  33.768   6.750
10006POPC   C3B70869   6.154  33.765   7.050
10006POPC   C4B70870   6.088  33.708   7.350
10007POPC   NC370871  36.906  12.075   5.550
10007POPC   PO470872  36.859  12.049   5.850
10007POPC   GL170873  36.911  12.121   6.150
10007POPC   GL270874  36.997  12.060   6.150
10007POPC   C1A70875  36.940  12.076   6.450
10007POPC   D2A70876  36.878  12.092   6.750
10007POPC   C3A70877  36.905  12.066   7.050
10007POPC   C4A70878  36.889  12.093   7.350
10007POPC   C1B70879  37.154  12.040   6.450
10007POPC   C2B70880  37.158  12.085   6.750
10007POPC   C3B70881  37.194  12.067   7.050
10007POPC   C4B70882  37.151  12.028   7.350
10008POPC   NC370883   1.974  20.626   5.550
10008POPC   PO470884   1.974  20.649   5.850
10008POPC   GL170885   1.983  20.659   6.150
10008POPC   GL270886   1.835  20.686   6.150
10008POPC   C1A70887   1.982  20.583   6.450
10008POPC   D2A70888   1.992  20.565   6.750
10008POPC   C3A70889   1.948  20.591   7.050
10008POPC   C4A70890   1.965  20.627   7.350
10008POPC   C1B70891   1.742  20.679   6.450
10008POPC   C2B70892   1.705  20.705   6.750
10008POPC   C3B70893   1.750  20.726   7.050
10008POPC   C4B70894   1.763  20.706   7.350
10009POPC   NC370895   7.432  36.152   5.550
10009POPC   PO470896   7.391  36.122   5.850
10009POPC   GL170897   7.446  36.118   6.150
10009POPC   GL270898   7.568  36.119   6.150
10009POPC   C1A70899   7.437  36.176   6.450
10009POPC   D2A70900   7.374  36.128   6.750
10009POPC   C3A70901   7.470  36.147   7.050
10009POPC   C4A70902   7.401  36.098   7.350
10009POPC   C1B70903   7.677  36.193   6.450
10009POPC   C2B70904   7.669  36.216   6.750
10009POPC   C3B70905   7.649  36.212   7.050
10009POPC   C4B70906   7.632  36.176   7.350
10010POPC   NC370907  22.206   2.033   5.550
10010POPC   PO470908  22.183   1.973   5.850
10010POPC   GL170909  22.149   2.013   6.150
10010POPC   GL270910  22.224   2.107   6.150
10010POPC   C1A70911  22.149   1.973   6.450
10010POPC   D2A70912  22.133   2.001   6.750
10010POPC   C3A70913  22.202   1.947   7.050
10010POPC   C4A70914  22.138   2.018   7.350
10010POPC   C1B70915  22.236   2.216   6.450
10010POPC   C2B70916  22.284   2.224   6.750
10010POPC   C3B70917  22.229   2.216   7.050
10010POPC   C4B70918  22.205   2.208   7.350
10011POPC   NC370919  25.216   1.181   5.550
10011POPC   PO470920  25.275   1.255   5.850
10011POPC   GL170921  25.275   1.246   6.150
10011POPC   GL270922  25.409   1.142   6.150
10011POPC   C1A70923  25.248   1.210   6.450
10011POPC   D2A70924  25.291   1.255   6.750
10011POPC   C3A70925  25.252   1.176   7.050
10011POPC   C4A70926  25.250   1.240   7.350
10011POPC   C1B70927  25.484   1.095   6.450
10011POPC   C2B70928  25.503   1.081   6.750
10011POPC   C3B70929  25.443   1.131   7.050
10011POPC   C4B70930  25.439   1.059   7.350
10012POPC   NC370931  34.572  42.319   5.550
10012POPC   PO470932  34.619  42.340   5.850
10012POPC   GL170933  34.624  42.336   6.150
10012POPC   GL270934  34.610  42.201   6.150
10012POPC   C1A70935  34.619  42.311   6.450
10012POPC   D2A70936  34.536  42.384   6.750
10012POPC   C3A70937  34.579  42.354   7.050
10012POPC   C4A70938  34.579  42.360   7.350
10012POPC   C1B70939  34.637  42.040   6.450
10012POPC   C2B70940  34.572  42.126   6.750
10012POPC   C3B70941  34.609  42.099   7.050
10012POPC   C4B70942  34.656  42.094   7.350
10013POPC   NC370943  42.376  41.603   5.550
10013POPC   PO470944  42.290  41.537   5.850
10013POPC   GL170945  42.332  41.531   6.150
10013POPC   GL270946  42.406  41.540   6.150
10013POPC   C1A70947  42.297  41.594   6.450
10013POPC   D2A70948  42.324  41.512   6.750
10013POPC   C3A70949  42.300  41.574   7.050
10013POPC   C4A70950  42.326  41.583   7.350
10013POPC   C1B70951  42.548  41.500   6.450
10013POPC   C2B70952  42.561  41.465   6.750
10013POPC   C3B70953  42.581  41.502   7.050
10013POPC   C4B70954  42.560  41.495   7.350
10014POPC   NC370955  26.773  42.328   5.550
10014POPC   PO470956  26.828  42.381   5.850
10014POPC   GL170957  26.812  42.330   6.150
10014POPC   GL270958  26.869  42.466   6.150
10014POPC   C1A70959  26.832  42.380   6.450
10014POPC   D2A70960  26.768  42.380   6.750
10014POPC   C3A70961  26.859  42.293   7.050
10014POPC   C4A70962  26.805  42.375   7.350
10014POPC   C1B70963  26.945  42.564   6.450
10014POPC   C2B70964  26.957  42.593   6.750
10014POPC   C3B70965  26.975  42.568   7.050
10014POPC   C4B70966  26.936  42.587   7.350
10015POPC   NC370967   9.727  42.326   5.550
10015POPC   PO470968   9.744  42.307   5.850
10015POPC   GL170969   9.748  42.367   6.150
10015POPC   GL270970   9.716  42.258   6.150
10015POPC   C1A70971   9.749  42.333   6.450
10015POPC   D2A70972   9.741  42.337   6.750
10015POPC   C3A70973   9.762  42.370   7.050
10015POPC   C4A70974   9.752  42.336   7.350
10015POPC   C1B70975   9.751  42.111   6.450
10015POPC   C2B70976   9.723  42.071   6.750
10015POPC   C3B70977   9.724  42.093   7.050
10015POPC   C4B70978   9.737  42.048   7.350
10016POPC   NC370979   4.333  38.454   5.550
10016POPC   PO470980   4.351  38.497   5.850
10016POPC   GL170981   4.279  38.482   6.150
10016POPC   GL270982   4.285  38.600   6.150
10016POPC   C1A70983   4.355  38.440   6.450
10016POPC   D2A70984   4.305  38.408   6.750
10016POPC   C3A70985   4.330  38.428   7.050
10016POPC   C4A70986   4.307  38.411   7.350
10016POPC   C1B70987   4.262  38.715   6.450
10016POPC   C2B70988   4.298  38.714   6.750
10016POPC   C3B70989   4.238  38.666   7.050
10016POPC   C4B70990   4.299  38.680   7.350
10017POPC   NC370991  36.100  43.135   5.550
10017POPC   PO470992  36.094  43.107   5.850
10017POPC   GL170993  36.155  43.146   6.150
10017POPC   GL270994  36.219  43.101   6.150
10017POPC   C1A70995  36.106  43.074   6.450
10017POPC   D2A70996  36.174  43.114   6.750
10017POPC   C3A70997  36.094  43.084   7.050
10017POPC   C4A70998  36.086  43.151   7.350
10017POPC   C1B70999  36.393  43.156   6.450
10017POPC   C2B71000  36.388  43.167   6.750
10017POPC   C3B71001  36.364  43.118   7.050
10017POPC   C4B71002  36.416  43.163   7.350
10018POPC   NC371003  26.062   5.127   5.550
10018POPC   PO471004  26.000   5.114   5.850
10018POPC   GL171005  26.029   5.114   6.150
10018POPC   GL271006  26.019   5.027   6.150
10018POPC   C1A71007  26.058   5.086   6.450
10018POPC   D2A71008  26.058   5.057   6.750
10018POPC   C3A71009  26.054   5.085   7.050
10018POPC   C4A71010  26.024   5.065   7.350
10018POPC   C1B71011  25.958   4.829   6.450
10018POPC   C2B71012  25.949   4.846   6.750
10018POPC   C3B71013  25.919   4.870   7.050
10018POPC   C4B71014  25.922   4.841   7.350
10019POPC   NC371015  13.668  34.619   5.550
10019POPC   PO471016  13.626  34.564   5.850
10019POPC   GL171017  13.632  34.599   6.150
10019POPC   GL271018  13.573  34.674   6.150
10019POPC   C1A71019  13.584  34.526   6.450
10019POPC   D2A71020  13.615  34.574   6.750
10019POPC   C3A71021  13.605  34.543   7.050
10019POPC   C4A71022  13.641  34.606   7.350
10019POPC   C1B71023  13.435  34.718   6.450
10019POPC   C2B71024  13.393  34.749   6.750
10019POPC   C3B71025  13.386  34.672   7.050
10019POPC   C4B71026  13.392  34.742   7.350
10020POPC   NC371027  18.313  22.934   5.550
10020POPC   PO471028  18.312  22.890   5.850
10020POPC   GL171029  18.252  22.927   6.150
10020POPC   GL271030  18.437  22.916   6.150
10020POPC   C1A71031  18.255  22.921   6.450
10020POPC   D2A71032  18.279  22.897   6.750
10020POPC   C3A71033  18.290  22.978   7.050
10020POPC   C4A71034  18.288  22.913   7.350
10020POPC   C1B71035  18.479  22.860   6.450
10020POPC   C2B71036  18.497  22.769   6.750
10020POPC   C3B71037  18.455  22.812   7.050
10020POPC   C4B71038  18.470  22.771   7.350
10021POPC   NC371039  21.436   8.242   5.550
10021POPC   PO471040  21.355   8.203   5.850
10021POPC   GL171041  21.339   8.192   6.150
10021POPC   GL271042  21.372   8.326   6.150
10021POPC   C1A71043  21.369   8.187   6.450
10021POPC   D2A71044  21.369   8.214   6.750
10021POPC   C3A71045  21.431   8.165   7.050
10021POPC   C4A71046  21.422   8.237   7.350
10021POPC   C1B71047  21.310   8.467   6.450
10021POPC   C2B71048  21.287   8.426   6.750
10021POPC   C3B71049  21.293   8.437   7.050
10021POPC   C4B71050  21.304   8.464   7.350
10022POPC   NC371051  43.115  22.941   5.550
10022POPC   PO471052  43.154  22.933   5.850
10022POPC   GL171053  43.113  22.902   6.150
10022POPC   GL271054  42.991  22.840   6.150
10022POPC   C1A71055  43.136  22.951   6.450
10022POPC   D2A71056  43.118  22.986   6.750
10022POPC   C3A71057  43.159  22.904   7.050
10022POPC   C4A71058  43.125  22.928   7.350
10022POPC   C1B71059  42.928  22.763   6.450
10022POPC   C2B71060  42.909  22.750   6.750
10022POPC   C3B71061  42.865  22.754   7.050
10022POPC   C4B71062  42.889  22.796   7.350
10023POPC   NC371063   6.629  10.487   5.550
10023POPC   PO471064   6.694  10.571   5.850
10023POPC   GL171065   6.684  10.497   6.150
10023POPC   GL271066   6.718  10.443   6.150
10023POPC   C1A71067   6.623  10.533   6.450
10023POPC   D2A71068   6.608  10.558   6.750
10023POPC   C3A71069   6.654  10.529   7.050
10023POPC   C4A71070   6.675  10.566   7.350
10023POPC   C1B71071   6.899  10.428   6.450
10023POPC   C2B71072   6.821  10.421   6.750
10023POPC   C3B71073   6.892  10.409   7.050
10023POPC   C4B71074   6.866  10.368   7.350
10024POPC   NC371075  42.359  30.741   5.550
10024POPC   PO471076  42.351  30.700   5.850
10024POPC   GL171077  42.371  30.678   6.150
10024POPC   GL271078  42.387  30.760   6.150
10024POPC   C1A71079  42.339  30.698   6.450
10024POPC   D2A71080  42.298  30.703   6.750
10024POPC   C3A71081  42.377  30.716   7.050
10024POPC   C4A71082  42.295  30.665   7.350
10024POPC   C1B71083  42.497  30.926   6.450
10024POPC   C2B71084  42.457  30.905   6.750
10024POPC   C3B71085  42.556  30.829   7.050
10024POPC   C4B71086  42.505  30.885   7.350
10025POPC   NC371087  26.839  19.096   5.550
10025POPC   PO471088  26.842  19.076   5.850
10025POPC   GL171089  26.861  19.041   6.150
10025POPC   GL271090  26.979  19.044   6.150
10025POPC   C1A71091  26.793  19.041   6.450
10025POPC   D2A71092  26.774  19.013   6.750
10025POPC   C3A71093  26.831  19.053   7.050
10025POPC   C4A71094  26.864  19.083   7.350
10025POPC   C1B71095  27.072  19.100   6.450
10025POPC   C2B71096  27.032  19.089   6.750
10025POPC   C3B71097  27.074  19.098   7.050
10025POPC   C4B71098  27.095  19.070   7.350
10026POPC   NC371099  23.673  32.293   5.550
10026POPC   PO471100  23.755  32.250   5.850
10026POPC   GL171101  23.722  32.274   6.150
10026POPC   GL271102  23.735  32.118   6.150
10026POPC   C1A71103  23.746  32.203   6.450
10026POPC   D2A71104  23.747  32.248   6.750
10026POPC   C3A71105  23.685  32.285   7.050
10026POPC   C4A71106  23.693  32.223   7.350
10026POPC   C1B71107  23.793  32.034   6.450
10026POPC   C2B71108  23.790  32.048   6.750
10026POPC   C3B71109  23.827  32.013   7.050
10026POPC   C4B71110  23.795  31.976   7.350
10027POPC   NC371111  38.409  42.302   5.550
10027POPC   PO471112  38.437  42.350   5.850
10027POPC   GL171113  38.426  42.365   6.150
10027POPC   GL271114  38.349  42.360   6.150
10027POPC   C1A71115  38.462  42.315   6.450
10027POPC   D2A71116  38.435  42.315   6.750
10027POPC   C3A71117  38.473  42.373   7.050
10027POPC   C4A71118  38.443  42.319   7.350
10027POPC   C1B71119  38.192  42.325   6.450
10027POPC   C2B71120  38.161  42.245   6.750
10027POPC   C3B71121  38.196  42.295   7.050
10027POPC   C4B71122  38.250  42.332   7.350
10028POPC   NC371123  44.632  34.619   5.550
10028POPC   PO471124  44.638  34.557   5.850
10028POPC   GL171125  44.671  34.566   6.150
10028POPC   GL271126  44.728  34.638   6.150
10028POPC   C1A71127  44.687  34.532   6.450
10028POPC   D2A71128  44.710  34.596   6.750
10028POPC   C3A71129  44.693  34.531   7.050
10028POPC   C4A71130  44.646  34.594   7.350
10028POPC   C1B71131  44.867  34.679   6.450
10028POPC   C2B71132  44.900  34.737   6.750
10028POPC   C3B71133  44.882  34.718   7.050
10028POPC   C4B71134  44.895  34.742   7.350
10029POPC   NC371135  32.210  15.992   5.550
10029POPC   PO471136  32.218  15.986   5.850
10029POPC   GL171137  32.209  15.957   6.150
10029POPC   GL271138  32.280  16.041   6.150
10029POPC   C1A71139  32.209  15.931   6.450
10029POPC   D2A71140  32.269  15.926   6.750
10029POPC   C3A71141  32.252  15.937   7.050
10029POPC   C4A71142  32.295  16.003   7.350
10029POPC   C1B71143  32.403  16.127   6.450
10029POPC   C2B71144  32.391  16.129   6.750
10029POPC   C3B71145  32.405  16.191   7.050
10029POPC   C4B71146  32.347  16.144   7.350
10030POPC   NC371147  21.380  19.045   5.550
10030POPC   PO471148  21.378  19.048   5.850
10030POPC   GL171149  21.402  19.069   6.150
10030POPC   GL271150  21.266  19.062   6.150
10030POPC   C1A71151  21.378  19.075   6.450
10030POPC   D2A71152  21.428  19.016   6.750
10030POPC   C3A71153  21.353  19.011   7.050
10030POPC   C4A71154  21.434  19.025   7.350
10030POPC   C1B71155  21.168  19.031   6.450
10030POPC   C2B71156  21.110  19.077   6.750
10030POPC   C3B71157  21.154  19.010   7.050
10030POPC   C4B71158  21.144  19.064   7.350
10031POPC   NC371159  30.702  19.862   5.550
10031POPC   PO471160  30.733  19.869   5.850
10031POPC   GL171161  30.722  19.810   6.150
10031POPC   GL271162  30.779  19.825   6.150
10031POPC   C1A71163  30.660  19.821   6.450
10031POPC   D2A71164  30.726  19.846   6.750
10031POPC   C3A71165  30.688  19.804   7.050
10031POPC   C4A71166  30.674  19.869   7.350
10031POPC   C1B71167  30.914  19.866   6.450
10031POPC   C2B71168  30.944  19.827   6.750
10031POPC   C3B71169  30.913  19.861   7.050
10031POPC   C4B71170  30.988  19.787   7.350
10032POPC   NC371171  42.358  15.932   5.550
10032POPC   PO471172  42.349  15.996   5.850
10032POPC   GL171173  42.376  15.991   6.150
10032POPC   GL271174  42.300  16.073   6.150
10032POPC   C1A71175  42.322  15.946   6.450
10032POPC   D2A71176  42.329  15.993   6.750
10032POPC   C3A71177  42.332  15.916   7.050
10032POPC   C4A71178  42.288  15.960   7.350
10032POPC   C1B71179  42.226  16.161   6.450
10032POPC   C2B71180  42.183  16.220   6.750
10032POPC   C3B71181  42.206  16.224   7.050
10032POPC   C4B71182  42.188  16.159   7.350
10033POPC   NC371183   8.238  31.449   5.550
10033POPC   PO471184   8.194  31.471   5.850
10033POPC   GL171185   8.245  31.497   6.150
10033POPC   GL271186   8.168  31.326   6.150
10033POPC   C1A71187   8.160  31.487   6.450
10033POPC   D2A71188   8.221  31.444   6.750
10033POPC   C3A71189   8.159  31.506   7.050
10033POPC   C4A71190   8.194  31.451   7.350
10033POPC   C1B71191   8.164  31.244   6.450
10033POPC   C2B71192   8.208  31.246   6.750
10033POPC   C3B71193   8.132  31.229   7.050
10033POPC   C4B71194   8.200  31.212   7.350
10034POPC   NC371195   8.984  25.245   5.550
10034POPC   PO471196   8.940  25.239   5.850
10034POPC   GL171197   9.001  25.247   6.150
10034POPC   GL271198   8.923  25.142   6.150
10034POPC   C1A71199   8.983  25.252   6.450
10034POPC   D2A71200   9.002  25.253   6.750
10034POPC   C3A71201   8.979  25.241   7.050
10034POPC   C4A71202   8.931  25.223   7.350
10034POPC   C1B71203   8.919  25.016   6.450
10034POPC   C2B71204   8.946  25.053   6.750
10034POPC   C3B71205   8.954  24.994   7.050
10034POPC   C4B71206   8.906  25.029   7.350
10035POPC   NC371207   2.029   9.729   5.550
10035POPC   PO471208   1.983   9.749   5.850
10035POPC   GL171209   2.029   9.753   6.150
10035POPC   GL271210   2.140   9.851   6.150
10035POPC   C1A71211   2.034   9.752   6.450
10035POPC   D2A71212   1.991   9.745   6.750
10035POPC   C3A71213   1.961   9.720   7.050
10035POPC   C4A71214   1.943   9.748   7.350
10035POPC   C1B71215   2.198   9.900   6.450
10035POPC   C2B71216   2.189   9.904   6.750
10035POPC   C3B71217   2.168   9.842   7.050
10035POPC   C4B71218   2.170   9.878   7.350
10036POPC   NC371219  20.575  34.580   5.550
10036POPC   PO471220  20.641  34.541   5.850
10036POPC   GL171221  20.577  34.535   6.150
10036POPC   GL271222  20.501  34.730   6.150
10036POPC   C1A71223  20.591  34.622   6.450
10036POPC   D2A71224  20.636  34.565   6.750
10036POPC   C3A71225  20.580  34.560   7.050
10036POPC   C4A71226  20.653  34.553   7.350
10036POPC   C1B71227  20.487  34.804   6.450
10036POPC   C2B71228  20.522  34.769   6.750
10036POPC   C3B71229  20.495  34.828   7.050
10036POPC   C4B71230  20.509  34.771   7.350
10037POPC   NC371231  23.701  40.016   5.550
10037POPC   PO471232  23.683  40.034   5.850
10037POPC   GL171233  23.734  39.994   6.150
10037POPC   GL271234  23.744  39.912   6.150
10037POPC   C1A71235  23.763  40.050   6.450
10037POPC   D2A71236  23.673  40.016   6.750
10037POPC   C3A71237  23.753  40.018   7.050
10037POPC   C4A71238  23.685  40.040   7.350
10037POPC   C1B71239  23.742  39.774   6.450
10037POPC   C2B71240  23.755  39.782   6.750
10037POPC   C3B71241  23.695  39.710   7.050
10037POPC   C4B71242  23.786  39.729   7.350
10038POPC   NC371243   3.568  11.294   5.550
10038POPC   PO471244   3.589  11.319   5.850
10038POPC   GL171245   3.542  11.294   6.150
10038POPC   GL271246   3.505  11.156   6.150
10038POPC   C1A71247   3.503  11.280   6.450
10038POPC   D2A71248   3.546  11.321   6.750
10038POPC   C3A71249   3.576  11.346   7.050
10038POPC   C4A71250   3.535  11.325   7.350
10038POPC   C1B71251   3.378  11.060   6.450
10038POPC   C2B71252   3.349  11.069   6.750
10038POPC   C3B71253   3.423  11.117   7.050
10038POPC   C4B71254   3.412  11.080   7.350
10039POPC   NC371255  29.888  22.149   5.550
10039POPC   PO471256  29.897  22.134   5.850
10039POPC   GL171257  29.950  22.210   6.150
10039POPC   GL271258  30.047  22.227   6.150
10039POPC   C1A71259  29.904  22.160   6.450
10039POPC   D2A71260  29.951  22.150   6.750
10039POPC   C3A71261  29.900  22.125   7.050
10039POPC   C4A71262  29.928  22.124   7.350
10039POPC   C1B71263  30.147  22.241   6.450
10039POPC   C2B71264  30.189  22.198   6.750
10039POPC   C3B71265  30.208  22.230   7.050
10039POPC   C4B71266  30.131  22.230   7.350
10040POPC   NC371267  19.838  18.325   5.550
10040POPC   PO471268  19.805  18.315   5.850
10040POPC   GL171269  19.854  18.277   6.150
10040POPC   GL271270  19.890  18.186   6.150
10040POPC   C1A71271  19.794  18.299   6.450
10040POPC   D2A71272  19.878  18.328   6.750
10040POPC   C3A71273  19.788  18.237   7.050
10040POPC   C4A71274  19.884  18.295   7.350
10040POPC   C1B71275  20.017  18.110   6.450
10040POPC   C2B71276  20.066  18.085   6.750
10040POPC   C3B71277  20.012  18.169   7.050
10040POPC   C4B71278  20.032  18.158   7.350
10041POPC   NC371279  31.455  28.369   5.550
10041POPC   PO471280  31.475  28.339   5.850
10041POPC   GL171281  31.433  28.325   6.150
10041POPC   GL271282  31.562  28.224   6.150
10041POPC   C1A71283  31.436  28.417   6.450
10041POPC   D2A71284  31.483  28.387   6.750
10041POPC   C3A71285  31.488  28.363   7.050
10041POPC   C4A71286  31.434  28.396   7.350
10041POPC   C1B71287  31.577  28.142   6.450
10041POPC   C2B71288  31.565  28.157   6.750
10041POPC   C3B71289  31.568  28.140   7.050
10041POPC   C4B71290  31.532  28.152   7.350
10042POPC   NC371291  33.810  44.665   5.550
10042POPC   PO471292  33.834  44.662   5.850
10042POPC   GL171293  33.754  44.698   6.150
10042POPC   GL271294  33.818  44.589   6.150
10042POPC   C1A71295  33.840  44.695   6.450
10042POPC   D2A71296  33.761  44.665   6.750
10042POPC   C3A71297  33.839  44.614   7.050
10042POPC   C4A71298  33.759  44.697   7.350
10042POPC   C1B71299  33.716  44.448   6.450
10042POPC   C2B71300  33.755  44.404   6.750
10042POPC   C3B71301  33.709  44.428   7.050
10042POPC   C4B71302  33.712  44.416   7.350
10043POPC   NC371303   3.583   8.161   5.550
10043POPC   PO471304   3.499   8.180   5.850
10043POPC   GL171305   3.553   8.185   6.150
10043POPC   GL271306   3.456   8.096   6.150
10043POPC   C1A71307   3.528   8.213   6.450
10043POPC   D2A71308   3.523   8.217   6.750
10043POPC   C3A71309   3.493   8.237   7.050
10043POPC   C4A71310   3.550   8.240   7.350
10043POPC   C1B71311   3.387   7.948   6.450
10043POPC   C2B71312   3.410   8.023   6.750
10043POPC   C3B71313   3.397   8.010   7.050
10043POPC   C4B71314   3.426   7.948   7.350
10044POPC   NC371315  19.019   9.793   5.550
10044POPC   PO471316  19.060   9.698   5.850
10044POPC   GL171317  19.095   9.722   6.150
10044POPC   GL271318  19.140   9.601   6.150
10044POPC   C1A71319  19.009   9.716   6.450
10044POPC   D2A71320  19.038   9.711   6.750
10044POPC   C3A71321  19.085   9.736   7.050
10044POPC   C4A71322  19.099   9.725   7.350
10044POPC   C1B71323  19.162   9.592   6.450
10044POPC   C2B71324  19.156   9.548   6.750
10044POPC   C3B71325  19.208   9.495   7.050
10044POPC   C4B71326  19.232   9.545   7.350
10045POPC   NC371327  29.101   3.518   5.550
10045POPC   PO471328  29.150   3.560   5.850
10045POPC   GL171329  29.111   3.576   6.150
10045POPC   GL271330  29.071   3.643   6.150
10045POPC   C1A71331  29.121   3.547   6.450
10045POPC   D2A71332  29.135   3.494   6.750
10045POPC   C3A71333  29.140   3.576   7.050
10045POPC   C4A71334  29.105   3.509   7.350
10045POPC   C1B71335  28.975   3.754   6.450
10045POPC   C2B71336  29.026   3.714   6.750
10045POPC   C3B71337  28.960   3.744   7.050
10045POPC   C4B71338  28.979   3.726   7.350
10046POPC   NC371339  20.650  15.181   5.550
10046POPC   PO471340  20.612  15.185   5.850
10046POPC   GL171341  20.604  15.188   6.150
10046POPC   GL271342  20.501  15.181   6.150
10046POPC   C1A71343  20.564  15.220   6.450
10046POPC   D2A71344  20.648  15.153   6.750
10046POPC   C3A71345  20.567  15.194   7.050
10046POPC   C4A71346  20.598  15.174   7.350
10046POPC   C1B71347  20.347  15.116   6.450
10046POPC   C2B71348  20.377  15.159   6.750
10046POPC   C3B71349  20.325  15.179   7.050
10046POPC   C4B71350  20.391  15.132   7.350
10047POPC   NC371351   8.244  43.156   5.550
10047POPC   PO471352   8.187  43.099   5.850
10047POPC   GL171353   8.186  43.158   6.150
10047POPC   GL271354   8.104  42.976   6.150
10047POPC   C1A71355   8.191  43.069   6.450
10047POPC   D2A71356   8.203  43.079   6.750
10047POPC   C3A71357   8.170  43.062   7.050
10047POPC   C4A71358   8.166  43.089   7.350
10047POPC   C1B71359   8.100  42.894   6.450
10047POPC   C2B71360   8.077  42.934   6.750
10047POPC   C3B71361   8.081  42.903   7.050
10047POPC   C4B71362   8.097  42.876   7.350
10048POPC   NC371363   0.431  22.209   5.550
10048POPC   PO471364   0.408  22.155   5.850
10048POPC   GL171365   0.398  22.132   6.150
10048POPC   GL271366   0.314  22.238   6.150
10048POPC   C1A71367   0.422  22.137   6.450
10048POPC   D2A71368   0.487  22.113   6.750
10048POPC   C3A71369   0.404  22.126   7.050
10048POPC   C4A71370   0.401  22.165   7.350
10048POPC   C1B71371   0.203  22.241   6.450
10048POPC   C2B71372   0.175  22.240   6.750
10048POPC   C3B71373   0.183  22.223   7.050
10048POPC   C4B71374   0.198  22.264   7.350
10049POPC   NC371375  38.407   0.481   5.550
10049POPC   PO471376  38.498   0.483   5.850
10049POPC   GL171377  38.425   0.465   6.150
10049POPC   GL271378  38.344   0.377   6.150
10049POPC   C1A71379  38.475   0.411   6.450
10049POPC   D2A71380  38.407   0.459   6.750
10049POPC   C3A71381  38.445   0.441   7.050
10049POPC   C4A71382  38.494   0.450   7.350
10049POPC   C1B71383  38.358   0.238   6.450
10049POPC   C2B71384  38.347   0.264   6.750
10049POPC   C3B71385  38.326   0.268   7.050
10049POPC   C4B71386  38.295   0.236   7.350
10050POPC   NC371387  36.145  20.617   5.550
10050POPC   PO471388  36.149  20.589   5.850
10050POPC   GL171389  36.116  20.593   6.150
10050POPC   GL271390  36.079  20.690   6.150
10050POPC   C1A71391  36.161  20.655   6.450
10050POPC   D2A71392  36.174  20.616   6.750
10050POPC   C3A71393  36.145  20.594   7.050
10050POPC   C4A71394  36.126  20.610   7.350
10050POPC   C1B71395  36.011  20.801   6.450
10050POPC   C2B71396  35.952  20.779   6.750
10050POPC   C3B71397  35.999  20.869   7.050
10050POPC   C4B71398  36.009  20.809   7.350
10051POPC   NC371399  29.916  19.051   5.550
10051POPC   PO471400  29.892  19.072   5.850
10051POPC   GL171401  29.915  19.045   6.150
10051POPC   GL271402  29.836  19.216   6.150
10051POPC   C1A71403  29.896  19.045   6.450
10051POPC   D2A71404  29.933  19.107   6.750
10051POPC   C3A71405  29.921  19.078   7.050
10051POPC   C4A71406  29.946  19.100   7.350
10051POPC   C1B71407  29.850  19.304   6.450
10051POPC   C2B71408  29.765  19.254   6.750
10051POPC   C3B71409  29.807  19.236   7.050
10051POPC   C4B71410  29.801  19.308   7.350
10052POPC   NC371411  44.686   5.110   5.550
10052POPC   PO471412  44.708   5.131   5.850
10052POPC   GL171413  44.688   5.123   6.150
10052POPC   GL271414  44.560   5.169   6.150
10052POPC   C1A71415  44.665   5.107   6.450
10052POPC   D2A71416  44.662   5.052   6.750
10052POPC   C3A71417  44.656   5.122   7.050
10052POPC   C4A71418  44.632   5.133   7.350
10052POPC   C1B71419  44.444   5.101   6.450
10052POPC   C2B71420  44.438   5.127   6.750
10052POPC   C3B71421  44.418   5.184   7.050
10052POPC   C4B71422  44.412   5.159   7.350
10053POPC   NC371423   6.615   7.433   5.550
10053POPC   PO471424   6.640   7.463   5.850
10053POPC   GL171425   6.628   7.465   6.150
10053POPC   GL271426   6.524   7.528   6.150
10053POPC   C1A71427   6.598   7.449   6.450
10053POPC   D2A71428   6.624   7.395   6.750
10053POPC   C3A71429   6.660   7.393   7.050
10053POPC   C4A71430   6.651   7.413   7.350
10053POPC   C1B71431   6.454   7.586   6.450
10053POPC   C2B71432   6.510   7.584   6.750
10053POPC   C3B71433   6.476   7.622   7.050
10053POPC   C4B71434   6.482   7.628   7.350
10054POPC   NC371435  17.481  19.028   5.550
10054POPC   PO471436  17.473  19.043   5.850
10054POPC   GL171437  17.487  19.081   6.150
10054POPC   GL271438  17.622  19.137   6.150
10054POPC   C1A71439  17.499  19.058   6.450
10054POPC   D2A71440  17.525  19.106   6.750
10054POPC   C3A71441  17.479  19.030   7.050
10054POPC   C4A71442  17.536  19.021   7.350
10054POPC   C1B71443  17.769  19.184   6.450
10054POPC   C2B71444  17.697  19.221   6.750
10054POPC   C3B71445  17.712  19.199   7.050
10054POPC   C4B71446  17.746  19.142   7.350
10055POPC   NC371447  17.535  12.040   5.550
10055POPC   PO471448  17.471  12.052   5.850
10055POPC   GL171449  17.487  12.117   6.150
10055POPC   GL271450  17.434  12.138   6.150
10055POPC   C1A71451  17.485  12.026   6.450
10055POPC   D2A71452  17.524  12.056   6.750
10055POPC   C3A71453  17.502  12.115   7.050
10055POPC   C4A71454  17.553  12.057   7.350
10055POPC   C1B71455  17.297  12.171   6.450
10055POPC   C2B71456  17.267  12.167   6.750
10055POPC   C3B71457  17.262  12.194   7.050
10055POPC   C4B71458  17.311  12.116   7.350
10056POPC   NC371459   7.442  26.085   5.550
10056POPC   PO471460   7.444  26.061   5.850
10056POPC   GL171461   7.447  26.053   6.150
10056POPC   GL271462   7.329  26.016   6.150
10056POPC   C1A71463   7.469  26.063   6.450
10056POPC   D2A71464   7.467  26.086   6.750
10056POPC   C3A71465   7.395  26.077   7.050
10056POPC   C4A71466   7.394  26.021   7.350
10056POPC   C1B71467   7.179  26.073   6.450
10056POPC   C2B71468   7.135  26.104   6.750
10056POPC   C3B71469   7.129  26.128   7.050
10056POPC   C4B71470   7.191  26.133   7.350
10057POPC   NC371471   6.687  34.574   5.550
10057POPC   PO471472   6.671  34.586   5.850
10057POPC   GL171473   6.653  34.622   6.150
10057POPC   GL271474   6.749  34.620   6.150
10057POPC   C1A71475   6.658  34.564   6.450
10057POPC   D2A71476   6.651  34.579   6.750
10057POPC   C3A71477   6.690  34.536   7.050
10057POPC   C4A71478   6.634  34.582   7.350
10057POPC   C1B71479   6.838  34.769   6.450
10057POPC   C2B71480   6.839  34.783   6.750
10057POPC   C3B71481   6.822  34.732   7.050
10057POPC   C4B71482   6.786  34.690   7.350
10058POPC   NC371483  26.846  29.184   5.550
10058POPC   PO471484  26.773  29.190   5.850
10058POPC   GL171485  26.866  29.113   6.150
10058POPC   GL271486  26.764  29.097   6.150
10058POPC   C1A71487  26.769  29.140   6.450
10058POPC   D2A71488  26.769  29.123   6.750
10058POPC   C3A71489  26.769  29.155   7.050
10058POPC   C4A71490  26.801  29.102   7.350
10058POPC   C1B71491  26.636  28.987   6.450
10058POPC   C2B71492  26.573  28.989   6.750
10058POPC   C3B71493  26.623  28.980   7.050
10058POPC   C4B71494  26.620  29.022   7.350
10059POPC   NC371495  33.784  43.078   5.550
10059POPC   PO471496  33.842  43.146   5.850
10059POPC   GL171497  33.791  43.098   6.150
10059POPC   GL271498  33.880  43.080   6.150
10059POPC   C1A71499  33.820  43.147   6.450
10059POPC   D2A71500  33.793  43.125   6.750
10059POPC   C3A71501  33.759  43.087   7.050
10059POPC   C4A71502  33.760  43.076   7.350
10059POPC   C1B71503  33.987  43.013   6.450
10059POPC   C2B71504  33.971  42.945   6.750
10059POPC   C3B71505  34.024  42.965   7.050
10059POPC   C4B71506  33.985  42.984   7.350
10060POPC   NC371507  16.693   7.444   5.550
10060POPC   PO471508  16.774   7.387   5.850
10060POPC   GL171509  16.712   7.372   6.150
10060POPC   GL271510  16.611   7.378   6.150
10060POPC   C1A71511  16.755   7.407   6.450
10060POPC   D2A71512  16.682   7.461   6.750
10060POPC   C3A71513  16.752   7.417   7.050
10060POPC   C4A71514  16.761   7.419   7.350
10060POPC   C1B71515  16.448   7.379   6.450
10060POPC   C2B71516  16.448   7.426   6.750
10060POPC   C3B71517  16.471   7.406   7.050
10060POPC   C4B71518  16.452   7.376   7.350
10061POPC   NC371519   6.681  44.668   5.550
10061POPC   PO471520   6.680  44.676   5.850
10061POPC   GL171521   6.614  44.634   6.150
10061POPC   GL271522   6.720  44.710   6.150
10061POPC   C1A71523   6.660  44.677   6.450
10061POPC   D2A71524   6.596  44.620   6.750
10061POPC   C3A71525   6.635  44.620   7.050
10061POPC   C4A71526   6.645  44.706   7.350
10061POPC   C1B71527   6.830  44.823   6.450
10061POPC   C2B71528   6.889  44.804   6.750
10061POPC   C3B71529   6.878  44.827   7.050
10061POPC   C4B71530   6.873  44.763   7.350
10062POPC   NC371531  40.743  43.086   5.550
10062POPC   PO471532  40.781  43.084   5.850
10062POPC   GL171533  40.775  43.112   6.150
10062POPC   GL271534  40.627  43.146   6.150
10062POPC   C1A71535  40.749  43.079   6.450
10062POPC   D2A71536  40.800  43.141   6.750
10062POPC   C3A71537  40.817  43.064   7.050
10062POPC   C4A71538  40.783  43.063   7.350
10062POPC   C1B71539  40.524  43.174   6.450
10062POPC   C2B71540  40.533  43.167   6.750
10062POPC   C3B71541  40.545  43.252   7.050
10062POPC   C4B71542  40.583  43.244   7.350
10063POPC   NC371543  23.671   0.481   5.550
10063POPC   PO471544  23.752   0.467   5.850
10063POPC   GL171545  23.673   0.464   6.150
10063POPC   GL271546  23.596   0.338   6.150
10063POPC   C1A71547  23.736   0.430   6.450
10063POPC   D2A71548  23.743   0.478   6.750
10063POPC   C3A71549  23.763   0.416   7.050
10063POPC   C4A71550  23.702   0.468   7.350
10063POPC   C1B71551  23.513   0.292   6.450
10063POPC   C2B71552  23.495   0.362   6.750
10063POPC   C3B71553  23.483   0.298   7.050
10063POPC   C4B71554  23.492   0.329   7.350
10064POPC   NC371555  13.612  42.307   5.550
10064POPC   PO471556  13.663  42.372   5.850
10064POPC   GL171557  13.619  42.363   6.150
10064POPC   GL271558  13.617  42.483   6.150
10064POPC   C1A71559  13.669  42.361   6.450
10064POPC   D2A71560  13.656  42.374   6.750
10064POPC   C3A71561  13.656  42.285   7.050
10064POPC   C4A71562  13.665  42.307   7.350
10064POPC   C1B71563  13.578  42.527   6.450
10064POPC   C2B71564  13.550  42.572   6.750
10064POPC   C3B71565  13.557  42.583   7.050
10064POPC   C4B71566  13.491  42.579   7.350
10065POPC   NC371567  36.858  40.790   5.550
10065POPC   PO471568  36.938  40.738   5.850
10065POPC   GL171569  36.896  40.773   6.150
10065POPC   GL271570  37.022  40.703   6.150
10065POPC   C1A71571  36.862  40.791   6.450
10065POPC   D2A71572  36.948  40.827   6.750
10065POPC   C3A71573  36.953  40.819   7.050
10065POPC   C4A71574  36.918  40.738   7.350
10065POPC   C1B71575  37.064  40.600   6.450
10065POPC   C2B71576  37.121  40.607   6.750
10065POPC   C3B71577  37.117  40.647   7.050
10065POPC   C4B71578  37.111  40.676   7.350
10066POPC   NC371579  34.622  37.694   5.550
10066POPC   PO471580  34.577  37.728   5.850
10066POPC   GL171581  34.610  37.702   6.150
10066POPC   GL271582  34.406  37.721   6.150
10066POPC   C1A71583  34.601  37.670   6.450
10066POPC   D2A71584  34.540  37.686   6.750
10066POPC   C3A71585  34.617  37.694   7.050
10066POPC   C4A71586  34.599  37.695   7.350
10066POPC   C1B71587  34.353  37.700   6.450
10066POPC   C2B71588  34.347  37.653   6.750
10066POPC   C3B71589  34.313  37.729   7.050
10066POPC   C4B71590  34.343  37.749   7.350
10067POPC   NC371591  16.754  33.791   5.550
10067POPC   PO471592  16.710  33.774   5.850
10067POPC   GL171593  16.725  33.764   6.150
10067POPC   GL271594  16.775  33.935   6.150
10067POPC   C1A71595  16.704  33.759   6.450
10067POPC   D2A71596  16.688  33.834   6.750
10067POPC   C3A71597  16.776  33.814   7.050
10067POPC   C4A71598  16.758  33.838   7.350
10067POPC   C1B71599  16.742  34.092   6.450
10067POPC   C2B71600  16.682  34.069   6.750
10067POPC   C3B71601  16.700  34.053   7.050
10067POPC   C4B71602  16.739  34.066   7.350
10068POPC   NC371603  20.567  10.548   5.550
10068POPC   PO471604  20.562  10.543   5.850
10068POPC   GL171605  20.605  10.573   6.150
10068POPC   GL271606  20.662  10.642   6.150
10068POPC   C1A71607  20.561  10.563   6.450
10068POPC   D2A71608  20.652  10.517   6.750
10068POPC   C3A71609  20.613  10.543   7.050
10068POPC   C4A71610  20.628  10.494   7.350
10068POPC   C1B71611  20.742  10.720   6.450
10068POPC   C2B71612  20.721  10.738   6.750
10068POPC   C3B71613  20.756  10.756   7.050
10068POPC   C4B71614  20.707  10.755   7.350
10069POPC   NC371615  15.192  29.127   5.550
10069POPC   PO471616  15.149  29.110   5.850
10069POPC   GL171617  15.220  29.104   6.150
10069POPC   GL271618  15.086  29.077   6.150
10069POPC   C1A71619  15.218  29.147   6.450
10069POPC   D2A71620  15.178  29.160   6.750
10069POPC   C3A71621  15.182  29.103   7.050
10069POPC   C4A71622  15.144  29.126   7.350
10069POPC   C1B71623  15.080  28.954   6.450
10069POPC   C2B71624  15.050  28.964   6.750
10069POPC   C3B71625  15.070  28.909   7.050
10069POPC   C4B71626  15.026  28.929   7.350
10070POPC   NC371627  39.265  19.073   5.550
10070POPC   PO471628  39.189  19.088   5.850
10070POPC   GL171629  39.230  19.013   6.150
10070POPC   GL271630  39.115  19.115   6.150
10070POPC   C1A71631  39.201  19.056   6.450
10070POPC   D2A71632  39.201  19.062   6.750
10070POPC   C3A71633  39.259  19.018   7.050
10070POPC   C4A71634  39.249  19.039   7.350
10070POPC   C1B71635  39.045  19.191   6.450
10070POPC   C2B71636  39.038  19.192   6.750
10070POPC   C3B71637  39.032  19.243   7.050
10070POPC   C4B71638  39.042  19.273   7.350
10071POPC   NC371639  19.809  12.894   5.550
10071POPC   PO471640  19.788  12.883   5.850
10071POPC   GL171641  19.856  12.888   6.150
10071POPC   GL271642  19.736  12.928   6.150
10071POPC   C1A71643  19.856  12.857   6.450
10071POPC   D2A71644  19.855  12.822   6.750
10071POPC   C3A71645  19.804  12.852   7.050
10071POPC   C4A71646  19.824  12.860   7.350
10071POPC   C1B71647  19.667  13.034   6.450
10071POPC   C2B71648  19.631  12.988   6.750
10071POPC   C3B71649  19.600  12.963   7.050
10071POPC   C4B71650  19.594  13.035   7.350
10072POPC   NC371651  43.888  13.643   5.550
10072POPC   PO471652  43.924  13.584   5.850
10072POPC   GL171653  43.841  13.637   6.150
10072POPC   GL271654  43.822  13.532   6.150
10072POPC   C1A71655  43.890  13.586   6.450
10072POPC   D2A71656  43.919  13.644   6.750
10072POPC   C3A71657  43.844  13.667   7.050
10072POPC   C4A71658  43.910  13.664   7.350
10072POPC   C1B71659  43.804  13.440   6.450
10072POPC   C2B71660  43.753  13.433   6.750
10072POPC   C3B71661  43.814  13.415   7.050
10072POPC   C4B71662  43.758  13.369   7.350
10073POPC   NC371663  40.019  23.710   5.550
10073POPC   PO471664  39.975  23.667   5.850
10073POPC   GL171665  40.053  23.738   6.150
10073POPC   GL271666  40.135  23.792   6.150
10073POPC   C1A71667  39.996  23.668   6.450
10073POPC   D2A71668  40.005  23.669   6.750
10073POPC   C3A71669  39.990  23.727   7.050
10073POPC   C4A71670  40.038  23.759   7.350
10073POPC   C1B71671  40.252  23.817   6.450
10073POPC   C2B71672  40.241  23.761   6.750
10073POPC   C3B71673  40.216  23.801   7.050
10073POPC   C4B71674  40.257  23.789   7.350
10074POPC   NC371675  39.242  19.789   5.550
10074POPC   PO471676  39.185  19.879   5.850
10074POPC   GL171677  39.279  19.846   6.150
10074POPC   GL271678  39.072  19.820   6.150
10074POPC   C1A71679  39.195  19.818   6.450
10074POPC   D2A71680  39.279  19.859   6.750
10074POPC   C3A71681  39.215  19.853   7.050
10074POPC   C4A71682  39.228  19.808   7.350
10074POPC   C1B71683  38.945  19.764   6.450
10074POPC   C2B71684  39.016  19.838   6.750
10074POPC   C3B71685  38.937  19.773   7.050
10074POPC   C4B71686  38.998  19.825   7.350
10075POPC   NC371687   9.728   6.607   5.550
10075POPC   PO471688   9.700   6.653   5.850
10075POPC   GL171689   9.723   6.679   6.150
10075POPC   GL271690   9.793   6.523   6.150
10075POPC   C1A71691   9.709   6.660   6.450
10075POPC   D2A71692   9.711   6.632   6.750
10075POPC   C3A71693   9.766   6.678   7.050
10075POPC   C4A71694   9.785   6.651   7.350
10075POPC   C1B71695   9.878   6.384   6.450
10075POPC   C2B71696   9.811   6.407   6.750
10075POPC   C3B71697   9.817   6.390   7.050
10075POPC   C4B71698   9.848   6.442   7.350
10076POPC   NC371699  31.489  26.856   5.550
10076POPC   PO471700  31.517  26.821   5.850
10076POPC   GL171701  31.503  26.827   6.150
10076POPC   GL271702  31.509  26.919   6.150
10076POPC   C1A71703  31.471  26.865   6.450
10076POPC   D2A71704  31.519  26.776   6.750
10076POPC   C3A71705  31.486  26.853   7.050
10076POPC   C4A71706  31.473  26.864   7.350
10076POPC   C1B71707  31.608  27.068   6.450
10076POPC   C2B71708  31.599  27.049   6.750
10076POPC   C3B71709  31.633  27.004   7.050
10076POPC   C4B71710  31.622  26.985   7.350
10077POPC   NC371711  13.624  18.297   5.550
10077POPC   PO471712  13.669  18.327   5.850
10077POPC   GL171713  13.588  18.241   6.150
10077POPC   GL271714  13.540  18.253   6.150
10077POPC   C1A71715  13.622  18.247   6.450
10077POPC   D2A71716  13.605  18.324   6.750
10077POPC   C3A71717  13.636  18.242   7.050
10077POPC   C4A71718  13.616  18.237   7.350
10077POPC   C1B71719  13.408  18.231   6.450
10077POPC   C2B71720  13.371  18.264   6.750
10077POPC   C3B71721  13.405  18.257   7.050
10077POPC   C4B71722  13.416  18.270   7.350
10078POPC   NC371723  21.376   2.729   5.550
10078POPC   PO471724  21.344   2.779   5.850
10078POPC   GL171725  21.336   2.754   6.150
10078POPC   GL271726  21.473   2.691   6.150
10078POPC   C1A71727  21.352   2.796   6.450
10078POPC   D2A71728  21.436   2.778   6.750
10078POPC   C3A71729  21.382   2.720   7.050
10078POPC   C4A71730  21.367   2.785   7.350
10078POPC   C1B71731  21.567   2.526   6.450
10078POPC   C2B71732  21.518   2.561   6.750
10078POPC   C3B71733  21.538   2.555   7.050
10078POPC   C4B71734  21.494   2.592   7.350
10079POPC   NC371735  16.005  19.854   5.550
10079POPC   PO471736  15.938  19.882   5.850
10079POPC   GL171737  15.941  19.845   6.150
10079POPC   GL271738  16.032  19.847   6.150
10079POPC   C1A71739  15.991  19.803   6.450
10079POPC   D2A71740  15.941  19.840   6.750
10079POPC   C3A71741  15.917  19.792   7.050
10079POPC   C4A71742  15.988  19.817   7.350
10079POPC   C1B71743  16.156  19.784   6.450
10079POPC   C2B71744  16.207  19.824   6.750
10079POPC   C3B71745  16.157  19.778   7.050
10079POPC   C4B71746  16.161  19.778   7.350
10080POPC   NC371747  11.287  23.703   5.550
10080POPC   PO471748  11.303  23.750   5.850
10080POPC   GL171749  11.272  23.733   6.150
10080POPC   GL271750  11.312  23.544   6.150
10080POPC   C1A71751  11.301  23.709   6.450
10080POPC   D2A71752  11.317  23.761   6.750
10080POPC   C3A71753  11.294  23.753   7.050
10080POPC   C4A71754  11.295  23.667   7.350
10080POPC   C1B71755  11.341  23.440   6.450
10080POPC   C2B71756  11.344  23.469   6.750
10080POPC   C3B71757  11.340  23.508   7.050
10080POPC   C4B71758  11.278  23.427   7.350
10081POPC   NC371759  25.996   5.869   5.550
10081POPC   PO471760  26.038   5.865   5.850
10081POPC   GL171761  26.046   5.821   6.150
10081POPC   GL271762  25.895   5.826   6.150
10081POPC   C1A71763  26.058   5.886   6.450
10081POPC   D2A71764  26.017   5.861   6.750
10081POPC   C3A71765  26.058   5.868   7.050
10081POPC   C4A71766  26.035   5.879   7.350
10081POPC   C1B71767  25.781   5.913   6.450
10081POPC   C2B71768  25.792   5.822   6.750
10081POPC   C3B71769  25.743   5.876   7.050
10081POPC   C4B71770  25.766   5.883   7.350
10082POPC   NC371771   7.418  25.256   5.550
10082POPC   PO471772   7.426  25.310   5.850
10082POPC   GL171773   7.424  25.226   6.150
10082POPC   GL271774   7.341  25.143   6.150
10082POPC   C1A71775   7.443  25.304   6.450
10082POPC   D2A71776   7.408  25.298   6.750
10082POPC   C3A71777   7.385  25.298   7.050
10082POPC   C4A71778   7.454  25.288   7.350
10082POPC   C1B71779   7.277  25.064   6.450
10082POPC   C2B71780   7.239  25.147   6.750
10082POPC   C3B71781   7.252  25.109   7.050
10082POPC   C4B71782   7.215  25.128   7.350
10083POPC   NC371783  26.852   3.503   5.550
10083POPC   PO471784  26.815   3.504   5.850
10083POPC   GL171785  26.852   3.531   6.150
10083POPC   GL271786  26.674   3.587   6.150
10083POPC   C1A71787  26.858   3.502   6.450
10083POPC   D2A71788  26.788   3.556   6.750
10083POPC   C3A71789  26.803   3.572   7.050
10083POPC   C4A71790  26.843   3.560   7.350
10083POPC   C1B71791  26.605   3.732   6.450
10083POPC   C2B71792  26.602   3.722   6.750
10083POPC   C3B71793  26.629   3.659   7.050
10083POPC   C4B71794  26.606   3.685   7.350
10084POPC   NC371795  13.622  17.478   5.550
10084POPC   PO471796  13.598  17.531   5.850
10084POPC   GL171797  13.619  17.534   6.150
10084POPC   GL271798  13.503  17.503   6.150
10084POPC   C1A71799  13.593  17.525   6.450
10084POPC   D2A71800  13.601  17.495   6.750
10084POPC   C3A71801  13.609  17.494   7.050
10084POPC   C4A71802  13.633  17.551   7.350
10084POPC   C1B71803  13.384  17.563   6.450
10084POPC   C2B71804  13.373  17.527   6.750
10084POPC   C3B71805  13.427  17.601   7.050
10084POPC   C4B71806  13.368  17.534   7.350
10085POPC   NC371807  26.859  29.921   5.550
10085POPC   PO471808  26.866  29.905   5.850
10085POPC   GL171809  26.815  29.900   6.150
10085POPC   GL271810  26.750  29.933   6.150
10085POPC   C1A71811  26.781  29.969   6.450
10085POPC   D2A71812  26.819  29.906   6.750
10085POPC   C3A71813  26.850  29.918   7.050
10085POPC   C4A71814  26.805  29.923   7.350
10085POPC   C1B71815  26.611  30.081   6.450
10085POPC   C2B71816  26.592  30.066   6.750
10085POPC   C3B71817  26.584  30.001   7.050
10085POPC   C4B71818  26.554  30.018   7.350
10086POPC   NC371819  44.638  16.695   5.550
10086POPC   PO471820  44.639  16.762   5.850
10086POPC   GL171821  44.684  16.718   6.150
10086POPC   GL271822  44.574  16.848   6.150
10086POPC   C1A71823  44.672  16.736   6.450
10086POPC   D2A71824  44.647  16.752   6.750
10086POPC   C3A71825  44.613  16.776   7.050
10086POPC   C4A71826  44.661  16.761   7.350
10086POPC   C1B71827  44.413  16.875   6.450
10086POPC   C2B71828  44.455  16.877   6.750
10086POPC   C3B71829  44.417  16.917   7.050
10086POPC   C4B71830  44.473  16.839   7.350
10087POPC   NC371831  31.519  16.698   5.550
10087POPC   PO471832  31.436  16.715   5.850
10087POPC   GL171833  31.465  16.755   6.150
10087POPC   GL271834  31.612  16.701   6.150
10087POPC   C1A71835  31.458  16.711   6.450
10087POPC   D2A71836  31.457  16.689   6.750
10087POPC   C3A71837  31.460  16.768   7.050
10087POPC   C4A71838  31.508  16.780   7.350
10087POPC   C1B71839  31.706  16.663   6.450
10087POPC   C2B71840  31.695  16.674   6.750
10087POPC   C3B71841  31.762  16.667   7.050
10087POPC   C4B71842  31.757  16.695   7.350
10088POPC   NC371843  16.705  19.809   5.550
10088POPC   PO471844  16.744  19.876   5.850
10088POPC   GL171845  16.762  19.820   6.150
10088POPC   GL271846  16.818  19.702   6.150
10088POPC   C1A71847  16.694  19.846   6.450
10088POPC   D2A71848  16.708  19.837   6.750
10088POPC   C3A71849  16.709  19.866   7.050
10088POPC   C4A71850  16.733  19.791   7.350
10088POPC   C1B71851  16.902  19.613   6.450
10088POPC   C2B71852  16.857  19.665   6.750
10088POPC   C3B71853  16.859  19.645   7.050
10088POPC   C4B71854  16.898  19.598   7.350
10089POPC   NC371855  42.321   9.793   5.550
10089POPC   PO471856  42.364   9.710   5.850
10089POPC   GL171857  42.321   9.760   6.150
10089POPC   GL271858  42.449   9.805   6.150
10089POPC   C1A71859  42.317   9.711   6.450
10089POPC   D2A71860  42.292   9.702   6.750
10089POPC   C3A71861  42.330   9.759   7.050
10089POPC   C4A71862  42.355   9.781   7.350
10089POPC   C1B71863  42.569   9.896   6.450
10089POPC   C2B71864  42.514   9.932   6.750
10089POPC   C3B71865  42.568   9.909   7.050
10089POPC   C4B71866  42.541   9.887   7.350
10090POPC   NC371867  20.633   1.213   5.550
10090POPC   PO471868  20.596   1.180   5.850
10090POPC   GL171869  20.598   1.250   6.150
10090POPC   GL271870  20.659   1.135   6.150
10090POPC   C1A71871  20.649   1.167   6.450
10090POPC   D2A71872  20.624   1.223   6.750
10090POPC   C3A71873  20.597   1.208   7.050
10090POPC   C4A71874  20.659   1.179   7.350
10090POPC   C1B71875  20.722   0.961   6.450
10090POPC   C2B71876  20.676   0.931   6.750
10090POPC   C3B71877  20.664   0.936   7.050
10090POPC   C4B71878  20.732   0.982   7.350
10091POPC   NC371879  40.813  25.234   5.550
10091POPC   PO471880  40.788  25.249   5.850
10091POPC   GL171881  40.781  25.220   6.150
10091POPC   GL271882  40.921  25.302   6.150
10091POPC   C1A71883  40.793  25.245   6.450
10091POPC   D2A71884  40.751  25.289   6.750
10091POPC   C3A71885  40.757  25.219   7.050
10091POPC   C4A71886  40.767  25.228   7.350
10091POPC   C1B71887  41.048  25.317   6.450
10091POPC   C2B71888  41.012  25.304   6.750
10091POPC   C3B71889  41.029  25.374   7.050
10091POPC   C4B71890  41.016  25.332   7.350
10092POPC   NC371891  29.155  37.657   5.550
10092POPC   PO471892  29.121  37.634   5.850
10092POPC   GL171893  29.095  37.672   6.150
10092POPC   GL271894  29.000  37.702   6.150
10092POPC   C1A71895  29.132  37.647   6.450
10092POPC   D2A71896  29.177  37.639   6.750
10092POPC   C3A71897  29.103  37.663   7.050
10092POPC   C4A71898  29.106  37.670   7.350
10092POPC   C1B71899  28.896  37.753   6.450
10092POPC   C2B71900  28.955  37.742   6.750
10092POPC   C3B71901  28.961  37.812   7.050
10092POPC   C4B71902  28.951  37.791   7.350
10093POPC   NC371903  36.915  19.068   5.550
10093POPC   PO471904  36.894  19.095   5.850
10093POPC   GL171905  36.900  19.018   6.150
10093POPC   GL271906  36.925  19.222   6.150
10093POPC   C1A71907  36.870  19.073   6.450
10093POPC   D2A71908  36.928  19.099   6.750
10093POPC   C3A71909  36.910  19.010   7.050
10093POPC   C4A71910  36.922  19.025   7.350
10093POPC   C1B71911  36.999  19.301   6.450
10093POPC   C2B71912  36.925  19.292   6.750
10093POPC   C3B71913  36.925  19.310   7.050
10093POPC   C4B71914  36.948  19.285   7.350
10094POPC   NC371915   8.933   7.421   5.550
10094POPC   PO471916   9.018   7.373   5.850
10094POPC   GL171917   8.992   7.383   6.150
10094POPC   GL271918   8.825   7.337   6.150
10094POPC   C1A71919   8.954   7.393   6.450
10094POPC   D2A71920   8.955   7.441   6.750
10094POPC   C3A71921   9.014   7.425   7.050
10094POPC   C4A71922   8.929   7.406   7.350
10094POPC   C1B71923   8.790   7.274   6.450
10094POPC   C2B71924   8.796   7.282   6.750
10094POPC   C3B71925   8.736   7.341   7.050
10094POPC   C4B71926   8.770   7.286   7.350
10095POPC   NC371927  35.377   4.287   5.550
10095POPC   PO471928  35.358   4.288   5.850
10095POPC   GL171929  35.316   4.269   6.150
10095POPC   GL271930  35.283   4.471   6.150
10095POPC   C1A71931  35.360   4.363   6.450
10095POPC   D2A71932  35.393   4.292   6.750
10095POPC   C3A71933  35.349   4.271   7.050
10095POPC   C4A71934  35.367   4.300   7.350
10095POPC   C1B71935  35.266   4.613   6.450
10095POPC   C2B71936  35.320   4.602   6.750
10095POPC   C3B71937  35.341   4.543   7.050
10095POPC   C4B71938  35.295   4.537   7.350
10096POPC   NC371939  28.325   6.668   5.550
10096POPC   PO471940  28.333   6.668   5.850
10096POPC   GL171941  28.321   6.667   6.150
10096POPC   GL271942  28.400   6.787   6.150
10096POPC   C1A71943  28.389   6.676   6.450
10096POPC   D2A71944  28.324   6.638   6.750
10096POPC   C3A71945  28.335   6.626   7.050
10096POPC   C4A71946  28.394   6.621   7.350
10096POPC   C1B71947  28.430   6.856   6.450
10096POPC   C2B71948  28.394   6.881   6.750
10096POPC   C3B71949  28.372   6.853   7.050
10096POPC   C4B71950  28.430   6.861   7.350
10097POPC   NC371951  21.424  18.265   5.550
10097POPC   PO471952  21.390  18.294   5.850
10097POPC   GL171953  21.400  18.323   6.150
10097POPC   GL271954  21.379  18.411   6.150
10097POPC   C1A71955  21.435  18.277   6.450
10097POPC   D2A71956  21.343  18.269   6.750
10097POPC   C3A71957  21.389  18.311   7.050
10097POPC   C4A71958  21.347  18.301   7.350
10097POPC   C1B71959  21.402  18.489   6.450
10097POPC   C2B71960  21.435  18.489   6.750
10097POPC   C3B71961  21.484  18.559   7.050
10097POPC   C4B71962  21.449  18.525   7.350
10098POPC   NC371963   4.286  15.149   5.550
10098POPC   PO471964   4.279  15.228   5.850
10098POPC   GL171965   4.351  15.152   6.150
10098POPC   GL271966   4.234  15.228   6.150
10098POPC   C1A71967   4.297  15.190   6.450
10098POPC   D2A71968   4.311  15.198   6.750
10098POPC   C3A71969   4.297  15.173   7.050
10098POPC   C4A71970   4.316  15.138   7.350
10098POPC   C1B71971   4.144  15.377   6.450
10098POPC   C2B71972   4.149  15.308   6.750
10098POPC   C3B71973   4.094  15.391   7.050
10098POPC   C4B71974   4.144  15.356   7.350
10099POPC   NC371975  17.556   8.199   5.550
10099POPC   PO471976  17.481   8.239   5.850
10099POPC   GL171977  17.532   8.243   6.150
10099POPC   GL271978  17.593   8.049   6.150
10099POPC   C1A71979  17.495   8.178   6.450
10099POPC   D2A71980  17.490   8.165   6.750
10099POPC   C3A71981  17.549   8.230   7.050
10099POPC   C4A71982  17.485   8.153   7.350
10099POPC   C1B71983  17.636   7.952   6.450
10099POPC   C2B71984  17.605   8.025   6.750
10099POPC   C3B71985  17.638   7.954   7.050
10099POPC   C4B71986  17.632   8.015   7.350
10100POPC   NC371987  38.406  13.606   5.550
10100POPC   PO471988  38.424  13.675   5.850
10100POPC   GL171989  38.483  13.669   6.150
10100POPC   GL271990  38.338  13.587   6.150
10100POPC   C1A71991  38.422  13.581   6.450
10100POPC   D2A71992  38.453  13.676   6.750
10100POPC   C3A71993  38.412  13.643   7.050
10100POPC   C4A71994  38.431  13.584   7.350
10100POPC   C1B71995  38.198  13.655   6.450
10100POPC   C2B71996  38.219  13.623   6.750
10100POPC   C3B71997  38.229  13.611   7.050
10100POPC   C4B71998  38.203  13.647   7.350
10101POPC   NC371999  22.115  33.774   5.550
10101POPC   PO472000  22.201  33.768   5.850
10101POPC   GL172001  22.127  33.784   6.150
10101POPC   GL272002  22.207  33.965   6.150
10101POPC   C1A72003  22.197  33.784   6.450
10101POPC   D2A72004  22.144  33.820   6.750
10101POPC   C3A72005  22.195  33.840   7.050
10101POPC   C4A72006  22.185  33.772   7.350
10101POPC   C1B72007  22.237  34.051   6.450
10101POPC   C2B72008  22.183  34.032   6.750
10101POPC   C3B72009  22.188  34.006   7.050
10101POPC   C4B72010  22.230  34.063   7.350
10102POPC   NC372011  12.841  13.632   5.550
10102POPC   PO472012  12.901  13.648   5.850
10102POPC   GL172013  12.834  13.583   6.150
10102POPC   GL272014  12.786  13.778   6.150
10102POPC   C1A72015  12.830  13.589   6.450
10102POPC   D2A72016  12.882  13.592   6.750
10102POPC   C3A72017  12.813  13.604   7.050
10102POPC   C4A72018  12.902  13.609   7.350
10102POPC   C1B72019  12.810  13.826   6.450
10102POPC   C2B72020  12.735  13.909   6.750
10102POPC   C3B72021  12.792  13.825   7.050
10102POPC   C4B72022  12.806  13.880   7.350
10103POPC   NC372023  21.404  33.041   5.550
10103POPC   PO472024  21.342  33.019   5.850
10103POPC   GL172025  21.435  33.038   6.150
10103POPC   GL272026  21.373  32.920   6.150
10103POPC   C1A72027  21.357  33.005   6.450
10103POPC   D2A72028  21.344  33.005   6.750
10103POPC   C3A72029  21.433  33.056   7.050
10103POPC   C4A72030  21.381  33.039   7.350
10103POPC   C1B72031  21.323  32.811   6.450
10103POPC   C2B72032  21.343  32.779   6.750
10103POPC   C3B72033  21.338  32.825   7.050
10103POPC   C4B72034  21.264  32.809   7.350
10104POPC   NC372035  44.703   7.455   5.550
10104POPC   PO472036  44.645   7.378   5.850
10104POPC   GL172037  44.636   7.400   6.150
10104POPC   GL272038  44.720   7.283   6.150
10104POPC   C1A72039  44.701   7.401   6.450
10104POPC   D2A72040  44.634   7.405   6.750
10104POPC   C3A72041  44.670   7.457   7.050
10104POPC   C4A72042  44.709   7.430   7.350
10104POPC   C1B72043  44.836   7.255   6.450
10104POPC   C2B72044  44.781   7.212   6.750
10104POPC   C3B72045  44.818   7.261   7.050
10104POPC   C4B72046  44.813   7.265   7.350
10105POPC   NC372047  12.840  44.701   5.550
10105POPC   PO472048  12.857  44.621   5.850
10105POPC   GL172049  12.876  44.706   6.150
10105POPC   GL272050  12.822  44.535   6.150
10105POPC   C1A72051  12.803  44.675   6.450
10105POPC   D2A72052  12.818  44.697   6.750
10105POPC   C3A72053  12.892  44.629   7.050
10105POPC   C4A72054  12.824  44.680   7.350
10105POPC   C1B72055  12.724  44.397   6.450
10105POPC   C2B72056  12.735  44.442   6.750
10105POPC   C3B72057  12.691  44.425   7.050
10105POPC   C4B72058  12.705  44.404   7.350
10106POPC   NC372059  35.382   2.753   5.550
10106POPC   PO472060  35.307   2.815   5.850
10106POPC   GL172061  35.375   2.799   6.150
10106POPC   GL272062  35.260   2.751   6.150
10106POPC   C1A72063  35.398   2.740   6.450
10106POPC   D2A72064  35.398   2.765   6.750
10106POPC   C3A72065  35.373   2.801   7.050
10106POPC   C4A72066  35.321   2.810   7.350
10106POPC   C1B72067  35.076   2.708   6.450
10106POPC   C2B72068  35.099   2.729   6.750
10106POPC   C3B72069  35.148   2.704   7.050
10106POPC   C4B72070  35.137   2.712   7.350
10107POPC   NC372071  40.737   4.289   5.550
10107POPC   PO472072  40.734   4.320   5.850
10107POPC   GL172073  40.799   4.291   6.150
10107POPC   GL272074  40.942   4.346   6.150
10107POPC   C1A72075  40.808   4.311   6.450
10107POPC   D2A72076  40.777   4.293   6.750
10107POPC   C3A72077  40.777   4.312   7.050
10107POPC   C4A72078  40.772   4.298   7.350
10107POPC   C1B72079  41.010   4.423   6.450
10107POPC   C2B72080  40.977   4.425   6.750
10107POPC   C3B72081  40.977   4.428   7.050
10107POPC   C4B72082  41.004   4.374   7.350
10108POPC   NC372083   7.442   7.371   5.550
10108POPC   PO472084   7.463   7.395   5.850
10108POPC   GL172085   7.379   7.415   6.150
10108POPC   GL272086   7.259   7.397   6.150
10108POPC   C1A72087   7.405   7.399   6.450
10108POPC   D2A72088   7.405   7.418   6.750
10108POPC   C3A72089   7.430   7.373   7.050
10108POPC   C4A72090   7.421   7.461   7.350
10108POPC   C1B72091   7.173   7.402   6.450
10108POPC   C2B72092   7.202   7.424   6.750
10108POPC   C3B72093   7.201   7.381   7.050
10108POPC   C4B72094   7.220   7.396   7.350
10109POPC   NC372095  32.985  22.979   5.550
10109POPC   PO472096  33.049  22.981   5.850
10109POPC   GL172097  33.010  22.924   6.150
10109POPC   GL272098  32.980  22.785   6.150
10109POPC   C1A72099  33.037  22.905   6.450
10109POPC   D2A72100  33.044  22.924   6.750
10109POPC   C3A72101  33.029  22.985   7.050
10109POPC   C4A72102  33.032  22.963   7.350
10109POPC   C1B72103  32.914  22.678   6.450
10109POPC   C2B72104  32.887  22.749   6.750
10109POPC   C3B72105  32.887  22.742   7.050
10109POPC   C4B72106  32.871  22.681   7.350
10110POPC   NC372107  18.259  14.396   5.550
10110POPC   PO472108  18.261  14.430   5.850
10110POPC   GL172109  18.251  14.364   6.150
10110POPC   GL272110  18.246  14.269   6.150
10110POPC   C1A72111  18.263  14.403   6.450
10110POPC   D2A72112  18.279  14.439   6.750
10110POPC   C3A72113  18.240  14.366   7.050
10110POPC   C4A72114  18.261  14.453   7.350
10110POPC   C1B72115  18.171  14.200   6.450
10110POPC   C2B72116  18.230  14.143   6.750
10110POPC   C3B72117  18.199  14.144   7.050
10110POPC   C4B72118  18.222  14.126   7.350
10111POPC   NC372119  30.725  22.913   5.550
10111POPC   PO472120  30.683  22.917   5.850
10111POPC   GL172121  30.704  22.957   6.150
10111POPC   GL272122  30.615  22.911   6.150
10111POPC   C1A72123  30.740  22.936   6.450
10111POPC   D2A72124  30.736  22.958   6.750
10111POPC   C3A72125  30.700  22.908   7.050
10111POPC   C4A72126  30.693  22.935   7.350
10111POPC   C1B72127  30.458  22.901   6.450
10111POPC   C2B72128  30.463  22.952   6.750
10111POPC   C3B72129  30.488  22.899   7.050
10111POPC   C4B72130  30.457  22.959   7.350
10112POPC   NC372131  44.688  25.301   5.550
10112POPC   PO472132  44.674  25.267   5.850
10112POPC   GL172133  44.613  25.304   6.150
10112POPC   GL272134  44.708  25.142   6.150
10112POPC   C1A72135  44.668  25.227   6.450
10112POPC   D2A72136  44.615  25.309   6.750
10112POPC   C3A72137  44.635  25.315   7.050
10112POPC   C4A72138  44.618  25.294   7.350
10112POPC   C1B72139  44.732  24.987   6.450
10112POPC   C2B72140  44.738  25.041   6.750
10112POPC   C3B72141  44.739  25.026   7.050
10112POPC   C4B72142  44.737  25.013   7.350
10113POPC   NC372143   5.126  30.736   5.550
10113POPC   PO472144   5.118  30.674   5.850
10113POPC   GL172145   5.109  30.726   6.150
10113POPC   GL272146   5.207  30.781   6.150
10113POPC   C1A72147   5.081  30.675   6.450
10113POPC   D2A72148   5.082  30.735   6.750
10113POPC   C3A72149   5.052  30.732   7.050
10113POPC   C4A72150   5.055  30.665   7.350
10113POPC   C1B72151   5.253  30.907   6.450
10113POPC   C2B72152   5.258  30.880   6.750
10113POPC   C3B72153   5.260  30.901   7.050
10113POPC   C4B72154   5.254  30.861   7.350
10114POPC   NC372155  28.400  26.775   5.550
10114POPC   PO472156  28.371  26.845   5.850
10114POPC   GL172157  28.394  26.811   6.150
10114POPC   GL272158  28.259  26.687   6.150
10114POPC   C1A72159  28.364  26.813   6.450
10114POPC   D2A72160  28.344  26.780   6.750
10114POPC   C3A72161  28.334  26.797   7.050
10114POPC   C4A72162  28.381  26.779   7.350
10114POPC   C1B72163  28.244  26.648   6.450
10114POPC   C2B72164  28.202  26.629   6.750
10114POPC   C3B72165  28.201  26.618   7.050
10114POPC   C4B72166  28.237  26.592   7.350
10115POPC   NC372167  40.050   7.380   5.550
10115POPC   PO472168  40.013   7.408   5.850
10115POPC   GL172169  39.977   7.431   6.150
10115POPC   GL272170  39.978   7.551   6.150
10115POPC   C1A72171  40.036   7.436   6.450
10115POPC   D2A72172  40.003   7.455   6.750
10115POPC   C3A72173  39.990   7.466   7.050
10115POPC   C4A72174  40.011   7.419   7.350
10115POPC   C1B72175  40.041   7.678   6.450
10115POPC   C2B72176  40.036   7.666   6.750
10115POPC   C3B72177  40.028   7.650   7.050
10115POPC   C4B72178  40.040   7.719   7.350
10116POPC   NC372179  35.342  14.419   5.550
10116POPC   PO472180  35.389  14.363   5.850
10116POPC   GL172181  35.344  14.356   6.150
10116POPC   GL272182  35.219  14.383   6.150
10116POPC   C1A72183  35.381  14.398   6.450
10116POPC   D2A72184  35.331  14.370   6.750
10116POPC   C3A72185  35.397  14.375   7.050
10116POPC   C4A72186  35.375  14.375   7.350
10116POPC   C1B72187  35.096  14.355   6.450
10116POPC   C2B72188  35.108  14.384   6.750
10116POPC   C3B72189  35.075  14.311   7.050
10116POPC   C4B72190  35.071  14.309   7.350
10117POPC   NC372191   5.822   1.181   5.550
10117POPC   PO472192   5.894   1.184   5.850
10117POPC   GL172193   5.916   1.223   6.150
10117POPC   GL272194   5.899   1.119   6.150
10117POPC   C1A72195   5.838   1.166   6.450
10117POPC   D2A72196   5.903   1.164   6.750
10117POPC   C3A72197   5.898   1.166   7.050
10117POPC   C4A72198   5.884   1.202   7.350
10117POPC   C1B72199   5.859   0.983   6.450
10117POPC   C2B72200   5.940   1.004   6.750
10117POPC   C3B72201   5.883   0.967   7.050
10117POPC   C4B72202   5.908   0.930   7.350
10118POPC   NC372203  23.681  39.265   5.550
10118POPC   PO472204  23.726  39.218   5.850
10118POPC   GL172205  23.749  39.254   6.150
10118POPC   GL272206  23.704  39.327   6.150
10118POPC   C1A72207  23.755  39.231   6.450
10118POPC   D2A72208  23.705  39.204   6.750
10118POPC   C3A72209  23.684  39.224   7.050
10118POPC   C4A72210  23.723  39.252   7.350
10118POPC   C1B72211  23.674  39.471   6.450
10118POPC   C2B72212  23.693  39.527   6.750
10118POPC   C3B72213  23.703  39.476   7.050
10118POPC   C4B72214  23.729  39.455   7.350
10119POPC   NC372215  19.811  26.833   5.550
10119POPC   PO472216  19.867  26.784   5.850
10119POPC   GL172217  19.839  26.788   6.150
10119POPC   GL272218  19.792  26.734   6.150
10119POPC   C1A72219  19.827  26.789   6.450
10119POPC   D2A72220  19.874  26.771   6.750
10119POPC   C3A72221  19.842  26.814   7.050
10119POPC   C4A72222  19.864  26.802   7.350
10119POPC   C1B72223  19.777  26.578   6.450
10119POPC   C2B72224  19.708  26.552   6.750
10119POPC   C3B72225  19.707  26.632   7.050
10119POPC   C4B72226  19.767  26.584   7.350
10120POPC   NC372227  43.902   4.340   5.550
10120POPC   PO472228  43.918   4.302   5.850
10120POPC   GL172229  43.911   4.318   6.150
10120POPC   GL272230  43.953   4.247   6.150
10120POPC   C1A72231  43.845   4.329   6.450
10120POPC   D2A72232  43.889   4.281   6.750
10120POPC   C3A72233  43.845   4.331   7.050
10120POPC   C4A72234  43.882   4.351   7.350
10120POPC   C1B72235  43.975   4.117   6.450
10120POPC   C2B72236  43.986   4.090   6.750
10120POPC   C3B72237  44.060   4.139   7.050
10120POPC   C4B72238  43.981   4.119   7.350
10121POPC   NC372239   8.984  22.207   5.550
10121POPC   PO472240   9.014  22.162   5.850
10121POPC   GL172241   8.993  22.197   6.150
10121POPC   GL272242   8.897  22.184   6.150
10121POPC   C1A72243   9.005  22.143   6.450
10121POPC   D2A72244   9.009  22.138   6.750
10121POPC   C3A72245   8.927  22.186   7.050
10121POPC   C4A72246   9.016  22.201   7.350
10121POPC   C1B72247   8.760  22.276   6.450
10121POPC   C2B72248   8.723  22.330   6.750
10121POPC   C3B72249   8.772  22.305   7.050
10121POPC   C4B72250   8.776  22.272   7.350
10122POPC   NC372251  19.050  19.805   5.550
10122POPC   PO472252  19.081  19.800   5.850
10122POPC   GL172253  19.066  19.828   6.150
10122POPC   GL272254  19.020  19.987   6.150
10122POPC   C1A72255  19.062  19.814   6.450
10122POPC   D2A72256  19.103  19.849   6.750
10122POPC   C3A72257  19.081  19.814   7.050
10122POPC   C4A72258  19.019  19.830   7.350
10122POPC   C1B72259  19.039  20.071   6.450
10122POPC   C2B72260  19.021  20.099   6.750
10122POPC   C3B72261  19.014  20.119   7.050
10122POPC   C4B72262  18.956  20.095   7.350
10123POPC   NC372263   0.438  43.889   5.550
10123POPC   PO472264   0.435  43.929   5.850
10123POPC   GL172265   0.477  43.917   6.150
10123POPC   GL272266   0.295  43.907   6.150
10123POPC   C1A72267   0.466  43.859   6.450
10123POPC   D2A72268   0.406  43.914   6.750
10123POPC   C3A72269   0.449  43.920   7.050
10123POPC   C4A72270   0.403  43.932   7.350
10123POPC   C1B72271   0.164  44.023   6.450
10123POPC   C2B72272   0.256  43.968   6.750
10123POPC   C3B72273   0.252  43.964   7.050
10123POPC   C4B72274   0.246  44.002   7.350
10124POPC   NC372275  18.267  11.268   5.550
10124POPC   PO472276  18.261  11.279   5.850
10124POPC   GL172277  18.263  11.298   6.150
10124POPC   GL272278  18.403  11.379   6.150
10124POPC   C1A72279  18.320  11.270   6.450
10124POPC   D2A72280  18.306  11.253   6.750
10124POPC   C3A72281  18.233  11.317   7.050
10124POPC   C4A72282  18.278  11.309   7.350
10124POPC   C1B72283  18.529  11.397   6.450
10124POPC   C2B72284  18.512  11.396   6.750
10124POPC   C3B72285  18.473  11.376   7.050
10124POPC   C4B72286  18.513  11.374   7.350
10125POPC   NC372287  43.088  14.439   5.550
10125POPC   PO472288  43.075  14.441   5.850
10125POPC   GL172289  43.102  14.377   6.150
10125POPC   GL272290  43.152  14.515   6.150
10125POPC   C1A72291  43.122  14.403   6.450
10125POPC   D2A72292  43.124  14.366   6.750
10125POPC   C3A72293  43.155  14.419   7.050
10125POPC   C4A72294  43.060  14.426   7.350
10125POPC   C1B72295  43.212  14.673   6.450
10125POPC   C2B72296  43.163  14.607   6.750
10125POPC   C3B72297  43.247  14.585   7.050
10125POPC   C4B72298  43.258  14.652   7.350
10126POPC   NC372299  40.799  36.863   5.550
10126POPC   PO472300  40.799  36.879   5.850
10126POPC   GL172301  40.831  36.916   6.150
10126POPC   GL272302  40.649  36.957   6.150
10126POPC   C1A72303  40.752  36.861   6.450
10126POPC   D2A72304  40.743  36.888   6.750
10126POPC   C3A72305  40.780  36.952   7.050
10126POPC   C4A72306  40.802  36.906   7.350
10126POPC   C1B72307  40.594  36.986   6.450
10126POPC   C2B72308  40.564  36.933   6.750
10126POPC   C3B72309  40.588  36.939   7.050
10126POPC   C4B72310  40.526  36.979   7.350
10127POPC   NC372311  16.694  17.523   5.550
10127POPC   PO472312  16.711  17.494   5.850
10127POPC   GL172313  16.740  17.527   6.150
10127POPC   GL272314  16.704  17.395   6.150
10127POPC   C1A72315  16.757  17.528   6.450
10127POPC   D2A72316  16.750  17.517   6.750
10127POPC   C3A72317  16.719  17.492   7.050
10127POPC   C4A72318  16.774  17.516   7.350
10127POPC   C1B72319  16.566  17.287   6.450
10127POPC   C2B72320  16.595  17.260   6.750
10127POPC   C3B72321  16.603  17.275   7.050
10127POPC   C4B72322  16.568  17.330   7.350
10128POPC   NC372323  18.292  32.207   5.550
10128POPC   PO472324  18.295  32.257   5.850
10128POPC   GL172325  18.299  32.268   6.150
10128POPC   GL272326  18.176  32.246   6.150
10128POPC   C1A72327  18.286  32.222   6.450
10128POPC   D2A72328  18.242  32.242   6.750
10128POPC   C3A72329  18.282  32.223   7.050
10128POPC   C4A72330  18.300  32.296   7.350
10128POPC   C1B72331  18.048  32.269   6.450
10128POPC   C2B72332  17.992  32.280   6.750
10128POPC   C3B72333  18.021  32.196   7.050
10128POPC   C4B72334  18.071  32.247   7.350
10129POPC   NC372335  23.692   5.096   5.550
10129POPC   PO472336  23.691   5.045   5.850
10129POPC   GL172337  23.677   5.079   6.150
10129POPC   GL272338  23.838   5.019   6.150
10129POPC   C1A72339  23.751   5.109   6.450
10129POPC   D2A72340  23.685   5.086   6.750
10129POPC   C3A72341  23.694   5.114   7.050
10129POPC   C4A72342  23.712   5.072   7.350
10129POPC   C1B72343  23.935   4.936   6.450
10129POPC   C2B72344  23.969   4.944   6.750
10129POPC   C3B72345  23.922   5.023   7.050
10129POPC   C4B72346  23.950   4.992   7.350
10130POPC   NC372347   1.249   5.082   5.550
10130POPC   PO472348   1.171   5.055   5.850
10130POPC   GL172349   1.237   5.047   6.150
10130POPC   GL272350   1.127   5.208   6.150
10130POPC   C1A72351   1.214   5.056   6.450
10130POPC   D2A72352   1.183   5.091   6.750
10130POPC   C3A72353   1.249   5.103   7.050
10130POPC   C4A72354   1.185   5.086   7.350
10130POPC   C1B72355   0.997   5.236   6.450
10130POPC   C2B72356   1.085   5.320   6.750
10130POPC   C3B72357   1.047   5.281   7.050
10130POPC   C4B72358   1.015   5.236   7.350
10131POPC   NC372359  26.783   5.852   5.550
10131POPC   PO472360  26.866   5.907   5.850
10131POPC   GL172361  26.834   5.903   6.150
10131POPC   GL272362  26.766   5.965   6.150
10131POPC   C1A72363  26.854   5.835   6.450
10131POPC   D2A72364  26.789   5.839   6.750
10131POPC   C3A72365  26.817   5.839   7.050
10131POPC   C4A72366  26.795   5.891   7.350
10131POPC   C1B72367  26.702   6.105   6.450
10131POPC   C2B72368  26.725   6.060   6.750
10131POPC   C3B72369  26.643   6.116   7.050
10131POPC   C4B72370  26.726   6.100   7.350
10132POPC   NC372371  18.303  34.573   5.550
10132POPC   PO472372  18.253  34.558   5.850
10132POPC   GL172373  18.287  34.538   6.150
10132POPC   GL272374  18.439  34.593   6.150
10132POPC   C1A72375  18.326  34.614   6.450
10132POPC   D2A72376  18.239  34.587   6.750
10132POPC   C3A72377  18.307  34.584   7.050
10132POPC   C4A72378  18.241  34.539   7.350
10132POPC   C1B72379  18.457  34.690   6.450
10132POPC   C2B72380  18.535  34.689   6.750
10132POPC   C3B72381  18.493  34.733   7.050
10132POPC   C4B72382  18.457  34.744   7.350
10133POPC   NC372383  22.936  16.750   5.550
10133POPC   PO472384  22.942  16.693   5.850
10133POPC   GL172385  22.968  16.693   6.150
10133POPC   GL272386  22.943  16.816   6.150
10133POPC   C1A72387  22.913  16.719   6.450
10133POPC   D2A72388  22.916  16.696   6.750
10133POPC   C3A72389  22.981  16.747   7.050
10133POPC   C4A72390  22.902  16.773   7.350
10133POPC   C1B72391  23.000  17.028   6.450
10133POPC   C2B72392  22.978  16.985   6.750
10133POPC   C3B72393  23.002  17.002   7.050
10133POPC   C4B72394  22.947  16.966   7.350
10134POPC   NC372395  13.606  12.867   5.550
10134POPC   PO472396  13.622  12.863   5.850
10134POPC   GL172397  13.670  12.898   6.150
10134POPC   GL272398  13.620  12.694   6.150
10134POPC   C1A72399  13.617  12.836   6.450
10134POPC   D2A72400  13.622  12.829   6.750
10134POPC   C3A72401  13.651  12.861   7.050
10134POPC   C4A72402  13.676  12.894   7.350
10134POPC   C1B72403  13.526  12.620   6.450
10134POPC   C2B72404  13.538  12.658   6.750
10134POPC   C3B72405  13.568  12.609   7.050
10134POPC   C4B72406  13.540  12.644   7.350
10135POPC   NC372407   1.256  32.287   5.550
10135POPC   PO472408   1.175  32.256   5.850
10135POPC   GL172409   1.252  32.221   6.150
10135POPC   GL272410   1.298  32.177   6.150
10135POPC   C1A72411   1.239  32.269   6.450
10135POPC   D2A72412   1.165  32.209   6.750
10135POPC   C3A72413   1.170  32.214   7.050
10135POPC   C4A72414   1.230  32.255   7.350
10135POPC   C1B72415   1.271  31.983   6.450
10135POPC   C2B72416   1.245  32.006   6.750
10135POPC   C3B72417   1.338  32.053   7.050
10135POPC   C4B72418   1.257  32.044   7.350
10136POPC   NC372419  28.355  15.993   5.550
10136POPC   PO472420  28.320  15.930   5.850
10136POPC   GL172421  28.397  16.003   6.150
10136POPC   GL272422  28.234  16.004   6.150
10136POPC   C1A72423  28.320  15.990   6.450
10136POPC   D2A72424  28.348  15.949   6.750
10136POPC   C3A72425  28.322  15.939   7.050
10136POPC   C4A72426  28.395  15.979   7.350
10136POPC   C1B72427  28.176  16.089   6.450
10136POPC   C2B72428  28.198  16.091   6.750
10136POPC   C3B72429  28.186  16.105   7.050
10136POPC   C4B72430  28.129  16.114   7.350
10137POPC   NC372431  17.487   9.777   5.550
10137POPC   PO472432  17.475   9.703   5.850
10137POPC   GL172433  17.484   9.780   6.150
10137POPC   GL272434  17.526   9.672   6.150
10137POPC   C1A72435  17.533   9.757   6.450
10137POPC   D2A72436  17.489   9.709   6.750
10137POPC   C3A72437  17.555   9.715   7.050
10137POPC   C4A72438  17.556   9.721   7.350
10137POPC   C1B72439  17.579   9.473   6.450
10137POPC   C2B72440  17.553   9.530   6.750
10137POPC   C3B72441  17.528   9.467   7.050
10137POPC   C4B72442  17.565   9.526   7.350
10138POPC   NC372443   2.785   5.068   5.550
10138POPC   PO472444   2.726   5.122   5.850
10138POPC   GL172445   2.741   5.075   6.150
10138POPC   GL272446   2.897   5.021   6.150
10138POPC   C1A72447   2.734   5.080   6.450
10138POPC   D2A72448   2.721   5.104   6.750
10138POPC   C3A72449   2.741   5.113   7.050
10138POPC   C4A72450   2.811   5.118   7.350
10138POPC   C1B72451   2.944   4.954   6.450
10138POPC   C2B72452   2.978   5.023   6.750
10138POPC   C3B72453   2.969   5.022   7.050
10138POPC   C4B72454   2.959   4.986   7.350
10139POPC   NC372455   8.227   8.978   5.550
10139POPC   PO472456   8.218   9.021   5.850
10139POPC   GL172457   8.221   8.936   6.150
10139POPC   GL272458   8.135   8.813   6.150
10139POPC   C1A72459   8.202   8.977   6.450
10139POPC   D2A72460   8.158   8.970   6.750
10139POPC   C3A72461   8.228   8.955   7.050
10139POPC   C4A72462   8.226   8.986   7.350
10139POPC   C1B72463   8.113   8.775   6.450
10139POPC   C2B72464   8.106   8.773   6.750
10139POPC   C3B72465   8.101   8.784   7.050
10139POPC   C4B72466   8.096   8.724   7.350
10140POPC   NC372467  29.187  36.930   5.550
10140POPC   PO472468  29.133  36.865   5.850
10140POPC   GL172469  29.173  36.889   6.150
10140POPC   GL272470  29.226  36.791   6.150
10140POPC   C1A72471  29.165  36.859   6.450
10140POPC   D2A72472  29.096  36.894   6.750
10140POPC   C3A72473  29.168  36.864   7.050
10140POPC   C4A72474  29.121  36.938   7.350
10140POPC   C1B72475  29.348  36.737   6.450
10140POPC   C2B72476  29.315  36.674   6.750
10140POPC   C3B72477  29.263  36.692   7.050
10140POPC   C4B72478  29.266  36.754   7.350
10141POPC   NC372479   2.018   5.841   5.550
10141POPC   PO472480   1.980   5.854   5.850
10141POPC   GL172481   2.029   5.905   6.150
10141POPC   GL272482   1.841   5.870   6.150
10141POPC   C1A72483   1.943   5.833   6.450
10141POPC   D2A72484   1.969   5.881   6.750
10141POPC   C3A72485   2.009   5.875   7.050
10141POPC   C4A72486   2.018   5.894   7.350
10141POPC   C1B72487   1.696   5.914   6.450
10141POPC   C2B72488   1.738   5.872   6.750
10141POPC   C3B72489   1.782   5.932   7.050
10141POPC   C4B72490   1.753   5.881   7.350
10142POPC   NC372491  18.298  21.403   5.550
10142POPC   PO472492  18.309  21.424   5.850
10142POPC   GL172493  18.285  21.425   6.150
10142POPC   GL272494  18.196  21.332   6.150
10142POPC   C1A72495  18.310  21.345   6.450
10142POPC   D2A72496  18.312  21.376   6.750
10142POPC   C3A72497  18.250  21.417   7.050
10142POPC   C4A72498  18.333  21.349   7.350
10142POPC   C1B72499  18.085  21.192   6.450
10142POPC   C2B72500  18.069  21.234   6.750
10142POPC   C3B72501  18.109  21.219   7.050
10142POPC   C4B72502  18.089  21.253   7.350
10143POPC   NC372503  27.617   1.986   5.550
10143POPC   PO472504  27.590   1.962   5.850
10143POPC   GL172505  27.618   1.947   6.150
10143POPC   GL272506  27.494   2.075   6.150
10143POPC   C1A72507  27.594   2.005   6.450
10143POPC   D2A72508  27.626   1.983   6.750
10143POPC   C3A72509  27.566   1.996   7.050
10143POPC   C4A72510  27.638   1.953   7.350
10143POPC   C1B72511  27.366   2.041   6.450
10143POPC   C2B72512  27.337   2.045   6.750
10143POPC   C3B72513  27.317   2.096   7.050
10143POPC   C4B72514  27.320   2.102   7.350
10144POPC   NC372515  14.427  32.249   5.550
10144POPC   PO472516  14.405  32.272   5.850
10144POPC   GL172517  14.440  32.233   6.150
10144POPC   GL272518  14.544  32.272   6.150
10144POPC   C1A72519  14.446  32.225   6.450
10144POPC   D2A72520  14.442  32.272   6.750
10144POPC   C3A72521  14.451  32.250   7.050
10144POPC   C4A72522  14.362  32.211   7.350
10144POPC   C1B72523  14.581  32.393   6.450
10144POPC   C2B72524  14.664  32.380   6.750
10144POPC   C3B72525  14.611  32.370   7.050
10144POPC   C4B72526  14.582  32.375   7.350
10145POPC   NC372527   0.440   6.615   5.550
10145POPC   PO472528   0.477   6.689   5.850
10145POPC   GL172529   0.402   6.623   6.150
10145POPC   GL272530   0.447   6.806   6.150
10145POPC   C1A72531   0.437   6.667   6.450
10145POPC   D2A72532   0.484   6.679   6.750
10145POPC   C3A72533   0.402   6.637   7.050
10145POPC   C4A72534   0.421   6.637   7.350
10145POPC   C1B72535   0.476   6.937   6.450
10145POPC   C2B72536   0.481   6.931   6.750
10145POPC   C3B72537   0.433   6.872   7.050
10145POPC   C4B72538   0.411   6.861   7.350
10146POPC   NC372539  23.694  32.975   5.550
10146POPC   PO472540  23.722  33.048   5.850
10146POPC   GL172541  23.760  32.995   6.150
10146POPC   GL272542  23.611  33.114   6.150
10146POPC   C1A72543  23.733  33.001   6.450
10146POPC   D2A72544  23.739  32.977   6.750
10146POPC   C3A72545  23.668  33.068   7.050
10146POPC   C4A72546  23.758  33.030   7.350
10146POPC   C1B72547  23.561  33.182   6.450
10146POPC   C2B72548  23.562  33.217   6.750
10146POPC   C3B72549  23.543  33.143   7.050
10146POPC   C4B72550  23.521  33.175   7.350
10147POPC   NC372551  15.994  14.419   5.550
10147POPC   PO472552  15.916  14.358   5.850
10147POPC   GL172553  15.968  14.401   6.150
10147POPC   GL272554  15.792  14.368   6.150
10147POPC   C1A72555  15.925  14.420   6.450
10147POPC   D2A72556  15.929  14.409   6.750
10147POPC   C3A72557  15.938  14.360   7.050
10147POPC   C4A72558  15.994  14.416   7.350
10147POPC   C1B72559  15.676  14.344   6.450
10147POPC   C2B72560  15.710  14.416   6.750
10147POPC   C3B72561  15.660  14.404   7.050
10147POPC   C4B72562  15.741  14.386   7.350
10148POPC   NC372563  30.723  36.109   5.550
10148POPC   PO472564  30.649  36.177   5.850
10148POPC   GL172565  30.693  36.081   6.150
10148POPC   GL272566  30.796  36.069   6.150
10148POPC   C1A72567  30.734  36.143   6.450
10148POPC   D2A72568  30.658  36.130   6.750
10148POPC   C3A72569  30.742  36.160   7.050
10148POPC   C4A72570  30.652  36.134   7.350
10148POPC   C1B72571  30.946  35.965   6.450
10148POPC   C2B72572  30.931  36.010   6.750
10148POPC   C3B72573  30.892  36.051   7.050
10148POPC   C4B72574  30.948  35.987   7.350
10149POPC   NC372575  30.695  34.622   5.550
10149POPC   PO472576  30.661  34.552   5.850
10149POPC   GL172577  30.734  34.544   6.150
10149POPC   GL272578  30.537  34.600   6.150
10149POPC   C1A72579  30.738  34.532   6.450
10149POPC   D2A72580  30.660  34.548   6.750
10149POPC   C3A72581  30.710  34.540   7.050
10149POPC   C4A72582  30.691  34.542   7.350
10149POPC   C1B72583  30.430  34.709   6.450
10149POPC   C2B72584  30.476  34.719   6.750
10149POPC   C3B72585  30.492  34.669   7.050
10149POPC   C4B72586  30.452  34.713   7.350
10150POPC   NC372587  33.028  24.524   5.550
10150POPC   PO472588  33.066  24.458   5.850
10150POPC   GL172589  33.035  24.449   6.150
10150POPC   GL272590  32.869  24.500   6.150
10150POPC   C1A72591  33.045  24.487   6.450
10150POPC   D2A72592  33.029  24.466   6.750
10150POPC   C3A72593  32.993  24.527   7.050
10150POPC   C4A72594  33.062  24.450   7.350
10150POPC   C1B72595  32.750  24.571   6.450
10150POPC   C2B72596  32.769  24.551   6.750
10150POPC   C3B72597  32.809  24.547   7.050
10150POPC   C4B72598  32.782  24.499   7.350
10151POPC   NC372599  22.140  39.229   5.550
10151POPC   PO472600  22.140  39.268   5.850
10151POPC   GL172601  22.126  39.243   6.150
10151POPC   GL272602  22.014  39.290   6.150
10151POPC   C1A72603  22.118  39.267   6.450
10151POPC   D2A72604  22.142  39.240   6.750
10151POPC   C3A72605  22.120  39.249   7.050
10151POPC   C4A72606  22.195  39.193   7.350
10151POPC   C1B72607  21.950  39.318   6.450
10151POPC   C2B72608  21.966  39.360   6.750
10151POPC   C3B72609  21.919  39.389   7.050
10151POPC   C4B72610  21.924  39.323   7.350
10152POPC   NC372611   8.173   8.174   5.550
10152POPC   PO472612   8.232   8.200   5.850
10152POPC   GL172613   8.147   8.194   6.150
10152POPC   GL272614   8.058   8.242   6.150
10152POPC   C1A72615   8.185   8.149   6.450
10152POPC   D2A72616   8.196   8.221   6.750
10152POPC   C3A72617   8.196   8.230   7.050
10152POPC   C4A72618   8.159   8.206   7.350
10152POPC   C1B72619   7.932   8.275   6.450
10152POPC   C2B72620   7.942   8.229   6.750
10152POPC   C3B72621   7.987   8.197   7.050
10152POPC   C4B72622   7.913   8.219   7.350
10153POPC   NC372623  10.548  22.202   5.550
10153POPC   PO472624  10.483  22.159   5.850
10153POPC   GL172625  10.489  22.122   6.150
10153POPC   GL272626  10.423  22.257   6.150
10153POPC   C1A72627  10.523  22.134   6.450
10153POPC   D2A72628  10.565  22.117   6.750
10153POPC   C3A72629  10.523  22.161   7.050
10153POPC   C4A72630  10.499  22.205   7.350
10153POPC   C1B72631  10.320  22.333   6.450
10153POPC   C2B72632  10.314  22.393   6.750
10153POPC   C3B72633  10.363  22.344   7.050
10153POPC   C4B72634  10.370  22.365   7.350
10154POPC   NC372635  16.738  40.803   5.550
10154POPC   PO472636  16.742  40.769   5.850
10154POPC   GL172637  16.701  40.822   6.150
10154POPC   GL272638  16.595  40.717   6.150
10154POPC   C1A72639  16.706  40.831   6.450
10154POPC   D2A72640  16.709  40.761   6.750
10154POPC   C3A72641  16.770  40.783   7.050
10154POPC   C4A72642  16.723  40.774   7.350
10154POPC   C1B72643  16.460  40.717   6.450
10154POPC   C2B72644  16.521  40.717   6.750
10154POPC   C3B72645  16.479  40.638   7.050
10154POPC   C4B72646  16.496  40.683   7.350
10155POPC   NC372647  35.354  22.940   5.550
10155POPC   PO472648  35.345  22.980   5.850
10155POPC   GL172649  35.332  22.953   6.150
10155POPC   GL272650  35.387  22.837   6.150
10155POPC   C1A72651  35.384  22.903   6.450
10155POPC   D2A72652  35.399  22.965   6.750
10155POPC   C3A72653  35.347  22.937   7.050
10155POPC   C4A72654  35.338  22.917   7.350
10155POPC   C1B72655  35.451  22.704   6.450
10155POPC   C2B72656  35.386  22.661   6.750
10155POPC   C3B72657  35.441  22.724   7.050
10155POPC   C4B72658  35.465  22.724   7.350
10156POPC   NC372659  24.527  16.773   5.550
10156POPC   PO472660  24.469  16.758   5.850
10156POPC   GL172661  24.525  16.773   6.150
10156POPC   GL272662  24.623  16.774   6.150
10156POPC   C1A72663  24.496  16.728   6.450
10156POPC   D2A72664  24.467  16.774   6.750
10156POPC   C3A72665  24.487  16.771   7.050
10156POPC   C4A72666  24.509  16.695   7.350
10156POPC   C1B72667  24.740  16.753   6.450
10156POPC   C2B72668  24.691  16.764   6.750
10156POPC   C3B72669  24.692  16.795   7.050
10156POPC   C4B72670  24.713  16.810   7.350
10157POPC   NC372671  16.755  29.889   5.550
10157POPC   PO472672  16.762  29.945   5.850
10157POPC   GL172673  16.770  29.907   6.150
10157POPC   GL272674  16.851  29.950   6.150
10157POPC   C1A72675  16.747  29.925   6.450
10157POPC   D2A72676  16.722  29.959   6.750
10157POPC   C3A72677  16.769  29.924   7.050
10157POPC   C4A72678  16.720  29.881   7.350
10157POPC   C1B72679  17.010  29.846   6.450
10157POPC   C2B72680  17.016  29.882   6.750
10157POPC   C3B72681  16.945  29.901   7.050
10157POPC   C4B72682  17.009  29.838   7.350
10158POPC   NC372683  42.346  17.548   5.550
10158POPC   PO472684  42.340  17.493   5.850
10158POPC   GL172685  42.316  17.461   6.150
10158POPC   GL272686  42.197  17.469   6.150
10158POPC   C1A72687  42.321  17.512   6.450
10158POPC   D2A72688  42.285  17.479   6.750
10158POPC   C3A72689  42.375  17.494   7.050
10158POPC   C4A72690  42.347  17.501   7.350
10158POPC   C1B72691  42.077  17.447   6.450
10158POPC   C2B72692  42.092  17.456   6.750
10158POPC   C3B72693  42.087  17.472   7.050
10158POPC   C4B72694  42.087  17.422   7.350
10159POPC   NC372695  12.044  42.383   5.550
10159POPC   PO472696  12.056  42.375   5.850
10159POPC   GL172697  12.045  42.305   6.150
10159POPC   GL272698  12.011  42.441   6.150
10159POPC   C1A72699  12.109  42.337   6.450
10159POPC   D2A72700  12.102  42.369   6.750
10159POPC   C3A72701  12.120  42.310   7.050
10159POPC   C4A72702  12.068  42.327   7.350
10159POPC   C1B72703  11.961  42.554   6.450
10159POPC   C2B72704  11.907  42.535   6.750
10159POPC   C3B72705  11.893  42.502   7.050
10159POPC   C4B72706  11.880  42.482   7.350
10160POPC   NC372707   5.829   5.071   5.550
10160POPC   PO472708   5.853   5.055   5.850
10160POPC   GL172709   5.849   5.115   6.150
10160POPC   GL272710   5.779   4.933   6.150
10160POPC   C1A72711   5.869   5.044   6.450
10160POPC   D2A72712   5.845   5.054   6.750
10160POPC   C3A72713   5.892   5.135   7.050
10160POPC   C4A72714   5.888   5.054   7.350
10160POPC   C1B72715   5.817   4.849   6.450
10160POPC   C2B72716   5.733   4.902   6.750
10160POPC   C3B72717   5.723   4.841   7.050
10160POPC   C4B72718   5.743   4.895   7.350
10161POPC   NC372719  43.149  29.150   5.550
10161POPC   PO472720  43.067  29.187   5.850
10161POPC   GL172721  43.109  29.131   6.150
10161POPC   GL272722  43.194  29.016   6.150
10161POPC   C1A72723  43.141  29.131   6.450
10161POPC   D2A72724  43.122  29.164   6.750
10161POPC   C3A72725  43.077  29.186   7.050
10161POPC   C4A72726  43.067  29.172   7.350
10161POPC   C1B72727  43.166  28.930   6.450
10161POPC   C2B72728  43.210  28.935   6.750
10161POPC   C3B72729  43.190  28.879   7.050
10161POPC   C4B72730  43.218  28.881   7.350
10162POPC   NC372731  42.303   6.644   5.550
10162POPC   PO472732  42.314   6.641   5.850
10162POPC   GL172733  42.357   6.631   6.150
10162POPC   GL272734  42.237   6.707   6.150
10162POPC   C1A72735  42.304   6.632   6.450
10162POPC   D2A72736  42.319   6.611   6.750
10162POPC   C3A72737  42.313   6.618   7.050
10162POPC   C4A72738  42.313   6.663   7.350
10162POPC   C1B72739  42.176   6.879   6.450
10162POPC   C2B72740  42.153   6.874   6.750
10162POPC   C3B72741  42.184   6.831   7.050
10162POPC   C4B72742  42.192   6.848   7.350
10163POPC   NC372743  14.364   2.747   5.550
10163POPC   PO472744  14.450   2.814   5.850
10163POPC   GL172745  14.380   2.736   6.150
10163POPC   GL272746  14.540   2.867   6.150
10163POPC   C1A72747  14.359   2.784   6.450
10163POPC   D2A72748  14.392   2.794   6.750
10163POPC   C3A72749  14.427   2.760   7.050
10163POPC   C4A72750  14.452   2.736   7.350
10163POPC   C1B72751  14.658   2.878   6.450
10163POPC   C2B72752  14.643   2.928   6.750
10163POPC   C3B72753  14.669   2.890   7.050
10163POPC   C4B72754  14.603   2.833   7.350
10164POPC   NC372755  24.471  28.367   5.550
10164POPC   PO472756  24.534  28.358   5.850
10164POPC   GL172757  24.455  28.379   6.150
10164POPC   GL272758  24.573  28.419   6.150
10164POPC   C1A72759  24.472  28.333   6.450
10164POPC   D2A72760  24.457  28.337   6.750
10164POPC   C3A72761  24.455  28.325   7.050
10164POPC   C4A72762  24.531  28.408   7.350
10164POPC   C1B72763  24.756  28.444   6.450
10164POPC   C2B72764  24.743  28.538   6.750
10164POPC   C3B72765  24.748  28.467   7.050
10164POPC   C4B72766  24.739  28.460   7.350
10165POPC   NC372767  12.121  30.728   5.550
10165POPC   PO472768  12.095  30.679   5.850
10165POPC   GL172769  12.119  30.656   6.150
10165POPC   GL272770  12.035  30.788   6.150
10165POPC   C1A72771  12.062  30.661   6.450
10165POPC   D2A72772  12.100  30.657   6.750
10165POPC   C3A72773  12.037  30.710   7.050
10165POPC   C4A72774  12.034  30.702   7.350
10165POPC   C1B72775  11.935  30.901   6.450
10165POPC   C2B72776  11.899  30.859   6.750
10165POPC   C3B72777  11.885  30.933   7.050
10165POPC   C4B72778  11.916  30.852   7.350
10166POPC   NC372779   6.634   6.628   5.550
10166POPC   PO472780   6.644   6.640   5.850
10166POPC   GL172781   6.670   6.648   6.150
10166POPC   GL272782   6.589   6.570   6.150
10166POPC   C1A72783   6.663   6.637   6.450
10166POPC   D2A72784   6.662   6.652   6.750
10166POPC   C3A72785   6.651   6.662   7.050
10166POPC   C4A72786   6.598   6.685   7.350
10166POPC   C1B72787   6.590   6.372   6.450
10166POPC   C2B72788   6.652   6.391   6.750
10166POPC   C3B72789   6.651   6.391   7.050
10166POPC   C4B72790   6.619   6.375   7.350
10167POPC   NC372791   1.222  29.192   5.550
10167POPC   PO472792   1.190  29.138   5.850
10167POPC   GL172793   1.184  29.190   6.150
10167POPC   GL272794   1.113  29.083   6.150
10167POPC   C1A72795   1.181  29.158   6.450
10167POPC   D2A72796   1.180  29.173   6.750
10167POPC   C3A72797   1.189  29.126   7.050
10167POPC   C4A72798   1.214  29.115   7.350
10167POPC   C1B72799   1.049  28.991   6.450
10167POPC   C2B72800   1.043  28.992   6.750
10167POPC   C3B72801   1.052  28.978   7.050
10167POPC   C4B72802   0.998  28.996   7.350
10168POPC   NC372803  32.999  16.701   5.550
10168POPC   PO472804  33.043  16.767   5.850
10168POPC   GL172805  33.049  16.748   6.150
10168POPC   GL272806  32.937  16.630   6.150
10168POPC   C1A72807  33.053  16.692   6.450
10168POPC   D2A72808  32.977  16.719   6.750
10168POPC   C3A72809  33.028  16.736   7.050
10168POPC   C4A72810  33.035  16.685   7.350
10168POPC   C1B72811  32.843  16.627   6.450
10168POPC   C2B72812  32.842  16.617   6.750
10168POPC   C3B72813  32.804  16.629   7.050
10168POPC   C4B72814  32.785  16.632   7.350
10169POPC   NC372815  10.533   4.362   5.550
10169POPC   PO472816  10.477   4.273   5.850
10169POPC   GL172817  10.487   4.300   6.150
10169POPC   GL272818  10.516   4.158   6.150
10169POPC   C1A72819  10.505   4.364   6.450
10169POPC   D2A72820  10.492   4.323   6.750
10169POPC   C3A72821  10.524   4.297   7.050
10169POPC   C4A72822  10.519   4.271   7.350
10169POPC   C1B72823  10.541   4.029   6.450
10169POPC   C2B72824  10.520   4.083   6.750
10169POPC   C3B72825  10.578   4.031   7.050
10169POPC   C4B72826  10.575   4.037   7.350
10170POPC   NC372827  24.446   7.466   5.550
10170POPC   PO472828  24.512   7.401   5.850
10170POPC   GL172829  24.487   7.412   6.150
10170POPC   GL272830  24.514   7.330   6.150
10170POPC   C1A72831  24.476   7.371   6.450
10170POPC   D2A72832  24.527   7.446   6.750
10170POPC   C3A72833  24.538   7.424   7.050
10170POPC   C4A72834  24.482   7.385   7.350
10170POPC   C1B72835  24.473   7.172   6.450
10170POPC   C2B72836  24.462   7.216   6.750
10170POPC   C3B72837  24.481   7.170   7.050
10170POPC   C4B72838  24.483   7.168   7.350
10171POPC   NC372839  27.635  34.572   5.550
10171POPC   PO472840  27.575  34.559   5.850
10171POPC   GL172841  27.630  34.616   6.150
10171POPC   GL272842  27.476  34.611   6.150
10171POPC   C1A72843  27.619  34.615   6.450
10171POPC   D2A72844  27.618  34.617   6.750
10171POPC   C3A72845  27.553  34.583   7.050
10171POPC   C4A72846  27.569  34.569   7.350
10171POPC   C1B72847  27.441  34.725   6.450
10171POPC   C2B72848  27.415  34.774   6.750
10171POPC   C3B72849  27.446  34.735   7.050
10171POPC   C4B72850  27.374  34.686   7.350
10172POPC   NC372851  43.845  11.253   5.550
10172POPC   PO472852  43.895  11.341   5.850
10172POPC   GL172853  43.886  11.271   6.150
10172POPC   GL272854  44.003  11.354   6.150
10172POPC   C1A72855  43.844  11.347   6.450
10172POPC   D2A72856  43.871  11.296   6.750
10172POPC   C3A72857  43.841  11.325   7.050
10172POPC   C4A72858  43.875  11.349   7.350
10172POPC   C1B72859  44.127  11.334   6.450
10172POPC   C2B72860  44.112  11.340   6.750
10172POPC   C3B72861  44.156  11.373   7.050
10172POPC   C4B72862  44.139  11.357   7.350
10173POPC   NC372863  37.649  42.339   5.550
10173POPC   PO472864  37.673  42.339   5.850
10173POPC   GL172865  37.635  42.305   6.150
10173POPC   GL272866  37.617  42.290   6.150
10173POPC   C1A72867  37.668  42.351   6.450
10173POPC   D2A72868  37.644  42.329   6.750
10173POPC   C3A72869  37.717  42.347   7.050
10173POPC   C4A72870  37.647  42.370   7.350
10173POPC   C1B72871  37.408  42.256   6.450
10173POPC   C2B72872  37.418  42.254   6.750
10173POPC   C3B72873  37.466  42.247   7.050
10173POPC   C4B72874  37.475  42.191   7.350
10174POPC   NC372875  40.811   8.190   5.550
10174POPC   PO472876  40.828   8.206   5.850
10174POPC   GL172877  40.793   8.228   6.150
10174POPC   GL272878  40.940   8.183   6.150
10174POPC   C1A72879  40.775   8.179   6.450
10174POPC   D2A72880  40.788   8.155   6.750
10174POPC   C3A72881  40.802   8.220   7.050
10174POPC   C4A72882  40.777   8.194   7.350
10174POPC   C1B72883  41.010   8.148   6.450
10174POPC   C2B72884  41.042   8.158   6.750
10174POPC   C3B72885  41.021   8.143   7.050
10174POPC   C4B72886  41.030   8.137   7.350
10175POPC   NC372887  32.283  14.395   5.550
10175POPC   PO472888  32.241  14.439   5.850
10175POPC   GL172889  32.258  14.447   6.150
10175POPC   GL272890  32.369  14.320   6.150
10175POPC   C1A72891  32.256  14.355   6.450
10175POPC   D2A72892  32.205  14.412   6.750
10175POPC   C3A72893  32.241  14.381   7.050
10175POPC   C4A72894  32.271  14.367   7.350
10175POPC   C1B72895  32.439  14.370   6.450
10175POPC   C2B72896  32.447  14.279   6.750
10175POPC   C3B72897  32.448  14.330   7.050
10175POPC   C4B72898  32.485  14.366   7.350
10176POPC   NC372899   1.218  23.686   5.550
10176POPC   PO472900   1.213  23.680   5.850
10176POPC   GL172901   1.230  23.689   6.150
10176POPC   GL272902   1.139  23.634   6.150
10176POPC   C1A72903   1.200  23.673   6.450
10176POPC   D2A72904   1.240  23.697   6.750
10176POPC   C3A72905   1.190  23.709   7.050
10176POPC   C4A72906   1.244  23.714   7.350
10176POPC   C1B72907   0.956  23.624   6.450
10176POPC   C2B72908   1.011  23.547   6.750
10176POPC   C3B72909   1.048  23.565   7.050
10176POPC   C4B72910   1.001  23.602   7.350
10177POPC   NC372911  22.197  40.043   5.550
10177POPC   PO472912  22.126  39.977   5.850
10177POPC   GL172913  22.179  39.993   6.150
10177POPC   GL272914  22.043  40.052   6.150
10177POPC   C1A72915  22.178  39.986   6.450
10177POPC   D2A72916  22.117  40.021   6.750
10177POPC   C3A72917  22.155  39.974   7.050
10177POPC   C4A72918  22.124  39.968   7.350
10177POPC   C1B72919  21.892  40.079   6.450
10177POPC   C2B72920  21.881  40.057   6.750
10177POPC   C3B72921  21.909  40.034   7.050
10177POPC   C4B72922  21.889  40.019   7.350
10178POPC   NC372923  41.519  20.568   5.550
10178POPC   PO472924  41.555  20.635   5.850
10178POPC   GL172925  41.554  20.562   6.150
10178POPC   GL272926  41.556  20.733   6.150
10178POPC   C1A72927  41.530  20.582   6.450
10178POPC   D2A72928  41.570  20.565   6.750
10178POPC   C3A72929  41.523  20.625   7.050
10178POPC   C4A72930  41.604  20.581   7.350
10178POPC   C1B72931  41.607  20.847   6.450
10178POPC   C2B72932  41.637  20.811   6.750
10178POPC   C3B72933  41.676  20.815   7.050
10178POPC   C4B72934  41.631  20.849   7.350
10179POPC   NC372935  24.478   5.840   5.550
10179POPC   PO472936  24.487   5.822   5.850
10179POPC   GL172937  24.460   5.910   6.150
10179POPC   GL272938  24.374   5.812   6.150
10179POPC   C1A72939  24.535   5.918   6.450
10179POPC   D2A72940  24.511   5.869   6.750
10179POPC   C3A72941  24.475   5.916   7.050
10179POPC   C4A72942  24.467   5.881   7.350
10179POPC   C1B72943  24.328   5.701   6.450
10179POPC   C2B72944  24.276   5.724   6.750
10179POPC   C3B72945  24.326   5.708   7.050
10179POPC   C4B72946  24.323   5.670   7.350
10180POPC   NC372947  21.426   6.656   5.550
10180POPC   PO472948  21.422   6.643   5.850
10180POPC   GL172949  21.344   6.627   6.150
10180POPC   GL272950  21.345   6.514   6.150
10180POPC   C1A72951  21.424   6.603   6.450
10180POPC   D2A72952  21.360   6.622   6.750
10180POPC   C3A72953  21.360   6.672   7.050
10180POPC   C4A72954  21.366   6.618   7.350
10180POPC   C1B72955  21.325   6.415   6.450
10180POPC   C2B72956  21.272   6.414   6.750
10180POPC   C3B72957  21.350   6.458   7.050
10180POPC   C4B72958  21.280   6.402   7.350
10181POPC   NC372959  41.601   2.798   5.550
10181POPC   PO472960  41.572   2.780   5.850
10181POPC   GL172961  41.509   2.784   6.150
10181POPC   GL272962  41.680   2.640   6.150
10181POPC   C1A72963  41.605   2.755   6.450
10181POPC   D2A72964  41.532   2.727   6.750
10181POPC   C3A72965  41.516   2.749   7.050
10181POPC   C4A72966  41.600   2.733   7.350
10181POPC   C1B72967  41.763   2.604   6.450
10181POPC   C2B72968  41.716   2.548   6.750
10181POPC   C3B72969  41.743   2.537   7.050
10181POPC   C4B72970  41.696   2.582   7.350
10182POPC   NC372971  35.387  21.368   5.550
10182POPC   PO472972  35.359  21.394   5.850
10182POPC   GL172973  35.351  21.426   6.150
10182POPC   GL272974  35.438  21.390   6.150
10182POPC   C1A72975  35.389  21.395   6.450
10182POPC   D2A72976  35.322  21.390   6.750
10182POPC   C3A72977  35.395  21.398   7.050
10182POPC   C4A72978  35.347  21.401   7.350
10182POPC   C1B72979  35.612  21.502   6.450
10182POPC   C2B72980  35.601  21.483   6.750
10182POPC   C3B72981  35.541  21.468   7.050
10182POPC   C4B72982  35.601  21.527   7.350
10183POPC   NC372983  10.508  38.500   5.550
10183POPC   PO472984  10.497  38.407   5.850
10183POPC   GL172985  10.497  38.417   6.150
10183POPC   GL272986  10.420  38.420   6.150
10183POPC   C1A72987  10.531  38.424   6.450
10183POPC   D2A72988  10.477  38.489   6.750
10183POPC   C3A72989  10.565  38.430   7.050
10183POPC   C4A72990  10.535  38.469   7.350
10183POPC   C1B72991  10.238  38.368   6.450
10183POPC   C2B72992  10.309  38.401   6.750
10183POPC   C3B72993  10.318  38.384   7.050
10183POPC   C4B72994  10.307  38.383   7.350
10184POPC   NC372995   1.964  24.507   5.550
10184POPC   PO472996   1.942  24.525   5.850
10184POPC   GL172997   2.030  24.503   6.150
10184POPC   GL272998   2.077  24.405   6.150
10184POPC   C1A72999   2.009  24.496   6.450
10184POPC   D2A73000   1.956  24.462   6.750
10184POPC   C3A73001   1.952  24.459   7.050
10184POPC   C4A73002   2.013  24.496   7.350
10184POPC   C1B73003   2.157  24.321   6.450
10184POPC   C2B73004   2.174  24.341   6.750
10184POPC   C3B73005   2.113  24.323   7.050
10184POPC   C4B73006   2.187  24.337   7.350
10185POPC   NC373007  36.868   5.828   5.550
10185POPC   PO473008  36.944   5.852   5.850
10185POPC   GL173009  36.916   5.857   6.150
10185POPC   GL273010  36.893   5.744   6.150
10185POPC   C1A73011  36.921   5.820   6.450
10185POPC   D2A73012  36.918   5.903   6.750
10185POPC   C3A73013  36.911   5.877   7.050
10185POPC   C4A73014  36.886   5.834   7.350
10185POPC   C1B73015  36.891   5.630   6.450
10185POPC   C2B73016  36.834   5.604   6.750
10185POPC   C3B73017  36.867   5.574   7.050
10185POPC   C4B73018  36.842   5.648   7.350
10186POPC   NC373019  37.680  24.444   5.550
10186POPC   PO473020  37.663  24.505   5.850
10186POPC   GL173021  37.703  24.505   6.150
10186POPC   GL273022  37.737  24.431   6.150
10186POPC   C1A73023  37.684  24.441   6.450
10186POPC   D2A73024  37.724  24.468   6.750
10186POPC   C3A73025  37.719  24.494   7.050
10186POPC   C4A73026  37.668  24.466   7.350
10186POPC   C1B73027  37.853  24.266   6.450
10186POPC   C2B73028  37.869  24.291   6.750
10186POPC   C3B73029  37.882  24.354   7.050
10186POPC   C4B73030  37.880  24.299   7.350
10187POPC   NC373031  24.525  19.817   5.550
10187POPC   PO473032  24.500  19.869   5.850
10187POPC   GL173033  24.462  19.866   6.150
10187POPC   GL273034  24.432  19.703   6.150
10187POPC   C1A73035  24.524  19.854   6.450
10187POPC   D2A73036  24.480  19.795   6.750
10187POPC   C3A73037  24.479  19.876   7.050
10187POPC   C4A73038  24.536  19.879   7.350
10187POPC   C1B73039  24.382  19.642   6.450
10187POPC   C2B73040  24.388  19.593   6.750
10187POPC   C3B73041  24.379  19.567   7.050
10187POPC   C4B73042  24.389  19.605   7.350
10188POPC   NC373043  23.740  42.289   5.550
10188POPC   PO473044  23.686  42.380   5.850
10188POPC   GL173045  23.760  42.297   6.150
10188POPC   GL273046  23.768  42.277   6.150
10188POPC   C1A73047  23.763  42.365   6.450
10188POPC   D2A73048  23.737  42.317   6.750
10188POPC   C3A73049  23.758  42.355   7.050
10188POPC   C4A73050  23.727  42.383   7.350
10188POPC   C1B73051  23.935  42.141   6.450
10188POPC   C2B73052  23.904  42.221   6.750
10188POPC   C3B73053  23.948  42.140   7.050
10188POPC   C4B73054  23.912  42.146   7.350
10189POPC   NC373055  32.259  23.687   5.550
10189POPC   PO473056  32.272  23.699   5.850
10189POPC   GL173057  32.274  23.754   6.150
10189POPC   GL273058  32.370  23.802   6.150
10189POPC   C1A73059  32.207  23.705   6.450
10189POPC   D2A73060  32.264  23.666   6.750
10189POPC   C3A73061  32.217  23.672   7.050
10189POPC   C4A73062  32.223  23.684   7.350
10189POPC   C1B73063  32.427  23.851   6.450
10189POPC   C2B73064  32.418  23.897   6.750
10189POPC   C3B73065  32.489  23.890   7.050
10189POPC   C4B73066  32.499  23.858   7.350
10190POPC   NC373067  36.173   3.568   5.550
10190POPC   PO473068  36.144   3.512   5.850
10190POPC   GL173069  36.099   3.573   6.150
10190POPC   GL273070  36.091   3.397   6.150
10190POPC   C1A73071  36.146   3.511   6.450
10190POPC   D2A73072  36.132   3.511   6.750
10190POPC   C3A73073  36.104   3.571   7.050
10190POPC   C4A73074  36.112   3.493   7.350
10190POPC   C1B73075  35.980   3.346   6.450
10190POPC   C2B73076  35.936   3.359   6.750
10190POPC   C3B73077  35.992   3.391   7.050
10190POPC   C4B73078  35.966   3.348   7.350
10191POPC   NC373079  26.859  41.521   5.550
10191POPC   PO473080  26.846  41.522   5.850
10191POPC   GL173081  26.809  41.529   6.150
10191POPC   GL273082  26.843  41.450   6.150
10191POPC   C1A73083  26.773  41.547   6.450
10191POPC   D2A73084  26.835  41.540   6.750
10191POPC   C3A73085  26.817  41.561   7.050
10191POPC   C4A73086  26.851  41.571   7.350
10191POPC   C1B73087  26.822  41.270   6.450
10191POPC   C2B73088  26.859  41.339   6.750
10191POPC   C3B73089  26.861  41.301   7.050
10191POPC   C4B73090  26.806  41.318   7.350
10192POPC   NC373091   8.984  18.281   5.550
10192POPC   PO473092   8.996  18.304   5.850
10192POPC   GL173093   8.965  18.242   6.150
10192POPC   GL273094   9.026  18.403   6.150
10192POPC   C1A73095   8.942  18.268   6.450
10192POPC   D2A73096   9.012  18.316   6.750
10192POPC   C3A73097   8.987  18.242   7.050
10192POPC   C4A73098   8.946  18.252   7.350
10192POPC   C1B73099   9.158  18.467   6.450
10192POPC   C2B73100   9.161  18.404   6.750
10192POPC   C3B73101   9.145  18.484   7.050
10192POPC   C4B73102   9.131  18.488   7.350
10193POPC   NC373103  16.740  37.658   5.550
10193POPC   PO473104  16.688  37.717   5.850
10193POPC   GL173105  16.731  37.660   6.150
10193POPC   GL273106  16.768  37.515   6.150
10193POPC   C1A73107  16.767  37.716   6.450
10193POPC   D2A73108  16.771  37.659   6.750
10193POPC   C3A73109  16.765  37.632   7.050
10193POPC   C4A73110  16.690  37.725   7.350
10193POPC   C1B73111  16.761  37.463   6.450
10193POPC   C2B73112  16.699  37.460   6.750
10193POPC   C3B73113  16.756  37.445   7.050
10193POPC   C4B73114  16.675  37.431   7.350
10194POPC   NC373115  26.823   2.740   5.550
10194POPC   PO473116  26.769   2.788   5.850
10194POPC   GL173117  26.846   2.763   6.150
10194POPC   GL273118  26.925   2.881   6.150
10194POPC   C1A73119  26.805   2.792   6.450
10194POPC   D2A73120  26.776   2.731   6.750
10194POPC   C3A73121  26.847   2.738   7.050
10194POPC   C4A73122  26.807   2.773   7.350
10194POPC   C1B73123  27.004   2.930   6.450
10194POPC   C2B73124  26.967   2.977   6.750
10194POPC   C3B73125  27.000   2.962   7.050
10194POPC   C4B73126  27.027   2.967   7.350
10195POPC   NC373127  43.078   7.408   5.550
10195POPC   PO473128  43.154   7.422   5.850
10195POPC   GL173129  43.158   7.455   6.150
10195POPC   GL273130  43.250   7.417   6.150
10195POPC   C1A73131  43.123   7.399   6.450
10195POPC   D2A73132  43.084   7.464   6.750
10195POPC   C3A73133  43.079   7.382   7.050
10195POPC   C4A73134  43.144   7.453   7.350
10195POPC   C1B73135  43.313   7.354   6.450
10195POPC   C2B73136  43.373   7.325   6.750
10195POPC   C3B73137  43.321   7.346   7.050
10195POPC   C4B73138  43.339   7.375   7.350
10196POPC   NC373139  20.610  24.481   5.550
10196POPC   PO473140  20.634  24.487   5.850
10196POPC   GL173141  20.565  24.500   6.150
10196POPC   GL273142  20.513  24.576   6.150
10196POPC   C1A73143  20.650  24.474   6.450
10196POPC   D2A73144  20.563  24.486   6.750
10196POPC   C3A73145  20.613  24.528   7.050
10196POPC   C4A73146  20.622  24.517   7.350
10196POPC   C1B73147  20.419  24.621   6.450
10196POPC   C2B73148  20.370  24.623   6.750
10196POPC   C3B73149  20.437  24.589   7.050
10196POPC   C4B73150  20.433  24.632   7.350
10197POPC   NC373151  10.572  26.029   5.550
10197POPC   PO473152  10.494  26.043   5.850
10197POPC   GL173153  10.509  26.053   6.150
10197POPC   GL273154  10.523  26.166   6.150
10197POPC   C1A73155  10.548  26.019   6.450
10197POPC   D2A73156  10.500  26.030   6.750
10197POPC   C3A73157  10.549  26.060   7.050
10197POPC   C4A73158  10.570  26.028   7.350
10197POPC   C1B73159  10.465  26.234   6.450
10197POPC   C2B73160  10.390  26.260   6.750
10197POPC   C3B73161  10.386  26.308   7.050
10197POPC   C4B73162  10.421  26.267   7.350
10198POPC   NC373163  28.348   2.726   5.550
10198POPC   PO473164  28.345   2.728   5.850
10198POPC   GL173165  28.344   2.752   6.150
10198POPC   GL273166  28.285   2.638   6.150
10198POPC   C1A73167  28.361   2.748   6.450
10198POPC   D2A73168  28.414   2.803   6.750
10198POPC   C3A73169  28.355   2.756   7.050
10198POPC   C4A73170  28.331   2.741   7.350
10198POPC   C1B73171  28.183   2.638   6.450
10198POPC   C2B73172  28.138   2.606   6.750
10198POPC   C3B73173  28.206   2.636   7.050
10198POPC   C4B73174  28.133   2.628   7.350
10199POPC   NC373175   7.437  32.979   5.550
10199POPC   PO473176   7.423  33.038   5.850
10199POPC   GL173177   7.378  33.051   6.150
10199POPC   GL273178   7.539  32.971   6.150
10199POPC   C1A73179   7.374  33.010   6.450
10199POPC   D2A73180   7.464  33.033   6.750
10199POPC   C3A73181   7.386  33.018   7.050
10199POPC   C4A73182   7.407  32.983   7.350
10199POPC   C1B73183   7.683  32.937   6.450
10199POPC   C2B73184   7.698  32.986   6.750
10199POPC   C3B73185   7.697  32.955   7.050
10199POPC   C4B73186   7.638  32.935   7.350
10200POPC   NC373187  26.057  32.213   5.550
10200POPC   PO473188  26.007  32.208   5.850
10200POPC   GL173189  26.028  32.283   6.150
10200POPC   GL273190  26.214  32.218   6.150
10200POPC   C1A73191  26.048  32.255   6.450
10200POPC   D2A73192  26.066  32.295   6.750
10200POPC   C3A73193  26.011  32.266   7.050
10200POPC   C4A73194  26.067  32.229   7.350
10200POPC   C1B73195  26.252  32.236   6.450
10200POPC   C2B73196  26.281  32.224   6.750
10200POPC   C3B73197  26.272  32.225   7.050
10200POPC   C4B73198  26.263  32.182   7.350
10201POPC   NC373199   9.737  29.883   5.550
10201POPC   PO473200   9.728  29.970   5.850
10201POPC   GL173201   9.778  29.968   6.150
10201POPC   GL273202   9.887  29.897   6.150
10201POPC   C1A73203   9.796  29.969   6.450
10201POPC   D2A73204   9.708  29.901   6.750
10201POPC   C3A73205   9.705  29.877   7.050
10201POPC   C4A73206   9.769  29.936   7.350
10201POPC   C1B73207   9.989  29.850   6.450
10201POPC   C2B73208  10.019  29.887   6.750
10201POPC   C3B73209  10.000  29.904   7.050
10201POPC   C4B73210  10.020  29.850   7.350
10202POPC   NC373211  32.269  30.738   5.550
10202POPC   PO473212  32.269  30.716   5.850
10202POPC   GL173213  32.286  30.660   6.150
10202POPC   GL273214  32.317  30.614   6.150
10202POPC   C1A73215  32.298  30.698   6.450
10202POPC   D2A73216  32.206  30.728   6.750
10202POPC   C3A73217  32.291  30.744   7.050
10202POPC   C4A73218  32.247  30.712   7.350
10202POPC   C1B73219  32.460  30.480   6.450
10202POPC   C2B73220  32.415  30.512   6.750
10202POPC   C3B73221  32.381  30.520   7.050
10202POPC   C4B73222  32.369  30.481   7.350
10203POPC   NC373223  18.302  15.207   5.550
10203POPC   PO473224  18.248  15.224   5.850
10203POPC   GL173225  18.315  15.158   6.150
10203POPC   GL273226  18.377  15.169   6.150
10203POPC   C1A73227  18.310  15.167   6.450
10203POPC   D2A73228  18.271  15.224   6.750
10203POPC   C3A73229  18.251  15.207   7.050
10203POPC   C4A73230  18.251  15.221   7.350
10203POPC   C1B73231  18.498  15.163   6.450
10203POPC   C2B73232  18.542  15.153   6.750
10203POPC   C3B73233  18.557  15.111   7.050
10203POPC   C4B73234  18.519  15.083   7.350
10204POPC   NC373235  29.896   5.122   5.550
10204POPC   PO473236  29.941   5.052   5.850
10204POPC   GL173237  29.967   5.107   6.150
10204POPC   GL273238  29.954   4.929   6.150
10204POPC   C1A73239  29.953   5.122   6.450
10204POPC   D2A73240  29.951   5.069   6.750
10204POPC   C3A73241  29.880   5.051   7.050
10204POPC   C4A73242  29.897   5.111   7.350
10204POPC   C1B73243  29.953   4.889   6.450
10204POPC   C2B73244  30.028   4.859   6.750
10204POPC   C3B73245  30.031   4.884   7.050
10204POPC   C4B73246  29.971   4.836   7.350
10205POPC   NC373247   2.810   8.220   5.550
10205POPC   PO473248   2.795   8.209   5.850
10205POPC   GL173249   2.766   8.242   6.150
10205POPC   GL273250   2.670   8.132   6.150
10205POPC   C1A73251   2.741   8.235   6.450
10205POPC   D2A73252   2.792   8.209   6.750
10205POPC   C3A73253   2.793   8.171   7.050
10205POPC   C4A73254   2.742   8.153   7.350
10205POPC   C1B73255   2.494   8.191   6.450
10205POPC   C2B73256   2.559   8.152   6.750
10205POPC   C3B73257   2.561   8.154   7.050
10205POPC   C4B73258   2.553   8.195   7.350
10206POPC   NC373259  22.918  14.373   5.550
10206POPC   PO473260  22.974  14.375   5.850
10206POPC   GL173261  22.905  14.444   6.150
10206POPC   GL273262  23.023  14.260   6.150
10206POPC   C1A73263  22.889  14.391   6.450
10206POPC   D2A73264  22.964  14.364   6.750
10206POPC   C3A73265  22.985  14.382   7.050
10206POPC   C4A73266  22.891  14.357   7.350
10206POPC   C1B73267  23.048  14.181   6.450
10206POPC   C2B73268  23.018  14.142   6.750
10206POPC   C3B73269  23.006  14.146   7.050
10206POPC   C4B73270  23.056  14.136   7.350
10207POPC   NC373271  26.841   2.023   5.550
10207POPC   PO473272  26.815   1.975   5.850
10207POPC   GL173273  26.859   1.945   6.150
10207POPC   GL273274  26.720   1.974   6.150
10207POPC   C1A73275  26.817   1.965   6.450
10207POPC   D2A73276  26.802   1.971   6.750
10207POPC   C3A73277  26.769   2.021   7.050
10207POPC   C4A73278  26.796   1.946   7.350
10207POPC   C1B73279  26.553   2.023   6.450
10207POPC   C2B73280  26.550   1.983   6.750
10207POPC   C3B73281  26.553   1.961   7.050
10207POPC   C4B73282  26.612   1.961   7.350
10208POPC   NC373283   8.165  19.105   5.550
10208POPC   PO473284   8.244  19.066   5.850
10208POPC   GL173285   8.186  19.043   6.150
10208POPC   GL273286   8.047  19.084   6.150
10208POPC   C1A73287   8.182  19.017   6.450
10208POPC   D2A73288   8.188  19.056   6.750
10208POPC   C3A73289   8.211  19.045   7.050
10208POPC   C4A73290   8.162  19.060   7.350
10208POPC   C1B73291   7.902  19.050   6.450
10208POPC   C2B73292   7.932  19.037   6.750
10208POPC   C3B73293   7.922  19.011   7.050
10208POPC   C4B73294   7.978  19.075   7.350
10209POPC   NC373295  36.902  29.912   5.550
10209POPC   PO473296  36.919  29.950   5.850
10209POPC   GL173297  36.949  29.950   6.150
10209POPC   GL273298  36.843  29.764   6.150
10209POPC   C1A73299  36.929  29.923   6.450
10209POPC   D2A73300  36.923  29.921   6.750
10209POPC   C3A73301  36.908  29.905   7.050
10209POPC   C4A73302  36.900  29.953   7.350
10209POPC   C1B73303  36.887  29.660   6.450
10209POPC   C2B73304  36.872  29.677   6.750
10209POPC   C3B73305  36.858  29.650   7.050
10209POPC   C4B73306  36.842  29.653   7.350
10210POPC   NC373307  33.755   4.352   5.550
10210POPC   PO473308  33.818   4.333   5.850
10210POPC   GL173309  33.847   4.303   6.150
10210POPC   GL273310  33.827   4.209   6.150
10210POPC   C1A73311  33.775   4.295   6.450
10210POPC   D2A73312  33.827   4.349   6.750
10210POPC   C3A73313  33.819   4.319   7.050
10210POPC   C4A73314  33.787   4.350   7.350
10210POPC   C1B73315  33.832   4.084   6.450
10210POPC   C2B73316  33.842   4.110   6.750
10210POPC   C3B73317  33.847   4.071   7.050
10210POPC   C4B73318  33.841   4.088   7.350
10211POPC   NC373319  28.332  31.426   5.550
10211POPC   PO473320  28.417  31.472   5.850
10211POPC   GL173321  28.323  31.465   6.150
10211POPC   GL273322  28.454  31.574   6.150
10211POPC   C1A73323  28.369  31.495   6.450
10211POPC   D2A73324  28.388  31.428   6.750
10211POPC   C3A73325  28.401  31.476   7.050
10211POPC   C4A73326  28.373  31.458   7.350
10211POPC   C1B73327  28.514  31.663   6.450
10211POPC   C2B73328  28.573  31.665   6.750
10211POPC   C3B73329  28.556  31.642   7.050
10211POPC   C4B73330  28.574  31.705   7.350
10212POPC   NC373331  22.952  15.944   5.550
10212POPC   PO473332  22.966  15.991   5.850
10212POPC   GL173333  22.953  15.936   6.150
10212POPC   GL273334  22.952  16.033   6.150
10212POPC   C1A73335  22.984  15.952   6.450
10212POPC   D2A73336  22.948  15.980   6.750
10212POPC   C3A73337  22.971  15.905   7.050
10212POPC   C4A73338  22.938  15.908   7.350
10212POPC   C1B73339  23.089  16.164   6.450
10212POPC   C2B73340  23.070  16.153   6.750
10212POPC   C3B73341  23.106  16.150   7.050
10212POPC   C4B73342  23.083  16.182   7.350
10213POPC   NC373343  26.843   6.654   5.550
10213POPC   PO473344  26.782   6.656   5.850
10213POPC   GL173345  26.831   6.631   6.150
10213POPC   GL273346  26.724   6.659   6.150
10213POPC   C1A73347  26.840   6.671   6.450
10213POPC   D2A73348  26.842   6.669   6.750
10213POPC   C3A73349  26.850   6.616   7.050
10213POPC   C4A73350  26.819   6.652   7.350
10213POPC   C1B73351  26.605   6.624   6.450
10213POPC   C2B73352  26.581   6.658   6.750
10213POPC   C3B73353  26.548   6.679   7.050
10213POPC   C4B73354  26.603   6.648   7.350
10214POPC   NC373355  31.460  13.622   5.550
10214POPC   PO473356  31.467  13.659   5.850
10214POPC   GL173357  31.476  13.594   6.150
10214POPC   GL273358  31.597  13.707   6.150
10214POPC   C1A73359  31.507  13.675   6.450
10214POPC   D2A73360  31.494  13.596   6.750
10214POPC   C3A73361  31.501  13.631   7.050
10214POPC   C4A73362  31.443  13.620   7.350
10214POPC   C1B73363  31.744  13.756   6.450
10214POPC   C2B73364  31.736  13.713   6.750
10214POPC   C3B73365  31.734  13.678   7.050
10214POPC   C4B73366  31.721  13.671   7.350
10215POPC   NC373367  19.878   5.086   5.550
10215POPC   PO473368  19.792   5.109   5.850
10215POPC   GL173369  19.814   5.105   6.150
10215POPC   GL273370  19.757   5.146   6.150
10215POPC   C1A73371  19.849   5.123   6.450
10215POPC   D2A73372  19.834   5.058   6.750
10215POPC   C3A73373  19.849   5.096   7.050
10215POPC   C4A73374  19.842   5.107   7.350
10215POPC   C1B73375  19.646   5.170   6.450
10215POPC   C2B73376  19.608   5.216   6.750
10215POPC   C3B73377  19.596   5.154   7.050
10215POPC   C4B73378  19.613   5.149   7.350
10216POPC   NC373379  11.350  18.302   5.550
10216POPC   PO473380  11.325  18.311   5.850
10216POPC   GL173381  11.326  18.310   6.150
10216POPC   GL273382  11.377  18.326   6.150
10216POPC   C1A73383  11.337  18.241   6.450
10216POPC   D2A73384  11.349  18.328   6.750
10216POPC   C3A73385  11.322  18.295   7.050
10216POPC   C4A73386  11.289  18.276   7.350
10216POPC   C1B73387  11.427  18.425   6.450
10216POPC   C2B73388  11.430  18.481   6.750
10216POPC   C3B73389  11.514  18.477   7.050
10216POPC   C4B73390  11.444  18.513   7.350
10217POPC   NC373391  17.494  41.519   5.550
10217POPC   PO473392  17.513  41.532   5.850
10217POPC   GL173393  17.533  41.516   6.150
10217POPC   GL273394  17.634  41.524   6.150
10217POPC   C1A73395  17.493  41.603   6.450
10217POPC   D2A73396  17.482  41.591   6.750
10217POPC   C3A73397  17.545  41.515   7.050
10217POPC   C4A73398  17.478  41.522   7.350
10217POPC   C1B73399  17.715  41.533   6.450
10217POPC   C2B73400  17.742  41.475   6.750
10217POPC   C3B73401  17.707  41.487   7.050
10217POPC   C4B73402  17.757  41.521   7.350
10218POPC   NC373403   8.196  36.085   5.550
10218POPC   PO473404   8.241  36.118   5.850
10218POPC   GL173405   8.209  36.164   6.150
10218POPC   GL273406   8.140  36.271   6.150
10218POPC   C1A73407   8.152  36.134   6.450
10218POPC   D2A73408   8.164  36.168   6.750
10218POPC   C3A73409   8.236  36.143   7.050
10218POPC   C4A73410   8.230  36.107   7.350
10218POPC   C1B73411   8.082  36.373   6.450
10218POPC   C2B73412   8.043  36.402   6.750
10218POPC   C3B73413   8.122  36.322   7.050
10218POPC   C4B73414   8.061  36.398   7.350
10219POPC   NC373415  10.495  19.031   5.550
10219POPC   PO473416  10.529  19.067   5.850
10219POPC   GL173417  10.502  19.081   6.150
10219POPC   GL273418  10.657  19.072   6.150
10219POPC   C1A73419  10.478  19.082   6.450
10219POPC   D2A73420  10.523  19.067   6.750
10219POPC   C3A73421  10.550  19.066   7.050
10219POPC   C4A73422  10.481  19.085   7.350
10219POPC   C1B73423  10.787  19.142   6.450
10219POPC   C2B73424  10.784  19.172   6.750
10219POPC   C3B73425  10.783  19.101   7.050
10219POPC   C4B73426  10.747  19.121   7.350
10220POPC   NC373427  11.317  43.150   5.550
10220POPC   PO473428  11.322  43.127   5.850
10220POPC   GL173429  11.251  43.126   6.150
10220POPC   GL273430  11.343  43.050   6.150
10220POPC   C1A73431  11.266  43.096   6.450
10220POPC   D2A73432  11.265  43.064   6.750
10220POPC   C3A73433  11.318  43.064   7.050
10220POPC   C4A73434  11.261  43.081   7.350
10220POPC   C1B73435  11.398  42.921   6.450
10220POPC   C2B73436  11.433  42.921   6.750
10220POPC   C3B73437  11.430  42.865   7.050
10220POPC   C4B73438  11.459  42.875   7.350
10221POPC   NC373439   5.820  31.473   5.550
10221POPC   PO473440   5.874  31.477   5.850
10221POPC   GL173441   5.905  31.484   6.150
10221POPC   GL273442   5.931  31.383   6.150
10221POPC   C1A73443   5.861  31.458   6.450
10221POPC   D2A73444   5.901  31.441   6.750
10221POPC   C3A73445   5.918  31.519   7.050
10221POPC   C4A73446   5.918  31.465   7.350
10221POPC   C1B73447   6.017  31.309   6.450
10221POPC   C2B73448   6.064  31.328   6.750
10221POPC   C3B73449   6.081  31.343   7.050
10221POPC   C4B73450   6.046  31.283   7.350
10222POPC   NC373451  26.790  16.698   5.550
10222POPC   PO473452  26.861  16.752   5.850
10222POPC   GL173453  26.804  16.685   6.150
10222POPC   GL273454  26.881  16.807   6.150
10222POPC   C1A73455  26.817  16.724   6.450
10222POPC   D2A73456  26.772  16.693   6.750
10222POPC   C3A73457  26.846  16.736   7.050
10222POPC   C4A73458  26.812  16.690   7.350
10222POPC   C1B73459  27.018  16.922   6.450
10222POPC   C2B73460  26.988  16.916   6.750
10222POPC   C3B73461  27.058  16.862   7.050
10222POPC   C4B73462  27.016  16.881   7.350
10223POPC   NC373463   2.807  43.070   5.550
10223POPC   PO473464   2.716  43.125   5.850
10223POPC   GL173465   2.796  43.149   6.150
10223POPC   GL273466   2.715  43.018   6.150
10223POPC   C1A73467   2.767  43.125   6.450
10223POPC   D2A73468   2.815  43.120   6.750
10223POPC   C3A73469   2.764  43.133   7.050
10223POPC   C4A73470   2.737  43.134   7.350
10223POPC   C1B73471   2.535  42.940   6.450
10223POPC   C2B73472   2.621  42.906   6.750
10223POPC   C3B73473   2.538  42.987   7.050
10223POPC   C4B73474   2.543  42.971   7.350
10224POPC   NC373475  36.925  20.632   5.550
10224POPC   PO473476  36.882  20.573   5.850
10224POPC   GL173477  36.912  20.641   6.150
10224POPC   GL273478  36.972  20.684   6.150
10224POPC   C1A73479  36.947  20.562   6.450
10224POPC   D2A73480  36.885  20.653   6.750
10224POPC   C3A73481  36.872  20.632   7.050
10224POPC   C4A73482  36.926  20.598   7.350
10224POPC   C1B73483  37.074  20.826   6.450
10224POPC   C2B73484  37.046  20.809   6.750
10224POPC   C3B73485  37.119  20.814   7.050
10224POPC   C4B73486  37.101  20.795   7.350
10225POPC   NC373487   1.238  12.886   5.550
10225POPC   PO473488   1.192  12.881   5.850
10225POPC   GL173489   1.171  12.816   6.150
10225POPC   GL273490   1.192  12.730   6.150
10225POPC   C1A73491   1.186  12.873   6.450
10225POPC   D2A73492   1.234  12.849   6.750
10225POPC   C3A73493   1.210  12.851   7.050
10225POPC   C4A73494   1.228  12.857   7.350
10225POPC   C1B73495   1.155  12.633   6.450
10225POPC   C2B73496   1.159  12.615   6.750
10225POPC   C3B73497   1.182  12.604   7.050
10225POPC   C4B73498   1.191  12.606   7.350
10226POPC   NC373499  27.582  26.837   5.550
10226POPC   PO473500  27.561  26.840   5.850
10226POPC   GL173501  27.625  26.825   6.150
10226POPC   GL273502  27.651  26.925   6.150
10226POPC   C1A73503  27.545  26.784   6.450
10226POPC   D2A73504  27.622  26.819   6.750
10226POPC   C3A73505  27.553  26.821   7.050
10226POPC   C4A73506  27.572  26.866   7.350
10226POPC   C1B73507  27.634  27.101   6.450
10226POPC   C2B73508  27.686  27.100   6.750
10226POPC   C3B73509  27.657  27.019   7.050
10226POPC   C4B73510  27.680  27.097   7.350
10227POPC   NC373511  31.497   7.400   5.550
10227POPC   PO473512  31.473   7.381   5.850
10227POPC   GL173513  31.478   7.408   6.150
10227POPC   GL273514  31.496   7.251   6.150
10227POPC   C1A73515  31.442   7.386   6.450
10227POPC   D2A73516  31.452   7.379   6.750
10227POPC   C3A73517  31.432   7.404   7.050
10227POPC   C4A73518  31.493   7.399   7.350
10227POPC   C1B73519  31.465   7.187   6.450
10227POPC   C2B73520  31.514   7.133   6.750
10227POPC   C3B73521  31.505   7.216   7.050
10227POPC   C4B73522  31.489   7.206   7.350
10228POPC   NC373523  17.488  20.646   5.550
10228POPC   PO473524  17.491  20.652   5.850
10228POPC   GL173525  17.513  20.578   6.150
10228POPC   GL273526  17.421  20.670   6.150
10228POPC   C1A73527  17.459  20.568   6.450
10228POPC   D2A73528  17.469  20.616   6.750
10228POPC   C3A73529  17.471  20.634   7.050
10228POPC   C4A73530  17.505  20.564   7.350
10228POPC   C1B73531  17.347  20.834   6.450
10228POPC   C2B73532  17.417  20.863   6.750
10228POPC   C3B73533  17.382  20.872   7.050
10228POPC   C4B73534  17.401  20.788   7.350
10229POPC   NC373535  36.134  30.725   5.550
10229POPC   PO473536  36.152  30.652   5.850
10229POPC   GL173537  36.079  30.690   6.150
10229POPC   GL273538  36.222  30.604   6.150
10229POPC   C1A73539  36.087  30.682   6.450
10229POPC   D2A73540  36.109  30.689   6.750
10229POPC   C3A73541  36.105  30.676   7.050
10229POPC   C4A73542  36.087  30.648   7.350
10229POPC   C1B73543  36.295  30.545   6.450
10229POPC   C2B73544  36.339  30.538   6.750
10229POPC   C3B73545  36.284  30.502   7.050
10229POPC   C4B73546  36.286  30.555   7.350
10230POPC   NC373547  24.445   1.950   5.550
10230POPC   PO473548  24.452   1.963   5.850
10230POPC   GL173549  24.533   2.010   6.150
10230POPC   GL273550  24.419   1.998   6.150
10230POPC   C1A73551  24.487   2.010   6.450
10230POPC   D2A73552  24.456   1.971   6.750
10230POPC   C3A73553  24.496   2.016   7.050
10230POPC   C4A73554  24.525   2.012   7.350
10230POPC   C1B73555  24.216   2.101   6.450
10230POPC   C2B73556  24.264   2.104   6.750
10230POPC   C3B73557  24.253   2.116   7.050
10230POPC   C4B73558  24.257   2.113   7.350
10231POPC   NC373559  42.339  43.104   5.550
10231POPC   PO473560  42.355  43.096   5.850
10231POPC   GL173561  42.290  43.108   6.150
10231POPC   GL273562  42.419  43.032   6.150
10231POPC   C1A73563  42.334  43.090   6.450
10231POPC   D2A73564  42.339  43.062   6.750
10231POPC   C3A73565  42.359  43.141   7.050
10231POPC   C4A73566  42.348  43.150   7.350
10231POPC   C1B73567  42.507  42.965   6.450
10231POPC   C2B73568  42.525  42.989   6.750
10231POPC   C3B73569  42.592  42.987   7.050
10231POPC   C4B73570  42.592  43.000   7.350
10232POPC   NC373571   2.801  29.129   5.550
10232POPC   PO473572   2.806  29.140   5.850
10232POPC   GL173573   2.760  29.132   6.150
10232POPC   GL273574   2.925  29.148   6.150
10232POPC   C1A73575   2.771  29.153   6.450
10232POPC   D2A73576   2.796  29.160   6.750
10232POPC   C3A73577   2.744  29.170   7.050
10232POPC   C4A73578   2.725  29.158   7.350
10232POPC   C1B73579   2.979  29.242   6.450
10232POPC   C2B73580   3.044  29.207   6.750
10232POPC   C3B73581   2.996  29.214   7.050
10232POPC   C4B73582   3.003  29.172   7.350
10233POPC   NC373583  20.621  15.919   5.550
10233POPC   PO473584  20.606  15.994   5.850
10233POPC   GL173585  20.566  15.949   6.150
10233POPC   GL273586  20.545  15.895   6.150
10233POPC   C1A73587  20.583  15.958   6.450
10233POPC   D2A73588  20.636  15.941   6.750
10233POPC   C3A73589  20.603  15.982   7.050
10233POPC   C4A73590  20.643  15.925   7.350
10233POPC   C1B73591  20.430  15.812   6.450
10233POPC   C2B73592  20.404  15.835   6.750
10233POPC   C3B73593  20.380  15.775   7.050
10233POPC   C4B73594  20.417  15.810   7.350
10234POPC   NC373595  25.260  43.155   5.550
10234POPC   PO473596  25.254  43.089   5.850
10234POPC   GL173597  25.267  43.093   6.150
10234POPC   GL273598  25.187  43.011   6.150
10234POPC   C1A73599  25.220  43.065   6.450
10234POPC   D2A73600  25.315  43.130   6.750
10234POPC   C3A73601  25.239  43.094   7.050
10234POPC   C4A73602  25.272  43.137   7.350
10234POPC   C1B73603  25.026  42.948   6.450
10234POPC   C2B73604  25.074  42.910   6.750
10234POPC   C3B73605  25.078  42.909   7.050
10234POPC   C4B73606  25.093  42.984   7.350
10235POPC   NC373607   8.928  29.878   5.550
10235POPC   PO473608   9.007  29.895   5.850
10235POPC   GL173609   8.997  29.969   6.150
10235POPC   GL273610   8.825  29.975   6.150
10235POPC   C1A73611   9.012  29.911   6.450
10235POPC   D2A73612   8.971  29.892   6.750
10235POPC   C3A73613   8.987  29.896   7.050
10235POPC   C4A73614   9.010  29.878   7.350
10235POPC   C1B73615   8.715  29.987   6.450
10235POPC   C2B73616   8.753  29.990   6.750
10235POPC   C3B73617   8.781  29.972   7.050
10235POPC   C4B73618   8.781  30.064   7.350
10236POPC   NC373619  24.451  30.662   5.550
10236POPC   PO473620  24.499  30.730   5.850
10236POPC   GL173621  24.459  30.667   6.150
10236POPC   GL273622  24.464  30.542   6.150
10236POPC   C1A73623  24.515  30.659   6.450
10236POPC   D2A73624  24.506  30.721   6.750
10236POPC   C3A73625  24.514  30.653   7.050
10236POPC   C4A73626  24.492  30.671   7.350
10236POPC   C1B73627  24.471  30.475   6.450
10236POPC   C2B73628  24.487  30.485   6.750
10236POPC   C3B73629  24.494  30.402   7.050
10236POPC   C4B73630  24.451  30.406   7.350
10237POPC   NC373631  34.545   1.193   5.550
10237POPC   PO473632  34.608   1.210   5.850
10237POPC   GL173633  34.604   1.231   6.150
10237POPC   GL273634  34.403   1.215   6.150
10237POPC   C1A73635  34.623   1.222   6.450
10237POPC   D2A73636  34.604   1.189   6.750
10237POPC   C3A73637  34.526   1.191   7.050
10237POPC   C4A73638  34.590   1.172   7.350
10237POPC   C1B73639  34.285   1.225   6.450
10237POPC   C2B73640  34.342   1.211   6.750
10237POPC   C3B73641  34.305   1.244   7.050
10237POPC   C4B73642  34.365   1.258   7.350
10238POPC   NC373643   5.828   2.749   5.550
10238POPC   PO473644   5.843   2.812   5.850
10238POPC   GL173645   5.864   2.769   6.150
10238POPC   GL273646   5.790   2.707   6.150
10238POPC   C1A73647   5.896   2.734   6.450
10238POPC   D2A73648   5.841   2.724   6.750
10238POPC   C3A73649   5.910   2.736   7.050
10238POPC   C4A73650   5.827   2.798   7.350
10238POPC   C1B73651   5.722   2.570   6.450
10238POPC   C2B73652   5.663   2.611   6.750
10238POPC   C3B73653   5.704   2.572   7.050
10238POPC   C4B73654   5.747   2.544   7.350
10239POPC   NC373655  19.039   4.333   5.550
10239POPC   PO473656  19.038   4.306   5.850
10239POPC   GL173657  19.085   4.316   6.150
10239POPC   GL273658  19.173   4.439   6.150
10239POPC   C1A73659  19.026   4.293   6.450
10239POPC   D2A73660  19.081   4.306   6.750
10239POPC   C3A73661  19.040   4.287   7.050
10239POPC   C4A73662  19.078   4.300   7.350
10239POPC   C1B73663  19.189   4.485   6.450
10239POPC   C2B73664  19.146   4.512   6.750
10239POPC   C3B73665  19.185   4.553   7.050
10239POPC   C4B73666  19.173   4.512   7.350
10240POPC   NC373667  36.855  44.631   5.550
10240POPC   PO473668  36.923  44.704   5.850
10240POPC   GL173669  36.914  44.704   6.150
10240POPC   GL273670  36.916  44.784   6.150
10240POPC   C1A73671  36.937  44.706   6.450
10240POPC   D2A73672  36.952  44.666   6.750
10240POPC   C3A73673  36.946  44.668   7.050
10240POPC   C4A73674  36.924  44.679   7.350
10240POPC   C1B73675  36.998  44.890   6.450
10240POPC   C2B73676  36.919  44.866   6.750
10240POPC   C3B73677  36.948  44.870   7.050
10240POPC   C4B73678  36.980  44.878   7.350
10241POPC   NC373679   5.877  38.427   5.550
10241POPC   PO473680   5.842  38.418   5.850
10241POPC   GL173681   5.907  38.425   6.150
10241POPC   GL273682   5.804  38.499   6.150
10241POPC   C1A73683   5.853  38.454   6.450
10241POPC   D2A73684   5.826  38.456   6.750
10241POPC   C3A73685   5.837  38.467   7.050
10241POPC   C4A73686   5.882  38.407   7.350
10241POPC   C1B73687   5.643  38.621   6.450
10241POPC   C2B73688   5.666  38.600   6.750
10241POPC   C3B73689   5.643  38.580   7.050
10241POPC   C4B73690   5.670  38.622   7.350
10242POPC   NC373691   7.459  39.978   5.550
10242POPC   PO473692   7.392  40.015   5.850
10242POPC   GL173693   7.428  39.980   6.150
10242POPC   GL273694   7.333  39.917   6.150
10242POPC   C1A73695   7.427  40.056   6.450
10242POPC   D2A73696   7.385  39.975   6.750
10242POPC   C3A73697   7.393  40.032   7.050
10242POPC   C4A73698   7.373  39.963   7.350
10242POPC   C1B73699   7.315  39.764   6.450
10242POPC   C2B73700   7.271  39.808   6.750
10242POPC   C3B73701   7.233  39.781   7.050
10242POPC   C4B73702   7.285  39.834   7.350
10243POPC   NC373703  43.064  25.275   5.550
10243POPC   PO473704  43.150  25.229   5.850
10243POPC   GL173705  43.110  25.251   6.150
10243POPC   GL273706  42.958  25.263   6.150
10243POPC   C1A73707  43.096  25.281   6.450
10243POPC   D2A73708  43.093  25.249   6.750
10243POPC   C3A73709  43.111  25.226   7.050
10243POPC   C4A73710  43.090  25.295   7.350
10243POPC   C1B73711  42.891  25.322   6.450
10243POPC   C2B73712  42.884  25.321   6.750
10243POPC   C3B73713  42.874  25.285   7.050
10243POPC   C4B73714  42.851  25.324   7.350
10244POPC   NC373715  33.034   6.664   5.550
10244POPC   PO473716  33.048   6.686   5.850
10244POPC   GL173717  33.061   6.684   6.150
10244POPC   GL273718  32.925   6.517   6.150
10244POPC   C1A73719  33.038   6.681   6.450
10244POPC   D2A73720  33.020   6.657   6.750
10244POPC   C3A73721  32.974   6.631   7.050
10244POPC   C4A73722  33.022   6.610   7.350
10244POPC   C1B73723  32.879   6.485   6.450
10244POPC   C2B73724  32.828   6.529   6.750
10244POPC   C3B73725  32.860   6.529   7.050
10244POPC   C4B73726  32.855   6.507   7.350
10245POPC   NC373727  29.126  33.831   5.550
10245POPC   PO473728  29.184  33.837   5.850
10245POPC   GL173729  29.192  33.847   6.150
10245POPC   GL273730  29.210  33.662   6.150
10245POPC   C1A73731  29.119  33.755   6.450
10245POPC   D2A73732  29.162  33.795   6.750
10245POPC   C3A73733  29.194  33.753   7.050
10245POPC   C4A73734  29.143  33.775   7.350
10245POPC   C1B73735  29.176  33.547   6.450
10245POPC   C2B73736  29.208  33.558   6.750
10245POPC   C3B73737  29.159  33.581   7.050
10245POPC   C4B73738  29.213  33.583   7.350
10246POPC   NC373739  33.771  22.927   5.550
10246POPC   PO473740  33.768  22.916   5.850
10246POPC   GL173741  33.772  22.985   6.150
10246POPC   GL273742  33.668  22.912   6.150
10246POPC   C1A73743  33.810  22.915   6.450
10246POPC   D2A73744  33.803  22.982   6.750
10246POPC   C3A73745  33.805  22.970   7.050
10246POPC   C4A73746  33.767  22.960   7.350
10246POPC   C1B73747  33.567  22.837   6.450
10246POPC   C2B73748  33.560  22.913   6.750
10246POPC   C3B73749  33.573  22.902   7.050
10246POPC   C4B73750  33.575  22.871   7.350
10247POPC   NC373751  16.739  29.190   5.550
10247POPC   PO473752  16.715  29.118   5.850
10247POPC   GL173753  16.733  29.153   6.150
10247POPC   GL273754  16.638  29.120   6.150
10247POPC   C1A73755  16.719  29.128   6.450
10247POPC   D2A73756  16.759  29.117   6.750
10247POPC   C3A73757  16.751  29.111   7.050
10247POPC   C4A73758  16.741  29.155   7.350
10247POPC   C1B73759  16.542  29.040   6.450
10247POPC   C2B73760  16.525  29.053   6.750
10247POPC   C3B73761  16.485  29.108   7.050
10247POPC   C4B73762  16.487  29.044   7.350
10248POPC   NC373763  39.269  20.601   5.550
10248POPC   PO473764  39.206  20.587   5.850
10248POPC   GL173765  39.195  20.612   6.150
10248POPC   GL273766  39.260  20.510   6.150
10248POPC   C1A73767  39.236  20.628   6.450
10248POPC   D2A73768  39.187  20.659   6.750
10248POPC   C3A73769  39.274  20.570   7.050
10248POPC   C4A73770  39.277  20.653   7.350
10248POPC   C1B73771  39.261  20.371   6.450
10248POPC   C2B73772  39.306  20.366   6.750
10248POPC   C3B73773  39.276  20.411   7.050
10248POPC   C4B73774  39.333  20.406   7.350
10249POPC   NC373775  32.247  25.230   5.550
10249POPC   PO473776  32.234  25.226   5.850
10249POPC   GL173777  32.250  25.315   6.150
10249POPC   GL273778  32.106  25.248   6.150
10249POPC   C1A73779  32.246  25.312   6.450
10249POPC   D2A73780  32.238  25.241   6.750
10249POPC   C3A73781  32.260  25.287   7.050
10249POPC   C4A73782  32.243  25.288   7.350
10249POPC   C1B73783  32.024  25.281   6.450
10249POPC   C2B73784  31.955  25.277   6.750
10249POPC   C3B73785  32.021  25.208   7.050
10249POPC   C4B73786  31.991  25.253   7.350
10250POPC   NC373787   5.075  14.378   5.550
10250POPC   PO473788   5.097  14.431   5.850
10250POPC   GL173789   5.064  14.437   6.150
10250POPC   GL273790   5.002  14.371   6.150
10250POPC   C1A73791   5.114  14.427   6.450
10250POPC   D2A73792   5.127  14.453   6.750
10250POPC   C3A73793   5.050  14.354   7.050
10250POPC   C4A73794   5.125  14.449   7.350
10250POPC   C1B73795   4.827  14.376   6.450
10250POPC   C2B73796   4.868  14.391   6.750
10250POPC   C3B73797   4.852  14.368   7.050
10250POPC   C4B73798   4.867  14.379   7.350
10251POPC   NC373799  27.609  12.866   5.550
10251POPC   PO473800  27.635  12.814   5.850
10251POPC   GL173801  27.609  12.876   6.150
10251POPC   GL273802  27.673  12.975   6.150
10251POPC   C1A73803  27.553  12.851   6.450
10251POPC   D2A73804  27.590  12.822   6.750
10251POPC   C3A73805  27.629  12.893   7.050
10251POPC   C4A73806  27.606  12.857   7.350
10251POPC   C1B73807  27.728  13.087   6.450
10251POPC   C2B73808  27.693  13.128   6.750
10251POPC   C3B73809  27.694  13.081   7.050
10251POPC   C4B73810  27.748  13.110   7.350
10252W        W73811  40.947   3.801  10.994
10253W        W73812  12.139  44.452  14.494
10254W        W73813  16.098  43.905  10.443
10255W        W73814  15.106  15.786   4.310
10256W        W73815  42.956  20.060  11.994
10257W        W73816  20.153  31.068   3.258
10258W        W73817  25.976   3.765   4.186
10259W        W73818  24.115  41.429   0.843
10260W        W73819   2.254  32.920   2.409
10261W        W73820  22.665  23.166   2.703
10262W        W73821  14.221  12.302  12.922
10263W        W73822  25.541  22.677   4.150
10264W        W73823  39.034  22.244  12.952
10265W        W73824  35.477   6.704   2.390
10266W        W73825  10.361   9.371   3.376
10267W        W73826  37.902   8.750   4.138
10268W        W73827  41.319  14.181  12.855
10269W        W73828   8.692  40.999  11.859
10270W        W73829  16.600  36.033   1.363
10271W        W73830  22.054   0.439  14.329
10272W        W73831  11.812  12.610   1.751
10273W        W73832  33.527  22.530  14.311
10274W        W73833  12.694  23.653  11.582
10275W        W73834   1.936  22.696   3.866
10276W        W73835  14.292   4.939   3.725
10277W        W73836   5.425  33.528   1.390
10278W        W73837   1.359  13.607   4.613
10279W        W73838  35.058   1.826   1.369
10280W        W73839   2.379  19.208  12.435
10281W        W73840   1.884  12.751   2.706
10282W        W73841  18.646  11.297   4.127
10283W        W73842   2.292  29.537  12.529
10284W        W73843   4.435   3.416   2.254
10285W        W73844   2.947  34.531  12.885
10286W        W73845  38.393   9.781  12.462
10287W        W73846   0.880   8.297   3.186
10288W        W73847   3.738  15.654  11.418
10289W        W73848  32.493  21.099   3.690
10290W        W73849  37.387  22.669  12.388
10291W        W73850   8.793  16.270  13.879
10292W        W73851  23.160   5.705   0.816
10293W        W73852  40.049  19.177   3.817
10294W        W73853  17.298  20.583  13.898
10295W        W73854  34.072   8.800  13.959
10296W        W73855  43.812  25.523   2.799
10297W        W73856   5.430  21.663   1.261
10298W        W73857  28.929  32.546   2.186
10299W        W73858  24.215   1.407  14.980
10300W        W73859  25.548  31.932  12.351
10301W        W73860  30.505   0.752   4.801
10302W        W73861  22.515  40.804   0.387
10303W        W73862  20.137  17.113  12.382
10304W        W73863  32.001  34.984  11.092
10305W        W73864   6.687  32.949   4.287
10306W        W73865  41.789  20.619  14.889
10307W        W73866  17.653  16.135   1.320
10308W        W73867  14.684   2.870  11.081
10309W        W73868  22.234  27.460   4.735
10310W        W73869   4.383  34.883  14.843
10311W        W73870  44.957  41.354  11.923
10312W        W73871   4.317   7.848  14.767
10313W        W73872   0.818  30.495   2.744
10314W        W73873  43.402  12.853  12.906
10315W        W73874  23.722   2.467   1.213
10316W        W73875   8.694  22.141  12.505
10317W        W73876  33.473  38.037   5.234
10318W        W73877  21.519  42.438  10.920
10319W        W73878   6.423   3.753   2.365
10320W        W73879  11.136  37.373   4.679
10321W        W73880  21.558  31.024   5.122
10322W        W73881   9.199  21.231   0.409
10323W        W73882   2.273   4.818   1.758
10324W        W73883  40.054  10.850   2.203
10325W        W73884  29.153  15.739   0.358
10326W        W73885   7.236  11.739   1.451
10327W        W73886   1.740  14.337  11.111
10328W        W73887   8.260  42.419  14.856
10329W        W73888  19.566  35.372  15.000
10330W        W73889   9.859  41.515  10.986
10331W        W73890  39.999   7.286  14.321
10332W        W73891  24.556  22.124  10.115
10333W        W73892  24.221   9.276  10.056
10334W        W73893   0.463  34.103  13.974
10335W        W73894  34.883  27.949   2.261
10336W        W73895   2.905  11.336   0.938
10337W        W73896  27.501  42.331  11.479
10338W        W73897  30.986  29.476   2.391
10339W        W73898  43.924   5.705  14.461
10340W        W73899   3.732  25.532   1.243
10341W        W73900  12.635  18.294   1.260
10342W        W73901  13.811  25.171  10.577
10343W        W73902  34.405  39.549   4.746
10344W        W73903  10.714  15.274   5.174
10345W        W73904  35.515  32.920   9.576
10346W        W73905  42.500  26.630  12.083
10347W        W73906  43.468  40.820  12.882
10348W        W73907  10.255  15.287  14.508
10349W        W73908  26.663  43.392   0.275
10350W        W73909  19.746  31.557  11.924
10351W        W73910  12.838  25.535   1.280
10352W        W73911  18.636   0.436   3.285
10353W        W73912  26.081  10.308  13.386
10354W        W73913  27.661   1.289   1.767
10355W        W73914   2.938  17.306   1.410
10356W        W73915   7.171   8.763  11.059
10357W        W73916  16.573  30.126  10.497
10358W        W73917  37.002  36.863  10.911
10359W        W73918   7.344  23.168  13.449
10360W        W73919  36.955  10.185   5.579
10361W        W73920   8.329  32.962   1.401
10362W        W73921  28.013  31.476  10.901
10363W        W73922  14.230  21.594   3.334
10364W        W73923   4.743  27.093   4.272
10365W        W73924  12.629  37.552  11.485
10366W        W73925  27.089  35.898   0.885
10367W        W73926   9.831   4.901  12.549
10368W        W73927  32.898  41.535  14.490
10369W        W73928  30.956  26.104   2.225
10370W        W73929   4.328   1.818  13.880
10371W        W73930  41.834  14.337   1.703
10372W        W73931   2.255   6.428   0.956
10373W        W73932  29.552  18.085  13.435
10374W        W73933  44.266  22.123   2.851
10375W        W73934  10.373  35.439   3.743
10376W        W73935  41.378   1.762   4.173
10377W        W73936  11.775  29.991   1.850
10378W        W73937   3.239   8.331  12.998
10379W        W73938  21.202  32.120   1.857
10380W        W73939  43.399  20.261   0.423
10381W        W73940  41.845  25.635  12.835
10382W        W73941   2.743  12.697  11.104
10383W        W73942  13.136  18.058  11.607
10384W        W73943  13.105  38.360   0.370
10385W        W73944  36.024  35.917   1.407
10386W        W73945   7.304  26.995   3.329
10387W        W73946  31.050  38.891  12.877
10388W        W73947  43.963  28.505   2.714
10389W        W73948   0.484  22.537   0.262
10390W        W73949  23.512  17.697  10.413
10391W        W73950  17.209  40.799   0.467
10392W        W73951   0.424  43.012   1.342
10393W        W73952   0.938   9.354  11.452
10394W        W73953  16.802  44.754   3.765
10395W        W73954  28.130  16.802   0.759
10396W        W73955  30.157  25.177   0.776
10397W        W73956  41.803  35.055   1.434
10398W        W73957   4.752  10.170   3.227
10399W        W73958  31.058  42.778   1.229
10400W        W73959  41.338  27.108   1.382
10401W        W73960   0.338  36.574   3.862
10402W        W73961  16.569   2.760  12.876
10403W        W73962  42.862   8.241   0.819
10404W        W73963  25.710  38.859   4.787
10405W        W73964   1.317   3.287   1.392
10406W        W73965  37.858  10.850   0.830
10407W        W73966   9.345   4.781   0.397
10408W        W73967  36.006  21.647   1.243
10409W        W73968  15.772  33.514   1.396
10410W        W73969   8.219   4.720   3.205
10411W        W73970  17.067   6.887  14.975
10412W        W73971  17.747  16.708   0.383
10413W        W73972   3.306  37.500   3.864
10414W        W73973  10.722  43.830  11.459
10415W        W73974  25.593  42.290  12.956
10416W        W73975  11.278  25.056   2.211
10417W        W73976   3.354  13.764  14.340
10418W        W73977   9.204  43.767   1.818
10419W        W73978  10.690  28.600   2.679
10420W        W73979  29.542   3.790  12.043
10421W        W73980  14.155  21.647   2.409
10422W        W73981  39.554  41.443  10.489
10423W        W73982   2.920  16.672  11.459
10424W        W73983  14.671  18.149  12.464
10425W        W73984  37.081  22.614  12.063
10426W        W73985  18.573  21.592   0.877
10427W        W73986  36.006   5.766   3.730
10428W        W73987   4.791  27.161  13.904
10429W        W73988   9.831  24.533  14.866
10430W        W73989   2.289  25.082   3.740
10431W        W73990  17.165  33.023   4.157
10432W        W73991  40.335  27.563   1.328
10433W        W73992  35.565  19.252  14.828
10434W        W73993  37.065  22.037  13.046
10435W        W73994  28.108  14.230  11.887
10436W        W73995  33.884  27.653  14.289
10437W        W73996  29.049  39.380  12.019
10438W        W73997  44.289  40.818   2.389
10439W        W73998   1.976   5.825   1.244
10440W        W73999   6.340  21.091   4.319
10441W        W74000  27.659   6.239   2.738
10442W        W74001  44.804   5.277  11.605
10443W        W74002  40.429  40.848   4.344
10444W        W74003  16.083  17.115  13.055
10445W        W74004  30.412   2.746  11.396
10446W        W74005   9.306   5.898   0.366
10447W        W74006  43.849  36.936   4.120
10448W        W74007  22.170  36.460  13.487
10449W        W74008  11.678  21.253   1.802
10450W        W74009  35.445  26.690  13.373
10451W        W74010  14.210  31.583   0.458
10452W        W74011   5.770  25.191  12.533
10453W        W74012   3.891   2.943  12.452
10454W        W74013  34.111  40.445   0.820
10455W        W74014  23.671  41.334  14.449
10456W        W74015  38.347  22.591  12.999
10457W        W74016  41.422  37.060   3.304
10458W        W74017  42.470   0.819   2.340
10459W        W74018  14.798   2.903  14.510
10460W        W74019   1.386  24.593   0.859
10461W        W74020  12.840  20.721  10.113
10462W        W74021   1.943  22.509   3.154
10463W        W74022  19.741  41.935  14.025
10464W        W74023   4.307   6.764  11.855
10465W        W74024  17.208  32.007  12.466
10466W        W74025   0.892   4.759  11.108
10467W        W74026  21.026  22.238   9.970
10468W        W74027  29.550  13.633   2.328
10469W        W74028  18.606   4.779   2.794
10470W        W74029  34.021  24.652  12.874
10471W        W74030  24.222   8.290   3.712
10472W        W74031  27.193  31.969   3.791
10473W        W74032  22.740  21.635  10.473
10474W        W74033  25.055  42.834   0.404
10475W        W74034  39.005  12.312  12.482
10476W        W74035  25.621   5.286  14.311
10477W        W74036  39.996  18.232  14.960
10478W        W74037  25.056  31.902   2.294
10479W        W74038  36.857  42.400  12.066
10480W        W74039   6.275  36.065   9.928
10481W        W74040  13.673  20.667  14.309
10482W        W74041  14.228  31.148  13.548
10483W        W74042  13.776   1.916  11.539
10484W        W74043  44.891  25.046  14.767
10485W        W74044  28.138  21.150   0.850
10486W        W74045  15.819  16.781  12.008
10487W        W74046  29.583  39.976   1.343
10488W        W74047  30.416   4.247   3.697
10489W        W74048  17.246  30.028  13.336
10490W        W74049  15.254   5.923   4.647
10491W        W74050  31.057  15.693   4.769
10492W        W74051   0.270  40.866   2.764
10493W        W74052  31.541  22.696   1.697
10494W        W74053  38.359  18.133  13.023
10495W        W74054  26.598  10.227  10.003
10496W        W74055  32.989  40.918   4.241
10497W        W74056  28.526  22.518  12.953
10498W        W74057   7.765  12.161  10.584
10499W        W74058  18.609  29.630   0.925
10500W        W74059  12.652  29.651  10.522
10501W        W74060  10.643  39.916   4.625
10502W        W74061  39.481  18.090   4.322
10503W        W74062  32.447   7.754   4.149
10504W        W74063   3.834  10.754   2.664
10505W        W74064  11.221   3.284   3.690
10506W        W74065  26.029  26.139  12.971
10507W        W74066  26.627   7.348   2.850
10508W        W74067  26.200  20.061   9.637
10509W        W74068  36.417   6.262   2.401
10510W        W74069  42.956  13.319   1.337
10511W        W74070  24.225  29.932   0.901
10512W        W74071   0.420  12.230   4.301
10513W        W74072  16.702  39.857   1.762
10514W        W74073  20.211  21.257  11.095
10515W        W74074  18.729   5.200  11.484
10516W        W74075  16.640   6.281   2.261
10517W        W74076  17.228   3.833  14.814
10518W        W74077   0.377  18.584   1.331
10519W        W74078  20.205   0.413   0.353
10520W        W74079  34.099  43.484  14.930
10521W        W74080  39.814  39.854  10.509
10522W        W74081  39.922  34.040  11.947
10523W        W74082   6.820  28.107  12.490
10524W        W74083  33.970  18.582  13.364
10525W        W74084  35.414  29.998   1.390
10526W        W74085   0.350  26.595   2.417
10527W        W74086  28.000  39.986  10.004
10528W        W74087  33.452  34.053  11.506
10529W        W74088  14.204  30.514  12.569
10530W        W74089   1.888  17.675   0.471
10531W        W74090  31.490   0.927  14.275
10532W        W74091  32.018  17.582  12.423
10533W        W74092  42.981  14.296  12.026
10534W        W74093  29.534   8.376   2.285
10535W        W74094  26.652  44.985   1.768
10536W        W74095  21.121  37.025  11.392
10537W        W74096   9.158   5.435   3.633
10538W        W74097  28.089  38.570   4.610
10539W        W74098  21.564  40.496  12.419
10540W        W74099   7.259   7.886  10.973
10541W        W74100  11.856  32.952   0.267
10542W        W74101  15.742  10.175   3.649
10543W        W74102   3.763   4.923  13.312
10544W        W74103   3.410  38.027   1.432
10545W        W74104  23.670  20.045  14.999
10546W        W74105  28.082  24.035   4.819
10547W        W74106  44.909   8.760  13.929
10548W        W74107  22.550  22.144   4.186
10549W        W74108  10.384  34.471   2.662
10550W        W74109   8.233  12.256   0.910
10551W        W74110   1.246  15.723   1.351
10552W        W74111  25.512  13.330  12.011
10553W        W74112  37.369   9.682  12.575
10554W        W74113   5.871  15.713   2.198
10555W        W74114   2.763  28.995   4.754
10556W        W74115  19.635  28.612  10.436
10557W        W74116  41.356  36.473  12.344
10558W        W74117  23.184  30.630   1.888
10559W        W74118  12.240  30.492  13.901
10560W        W74119  36.434  33.493   0.729
10561W        W74120  42.456  26.513  12.573
10562W        W74121   0.362  26.625   4.221
10563W        W74122  22.691   1.742   4.150
10564W        W74123   1.476  42.915  10.901
10565W        W74124   4.330  24.000  14.479
10566W        W74125   4.334  21.686   2.711
10567W        W74126  15.653  28.121  12.569
10568W        W74127  28.128  37.419  11.867
10569W        W74128  15.177  35.998  14.397
10570W        W74129  37.980  34.871  13.541
10571W        W74130  19.669  41.394   2.358
10572W        W74131   6.858  23.523   2.750
10573W        W74132  16.750  12.642  12.354
10574W        W74133  38.569  43.484  10.435
10575W        W74134  42.402   0.310   1.224
10576W        W74135  40.491  16.658  12.033
10577W        W74136  36.908  19.144   0.750
10578W        W74137  16.624  43.882   4.305
10579W        W74138  30.659  43.349  11.557
10580W        W74139  21.642  19.765   2.819
10581W        W74140   6.248   6.212   4.183
10582W        W74141  16.215   4.794   4.821
10583W        W74142  26.161  35.996   4.726
10584W        W74143  21.193  33.457  11.053
10585W        W74144  20.201  38.993  14.012
10586W        W74145   7.222   6.236  12.397
10587W        W74146  16.663   7.866  14.301
10588W        W74147  39.379  36.375  12.831
10589W        W74148  44.393  18.198  14.437
10590W        W74149  17.611  16.783   1.270
10591W        W74150  23.196   4.434  14.341
10592W        W74151   0.267  37.565   3.306
10593W        W74152  26.564  25.688  10.424
10594W        W74153  41.442   8.237   2.323
10595W        W74154  41.953  38.932   1.756
10596W        W74155   5.317  39.432   1.904
10597W        W74156   1.789  10.261   9.974
10598W        W74157  44.312  39.046  10.410
10599W        W74158  13.674   7.787  11.012
10600W        W74159   1.791  20.741   2.379
10601W        W74160  42.839  43.449  10.517
10602W        W74161   7.293   1.745   4.193
10603W        W74162  23.533   8.665   3.673
10604W        W74163  33.089  28.104  12.426
10605W        W74164  15.702  38.049  10.917
10606W        W74165  18.076  27.985   4.142
10607W        W74166  31.442  24.722   2.266
10608W        W74167  32.128  32.010   4.653
10609W        W74168   0.964  35.580   2.695
10610W        W74169  20.767  10.272   1.322
10611W        W74170  29.607   6.297   1.815
10612W        W74171   6.259   7.227  14.979
10613W        W74172  29.653  36.477   1.416
10614W        W74173  12.715   4.741  12.992
10615W        W74174  19.762  36.933  12.390
10616W        W74175  27.183  37.952   3.791
10617W        W74176  20.712  39.891   1.334
10618W        W74177  11.359  14.168   3.280
10619W        W74178  32.428  25.473  12.457
10620W        W74179   3.296   2.952   4.837
10621W        W74180  44.473  33.005   3.292
10622W        W74181  26.538  33.582   3.679
10623W        W74182   5.369  42.398  14.780
10624W        W74183   3.753  15.790   1.276
10625W        W74184  13.703  26.164   4.283
10626W        W74185   1.814  16.089  12.958
10627W        W74186   0.979  15.692  12.997
10628W        W74187   5.431  25.098  12.991
10629W        W74188  34.053  33.944   4.297
10630W        W74189   6.312  41.520  13.377
10631W        W74190  21.100   8.672  12.845
10632W        W74191  29.091   2.384  10.982
10633W        W74192   4.917  10.314  11.875
10634W        W74193  32.917  41.978   0.739
10635W        W74194  31.060  30.965   3.250
10636W        W74195  38.957  28.625   2.364
10637W        W74196   7.723  33.461   1.408
10638W        W74197  27.194  25.021   0.932
10639W        W74198   3.243   5.199  11.519
10640W        W74199  28.063   0.392   0.454
10641W        W74200  27.032  15.591  11.925
10642W        W74201  34.399  36.584  13.808
10643W        W74202  43.292  43.879  12.908
10644W        W74203  26.027  25.096  14.798
10645W        W74204  33.056  36.942  13.510
10646W        W74205  19.729  17.579  14.781
10647W        W74206   0.967  26.994   1.221
10648W        W74207  26.487  42.799  14.909
10649W        W74208   4.717  32.988  11.453
10650W        W74209  35.883   1.858   2.668
10651W        W74210  24.682  15.086  14.854
10652W        W74211   1.256  36.503   1.364
10653W        W74212  43.387   9.876   4.186
10654W        W74213  31.544  31.122   0.894
10655W        W74214   1.965   0.373   1.782
10656W        W74215   9.876  22.734  14.500
10657W        W74216  24.061  29.949  11.022
10658W        W74217  23.681  32.026   4.679
10659W        W74218  12.136  11.264   2.215
10660W        W74219  41.922   3.765   0.889
10661W        W74220  16.625   7.229   1.790
10662W        W74221   1.453  36.080   1.814
10663W        W74222  20.660  12.800   0.872
10664W        W74223  29.085  15.202  11.942
10665W        W74224  16.236  29.630  14.993
10666W        W74225  33.462  42.439   0.249
10667W        W74226   6.834  26.021  14.975
10668W        W74227  30.636   0.921  10.608
10669W        W74228  21.658  30.924  14.396
10670W        W74229   5.933  15.172   4.171
10671W        W74230  26.966  27.150  11.912
10672W        W74231   5.259   7.300  11.941
10673W        W74232  22.022   1.798   2.296
10674W        W74233  22.040  29.545   4.218
10675W        W74234  34.987   6.841   1.392
10676W        W74235  39.484  21.239  14.468
10677W        W74236  44.406  43.875  12.568
10678W        W74237  20.734  26.564   2.762
10679W        W74238  44.902  20.662  14.881
10680W        W74239  10.225  25.053  12.355
10681W        W74240  41.349  39.521  12.924
10682W        W74241  35.091  42.376  10.427
10683W        W74242  16.157   5.898   5.740
10684W        W74243  11.629   9.755  14.457
10685W        W74244  42.961  41.929   0.955
10686W        W74245  28.645  28.088   1.711
10687W        W74246   5.250  14.202   1.798
10688W        W74247  25.613  32.892   1.749
10689W        W74248  31.579   2.857   1.927
10690W        W74249  28.118  32.137  13.425
10691W        W74250   8.270  42.422  11.995
10692W        W74251  14.726  28.054  14.798
10693W        W74252  35.553  16.703   0.761
10694W        W74253  21.582  25.995  13.333
10695W        W74254  38.372  41.414  11.956
10696W        W74255  18.123  41.805  13.862
10697W        W74256   0.885  31.142  12.089
10698W        W74257  21.593  15.806  11.064
10699W        W74258  40.502  18.681   4.678
10700W        W74259  41.854  18.120   1.874
10701W        W74260  12.131   4.401   0.345
10702W        W74261   1.757   6.916   2.840
10703W        W74262  15.804   8.217   2.257
10704W        W74263  21.159   6.910  13.539
10705W        W74264  33.463  29.468   4.773
10706W        W74265  39.445  17.290   3.207
10707W        W74266  22.642  38.555  10.466
10708W        W74267  33.387  27.065  12.901
10709W        W74268  27.074  23.998  12.012
10710W        W74269   1.394  18.161  12.054
10711W        W74270  43.935  37.842  12.981
10712W        W74271  17.704  39.395  14.492
10713W        W74272   1.903   4.436  10.534
10714W        W74273  17.284  11.638   2.332
10715W        W74274  20.649  43.882  13.360
10716W        W74275  26.637  44.965   3.180
10717W        W74276  44.765  26.521  14.933
10718W        W74277  18.223   2.796  13.884
10719W        W74278  32.618  34.048   1.871
10720W        W74279  14.095  10.753   2.263
10721W        W74280  24.066  35.444  13.877
10722W        W74281  12.804  10.146   3.747
10723W        W74282  26.682  42.425   4.183
10724W        W74283  11.239  42.928   1.707
10725W        W74284   1.954  17.718   1.696
10726W        W74285  36.435   9.378  11.048
10727W        W74286   9.872  15.798   4.805
10728W        W74287  31.602  23.523   3.368
10729W        W74288  10.806  31.938   1.845
10730W        W74289  39.531  29.170   2.867
10731W        W74290  15.798  12.341  12.068
10732W        W74291  42.873  34.393   3.226
10733W        W74292  32.607  19.677   2.278
10734W        W74293  11.814  30.942  13.401
10735W        W74294  30.499  10.668  13.384
10736W        W74295   7.680  39.918   4.287
10737W        W74296   7.216   9.326   4.259
10738W        W74297   9.778   6.676   0.770
10739W        W74298  10.736   1.937  12.430
10740W        W74299  43.824  27.577   3.753
10741W        W74300  43.489  36.592   3.201
10742W        W74301   5.909  25.572   2.215
10743W        W74302   6.361  30.581  11.864
10744W        W74303  16.634  27.009  12.368
10745W        W74304  29.587  21.580  10.486
10746W        W74305   1.773  39.469   1.775
10747W        W74306  10.357  19.169   3.855
10748W        W74307  38.915   2.263  12.532
10749W        W74308   4.207   1.776   3.672
10750W        W74309  11.672  30.010   2.246
10751W        W74310  35.063   1.891  13.877
10752W        W74311  26.682   0.841  14.314
10753W        W74312  15.684  41.407  14.429
10754W        W74313  41.416  20.765  10.446
10755W        W74314  21.740  41.040   2.196
10756W        W74315   8.165  18.741   2.830
10757W        W74316  32.432  17.256  10.060
10758W        W74317  27.037  15.676  13.541
10759W        W74318  44.362  33.414  12.078
10760W        W74319  29.437  39.551  11.409
10761W        W74320  14.790  18.219  14.407
10762W        W74321  35.574  12.175   3.831
10763W        W74322   3.425  26.642  12.094
10764W        W74323  42.990  19.693   2.311
10765W        W74324  31.643  41.033   0.359
10766W        W74325   5.226  22.179   0.342
10767W        W74326  16.136   0.864  11.910
10768W        W74327  11.128  44.479  14.955
10769W        W74328  15.250  44.848  10.405
10770W        W74329  17.297   6.216  14.412
10771W        W74330  22.652  12.821   3.191
10772W        W74331  43.276  22.684   0.787
10773W        W74332   1.327  22.698  14.788
10774W        W74333  25.511  38.928   2.314
10775W        W74334  26.184  10.305  13.972
10776W        W74335  32.014  33.047   3.697
10777W        W74336  44.397  36.055   4.655
10778W        W74337   7.791   8.274  11.113
10779W        W74338  41.971   8.748   0.273
10780W        W74339   0.920  23.652   2.393
10781W        W74340  13.129   7.359   1.429
10782W        W74341  22.029  20.095   1.821
10783W        W74342  11.292  37.391  14.287
10784W        W74343  11.156  40.822   4.766
10785W        W74344  12.292  24.073  11.873
10786W        W74345   5.348  38.427   1.401
10787W        W74346  11.172  35.444   3.377
10788W        W74347  30.069   5.433  11.921
10789W        W74348   0.813  32.423   4.797
10790W        W74349   7.277  23.117   0.836
10791W        W74350  44.800  38.335  12.032
10792W        W74351  11.226  24.530   1.759
10793W        W74352   1.805  15.168   0.360
10794W        W74353  16.256  41.033  14.296
10795W        W74354  33.969  44.003  14.360
10796W        W74355  15.808  15.630   2.701
10797W        W74356  20.564  17.690  11.117
10798W        W74357  22.030   9.656  13.506
10799W        W74358  24.060  17.688   3.868
10800W        W74359   8.880  10.348   5.124
10801W        W74360  33.940  10.162   2.806
10802W        W74361  19.576   0.349   0.945
10803W        W74362  27.979   6.839  12.074
10804W        W74363  14.285  13.630  14.458
10805W        W74364  29.428  14.201  12.357
10806W        W74365  16.285  12.150   4.148
10807W        W74366  42.011   3.274   2.815
10808W        W74367   9.292  26.007   4.818
10809W        W74368  34.433   3.220   4.778
10810W        W74369   1.418  30.945  14.418
10811W        W74370  37.529  36.377   0.920
10812W        W74371  16.293  23.054   4.193
10813W        W74372  16.649  21.708  11.563
10814W        W74373   4.770  39.415  14.835
10815W        W74374  39.007   2.397   1.381
10816W        W74375  31.105  19.204  14.455
10817W        W74376  10.255   2.301   2.661
10818W        W74377   4.229  22.129   2.798
10819W        W74378   7.227  32.136   3.702
10820W        W74379  11.166  29.032  12.087
10821W        W74380  41.315  11.809  12.542
10822W        W74381  10.670   0.930  12.360
10823W        W74382  19.042  43.423  13.909
10824W        W74383  10.804  26.625  14.872
10825W        W74384  12.296  39.421  11.514
10826W        W74385  21.515  31.137   2.887
10827W        W74386  38.547   0.751  11.429
10828W        W74387  44.366  11.251   5.093
10829W        W74388  31.508  27.584   1.275
10830W        W74389  11.341  39.868  14.984
10831W        W74390  15.674  39.057  14.773
10832W        W74391  34.458   0.290  14.937
10833W        W74392   7.322   7.173   0.255
10834W        W74393  14.708  13.659   1.277
10835W        W74394  21.067  26.009   2.318
10836W        W74395  35.945  10.763  14.771
10837W        W74396  42.006  25.568  13.920
10838W        W74397  21.566  23.221  14.470
10839W        W74398  17.177  22.532   3.638
10840W        W74399  27.575  37.863  14.299
10841W        W74400  28.957  37.921  14.492
10842W        W74401  34.594  13.656  14.976
10843W        W74402  28.145  28.965  11.518
10844W        W74403   5.793  40.502  11.415
10845W        W74404  31.493  38.392  11.378
10846W        W74405  38.070   6.363  13.913
10847W        W74406   3.404  29.042  11.894
10848W        W74407   8.680  42.494  11.111
10849W        W74408   8.799  44.488  10.908
10850W        W74409  23.650  21.087  10.937
10851W        W74410   2.733  15.673   1.930
10852W        W74411   4.792  31.923   3.251
10853W        W74412   8.381  42.471  11.030
10854W        W74413  31.448   0.249   1.357
10855W        W74414  44.503  13.251   5.264
10856W        W74415   8.697  24.714   3.285
10857W        W74416   2.959  25.074   1.280
10858W        W74417  15.093  13.726  11.496
10859W        W74418  36.491  34.112  13.470
10860W        W74419   8.251  37.914   2.343
10861W        W74420   5.861  34.871  11.433
10862W        W74421   4.418  30.630  11.516
10863W        W74422   8.324  19.760   0.791
10864W        W74423  28.984  42.408  13.942
10865W        W74424   4.750  21.036   3.191
10866W        W74425  12.191  31.018   4.602
10867W        W74426   5.289   8.765   0.258
10868W        W74427  17.689   1.857  10.565
10869W        W74428  26.501  25.501   2.721
10870W        W74429  34.374   2.414   4.303
10871W        W74430  25.625  20.562  13.047
10872W        W74431   4.255  12.668   0.962
10873W        W74432   5.402  32.422   1.405
10874W        W74433   9.868  17.063   1.241
10875W        W74434  32.596  17.120  14.356
10876W        W74435  14.654  42.013   0.733
10877W        W74436  31.151  33.936  13.810
10878W        W74437   3.848  43.784   0.789
10879W        W74438  41.435  21.729  11.412
10880W        W74439   4.389  42.852   4.673
10881W        W74440  17.581  40.437   0.796
10882W        W74441  21.590  31.512  14.462
10883W        W74442  39.025  10.655  14.335
10884W        W74443   1.447   2.781  12.571
10885W        W74444   4.382  28.593  10.444
10886W        W74445  14.230  27.015  11.395
10887W        W74446   0.866  22.134   4.195
10888W        W74447  38.841  19.276   1.927
10889W        W74448  15.718  11.647  11.906
10890W        W74449   7.218   4.831   4.658
10891W        W74450   3.888   9.156  13.518
10892W        W74451  15.757   5.300  12.065
10893W        W74452  44.918  20.586   0.914
10894W        W74453  17.274  44.802   2.709
10895W        W74454  11.351   3.434  13.982
10896W        W74455  11.317  26.585   1.249
10897W        W74456  23.576  20.602   0.377
10898W        W74457  42.478  20.129  12.869
10899W        W74458  30.975  23.655   3.639
10900W        W74459  31.420  44.316  14.845
10901W        W74460  33.488   5.749  13.341
10902W        W74461  25.506  38.941   3.718
10903W        W74462  14.736  32.570   0.348
10904W        W74463   8.329   6.373   3.211
10905W        W74464  34.532  33.059  14.488
10906W        W74465  15.220  40.321  14.000
10907W        W74466  13.234  11.801  11.984
10908W        W74467  30.066  29.498  14.904
10909W        W74468  19.158  24.040   4.129
10910W        W74469  41.837   0.439   3.680
10911W        W74470   7.831  23.516  14.378
10912W        W74471  28.948   0.357   4.826
10913W        W74472  27.686  38.430  12.507
10914W        W74473   2.402   3.798  13.020
10915W        W74474   7.280   8.843  13.807
10916W        W74475  15.164  35.581  12.053
10917W        W74476  34.426  13.138  13.832
10918W        W74477  37.387  31.403   4.780
10919W        W74478  13.338  17.800   3.643
10920W        W74479  18.259   8.882   2.414
10921W        W74480   6.908  43.013  11.117
10922W        W74481  30.565  34.531   0.403
10923W        W74482  18.608  17.196  14.790
10924W        W74483  40.427  18.556   3.379
10925W        W74484  20.195  33.976  12.065
10926W        W74485  43.015  11.269  13.940
10927W        W74486  23.543  31.414   3.797
10928W        W74487  14.325   9.853   3.804
10929W        W74488   7.716   5.888   2.771
10930W        W74489  23.612  44.385  14.434
10931W        W74490  14.114  17.761   2.742
10932W        W74491  24.500  25.052   4.726
10933W        W74492  32.063  44.756  12.561
10934W        W74493  40.315  40.406   3.642
10935W        W74494  26.613   9.878   2.827
10936W        W74495  23.709  21.619  12.400
10937W        W74496  12.234  13.275   0.261
10938W        W74497  21.087   0.248   3.644
10939W        W74498  10.362   3.889   1.711
10940W        W74499  42.383   8.335   1.871
10941W        W74500  33.973   7.198   2.308
10942W        W74501  22.522  44.314   4.703
10943W        W74502  15.192   4.290   2.382
10944W        W74503  43.766  25.509   3.350
10945W        W74504  12.339   2.431   2.248
10946W        W74505  41.519  12.129   2.301
10947W        W74506  43.805  22.694  10.491
10948W        W74507   3.844  27.007   0.260
10949W        W74508  31.628   7.895  14.372
10950W        W74509  38.393  41.374   1.296
10951W        W74510   2.293  27.955  14.516
10952W        W74511  22.511  19.686   3.367
10953W        W74512   7.812   0.445  11.984
10954W        W74513  31.512  36.914   4.203
10955W        W74514  44.984  27.669  10.608
10956W        W74515  22.176  30.049  10.931
10957W        W74516  36.013  12.354   0.338
10958W        W74517  40.387  23.650   0.366
10959W        W74518  34.491  26.991   1.708
10960W        W74519  42.966  42.504  10.632
10961W        W74520  15.094  12.352   3.319
10962W        W74521   3.359  30.494   1.447
10963W        W74522  28.460  40.338   2.245
10964W        W74523  33.114  24.196   3.383
10965W        W74524   8.707  43.333   0.392
10966W        W74525  37.910  31.608   2.418
10967W        W74526   6.349  24.669   4.159
10968W        W74527  40.305  24.611   2.304
10969W        W74528   5.321  21.237  12.852
10970W        W74529  28.045  40.406   2.831
10971W        W74530   9.171  32.110  13.535
10972W        W74531  43.511  38.879  12.953
10973W        W74532   8.750  14.159   3.863
10974W        W74533   7.309  22.025   4.728
10975W        W74534  30.464   5.839   0.438
10976W        W74535  35.541  21.680  14.876
10977W        W74536  16.271  12.278  10.588
10978W        W74537  24.976   9.861  12.398
10979W        W74538   3.789  38.002  12.405
10980W        W74539  19.248  31.426  14.383
10981W        W74540  22.667  15.258   1.397
10982W        W74541  28.988  12.235   2.695
10983W        W74542  41.977   4.449  11.989
10984W        W74543  35.568  15.820   2.738
10985W        W74544  43.965  41.924  14.281
10986W        W74545   7.219  18.766   0.465
10987W        W74546  15.118  37.544  10.912
10988W        W74547   1.781  34.070   2.843
10989W        W74548  39.505  19.116   3.801
10990W        W74549  14.764  39.332   4.832
10991W        W74550  33.108  29.928   3.242
10992W        W74551  42.895  21.563  13.900
10993W        W74552   3.391   3.800   5.181
10994W        W74553  39.363  18.718  14.910
10995W        W74554  38.031  25.140  14.834
10996W        W74555  20.075   2.268  13.455
10997W        W74556  30.643   7.394  11.541
10998W        W74557   5.412  11.200   1.703
10999W        W74558  16.747   5.861  10.086
11000W        W74559  19.766   3.879  12.570
11001W        W74560  20.146   3.843  11.987
11002W        W74561  29.135  28.511  10.485
11003W        W74562  37.402  23.658   2.727
11004W        W74563  13.803  43.337   2.829
11005W        W74564  16.793   8.390  14.779
11006W        W74565   7.393  10.316   3.328
11007W        W74566  15.210   0.364   4.299
11008W        W74567  36.977   4.363   1.823
11009W        W74568   7.866  23.581  10.146
11010W        W74569  18.651  19.085   3.174
11011W        W74570   5.709  18.096  11.471
11012W        W74571   7.835  42.946  11.496
11013W        W74572   9.660  12.758   2.857
11014W        W74573  10.233  41.010  12.990
11015W        W74574  22.145   3.362   4.336
11016W        W74575  25.161  16.713  11.885
11017W        W74576  42.501  13.287  11.393
11018W        W74577  36.956  41.320   4.166
11019W        W74578  13.237  30.105  12.004
11020W        W74579  17.742   5.914   3.315
11021W        W74580  16.566   6.888   5.583
11022W        W74581  31.508  11.764  10.630
11023W        W74582  29.530  36.513  14.997
11024W        W74583  24.002  42.451  12.558
11025W        W74584  36.936  30.648   1.344
11026W        W74585  17.666  24.104   2.327
11027W        W74586  23.212  26.020  12.944
11028W        W74587  13.821   8.874  12.487
11029W        W74588   2.382   2.270  12.471
11030W        W74589  37.877  14.187   9.920
11031W        W74590  10.247  28.602  12.413
11032W        W74591  18.623  38.046  13.532
11033W        W74592  35.001   2.252  14.335
11034W        W74593  32.081  13.256   0.955
11035W        W74594  40.326  25.688   2.683
11036W        W74595  35.510   2.918   2.795
11037W        W74596  39.843  17.673  11.947
11038W        W74597  14.139   8.210  12.477
11039W        W74598  17.298   0.984   2.887
11040W        W74599  23.586   2.296  14.886
11041W        W74600  23.078  40.394  12.498
11042W        W74601   8.312  30.025   1.429
11043W        W74602   8.792  10.162  14.487
11044W        W74603   8.223  43.871  11.033
11045W        W74604  22.208  18.577  12.885
11046W        W74605  35.470  23.985   1.808
11047W        W74606  41.467   1.461   0.881
11048W        W74607  44.262  14.596  14.499
11049W        W74608  15.151   3.395   2.325
11050W        W74609   2.773  25.706   4.323
11051W        W74610  14.663  44.840   1.774
11052W        W74611  38.067   1.358  11.477
11053W        W74612  36.853   1.733  13.970
11054W        W74613  25.684  19.651   5.239
11055W        W74614  27.679   1.897  14.497
11056W        W74615  29.044  31.927  14.504
11057W        W74616  38.405   5.867   3.225
11058W        W74617  33.614  33.056   3.671
11059W        W74618  42.998  33.400  12.515
11060W        W74619  32.418  17.218  10.925
11061W        W74620  31.991  24.652   2.781
11062W        W74621  30.120  21.681  12.879
11063W        W74622  30.458  21.073  13.496
11064W        W74623  41.417  24.097   0.965
11065W        W74624  14.685  29.047   4.324
11066W        W74625   4.204  14.325   1.703
11067W        W74626  26.530  43.467   1.882
11068W        W74627  18.623  31.043  13.962
11069W        W74628  30.939  16.757  10.636
11070W        W74629   7.712   1.873   0.428
11071W        W74630   7.850  18.642  12.348
11072W        W74631  40.509  22.733  12.410
11073W        W74632  14.712   3.401  13.970
11074W        W74633  30.975  42.354   0.351
11075W        W74634   6.320  39.910  10.983
11076W        W74635  16.762   2.806  11.011
11077W        W74636  22.245  41.825   3.770
11078W        W74637   5.219   4.862  10.414
11079W        W74638  22.689   1.367   2.742
11080W        W74639   9.691  14.241   4.191
11081W        W74640  38.485  42.473  12.373
11082W        W74641  34.488  15.325   2.356
11083W        W74642  32.416  25.524   3.798
11084W        W74643   8.354  34.991   4.700
11085W        W74644  28.498   1.401  12.848
11086W        W74645  36.417   7.666  13.392
11087W        W74646  24.227  24.070  12.883
11088W        W74647  28.959  20.534  12.392
11089W        W74648  23.529  34.002  13.367
11090W        W74649  18.207  14.177  13.313
11091W        W74650  26.161  24.043   4.773
11092W        W74651  12.342   6.229   1.386
11093W        W74652  40.944  42.936   1.342
11094W        W74653  14.750  42.904  12.850
11095W        W74654  26.489  35.403   0.772
11096W        W74655  33.887  36.531   1.727
11097W        W74656  23.642   9.731   0.926
11098W        W74657  12.856  27.522  12.983
11099W        W74658  40.324  32.489   2.806
11100W        W74659  15.287  29.557   2.229
11101W        W74660   5.277  43.937   4.157
11102W        W74661  29.550  20.134   2.380
11103W        W74662  23.065  42.368  13.334
11104W        W74663  29.067  19.100   2.190
11105W        W74664  28.509  43.888  13.363
11106W        W74665  15.775  40.036  12.030
11107W        W74666  35.043  13.834   4.225
11108W        W74667   0.786  36.394   4.320
11109W        W74668  25.595  36.501  13.547
11110W        W74669  28.116  11.287  10.911
11111W        W74670  30.512   5.355  14.786
11112W        W74671  28.075   0.494   0.874
11113W        W74672  27.656  19.638   4.708
11114W        W74673  14.173  42.820   1.426
11115W        W74674  31.940  13.732  13.861
11116W        W74675  16.183  14.757  11.459
11117W        W74676  19.735  32.995  11.071
11118W        W74677  39.827  23.035  13.390
11119W        W74678  23.490   5.735   4.597
11120W        W74679  22.657   7.884   4.680
11121W        W74680  27.610   6.287   0.406
11122W        W74681  24.106  44.270  10.578
11123W        W74682  11.773  10.691   2.888
11124W        W74683  34.938  32.024   0.450
11125W        W74684  24.115  37.343   0.799
11126W        W74685  39.932  28.162   2.411
11127W        W74686  23.222  22.242  13.370
11128W        W74687  42.914   0.416   3.210
11129W        W74688  44.978  44.823  12.827
11130W        W74689  20.065  33.978  14.834
11131W        W74690   9.376   3.935   1.863
11132W        W74691  33.010   8.292   1.369
11133W        W74692  44.309  31.438   2.664
11134W        W74693  22.536  11.814   1.883
11135W        W74694  43.821  41.461  11.091
11136W        W74695  42.021  39.042  13.814
11137W        W74696  13.299   7.754  11.551
11138W        W74697  17.180  25.524   2.287
11139W        W74698  29.152   2.435   2.338
11140W        W74699  23.221  16.200   3.186
11141W        W74700  31.994  17.728   2.208
11142W        W74701  41.811  10.640  14.293
11143W        W74702   5.909  16.167  12.376
11144W        W74703  12.202  32.632  12.367
11145W        W74704  44.478   2.368   0.427
11146W        W74705   8.892  27.495   4.644
11147W        W74706  15.584  44.504  10.620
11148W        W74707  35.877   9.885  13.384
11149W        W74708  22.090  10.145  11.908
11150W        W74709  42.452  31.592  14.377
11151W        W74710  32.589  41.439   0.772
11152W        W74711  20.161  12.643   3.285
11153W        W74712   9.228  28.576  10.914
11154W        W74713  22.047  32.482  10.061
11155W        W74714  21.254   7.783  14.303
11156W        W74715  42.878  30.559   3.632
11157W        W74716  15.183  25.976  11.384
11158W        W74717  18.552  14.677   1.445
11159W        W74718  33.023  27.039  10.426
11160W        W74719  14.141   2.281   3.700
11161W        W74720  41.449  32.045  11.981
11162W        W74721   4.812  32.509  10.558
11163W        W74722  10.845  23.156  14.850
11164W        W74723   0.781  13.298   1.311
11165W        W74724  24.520  24.671   2.407
11166W        W74725   8.891  10.319  10.520
11167W        W74726   6.234  31.511  12.944
11168W        W74727   1.443  10.222  14.916
11169W        W74728   7.205  30.072  10.610
11170W        W74729  25.113   5.699  14.943
11171W        W74730  38.950  34.583   1.774
11172W        W74731   4.295   9.659  10.581
11173W        W74732  39.370  17.593  11.963
11174W        W74733  12.796  44.392  10.104
11175W        W74734  42.391  21.207   2.821
11176W        W74735  16.208   6.802  14.937
11177W        W74736  27.141  38.864   0.750
11178W        W74737   0.888  29.590   4.209
11179W        W74738  32.455  29.109  13.451
11180W        W74739   3.725   9.725  11.989
11181W        W74740   9.159  22.021  10.560
11182W        W74741   0.259  19.085   2.190
11183W        W74742  19.645  38.430   1.384
11184W        W74743  42.468  25.693   3.276
11185W        W74744  35.381  17.283  11.856
11186W        W74745  22.080   5.432   0.397
11187W        W74746  36.393   1.836   0.404
11188W        W74747   2.270  17.791  14.307
11189W        W74748  20.618  28.570  11.391
11190W        W74749  44.287   1.964   4.172
11191W        W74750   1.312  30.499  11.509
11192W        W74751   2.248  21.645   2.699
11193W        W74752  14.278   4.783  13.448
11194W        W74753   3.723  44.331   0.435
11195W        W74754   2.767  33.129  11.401
11196W        W74755  35.598  38.337   1.440
11197W        W74756  17.190  23.516   1.799
11198W        W74757   0.752   7.685  11.401
11199W        W74758  14.295  32.100   0.306
11200W        W74759  27.119   6.363  13.791
11201W        W74760  16.592   6.678  12.958
11202W        W74761  12.672  11.351  10.424
11203W        W74762   1.481   0.980   4.672
11204W        W74763  21.723  22.186  11.527
11205W        W74764  22.029  36.347  14.903
11206W        W74765  43.459   8.877   2.370
11207W        W74766  26.065  43.334  14.402
11208W        W74767  36.367  13.114   0.300
11209W        W74768   7.682  35.402  12.016
11210W        W74769  32.398   3.370  11.944
11211W        W74770  21.239  14.201  12.510
11212W        W74771   9.747  21.610   1.422
11213W        W74772  40.314  28.643  10.621
11214W        W74773  24.630   0.472   2.732
11215W        W74774  40.043  10.820  11.464
11216W        W74775  29.652  22.232  13.501
11217W        W74776   3.791  36.363   2.371
11218W        W74777  35.566  23.564   4.796
11219W        W74778  10.184  39.402   1.238
11220W        W74779  29.014  24.506   0.247
11221W        W74780  35.034   2.293   1.848
11222W        W74781  28.035  39.904  12.404
11223W        W74782  44.917  30.121   3.675
11224W        W74783   9.751  41.019  13.857
11225W        W74784  25.124   4.344  13.845
11226W        W74785  23.599  32.626   1.724
11227W        W74786  30.967  25.605   1.786
11228W        W74787  31.492  41.801  12.345
11229W        W74788  19.590  34.430   2.668
11230W        W74789  24.177  14.830  13.034
11231W        W74790   8.315  33.087   2.803
11232W        W74791  37.490   0.322   1.805
11233W        W74792  36.514  36.459   0.338
11234W        W74793  33.483   2.428   0.458
11235W        W74794  37.034  33.084  14.843
11236W        W74795  37.901   0.446   1.240
11237W        W74796  20.675  13.695   0.943
11238W        W74797  24.546   9.815   4.834
11239W        W74798  26.611  40.371  11.860
11240W        W74799  44.843  25.628   0.787
11241W        W74800  41.901   9.250  10.510
11242W        W74801   2.287   1.414  10.916
11243W        W74802   1.897  14.720  12.051
11244W        W74803  21.671  20.218   1.784
11245W        W74804  40.861  28.935   3.737
11246W        W74805  31.028  44.436   2.324
11247W        W74806   2.312   0.274   1.907
11248W        W74807  22.081  28.463  11.417
11249W        W74808  41.470  42.801   0.391
11250W        W74809  19.657   6.793   0.286
11251W        W74810  31.974   1.941  13.911
11252W        W74811  38.875  10.194   1.238
11253W        W74812  19.553  26.152   2.199
11254W        W74813  27.589  19.046   0.924
11255W        W74814  18.633  31.940   2.859
11256W        W74815   9.773  29.558   0.406
11257W        W74816  33.395  22.146  11.397
11258W        W74817  24.510  28.081   4.829
11259W        W74818  15.247   9.721   3.852
11260W        W74819  18.246  13.803  13.479
11261W        W74820  38.858  30.010   2.400
11262W        W74821  44.899  40.303   4.278
11263W        W74822  42.917  19.234   4.605
11264W        W74823  10.659   7.777   0.810
11265W        W74824   8.318  11.852   1.779
11266W        W74825  26.632  32.633   1.329
11267W        W74826  17.631  13.328   2.405
11268W        W74827  31.506  12.802  13.968
11269W        W74828  42.379  10.291   1.332
11270W        W74829  17.144  23.088  14.873
11271W        W74830  18.776  39.380   3.168
11272W        W74831   9.228  21.735   0.359
11273W        W74832  17.657  16.712  11.862
11274W        W74833  40.029  29.055  14.999
11275W        W74834  10.842  25.588   3.680
11276W        W74835   0.964  19.068  11.412
11277W        W74836  43.805  21.241  12.912
11278W        W74837  36.854   6.403   3.171
11279W        W74838  35.489  25.569   3.249
11280W        W74839  26.197  33.997   4.252
11281W        W74840   2.916   6.379   0.403
11282W        W74841  26.019  24.677   1.241
11283W        W74842   3.228  22.580  11.520
11284W        W74843   2.367  12.155   0.450
11285W        W74844  20.723  36.405  14.937
11286W        W74845  16.186  33.530  10.411
11287W        W74846  32.004   2.274   0.373
11288W        W74847  33.617   7.186   2.727
11289W        W74848  20.747  38.877   2.803
11290W        W74849  25.980  39.541   4.292
11291W        W74850  22.619   0.774   3.216
11292W        W74851  31.078  27.979  14.328
11293W        W74852  14.338  32.073  13.031
11294W        W74853  28.067  26.155   4.278
11295W        W74854  36.046  37.470   3.760
11296W        W74855  17.750  23.209   4.604
11297W        W74856  44.849  31.587   4.346
11298W        W74857  19.539  24.663  14.342
11299W        W74858  29.532  17.144   4.641
11300W        W74859   3.381  21.225   3.862
11301W        W74860   4.713  30.473  10.429
11302W        W74861  24.558  24.530   4.714
11303W        W74862   1.749  24.676   1.855
11304W        W74863  33.023   5.866  12.547
11305W        W74864  31.411  27.459   1.856
11306W        W74865  12.798  35.446   3.343
11307W        W74866  21.512  41.033   4.176
11308W        W74867  31.105  25.058   2.757
11309W        W74868  35.504  12.217   9.611
11310W        W74869  36.412  15.628  14.783
11311W        W74870  37.433  23.686  13.009
11312W        W74871  36.559   9.284  12.380
11313W        W74872  26.153  27.624   4.321
11314W        W74873  35.956  34.074  10.569
11315W        W74874  33.122  17.134  14.479
11316W        W74875  19.216   1.247  10.628
11317W        W74876  23.003  13.681  13.420
11318W        W74877  29.974  44.447   3.315
11319W        W74878  22.137   1.355   3.145
11320W        W74879  22.162  32.054  14.785
11321W        W74880  44.968  11.642   1.725
11322W        W74881   1.314  25.713   0.967
11323W        W74882  23.674  13.153  14.338
11324W        W74883  44.487   9.362  11.897
11325W        W74884  27.155  26.089  14.003
11326W        W74885  23.631  38.406   1.332
11327W        W74886  39.903  14.818   2.858
11328W        W74887  21.574  24.192   0.953
11329W        W74888  21.197  34.966  13.343
11330W        W74889   9.213  40.910  14.998
11331W        W74890  28.978  43.326   2.305
11332W        W74891  41.839  44.259   1.827
11333W        W74892   5.347  14.161   3.346
11334W        W74893  44.389  29.482   2.250
11335W        W74894  40.519  11.171   1.725
11336W        W74895  28.582  39.500   0.357
11337W        W74896  30.966  25.085  13.478
11338W        W74897  32.616   7.750   1.808
11339W        W74898   1.921  23.213   3.733
11340W        W74899  10.148  37.353  11.410
11341W        W74900   5.393  12.188   3.221
11342W        W74901  44.382  12.216   1.770
11343W        W74902  27.579   8.858   2.215
11344W        W74903  21.150  23.723   9.967
11345W        W74904  29.921  23.504   0.735
11346W        W74905  25.493  36.574  14.801
11347W        W74906  24.644  34.005   0.930
11348W        W74907  39.528  37.018   2.322
11349W        W74908  32.579  42.381  10.917
11350W        W74909  40.871   2.938   2.262
11351W        W74910  35.419  14.632  10.925
11352W        W74911  44.330   5.721  13.456
11353W        W74912  44.345   1.419   0.391
11354W        W74913  14.253  37.445  10.438
11355W        W74914  43.452  35.098   4.190
11356W        W74915  33.516  11.722  14.807
11357W        W74916  14.163  41.854   3.364
11358W        W74917  39.520  25.573  13.517
11359W        W74918  23.717  36.521  11.919
11360W        W74919  36.366   8.399   5.206
11361W        W74920  41.824  37.887  11.128
11362W        W74921  16.317   4.755   0.965
11363W        W74922  42.817   5.367   2.200
11364W        W74923  30.643  38.994   1.801
11365W        W74924   5.274  39.015  11.517
11366W        W74925   4.877   8.250   0.475
11367W        W74926  21.694  33.057   1.371
11368W        W74927  21.110  42.343  11.064
11369W        W74928  39.489  24.514   0.945
11370W        W74929  22.097  26.557   4.688
11371W        W74930   0.782  31.026   0.835
11372W        W74931   1.258  20.221   3.158
11373W        W74932  19.722  37.862   5.239
11374W        W74933  27.649  38.931  13.010
11375W        W74934  14.759  21.557  14.907
11376W        W74935   7.762   9.302   4.793
11377W        W74936  17.584  13.137   2.881
11378W        W74937  34.972  24.975   4.224
11379W        W74938   6.766  35.497  11.967
11380W        W74939  33.561  24.036   2.886
11381W        W74940  34.466  21.682  14.320
11382W        W74941  37.001   4.399   2.250
11383W        W74942  29.439   8.190   3.154
11384W        W74943  14.268  31.052  13.009
11385W        W74944  23.031  23.512   1.892
11386W        W74945  13.725  13.785   2.407
11387W        W74946  29.170   8.244  13.458
11388W        W74947  32.501  19.220  11.050
11389W        W74948  15.123   7.715   0.405
11390W        W74949   1.777  44.846   4.643
11391W        W74950   5.383   0.394  12.916
11392W        W74951  28.616  11.652   2.226
11393W        W74952  15.664  26.546   5.136
11394W        W74953  23.670  10.706   0.378
11395W        W74954  27.521   7.705   4.606
11396W        W74955  17.565  32.084   1.917
11397W        W74956  17.628  31.944   0.853
11398W        W74957  39.373  29.026  14.347
11399W        W74958  41.828  24.680  14.286
11400W        W74959  35.592   4.304   0.324
11401W        W74960   5.784  35.408   1.253
11402W        W74961  34.070  11.712   2.191
11403W        W74962   9.155  12.340   4.235
11404W        W74963   3.906  13.298   1.403
11405W        W74964   9.218  42.460  12.908
11406W        W74965  40.493  40.841   1.338
11407W        W74966  31.467   3.342  13.968
11408W        W74967  32.890  29.059  14.826
11409W        W74968  29.564   9.821   4.674
11410W        W74969  30.917  15.804  14.454
11411W        W74970  15.241  27.470  14.461
11412W        W74971   2.936  41.463  11.118
11413W        W74972  19.596  13.678  13.418
11414W        W74973  40.041   1.427  12.096
11415W        W74974  27.482   8.397  14.333
11416W        W74975  14.792  32.522   2.764
11417W        W74976   3.896  14.702  13.478
11418W        W74977  12.851   5.806   3.279
11419W        W74978  14.173  31.045   0.355
11420W        W74979   1.351  28.477   4.719
11421W        W74980   1.435  39.945   3.354
11422W        W74981  10.227  22.174   0.748
11423W        W74982  35.933  20.523   1.235
11424W        W74983   7.186  26.197  10.915
11425W        W74984  37.417  43.802  14.310
11426W        W74985   5.689   2.914  12.071
11427W        W74986  15.217  23.114   2.393
11428W        W74987  31.975  36.987   3.307
11429W        W74988   1.245  11.269  13.378
11430W        W74989  37.492   9.233   5.178
11431W        W74990  12.349  35.959   4.181
11432W        W74991  27.960  32.463  12.525
11433W        W74992  30.101  14.653   2.228
11434W        W74993  44.374  27.687  10.103
11435W        W74994  13.770  44.865   0.896
11436W        W74995  44.870   7.706  11.912
11437W        W74996  30.105  20.242   4.247
11438W        W74997  41.394  40.956   1.918
11439W        W74998  30.084  28.041  10.618
11440W        W74999  40.932  21.618  10.915
11441W        W75000  40.901  32.526   3.792
11442W        W75001  21.217  29.920  14.907
11443W        W75002  25.650  34.967   2.850
11444W        W75003  36.417  17.665   0.281
11445W        W75004  23.534  39.990  11.884
11446W        W75005  28.540  23.563   0.880
11447W        W75006  23.718  40.974   0.362
11448W        W75007  33.414   6.387  14.799
11449W        W75008  20.747  27.976  10.956
11450W        W75009  14.687  27.612  14.786
11451W        W75010  31.138   5.349   2.760
11452W        W75011  33.100  29.573   4.170
11453W        W75012  15.326   7.373  13.548
11454W        W75013   0.306  15.665  13.408
11455W        W75014  26.494  25.006   4.172
11456W        W75015  42.849  30.480   1.345
11457W        W75016   3.328  14.297   0.802
11458W        W75017  20.213  22.537   2.856
11459W        W75018  27.469   6.901  12.431
11460W        W75019   9.681  10.863  10.439
11461W        W75020  35.506  18.165  11.009
11462W        W75021  28.572   5.753   0.294
11463W        W75022  27.098   4.885   0.280
11464W        W75023  24.021   2.466   3.809
11465W        W75024  30.133  31.982  13.373
11466W        W75025  20.060  27.655   3.739
11467W        W75026   8.249  28.989  12.949
11468W        W75027  17.692  40.397   2.670
11469W        W75028   3.427  17.300  10.403
11470W        W75029  43.318   4.239   0.376
11471W        W75030  15.229  20.188  13.480
11472W        W75031  32.956  15.598   0.825
11473W        W75032  26.484   8.802   3.371
11474W        W75033   2.369  39.317  13.016
11475W        W75034   2.762   5.258  13.990
11476W        W75035  33.089  21.524   4.350
11477W        W75036   6.209  40.966   1.434
11478W        W75037   1.948  15.251  12.514
11479W        W75038   9.886  36.913  12.999
11480W        W75039  43.886  30.544  14.502
11481W        W75040  34.463  27.974   0.830
11482W        W75041  12.139  23.602  14.814
11483W        W75042  25.158  29.634   2.206
11484W        W75043  35.535  36.961   0.866
11485W        W75044  42.994  21.050  14.860
11486W        W75045  44.980  33.059   2.261
11487W        W75046  25.565  21.692   3.751
11488W        W75047  33.574   2.893  14.361
11489W        W75048  44.835  27.094  14.834
11490W        W75049   9.187  40.924  11.098
11491W        W75050  33.064  26.463  14.822
11492W        W75051   3.337   8.814   9.985
11493W        W75052  31.011  23.701  11.602
11494W        W75053  40.038  44.852  10.461
11495W        W75054  14.226   6.756   1.377
11496W        W75055  23.118   3.237   1.444
11497W        W75056  29.963  14.234   1.754
11498W        W75057  36.483   3.950   0.303
11499W        W75058  43.946  34.516  13.840
11500W        W75059   3.881  34.498  11.085
11501W        W75060   3.954   7.754   1.446
11502W        W75061  28.620  23.110   0.788
11503W        W75062  25.603  44.301   4.189
11504W        W75063  18.093  27.457  10.535
11505W        W75064  34.484  24.182  10.614
11506W        W75065  37.972   3.934   2.788
11507W        W75066   0.374   5.210  12.444
11508W        W75067  10.657  21.207   3.215
11509W        W75068   7.855  41.312  11.120
11510W        W75069  36.409  15.715   1.914
11511W        W75070  36.895  20.556  11.994
11512W        W75071   7.383  14.186  13.392
11513W        W75072  42.990  11.842   0.426
11514W        W75073  36.908  29.097   2.328
11515W        W75074   7.335  34.569   1.393
11516W        W75075   7.757  25.081  11.064
11517W        W75076  25.520  16.655   3.666
11518W        W75077  10.869   7.718  12.968
11519W        W75078   1.381  21.575  11.523
11520W        W75079  37.869  11.764   4.274
11521W        W75080   8.167  43.838   1.396
11522W        W75081  43.862  23.062  12.381
11523W        W75082  21.236   4.292   4.662
11524W        W75083  15.163  14.149   4.638
11525W        W75084  43.782  24.142  12.016
11526W        W75085  24.590  40.886   0.756
11527W        W75086  26.120  30.987  13.373
11528W        W75087  40.858  11.265   1.816
11529W        W75088  33.523   4.224  14.280
11530W        W75089  17.564  40.857  13.409
11531W        W75090  29.604  37.030  13.797
11532W        W75091  40.841   8.167   2.220
11533W        W75092  38.840  17.663  11.429
11534W        W75093   5.846  38.013  14.826
11535W        W75094  36.551  24.506   2.744
11536W        W75095  34.943  20.614   4.622
11537W        W75096  16.645  36.878   1.721
11538W        W75097  27.504  12.830   1.392
11539W        W75098   8.730  10.221   1.724
11540W        W75099  32.491  21.616   4.299
11541W        W75100  28.532  20.673   4.649
11542W        W75101  41.863  27.009  12.460
11543W        W75102  35.511  42.840   4.683
11544W        W75103  14.157   0.474  14.995
11545W        W75104  38.364  30.956   3.721
11546W        W75105  24.523  21.216   0.840
11547W        W75106  43.317  19.567  14.332
11548W        W75107  14.642  11.637  11.554
11549W        W75108  29.987  12.623   3.747
11550W        W75109  25.620  32.130  10.516
11551W        W75110  15.817   4.320  11.379
11552W        W75111  15.756  36.564  11.908
11553W        W75112   1.275   3.352   4.283
11554W        W75113  21.058  19.067   1.756
11555W        W75114   4.866  20.729  12.452
11556W        W75115   1.822  34.011  11.124
11557W        W75116  36.482  25.066  12.505
11558W        W75117  16.166   6.767  13.531
11559W        W75118  15.721   3.275   9.937
11560W        W75119  23.729   8.315  13.361
11561W        W75120  36.518  42.897   0.251
11562W        W75121  37.078   5.876   0.251
11563W        W75122  18.578  41.399  14.398
11564W        W75123  41.926  14.814  13.492
11565W        W75124   2.323  40.466  12.959
11566W        W75125  36.093  37.890  14.491
11567W        W75126  19.712  16.601  13.486
11568W        W75127  31.958  44.291   0.963
11569W        W75128  13.724  27.957  10.470
11570W        W75129   8.280  16.227   4.778
11571W        W75130  21.179   0.852   1.313
11572W        W75131  25.593   7.696   1.384
11573W        W75132  17.118  30.599  11.925
11574W        W75133  40.894   3.776  12.418
11575W        W75134   3.343   4.847  12.988
11576W        W75135  44.451  16.127   3.752
11577W        W75136  33.473  11.174   3.734
11578W        W75137  38.986  24.217   0.811
11579W        W75138   6.303  34.430  11.553
11580W        W75139  42.969  27.194   3.677
11581W        W75140   6.337  22.138   3.347
11582W        W75141   3.717   4.427   2.311
11583W        W75142  29.565  14.226   4.148
11584W        W75143  15.264  39.560   4.321
11585W        W75144  15.629   7.200  13.505
11586W        W75145  36.868  26.548   2.748
11587W        W75146   9.687  35.875  11.105
11588W        W75147  32.528  31.073  14.449
11589W        W75148  34.992  10.647  14.465
11590W        W75149  11.831  18.099   2.361
11591W        W75150  23.649   2.342  11.074
11592W        W75151  35.540   0.284   2.182
11593W        W75152  42.426  10.269   2.399
11594W        W75153  23.715  27.684  14.382
11595W        W75154  43.835   7.786   2.250
11596W        W75155  42.861  39.037   0.861
11597W        W75156  44.965  19.757   4.229
11598W        W75157  27.176  36.842   2.358
11599W        W75158   3.456   6.352   2.763
11600W        W75159  18.101   8.216  10.460
11601W        W75160  40.860   3.757   0.375
11602W        W75161  10.781  13.836   2.414
11603W        W75162  10.320  36.569   3.707
11604W        W75163  15.638  31.422   3.345
11605W        W75164  41.967   8.224   1.301
11606W        W75165   6.743  37.567   5.297
11607W        W75166  10.264  31.065   2.827
11608W        W75167  38.018  40.537   3.733
11609W        W75168   5.724  20.243  12.461
11610W        W75169   3.951  37.526  11.937
11611W        W75170   7.236   9.660   4.219
11612W        W75171   8.332  17.208  14.513
11613W        W75172   7.206  33.071   2.875
11614W        W75173  16.706  39.370  10.406
11615W        W75174  29.099   6.389  11.958
11616W        W75175   2.322  12.747   3.281
11617W        W75176   5.790  31.125  11.420
11618W        W75177  10.207   7.775  12.454
11619W        W75178  26.490  23.661   4.302
11620W        W75179   1.919   4.768   2.352
11621W        W75180  11.225   2.830  13.792
11622W        W75181  41.386  25.564  13.336
11623W        W75182   3.458   2.812  14.823
11624W        W75183   9.763  10.641   4.251
11625W        W75184  11.185   4.225  14.401
11626W        W75185   2.775   3.915   4.601
11627W        W75186  29.465  44.856  11.096
11628W        W75187  25.111  15.784  13.454
11629W        W75188  32.401   8.234   4.658
11630W        W75189   2.254  27.145   3.728
11631W        W75190  10.207  15.778   3.212
11632W        W75191   7.682  13.259   4.158
11633W        W75192  42.955   7.223   3.148
11634W        W75193  44.444  16.631  13.051
11635W        W75194  41.031  19.659   4.251
11636W        W75195   0.766  23.198  12.960
11637W        W75196  20.037  34.527   1.785
11638W        W75197   6.872  37.404   0.369
11639W        W75198  43.933   8.881   2.276
11640W        W75199  12.177  11.649   0.775
11641W        W75200  11.304  27.630   1.327
11642W        W75201  35.044   3.769  13.034
11643W        W75202   7.783   6.907   0.934
11644W        W75203  31.941  26.517  11.050
11645W        W75204   9.274   8.771   3.696
11646W        W75205   3.436  19.213  14.307
11647W        W75206  38.342  10.720   2.902
11648W        W75207  30.032  41.504   3.310
11649W        W75208  23.069  36.877   3.222
11650W        W75209  43.837  23.007  13.390
11651W        W75210  25.143   7.280   4.257
11652W        W75211  16.247  34.441   3.642
11653W        W75212  23.693  14.162   3.323
11654W        W75213   3.249  13.203   4.782
11655W        W75214  15.807  12.200   2.704
11656W        W75215  23.164  12.289  13.887
11657W        W75216  12.233   8.890   3.757
11658W        W75217  44.757  23.065  11.020
11659W        W75218   4.778   5.216   0.417
11660W        W75219  42.926   0.319   4.264
11661W        W75220  16.182  28.930   3.280
11662W        W75221  42.836  27.619  14.981
11663W        W75222  32.520  17.575   0.387
11664W        W75223  26.523  24.068   1.919
11665W        W75224  15.302  43.318   4.255
11666W        W75225  23.609  24.551   3.707
11667W        W75226  14.662  30.038  14.309
11668W        W75227   6.861  20.168   2.332
11669W        W75228  20.753  39.357   2.413
11670W        W75229  12.742   7.398   2.200
11671W        W75230   5.925  35.864   3.650
11672W        W75231   8.868   7.864  10.550
11673W        W75232  29.140  35.899  12.943
11674W        W75233  38.373  12.156  12.549
11675W        W75234  25.026  30.594  13.993
11676W        W75235  33.049  31.946   1.823
11677W        W75236   5.835  35.533  11.475
11678W        W75237   9.359  15.579   4.632
11679W        W75238  37.563  44.965  14.436
11680W        W75239   8.387  25.001   2.193
11681W        W75240  36.466  22.146   3.788
11682W        W75241  20.697   8.389  13.332
11683W        W75242  35.971   7.385   2.187
11684W        W75243   9.264  25.624  13.310
11685W        W75244   1.394  12.631   0.919
11686W        W75245  16.209  34.050  12.062
11687W        W75246  43.789  12.167  12.954
11688W        W75247  24.095   9.804   1.212
11689W        W75248  27.450   4.421   0.784
11690W        W75249  32.131  11.653   2.836
11691W        W75250  12.688  22.505   5.255
11692W        W75251  40.960  35.533   0.765
11693W        W75252   3.778   0.420   2.815
11694W        W75253  14.259   7.894   3.247
11695W        W75254  34.924  27.115  14.984
11696W        W75255  44.404  15.123   2.241
11697W        W75256  41.530  44.858  13.492
11698W        W75257   0.314  19.063   3.335
11699W        W75258  12.274  35.415   1.241
11700W        W75259  29.061  38.340  10.532
11701W        W75260  22.073   1.829  12.573
11702W        W75261   8.834  34.384  14.840
11703W        W75262  12.150  27.140  12.833
11704W        W75263  16.651  38.418  10.451
11705W        W75264  18.256   1.921   4.698
11706W        W75265  34.558  44.835  11.881
11707W        W75266  15.266  40.398   1.885
11708W        W75267  17.735  21.212   1.746
11709W        W75268  35.415   5.900   2.328
11710W        W75269  31.600   6.890  13.926
11711W        W75270  31.430  22.107  12.576
11712W        W75271  13.644  37.376  11.517
11713W        W75272  34.943   2.467  10.581
11714W        W75273  33.508  36.991  14.905
11715W        W75274   6.905  11.329   4.116
11716W        W75275  39.457  11.168   3.291
11717W        W75276  42.915  44.317   3.812
11718W        W75277   1.805  42.983  10.406
11719W        W75278  12.336  21.252  11.957
11720W        W75279  40.349  22.600  13.809
11721W        W75280  11.141  21.731   2.227
11722W        W75281  28.142  35.496  13.009
11723W        W75282  12.824   9.325   1.891
11724W        W75283  39.549  32.005  13.540
11725W        W75284   4.815  35.391  10.501
11726W        W75285  17.115   5.411  12.421
11727W        W75286   2.300  12.771   0.882
11728W        W75287  36.883   3.916   1.418
11729W        W75288  33.029   6.421   1.255
11730W        W75289  22.243  34.876   2.793
11731W        W75290  28.141  33.497  10.407
11732W        W75291  21.752  15.318   0.782
11733W        W75292   0.975   9.375   2.756
11734W        W75293  36.843   5.225  11.079
11735W        W75294  41.814  30.532  14.296
11736W        W75295  40.881   8.723  14.891
11737W        W75296  17.086   5.842   0.436
11738W        W75297  26.035  44.911  11.941
11739W        W75298   0.326  29.149  13.912
11740W        W75299   8.893   5.927   0.959
11741W        W75300  13.618  22.172   2.311
11742W        W75301  38.546  36.980   2.879
11743W        W75302  43.462  23.699  10.135
11744W        W75303  31.538  20.581   2.665
11745W        W75304  17.227  27.543   2.343
11746W        W75305  19.282  13.629   4.829
11747W        W75306  28.502  40.394   0.359
11748W        W75307  29.603  20.201  11.114
11749W        W75308   4.807  22.021  12.349
11750W        W75309  29.642  43.017   0.802
11751W        W75310  26.621  27.184  13.844
11752W        W75311  22.602  30.933   3.275
11753W        W75312  10.636  36.956  13.920
11754W        W75313  35.603  38.442   2.228
11755W        W75314  23.634  33.005  11.372
11756W        W75315  23.200  20.132  14.019
11757W        W75316  11.136  15.176  13.817
11758W        W75317  20.223  22.737   0.385
11759W        W75318  24.612  42.880  14.904
11760W        W75319  39.898  21.051   3.242
11761W        W75320  38.436   3.397   3.311
11762W        W75321  26.147  16.224   2.806
11763W        W75322  21.251  39.351   3.301
11764W        W75323   8.162  37.959   4.191
11765W        W75324  17.203  18.748   0.818
11766W        W75325  34.611  14.691   4.141
11767W        W75326  28.178  19.160   2.361
11768W        W75327  25.641   8.374  12.026
11769W        W75328  13.164  40.404   0.353
11770W        W75329  27.144  31.002  14.461
11771W        W75330  16.588  39.899   2.687
11772W        W75331  20.173  38.397  10.484
11773W        W75332   3.299  36.939   2.203
11774W        W75333  20.576   9.835   3.844
11775W        W75334   4.319  40.461   2.196
11776W        W75335   8.865   0.875  11.396
11777W        W75336  16.213  14.121   0.962
11778W        W75337  35.372  40.439  14.295
11779W        W75338  40.524  11.814  12.979
11780W        W75339  44.982  44.324  10.119
11781W        W75340  43.949  36.047   4.258
11782W        W75341  19.073  13.790  13.349
11783W        W75342  44.875  17.646   0.334
11784W        W75343   9.360  11.779  12.066
11785W        W75344  28.499  37.521  12.031
11786W        W75345  37.490  14.194  14.809
11787W        W75346  44.320  40.478   0.753
11788W        W75347   4.269  22.148   0.908
11789W        W75348  30.120  44.902   0.476
11790W        W75349   1.285  40.318  10.424
11791W        W75350  11.160  39.942   3.166
11792W        W75351   0.960  11.193  13.840
11793W        W75352  18.601  16.246   0.364
11794W        W75353  32.019  23.096  13.472
11795W        W75354  39.964  32.543   0.945
11796W        W75355   6.381  34.095   0.473
11797W        W75356   7.829  11.285  13.353
11798W        W75357   6.417  31.521  10.613
11799W        W75358  20.712  14.597   3.258
11800W        W75359   4.776  14.340  14.028
11801W        W75360  14.758  27.194  10.407
11802W        W75361  37.033  40.965  12.486
11803W        W75362  25.603  20.711  10.892
11804W        W75363  18.103   5.858   0.751
11805W        W75364  18.685  22.199   3.368
11806W        W75365  26.567  39.859   1.872
11807W        W75366  13.667  42.972   1.721
11808W        W75367  12.342  27.454  12.344
11809W        W75368   3.301  40.533  10.432
11810W        W75369  28.556  17.172   4.616
11811W        W75370   9.193  42.790   0.940
11812W        W75371   3.796  30.501   0.358
11813W        W75372   2.928  19.586   4.654
11814W        W75373   3.858   2.275   3.870
11815W        W75374  19.651  31.435  14.288
11816W        W75375  10.355  43.923   0.911
11817W        W75376  18.160  27.540   3.724
11818W        W75377  13.249  25.551   4.176
11819W        W75378  20.705  15.227  12.513
11820W        W75379   3.226  10.280  13.479
11821W        W75380   4.344  38.387  13.351
11822W        W75381  30.476  32.575   1.218
11823W        W75382  11.149  12.328   0.360
11824W        W75383  21.556  34.549   2.878
11825W        W75384  21.677  41.855  14.293
11826W        W75385  36.563  31.509  12.537
11827W        W75386  14.814  23.490   2.738
11828W        W75387  21.638  29.626   0.257
11829W        W75388   6.377  14.826  10.938
11830W        W75389  14.276  19.082  12.508
11831W        W75390  34.042  18.228  11.968
11832W        W75391   7.352  27.649  11.576
11833W        W75392  24.202   3.779   0.389
11834W        W75393  23.159  32.957  11.095
11835W        W75394  24.494  23.150  10.035
11836W        W75395   6.791  38.470  13.541
11837W        W75396  42.877  36.458   0.870
11838W        W75397   7.183   3.394  12.551
11839W        W75398   0.897  37.523   2.738
11840W        W75399  21.109  43.996   3.678
11841W        W75400  17.609   0.986  11.483
11842W        W75401  22.017  26.170  13.461
11843W        W75402   3.226  42.487  13.311
11844W        W75403  13.190   0.925  10.522
11845W        W75404  22.213  38.850  13.810
11846W        W75405   4.445  27.058   0.874
11847W        W75406  11.702  42.400   0.896
11848W        W75407   2.798  20.257   3.165
11849W        W75408  23.173  15.642  10.521
11850W        W75409  25.496   8.176   1.304
11851W        W75410  38.341  39.988  11.962
11852W        W75411   4.837  33.383   3.719
11853W        W75412  44.825  11.190   0.883
11854W        W75413   0.753  18.770  13.959
11855W        W75414  20.200  19.734   4.325
11856W        W75415  18.149   0.307   2.786
11857W        W75416   4.932  21.554   4.133
11858W        W75417  25.162   3.370  10.981
11859W        W75418   5.237  40.327   2.375
11860W        W75419  38.450   5.735   4.624
11861W        W75420  42.901  11.152   3.684
11862W        W75421  43.878  26.081  12.572
11863W        W75422  27.009   4.255  10.568
11864W        W75423  43.905  16.777   3.693
11865W        W75424  36.492   5.294   0.908
11866W        W75425   0.772   3.263  12.499
11867W        W75426   4.258  16.115  14.789
11868W        W75427  10.376   1.845   1.308
11869W        W75428  15.735  33.092  10.532
11870W        W75429  30.602  18.771   2.843
11871W        W75430  26.541  44.314  11.100
11872W        W75431  24.583  10.229   3.631
11873W        W75432  43.780  13.711  14.929
11874W        W75433  28.187  40.891  12.515
11875W        W75434  11.270   8.326   4.662
11876W        W75435  44.888  13.282  10.453
11877W        W75436  13.615   9.698   1.392
11878W        W75437  18.591   6.914  14.985
11879W        W75438  16.084  14.799  14.994
11880W        W75439  40.392  15.279  12.911
11881W        W75440  12.840   5.250   2.888
11882W        W75441   2.886  20.723   1.424
11883W        W75442  38.414  13.287  12.440
11884W        W75443  17.290  11.358   4.626
11885W        W75444  25.708  18.650  11.123
11886W        W75445  22.635  24.996  13.960
11887W        W75446  30.416  33.098   0.870
11888W        W75447  34.899  44.753  10.613
11889W        W75448  27.040  23.013  10.503
11890W        W75449   5.238  39.828   4.295
11891W        W75450  29.662   4.708   3.251
11892W        W75451  20.533  22.234  11.941
11893W        W75452  13.180  21.751   9.636
11894W        W75453  31.128  36.084  10.901
11895W        W75454   4.439  12.822   3.871
11896W        W75455  35.586   5.267  14.958
11897W        W75456  41.820   3.430  11.458
11898W        W75457  38.031  11.745   3.377
11899W        W75458  29.488  23.628  14.274
11900W        W75459   6.239  20.141  11.373
11901W        W75460  41.948  44.276  14.504
11902W        W75461  39.539   7.791   2.279
11903W        W75462  14.120  40.019   3.655
11904W        W75463  22.171  30.004  12.910
11905W        W75464  16.207  22.152   0.820
11906W        W75465   2.378  19.092  12.062
11907W        W75466  35.981   1.944   2.259
11908W        W75467  40.407  41.497  10.061
11909W        W75468  42.503   8.715   0.401
11910W        W75469  13.123  38.054   4.605
11911W        W75470  14.110   9.774  11.534
11912W        W75471  44.323  14.728  11.428
11913W        W75472  20.048  44.496  12.441
11914W        W75473   0.784  30.444   4.748
11915W        W75474   0.769  43.904  10.907
11916W        W75475  28.519  20.163  10.957
11917W        W75476  33.551   9.857  11.975
11918W        W75477   1.833   0.945   2.415
11919W        W75478  34.377  32.579   2.693
11920W        W75479  39.896  21.089  12.437
11921W        W75480  25.617  17.218  11.429
11922W        W75481  31.481  29.049   3.835
11923W        W75482  31.463  44.972   4.287
11924W        W75483  35.421  11.841  11.981
11925W        W75484  41.451  19.644  10.638
11926W        W75485  41.306  21.658  11.966
11927W        W75486  12.676  28.004  13.803
11928W        W75487  41.476   5.797   4.675
11929W        W75488  40.468  39.981  10.496
11930W        W75489  42.418  28.061  13.372
11931W        W75490  43.298  44.853   3.232
11932W        W75491  23.691   1.476  13.879
11933W        W75492  33.431  19.149  12.085
11934W        W75493  10.745  13.222  14.395
11935W        W75494   5.800  16.099   1.314
11936W        W75495  25.495  33.402  13.472
11937W        W75496   3.217  15.271   0.747
11938W        W75497  10.829  26.524  13.501
11939W        W75498  30.122  18.057   1.733
11940W        W75499  29.655  10.325   2.698
11941W        W75500  26.546  14.337  11.397
11942W        W75501  42.808   8.301   2.325
11943W        W75502  21.517  43.821   4.788
11944W        W75503  35.387  11.695   4.635
11945W        W75504  20.150   0.258   4.309
11946W        W75505   2.819  37.381  10.454
11947W        W75506  11.317  19.243  11.374
11948W        W75507  43.780  39.399  11.065
11949W        W75508  28.172  16.660   4.665
11950W        W75509  24.590  38.878   3.316
11951W        W75510  24.228  42.881   1.869
11952W        W75511   9.749   1.461  12.575
11953W        W75512  37.953  19.577  13.359
11954W        W75513  30.933  28.519  14.344
11955W        W75514   4.301  28.139  10.422
11956W        W75515  35.582  37.419  12.986
11957W        W75516  31.013  35.006  14.027
11958W        W75517  42.904  32.933  12.469
11959W        W75518   1.470   9.873  13.862
11960W        W75519  21.594   6.357  11.860
11961W        W75520  11.354   1.794  14.783
11962W        W75521  22.693   7.781  13.856
11963W        W75522  28.069   9.753   3.242
11964W        W75523  36.988   4.726  11.607
11965W        W75524  10.791   5.221   3.663
11966W        W75525   8.242  11.851   4.218
11967W        W75526  11.662   7.396   2.800
11968W        W75527  20.744  27.974   2.680
11969W        W75528  10.638  13.665   1.890
11970W        W75529  34.586  10.641  10.597
11971W        W75530  28.619  43.911  14.473
11972W        W75531  35.925  12.120   4.760
11973W        W75532  14.224   1.785  12.037
11974W        W75533  33.918  38.865  11.877
11975W        W75534  42.360   6.846   3.168
11976W        W75535  42.951  35.579   1.379
11977W        W75536  16.283  20.218   2.391
11978W        W75537  10.809   2.329  12.009
11979W        W75538  11.661  35.392   3.789
11980W        W75539  10.206   0.857   0.311
11981W        W75540  44.505  17.702  10.930
11982W        W75541  40.518  37.080   3.265
11983W        W75542  34.085  20.160  13.053
11984W        W75543  14.630  17.089  13.928
11985W        W75544   9.318  35.506  13.519
11986W        W75545  27.512   9.822   2.362
11987W        W75546  25.018   5.243  12.456
11988W        W75547  28.570   6.889   4.799
11989W        W75548  31.450   6.223  11.476
11990W        W75549  34.889  30.950   0.925
11991W        W75550  11.860   9.814   3.192
11992W        W75551  26.064  17.671  12.901
11993W        W75552   1.285  10.735   0.935
11994W        W75553  11.257  24.722   1.444
11995W        W75554  37.859  34.924   5.303
11996W        W75555   7.736  29.550   1.930
11997W        W75556  30.962  10.361  10.476
11998W        W75557  31.531   7.876   2.322
11999W        W75558  38.551  20.621   0.814
12000W        W75559  15.644  28.987   3.220
12001W        W75560   6.416  18.609   5.141
12002W        W75561  28.031   2.824   4.175
12003W        W75562   9.273  17.675  12.002
12004W        W75563  15.258  24.102  14.495
12005W        W75564  20.261  13.291  11.467
12006W        W75565  18.182  37.438   2.723
12007W        W75566  26.477  28.569   4.194
12008W        W75567  19.150   8.257   2.299
12009W        W75568   8.305  15.289  12.553
12010W        W75569  39.903  13.675   1.762
12011W        W75570  26.661  12.854   2.367
12012W        W75571  29.969  35.500  13.499
12013W        W75572  30.001  22.102   1.360
12014W        W75573  25.706   6.894  11.031
12015W        W75574  10.726   8.823   2.355
12016W        W75575  10.340  10.333  12.889
12017W        W75576  13.324  10.254  13.479
12018W        W75577   0.365   1.322  11.010
12019W        W75578  13.244   8.769   2.723
12020W        W75579  27.153  34.423  10.964
12021W        W75580  32.556  23.144   1.781
12022W        W75581  31.938  16.088   0.461
12023W        W75582  17.675  10.755  13.543
12024W        W75583  37.974  39.531   2.245
12025W        W75584   2.870  10.688   1.730
12026W        W75585   9.663  43.456   1.284
12027W        W75586  36.540  10.671   9.990
12028W        W75587  16.642   2.900   0.285
12029W        W75588  34.443   3.757  13.842
12030W        W75589  30.009   4.784  12.966
12031W        W75590   5.695  39.444  10.901
12032W        W75591   5.194  14.591   3.354
12033W        W75592  42.325   0.751   4.642
12034W        W75593   6.691  25.467   1.785
12035W        W75594  10.224  28.126  11.092
12036W        W75595  18.774  22.529  10.637
12037W        W75596   1.341  12.327  11.986
12038W        W75597  38.392  17.788   4.149
12039W        W75598   6.283  12.795  14.849
12040W        W75599  16.217   8.365   5.705
12041W        W75600  14.288   8.383  14.978
12042W        W75601   7.784   3.719  13.932
12043W        W75602  37.497  17.086   2.191
12044W        W75603  40.306   4.793   0.790
12045W        W75604  44.990  34.558   1.254
12046W        W75605   9.362  37.838   2.860
12047W        W75606  19.620  23.182  12.038
12048W        W75607  32.069  40.499   2.790
12049W        W75608  31.600   9.728  10.410
12050W        W75609  11.293  22.628  13.329
12051W        W75610   1.819   2.959   4.611
12052W        W75611   3.411   9.654   1.409
12053W        W75612  38.875  39.465  10.910
12054W        W75613  33.949   5.207   2.690
12055W        W75614  17.202  26.185  13.309
12056W        W75615  19.075   1.923   4.117
12057W        W75616  44.392  20.112   0.370
12058W        W75617  44.390  34.534  14.311
12059W        W75618   3.915  11.833   4.736
12060W        W75619   0.804  28.531  14.427
12061W        W75620  34.939  29.114   3.729
12062W        W75621  27.481   0.799  14.884
12063W        W75622   0.754  17.267   5.132
12064W        W75623  19.044  12.644   2.383
12065W        W75624  31.926   6.237   3.175
12066W        W75625  14.117   7.213   2.254
12067W        W75626   2.795  38.570   4.220
12068W        W75627  36.567   3.218  12.831
12069W        W75628  10.854   2.884  12.013
12070W        W75629  32.990  24.017  13.312
12071W        W75630   6.356  23.096  14.967
12072W        W75631   7.830  28.671  13.345
12073W        W75632  21.739  37.070   3.807
12074W        W75633  39.411  26.140  11.075
12075W        W75634  44.911  39.856   0.309
12076W        W75635  34.892   7.772  13.023
12077W        W75636  30.419  26.023  12.347
12078W        W75637  20.169  33.895   2.230
12079W        W75638  35.857   7.777  11.388
12080W        W75639  24.517  31.925   2.409
12081W        W75640  14.204  26.070   3.730
12082W        W75641  28.991  40.995  11.504
12083W        W75642  29.436  34.072   3.179
12084W        W75643  29.448  29.622   4.647
12085W        W75644  13.807  13.684  11.522
12086W        W75645  37.861  28.579   1.224
12087W        W75646  15.671  27.136  12.824
12088W        W75647  32.631  25.648   1.294
12089W        W75648  18.663  35.020  13.427
12090W        W75649  29.945  31.642  11.571
12091W        W75650  34.596  24.062   1.279
12092W        W75651  19.694  12.650   0.839
12093W        W75652  14.210  35.525  13.420
12094W        W75653  36.557  36.529  13.016
12095W        W75654  12.692  28.010   3.176
12096W        W75655  30.435  30.087   4.193
12097W        W75656   4.253  11.355  12.506
12098W        W75657   4.370  17.180  13.847
12099W        W75658   7.303  39.946   1.843
12100W        W75659  42.877   7.857  11.498
12101W        W75660  22.228  15.595   2.311
12102W        W75661  34.087  33.926   3.236
12103W        W75662  19.197  22.037  12.999
12104W        W75663  18.625   2.785  12.022
12105W        W75664  39.478  15.269   1.861
12106W        W75665   3.901  15.146   3.377
12107W        W75666  32.623  24.997   4.787
12108W        W75667  12.179  20.713   1.854
12109W        W75668  40.929  31.924  12.435
12110W        W75669  24.058  43.421   3.689
12111W        W75670  41.455   6.324   4.705
12112W        W75671  19.114  34.416  12.063
12113W        W75672  38.500  34.970  11.573
12114W        W75673  31.088  38.553  10.508
12115W        W75674  10.361  24.201  14.336
12116W        W75675  43.307  13.175   2.673
12117W        W75676  32.544  36.080   0.897
12118W        W75677  27.513   8.858   4.787
12119W        W75678  42.962  32.560  12.397
12120W        W75679  19.193  40.858  14.805
12121W        W75680  16.244   9.777  10.545
12122W        W75681  23.137  33.500   2.179
12123W        W75682   2.925  39.543  12.561
12124W        W75683  44.932   2.256   3.630
12125W        W75684  14.224   0.318  10.508
12126W        W75685   8.665   0.895   2.883
12127W        W75686  32.568   1.933  10.451
12128W        W75687  21.159  34.944  11.073
12129W        W75688  12.622  28.056  14.765
12130W        W75689   5.778  27.013  13.050
12131W        W75690  34.980  31.501  12.002
12132W        W75691  19.665  15.318   3.324
12133W        W75692  17.081  26.037  10.096
12134W        W75693  43.291  29.128  12.555
12135W        W75694  18.786  18.550  12.835
12136W        W75695  11.624  34.482  12.569
12137W        W75696  43.278  37.369  12.453
12138W        W75697  20.184  28.652   9.997
12139W        W75698  25.485  19.553   1.727
12140W        W75699  12.626  18.128  10.504
12141W        W75700  31.061   7.407   3.225
12142W        W75701  26.564   6.716  13.999
12143W        W75702  32.019  23.041  10.535
12144W        W75703  23.159  31.138  10.581
12145W        W75704  11.794  36.487  10.139
12146W        W75705  32.539   5.231  11.554
12147W        W75706  38.534  25.987   1.720
12148W        W75707  28.011  25.619  11.484
12149W        W75708  21.538  25.205   3.781
12150W        W75709  14.806  15.170  12.966
12151W        W75710  43.770   9.672   1.243
12152W        W75711  24.546  39.860   1.274
12153W        W75712  36.454  37.557   0.833
12154W        W75713   9.286  43.458   3.227
12155W        W75714  40.805  34.888   4.346
12156W        W75715  11.860  44.753  13.977
12157W        W75716  34.049  38.842  12.896
12158W        W75717  20.733  14.301   2.720
12159W        W75718  34.590   8.715  13.024
12160W        W75719  28.483  13.715   4.761
12161W        W75720  39.823  39.994   1.210
12162W        W75721  23.991   7.687  10.486
12163W        W75722   1.749  31.948   2.823
12164W        W75723  32.025  10.162  13.994
12165W        W75724  10.702   7.330   4.800
12166W        W75725  33.895  34.994   2.303
12167W        W75726  42.338  19.611  12.029
12168W        W75727  23.231  41.871  14.295
12169W        W75728  27.119  16.705   2.372
12170W        W75729  12.310  32.021   0.262
12171W        W75730  36.494  43.492   4.700
12172W        W75731  31.911  24.146   2.802
12173W        W75732  44.301   9.277  13.363
12174W        W75733  39.014   4.230   4.608
12175W        W75734  11.790  22.249   2.834
12176W        W75735   5.857  17.194  13.925
12177W        W75736  34.554  35.510  13.936
12178W        W75737  13.778  27.030   2.768
12179W        W75738   8.304  33.384  14.870
12180W        W75739   6.792   0.826   0.451
12181W        W75740  21.617  16.194  12.849
12182W        W75741  11.622   9.180   2.203
12183W        W75742   7.182  22.093  14.450
12184W        W75743  24.540   7.188  14.299
12185W        W75744  28.127  26.147  14.383
12186W        W75745  42.333   9.876  13.365
12187W        W75746  16.279  40.473  12.874
12188W        W75747  28.533  25.584  12.544
12189W        W75748   7.215  26.600  14.302
12190W        W75749   2.361  12.248  12.495
12191W        W75750  30.090  34.959  13.969
12192W        W75751   8.173  38.072  14.877
12193W        W75752  14.759  17.259   0.931
12194W        W75753  40.520  29.640  11.499
12195W        W75754  18.598  16.804   3.667
12196W        W75755  44.351  24.589   3.376
12197W        W75756  12.855  16.617  10.489
12198W        W75757  28.994  39.480   1.847
12199W        W75758  31.039  40.481  12.960
12200W        W75759  16.202  32.116  13.388
12201W        W75760  11.236  20.704  12.491
12202W        W75761   3.767  13.113   2.178
12203W        W75762  14.295  25.677  12.961
12204W        W75763  13.194  19.689   9.936
12205W        W75764   5.349  23.080   2.360
12206W        W75765  39.841  26.134   0.301
12207W        W75766  27.007  11.205   1.874
12208W        W75767   6.184  36.097   3.663
12209W        W75768  33.989   2.393   4.683
12210W        W75769  39.878  20.589  12.383
12211W        W75770  10.349  11.865  12.451
12212W        W75771  36.587   2.932   4.698
12213W        W75772  23.170  26.658  12.968
12214W        W75773  38.069  12.804   0.292
12215W        W75774  35.910  19.535   3.831
12216W        W75775   8.860  25.045   4.683
12217W        W75776  18.196  28.977   2.858
12218W        W75777  18.571   4.356  14.345
12219W        W75778   3.253  41.831   5.128
12220W        W75779  32.890  23.201  14.317
12221W        W75780  41.434  12.842  11.017
12222W        W75781  44.824   4.836  14.993
12223W        W75782  11.798  18.741  13.377
12224W        W75783  24.030   2.894  11.079
12225W        W75784  39.327  18.113  14.792
12226W        W75785  33.598   1.433   4.121
12227W        W75786  36.018  18.196   0.859
12228W        W75787  23.579   0.252   4.224
12229W        W75788  27.648  25.550   0.325
12230W        W75789   2.802  41.510   1.882
12231W        W75790  37.040  23.176  11.975
12232W        W75791  15.650  27.182   0.885
12233W        W75792  26.068  18.631   1.315
12234W        W75793  20.166  29.069   1.222
12235W        W75794   5.771  11.255  11.428
12236W        W75795  11.805  26.676  10.001
12237W        W75796  11.152  35.592   1.268
12238W        W75797   3.387  38.378   1.697
12239W        W75798  12.756  10.839   3.752
12240W        W75799  36.486  38.332   3.198
12241W        W75800   1.314  21.138  10.892
12242W        W75801  37.421   4.263   4.309
12243W        W75802   9.331  10.764  11.112
12244W        W75803  39.836  20.236  12.410
12245W        W75804  24.008   8.187  13.952
12246W        W75805  36.046   6.363  13.319
12247W        W75806  27.643  37.912   2.260
12248W        W75807  43.335  15.180  10.973
12249W        W75808  12.191  12.720  11.599
12250W        W75809   2.875  40.865   1.886
12251W        W75810  22.065  10.633   1.298
12252W        W75811   2.925  27.543   3.871
12253W        W75812  34.536  31.571  10.912
12254W        W75813   6.835  18.228   1.919
12255W        W75814  31.642  16.221  14.956
12256W        W75815  20.194  23.592  11.082
12257W        W75816  37.861  11.244  14.281
12258W        W75817   5.919  31.916   4.317
12259W        W75818  43.804  44.462  12.013
12260W        W75819  43.384  22.708   2.889
12261W        W75820  22.207  18.284   4.296
12262W        W75821  12.644  34.882  11.422
12263W        W75822  13.778  43.948   2.894
12264W        W75823  14.823  10.170   1.803
12265W        W75824   6.410  14.733  10.605
12266W        W75825   9.339   6.676   1.831
12267W        W75826  29.920  12.804   2.889
12268W        W75827  33.080  41.299  10.521
12269W        W75828  39.869   6.779   4.248
12270W        W75829   1.383   8.837   0.787
12271W        W75830   0.394  38.455  11.081
12272W        W75831  14.663  44.915   2.669
12273W        W75832  23.182   0.339   4.764
12274W        W75833  36.884   5.715  13.515
12275W        W75834  31.488  14.615  12.087
12276W        W75835  32.516  30.582   0.885
12277W        W75836   0.277  26.656   1.897
12278W        W75837  34.433   2.447  11.455
12279W        W75838  35.491   1.968  10.629
12280W        W75839   2.448  35.079  10.890
12281W        W75840  35.025  23.117   2.184
12282W        W75841   7.897  32.010  13.424
12283W        W75842  22.041  41.012  14.471
12284W        W75843  33.519  40.385  11.431
12285W        W75844   8.238  30.162  10.437
12286W        W75845  14.764   4.386  13.431
12287W        W75846   0.909  20.111   1.363
12288W        W75847  37.072  30.907  12.367
12289W        W75848  43.926  10.848  11.940
12290W        W75849  19.703  36.039   3.201
12291W        W75850  27.490   7.829  10.566
12292W        W75851  40.339  25.711  12.464
12293W        W75852  21.194   9.175  13.917
12294W        W75853  28.945  39.853  13.457
12295W        W75854  15.605   0.973   3.629
12296W        W75855  12.190  39.826   4.275
12297W        W75856  21.219  43.974   2.229
12298W        W75857   5.415  24.489  11.048
12299W        W75858  43.360  30.607  11.976
12300W        W75859  15.202  37.440   1.763
12301W        W75860  44.959   3.274  11.022
12302W        W75861  10.848  40.984   2.698
12303W        W75862  37.913  30.092  12.368
12304W        W75863   0.856   5.757  10.503
12305W        W75864  20.141  39.402   3.160
12306W        W75865  19.219  33.102  12.446
12307W        W75866   9.381  42.314  12.065
12308W        W75867  15.747  17.665  11.392
12309W        W75868  26.633  43.354  11.895
12310W        W75869  10.152  25.586  13.449
12311W        W75870   8.367   7.378   0.354
12312W        W75871  43.792  11.222   4.341
12313W        W75872  14.797   4.373  14.977
12314W        W75873  33.085  37.940   4.784
12315W        W75874  16.120  25.010   2.336
12316W        W75875  25.031  16.715   0.409
12317W        W75876  19.644  11.693   0.790
12318W        W75877   2.848  18.094  11.390
12319W        W75878  10.169  22.065  12.825
12320W        W75879  25.108  34.459   2.318
12321W        W75880  31.910  34.920  13.803
12322W        W75881  29.941  12.261   0.422
12323W        W75882  35.444  29.981   2.365
12324W        W75883   9.272  42.910  10.951
12325W        W75884  23.051   7.278   0.839
12326W        W75885  25.042  43.862   1.218
12327W        W75886  34.989  11.356   5.148
12328W        W75887  38.999  28.622   0.797
12329W        W75888  33.586   4.836  14.832
12330W        W75889  26.472  24.695   5.150
12331W        W75890  39.827  35.871   0.927
12332W        W75891  30.069  44.268  11.932
12333W        W75892   9.200  36.358  11.561
12334W        W75893  17.154   6.687  13.989
12335W        W75894  44.861  18.639   2.890
12336W        W75895  30.053   3.847   2.733
12337W        W75896   2.858  29.140  14.334
12338W        W75897  29.581  22.186  14.383
12339W        W75898   5.827  44.008   4.336
12340W        W75899   3.421  34.887   0.407
12341W        W75900  27.536   4.399   1.912
12342W        W75901  42.361   0.454  14.496
12343W        W75902  42.502  17.258  13.988
12344W        W75903  42.875  16.186  12.028
12345W        W75904  44.320  13.341   4.293
12346W        W75905  25.177  31.910  11.418
12347W        W75906  24.612  32.475  13.513
12348W        W75907  15.655  44.889  13.349
12349W        W75908  13.270  26.572   9.920
12350W        W75909   0.439  16.172   3.869
12351W        W75910  43.430  26.632  14.862
12352W        W75911   2.441  28.079   4.625
12353W        W75912  43.472  11.230   3.227
12354W        W75913  30.020  12.149   3.277
12355W        W75914  14.290  12.630   3.790
12356W        W75915   8.729   8.831   2.721
12357W        W75916   3.440  43.793  11.951
12358W        W75917  34.053  42.514  14.301
12359W        W75918   7.190  33.001  10.510
12360W        W75919  13.193  26.138  14.483
12361W        W75920  16.675   3.894  10.623
12362W        W75921  34.560  13.727  11.123
12363W        W75922  12.841  14.700  13.409
12364W        W75923  26.461  21.569  13.895
12365W        W75924  23.163  11.735  12.443
12366W        W75925  15.814  30.631   4.224
12367W        W75926   1.349  15.777  14.769
12368W        W75927  30.147  10.766   0.897
12369W        W75928  22.606  31.479   1.232
12370W        W75929  21.668   0.935  12.063
12371W        W75930  18.253  23.604   1.328
12372W        W75931   0.364  44.883  13.027
12373W        W75932  37.489  14.222  11.548
12374W        W75933   6.881  24.151  13.339
12375W        W75934   8.791  23.125  11.989
12376W        W75935  24.559  29.437  14.854
12377W        W75936  17.174  27.539  10.537
12378W        W75937  36.056   6.702  12.379
12379W        W75938  25.064   9.366  14.927
12380W        W75939  27.493  38.365   1.258
12381W        W75940  32.108   8.194   1.230
12382W        W75941  13.253   9.184   0.739
12383W        W75942   2.897  44.911   0.809
12384W        W75943  24.027  40.310  11.121
12385W        W75944  39.475  34.473  11.056
12386W        W75945  42.471  23.162  11.120
12387W        W75946  44.480   2.806   1.301
12388W        W75947  44.794  25.178   4.257
12389W        W75948  37.982  24.591  10.531
12390W        W75949  26.597  30.944   2.336
12391W        W75950  37.844   6.838  14.992
12392W        W75951  44.323   6.313  13.503
12393W        W75952  16.648   3.945   2.306
12394W        W75953   0.799  16.170   1.293
12395W        W75954  14.793   6.214  10.441
12396W        W75955  32.028  17.703   3.724
12397W        W75956  36.875   8.388   3.639
12398W        W75957  12.722  43.279  10.918
12399W        W75958  17.757  29.943   4.190
12400W        W75959  31.510  39.817   3.261
12401W        W75960   8.873  16.223   3.328
12402W        W75961  24.587  23.560  14.828
12403W        W75962   1.804  34.920   3.339
12404W        W75963  13.253  35.577  13.039
12405W        W75964  11.634  12.305  10.149
12406W        W75965   4.906  32.100  12.563
12407W        W75966  38.444  15.789  11.574
12408W        W75967   2.914  25.589  13.518
12409W        W75968  39.464  44.424   2.789
12410W        W75969   1.482  28.014   0.760
12411W        W75970  40.978  44.495   2.855
12412W        W75971  10.341  16.704   9.998
12413W        W75972  44.769  24.570  13.509
12414W        W75973  26.557  11.768   0.447
12415W        W75974   0.754   0.431  12.833
12416W        W75975  43.873  38.523   0.477
12417W        W75976   8.664  41.348  14.029
12418W        W75977   5.931  11.139  12.009
12419W        W75978  10.857  30.926   1.802
12420W        W75979  41.344  12.729  14.997
12421W        W75980  28.488  37.413   1.387
12422W        W75981  10.700  11.658  11.112
12423W        W75982   3.747  39.809  11.064
12424W        W75983  32.069   6.684  11.050
12425W        W75984   3.285   8.853   0.746
12426W        W75985  43.983  30.575  14.867
12427W        W75986   0.931  26.652  14.490
12428W        W75987  42.902  13.673  11.592
12429W        W75988  23.101  18.082   2.259
12430W        W75989  30.998  27.568   0.945
12431W        W75990  40.961  41.832   2.268
12432W        W75991   8.265  27.068  10.958
12433W        W75992   4.218  12.617  12.034
12434W        W75993  11.206  12.842   0.911
12435W        W75994  18.199   3.839   1.253
12436W        W75995  31.454   6.189  11.126
12437W        W75996   2.232  44.318  12.085
12438W        W75997  42.865  30.572   4.736
12439W        W75998   7.762  11.793   1.867
12440W        W75999  13.106  44.008   3.821
12441W        W76000  42.457   4.720   2.875
12442W        W76001  11.777  40.447   3.164
12443W        W76002  15.154  23.140   3.847
12444W        W76003  25.628  40.846   1.766
12445W        W76004  30.981  41.340  14.339
12446W        W76005  16.594  39.979  11.949
12447W        W76006  13.757  22.197   2.694
12448W        W76007   5.349  17.230  10.583
12449W        W76008   2.345   6.377   0.291
12450W        W76009  14.178  27.566   1.873
12451W        W76010  15.688  38.469   0.406
12452W        W76011  36.472  38.415  12.886
12453W        W76012  44.830  15.739   3.804
12454W        W76013  21.194  37.955   2.201
12455W        W76014  22.623  27.643  14.874
12456W        W76015  33.939   1.814  13.356
12457W        W76016   5.418   7.410   2.409
12458W        W76017  12.818  28.094   2.799
12459W        W76018  36.506   0.488  13.967
12460W        W76019   8.184  19.116  12.829
12461W        W76020   3.864   5.197   3.337
12462W        W76021  38.865  38.508  10.953
12463W        W76022   3.795  19.704   1.795
12464W        W76023  11.629   3.236  10.046
12465W        W76024  42.903  22.695  10.522
12466W        W76025  28.004  28.469   1.306
12467W        W76026  14.338  42.985   1.752
12468W        W76027   7.840  43.892   4.189
12469W        W76028   1.481   2.253  10.541
12470W        W76029  33.035  22.585   1.896
12471W        W76030  19.777  40.945   1.739
12472W        W76031  21.169  15.764   3.716
12473W        W76032  36.876  32.481  13.852
12474W        W76033   0.916  16.097   1.710
12475W        W76034   9.855  36.447  12.974
12476W        W76035  36.576  12.677   2.860
12477W        W76036  18.196  41.954  10.892
12478W        W76037   6.374  21.226  12.906
12479W        W76038  26.145  32.584  14.898
12480W        W76039  19.238  40.355   3.734
12481W        W76040  18.696  42.397  13.983
12482W        W76041  28.041  14.175  11.387
12483W        W76042  43.439  24.503   0.757
12484W        W76043  40.933  42.373   1.381
12485W        W76044  42.988  15.100  11.970
12486W        W76045   0.955   5.362   0.448
12487W        W76046  33.481  37.899   3.330
12488W        W76047  10.313  12.837  13.814
12489W        W76048  20.620  20.523   2.380
12490W        W76049   4.866   8.753  14.362
12491W        W76050  17.296   4.855   3.335
12492W        W76051  10.214  32.061   2.344
12493W        W76052  19.122  22.056   3.795
12494W        W76053  15.201  27.946   4.276
12495W        W76054  21.727  23.710   3.263
12496W        W76055  29.020   8.258   4.773
12497W        W76056  28.930  24.231   1.862
12498W        W76057  17.289   5.200  11.522
12499W        W76058  10.721  15.768  14.898
12500W        W76059  26.669  31.493   2.217
12501W        W76060  26.613  24.637   3.725
12502W        W76061  26.204  20.541  13.999
12503W        W76062  44.999  30.548  11.944
12504W        W76063  12.686   4.864   1.389
12505W        W76064  11.299  12.736   3.362
12506W        W76065  29.640   9.156  13.483
12507W        W76066   9.806   7.738   4.213
12508W        W76067   9.734   9.875   4.187
12509W        W76068   4.840  23.149   4.781
12510W        W76069  12.646  38.501   0.349
12511W        W76070  33.945  32.099   4.775
12512W        W76071  34.551   2.348  13.838
12513W        W76072  32.959  25.535   2.306
12514W        W76073  11.224  21.078   0.390
12515W        W76074  43.856  42.955   1.732
12516W        W76075   6.251  26.492  10.627
12517W        W76076  43.342  19.214   2.216
12518W        W76077  16.619  26.599   1.412
12519W        W76078   8.332  32.120  10.964
12520W        W76079  34.373   9.872   1.361
12521W        W76080   0.793  32.412  13.368
12522W        W76081  36.082  23.658  11.963
12523W        W76082  26.178  33.451   4.151
12524W        W76083  22.055  17.563  12.927
12525W        W76084   6.397   9.838   4.666
12526W        W76085  14.693  15.707   0.367
12527W        W76086  42.315  18.150   3.660
12528W        W76087   6.888  23.230   3.670
12529W        W76088  12.183  19.132   2.382
12530W        W76089  22.515  12.705  13.393
12531W        W76090  10.271  35.906  13.791
12532W        W76091  34.909  43.371  14.947
12533W        W76092  22.513   5.912  11.479
12534W        W76093  20.108  17.726   4.189
12535W        W76094  15.813  32.567   2.348
12536W        W76095  44.977   5.220  12.495
12537W        W76096  22.036  31.489   1.350
12538W        W76097   4.738  20.745  11.954
12539W        W76098   6.789  44.930   0.772
12540W        W76099  12.309  42.341   4.721
12541W        W76100  36.401   5.293  14.816
12542W        W76101  26.602  18.770  11.557
12543W        W76102  28.035   4.353  14.312
12544W        W76103  21.095  37.880  11.441
12545W        W76104   3.732   0.781   2.822
12546W        W76105  24.231  11.341   3.697
12547W        W76106  42.808  10.146  10.422
12548W        W76107  24.122  35.061   1.896
12549W        W76108  20.158  17.750  13.881
12550W        W76109  41.852  33.035   0.256
12551W        W76110  27.604  28.933  10.502
12552W        W76111  36.515  23.689  13.361
12553W        W76112   3.396   1.826  11.895
12554W        W76113  15.699  26.482   3.221
12555W        W76114  21.074  32.020  12.436
12556W        W76115   0.377  43.958  11.480
12557W        W76116   0.407  23.133   1.804
12558W        W76117  19.276   7.892   0.273
12559W        W76118  38.335   2.393  11.450
12560W        W76119  20.697   1.797   1.727
12561W        W76120  15.201  20.752  14.457
12562W        W76121  26.699  24.990   1.219
12563W        W76122   6.834   8.405   0.369
12564W        W76123  13.170  21.560   5.231
12565W        W76124  35.984  11.694  14.310
12566W        W76125   8.820  38.376  10.504
12567W        W76126  33.450  34.388   4.697
12568W        W76127  39.020  10.356   0.943
12569W        W76128  19.161  43.326  11.882
12570W        W76129  32.605  12.664   1.919
12571W        W76130  14.678  43.407   1.736
12572W        W76131   3.386  41.975   3.276
12573W        W76132  17.775   5.307   0.312
12574W        W76133  35.090   0.266   1.424
12575W        W76134  44.346  25.546   0.354
12576W        W76135   0.791  35.095  13.488
12577W        W76136  14.285   2.397  11.006
12578W        W76137  25.172  11.224   3.380
12579W        W76138  31.035  39.540  10.965
12580W        W76139  34.882   4.410   4.184
12581W        W76140  32.913  21.256   1.833
12582W        W76141  16.651  17.160  10.537
12583W        W76142   0.439  36.949  10.897
12584W        W76143  24.220  30.017   5.082
12585W        W76144  30.620   3.363   4.743
12586W        W76145  32.625   8.874   3.805
12587W        W76146  27.543   0.325  14.938
12588W        W76147  13.727  35.518   0.441
12589W        W76148  41.830  36.494   4.784
12590W        W76149  10.761  12.842   0.411
12591W        W76150  10.790  43.430   2.335
12592W        W76151   2.773  24.984  11.876
12593W        W76152  25.608  43.391  12.512
12594W        W76153  30.915  24.221   0.730
12595W        W76154  30.598  40.847   4.776
12596W        W76155  34.983  36.405   3.274
12597W        W76156  24.055  32.511  10.965
12598W        W76157  41.499   4.213  13.479
12599W        W76158   1.315  44.405   2.259
12600W        W76159  32.618  28.132   2.245
12601W        W76160  41.943  28.066  11.520
12602W        W76161   6.250   9.319   2.272
12603W        W76162   1.352  15.788   3.767
12604W        W76163  17.658   2.447  14.400
12605W        W76164  43.991  16.759   4.186
12606W        W76165  17.086  32.080   0.750
12607W        W76166  19.200   6.257   2.228
12608W        W76167  27.536   0.376  14.280
12609W        W76168  33.972  30.500  13.952
12610W        W76169  15.673  42.997   4.166
12611W        W76170  11.273  42.438   4.760
12612W        W76171   1.731  43.481  11.065
12613W        W76172  23.554  21.669   1.895
12614W        W76173  35.019  44.367   1.899
12615W        W76174  38.558   2.745   3.640
12616W        W76175  22.108   2.367  11.455
12617W        W76176  11.680   2.878  12.854
12618W        W76177  18.558  35.397   1.719
12619W        W76178  15.647  11.259  14.316
12620W        W76179   1.367  22.744   1.808
12621W        W76180  36.582  22.528  10.593
12622W        W76181  41.350  12.738   4.238
12623W        W76182   2.246  15.610  14.919
12624W        W76183  31.645   3.427  14.993
12625W        W76184  39.998  29.131   1.256
12626W        W76185  31.097   2.290  11.930
12627W        W76186  18.578  43.327  14.384
12628W        W76187  15.326  34.586   3.814
12629W        W76188  29.034  37.453  12.975
12630W        W76189  14.694  20.129  14.872
12631W        W76190  15.105  23.058  13.494
12632W        W76191  16.171  42.875  12.044
12633W        W76192   6.276  33.527   0.294
12634W        W76193  31.475  10.218  13.522
12635W        W76194  41.403  28.164  11.039
12636W        W76195   1.287  18.750   2.249
12637W        W76196  40.811  34.992   3.656
12638W        W76197  26.465  31.495   4.326
12639W        W76198  17.600   7.826   1.311
12640W        W76199  35.386  17.608  12.074
12641W        W76200  21.079  20.092  14.771
12642W        W76201  44.966  42.944   1.913
12643W        W76202  39.322  24.707   4.152
12644W        W76203  32.975  35.914   4.623
12645W        W76204  23.683  21.078  14.453
12646W        W76205  19.206  13.333  11.607
12647W        W76206  30.546  36.393  13.470
12648W        W76207  34.952   1.765  14.497
12649W        W76208  16.782   5.904  11.894
12650W        W76209  37.477  40.540  11.609
12651W        W76210   6.683  28.952  11.972
12652W        W76211   4.808  24.202  10.545
12653W        W76212  44.834  41.465   3.674
12654W        W76213  19.176   7.352  14.796
12655W        W76214  16.699  10.340   2.788
12656W        W76215  22.646  39.825  11.547
12657W        W76216   2.771   7.195  14.479
12658W        W76217  20.053  32.045  12.906
12659W        W76218  44.474  43.500  12.431
12660W        W76219   8.802  25.058  11.876
12661W        W76220  37.414  28.613  12.897
12662W        W76221  14.106   6.387  13.500
12663W        W76222  36.021  31.457  12.002
12664W        W76223  20.594   7.864  14.447
12665W        W76224  30.983  20.537   0.883
12666W        W76225   0.444  25.991  13.522
12667W        W76226  42.955  26.101  13.360
12668W        W76227   2.271  18.229  14.387
12669W        W76228  31.896  41.796  12.876
12670W        W76229  15.674  40.916  11.930
12671W        W76230  15.616   6.741   0.732
12672W        W76231  41.846  30.517   1.374
12673W        W76232  27.110  40.861   1.372
12674W        W76233  17.716  40.498   1.330
12675W        W76234   4.856  13.792   0.349
12676W        W76235  38.352  37.031  13.048
12677W        W76236  41.908  37.922   3.321
12678W        W76237  41.883  42.779  10.040
12679W        W76238   5.329  14.190  13.885
12680W        W76239  22.684  38.972  10.487
12681W        W76240  37.422   9.227  10.530
12682W        W76241  20.192  18.570  13.359
12683W        W76242   5.832  20.254  14.810
12684W        W76243   1.294  18.113  11.089
12685W        W76244  34.907  43.296   3.780
12686W        W76245  33.469  22.536  12.469
12687W        W76246  13.142  25.081   1.754
12688W        W76247  34.006  31.519  14.899
12689W        W76248  35.905  28.452  11.608
12690W        W76249  23.212  30.451   4.828
12691W        W76250  34.902  11.793   3.819
12692W        W76251  11.179  37.540   5.289
12693W        W76252  31.631  18.696   4.681
12694W        W76253  19.191  30.609   9.992
12695W        W76254  36.907  41.856  12.544
12696W        W76255  32.428   3.386   4.306
12697W        W76256  32.458  37.556   2.190
12698W        W76257  34.885   4.209  13.045
12699W        W76258  20.707  28.586  12.887
12700W        W76259  19.583   5.431   0.456
12701W        W76260  12.128  13.144  13.859
12702W        W76261   8.697  26.576   2.376
12703W        W76262  33.595   2.379  11.043
12704W        W76263  25.705  17.301  10.893
12705W        W76264  26.016  39.003  11.952
12706W        W76265  11.135  36.444   2.877
12707W        W76266  27.650  38.355   0.879
12708W        W76267  41.833  22.033   4.739
12709W        W76268  40.014   0.968   2.315
12710W        W76269  18.574   6.416  14.464
12711W        W76270  19.047  19.174   4.149
12712W        W76271   8.200   7.895   2.333
12713W        W76272  12.175  36.842  10.591
12714W        W76273   4.309  12.186   2.863
12715W        W76274  16.206  39.427   4.665
12716W        W76275   4.218  20.756  12.450
12717W        W76276  26.987  19.549  10.566
12718W        W76277  14.706  13.270  11.985
12719W        W76278  19.257  11.266  12.986
12720W        W76279   0.837   4.221   2.750
12721W        W76280  33.467   2.795  12.879
12722W        W76281   0.423  35.034  11.858
12723W        W76282  20.069  36.043   3.259
12724W        W76283  17.558  26.517  14.893
12725W        W76284  12.150  28.473  11.435
12726W        W76285   2.452   6.862   3.192
12727W        W76286  30.044   0.769   4.268
12728W        W76287  25.510  41.914   2.662
12729W        W76288  33.901   7.389  12.981
12730W        W76289  41.529  44.368  13.521
12731W        W76290  36.886  15.691  13.064
12732W        W76291  18.129   3.217  10.639
12733W        W76292  34.395  40.442   3.328
12734W        W76293  34.012  14.304  13.040
12735W        W76294  15.756   8.362   0.880
12736W        W76295   9.798  17.075  12.512
12737W        W76296  44.877  13.292  14.346
12738W        W76297   1.470  37.505   4.257
12739W        W76298  20.034  23.710   4.784
12740W        W76299   7.298  38.963   1.344
12741W        W76300   7.828   2.271  11.119
12742W        W76301  14.158  32.626  14.780
12743W        W76302  21.247  37.357  12.075
12744W        W76303  13.820  38.562   3.726
12745W        W76304  24.702  28.173   0.353
12746W        W76305  38.530  20.036   4.335
12747W        W76306   7.180  14.211   0.791
12748W        W76307  32.539  43.443  14.441
12749W        W76308  14.333  10.823   3.175
12750W        W76309   4.862  31.546   3.258
12751W        W76310  37.570  21.157  11.403
12752W        W76311  14.684  35.056  14.481
12753W        W76312  17.790  29.647   3.370
12754W        W76313  11.624   7.707   5.585
12755W        W76314  27.964  42.989  14.365
12756W        W76315  32.026  44.442  14.979
12757W        W76316  15.133  18.610   0.817
12758W        W76317  42.999  11.364  10.480
12759W        W76318  10.680   9.734  11.584
12760W        W76319  42.854  29.442  14.300
12761W        W76320  40.874   9.690   0.916
12762W        W76321  13.670  24.985   4.630
12763W        W76322   1.471  34.907  10.482
12764W        W76323  28.177  20.538  14.362
12765W        W76324  30.479  25.528  12.980
12766W        W76325   6.712   3.923   4.209
12767W        W76326  21.204  37.069   2.195
12768W        W76327  13.601   3.386   4.319
12769W        W76328  44.987  17.712  11.553
12770W        W76329  35.430  27.635  12.411
12771W        W76330  42.288  39.818   1.378
12772W        W76331  22.678  19.108   2.673
12773W        W76332  18.060  38.944  12.837
12774W        W76333   8.208   2.427   0.255
12775W        W76334  33.389  31.952   0.308
12776W        W76335  30.656  19.242  13.836
12777W        W76336   4.358  41.475  13.496
12778W        W76337   4.797   4.933  12.436
12779W        W76338  40.459   0.454  10.624
12780W        W76339   1.294  11.334  10.958
12781W        W76340  15.685  39.348  12.923
12782W        W76341  40.972  30.017   3.192
12783W        W76342  24.980  35.583  14.796
12784W        W76343  34.865  21.246  14.311
12785W        W76344  24.499   2.245   1.233
12786W        W76345  34.052  31.428  10.584
12787W        W76346  32.000  16.309  13.377
12788W        W76347  13.717  43.923  13.365
12789W        W76348  14.588   0.381   0.930
12790W        W76349   0.826  38.957   3.862
12791W        W76350  14.140   0.310   1.796
12792W        W76351  25.157  22.620   2.264
12793W        W76352  17.145  28.174   3.207
12794W        W76353  16.218  31.080  13.920
12795W        W76354  40.392  35.985   1.766
12796W        W76355   0.765   2.903  11.045
12797W        W76356   1.934  18.116   3.384
12798W        W76357  19.257   1.397   4.800
12799W        W76358   7.902  25.023   2.190
12800W        W76359  23.105   1.299   4.666
12801W        W76360  32.397   8.384  13.858
12802W        W76361  31.454  12.803   1.334
12803W        W76362  25.971  31.924   3.363
12804W        W76363  34.443  42.346  13.869
12805W        W76364  17.777  20.125  13.038
12806W        W76365  11.850  33.409   0.852
12807W        W76366  39.907  12.761  14.465
12808W        W76367  41.846  38.836   9.934
12809W        W76368  36.062  15.806   2.344
12810W        W76369  13.611  42.337  13.547
12811W        W76370  41.433  24.689   1.438
12812W        W76371  36.494  44.493   5.309
12813W        W76372  44.484  17.077   5.136
12814W        W76373  12.167  26.998   2.777
12815W        W76374  20.133  13.181   2.278
12816W        W76375  23.718  19.651  10.993
12817W        W76376  24.613  12.774  14.330
12818W        W76377   1.353  34.455  11.900
12819W        W76378  23.112  23.029   4.656
12820W        W76379  43.515  22.621  10.488
12821W        W76380   1.258  36.051   2.782
12822W        W76381  34.521  18.784   2.876
12823W        W76382  21.226   4.762  12.863
12824W        W76383  10.225   1.889   4.763
12825W        W76384  39.491  31.145   5.677
12826W        W76385  13.713  15.587  14.292
12827W        W76386  26.086  26.183   2.275
12828W        W76387  34.026  29.150   2.333
12829W        W76388   8.728   2.472  13.450
12830W        W76389   5.215  27.960  11.866
12831W        W76390   5.417  42.317  11.991
12832W        W76391  12.233   2.372  10.631
12833W        W76392  29.433  10.256  10.013
12834W        W76393  12.764  33.442   2.202
12835W        W76394  44.007  35.523   1.293
12836W        W76395  43.805   6.244  14.891
12837W        W76396  34.036  40.453  11.995
12838W        W76397  43.884  27.190  12.030
12839W        W76398  18.613  23.987   1.277
12840W        W76399  13.340  42.486   1.353
12841W        W76400   5.922  31.990  12.354
12842W        W76401  36.067  13.294   0.790
12843W        W76402  36.435  32.571  14.887
12844W        W76403  14.157  13.726   2.224
12845W        W76404  36.027  31.077  10.419
12846W        W76405  15.321  25.653   3.171
12847W        W76406  38.527  15.636   2.748
12848W        W76407  14.681  41.020   2.276
12849W        W76408  28.561  26.150   4.685
12850W        W76409   8.277  23.538  11.977
12851W        W76410  29.118   9.749  11.584
12852W        W76411  24.065  25.075   3.146
12853W        W76412   5.403  40.901   0.376
12854W        W76413   0.890  20.182   4.746
12855W        W76414  14.755  19.759  12.564
12856W        W76415  11.340  18.623  10.941
12857W        W76416   7.180  23.617  12.839
12858W        W76417   9.181  40.338  14.401
12859W        W76418  28.515   4.447   4.303
12860W        W76419  20.270  28.570  11.057
12861W        W76420  29.977  30.495   4.657
12862W        W76421  21.676  42.414  13.426
12863W        W76422  31.091  40.843  13.892
12864W        W76423  36.962   3.259   0.833
12865W        W76424  17.170   9.148  11.454
12866W        W76425   8.299  33.983   1.333
12867W        W76426  40.344  16.087   4.753
12868W        W76427  44.463  22.712  10.967
12869W        W76428   1.399  13.215  13.807
12870W        W76429  33.428  39.977  12.412
12871W        W76430   4.290   9.843   2.686
12872W        W76431  24.517  22.650   5.737
12873W        W76432  33.954  19.099  10.554
12874W        W76433  25.017  15.590   2.204
12875W        W76434   0.882  38.928  12.927
12876W        W76435   4.899  24.068   4.330
12877W        W76436  21.642   8.878  11.945
12878W        W76437  10.696  32.133  10.450
12879W        W76438   3.218  38.964  11.386
12880W        W76439  32.133  43.820  14.792
12881W        W76440   4.769   5.855   0.824
12882W        W76441   3.740  26.622  13.391
12883W        W76442  11.150  21.699   1.852
12884W        W76443  40.434  20.169  12.348
12885W        W76444  43.433  44.302  11.500
12886W        W76445  30.442  26.664  12.913
12887W        W76446  26.480  40.347  14.897
12888W        W76447  16.646   7.203  12.551
12889W        W76448  29.945  16.808  13.529
12890W        W76449  13.657   3.432   1.928
12891W        W76450   4.941   7.254   0.923
12892W        W76451  43.299  41.030   3.230
12893W        W76452  26.105  33.514   4.715
12894W        W76453  19.163  18.217   0.451
12895W        W76454  38.879   1.936   4.601
12896W        W76455   2.436  24.002  12.885
12897W        W76456  10.734  25.478  12.961
12898W        W76457  28.943   1.795  11.948
12899W        W76458  43.457  22.734  13.945
12900W        W76459   5.846  35.470  12.013
12901W        W76460  15.115  29.087   3.785
12902W        W76461   4.212  15.770  11.096
12903W        W76462  36.355  32.557   3.850
12904W        W76463  36.520  41.363  13.966
12905W        W76464   4.795  38.915  13.351
12906W        W76465  31.088   2.959   3.181
12907W        W76466  20.539  22.037   4.274
12908W        W76467  40.545  15.747  12.567
12909W        W76468  43.881  28.084   0.741
12910W        W76469  32.500  10.866  10.938
12911W        W76470  10.805   3.737   2.224
12912W        W76471  33.545  10.265   9.623
12913W        W76472  20.738   2.298   0.392
12914W        W76473  38.333   5.810  14.437
12915W        W76474  10.292  19.270   1.919
12916W        W76475  20.037  34.964   2.392
12917W        W76476   2.928   5.254   4.145
12918W        W76477   9.738  11.671   4.735
12919W        W76478  36.445  41.976  11.559
12920W        W76479   3.458   2.809  11.061
12921W        W76480  18.101  33.935  13.480
12922W        W76481  25.683   7.887   4.629
12923W        W76482  13.333  38.917  10.466
12924W        W76483  17.635  24.531  11.003
12925W        W76484  42.357   1.340   3.370
12926W        W76485  38.952  41.524   1.323
12927W        W76486   5.348  22.661   0.291
12928W        W76487  15.202  40.832  11.518
12929W        W76488  38.357   9.776   1.364
12930W        W76489  34.867  20.272  14.944
12931W        W76490   0.488   6.405  14.806
12932W        W76491  26.703  43.843   1.402
12933W        W76492  13.266  15.167  14.432
12934W        W76493  40.446  24.496   1.434
12935W        W76494  16.615   4.406   2.192
12936W        W76495  22.193   4.284  12.912
12937W        W76496  25.708  18.207   1.243
12938W        W76497  20.749  29.160   0.951
12939W        W76498  32.572  40.380   1.316
12940W        W76499  38.868  38.829  13.376
12941W        W76500  43.508   6.805  13.054
12942W        W76501   2.417  33.536   0.936
12943W        W76502  32.460   7.398   0.859
12944W        W76503  33.908  28.161  12.524
12945W        W76504  19.228  41.042   0.377
12946W        W76505  24.683  44.826   0.327
12947W        W76506   8.716  23.666   0.811
12948W        W76507   6.299   0.838   0.263
12949W        W76508  32.568  19.622   3.295
12950W        W76509  12.647  26.501  14.292
12951W        W76510  10.665  40.959   1.422
12952W        W76511  31.555  31.516   2.830
12953W        W76512  35.946  14.189   1.304
12954W        W76513  42.868  19.162  12.045
12955W        W76514  23.539  44.463   0.769
12956W        W76515  27.969  37.085  13.005
12957W        W76516  34.963  22.511   1.712
12958W        W76517  17.193  37.875   0.806
12959W        W76518  12.655   5.345  15.000
12960W        W76519   6.416   0.477   4.200
12961W        W76520  19.101   2.963   2.895
12962W        W76521  17.152  37.405  10.436
12963W        W76522  29.167  40.892  13.791
12964W        W76523  12.666  38.472  10.487
12965W        W76524  24.134   8.765   4.255
12966W        W76525  40.517  19.668  13.983
12967W        W76526  10.365  39.382   4.324
12968W        W76527  17.066   7.367   0.804
12969W        W76528  22.158  42.501   0.800
12970W        W76529  20.268  30.541  12.558
12971W        W76530  26.998  22.162   4.230
12972W        W76531  41.872   8.333  11.018
12973W        W76532   0.324  28.098   0.259
12974W        W76533  19.099  20.523   0.336
12975W        W76534  22.648  14.189   1.774
12976W        W76535  17.558  17.180  11.375
12977W        W76536  18.139  30.627  14.350
12978W        W76537  23.067  16.227  11.589
12979W        W76538  43.304   7.868   3.784
12980W        W76539   3.767  15.301   3.719
12981W        W76540   1.360  17.701  14.491
12982W        W76541  32.899  38.909   2.381
12983W        W76542  27.979  40.872  10.462
12984W        W76543  30.503   7.678  14.422
12985W        W76544  17.153  20.263  10.542
12986W        W76545  38.991   4.234  10.888
12987W        W76546  37.423   3.318   3.769
12988W        W76547  43.839   0.985   0.377
12989W        W76548   8.257  44.826  13.975
12990W        W76549   1.381  43.468   0.288
12991W        W76550  39.366  35.544   1.372
12992W        W76551  25.662   9.826   1.346
12993W        W76552  30.497  40.868  14.771
12994W        W76553  39.824  30.133  13.525
12995W        W76554  39.820   8.208   3.379
12996W        W76555  12.783  15.799  13.811
12997W        W76556  27.980  33.001   2.859
12998W        W76557  43.469   9.691   0.882
12999W        W76558  22.059  13.313   3.862
13000W        W76559  10.849  30.000  13.020
13001W        W76560  21.571  33.437   1.354
13002W        W76561   7.873  44.280   1.807
13003W        W76562   0.826  18.280  13.878
13004W        W76563   1.452  11.851  11.443
13005W        W76564   2.938  10.234   2.301
13006W        W76565  38.839   5.751  10.519
13007W        W76566   4.422  35.399  13.908
13008W        W76567  26.628  19.133   0.748
13009W        W76568  11.171  29.967   3.275
13010W        W76569  29.527  27.940   2.255
13011W        W76570  38.355   8.388   1.820
13012W        W76571  37.844  39.861   0.938
13013W        W76572  11.156  24.122   0.762
13014W        W76573  16.097  32.937  11.931
13015W        W76574  39.960  27.191  12.962
13016W        W76575  33.625  23.563  14.844
13017W        W76576   1.886  16.238  10.625
13018W        W76577  31.569  26.980   0.858
13019W        W76578  23.653   4.701   3.251
13020W        W76579  15.167  25.151   2.804
13021W        W76580   4.936  11.323  13.360
13022W        W76581  26.663   6.710  11.125
13023W        W76582  22.747  21.630   2.893
13024W        W76583  11.268  13.289  12.850
13025W        W76584  11.173  32.060  14.761
13026W        W76585  22.639   8.376  13.497
13027W        W76586  44.402   1.829   0.398
13028W        W76587  36.997  35.358  14.454
13029W        W76588  14.171  29.087   9.982
13030W        W76589  43.441  43.515   2.709
13031W        W76590   5.387  25.990   0.766
13032W        W76591   9.870  11.341  11.075
13033W        W76592   3.774  21.111  14.484
13034W        W76593  32.137  25.962  14.857
13035W        W76594  19.145   1.868   0.774
13036W        W76595  17.159   9.229   2.271
13037W        W76596  36.054  35.522   5.267
13038W        W76597  16.687   1.741  11.605
13039W        W76598   8.161  14.274  13.451
13040W        W76599  12.788  35.027  13.449
13041W        W76600  37.553  21.184  10.577
13042W        W76601  11.639  44.464  12.073
13043W        W76602  23.553  18.214  13.814
13044W        W76603  27.107   5.809  12.965
13045W        W76604   2.250  34.047   1.420
13046W        W76605   0.984   8.341   2.318
13047W        W76606   6.424  22.606  10.069
13048W        W76607  29.594   6.374  11.114
13049W        W76608   0.789  14.702   4.646
13050W        W76609  30.647   1.732  11.043
13051W        W76610  15.647  39.954   0.323
13052W        W76611  12.242  28.062   4.660
13053W        W76612  21.744   7.859   2.405
13054W        W76613  27.944  28.488   4.309
13055W        W76614  32.120  42.373   2.282
13056W        W76615   8.301   2.863  14.513
13057W        W76616  38.943  28.505  13.046
13058W        W76617  30.964  33.553   5.140
13059W        W76618  20.632  13.200  11.092
13060W        W76619  19.087  32.623  12.342
13061W        W76620  27.571  42.899   2.809
13062W        W76621  11.814  43.394   1.785
13063W        W76622  31.505  44.849   2.792
13064W        W76623  27.192  12.222  11.059
13065W        W76624  25.014  19.270  11.610
13066W        W76625  31.096  43.821   1.714
13067W        W76626   5.239  36.847   2.401
13068W        W76627  35.466  16.236  10.416
13069W        W76628  33.438   1.357   2.208
13070W        W76629  25.526  15.149   2.832
13071W        W76630  32.918  27.187  13.829
13072W        W76631   5.877  30.099   2.284
13073W        W76632  40.050   4.423  11.856
13074W        W76633  26.478  44.366  12.375
13075W        W76634  38.367  37.022  14.804
13076W        W76635  29.441  22.140   4.338
13077W        W76636  11.300  30.127  12.076
13078W        W76637  22.035  25.674  14.351
13079W        W76638  15.145  40.813   2.693
13080W        W76639  34.451  23.652   3.258
13081W        W76640  15.732   1.870  14.932
13082W        W76641  23.636  29.977  13.007
13083W        W76642  16.608  25.188  12.894
13084W        W76643  37.083  39.875  11.587
13085W        W76644  25.474   0.784  13.972
13086W        W76645  38.882  41.877  14.310
13087W        W76646  26.060  25.686   1.330
13088W        W76647  12.264  25.004   4.151
13089W        W76648  24.505  19.683   0.755
13090W        W76649  16.694  16.802  13.331
13091W        W76650  20.132  16.169  13.520
13092W        W76651  18.695   8.217   2.396
13093W        W76652  40.346  12.308   0.321
13094W        W76653  12.751  28.167   1.749
13095W        W76654  16.135  35.521   1.389
13096W        W76655  34.010   8.324   5.652
13097W        W76656  11.637   6.414  10.617
13098W        W76657  26.156  24.664  14.392
13099W        W76658  28.600   3.323   0.448
13100W        W76659  39.324  42.911   4.773
13101W        W76660  17.252   4.922   1.257
13102W        W76661  23.532  18.762  12.093
13103W        W76662  43.495  36.371  13.838
13104W        W76663  43.478  21.653  13.033
13105W        W76664  16.766  42.926  10.474
13106W        W76665  12.656   4.437   1.762
13107W        W76666  39.425  44.304  11.525
13108W        W76667  38.018  38.042  12.380
13109W        W76668  16.237  43.284  14.904
13110W        W76669  31.045  28.087  12.378
13111W        W76670  41.940  42.844   1.377
13112W        W76671  16.571  25.079   0.327
13113W        W76672  21.152  24.528   3.148
13114W        W76673  29.435  22.584   1.343
13115W        W76674  31.603  29.079  11.417
13116W        W76675  41.348   7.394   0.410
13117W        W76676  35.856   5.786   2.342
13118W        W76677  44.956  17.272   4.223
13119W        W76678  11.140  22.530  14.831
13120W        W76679  19.709  18.661  11.992
13121W        W76680  16.127   0.957   2.761
13122W        W76681  42.387  25.499   2.237
13123W        W76682  40.001  32.401  10.035
13124W        W76683  35.395  18.592   4.124
13125W        W76684   8.219  41.990   0.301
13126W        W76685  38.883  38.931  10.623
13127W        W76686  34.066   1.267  13.925
13128W        W76687   0.748  11.860  13.310
13129W        W76688  32.054  36.426   0.344
13130W        W76689  11.240  15.720  14.299
13131W        W76690   9.269  15.178  13.368
13132W        W76691  20.650  15.604  14.413
13133W        W76692  19.729  29.146   4.782
13134W        W76693  23.502  10.301   3.718
13135W        W76694  27.980  37.016  14.351
13136W        W76695  30.442  14.671   0.347
13137W        W76696   6.830  44.944  13.922
13138W        W76697  35.898  25.014  11.095
13139W        W76698  22.120   5.775   1.759
13140W        W76699   1.265  36.078   0.883
13141W        W76700  11.261   3.942  11.488
13142W        W76701   8.191  12.643  12.494
13143W        W76702  36.378   6.202  12.930
13144W        W76703   6.339   7.823   0.275
13145W        W76704  17.570  23.105  12.368
13146W        W76705   3.293  15.677   2.766
13147W        W76706  41.976   4.854  10.936
13148W        W76707  24.568  12.205  13.823
13149W        W76708  18.600   2.965  14.013
13150W        W76709  18.125  17.293  13.015
13151W        W76710  30.056  31.533   0.427
13152W        W76711  38.891   3.355   3.243
13153W        W76712  32.077   3.293  11.550
13154W        W76713  35.032  32.135  10.591
13155W        W76714  33.466  30.551  10.018
13156W        W76715  26.667  42.449   3.343
13157W        W76716   9.332  29.483   3.758
13158W        W76717  32.932  16.266  10.503
13159W        W76718  36.006   3.413   5.139
13160W        W76719   6.224  23.569  10.104
13161W        W76720  11.145  13.650   3.641
13162W        W76721  12.230   6.912   3.800
13163W        W76722   5.756   7.816   2.795
13164W        W76723  42.436  31.116   2.804
13165W        W76724   3.326  32.028  13.523
13166W        W76725  37.440  38.872   3.160
13167W        W76726  21.590  37.384  12.916
13168W        W76727   2.315  20.116   4.314
13169W        W76728  31.940  43.871  11.437
13170W        W76729   0.895  34.994   4.688
13171W        W76730  25.047  23.600  12.070
13172W        W76731  10.876  20.174  14.331
13173W        W76732  44.274  26.606   5.198
13174W        W76733   1.907   5.736   1.853
13175W        W76734  30.945  16.292  10.492
13176W        W76735  17.689   8.691  11.068
13177W        W76736   8.332  20.654   2.347
13178W        W76737  13.112  42.940   4.319
13179W        W76738  42.854  21.213   9.929
13180W        W76739  29.471  34.935  11.048
13181W        W76740   1.350  28.512   2.802
13182W        W76741  42.402   0.952  14.291
13183W        W76742  34.979  18.605  10.606
13184W        W76743  27.678  15.782   0.394
13185W        W76744  44.844  18.057   4.166
13186W        W76745  39.420  19.114   2.339
13187W        W76746  24.016   8.389  13.456
13188W        W76747  28.551  29.097   2.386
13189W        W76748   7.360  17.626  12.425
13190W        W76749  17.675  42.510   4.753
13191W        W76750   6.262   1.319   1.851
13192W        W76751  35.579   8.725   1.356
13193W        W76752  41.878  30.592  13.832
13194W        W76753  43.796  41.872  10.505
13195W        W76754   2.370  21.130  10.455
13196W        W76755  39.985   7.330   3.723
13197W        W76756  20.562   5.325  12.050
13198W        W76757   2.779  15.673  10.509
13199W        W76758  40.998  43.918  11.108
13200W        W76759  32.032   7.759   5.120
13201W        W76760   7.387  34.953  14.429
13202W        W76761  18.181  19.535   3.311
13203W        W76762   5.398  34.429  12.906
13204W        W76763  24.206  31.000   4.145
13205W        W76764  19.054  32.454   1.916
13206W        W76765  29.965  30.080   2.292
13207W        W76766  20.091   8.681   1.889
13208W        W76767  34.403   6.342   0.393
13209W        W76768  41.041  27.499  14.491
13210W        W76769  23.660  26.204  12.537
13211W        W76770  33.496  19.613   4.268
13212W        W76771  20.164  32.485   2.762
13213W        W76772  26.556  44.874  14.002
13214W        W76773  23.715  30.651   4.242
13215W        W76774  32.396  18.779  11.448
13216W        W76775   3.461  29.580  10.892
13217W        W76776  41.968  15.290   0.951
13218W        W76777   3.420  24.027   5.118
13219W        W76778   2.776  37.009   2.884
13220W        W76779   1.852  19.089   2.249
13221W        W76780  24.215  28.556   0.885
13222W        W76781  42.463  23.616   2.201
13223W        W76782  11.656  28.660   3.312
13224W        W76783  28.163  34.385   4.308
13225W        W76784  25.654  13.610  14.363
13226W        W76785  22.015  13.810   0.264
13227W        W76786  24.637  30.090   1.901
13228W        W76787  17.605  14.315   3.291
13229W        W76788  10.374  40.027  14.276
13230W        W76789  12.176  43.888   2.285
13231W        W76790   0.425  24.116  11.921
13232W        W76791  38.481  38.921   3.191
13233W        W76792  18.770  31.143   5.698
13234W        W76793  37.576  11.371   1.336
13235W        W76794  44.769  25.705  13.794
13236W        W76795  13.667  20.121   1.719
13237W        W76796  40.422  44.491   0.483
13238W        W76797  31.049   6.257  13.001
13239W        W76798  34.970  38.399  13.004
13240W        W76799  19.601  15.235  10.538
13241W        W76800   2.754   4.316   4.193
13242W        W76801  13.280  18.123   3.686
13243W        W76802  15.195  16.663  13.405
13244W        W76803  37.857   1.297  13.379
13245W        W76804  40.435   7.900   4.741
13246W        W76805  39.866  42.016  12.389
13247W        W76806   9.749   1.933   4.338
13248W        W76807  41.345  34.419   0.291
13249W        W76808  20.249   8.201   2.315
13250W        W76809  27.469  35.908  12.518
13251W        W76810  12.675  31.134   1.355
13252W        W76811  36.349  19.284  13.869
13253W        W76812  36.523  10.664   2.283
13254W        W76813  25.061   4.381   1.717
13255W        W76814  29.111  15.674  14.772
13256W        W76815   4.753  12.214   2.825
13257W        W76816  22.204   1.888   0.342
13258W        W76817  16.259  29.133  12.531
13259W        W76818   2.854  33.074  14.375
13260W        W76819  24.597  27.633   0.777
13261W        W76820  43.347  43.005  11.390
13262W        W76821  22.039   1.968  13.362
13263W        W76822   9.300  27.625   4.611
13264W        W76823   8.352  23.059  11.091
13265W        W76824   2.366  40.967   4.634
13266W        W76825  40.802  43.430   3.306
13267W        W76826  39.471   2.745   1.374
13268W        W76827  22.123  20.576   0.273
13269W        W76828  13.713  17.616  12.376
13270W        W76829  20.667  38.342  11.568
13271W        W76830  11.759  19.082  10.933
13272W        W76831  37.391   4.317   4.740
13273W        W76832  18.575  24.048  13.437
13274W        W76833  21.212  23.096  10.427
13275W        W76834  33.566  27.659   1.227
13276W        W76835  31.492  33.579  14.011
13277W        W76836  26.195  26.127   1.705
13278W        W76837   1.809  42.414  10.903
13279W        W76838  41.356  39.013  13.930
13280W        W76839  26.581  31.430  10.921
13281W        W76840  12.303  10.297  13.365
13282W        W76841   6.231  43.999  10.621
13283W        W76842  19.738  35.053   4.622
13284W        W76843  25.689  44.457  10.453
13285W        W76844  28.146  13.284   0.454
13286W        W76845  42.441  30.626  12.482
13287W        W76846  43.977  36.400   0.254
13288W        W76847  19.091  19.669   2.346
13289W        W76848  24.536  12.344   3.285
13290W        W76849   6.295  24.030   0.962
13291W        W76850  14.209   1.814  12.910
13292W        W76851  15.775  26.549   0.797
13293W        W76852  11.628   3.446  12.508
13294W        W76853  17.266  15.647  14.901
13295W        W76854  30.048   5.851   2.407
13296W        W76855  11.647  39.323   1.306
13297W        W76856  18.223  23.039   3.184
13298W        W76857  31.527   9.209   1.434
13299W        W76858  18.292  12.831   3.695
13300W        W76859  10.140  19.727   1.821
13301W        W76860  16.600  31.080  13.464
13302W        W76861   9.354  32.936   1.770
13303W        W76862  12.707  26.561   5.207
13304W        W76863  12.756  14.673   0.803
13305W        W76864   6.850  20.622  12.528
13306W        W76865   6.183   6.837  12.924
13307W        W76866  25.629  40.926  14.002
13308W        W76867  14.334  30.121  13.310
13309W        W76868  18.689   3.742  11.375
13310W        W76869   8.383  21.619   1.743
13311W        W76870  28.535  28.930   4.659
13312W        W76871   8.780  41.978   1.775
13313W        W76872  41.373  19.628  11.983
13314W        W76873  41.859  37.044   3.753
13315W        W76874  29.615  30.101  11.122
13316W        W76875  41.346  14.671  12.394
13317W        W76876  36.947  18.556  12.000
13318W        W76877  35.495  43.933   1.395
13319W        W76878  39.548  40.516   3.631
13320W        W76879   0.773   9.768   0.454
13321W        W76880   3.751  38.924   1.382
13322W        W76881  21.253  40.868  11.382
13323W        W76882  24.669  21.593  13.894
13324W        W76883  16.168  42.885  12.343
13325W        W76884  28.552  38.443   2.700
13326W        W76885   1.809   9.152   1.365
13327W        W76886  26.597  13.332   3.696
13328W        W76887  39.917  34.870   1.406
13329W        W76888  12.183  32.100   4.291
13330W        W76889  33.458  28.093   3.322
13331W        W76890  43.404  15.730  11.941
13332W        W76891  22.723  10.826   0.483
13333W        W76892  40.417  30.652   3.343
13334W        W76893  37.404  14.095  14.277
13335W        W76894   6.816  11.248  11.978
13336W        W76895  36.862  37.508  14.017
13337W        W76896  26.618  14.109   2.869
13338W        W76897  33.490  36.925  13.940
13339W        W76898   3.892  27.607  12.004
13340W        W76899   8.714   7.677   0.348
13341W        W76900  43.399  37.563  13.318
13342W        W76901  36.992   2.851   1.896
13343W        W76902  34.590  33.589   2.330
13344W        W76903  24.975  24.552  11.983
13345W        W76904   6.762  24.177   0.253
13346W        W76905  31.449   8.681   0.900
13347W        W76906  13.202  23.010   2.856
13348W        W76907  37.003   1.335  11.592
13349W        W76908   7.345  12.678   2.318
13350W        W76909   7.747  23.578  12.024
13351W        W76910  35.909  11.311   2.817
13352W        W76911  29.603   8.401  10.914
13353W        W76912  19.639  14.159  10.906
13354W        W76913   3.819   8.713  13.456
13355W        W76914  43.355   4.219   2.886
13356W        W76915  29.492  25.553  13.034
13357W        W76916   6.753  20.721   0.743
13358W        W76917  43.985  17.734  11.565
13359W        W76918  17.192  19.125   2.266
13360W        W76919  14.289  39.940  14.411
13361W        W76920   0.264   3.420   3.260
13362W        W76921  39.419  26.597   0.874
13363W        W76922  14.259   1.755   2.886
13364W        W76923   4.418   3.282  10.890
13365W        W76924  13.345  42.861  14.008
13366W        W76925  33.395   3.411  12.886
13367W        W76926  32.910  11.250  10.575
13368W        W76927  18.603  20.616   3.265
13369W        W76928  16.189  10.658  12.465
13370W        W76929   3.330   7.397  11.557
13371W        W76930   4.766  35.554  12.548
13372W        W76931   8.896  29.653   1.719
13373W        W76932  34.084  33.078   1.425
13374W        W76933  21.138  22.580   0.816
13375W        W76934  32.637  33.924   2.401
13376W        W76935  35.101  22.236  13.883
13377W        W76936  12.626  24.520  13.416
13378W        W76937  24.010   1.476   3.350
13379W        W76938  15.704  23.704   1.257
13380W        W76939   0.277  32.435   2.705
13381W        W76940  43.941  19.238  10.540
13382W        W76941   6.843  22.598  11.946
13383W        W76942   9.783  23.510   2.334
13384W        W76943  40.375   2.810  12.858
13385W        W76944  24.542  16.194  10.573
13386W        W76945  16.593  33.601   0.751
13387W        W76946  20.154   7.195  11.490
13388W        W76947  31.588  24.701   4.304
13389W        W76948  10.323   3.941   3.373
13390W        W76949  10.181  21.204  12.454
13391W        W76950  27.511  13.719   4.675
13392W        W76951  39.474   9.684  14.838
13393W        W76952  15.601  31.996   0.259
13394W        W76953   7.316  33.465  14.856
13395W        W76954  30.089  38.454   4.812
13396W        W76955   3.873   8.368   2.746
13397W        W76956  31.077   0.853  11.908
13398W        W76957   4.793  37.337   1.905
13399W        W76958  18.122  11.639  12.932
13400W        W76959  27.478   2.244   4.318
13401W        W76960  43.769  10.284  14.327
13402W        W76961  17.207  20.597   1.401
13403W        W76962  25.183   3.930   0.396
13404W        W76963   4.341  36.454  13.901
13405W        W76964   4.359  29.116  13.043
13406W        W76965   8.706  18.621  11.450
13407W        W76966  26.158  22.666  11.958
13408W        W76967   1.767  27.484   4.604
13409W        W76968  44.812  23.136   0.901
13410W        W76969  44.313  43.796   3.370
13411W        W76970  37.580  23.049  10.500
13412W        W76971   5.348   4.883  11.967
13413W        W76972  14.121  32.105   9.961
13414W        W76973  32.607  15.585  14.979
13415W        W76974  43.778  40.042   4.648
13416W        W76975  42.777   5.230   1.745
13417W        W76976  23.029   5.709  13.996
13418W        W76977  25.085  41.463  14.391
13419W        W76978   9.321  15.819  11.593
13420W        W76979  14.258   0.263   4.722
13421W        W76980  35.988  37.407  11.029
13422W        W76981  30.632  12.743   3.229
13423W        W76982  14.811   3.438   5.296
13424W        W76983  28.583  14.242   0.851
13425W        W76984   8.728  28.023  14.964
13426W        W76985  31.105  21.757   2.862
13427W        W76986  39.889  33.122  10.897
13428W        W76987  39.026  33.464   1.795
13429W        W76988  27.682  33.493   3.324
13430W        W76989   7.846  16.652   0.288
13431W        W76990  15.109  29.142   2.286
13432W        W76991   6.369  38.490   0.920
13433W        W76992  25.138  28.453   1.218
13434W        W76993  11.703  43.782   1.359
13435W        W76994   5.779  22.587  12.344
13436W        W76995  41.336  42.400   0.422
13437W        W76996   9.157  43.401   1.779
13438W        W76997  40.964   8.397  11.021
13439W        W76998  44.859  24.699   2.885
13440W        W76999  41.035  25.160  13.444
13441W        W77000  40.832  39.947   0.298
13442W        W77001  27.033   6.850  11.609
13443W        W77002  34.610  19.167   2.679
13444W        W77003  25.509  10.851   0.780
13445W        W77004   2.228   0.880  14.497
13446W        W77005  26.163  44.329   3.645
13447W        W77006   5.768  18.616  12.502
13448W        W77007   1.362  11.828  12.941
13449W        W77008  14.181   3.341   4.204
13450W        W77009   6.403   1.275  10.927
13451W        W77010  16.668   5.306  13.827
13452W        W77011  12.262  21.022   3.696
13453W        W77012  23.008  38.916   0.327
13454W        W77013  34.565   0.814   0.434
13455W        W77014  11.750  13.605  14.792
13456W        W77015   0.750  34.502  11.997
13457W        W77016  28.941  32.407  12.917
13458W        W77017  34.537  33.404  14.793
13459W        W77018  19.676  12.853  12.395
13460W        W77019   4.774   0.832   4.734
13461W        W77020  30.018  42.917   2.356
13462W        W77021  28.560  37.419  14.773
13463W        W77022   7.717   3.282   1.235
13464W        W77023  43.985  17.732  12.036
13465W        W77024  32.042  20.538  10.538
13466W        W77025  33.069  38.950   4.737
13467W        W77026  19.091  15.637  14.808
13468W        W77027   7.215  11.864  10.905
13469W        W77028  44.500  39.473   4.126
13470W        W77029  43.292  32.894   4.778
13471W        W77030  17.180  36.970   2.807
13472W        W77031  40.454  23.211   0.778
13473W        W77032  11.782  42.934   0.887
13474W        W77033  18.685  19.707  10.977
13475W        W77034  22.536  39.941  11.099
13476W        W77035  30.133  27.145  11.105
13477W        W77036   8.877   2.299   1.918
13478W        W77037  17.063   3.318  14.390
13479W        W77038  27.634   7.898  13.948
13480W        W77039  35.881  25.489  10.961
13481W        W77040  19.150  11.341  11.924
13482W        W77041   2.955  36.546  13.859
13483W        W77042  42.482   3.954   4.659
13484W        W77043  41.937   4.300  13.326
13485W        W77044   6.288  43.835   3.823
13486W        W77045  21.542  20.245   4.341
13487W        W77046   1.845  28.497  12.889
13488W        W77047  40.503  30.547  10.573
13489W        W77048  17.106  29.568  14.456
13490W        W77049  15.212  27.056   0.267
13491W        W77050  30.538  35.067  13.868
13492W        W77051  27.055  38.046   0.796
13493W        W77052  10.721  24.059  12.389
13494W        W77053  40.943  13.636   1.858
13495W        W77054  23.099  21.562  11.891
13496W        W77055  10.332  36.500  14.414
13497W        W77056  41.386  31.071  12.515
13498W        W77057  28.673  13.349  10.639
13499W        W77058   5.916  35.577  13.317
13500W        W77059  43.774  36.356  10.590
13501W        W77060  19.674  38.518  14.346
13502W        W77061  31.978   6.212   3.808
13503W        W77062  25.522  21.063  11.128
13504W        W77063  25.033  12.725  12.016
13505W        W77064  39.808  30.156   3.706
13506W        W77065  18.763   5.807  12.030
13507W        W77066  21.237  43.840  14.893
13508W        W77067  31.623  29.159   0.955
13509W        W77068  22.037  41.825  10.978
13510W        W77069  16.684   9.366  12.029
13511W        W77070  39.973  11.276   2.333
13512W        W77071   2.749  34.016   3.825
13513W        W77072  40.956   8.233   1.394
13514W        W77073   0.310   9.644  12.082
13515W        W77074   0.400   1.429  14.782
13516W        W77075  35.396  25.024  10.543
13517W        W77076  29.015  27.618  11.077
13518W        W77077   3.387  15.187  12.357
13519W        W77078  17.128  36.996   4.757
13520W        W77079   7.791  27.593   3.372
13521W        W77080  30.527  31.074  12.530
13522W        W77081  42.784  28.462   0.922
13523W        W77082  15.646  34.388  12.962
13524W        W77083   0.347  20.241  10.645
13525W        W77084  13.710  15.242  10.571
13526W        W77085  43.371  22.615  14.512
13527W        W77086  17.614  13.771   1.339
13528W        W77087  31.030  39.381  14.945
13529W        W77088  12.354  20.127  10.440
13530W        W77089   9.316  19.591  13.361
13531W        W77090  15.694  13.287   4.122
13532W        W77091  32.562  41.374   3.342
13533W        W77092  26.586  25.469  11.397
13534W        W77093  18.692  23.076  11.083
13535W        W77094  30.550  14.270   2.412
13536W        W77095  23.577  44.966  13.808
13537W        W77096  29.562   7.359   3.824
13538W        W77097  14.714  43.939   1.881
13539W        W77098  30.471   2.326   3.327
13540W        W77099  42.997  32.558  13.358
13541W        W77100   7.219  26.539  11.405
13542W        W77101  20.695  40.479  11.505
13543W        W77102  26.527  20.077   0.822
13544W        W77103  16.081   3.406   2.777
13545W        W77104  18.616   2.411  11.555
13546W        W77105   3.349  12.689   3.354
13547W        W77106  32.425  41.842  14.420
13548W        W77107  25.686   7.325  12.057
13549W        W77108   3.865   8.759   1.780
13550W        W77109  42.921   3.921   2.740
13551W        W77110  16.084   6.259  11.453
13552W        W77111  10.752  24.609  11.606
13553W        W77112   8.375  31.131  13.840
13554W        W77113  27.058  13.271  14.276
13555W        W77114  17.306  12.268  12.058
13556W        W77115  21.240   2.788   4.113
13557W        W77116  27.193  34.103   0.480
13558W        W77117  21.122  33.589   4.745
13559W        W77118  44.959  33.600   0.245
13560W        W77119  29.044  19.148  12.457
13561W        W77120  43.808  32.439   3.176
13562W        W77121  38.002   9.817  14.933
13563W        W77122  43.821  14.251   0.408
13564W        W77123   6.741  44.791   3.221
13565W        W77124  10.365  32.443   4.171
13566W        W77125  34.447  11.735  11.061
13567W        W77126  44.316  16.724  14.507
13568W        W77127  43.824  18.723  12.381
13569W        W77128  28.602  38.010  11.091
13570W        W77129  12.127  14.708   0.893
13571W        W77130  22.578  26.136  13.995
13572W        W77131   7.347   6.747  14.388
13573W        W77132   7.176   6.826  13.370
13574W        W77133  34.597  29.544  13.801
13575W        W77134  44.483  14.134   1.251
13576W        W77135  27.603  34.419   3.316
13577W        W77136  37.524  43.279  13.543
13578W        W77137  13.113  12.767   3.216
13579W        W77138  15.761  21.680  10.606
13580W        W77139  29.505  39.448  13.838
13581W        W77140   1.417  27.600  12.417
13582W        W77141  41.017  42.964   3.228
13583W        W77142   4.830  33.879  11.867
13584W        W77143  38.539   1.821  13.461
13585W        W77144  22.721  39.464   2.302
13586W        W77145  32.123  30.416   2.705
13587W        W77146   8.291  35.904   2.248
13588W        W77147  24.183   1.755   4.155
13589W        W77148  17.748  21.666   1.325
13590W        W77149  28.641  22.611   0.282
13591W        W77150  17.707  40.904  11.990
13592W        W77151  17.280  17.693   1.375
13593W        W77152  33.468  20.271   1.871
13594W        W77153  29.519  40.993  12.052
13595W        W77154  33.570  27.582  11.416
13596W        W77155  37.927   3.778   3.843
13597W        W77156   8.238   3.441  10.526
13598W        W77157  41.367  22.619   2.672
13599W        W77158  28.160  18.761  11.533
13600W        W77159  41.967   1.758   1.411
13601W        W77160  34.442  30.653  13.381
13602W        W77161  14.597  34.516   1.316
13603W        W77162  40.866  23.567  10.506
13604W        W77163  30.146  26.692  11.459
13605W        W77164  28.942  29.028  11.124
13606W        W77165  21.150   6.317  14.508
13607W        W77166  25.062  44.398  12.452
13608W        W77167  26.052  35.509  12.066
13609W        W77168   8.784  33.085  11.105
13610W        W77169   4.882  21.093   3.810
13611W        W77170  32.053  43.969   2.343
13612W        W77171  41.988  30.078   4.259
13613W        W77172  39.487   3.886  13.330
13614W        W77173  39.037  36.058  14.329
13615W        W77174  16.179  33.006   4.811
13616W        W77175  33.516   2.917   4.259
13617W        W77176  42.780  38.351   0.872
13618W        W77177  23.202  16.255   3.674
13619W        W77178   8.391  43.315  14.863
13620W        W77179   3.421  33.963   0.924
13621W        W77180   4.706   7.742  14.009
13622W        W77181   9.854  14.661   3.716
13623W        W77182  20.689  20.233  14.975
13624W        W77183   6.376  40.050  13.029
13625W        W77184  17.754  38.522  13.018
13626W        W77185   4.910  24.569  11.960
13627W        W77186  11.293  13.666  14.905
13628W        W77187  23.189  23.171  12.008
13629W        W77188  36.066  23.148   0.441
13630W        W77189  38.458  36.063  13.810
13631W        W77190  36.573   6.338  14.501
13632W        W77191  43.857  42.358  11.488
13633W        W77192  12.795  16.140   1.928
13634W        W77193  36.027  18.785   3.636
13635W        W77194   7.806   5.329  14.372
13636W        W77195  43.809   0.841  12.547
13637W        W77196  13.325  38.962   3.834
13638W        W77197  26.578  17.767  12.501
13639W        W77198  17.283   1.379  14.978
13640W        W77199  26.204  11.622   0.449
13641W        W77200  11.217  20.184  11.858
13642W        W77201  14.249  12.733  11.459
13643W        W77202   4.737  40.379  14.456
13644W        W77203   9.690  19.728  11.937
13645W        W77204  23.657  11.297  11.514
13646W        W77205   8.162  29.569  13.491
13647W        W77206  26.501  15.616  10.905
13648W        W77207  29.174  37.354   2.242
13649W        W77208   4.825  34.504  14.858
13650W        W77209  33.607  11.812  12.839
13651W        W77210  16.183  16.276   3.772
13652W        W77211   3.403  24.528  14.451
13653W        W77212  39.888  44.411  14.408
13654W        W77213  39.021  25.495   1.299
13655W        W77214  21.238  22.067  13.827
13656W        W77215  21.119  37.353   2.675
13657W        W77216  12.344  33.585   3.149
13658W        W77217  40.376  36.365   2.187
13659W        W77218  28.961  21.206  10.411
13660W        W77219  16.713  10.213   1.368
13661W        W77220  30.616  24.075  12.051
13662W        W77221  25.209  23.523   2.818
13663W        W77222  29.069  25.535   1.776
13664W        W77223  21.600  37.831  13.514
13665W        W77224  33.898  43.347  10.525
13666W        W77225  11.329  18.703   2.777
13667W        W77226  20.693  39.406  14.330
13668W        W77227  28.088  35.455  10.057
13669W        W77228  25.558  39.504   4.721
13670W        W77229  32.887  27.619   3.720
13671W        W77230  38.468  39.358   0.385
13672W        W77231  20.066  32.588   0.392
13673W        W77232  21.064  30.103   2.827
13674W        W77233  35.949  21.162   0.901
13675W        W77234  40.884  17.801  13.989
13676W        W77235  26.134   7.211   3.748
13677W        W77236  14.207  25.107  13.498
13678W        W77237  32.102  10.768   9.649
13679W        W77238  17.657   5.836  10.999
13680W        W77239  34.571  31.610   2.259
13681W        W77240   7.825  10.149   1.450
13682W        W77241   0.451   9.755   0.481
13683W        W77242  12.790  33.899  12.370
13684W        W77243   4.884  10.370  10.116
13685W        W77244  35.591  10.157   0.862
13686W        W77245   0.972  28.659   2.700
13687W        W77246  39.343  43.481  11.889
13688W        W77247   1.393  41.019   1.820
13689W        W77248  37.957   2.810   4.600
13690W        W77249  11.783  30.098  13.896
13691W        W77250  40.355  19.678   3.173
13692W        W77251  36.911  32.525   2.212
13693W        W77252  25.099  36.881  11.048
13694W        W77253  43.940   5.341   2.202
13695W        W77254  18.705  41.952  14.411
13696W        W77255  39.910   5.924   1.850
13697W        W77256  40.984  27.964  14.001
13698W        W77257  44.993  18.052   1.437
13699W        W77258   4.837  37.546   0.442
13700W        W77259   7.779   6.234   0.789
13701W        W77260  38.513  22.735   1.298
13702W        W77261  42.032  35.377  13.521
13703W        W77262  22.632  25.491  12.382
13704W        W77263  35.081  33.524   1.808
13705W        W77264  16.670  35.401   1.238
13706W        W77265   6.846   4.395   3.824
13707W        W77266  41.368  25.966   2.772
13708W        W77267  11.230  23.241   4.255
13709W        W77268   4.802   0.463   3.640
13710W        W77269  28.615  38.454  13.475
13711W        W77270  13.201  44.413   2.849
13712W        W77271   4.386  42.508  12.937
13713W        W77272  21.203  34.012   4.719
13714W        W77273  42.338  19.044   2.852
13715W        W77274  30.414  19.195   1.215
13716W        W77275  21.560  10.744  11.477
13717W        W77276  29.537  28.439  12.918
13718W        W77277  36.988  29.141  14.436
13719W        W77278  18.547  14.615   2.795
13720W        W77279  20.681  35.871   2.898
13721W        W77280  39.018  31.567  12.083
13722W        W77281  20.691  43.957   3.697
13723W        W77282  40.435   6.206  14.506
13724W        W77283  12.836  20.210  10.513
13725W        W77284  27.692   3.792  14.003
13726W        W77285  27.453  25.975  13.998
13727W        W77286   3.787  12.193  10.988
13728W        W77287  16.722  23.548  11.117
13729W        W77288   1.304  36.588   0.904
13730W        W77289  17.102  16.289   3.786
13731W        W77290   0.454  37.024   0.378
13732W        W77291  19.167  13.686   1.868
13733W        W77292  13.636   1.448   0.254
13734W        W77293  44.948  17.115  13.540
13735W        W77294  12.147  43.913  10.990
13736W        W77295   4.280  21.540   4.819
13737W        W77296  10.746  44.759  12.828
13738W        W77297  21.231   6.792  11.954
13739W        W77298  24.182  36.865  12.930
13740W        W77299  22.222  41.294  13.045
13741W        W77300  18.750   8.303  11.458
13742W        W77301  19.206  41.340   4.231
13743W        W77302  16.669  39.966   2.321
13744W        W77303  25.083  40.403  13.954
13745W        W77304  26.650  40.005   3.662
13746W        W77305  21.027   5.842   4.743
13747W        W77306  13.728  19.726  12.019
13748W        W77307  29.521  11.279  12.341
13749W        W77308  25.001  26.985  14.811
13750W        W77309  31.461  35.075   4.254
13751W        W77310  27.127   1.282  11.600
13752W        W77311  16.647   0.258   2.312
13753W        W77312   4.352  41.957   4.760
13754W        W77313  41.343   7.812   0.295
13755W        W77314  33.917  21.215  13.370
13756W        W77315  11.187  24.019  13.888
13757W        W77316   3.869  33.593   0.363
13758W        W77317  16.309  33.582   0.944
13759W        W77318  14.793  23.569  10.947
13760W        W77319   5.829  31.455   2.275
13761W        W77320   9.649  20.164   4.629
13762W        W77321  28.947  10.326   4.762
13763W        W77322   6.880  12.749  10.631
13764W        W77323   2.254  40.010   4.715
13765W        W77324  40.938  37.461  14.915
13766W        W77325   2.402  26.966  13.870
13767W        W77326  11.861  28.650   4.294
13768W        W77327   4.243  30.499   0.762
13769W        W77328  40.899  43.368   1.909
13770W        W77329  40.453  32.057  14.966
13771W        W77330   8.881  43.883   1.877
13772W        W77331  35.416  16.086   4.124
13773W        W77332  32.008  14.205  13.455
13774W        W77333  26.592  12.268   5.237
13775W        W77334  27.579  21.745  11.874
13776W        W77335  26.688   2.767  12.935
13777W        W77336  21.246  23.503   0.351
13778W        W77337  35.358  34.966  10.056
13779W        W77338  24.683  13.787   1.284
13780W        W77339  24.991  18.656   4.251
13781W        W77340  34.060  26.193  14.891
13782W        W77341  30.593   4.320   4.664
13783W        W77342   4.224  25.613   0.751
13784W        W77343  21.101  24.660  10.625
13785W        W77344  32.432  22.570  13.346
13786W        W77345  39.403  35.901  13.979
13787W        W77346  42.810   8.374  12.450
13788W        W77347  17.625   5.218   0.897
13789W        W77348  36.063  31.979   4.745
13790W        W77349  21.175  15.261  14.969
13791W        W77350   1.270  14.764   2.393
13792W        W77351  31.977  19.215  12.347
13793W        W77352   9.184  43.802   3.282
13794W        W77353  33.574  18.559   0.835
13795W        W77354  22.171  14.239   1.259
13796W        W77355  27.581   3.338  11.461
13797W        W77356  25.007  35.034   2.323
13798W        W77357  43.369  22.242   1.375
13799W        W77358   9.798  28.465  14.793
13800W        W77359  19.110   3.359  14.804
13801W        W77360  41.017  34.517  12.478
13802W        W77361   9.680  22.674   0.374
13803W        W77362  21.066  15.648   0.464
13804W        W77363   5.888  17.781  10.914
13805W        W77364  21.021   1.323   4.714
13806W        W77365  25.670  22.745   3.644
13807W        W77366  27.460  22.501   2.756
13808W        W77367  16.775  17.094  13.539
13809W        W77368  33.542  34.119   4.180
13810W        W77369   6.706   2.843   1.347
13811W        W77370  15.138  43.463   1.699
13812W        W77371   7.367  12.336   1.807
13813W        W77372  37.986  11.136  11.472
13814W        W77373   4.421  17.204  10.951
13815W        W77374  28.942  43.981   4.294
13816W        W77375  40.936  27.636   1.703
13817W        W77376  16.138  38.831  14.934
13818W        W77377  39.054  12.120  14.458
13819W        W77378  17.628  24.013  14.385
13820W        W77379   6.872  22.088   2.366
13821W        W77380  35.880  25.699   2.194
13822W        W77381  19.232   7.377   1.867
13823W        W77382  32.437  16.206  11.069
13824W        W77383  38.970  18.295  11.500
13825W        W77384   1.807  30.416   2.779
13826W        W77385  30.464  18.568   4.179
13827W        W77386  10.347  24.133  12.954
13828W        W77387  26.599  36.980  13.875
13829W        W77388  16.256  40.949  14.013
13830W        W77389  44.866  21.162  13.349
13831W        W77390  26.048   7.356   0.732
13832W        W77391  11.744  33.106   5.251
13833W        W77392  30.069  23.189  14.356
13834W        W77393  14.788   5.377  12.538
13835W        W77394  19.200  27.116  14.386
13836W        W77395  15.797  13.622   1.846
13837W        W77396  42.439  21.181   2.408
13838W        W77397  17.610   7.771  11.468
13839W        W77398  11.320  17.608  13.016
13840W        W77399   5.340  25.967   2.814
13841W        W77400   3.289  26.006   3.195
13842W        W77401  19.613  44.760  13.900
13843W        W77402  38.536  22.707   3.685
13844W        W77403   4.888  42.921   4.309
13845W        W77404  19.644  36.995  14.906
13846W        W77405  12.354   1.827  13.831
13847W        W77406   7.305   2.793  10.599
13848W        W77407  36.491  25.086  11.987
13849W        W77408  26.497  23.530   1.865
13850W        W77409  13.269  38.049  13.926
13851W        W77410  39.809  29.487   1.313
13852W        W77411  44.856  37.354  13.969
13853W        W77412  35.526  25.482  13.885
13854W        W77413   2.829  14.830  13.027
13855W        W77414  28.653  10.854  13.050
13856W        W77415  33.534  11.372   1.254
13857W        W77416  34.423  33.496   4.287
13858W        W77417  32.462  12.278  13.827
13859W        W77418  41.834  10.863  12.940
13860W        W77419   6.784  21.536   0.946
13861W        W77420  19.123   3.793   3.729
13862W        W77421  18.613  14.314   1.819
13863W        W77422  13.708  13.829   3.813
13864W        W77423  22.573  35.890   4.305
13865W        W77424  36.355  13.171   3.225
13866W        W77425  31.149  22.098  10.511
13867W        W77426  30.045  15.226   1.334
13868W        W77427  44.263   9.779  11.015
13869W        W77428  28.143  19.619  10.518
13870W        W77429  18.638  38.914   1.773
13871W        W77430   1.754  34.415  11.936
13872W        W77431  30.936  36.505   2.749
13873W        W77432  29.098  20.751  10.020
13874W        W77433  11.718  40.055   4.724
13875W        W77434  27.992   8.802   2.344
13876W        W77435  19.763   0.770   2.411
13877W        W77436  11.263   8.251  10.453
13878W        W77437  21.160  27.599  14.997
13879W        W77438  36.350  44.377  14.445
13880W        W77439  19.146  36.036  11.523
13881W        W77440  22.082  23.632  13.373
13882W        W77441  31.089   1.754  12.916
13883W        W77442  24.519  15.607   3.833
13884W        W77443  13.225  11.201   4.320
13885W        W77444  40.492  38.838  14.985
13886W        W77445  18.751  13.189  10.616
13887W        W77446   9.765  37.962  13.418
13888W        W77447  15.720  25.088   1.862
13889W        W77448   6.900  33.383   3.340
13890W        W77449  40.873   2.343  12.400
13891W        W77450  28.171   5.335   2.307
13892W        W77451  40.951  23.009  13.883
13893W        W77452   4.421  24.068   2.339
13894W        W77453  21.566  39.046  14.026
13895W        W77454  19.153  36.519  11.516
13896W        W77455   1.753  32.404   0.938
13897W        W77456  44.911   0.265   2.398
13898W        W77457  30.917   6.349  11.604
13899W        W77458  41.372  14.701  10.443
13900W        W77459  25.591   3.753   0.261
13901W        W77460   2.305   2.919  11.394
13902W        W77461  25.486  36.493   2.689
13903W        W77462  44.489  20.242   2.309
13904W        W77463  23.621  26.592  12.888
13905W        W77464  23.091   9.798   0.909
13906W        W77465  25.635  30.995  11.924
13907W        W77466   4.416  25.656  13.358
13908W        W77467  31.488  15.209   0.910
13909W        W77468  17.664  17.789  13.841
13910W        W77469  19.749  37.403  14.417
13911W        W77470  36.067   5.912  13.822
13912W        W77471   0.267  21.528  12.404
13913W        W77472  42.283  32.437   1.421
13914W        W77473   9.298  36.077  12.998
13915W        W77474  31.418  37.405  12.013
13916W        W77475   7.667  29.531   0.744
13917W        W77476  37.552  43.926   0.787
13918W        W77477  41.347  29.461  12.975
13919W        W77478  20.668  29.643  10.902
13920W        W77479  37.907   9.687   0.855
13921W        W77480   0.265   8.371  14.998
13922W        W77481  17.561  15.192  13.433
13923W        W77482  35.459  29.532  13.034
13924W        W77483  21.024  31.026   3.374
13925W        W77484  40.391  11.745   2.379
13926W        W77485  32.123  27.186  11.859
13927W        W77486  29.600   2.355   1.437
13928W        W77487  15.184   8.325   9.563
13929W        W77488  43.811   2.346   0.332
13930W        W77489  18.237  22.516  13.527
13931W        W77490  29.576   8.199  13.812
13932W        W77491   0.970  34.397  10.480
13933W        W77492  11.711  10.152   0.738
13934W        W77493  19.553  43.470   2.257
13935W        W77494  36.930  39.407   3.198
13936W        W77495   0.330  24.101  10.916
13937W        W77496  38.461  29.451   2.836
13938W        W77497  19.109  14.709  14.905
13939W        W77498  34.538  21.742  14.833
13940W        W77499   5.228  37.000   0.322
13941W        W77500  31.954  14.277  14.004
13942W        W77501  21.072   0.798  12.429
13943W        W77502  10.325  18.061  10.967
13944W        W77503  25.581  14.104   3.317
13945W        W77504   5.820   0.779  13.395
13946W        W77505  33.623  21.122   0.253
13947W        W77506  12.637  44.461  10.418
13948W        W77507   0.292  32.909   2.700
13949W        W77508  34.587  34.465   4.292
13950W        W77509  42.890  20.523   1.736
13951W        W77510  25.580   3.306  10.515
13952W        W77511  33.061  12.847  10.518
13953W        W77512  33.016  43.350  14.491
13954W        W77513  17.702   8.294  11.901
13955W        W77514  26.623   0.830   3.671
13956W        W77515  16.685  34.453   4.169
13957W        W77516  16.642   0.940  10.964
13958W        W77517  40.823  16.677   2.715
13959W        W77518  21.185   7.195   2.338
13960W        W77519  11.184  23.185   4.747
13961W        W77520  26.066   9.278  14.392
13962W        W77521   6.793  34.411  12.926
13963W        W77522   8.855  44.338  13.039
13964W        W77523   4.841  28.610  11.900
13965W        W77524  12.764  37.460  12.430
13966W        W77525  29.048  34.050  12.507
13967W        W77526  40.963  13.213  14.432
13968W        W77527  28.970  15.823  13.838
13969W        W77528  24.708  21.743  11.485
13970W        W77529   4.717  42.428   1.382
13971W        W77530  38.873  39.365  13.952
13972W        W77531  38.538  24.580  13.819
13973W        W77532  36.576  37.059  13.446
13974W        W77533  24.201   2.392   4.741
13975W        W77534  39.498  12.123   1.742
13976W        W77535  25.144  42.993   1.852
13977W        W77536  39.521  36.027   1.890
13978W        W77537  25.504   8.868   0.912
13979W        W77538   9.659  10.849  12.431
13980W        W77539   9.787  25.596  11.113
13981W        W77540   2.926  42.316   0.948
13982W        W77541  26.172  41.017  13.395
13983W        W77542   2.285  14.750   0.362
13984W        W77543   7.776   9.725   3.795
13985W        W77544  38.882  43.973   2.810
13986W        W77545  41.922   4.866   9.981
13987W        W77546  33.946  30.144   0.282
13988W        W77547  23.033   7.902  12.394
13989W        W77548  10.860   7.680   0.305
13990W        W77549  12.857   3.898   0.420
13991W        W77550   3.226   8.735  11.555
13992W        W77551  29.993  40.927  12.539
13993W        W77552  31.628  24.592   4.763
13994W        W77553  13.690  27.690  11.115
13995W        W77554  35.571  44.817   1.239
13996W        W77555  32.615  10.200   1.852
13997W        W77556  19.079   7.402   3.698
13998W        W77557  20.074  29.926  13.005
13999W        W77558  33.430  33.433  11.437
14000W        W77559   9.803   9.206  11.887
14001W        W77560  21.130  21.188  11.081
14002W        W77561  13.602  41.871   0.283
14003W        W77562   3.306  40.509   3.870
14004W        W77563  17.232   6.362   1.301
14005W        W77564  33.009   8.773   4.214
14006W        W77565   8.732  14.663   1.249
14007W        W77566  35.048  33.998   0.431
14008W        W77567   1.466  31.634   2.264
14009W        W77568  16.220   2.791  12.959
14010W        W77569  37.391  21.737   2.212
14011W        W77570   0.424  23.181   2.862
14012W        W77571  34.369  23.189   3.211
14013W        W77572  43.014  11.215  14.840
14014W        W77573  28.960  15.270  14.403
14015W        W77574   6.860  13.323  14.886
14016W        W77575  30.046  29.108  14.770
14017W        W77576   1.809  26.539   2.376
14018W        W77577  22.703  37.515   2.344
14019W        W77578  32.015   6.400   4.705
14020W        W77579  11.868  31.455  11.538
14021W        W77580  18.129  42.485   1.924
14022W        W77581  40.343   7.238  10.071
14023W        W77582  10.379  25.015   0.252
14024W        W77583   2.446  38.065  10.560
14025W        W77584  36.365  10.681   4.176
14026W        W77585  41.039   0.321   0.953
14027W        W77586   8.792  22.111  13.323
14028W        W77587  38.925  37.904  13.941
14029W        W77588  39.356  18.117   0.919
14030W        W77589  24.569  36.515  11.493
14031W        W77590  22.131  25.164   0.965
14032W        W77591  16.087  26.131   4.651
14033W        W77592   6.266  24.141   4.138
14034W        W77593   1.397  20.621   2.310
14035W        W77594  35.370   3.269   0.308
14036W        W77595   5.834  40.505  13.925
14037W        W77596  11.681  26.181   4.645
14038W        W77597  11.866  30.416  12.539
14039W        W77598  15.750  35.371  11.129
14040W        W77599   5.747  37.427  12.488
14041W        W77600  37.969  25.614  11.934
14042W        W77601  29.104  43.324   0.406
14043W        W77602  18.675   4.865   1.751
14044W        W77603  13.733  38.331  14.379
14045W        W77604  11.269  34.921  12.975
14046W        W77605  10.328  32.585   3.211
14047W        W77606  39.466  30.629  12.040
14048W        W77607   8.339  24.179   3.155
14049W        W77608  25.062  12.666   3.191
14050W        W77609  26.095   6.781  13.881
14051W        W77610  12.672   7.192   0.296
14052W        W77611   5.408  15.619   1.930
14053W        W77612  27.082  35.089  10.934
14054W        W77613  18.662  43.787   4.251
14055W        W77614   3.300  35.942   1.790
14056W        W77615  43.457  32.081   4.246
14057W        W77616   6.319  18.782   1.406
14058W        W77617  34.485  26.966  11.411
14059W        W77618  23.508   5.825   1.364
14060W        W77619  13.740  24.044   0.820
14061W        W77620  39.926  23.148  12.049
14062W        W77621  32.600  25.662   2.734
14063W        W77622   8.332  26.962  12.489
14064W        W77623  30.937  12.612  11.920
14065W        W77624   2.234  27.631   0.325
14066W        W77625  13.147   2.447   2.393
14067W        W77626  33.387   0.354  12.889
14068W        W77627  24.676  32.539  12.578
14069W        W77628  11.864  26.577   4.676
14070W        W77629   4.929   3.313   2.861
14071W        W77630  40.390  31.478  11.593
14072W        W77631  13.746  20.530   2.254
14073W        W77632  41.826  21.665   1.356
14074W        W77633  18.655  40.327   0.791
14075W        W77634  24.039  44.958   4.354
14076W        W77635  27.955  16.205  13.793
14077W        W77636  39.831   7.680  11.949
14078W        W77637   8.684  38.009  11.900
14079W        W77638  24.133  40.044   4.829
14080W        W77639  16.072  23.572  13.894
14081W        W77640  31.414  21.122   0.274
14082W        W77641  26.125  29.594  11.907
14083W        W77642   8.186  25.637   3.203
14084W        W77643  23.490  28.437   1.694
14085W        W77644  19.167  33.076  12.918
14086W        W77645  24.196  34.418  13.944
14087W        W77646  16.646  33.957  12.034
14088W        W77647  15.607  17.180  12.474
14089W        W77648  18.141  11.138   3.798
14090W        W77649   7.784  32.945   2.344
14091W        W77650  28.640  25.127  11.483
14092W        W77651  13.284  33.062   1.423
14093W        W77652  11.795  26.076  13.826
14094W        W77653  36.354   9.690   2.267
14095W        W77654   2.332  20.164   0.967
14096W        W77655   7.319  14.120   2.723
14097W        W77656  11.217   7.250  14.450
14098W        W77657  32.954  41.800  13.315
14099W        W77658  32.459  26.492  14.994
14100W        W77659  15.137  19.130   1.310
14101W        W77660  38.021  20.618  11.599
14102W        W77661   5.347   0.347  11.031
14103W        W77662   2.893  23.208  13.340
14104W        W77663  26.537  10.656   3.371
14105W        W77664  33.492   7.177  14.868
14106W        W77665  43.926  42.513  14.815
14107W        W77666  26.547  37.577  12.970
14108W        W77667  14.133   6.740   4.225
14109W        W77668  15.315  16.600  12.061
14110W        W77669  10.851  15.213  10.594
14111W        W77670  34.931  36.909   4.261
14112W        W77671   9.666  21.133  12.346
14113W        W77672   9.298  23.494   3.238
14114W        W77673  21.525   6.738   4.718
14115W        W77674  26.048  23.587  11.864
14116W        W77675  18.756  21.609  10.560
14117W        W77676  11.199  29.523   2.381
14118W        W77677  39.835  35.602   1.347
14119W        W77678  13.820  15.113   4.808
14120W        W77679  18.787   3.911   0.363
14121W        W77680  33.974  22.733   9.921
14122W        W77681  27.996  21.681   1.317
14123W        W77682  27.673  13.232  11.069
14124W        W77683  42.323   6.831   1.294
14125W        W77684  21.138  27.587   2.715
14126W        W77685   6.377  37.550   2.749
14127W        W77686  15.603  21.619  13.939
14128W        W77687  28.509   9.263  14.451
14129W        W77688  22.695  39.981  11.941
14130W        W77689  22.678  30.495  12.429
14131W        W77690  37.891  41.826  14.817
14132W        W77691   0.377  31.138   2.799
14133W        W77692  38.824   5.699   3.845
14134W        W77693  44.291  23.661   1.260
14135W        W77694  42.290  31.419   1.401
14136W        W77695  25.538  29.936  14.394
14137W        W77696  26.513   0.976  11.409
14138W        W77697  21.209  30.920   9.546
14139W        W77698  20.751  19.622  14.826
14140W        W77699  29.921   5.804  10.457
14141W        W77700  17.683  12.807   1.299
14142W        W77701  32.568  31.016  10.624
14143W        W77702   4.387  43.911   3.726
14144W        W77703   0.908  39.499  12.432
14145W        W77704  25.572  35.995  10.992
14146W        W77705   6.910  31.610  12.094
14147W        W77706  44.995   8.183   1.694
14148W        W77707  42.916  30.943   1.852
14149W        W77708  43.798  26.969   2.409
14150W        W77709  32.453   7.280  11.053
14151W        W77710  21.685  24.488   2.256
14152W        W77711  39.453  15.679  10.530
14153W        W77712  41.899  43.996   0.762
14154W        W77713  25.496  34.518  12.412
14155W        W77714  30.041  13.273   0.878
14156W        W77715   4.800  38.515  10.529
14157W        W77716  29.427  28.624   3.328
14158W        W77717  40.999  15.600   4.639
14159W        W77718  23.043   4.700   3.379
14160W        W77719  30.481  28.675  11.482
14161W        W77720  36.507  25.702   2.233
14162W        W77721  34.094  36.462   2.354
14163W        W77722   0.411   3.396   1.772
14164W        W77723  12.732  32.106  14.511
14165W        W77724  31.933  24.536   0.247
14166W        W77725  33.937  21.205  14.511
14167W        W77726  10.783  14.308  13.449
14168W        W77727  35.536  20.029  12.866
14169W        W77728  42.921   9.287   5.083
14170W        W77729   1.885  10.262   0.809
14171W        W77730  28.653  37.868   1.856
14172W        W77731  12.745  41.427   0.451
14173W        W77732  43.982  24.646   4.333
14174W        W77733  10.791  19.693   0.439
14175W        W77734  33.111  44.404   1.888
14176W        W77735   5.235  37.984  10.547
14177W        W77736  35.958  42.438  12.921
14178W        W77737  39.050   7.385  10.422
14179W        W77738   2.941  18.244   1.793
14180W        W77739  32.047   6.752   0.248
14181W        W77740   0.933  23.661   3.639
14182W        W77741  14.809  40.993   4.181
14183W        W77742  34.513  14.767   2.824
14184W        W77743  11.354  43.407   4.710
14185W        W77744  18.782   3.806   3.725
14186W        W77745   4.333  32.007  10.098
14187W        W77746  33.525  41.416  12.889
14188W        W77747  40.883  34.016   2.245
14189W        W77748  36.558  41.363   4.741
14190W        W77749  26.186  30.555   0.933
14191W        W77750  43.410  28.961  10.639
14192W        W77751  42.016  40.012  10.091
14193W        W77752  26.094   3.754  14.316
14194W        W77753  43.784   5.816   3.843
14195W        W77754   5.249  27.506   0.307
14196W        W77755   8.291  41.994   1.251
14197W        W77756  36.399  27.605  14.390
14198W        W77757  27.195  30.133   3.652
14199W        W77758  32.141   7.886   2.672
14200W        W77759  35.086  28.461   4.310
14201W        W77760  41.522  18.662   4.246
14202W        W77761  20.149   5.409  12.951
14203W        W77762   5.745  36.527  13.058
14204W        W77763  35.443  37.336   3.302
14205W        W77764  25.181  20.040  12.339
14206W        W77765   8.257  22.214   2.212
14207W        W77766  33.455   7.411   3.377
14208W        W77767  41.302  35.480   2.201
14209W        W77768  27.194  43.014  14.341
14210W        W77769   3.845  14.749   2.885
14211W        W77770  14.657   7.358  14.455
14212W        W77771  32.027   9.706  11.928
14213W        W77772   3.454  17.801   1.713
14214W        W77773  30.496   6.352  12.858
14215W        W77774  13.179  21.586   0.886
14216W        W77775   3.709  42.499  11.951
14217W        W77776   9.665  32.015   3.731
14218W        W77777  19.226   5.436   3.729
14219W        W77778  28.027  44.326  13.491
14220W        W77779  29.451  38.543   1.869
14221W        W77780  17.116  22.055   1.275
14222W        W77781  40.878  18.782   0.336
14223W        W77782  12.727   4.734  11.063
14224W        W77783  42.840  38.882   2.358
14225W        W77784  11.636   8.253  11.930
14226W        W77785  15.158  30.653  13.406
14227W        W77786  34.007  11.827  14.395
14228W        W77787  42.014  23.685   0.451
14229W        W77788   2.803  26.062   3.243
14230W        W77789   2.454   4.942   9.984
14231W        W77790  28.622  43.427   1.428
14232W        W77791  25.541  33.967   1.740
14233W        W77792  40.926  44.468  14.777
14234W        W77793   5.764   0.479   2.317
14235W        W77794  25.488  43.486  10.965
14236W        W77795  38.072  26.685  14.314
14237W        W77796   3.953   7.344  14.987
14238W        W77797   5.258  40.414   1.778
14239W        W77798   6.870  13.680  10.420
14240W        W77799  44.864  10.349   0.816
14241W        W77800  42.842  44.392   4.637
14242W        W77801  36.475  29.597  10.580
14243W        W77802  18.790   3.776   1.285
14244W        W77803   3.756  40.937  12.422
14245W        W77804   1.746  40.019   3.808
14246W        W77805   5.216  44.402  11.374
14247W        W77806  37.498  34.963   1.890
14248W        W77807  16.240  32.399   3.308
14249W        W77808   1.868   6.868  13.311
14250W        W77809  44.483  17.188   2.363
14251W        W77810   3.909  26.976   1.850
14252W        W77811   1.482  20.558   1.810
14253W        W77812  15.628  43.415   4.180
14254W        W77813   0.855   2.459  13.915
14255W        W77814  10.809   4.837   2.737
14256W        W77815  10.682  32.434   9.586
14257W        W77816   4.742  26.059  14.775
14258W        W77817  35.871   3.323   3.699
14259W        W77818  44.757  37.552   0.864
14260W        W77819  37.014  24.988   4.278
14261W        W77820  24.206  22.185   5.692
14262W        W77821  33.979  42.899   0.890
14263W        W77822  38.866  35.374  11.884
14264W        W77823   4.739  38.367   9.970
14265W        W77824   1.309   5.377  13.369
14266W        W77825  41.968  12.785  13.316
14267W        W77826  35.422  30.001  10.586
14268W        W77827  19.639  10.852  14.896
14269W        W77828  23.598  16.631  12.872
14270W        W77829   0.860   5.774   3.747
14271W        W77830   3.427   1.476   1.843
14272W        W77831  31.968  17.260  11.968
14273W        W77832  11.311   5.237   2.730
14274W        W77833   6.400  44.955   1.346
14275W        W77834  33.956  29.082  14.339
14276W        W77835  26.078  36.939   2.829
14277W        W77836  23.572  28.084  13.505
14278W        W77837  23.672  14.325  10.956
14279W        W77838   9.316   5.697  11.438
14280W        W77839  22.095  17.748  12.393
14281W        W77840   7.837  33.406   0.419
14282W        W77841  14.785  16.293  11.392
14283W        W77842  37.575  22.238   4.295
14284W        W77843  29.518  20.638  11.512
14285W        W77844  14.766  33.981   4.269
14286W        W77845  22.737   7.879   0.755
14287W        W77846  13.683  24.625  10.605
14288W        W77847  14.267  41.823  10.962
14289W        W77848  32.489  12.778  10.437
14290W        W77849  18.270  35.046  14.855
14291W        W77850  27.448  11.228   3.717
14292W        W77851  31.512  29.096  13.972
14293W        W77852  33.046   9.388   3.722
14294W        W77853  22.582  23.621   0.933
14295W        W77854  13.193  25.070   3.846
14296W        W77855  41.370  26.471  14.381
14297W        W77856  34.989  10.720  12.449
14298W        W77857  40.339  38.013   2.902
14299W        W77858  35.418   5.329  13.990
14300W        W77859   9.718  18.673  14.475
14301W        W77860  40.997  31.944   1.721
14302W        W77861  40.903  43.950  12.375
14303W        W77862  25.524  30.122  12.442
14304W        W77863   6.745  37.062   0.841
14305W        W77864   4.850   1.801   2.882
14306W        W77865  23.735  24.091   1.884
14307W        W77866   9.884  26.562  13.420
14308W        W77867  22.154  28.556  10.546
14309W        W77868  30.911  19.165  14.799
14310W        W77869  11.682  22.997  11.898
14311W        W77870  37.977  44.757   1.277
14312W        W77871   1.259  16.647  12.937
14313W        W77872  20.082  13.160   1.415
14314W        W77873   9.645  19.558  11.467
14315W        W77874  34.885  13.351   0.820
14316W        W77875  17.108  28.146   0.328
14317W        W77876  26.655  31.948   3.681
14318W        W77877  10.866  40.933  14.462
14319W        W77878  32.032  13.282   4.145
14320W        W77879  35.419  28.483  13.339
14321W        W77880  37.366  13.200   4.819
14322W        W77881   9.359   2.929  14.916
14323W        W77882   7.805  28.068   4.825
14324W        W77883   8.746  16.185  14.831
14325W        W77884  35.915  40.515   2.347
14326W        W77885  23.724  28.092  12.513
14327W        W77886  15.250  12.157  11.040
14328W        W77887  10.726  29.515  12.965
14329W        W77888  33.115  25.610  13.846
14330W        W77889  21.018   8.833   3.207
14331W        W77890  31.083  43.295  12.478
14332W        W77891  34.978  42.980   1.431
14333W        W77892  11.785  24.722  14.309
14334W        W77893  24.132  20.750  10.484
14335W        W77894  13.677  22.724  11.865
14336W        W77895  38.392  30.935   4.744
14337W        W77896  25.605   0.975  14.407
14338W        W77897  20.145  13.605   2.817
14339W        W77898  42.976  32.097   0.742
14340W        W77899  20.661  35.027  10.912
14341W        W77900  31.918  24.682   1.901
14342W        W77901  36.857  44.877   4.343
14343W        W77902  43.018  40.406   3.322
14344W        W77903  22.580  22.568   4.304
14345W        W77904  40.927   9.770  12.487
14346W        W77905  39.328  19.109   4.825
14347W        W77906  12.183  43.809   1.822
14348W        W77907  21.521   0.905   3.344
14349W        W77908  16.630  16.294   4.756
14350W        W77909  17.602   7.855  13.805
14351W        W77910  29.584  16.240  13.383
14352W        W77911  44.987  14.212  13.989
14353W        W77912  15.681  44.849   1.850
14354W        W77913  15.665  10.261  14.327
14355W        W77914  14.618  18.733  13.004
14356W        W77915  17.772  42.979  13.518
14357W        W77916  38.832  31.936   3.821
14358W        W77917  20.123  35.992   0.407
14359W        W77918   8.785  11.773  13.978
14360W        W77919  28.623  12.655   0.343
14361W        W77920  16.208  28.527  12.492
14362W        W77921  31.421  44.807   4.658
14363W        W77922   9.833  14.624   2.882
14364W        W77923  16.264  18.696   1.892
14365W        W77924  28.556  19.776  11.956
14366W        W77925   4.353  42.523   1.732
14367W        W77926  41.301  22.129  11.536
14368W        W77927   8.219  20.229   1.346
14369W        W77928  43.472   9.254  14.386
14370W        W77929  28.936   2.875  13.037
14371W        W77930  17.235   9.785  11.424
14372W        W77931  13.312  16.293   3.830
14373W        W77932   6.204  32.921   1.427
14374W        W77933  33.597   9.255  11.897
14375W        W77934  35.974  22.230  12.346
14376W        W77935  19.146   1.399   2.214
14377W        W77936  37.867  10.708   1.311
14378W        W77937  35.105  20.155   1.226
14379W        W77938  26.665  17.639  13.918
14380W        W77939  12.831  13.116  12.083
14381W        W77940  24.181  24.186  10.996
14382W        W77941  37.573   4.370   0.765
14383W        W77942  20.622  19.752  12.447
14384W        W77943   1.773  33.115   4.620
14385W        W77944  16.798   1.868   3.295
14386W        W77945  39.051  31.954   0.853
14387W        W77946  22.734  25.098  14.421
14388W        W77947  22.609  13.782   3.212
14389W        W77948  24.636   2.777   1.311
14390W        W77949  22.610   3.236  13.794
14391W        W77950  29.611   6.308  10.633
14392W        W77951  15.196  20.269  12.943
14393W        W77952  26.602  20.177  14.998
14394W        W77953  42.337  29.493   4.734
14395W        W77954  26.685  19.202  12.092
14396W        W77955   4.335  44.405  11.878
14397W        W77956   5.362  21.746  14.419
14398W        W77957  29.019   4.926  12.369
14399W        W77958  28.562  22.659  11.938
14400W        W77959  19.122  31.570   2.749
14401W        W77960  42.025  28.172  13.509
14402W        W77961  37.540  35.468   1.812
14403W        W77962  18.103  40.542  11.019
14404W        W77963  34.896  17.135   5.183
14405W        W77964  11.732  13.716   2.289
14406W        W77965  25.011  13.139   5.112
14407W        W77966  21.256  27.983  13.841
14408W        W77967  10.772  33.435   2.364
14409W        W77968  17.800   0.931   4.730
14410W        W77969  30.542   5.258  12.910
14411W        W77970  17.096  43.372  13.333
14412W        W77971   3.941   0.915   4.598
14413W        W77972  33.622  32.908   0.899
14414W        W77973  42.958  40.816   0.359
14415W        W77974  34.116  22.157  11.125
14416W        W77975  24.497  44.878   1.292
14417W        W77976   6.390  19.749   2.253
14418W        W77977  24.566   7.230   3.810
14419W        W77978  19.145   3.415   0.731
14420W        W77979  33.132   0.255   0.829
14421W        W77980   1.901  30.422   4.611
14422W        W77981  22.633   1.866  12.455
14423W        W77982  21.093  23.174  11.417
14424W        W77983   1.922   1.457   2.367
14425W        W77984  17.601  27.191   2.188
14426W        W77985  15.680  23.604  14.319
14427W        W77986   8.843  28.124   5.320
14428W        W77987  17.094   0.281   4.127
14429W        W77988  11.738  37.338   2.353
14430W        W77989  40.351   1.358   3.350
14431W        W77990  24.229  38.543  12.070
14432W        W77991  12.360  16.201  10.943
14433W        W77992  19.137   4.761   9.984
14434W        W77993  34.108  34.534   1.405
14435W        W77994  33.876   4.817  11.536
14436W        W77995  42.878  23.123  14.896
14437W        W77996  18.704   7.300  14.930
14438W        W77997   4.790  44.006   1.233
14439W        W77998  24.646   7.212  12.907
14440W        W77999  14.642  14.207   5.175
14441W        W78000   6.368  10.645   3.161
14442W        W78001   2.300  26.672  13.329
14443W        W78002  22.151  18.739  14.343
14444W        W78003  18.107   4.873   0.818
14445W        W78004  15.580  19.630  10.114
14446W        W78005   7.767  34.949  11.911
14447W        W78006  24.211  39.531   3.675
14448W        W78007   4.443  37.449  11.060
14449W        W78008  18.637  27.992  13.915
14450W        W78009  19.154  28.112   4.119
14451W        W78010  36.449  13.804   3.163
14452W        W78011  20.699  27.679   5.783
14453W        W78012  41.940  13.308  13.957
14454W        W78013  44.403  32.474  14.765
14455W        W78014  29.589  21.591  13.989
14456W        W78015  32.551  34.484   4.650
14457W        W78016  10.260  20.701   3.825
14458W        W78017  34.433  42.330  12.499
14459W        W78018   8.799  11.146   4.824
14460W        W78019  16.668  36.546  14.833
14461W        W78020  21.063  40.859  13.477
14462W        W78021  12.704  34.063   2.264
14463W        W78022  39.448  23.107   2.666
14464W        W78023  44.956  31.506  10.588
14465W        W78024  21.589  23.994   4.130
14466W        W78025  38.496  41.473  13.988
14467W        W78026   2.453  28.998   4.751
14468W        W78027  41.017  18.545   0.753
14469W        W78028  32.073  43.862  14.350
14470W        W78029  35.444  31.548  14.795
14471W        W78030  19.063  25.707   3.841
14472W        W78031  28.057   7.858   2.316
14473W        W78032  43.472  19.252   3.803
14474W        W78033   7.356   7.672   3.365
14475W        W78034  21.121  18.210   3.245
14476W        W78035  13.616   1.791   4.195
14477W        W78036  42.964  35.457   3.676
14478W        W78037  34.113  41.517  12.044
14479W        W78038  24.035   6.746  14.370
14480W        W78039  35.097  44.490  11.528
14481W        W78040   7.281  24.160   0.264
14482W        W78041  34.904   3.357   2.816
14483W        W78042  22.203  40.990   2.306
14484W        W78043  35.987  17.615   3.815
14485W        W78044  32.140  40.310  13.515
14486W        W78045  18.762  40.927   1.379
14487W        W78046  26.018  19.057   2.902
14488W        W78047  42.991   9.726  11.592
14489W        W78048  18.634  12.716  11.085
14490W        W78049  12.218  11.799  12.076
14491W        W78050   9.738  28.595   3.677
14492W        W78051  21.649  13.636  12.033
14493W        W78052  20.543  37.423  14.462
14494W        W78053  32.585   2.390   2.854
14495W        W78054  10.326  11.847  12.999
14496W        W78055  28.488  27.503   3.763
14497W        W78056  32.926  33.132  13.338
14498W        W78057  38.030  10.336  13.933
14499W        W78058  11.275   0.987   1.282
14500W        W78059   6.365  33.460   4.246
14501W        W78060  29.560  25.497  14.499
14502W        W78061   5.325  13.210   0.346
14503W        W78062  13.636  14.179  13.490
14504W        W78063  18.564  18.218   0.949
14505W        W78064  40.459   3.268   4.713
14506W        W78065   8.213  44.768  12.090
14507W        W78066   8.734   7.800   1.880
14508W        W78067  15.685  12.128  13.999
14509W        W78068  29.151  37.864   0.252
14510W        W78069  23.039  26.967   0.296
14511W        W78070  14.724  18.105   4.353
14512W        W78071  33.114  35.409  12.502
14513W        W78072  39.520  29.104   4.273
14514W        W78073   8.400  15.301   2.795
14515W        W78074  31.583   4.724  12.420
14516W        W78075  31.550  18.780  12.968
14517W        W78076   3.229  32.944   1.403
14518W        W78077  33.618  37.063  11.385
14519W        W78078  40.966  36.556   1.289
14520W        W78079  12.794  12.657  12.561
14521W        W78080  34.121  14.200   0.893
14522W        W78081   4.328  27.964   4.780
14523W        W78082  13.726   9.698  12.908
14524W        W78083   9.384  34.901   2.671
14525W        W78084   1.865  23.060  13.323
14526W        W78085   8.673  11.290   3.671
14527W        W78086   7.876   9.256  10.408
14528W        W78087  38.568  12.207   1.279
14529W        W78088   8.888   4.892   2.818
14530W        W78089  38.897  15.201   1.890
14531W        W78090  31.534  27.042  14.763
14532W        W78091  32.122   0.438   1.922
14533W        W78092  10.820  23.054   0.957
14534W        W78093  12.310  26.638   1.845
14535W        W78094  20.627  34.501  11.044
14536W        W78095  40.982  42.401   0.400
14537W        W78096  31.593  31.624  14.812
14538W        W78097   5.918  39.999   4.150
14539W        W78098  37.554  15.759   4.830
14540W        W78099   5.322  29.615  11.515
14541W        W78100  42.383  11.142  14.927
14542W        W78101  30.559  33.566   0.474
14543W        W78102  16.676   8.665   2.747
14544W        W78103   3.805  43.301  14.845
14545W        W78104   9.372  32.039   1.731
14546W        W78105  19.656   1.807  11.610
14547W        W78106   9.793   8.303  11.057
14548W        W78107  24.653  19.670  13.886
14549W        W78108  43.929  40.363  14.474
14550W        W78109  31.621  30.627   1.808
14551W        W78110  29.554  15.581  11.080
14552W        W78111   3.768  41.984  14.786
14553W        W78112  11.238  21.100   0.873
14554W        W78113  29.501  28.148  11.490
14555W        W78114   1.799   6.683   3.306
14556W        W78115   6.724  35.093  14.477
14557W        W78116   6.415  21.548  12.564
14558W        W78117  30.930  29.092  10.492
14559W        W78118  33.991   8.185   3.368
14560W        W78119  26.975  34.075   4.660
14561W        W78120  26.683  12.256  10.103
14562W        W78121   3.749  39.408  13.383
14563W        W78122  36.541  36.861  13.988
14564W        W78123  32.394   8.398   0.364
14565W        W78124   3.935   1.933  14.797
14566W        W78125  37.930   0.800   2.781
14567W        W78126   7.255  18.685   0.732
14568W        W78127  16.760  35.396  12.489
14569W        W78128   6.234  16.230  10.465
14570W        W78129  25.087  28.186   3.788
14571W        W78130  18.581  31.083   3.252
14572W        W78131  40.971   0.352   3.854
14573W        W78132  36.483   2.812   0.821
14574W        W78133   1.875  35.487   1.804
14575W        W78134   4.431  35.464   1.441
14576W        W78135  44.772  28.186   1.901
14577W        W78136   0.851  40.386   2.885
14578W        W78137  13.325  40.797  14.780
14579W        W78138  17.779  10.350  13.321
14580W        W78139  38.912  43.806  12.385
14581W        W78140   1.352  35.480  11.594
14582W        W78141  32.921  37.520   2.842
14583W        W78142  25.713  20.725   4.740
14584W        W78143  27.601  17.772  13.513
14585W        W78144  13.199  30.631  12.856
14586W        W78145   5.893  31.028   1.875
14587W        W78146  12.640  44.006   3.185
14588W        W78147   6.874  19.190  13.473
14589W        W78148  39.936   0.981   4.670
14590W        W78149   4.382  41.300   2.373
14591W        W78150  35.547  14.638  12.894
14592W        W78151  40.995  32.534   4.765
14593W        W78152  37.379   4.334  14.812
14594W        W78153  11.700  36.061  13.952
14595W        W78154  20.746   2.735  14.887
14596W        W78155  29.128  25.107   3.173
14597W        W78156  36.422   4.917  12.968
14598W        W78157  38.954  15.273   9.954
14599W        W78158  19.246  42.993   9.959
14600W        W78159  23.140   3.742  11.395
14601W        W78160  28.173  25.525   1.446
14602W        W78161  14.177  15.224   2.841
14603W        W78162  17.218  30.470   3.362
14604W        W78163  23.092  15.738   0.471
14605W        W78164  36.418  21.021   0.272
14606W        W78165   2.356  34.391  14.963
14607W        W78166   0.379  29.538  13.513
14608W        W78167  34.050  27.989  11.968
14609W        W78168   6.750   7.685  13.416
14610W        W78169   8.309  37.914  12.408
14611W        W78170  25.512  12.627  12.933
14612W        W78171  38.920   0.352  13.370
14613W        W78172  31.609  44.408   1.303
14614W        W78173  35.968  24.100   4.129
14615W        W78174  41.392  41.489   3.733
14616W        W78175  19.656  21.170   3.267
14617W        W78176  22.700   8.307  10.517
14618W        W78177   0.464  26.592   0.386
14619W        W78178  31.416  20.188  11.426
14620W        W78179  34.895  26.026  10.618
14621W        W78180  36.905  19.158  12.070
14622W        W78181   8.751  26.981  11.373
14623W        W78182  20.744  18.769  13.034
14624W        W78183  23.029  27.673   4.708
14625W        W78184   6.331  30.519  14.825
14626W        W78185  37.987  11.776  13.378
14627W        W78186   0.824  40.426   3.188
14628W        W78187  12.796  38.455   4.779
14629W        W78188   1.377  18.612  11.922
14630W        W78189   0.875  15.604  11.087
14631W        W78190  22.032  17.791  11.919
14632W        W78191  34.480  30.532   2.823
14633W        W78192   1.876  38.964  14.375
14634W        W78193  33.920   2.281  11.067
14635W        W78194  13.832  15.687   3.269
14636W        W78195  11.844  20.624   3.766
14637W        W78196  18.615  27.137  10.584
14638W        W78197   3.731  25.126   3.817
14639W        W78198  28.971   1.358   2.835
14640W        W78199  28.933  28.099  10.904
14641W        W78200  35.364  26.030   3.277
14642W        W78201   4.206  25.116   2.693
14643W        W78202  17.159  29.576   2.220
14644W        W78203   7.367  13.826   2.273
14645W        W78204  20.054  43.802  13.926
14646W        W78205  21.694  16.745   1.871
14647W        W78206   2.287  21.570  12.959
14648W        W78207  26.015  41.895   4.730
14649W        W78208  22.232  26.042   0.730
14650W        W78209  24.160   9.881  14.962
14651W        W78210  18.746  11.149  14.290
14652W        W78211  22.653  33.592  14.292
14653W        W78212  21.534  43.330  12.443
14654W        W78213  20.195   9.674   4.714
14655W        W78214   6.376  27.481   0.451
14656W        W78215   3.417   3.876   3.173
14657W        W78216  36.018  23.072  14.886
14658W        W78217   1.450  31.457  14.450
14659W        W78218   6.829   0.847   2.314
14660W        W78219  31.944  15.268  12.372
14661W        W78220  12.191  38.549  11.011
14662W        W78221  33.050  22.162  14.512
14663W        W78222  34.048   2.396   0.936
14664W        W78223  28.593  18.699   3.255
14665W        W78224  42.283  11.803   2.679
14666W        W78225  21.190  40.505   0.855
14667W        W78226  32.433  17.776   4.171
14668W        W78227  31.033  22.054  12.024
14669W        W78228  11.371  21.677  13.383
14670W        W78229   7.900  34.001  10.411
14671W        W78230  21.194   5.218  10.913
14672W        W78231  32.615  40.938  11.975
14673W        W78232   7.325   8.212  12.520
14674W        W78233  29.605  24.979  10.142
14675W        W78234  22.747  23.190  12.064
14676W        W78235  42.776   1.744   0.941
14677W        W78236  17.570   9.269  10.578
14678W        W78237  22.036  34.406  12.028
14679W        W78238  43.875  40.809  13.870
14680W        W78239  32.999  40.496   3.198
14681W        W78240  38.426   7.891   3.320
14682W        W78241  13.737  18.127   4.606
14683W        W78242  12.128  39.982  13.977
14684W        W78243  33.067   6.336  10.575
14685W        W78244  24.169  18.687   4.332
14686W        W78245  33.014  25.569  12.982
14687W        W78246  26.476  32.012   0.358
14688W        W78247  10.674  26.190   3.224
14689W        W78248  44.796  26.087  12.963
14690W        W78249  43.847  20.609   1.891
14691W        W78250   2.295  37.480   1.855
14692W        W78251  15.597   7.231  13.024
14693W        W78252  35.441   3.725  11.987
14694W        W78253  30.009   6.694   1.327
14695W        W78254  17.732  23.121  10.449
14696W        W78255  14.266  29.018   4.604
14697W        W78256  17.801  40.882  14.000
14698W        W78257  31.923   7.749  12.509
14699W        W78258   1.874  34.018   3.213
14700W        W78259   1.756  42.858  12.398
14701W        W78260  38.325  44.487   2.303
14702W        W78261  25.115   8.666   5.186
14703W        W78262  12.854  17.144  13.813
14704W        W78263  14.266  16.153   3.153
14705W        W78264  38.511   6.274  13.971
14706W        W78265  17.065  13.264   1.784
14707W        W78266  37.504  18.651  11.089
14708W        W78267  38.496  40.004  12.406
14709W        W78268  42.481   0.490   0.334
14710W        W78269  44.804  40.367  12.369
14711W        W78270  41.963  13.765   2.213
14712W        W78271  22.628  25.091  14.975
14713W        W78272   1.305  30.421   0.437
14714W        W78273  20.683  20.087   4.744
14715W        W78274  36.461  29.571  13.007
14716W        W78275   2.254  40.333  14.788
14717W        W78276  43.939  38.889   1.903
14718W        W78277   7.327  26.624   0.440
14719W        W78278  24.654  44.337  11.553
14720W        W78279  18.094  23.653  14.330
14721W        W78280   8.813  15.695  10.617
14722W        W78281  28.523   4.710  12.971
14723W        W78282  27.962  40.536   1.378
14724W        W78283   1.921  22.692   2.199
14725W        W78284  25.533  40.371   2.202
14726W        W78285  10.781  30.427   3.147
14727W        W78286   0.427  15.666  11.028
14728W        W78287   2.939  17.566  13.868
14729W        W78288  38.023   5.216  11.067
14730W        W78289  18.123  21.028   2.787
14731W        W78290  40.349  26.968  13.515
14732W        W78291   3.225  30.590   0.247
14733W        W78292  40.009   4.799   2.178
14734W        W78293  13.606  13.119   3.179
14735W        W78294  17.262  28.460  10.917
14736W        W78295  39.844  19.086   1.285
14737W        W78296  22.695   4.813  11.950
14738W        W78297  34.114   2.342   1.853
14739W        W78298  13.716  35.526  13.426
14740W        W78299  34.006   2.788   2.890
14741W        W78300   9.166  38.905   1.828
14742W        W78301  42.960  23.084  10.565
14743W        W78302  33.121  32.060  12.992
14744W        W78303  29.134  33.413  10.895
14745W        W78304  42.393   4.386  11.954
14746W        W78305  14.706   8.286   2.833
14747W        W78306  27.125   7.402   2.853
14748W        W78307  26.970  37.034  14.854
14749W        W78308  20.151  10.217   0.786
14750W        W78309   6.706  29.989   3.242
14751W        W78310   2.324  24.707  14.941
14752W        W78311   0.971  13.708   0.759
14753W        W78312  20.147  34.381  14.391
14754W        W78313  23.133  25.542   2.895
14755W        W78314   6.272   4.780  13.454
14756W        W78315  43.420  32.063   1.794
14757W        W78316  38.562  30.943   0.288
14758W        W78317  14.719  35.941   3.288
14759W        W78318   3.353  33.616  10.445
14760W        W78319  41.367  29.439  11.511
14761W        W78320   1.246  14.664   0.410
14762W        W78321   2.402  18.061  13.882
14763W        W78322  11.186  30.078  10.425
14764W        W78323  33.435  13.170   1.780
14765W        W78324  34.086  39.901   5.128
14766W        W78325   1.337  28.674  11.482
14767W        W78326  34.416  26.477   0.465
14768W        W78327  20.589  41.991  10.550
14769W        W78328  13.301   7.791   3.660
14770W        W78329  41.893  11.316   0.314
14771W        W78330  38.362  40.929  13.797
14772W        W78331  28.486   8.883  14.911
14773W        W78332  11.829   6.416  14.869
14774W        W78333  33.409   3.442  14.364
14775W        W78334  29.629  27.564  12.540
14776W        W78335   2.253  11.731   0.917
14777W        W78336   6.365   5.893  14.325
14778W        W78337  17.788  12.322   1.374
14779W        W78338  22.689  44.811   4.823
14780W        W78339   3.712  34.525   0.738
14781W        W78340  17.636  17.638  13.426
14782W        W78341   7.240  39.325  11.514
14783W        W78342  10.204  31.555   2.700
14784W        W78343  18.556  19.563  12.567
14785W        W78344   5.797   0.311   2.855
14786W        W78345   3.907  11.835  10.607
14787W        W78346  35.537  14.591  14.952
14788W        W78347  26.482  29.164  10.967
14789W        W78348  21.050  43.984  13.507
14790W        W78349   5.318  38.858  14.455
14791W        W78350  11.291  23.512  13.040
14792W        W78351  39.843  30.644  12.564
14793W        W78352   8.752  26.645   1.327
14794W        W78353  29.547  37.471   5.320
14795W        W78354  39.483  24.100  11.548
14796W        W78355   4.303  25.196   1.926
14797W        W78356  43.823  21.229  14.398
14798W        W78357   7.824  17.222   3.654
14799W        W78358  11.705  29.977   1.418
14800W        W78359  32.460  30.648  11.497
14801W        W78360  44.929  27.958  14.344
14802W        W78361  34.405  31.009   0.807
14803W        W78362  33.905  43.875   4.733
14804W        W78363   2.420  18.279   2.379
14805W        W78364   1.926  36.558  11.125
14806W        W78365  14.326   5.363  10.971
14807W        W78366   4.297   5.838  11.014
14808W        W78367   5.860  36.414   2.237
14809W        W78368  31.042  13.339  14.935
14810W        W78369  35.003  44.397   2.783
14811W        W78370   1.332   8.352  13.896
14812W        W78371   0.922  28.045   3.194
14813W        W78372  33.599   2.957  14.013
14814W        W78373  22.011  32.999   5.717
14815W        W78374  37.077  27.607   0.872
14816W        W78375  11.240  38.380   0.856
14817W        W78376  42.987  32.959  11.598
14818W        W78377  27.567  14.098   3.660
14819W        W78378  31.903  43.780  12.415
14820W        W78379   7.211  23.133  13.983
14821W        W78380   2.759   1.479  12.091
14822W        W78381  26.617  43.499  10.613
14823W        W78382   1.475  42.897   2.801
14824W        W78383  38.508   9.818   1.881
14825W        W78384  16.633   3.721  14.004
14826W        W78385  28.608   2.350   0.778
14827W        W78386  38.414  38.933  10.522
14828W        W78387  35.469  14.295  13.375
14829W        W78388  13.176  22.561   5.673
14830W        W78389  35.583  10.252  14.304
14831W        W78390  43.398   1.781  10.556
14832W        W78391   3.358  43.007  13.377
14833W        W78392  37.421   2.235  10.467
14834W        W78393  10.693  12.170   2.354
14835W        W78394  15.159  15.717   2.406
14836W        W78395   8.761  15.150   0.945
14837W        W78396  15.623  37.446   1.334
14838W        W78397  34.871  40.356   2.355
14839W        W78398  34.020  31.903   1.429
14840W        W78399  27.542  15.638   2.674
14841W        W78400  19.533  40.909  14.032
14842W        W78401  11.639  35.403   1.272
14843W        W78402  30.984  12.635   3.726
14844W        W78403  19.629  31.591   0.851
14845W        W78404  14.291  38.946   3.266
14846W        W78405   3.387   1.361   0.801
14847W        W78406  29.606  34.898  10.034
14848W        W78407  42.373  39.050   3.729
14849W        W78408   7.414  27.656   0.794
14850W        W78409  40.009  32.451  12.960
14851W        W78410  19.680   2.292  12.471
14852W        W78411  13.804   8.353  13.039
14853W        W78412  18.596  39.495   4.335
14854W        W78413  31.943  35.571   4.118
14855W        W78414   1.246  17.796  11.511
14856W        W78415  12.272  25.563  14.940
14857W        W78416  42.372  20.747   0.904
14858W        W78417  37.510  44.346  13.314
14859W        W78418  32.014  23.718   0.912
14860W        W78419  24.569  41.878  11.099
14861W        W78420  44.953  31.048   2.314
14862W        W78421  41.368  37.910   3.372
14863W        W78422   4.856  34.538   2.743
14864W        W78423   1.325  13.665  11.386
14865W        W78424  22.607  17.581  13.822
14866W        W78425   0.272  44.967  12.372
14867W        W78426  40.404  26.584   0.380
14868W        W78427  12.219  32.062  13.797
14869W        W78428   5.358  23.114  12.841
14870W        W78429  43.928  11.634   0.267
14871W        W78430  28.943  22.524   0.746
14872W        W78431   1.894  43.801   1.906
14873W        W78432  34.382  13.843  10.480
14874W        W78433  11.224  41.411  13.441
14875W        W78434  18.235  40.049  11.514
14876W        W78435   4.760  10.808   4.723
14877W        W78436  14.830  18.572   1.702
14878W        W78437  40.520  44.472   1.895
14879W        W78438  17.105   0.824   1.349
14880W        W78439  30.051  11.769   0.344
14881W        W78440  15.642   5.428   4.664
14882W        W78441  18.227  37.951   4.119
14883W        W78442  30.607  23.612  11.958
14884W        W78443  18.149   1.276   4.641
14885W        W78444  41.437  40.432   3.241
14886W        W78445  44.763   1.371   1.731
14887W        W78446   2.341  29.011   0.919
14888W        W78447  12.202   8.239  13.310
14889W        W78448   4.307   3.321   3.240
14890W        W78449  11.324  16.802   3.758
14891W        W78450  39.427   0.325   1.795
14892W        W78451  18.668  25.528  14.808
14893W        W78452  40.971  12.320   1.292
14894W        W78453   4.839  26.017  12.908
14895W        W78454  17.210  11.835   4.185
14896W        W78455   1.390  17.690  12.523
14897W        W78456  24.045  33.887  13.499
14898W        W78457  38.545  10.721   4.804
14899W        W78458  39.913  37.874  11.067
14900W        W78459   5.878  35.885  10.931
14901W        W78460  27.479  11.259   4.658
14902W        W78461  32.977  43.774  14.873
14903W        W78462  16.223  24.068  14.952
14904W        W78463  30.085  37.890   0.388
14905W        W78464  13.657  31.985  11.479
14906W        W78465  28.608  31.144   2.379
14907W        W78466  39.404  15.282   0.872
14908W        W78467  34.001  14.700   1.273
14909W        W78468   9.830  38.059   3.841
14910W        W78469  13.669  36.475   4.147
14911W        W78470  12.673  20.178  13.341
14912W        W78471  30.453  41.787   3.257
14913W        W78472  33.082  37.571   0.731
14914W        W78473  17.238   7.203  14.906
14915W        W78474  13.665   4.261   4.246
14916W        W78475  44.436   0.859   4.793
14917W        W78476  36.017   5.388  13.391
14918W        W78477  25.020  38.485   1.808
14919W        W78478   1.375   2.350   0.773
14920W        W78479   7.844  38.562   1.931
14921W        W78480  34.527  42.899  10.547
14922W        W78481  38.555  20.135  14.433
14923W        W78482  43.942  31.431   1.847
14924W        W78483  41.989  32.082   1.337
14925W        W78484   9.869  41.372   3.288
14926W        W78485  28.993  25.968  14.810
14927W        W78486  43.858  21.198  11.437
14928W        W78487   5.283  12.320   4.180
14929W        W78488  14.270  33.386   5.236
14930W        W78489  28.551  23.002   1.302
14931W        W78490  33.019  37.408  11.411
14932W        W78491   0.337  44.307  14.895
14933W        W78492  36.561   6.291   1.732
14934W        W78493  20.665  37.932   1.218
14935W        W78494   7.262   1.424  11.445
14936W        W78495  34.607  40.494  11.440
14937W        W78496  32.012  34.049  12.022
14938W        W78497  23.063  35.595  13.870
14939W        W78498  17.778  35.485  13.863
14940W        W78499  24.141  37.048  11.857
14941W        W78500  20.742  16.602  13.955
14942W        W78501  34.564  43.279   1.899
14943W        W78502  38.513  13.256   2.802
14944W        W78503  36.359  33.038  12.488
14945W        W78504   8.174  25.550  13.819
14946W        W78505   6.805  27.575  10.636
14947W        W78506  18.651  25.585   2.247
14948W        W78507  37.882  26.095  14.922
14949W        W78508  20.686  38.902  13.435
14950W        W78509  44.854  19.735   0.315
14951W        W78510   2.796  32.063  13.044
14952W        W78511   2.296   8.866  11.564
14953W        W78512  38.828  28.448  13.332
14954W        W78513  20.173  36.467  13.395
14955W        W78514  33.974   1.947  14.914
14956W        W78515  27.563   9.390  13.971
14957W        W78516  35.871  43.924   2.726
14958W        W78517  27.120  36.975  10.495
14959W        W78518  40.888  19.542   1.803
14960W        W78519  19.166  29.172  13.909
14961W        W78520  40.800   9.203  14.928
14962W        W78521   2.920  36.057  14.467
14963W        W78522  13.666   7.287  13.965
14964W        W78523   9.185  27.626  14.410
14965W        W78524  25.701  40.376   0.365
14966W        W78525  12.257  11.164  13.387
14967W        W78526  38.856  11.650   0.397
14968W        W78527   4.739  21.747  11.127
14969W        W78528  12.734  21.184  10.578
14970W        W78529  31.629  38.540  14.942
14971W        W78530  27.631  18.216  14.014
14972W        W78531   0.381  24.112  13.499
14973W        W78532   6.331  14.172   5.218
14974W        W78533   0.984  31.499   4.628
14975W        W78534  39.839  26.097   2.849
14976W        W78535  22.626  25.035   4.337
14977W        W78536  16.285  34.972  11.548
14978W        W78537  30.091   5.715  12.575
14979W        W78538  32.440  13.322  14.285
14980W        W78539   8.834  12.680  14.288
14981W        W78540  44.967  37.940   0.330
14982W        W78541  30.069   2.808   2.291
14983W        W78542  40.920  41.461   2.740
14984W        W78543   9.731  35.388  12.880
14985W        W78544  31.637  34.958  14.418
14986W        W78545  16.798   3.722   3.282
14987W        W78546  26.672  17.288   4.663
14988W        W78547  11.696   0.954  11.548
14989W        W78548  42.959  43.920   1.304
14990W        W78549  23.082  10.724   4.282
14991W        W78550  20.614  28.541   3.648
14992W        W78551  39.443   4.216  11.957
14993W        W78552   0.747  41.441  12.422
14994W        W78553   9.792  42.901  13.535
14995W        W78554   2.428  22.540   2.688
14996W        W78555   5.243  32.485   4.829
14997W        W78556   6.706  42.337   3.795
14998W        W78557   3.750  32.901   0.867
14999W        W78558  37.346  14.209  12.553
15000W        W78559   5.366  27.155  13.406
15001W        W78560  16.764  36.942  14.032
15002W        W78561   9.661  44.332  13.421
15003W        W78562  13.604  34.017  13.392
15004W        W78563  35.084  44.867   1.355
15005W        W78564  24.195  17.558  13.918
15006W        W78565   8.891   3.328  11.103
15007W        W78566  35.458  32.025  11.554
15008W        W78567   0.937  41.535   1.226
15009W        W78568  21.064   2.377  12.364
15010W        W78569  32.518  10.176   2.209
15011W        W78570   2.928  15.311  14.934
15012W        W78571  21.052  36.491  10.599
15013W        W78572  27.147  26.081  13.044
15014W        W78573  13.699   7.810   4.283
15015W        W78574  41.305  34.595   0.804
15016W        W78575  21.203  15.319  13.991
15017W        W78576  38.398  12.823   3.767
15018W        W78577  13.607   8.901   3.822
15019W        W78578  33.927  35.471  13.804
15020W        W78579  29.101   6.353   3.671
15021W        W78580   1.913  16.166   0.952
15022W        W78581  21.225   2.387   0.467
15023W        W78582   7.784   2.444   0.277
15024W        W78583   6.727  18.587   4.228
15025W        W78584   4.305  39.413  12.407
15026W        W78585   8.836   3.724   3.348
15027W        W78586  10.367  29.480   5.216
15028W        W78587   4.739  43.500   0.329
15029W        W78588  21.130  27.993  12.413
15030W        W78589  11.310  16.317  10.488
15031W        W78590  40.885   5.818   3.287
15032W        W78591   3.317  31.980  12.445
15033W        W78592  32.026  17.162  14.488
15034W        W78593  44.331  41.464   3.361
15035W        W78594  42.032  31.128  12.853
15036W        W78595   1.355  18.677  12.565
15037W        W78596   5.719  40.948   3.199
15038W        W78597  34.984  26.951  13.819
15039W        W78598  32.924   5.397  11.012
15040W        W78599  23.603  24.031  11.408
15041W        W78600  18.062  25.094  13.018
15042W        W78601  25.992  16.261   1.318
15043W        W78602  25.566  30.478  14.362
15044W        W78603  21.194  18.786   1.359
15045W        W78604  38.053  17.679   2.362
15046W        W78605  29.624  38.837   1.757
15047W        W78606  43.460  41.328   9.925
15048W        W78607  38.386  10.293   4.302
15049W        W78608   9.728  26.952   2.183
15050W        W78609  24.644  13.617  12.392
15051W        W78610  31.521  31.080  14.947
15052W        W78611  24.561   9.824   1.344
15053W        W78612  35.386  14.822   2.781
15054W        W78613   8.346  29.645   3.344
15055W        W78614  44.428  39.402  12.342
15056W        W78615  13.731  14.150   1.729
15057W        W78616   8.347   8.784  13.348
15058W        W78617  33.922  19.710   2.326
15059W        W78618  14.120  36.473  14.919
15060W        W78619  39.887   4.931  14.274
15061W        W78620  35.502   0.766  13.981
15062W        W78621  39.370  15.704  13.868
15063W        W78622   5.801  10.184   2.371
15064W        W78623  28.024  17.104  10.916
15065W        W78624  22.721  12.792   4.198
15066W        W78625  31.963  21.169  11.521
15067W        W78626   1.895  23.079   1.874
15068W        W78627  21.149   7.912   0.310
15069W        W78628  20.210  19.770  12.560
15070W        W78629  42.963   1.453  11.398
15071W        W78630  11.223  25.970  13.865
15072W        W78631  32.055  27.949  10.451
15073W        W78632   6.901  16.570  10.590
15074W        W78633  29.431  41.881   0.864
15075W        W78634  11.857   0.398  10.500
15076W        W78635  42.428  44.993  10.460
15077W        W78636  43.482  10.671  11.510
15078W        W78637  14.180  29.618  12.896
15079W        W78638   3.443  42.945  12.494
15080W        W78639   5.318  18.190  14.286
15081W        W78640  21.253  33.487   2.390
15082W        W78641  12.181  33.426   4.680
15083W        W78642  25.116  43.850  12.417
15084W        W78643  34.497  12.235  12.549
15085W        W78644  28.057  30.093  13.813
15086W        W78645  11.681  19.680   5.280
15087W        W78646   0.491  21.260   2.777
15088W        W78647  10.358  42.960   4.240
15089W        W78648  33.616   7.288   0.276
15090W        W78649  24.707  40.342  13.346
15091W        W78650  33.047  40.905  12.426
15092W        W78651  15.149  34.597   3.277
15093W        W78652  10.309  27.622   1.877
15094W        W78653  15.195  44.956   4.275
15095W        W78654  33.586   1.927   4.653
15096W        W78655  33.485   2.254  12.519
15097W        W78656   2.760  31.022   3.765
15098W        W78657   7.348  33.590  10.588
15099W        W78658   9.644  23.234  11.396
15100W        W78659  30.998  25.495  14.427
15101W        W78660   1.330  23.535   0.795
15102W        W78661  20.732   8.777   0.731
15103W        W78662  26.080  24.040   2.220
15104W        W78663  25.132   1.954  12.025
15105W        W78664   6.818   1.915   2.893
15106W        W78665  29.427  15.582   0.759
15107W        W78666  23.158  23.662  10.450
15108W        W78667  17.252   1.369   2.804
15109W        W78668  14.793  39.456   0.937
15110W        W78669  30.580  27.468   2.309
15111W        W78670  17.740  19.729  12.440
15112W        W78671  17.689  18.777  13.925
15113W        W78672  28.635  38.886  11.901
15114W        W78673  22.586  26.473   1.727
15115W        W78674  31.138  20.537   0.352
15116W        W78675  13.843  26.144   2.290
15117W        W78676   5.693  43.795  13.385
15118W        W78677  24.215  15.733   4.332
15119W        W78678  31.016  26.526  11.605
15120W        W78679   3.793  33.085  11.538
15121W        W78680  19.043   7.826   2.243
15122W        W78681  24.144   1.779  10.525
15123W        W78682  36.080   2.786  11.461
15124W        W78683  34.400  42.474   4.207
15125W        W78684   4.905   1.778   1.832
15126W        W78685  38.556   2.771  13.914
15127W        W78686  15.669  37.352   0.431
15128W        W78687  13.117   5.810  13.534
15129W        W78688  24.524  15.083  12.974
15130W        W78689  11.642   9.219  10.512
15131W        W78690  29.517  37.342   1.910
15132W        W78691  18.172  43.464   4.339
15133W        W78692  10.768   6.841  14.483
15134W        W78693  25.113  26.968  10.430
15135W        W78694  19.613  34.905   1.378
15136W        W78695  24.643  22.604   0.895
15137W        W78696  36.858  41.926   0.303
15138W        W78697  11.748  32.106  12.484
15139W        W78698  10.314  16.647  11.095
15140W        W78699  24.116  30.985   3.347
15141W        W78700  33.913  41.400  13.857
15142W        W78701  16.271  22.115   1.889
15143W        W78702  44.793  21.082   4.140
15144W        W78703  25.114  42.855   0.820
15145W        W78704   9.189  15.219  14.029
15146W        W78705  21.582  26.696   3.766
15147W        W78706  16.196  31.498   4.613
15148W        W78707  38.560  27.127  13.350
15149W        W78708  20.755   5.211   0.771
15150W        W78709  24.010  35.012   0.431
15151W        W78710  12.829  36.540  13.801
15152W        W78711  32.926  26.701  12.973
15153W        W78712   9.756  44.959   4.207
15154W        W78713  18.573  39.883   4.167
15155W        W78714   0.745  33.923   4.351
15156W        W78715   5.840  17.677   2.687
15157W        W78716  18.105  29.650   2.331
15158W        W78717  36.346  29.114   2.793
15159W        W78718  33.026  23.518   4.668
15160W        W78719   3.861  25.142   5.267
15161W        W78720   0.869  37.449   1.904
15162W        W78721  24.514  22.148  13.497
15163W        W78722   8.196  27.576   0.849
15164W        W78723   6.315  42.935  12.497
15165W        W78724  44.862  30.974   4.837
15166W        W78725  23.697  29.129  11.449
15167W        W78726  27.580  32.397   4.623
15168W        W78727  41.995  30.116  14.355
15169W        W78728  32.511   0.398   3.280
15170W        W78729  34.390  17.743  11.542
15171W        W78730  33.904  22.095   0.874
15172W        W78731  18.635  23.730  12.343
15173W        W78732  13.277  13.346   4.783
15174W        W78733  20.083   1.911  14.329
15175W        W78734  30.114  25.571  13.398
15176W        W78735  41.494  18.685   4.812
15177W        W78736   4.848  34.388   3.170
15178W        W78737  27.682  29.525  14.910
15179W        W78738  15.791  36.082   1.838
15180W        W78739  28.576  44.449  12.400
15181W        W78740  14.158   7.855   4.197
15182W        W78741  32.054  37.033   2.225
15183W        W78742  16.576  33.608   2.201
15184W        W78743  28.460   9.765   3.165
15185W        W78744  40.438   2.880   2.305
15186W        W78745  21.126  29.560  13.793
15187W        W78746  20.077   7.832  12.860
15188W        W78747  37.429   3.264   0.826
15189W        W78748  20.725   9.219   4.135
15190W        W78749  11.191  18.268   4.299
15191W        W78750  34.930  22.742  12.354
15192W        W78751  41.303  33.472  10.572
15193W        W78752  31.074  34.449   4.163
15194W        W78753  43.991  36.444  14.879
15195W        W78754   9.858  43.341  13.018
15196W        W78755  31.417   1.942  13.927
15197W        W78756  18.566  25.483  13.035
15198W        W78757  38.474   6.786   0.286
15199W        W78758  20.547  24.604  11.871
15200W        W78759  30.913   3.852   2.826
15201W        W78760  40.889  11.245   1.414
15202W        W78761  33.029   9.885  13.393
15203W        W78762  42.381   8.822  14.778
15204W        W78763  18.678  33.940  14.780
15205W        W78764  28.487  38.062  14.442
15206W        W78765  31.007   3.885  14.988
15207W        W78766  33.897   0.808  11.053
15208W        W78767   9.237  24.109  11.860
15209W        W78768  27.485   1.429   2.856
15210W        W78769   6.787  18.551   4.838
15211W        W78770   7.221  38.901  10.537
15212W        W78771  16.678  30.585   1.274
15213W        W78772  29.125  40.019   1.868
15214W        W78773  12.745  22.668  11.502
15215W        W78774  25.063   0.313  12.068
15216W        W78775   0.287  43.904  12.033
15217W        W78776  24.211   4.314  13.364
15218W        W78777  38.925  40.958   1.257
15219W        W78778  31.942  31.905  14.956
15220W        W78779  31.928  26.095  10.438
15221W        W78780  24.645   9.159  14.445
15222W        W78781   0.409  37.859   2.759
15223W        W78782   0.972   3.837   3.314
15224W        W78783  28.030  31.440   2.868
15225W        W78784   5.862  23.140  13.842
15226W        W78785  41.922  18.699  10.899
15227W        W78786  42.976  34.983  10.448
15228W        W78787  28.003  39.974   3.637
15229W        W78788  30.462  37.884  11.898
15230W        W78789  26.532  44.956   4.680
15231W        W78790  24.666  13.266   5.315
15232W        W78791   0.816  35.527  10.574
15233W        W78792  25.579   2.333  11.048
15234W        W78793  44.885  41.002  13.931
15235W        W78794  17.071  29.560  11.980
15236W        W78795  33.026   1.342   0.827
15237W        W78796  39.012  13.674   0.408
15238W        W78797  16.678   6.423   2.687
15239W        W78798  39.332  38.902   4.239
15240W        W78799  35.020  31.967   2.779
15241W        W78800  12.736   1.324   2.370
15242W        W78801  26.161  15.112   0.398
15243W        W78802   6.714  16.654  12.064
15244W        W78803   5.697  19.579  14.445
15245W        W78804  28.134  10.677   2.742
15246W        W78805  37.934  11.835   0.263
15247W        W78806  16.703  22.541   2.894
15248W        W78807  25.970  12.219  12.557
15249W        W78808   7.204  37.834  14.303
15250W        W78809  43.287  37.028  14.841
15251W        W78810  33.980  31.972  11.078
15252W        W78811   6.292   7.906   3.745
15253W        W78812  25.666  24.144   0.462
15254W        W78813   7.206   4.880   0.769
15255W        W78814  21.679  18.266  10.427
15256W        W78815  15.257   1.821   4.663
15257W        W78816  16.122  26.633  10.115
15258W        W78817  44.483  36.912   1.297
15259W        W78818  10.342  12.138   5.670
15260W        W78819  35.072  26.154  12.890
15261W        W78820  44.898  36.565   2.352
15262W        W78821  19.705  28.452  13.977
15263W        W78822   2.468  25.628   4.335
15264W        W78823  18.699   9.778  14.975
15265W        W78824   7.265  36.570  10.417
15266W        W78825  33.110  15.104  13.412
15267W        W78826  15.647   4.321   0.749
15268W        W78827  11.227   3.382  14.768
15269W        W78828   6.863  33.108  10.503
15270W        W78829  27.008  36.957   4.681
15271W        W78830   0.929  44.423   2.662
15272W        W78831  18.271  19.256   1.786
15273W        W78832   6.292  22.533  14.937
15274W        W78833  35.445  43.288  10.495
15275W        W78834  23.611   4.410   0.333
15276W        W78835  31.109   3.338   4.253
15277W        W78836  26.027   0.886  10.537
15278W        W78837   8.657  36.351   2.815
15279W        W78838  23.180  41.985   4.803
15280W        W78839  42.974   3.913   4.747
15281W        W78840  44.442  19.714   4.187
15282W        W78841  15.622   2.826   3.711
15283W        W78842  24.216  27.526   3.724
15284W        W78843   6.299  36.376   1.930
15285W        W78844  43.344   5.688   0.409
15286W        W78845  21.573  40.317   4.268
15287W        W78846  13.268   2.927   1.222
15288W        W78847  14.669   7.216   1.253
15289W        W78848  23.110  39.438  13.501
15290W        W78849  31.152  29.028   4.766
15291W        W78850   4.329  32.406  10.458
15292W        W78851  10.220   1.361   4.637
15293W        W78852  35.917  11.719   4.764
15294W        W78853  15.776   1.919  14.438
15295W        W78854  14.319   6.788  12.910
15296W        W78855   7.783  16.762   4.751
15297W        W78856  21.166   2.280  14.896
15298W        W78857  30.514  29.028   2.356
15299W        W78858  12.183  27.494  10.923
15300W        W78859  16.796  16.291  14.429
15301W        W78860  30.162  31.001   2.847
15302W        W78861   5.821  21.067  14.305
15303W        W78862  11.234  20.028   0.760
15304W        W78863  29.632  16.153  12.387
15305W        W78864  15.122  35.471   1.377
15306W        W78865  23.996  14.176  11.905
15307W        W78866  31.037   7.793  12.951
15308W        W78867   7.733  18.241   0.452
15309W        W78868   0.248  10.186  11.120
15310W        W78869  10.784   2.427   3.821
15311W        W78870  20.177  35.005  11.487
15312W        W78871  35.004  27.075   1.274
15313W        W78872  37.048  37.999   3.324
15314W        W78873  28.490   1.371  12.553
15315W        W78874  20.746  42.928  12.915
15316W        W78875  13.312  39.833  14.000
15317W        W78876  18.635   0.249  12.913
15318W        W78877  13.127  33.517  13.030
15319W        W78878  23.222   2.747  12.045
15320W        W78879  35.892  43.490  12.072
15321W        W78880  24.535   9.650   3.305
15322W        W78881  20.178   5.205  14.351
15323W        W78882  15.154  25.638  13.523
15324W        W78883  32.406   5.729   0.786
15325W        W78884  37.914   8.717   0.255
15326W        W78885  24.660  41.952   1.262
15327W        W78886  19.579  40.545   2.303
15328W        W78887  17.656  42.869   0.311
15329W        W78888  31.945  14.339   2.841
15330W        W78889  44.402  31.099  10.417
15331W        W78890  40.434   3.216   2.391
15332W        W78891  25.655  21.516   2.729
15333W        W78892   1.453  28.077  12.063
15334W        W78893  26.977  41.786  14.029
15335W        W78894  15.224  21.177  13.977
15336W        W78895  36.900  23.609   3.804
15337W        W78896   2.841  39.467   4.823
15338W        W78897   2.335  19.612  13.504
15339W        W78898  14.104  17.225   1.298
15340W        W78899  20.181  19.123  12.841
15341W        W78900  19.191   4.765  10.902
15342W        W78901  14.155   0.467  12.892
15343W        W78902  18.128  22.172   3.829
15344W        W78903   2.229  18.680  14.979
15345W        W78904  23.540  37.523   0.868
15346W        W78905  16.605  19.061   1.695
15347W        W78906  31.491   4.725  13.875
15348W        W78907   2.368   1.748  10.586
15349W        W78908   9.178   3.241   1.443
15350W        W78909  11.171  17.800   1.792
15351W        W78910  29.429  10.220   4.258
15352W        W78911  30.641  21.712   0.729
15353W        W78912  31.037   9.780   1.875
15354W        W78913  22.249  12.148  10.009
15355W        W78914  22.737  16.235  11.473
15356W        W78915  19.749  23.143  13.458
15357W        W78916  40.388  25.015   2.870
15358W        W78917  21.082   3.443  12.856
15359W        W78918   2.270   5.316   4.341
15360W        W78919   5.245  23.732   0.910
15361W        W78920  43.993   8.357  14.312
15362W        W78921  28.073  31.455   4.641
15363W        W78922  44.435  27.100  11.389
15364W        W78923  14.826   8.390   2.185
15365W        W78924  11.748  32.593   4.164
15366W        W78925   4.735  19.688  12.436
15367W        W78926  11.859   6.917   3.736
15368W        W78927  43.905  39.541  12.480
15369W        W78928   3.276  43.963  13.982
15370W        W78929  34.431  33.128  12.030
15371W        W78930   8.855  28.511  10.931
15372W        W78931  35.563  17.132   2.874
15373W        W78932   1.864  25.617   1.394
15374W        W78933  25.164   5.749  13.900
15375W        W78934   5.928  34.400   1.882
15376W        W78935  39.963  11.278   4.150
15377W        W78936  44.309  30.610  11.051
15378W        W78937   7.196  14.189   3.634
15379W        W78938  39.865  24.689  13.043
15380W        W78939   7.877  26.963   0.919
15381W        W78940  40.022   3.256  12.349
15382W        W78941   0.885   3.295  12.912
15383W        W78942  19.083  41.855   4.310
15384W        W78943  17.188  39.040  11.998
15385W        W78944  37.545   3.889  10.962
15386W        W78945  35.464  29.640   3.387
15387W        W78946  18.743   0.844  10.919
15388W        W78947   1.369  39.389   2.699
15389W        W78948  10.251  24.047   2.672
15390W        W78949  42.460  32.545  12.436
15391W        W78950  18.736  28.675   3.813
15392W        W78951  33.987  23.527  11.909
15393W        W78952  15.737  43.012  12.063
15394W        W78953  16.073   9.216   0.249
15395W        W78954  42.996  29.976   0.464
15396W        W78955  24.688   1.734   1.893
15397W        W78956  34.486  12.772  14.494
15398W        W78957  35.520  32.603  13.844
15399W        W78958  33.611  11.841   2.803
15400W        W78959  19.668  21.062   0.342
15401W        W78960  27.493  35.547  10.459
15402W        W78961  24.592   7.319   4.783
15403W        W78962  36.937  25.108   1.712
15404W        W78963  24.061  16.287  13.525
15405W        W78964  41.516  15.629   4.812
15406W        W78965  31.016  21.743  11.562
15407W        W78966  22.080  22.084   1.817
15408W        W78967  15.280  36.057  13.451
15409W        W78968  21.099  39.947   2.755
15410W        W78969  11.200  35.862   3.302
15411W        W78970  19.734  12.222   1.928
15412W        W78971  30.451   6.192  13.883
15413W        W78972  14.125  18.713   3.339
15414W        W78973  35.013   0.273  14.785
15415W        W78974   6.209  20.591   1.438
15416W        W78975  38.033  27.941  11.412
15417W        W78976  27.112  31.429   2.373
15418W        W78977   4.441  40.948   3.632
15419W        W78978   5.333  20.747  12.472
15420W        W78979  33.049   2.295   2.271
15421W        W78980   6.718  31.920   2.282
15422W        W78981  35.084  41.844  12.472
15423W        W78982  41.877  21.213  13.856
15424W        W78983  32.487  34.089   2.776
15425W        W78984   9.298   1.473   4.350
15426W        W78985  37.075  25.032   3.217
15427W        W78986  42.986  10.685  14.025
15428W        W78987  24.709  22.664   3.281
15429W        W78988  29.529   5.315   4.705
15430W        W78989  15.142  32.108   3.207
15431W        W78990  27.037  10.767  12.901
15432W        W78991  38.479   0.982   1.405
15433W        W78992  19.162  28.000  14.400
15434W        W78993  36.391   6.767  10.989
15435W        W78994  30.594  37.573  11.538
15436W        W78995  30.036  39.962   1.415
15437W        W78996  27.682  23.505   4.694
15438W        W78997  35.485   9.206   1.411
15439W        W78998  36.518  13.230   3.820
15440W        W78999  30.103  34.019  14.982
15441W        W79000   6.232  11.799  14.780
15442W        W79001  10.727  17.558   2.802
15443W        W79002  28.948  15.298  11.598
15444W        W79003   0.428  27.045  10.458
15445W        W79004  41.017   7.856   3.762
15446W        W79005  22.716  32.390   1.272
15447W        W79006  13.152  26.149   0.256
15448W        W79007  13.769  23.676   2.664
15449W        W79008  24.213  30.054   4.163
15450W        W79009  30.079  19.611   4.656
15451W        W79010   9.737  30.911  10.440
15452W        W79011  39.383  43.483  13.399
15453W        W79012  43.329  16.185   1.921
15454W        W79013  28.940  22.248  14.329
15455W        W79014  34.929  40.026   3.325
15456W        W79015  21.147  17.796   4.681
15457W        W79016   7.692  12.783  12.392
15458W        W79017   2.461   2.913  11.899
15459W        W79018  29.127   0.301   1.352
15460W        W79019  23.716   1.263  13.427
15461W        W79020  13.599   2.899  14.973
15462W        W79021  15.116  33.999  12.488
15463W        W79022  35.095  40.547  14.931
15464W        W79023   4.361  17.063   2.283
15465W        W79024  20.131  30.654  14.511
15466W        W79025   0.959   6.895   4.749
15467W        W79026  20.258  40.982   3.315
15468W        W79027  16.664  19.160   1.431
15469W        W79028   5.234  24.061   3.176
15470W        W79029   5.395  35.912  11.423
15471W        W79030  15.765   9.728  14.482
15472W        W79031  12.193  24.629   4.203
15473W        W79032  38.051  14.691   0.755
15474W        W79033  16.096  24.652   5.151
15475W        W79034  36.478  21.113  14.999
15476W        W79035  21.080  27.448   0.272
15477W        W79036  24.228  42.391  10.910
15478W        W79037   1.789   2.455   0.728
15479W        W79038  43.302  19.146  12.464
15480W        W79039   6.243  34.509  12.873
15481W        W79040  22.119  18.587   1.807
15482W        W79041  28.176  16.147  14.453
15483W        W79042   4.358  38.361   2.321
15484W        W79043  34.548  38.562  10.462
15485W        W79044  31.930  29.137   4.804
15486W        W79045  33.594   2.925  11.047
15487W        W79046   6.717  17.684   3.756
15488W        W79047  29.627  20.199  12.446
15489W        W79048  39.440  15.257  11.489
15490W        W79049   7.692  25.214   3.300
15491W        W79050  30.056  27.077   1.374
15492W        W79051  17.080  25.020  11.045
15493W        W79052  26.019  37.372   2.395
15494W        W79053   5.438   8.860  11.947
15495W        W79054  12.649  16.604   2.836
15496W        W79055  39.012  25.208  14.887
15497W        W79056  17.793  42.518  14.850
15498W        W79057  22.048  38.509  10.904
15499W        W79058  35.868  16.108   2.365
15500W        W79059  41.489  22.069  11.032
15501W        W79060   0.784  15.823   5.213
15502W        W79061  29.124  28.616   4.141
15503W        W79062  41.960  23.228   0.432
15504W        W79063  22.130   0.912   3.652
15505W        W79064  43.940  40.495   3.206
15506W        W79065   5.930  14.214  13.992
15507W        W79066   9.318  13.741   4.146
15508W        W79067  42.799  39.875  12.007
15509W        W79068  26.703  31.501   3.348
15510W        W79069  22.731  36.937   0.296
15511W        W79070  24.226   3.244  10.962
15512W        W79071  40.530  21.658  12.363
15513W        W79072  27.956   0.887   0.247
15514W        W79073  40.549  42.883  14.478
15515W        W79074  17.689   4.886  13.480
15516W        W79075  21.521  35.897   4.222
15517W        W79076  44.987  44.426  10.418
15518W        W79077  41.795   9.675  14.477
15519W        W79078  16.601  37.068  10.979
15520W        W79079  12.255  25.526   0.870
15521W        W79080  24.112  31.137  12.881
15522W        W79081  19.581  27.603   3.728
15523W        W79082  36.910  33.507  13.407
15524W        W79083  11.361   7.316   5.250
15525W        W79084  39.501  14.711   0.745
15526W        W79085   5.752   4.450  10.903
15527W        W79086   1.947   9.149   4.127
15528W        W79087   8.703  36.399  14.859
15529W        W79088   0.871  27.965   1.333
15530W        W79089  23.548  18.063   1.340
15531W        W79090  15.632  14.171   2.728
15532W        W79091   7.900  25.634  12.348
15533W        W79092   5.777   3.221  13.955
15534W        W79093   0.261  41.423  13.408
15535W        W79094  29.428  43.481  10.464
15536W        W79095  41.858  32.919  11.392
15537W        W79096  16.184  36.977   1.239
15538W        W79097   6.427   9.801  11.548
15539W        W79098  14.595  41.905   3.185
15540W        W79099  27.481   9.265   2.309
15541W        W79100  24.149  12.625  14.467
15542W        W79101  29.505  18.551   2.692
15543W        W79102   3.778  22.012   2.198
15544W        W79103   6.344  17.141  13.464
15545W        W79104  12.136   3.948  12.892
15546W        W79105  21.251  18.701   0.763
15547W        W79106  20.229   5.416   4.809
15548W        W79107  18.593  16.243  11.090
15549W        W79108  37.431  18.743  11.374
15550W        W79109  20.100  18.756   3.178
15551W        W79110  33.465  36.955  11.961
15552W        W79111   3.339  19.064  11.952
15553W        W79112   2.307  13.177   3.256
15554W        W79113  13.668  16.793   3.238
15555W        W79114  25.709   8.230  13.497
15556W        W79115   5.393  25.640   0.741
15557W        W79116  34.552  15.675  14.918
15558W        W79117  30.928   7.674   2.229
15559W        W79118   4.301  38.863   4.719
15560W        W79119   1.335   3.820  13.010
15561W        W79120  34.892   3.229  10.497
15562W        W79121  15.799  43.383   2.371
15563W        W79122  30.506  34.552   4.115
15564W        W79123  35.016  22.181   3.783
15565W        W79124  14.273   1.962   1.234
15566W        W79125  21.673  36.913  14.348
15567W        W79126  11.170  36.506   0.328
15568W        W79127  30.137  43.338   1.438
15569W        W79128  16.686  40.388   2.275
15570W        W79129  25.145  38.849   2.365
15571W        W79130   1.395   3.448  10.098
15572W        W79131  20.705  42.326  14.445
15573W        W79132  11.644  12.303   3.826
15574W        W79133  44.494  42.961   1.362
15575W        W79134   9.848  13.307  13.470
15576W        W79135  19.135  25.569   4.302
15577W        W79136  33.567  23.599   5.158
15578W        W79137   0.355   9.379  14.978
15579W        W79138  41.537  43.999   4.257
15580W        W79139  29.148  43.473  12.459
15581W        W79140  41.499   9.829  14.889
15582W        W79141  11.674  27.554  12.532
15583W        W79142  40.871  24.563   2.247
15584W        W79143  29.015   1.316   3.265
15585W        W79144  23.567   8.690   2.388
15586W        W79145  30.996  18.594  10.507
15587W        W79146  35.925   7.193  10.437
15588W        W79147   0.806  38.488   4.816
15589W        W79148  43.814  33.876  14.417
15590W        W79149   3.912  37.343   2.380
15591W        W79150  43.902  22.583  12.829
15592W        W79151  34.373  25.654  13.403
15593W        W79152   1.474  26.135   2.367
15594W        W79153  35.888   3.397   3.345
15595W        W79154  14.103  25.598   5.090
15596W        W79155   4.878  28.060   4.782
15597W        W79156  39.384  41.315   1.313
15598W        W79157  31.616  32.583  11.858
15599W        W79158  11.768  43.428  11.110
15600W        W79159  20.635   9.352   0.395
15601W        W79160  17.293  14.280  11.997
15602W        W79161  22.638  37.443  13.848
15603W        W79162  34.985  22.687  12.889
15604W        W79163  25.032  34.996  10.599
15605W        W79164  39.399  20.637   2.210
15606W        W79165  33.548   4.781   5.192
15607W        W79166  19.773  34.972   0.732
15608W        W79167  18.131  13.603  14.371
15609W        W79168   5.427  10.344   3.147
15610W        W79169  43.382  34.109   2.275
15611W        W79170  33.483  24.526   2.357
15612W        W79171   6.261   5.242  10.553
15613W        W79172  42.504  15.085  12.074
15614W        W79173  17.100  31.142  13.836
15615W        W79174  44.823  10.307   0.273
15616W        W79175  15.323  36.977  13.474
15617W        W79176  42.951  31.059   0.266
15618W        W79177  20.157  21.566   3.225
15619W        W79178  31.640   4.351   4.811
15620W        W79179   5.712   5.791  13.399
15621W        W79180  12.653   0.898   2.887
15622W        W79181  37.435  15.252   3.843
15623W        W79182  28.588   0.389   2.890
15624W        W79183   1.319   3.453   2.892
15625W        W79184  36.456  28.159  14.772
15626W        W79185  13.664  44.917   1.327
15627W        W79186  40.987  25.585   4.256
15628W        W79187  11.229   2.923  14.777
15629W        W79188   9.837  12.211   2.729
15630W        W79189  43.393   1.458   2.259
15631W        W79190  39.521  21.209   0.947
15632W        W79191  29.102  21.743  13.421
15633W        W79192  11.806  36.586  12.080
15634W        W79193   4.373  16.219  14.374
15635W        W79194  30.929   8.845   9.959
15636W        W79195   9.210  42.440   2.181
15637W        W79196  15.697  39.497  14.997
15638W        W79197  29.174   1.280  11.602
15639W        W79198  44.997   8.815   3.822
15640W        W79199  29.112  42.300   2.315
15641W        W79200   7.823  23.641   4.675
15642W        W79201  20.149  20.207   2.813
15643W        W79202  31.151  36.532  11.528
15644W        W79203  41.002  19.170  14.813
15645W        W79204  22.169  43.857   3.828
15646W        W79205  28.580  40.514  12.948
15647W        W79206  13.157  29.561  12.487
15648W        W79207  42.436   7.243  11.005
15649W        W79208   7.720   3.449  13.976
15650W        W79209  22.030  14.278  12.373
15651W        W79210  28.995  27.943  13.313
15652W        W79211  15.162  21.701   0.805
15653W        W79212  42.792  32.525  12.886
15654W        W79213   6.396   0.983  12.833
15655W        W79214  13.267  41.832  14.302
15656W        W79215  33.620  39.872   2.408
15657W        W79216  39.543   1.341   2.806
15658W        W79217   4.352   6.267  11.094
15659W        W79218   5.363  39.879   1.436
15660W        W79219  25.641   6.807   1.778
15661W        W79220  28.932  19.251   4.276
15662W        W79221  33.578  21.065  10.636
15663W        W79222  11.145  29.001   1.929
15664W        W79223   1.273   1.271  12.355
15665W        W79224   7.345  11.315   0.394
15666W        W79225   2.283  12.329   4.616
15667W        W79226  44.263  12.765  12.076
15668W        W79227  37.048  35.960  13.032
15669W        W79228  42.789  29.129   4.269
15670W        W79229  42.360  15.636  12.403
15671W        W79230  29.472   8.700  14.345
15672W        W79231  30.980  43.270  13.002
15673W        W79232  24.218  28.979  14.358
15674W        W79233  32.580   2.739   2.707
15675W        W79234  19.761  32.431   4.628
15676W        W79235  15.686  10.808  12.878
15677W        W79236   2.309  15.711  10.567
15678W        W79237  41.362  44.795  12.883
15679W        W79238  25.069  40.405   3.278
15680W        W79239   4.703   0.917   2.235
15681W        W79240   1.781   6.805  10.571
15682W        W79241   8.888   3.441  12.850
15683W        W79242  31.944  31.472   4.202
15684W        W79243  29.651  16.314   0.783
15685W        W79244  34.434   4.766  13.052
15686W        W79245  14.178  12.334   2.316
15687W        W79246  20.745   2.832   2.727
15688W        W79247   2.452  25.711  13.377
15689W        W79248  21.711  23.538   1.314
15690W        W79249  39.856  29.171  12.563
15691W        W79250   9.890  32.899   4.786
15692W        W79251  19.759  42.326   4.601
15693W        W79252  20.671  21.141  10.983
15694W        W79253  35.359  20.734   4.121
15695W        W79254  35.435  42.805   3.235
15696W        W79255  21.712   0.976  14.332
15697W        W79256  20.684  20.665   4.158
15698W        W79257  37.838  20.210   1.899
15699W        W79258  26.080  16.679   0.464
15700W        W79259  11.798   3.381   4.135
15701W        W79260  18.784  42.304   1.413
15702W        W79261  39.507  34.905  12.444
15703W        W79262  16.136  31.474  14.945
15704W        W79263  42.498  11.341  14.312
15705W        W79264  31.040  41.517   0.364
15706W        W79265   0.404  42.514  14.836
15707W        W79266  17.734   8.208  10.428
15708W        W79267  30.922  42.498  13.430
15709W        W79268  29.601  36.897  10.418
15710W        W79269   1.289  44.261   3.249
15711W        W79270  44.949  33.391  10.040
15712W        W79271  34.965  24.179  14.301
15713W        W79272  19.283  24.582  13.340
15714W        W79273  18.093  32.464  10.946
15715W        W79274  29.961   1.859  11.097
15716W        W79275  28.984  24.630  10.435
15717W        W79276  41.865  30.994  11.455
15718W        W79277  17.771   6.262  14.872
15719W        W79278   2.725  44.989   3.689
15720W        W79279  42.007   7.374  13.056
15721W        W79280  15.150   4.224  14.362
15722W        W79281   0.251  11.267   2.283
15723W        W79282  26.043  37.048   1.733
15724W        W79283  38.504  28.031  11.442
15725W        W79284  32.074  35.443   4.750
15726W        W79285  41.514   2.279  11.055
15727W        W79286  35.050   5.743  12.463
15728W        W79287   0.784   5.255   2.251
15729W        W79288  25.489  24.226  10.639
15730W        W79289  41.941   0.368   0.315
15731W        W79290  26.037  34.102   0.855
15732W        W79291   5.439  21.179   0.804
15733W        W79292  40.941   7.296  14.499
15734W        W79293  44.825   4.263   3.360
15735W        W79294  32.978  36.514  13.527
15736W        W79295  36.435  19.098   0.922
15737W        W79296  20.569  22.024   4.684
15738W        W79297   8.294   6.369   4.138
15739W        W79298  43.819  24.692   3.200
15740W        W79299  13.318  37.066   5.299
15741W        W79300  32.430   5.700   0.364
15742W        W79301   9.153   9.731   3.219
15743W        W79302  13.611  14.752   3.346
15744W        W79303   6.916  16.135  14.994
15745W        W79304  42.387  27.448  11.609
15746W        W79305  41.417  43.380   4.262
15747W        W79306  35.408  27.542   1.378
15748W        W79307  15.806  33.459   4.324
15749W        W79308   7.295  21.749   0.311
15750W        W79309  10.837  22.529   4.310
15751W        W79310  30.953  38.068  12.978
15752W        W79311   2.440  32.079  14.944
15753W        W79312   2.862  44.955   1.353
15754W        W79313  43.479   8.684   4.286
15755W        W79314  42.407  20.037  11.872
15756W        W79315   3.214   3.843  12.925
15757W        W79316  10.871  28.673  13.411
15758W        W79317   9.211  15.612   2.221
15759W        W79318  14.807  40.872   2.770
15760W        W79319   9.178   2.437  14.353
15761W        W79320  25.567  15.306  13.012
15762W        W79321  24.600  23.571   4.688
15763W        W79322  14.603  40.345   1.821
15764W        W79323  43.909  27.507   2.863
15765W        W79324  44.484  21.613   2.788
15766W        W79325  30.096  26.158  11.957
15767W        W79326   1.292  36.015  14.887
15768W        W79327  30.001  19.540  13.421
15769W        W79328   4.844  17.249  11.125
15770W        W79329  29.033  26.635  13.497
15771W        W79330  41.872  27.531  11.608
15772W        W79331  41.437  27.086  10.497
15773W        W79332   0.815   2.888   1.373
15774W        W79333   7.861  34.508  11.118
15775W        W79334  28.065  21.523   5.127
15776W        W79335  42.846   9.235   3.225
15777W        W79336  13.657  40.936  12.928
15778W        W79337  15.609   5.293  12.530
15779W        W79338  23.567  13.344   3.752
15780W        W79339   7.278  37.358   2.669
15781W        W79340  24.205  42.966   3.810
15782W        W79341  33.515  15.286  11.409
15783W        W79342  14.141  32.943  13.841
15784W        W79343  11.352  38.877  12.902
15785W        W79344   9.247  21.732  12.025
15786W        W79345  21.634  21.137   2.237
15787W        W79346  13.657  26.999  13.879
15788W        W79347  24.671  42.814  11.461
15789W        W79348  16.743  36.530  10.568
15790W        W79349  14.727   7.886  14.426
15791W        W79350  27.598  23.594  13.911
15792W        W79351   5.378  36.462   2.402
15793W        W79352  40.443  33.112   3.252
15794W        W79353  14.297  26.583  10.624
15795W        W79354  35.912  13.711   0.369
15796W        W79355  26.990  32.113  14.796
15797W        W79356   1.909  37.933  11.563
15798W        W79357   9.255  10.240  12.370
15799W        W79358  43.452  19.659  11.872
15800W        W79359  38.563  37.361  13.360
15801W        W79360  14.171  36.494  13.845
15802W        W79361  42.872  36.855   1.258
15803W        W79362  33.004  22.080   3.712
15804W        W79363  35.917  27.473   4.336
15805W        W79364  41.971  20.565  10.436
15806W        W79365  44.893   3.243   1.289
15807W        W79366  28.460  32.553   2.853
15808W        W79367  21.589  14.786   2.204
15809W        W79368  17.786  13.821  13.812
15810W        W79369  15.167   2.402   1.387
15811W        W79370   1.414  21.254   3.235
15812W        W79371  14.640  44.993   1.398
15813W        W79372  40.801  13.239   0.260
15814W        W79373  41.454  35.383   2.766
15815W        W79374  29.635  18.208  11.458
15816W        W79375  40.383  42.887   4.669
15817W        W79376  12.237  37.556   4.803
15818W        W79377  12.151  13.670   3.152
15819W        W79378  19.285  38.917  10.057
15820W        W79379  26.177   5.289   0.794
15821W        W79380  34.892   9.158   1.850
15822W        W79381   3.845  15.197  13.039
15823W        W79382  36.850   1.376  10.956
15824W        W79383  20.157  18.569  10.407
15825W        W79384  31.511  14.268  14.296
15826W        W79385   6.677  41.527   0.743
15827W        W79386  19.560  23.138  13.929
15828W        W79387  31.126  10.660  14.852
15829W        W79388   6.236  22.133   1.280
15830W        W79389  15.161  20.614   4.625
15831W        W79390  14.238   7.225  14.832
15832W        W79391  44.453   7.879   4.217
15833W        W79392   4.369   7.717   1.392
15834W        W79393  25.662   5.400   3.781
15835W        W79394  20.153   9.332  11.448
15836W        W79395  30.561  17.609   0.867
15837W        W79396   6.272  37.083  14.396
15838W        W79397  35.882  44.443   0.365
15839W        W79398  28.001   4.834   1.901
15840W        W79399  30.460  18.204   3.832
15841W        W79400  27.142  43.834  14.389
15842W        W79401  26.472  15.205  11.033
15843W        W79402  34.959   4.370  14.858
15844W        W79403  25.565  30.067  10.964
15845W        W79404  22.670  10.851   4.115
15846W        W79405   6.323  10.209  11.911
15847W        W79406  36.947  10.332   4.322
15848W        W79407   4.229  16.303   0.254
15849W        W79408  18.066  42.976  12.405
15850W        W79409  44.849  25.991   2.666
15851W        W79410  14.788  16.156  13.031
15852W        W79411   5.866  44.468   2.866
15853W        W79412  42.924   5.812   4.716
15854W        W79413  32.602  14.680  11.046
15855W        W79414  24.672  17.089   1.391
15856W        W79415  26.677  42.522   4.711
15857W        W79416  21.570  10.154  12.903
15858W        W79417  28.029  21.523   0.467
15859W        W79418  26.019   9.365   1.216
15860W        W79419  23.235   4.717  11.906
15861W        W79420  36.383  17.149   0.276
15862W        W79421   4.399  25.110  11.039
15863W        W79422  28.607   8.657   3.732
15864W        W79423   4.715  16.249  12.446
15865W        W79424  17.305  14.331   2.796
15866W        W79425   7.242  44.762   1.907
15867W        W79426  22.574  28.083  11.524
15868W        W79427   3.735  17.722   2.362
15869W        W79428  20.233  32.094   1.368
15870W        W79429  27.075  11.175   5.682
15871W        W79430  28.000  34.020   2.697
15872W        W79431  22.239  40.407   2.402
15873W        W79432   6.299  22.163   3.656
15874W        W79433  11.622  42.819  14.969
15875W        W79434  11.240   7.892  10.438
15876W        W79435  25.987  35.068  12.459
15877W        W79436  34.889  23.635   3.276
15878W        W79437  10.812  31.552  13.506
15879W        W79438  24.160  39.013  12.435
15880W        W79439  23.632  20.682  14.360
15881W        W79440  16.800  29.061  11.999
15882W        W79441  15.323   6.893   2.672
15883W        W79442   5.694   7.364   3.229
15884W        W79443  30.457  16.766  12.995
15885W        W79444   7.311  10.872   2.346
15886W        W79445  13.826  12.647   4.335
15887W        W79446  40.393   8.325   3.243
15888W        W79447  12.798  36.051   4.220
15889W        W79448  44.307   0.793  13.887
15890W        W79449  24.594   4.416   0.424
15891W        W79450  29.988  26.652   4.779
15892W        W79451  28.929  30.555   2.214
15893W        W79452  20.205   2.244   4.315
15894W        W79453  20.105  44.842   4.764
15895W        W79454   8.660  16.082  14.477
15896W        W79455  15.747  35.954   2.693
15897W        W79456  30.524  20.174   1.401
15898W        W79457   5.345  43.911  11.987
15899W        W79458  19.233  41.518  14.927
15900W        W79459   3.441  34.606  12.470
15901W        W79460  23.699  19.085   1.790
15902W        W79461  41.924   8.819   3.760
15903W        W79462   9.265  10.828   0.446
15904W        W79463   6.329  34.981  14.405
15905W        W79464  34.474  37.974   4.153
15906W        W79465  20.666  43.880   0.342
15907W        W79466  25.982  32.608   4.222
15908W        W79467   3.274   1.756   3.253
15909W        W79468  33.467   2.787   9.992
15910W        W79469  18.072  16.205   4.255
15911W        W79470  22.515  16.688  12.916
15912W        W79471  39.555   7.720   4.345
15913W        W79472  11.707   7.411  13.925
15914W        W79473  26.993   5.800   0.933
15915W        W79474  36.017  32.435  11.473
15916W        W79475  20.050  38.918   0.482
15917W        W79476  12.243  27.452   2.747
15918W        W79477  16.585  39.517   2.707
15919W        W79478  35.039   8.872   0.256
15920W        W79479  36.087  12.787  13.029
15921W        W79480  42.308  27.585  11.895
15922W        W79481  28.127  17.221  14.330
15923W        W79482  18.254  15.739   4.752
15924W        W79483   8.334  37.469   3.834
15925W        W79484  29.552  20.526  10.606
15926W        W79485  22.179  18.088  13.423
15927W        W79486  31.927   3.849   1.259
15928W        W79487  37.061  36.056   1.436
15929W        W79488  31.029  30.930  10.949
15930W        W79489  42.285  37.482  13.023
15931W        W79490  27.107  13.780   4.132
15932W        W79491  31.453   0.378   4.676
15933W        W79492  15.730  20.155   1.214
15934W        W79493  30.092  17.137   4.701
15935W        W79494  31.639  12.344   0.305
15936W        W79495  34.105  16.813   0.762
15937W        W79496  26.520  22.688  12.419
15938W        W79497  12.788   8.240   4.302
15939W        W79498  24.981  40.537   1.800
15940W        W79499   4.709  27.139   2.897
15941W        W79500  32.462   5.226   0.390
15942W        W79501  41.868  12.156  14.450
15943W        W79502  22.605   1.464   4.351
15944W        W79503  11.325  42.326   0.807
15945W        W79504  21.126   7.808  12.998
15946W        W79505  30.419  37.068  11.999
15947W        W79506  41.895  10.724  11.041
15948W        W79507   6.841   5.340   4.148
15949W        W79508   3.297  25.109   0.390
15950W        W79509  33.381  39.832  14.356
15951W        W79510  19.623  20.724  14.022
15952W        W79511  33.969  18.738  10.919
15953W        W79512  19.640   7.260  14.478
15954W        W79513  13.625  13.115   0.386
15955W        W79514  20.031  16.738   2.396
15956W        W79515  41.410  20.682  11.038
15957W        W79516  27.661  20.553   1.431
15958W        W79517  25.533  37.536  14.991
15959W        W79518  42.384  26.019  14.479
15960W        W79519  33.562  25.487  12.014
15961W        W79520  34.078  38.448  13.978
15962W        W79521  26.548   2.461   0.259
15963W        W79522   9.745  20.553   1.405
15964W        W79523  40.840  20.530  10.445
15965W        W79524   4.383  24.153  11.386
15966W        W79525  18.150  15.617   4.351
15967W        W79526  31.932  28.080   5.204
15968W        W79527  36.481  33.116   1.800
15969W        W79528   3.263  24.052  14.334
15970W        W79529  38.866  43.008  12.841
15971W        W79530  33.537   1.416   3.343
15972W        W79531  14.228  18.141   1.698
15973W        W79532  11.764  41.296  14.021
15974W        W79533   4.878  29.086  13.414
15975W        W79534  10.208  21.582   2.277
15976W        W79535   2.333  18.130  10.996
15977W        W79536  17.164  43.513  10.423
15978W        W79537  24.041  20.162  13.345
15979W        W79538  18.069  19.766  10.411
15980W        W79539  34.426  20.740   4.734
15981W        W79540   1.976  34.375  11.078
15982W        W79541  29.163  29.139   0.454
15983W        W79542  30.925  41.359   3.250
15984W        W79543  33.040  26.058  13.548
15985W        W79544  41.470  22.523  10.980
15986W        W79545  29.993   0.302  14.825
15987W        W79546  23.163  11.737   3.798
15988W        W79547   9.777  24.176  10.578
15989W        W79548  34.378   1.470   2.365
15990W        W79549  40.454  40.334  13.487
15991W        W79550  15.667  23.607  13.049
15992W        W79551  11.828  26.656  14.403
15993W        W79552  40.339  41.963   4.759
15994W        W79553  44.963  16.101   2.288
15995W        W79554  28.121  33.019  11.074
15996W        W79555  21.708  24.104  12.944
15997W        W79556  37.539  31.035   2.833
15998W        W79557  31.489  15.141  14.911
15999W        W79558  11.285  29.518  13.871
16000W        W79559  33.920  44.962  13.436
16001W        W79560  22.121  17.304  11.417
16002W        W79561  14.703  33.430  10.000
16003W        W79562  27.031  11.276  12.899
16004W        W79563   8.814  15.302   0.267
16005W        W79564  23.191  34.609  11.069
16006W        W79565  28.037  39.012   3.310
16007W        W79566   1.366  41.527   2.226
16008W        W79567  12.611  22.677  10.463
16009W        W79568  44.906  42.347   1.400
16010W        W79569  13.698  19.681  12.440
16011W        W79570  42.323  41.503  13.057
16012W        W79571  13.684  20.706  12.913
16013W        W79572   0.799  32.469   2.419
16014W        W79573   1.805  22.185  14.438
16015W        W79574  40.457  13.303   4.833
16016W        W79575  36.860  29.483  13.815
16017W        W79576   9.880  33.462   3.712
16018W        W79577  14.300  29.608   3.750
16019W        W79578  27.600  40.902   2.320
16020W        W79579  21.525  24.482   4.145
16021W        W79580  29.132  32.565  13.882
16022W        W79581  29.932   0.951  14.866
16023W        W79582  23.537  10.290   9.670
16024W        W79583  42.918  41.988  12.346
16025W        W79584  19.269  34.038   2.877
16026W        W79585  28.941  20.653   2.704
16027W        W79586  38.450  40.544  14.996
16028W        W79587  24.715   9.284   1.890
16029W        W79588   1.355  13.605   3.660
16030W        W79589   4.398   3.448  12.948
16031W        W79590  11.857  44.346   3.798
16032W        W79591   5.834   1.810   1.253
16033W        W79592  27.037  24.668   0.855
16034W        W79593  42.359  24.643   2.416
16035W        W79594  27.479  25.000  12.508
16036W        W79595  11.690  42.799   1.822
16037W        W79596  36.012  10.138   2.662
16038W        W79597   8.740  10.848   2.871
16039W        W79598  42.832   1.936   3.862
16040W        W79599  37.900  14.232  14.398
16041W        W79600  39.420  10.180   4.350
16042W        W79601   6.796  39.026  14.909
16043W        W79602  44.888  35.993   0.407
16044W        W79603  11.678   9.268   4.277
16045W        W79604  27.671   3.761  14.278
16046W        W79605   5.819   3.881   3.688
16047W        W79606  38.006  44.975  12.859
16048W        W79607   6.192  39.956   3.329
16049W        W79608  19.216   8.685  12.911
16050W        W79609  42.436   0.874   3.332
16051W        W79610  28.050  39.042  11.576
16052W        W79611   5.292   1.809   0.924
16053W        W79612  13.284   8.196   0.822
16054W        W79613  37.489   7.829  14.370
16055W        W79614   7.301  43.318  14.316
16056W        W79615  38.481  36.874  14.438
16057W        W79616  39.928  10.714   2.725
16058W        W79617  24.997   4.820   4.288
16059W        W79618  11.166   7.276  11.026
16060W        W79619  38.370  16.186  13.853
16061W        W79620   4.763  34.484  10.605
16062W        W79621   1.952  15.153  12.946
16063W        W79622  18.294  37.952  10.520
16064W        W79623  38.518   9.734   4.195
16065W        W79624  23.194  24.207  12.491
16066W        W79625   4.932  18.061   0.289
16067W        W79626  11.225  44.411   2.195
16068W        W79627  27.571   4.360  11.114
16069W        W79628  27.090  43.365   4.322
16070W        W79629  24.677   8.844   1.715
16071W        W79630   5.307  43.305   2.891
16072W        W79631   5.822  41.998  11.384
16073W        W79632  34.930  16.274   4.626
16074W        W79633  12.255  25.199   5.278
16075W        W79634  21.149  11.854   3.693
16076W        W79635  44.264   4.274   3.168
16077W        W79636   2.751  10.293  13.317
16078W        W79637  11.638  39.480   1.869
16079W        W79638  43.350  31.073  13.499
16080W        W79639  43.339  29.943  12.022
16081W        W79640  18.069  27.063  14.497
16082W        W79641   3.261  11.632  11.536
16083W        W79642  22.133  36.975   0.295
16084W        W79643  35.900  20.125   0.900
16085W        W79644  18.616  14.700  10.579
16086W        W79645  34.480  38.389   9.463
16087W        W79646  20.657   5.297   4.302
16088W        W79647  43.918  25.591   3.756
16089W        W79648  41.968  35.947  14.823
16090W        W79649  24.725  34.083  13.435
16091W        W79650  24.055  18.715  14.327
16092W        W79651  12.196  42.498  12.973
16093W        W79652  32.474  13.255  13.893
16094W        W79653   4.339  19.169   1.291
16095W        W79654   4.758  14.685   0.875
16096W        W79655  25.657  25.122  12.407
16097W        W79656  21.671  33.103  13.035
16098W        W79657  13.804  16.809  12.834
16099W        W79658  38.413  42.521   3.373
16100W        W79659   9.172   1.266  14.446
16101W        W79660  14.664  32.046   1.389
16102W        W79661  29.450  28.058  14.860
16103W        W79662  22.639  44.379   5.267
16104W        W79663   7.305   0.292   3.305
16105W        W79664  30.055  23.061   0.943
16106W        W79665  15.792  35.064  13.991
16107W        W79666  27.449  25.517  11.121
16108W        W79667   7.335  32.959   4.321
16109W        W79668  29.978  18.106   2.726
16110W        W79669  11.170  35.379  11.461
16111W        W79670  33.019  29.631  11.600
16112W        W79671   7.687   6.296  12.989
16113W        W79672  43.944  11.141  12.856
16114W        W79673  20.573  10.723   4.319
16115W        W79674  18.102  27.463  14.921
16116W        W79675  11.306  33.101   1.744
16117W        W79676  35.870  43.870  13.948
16118W        W79677  38.928  22.507  11.069
16119W        W79678  27.188  34.396  14.944
16120W        W79679  41.826  40.940   0.394
16121W        W79680  17.781  34.025   2.746
16122W        W79681  24.517  16.689  13.034
16123W        W79682  32.987  32.466   2.885
16124W        W79683  33.079  40.029   3.741
16125W        W79684  35.461   8.249   2.242
16126W        W79685  34.598  33.471   0.451
16127W        W79686  42.008   7.381  14.784
16128W        W79687   3.939   4.762  13.006
16129W        W79688  17.671   0.248  14.410
16130W        W79689  28.530  19.575   2.855
16131W        W79690  11.626  29.135  12.990
16132W        W79691  23.537  32.962   2.401
16133W        W79692  32.404   1.439  11.914
16134W        W79693  28.012  26.574   0.472
16135W        W79694  18.726  14.210  12.433
16136W        W79695  19.109  40.535  12.851
16137W        W79696  34.885  43.974  14.515
16138W        W79697  17.632  28.937  14.944
16139W        W79698  11.318  14.157   3.794
16140W        W79699  42.338  44.431  12.918
16141W        W79700   8.747  28.032   1.428
16142W        W79701   3.345  23.124   4.746
16143W        W79702  25.204  15.135   1.238
16144W        W79703  22.724  42.987   0.297
16145W        W79704  41.817   7.173  11.602
16146W        W79705  30.050  36.011   0.934
16147W        W79706   5.751  20.183   1.412
16148W        W79707  31.562  15.614  14.845
16149W        W79708  18.720  14.616   3.747
16150W        W79709   3.256  42.884   2.686
16151W        W79710  21.613   8.700   3.797
16152W        W79711  33.887   1.971   4.806
16153W        W79712   0.483   2.272  14.838
16154W        W79713  38.940   5.312  14.946
16155W        W79714  20.080  21.617  13.822
16156W        W79715  24.068  38.384   3.858
16157W        W79716  18.125  37.836  14.913
16158W        W79717  23.698  30.052  11.469
16159W        W79718   1.843  35.561   3.293
16160W        W79719  19.074  21.123   0.287
16161W        W79720   0.463  40.509  11.906
16162W        W79721  25.615  43.912  12.344
16163W        W79722  12.838  39.433   3.260
16164W        W79723  33.446  13.778   3.333
16165W        W79724   5.860  30.528  10.528
16166W        W79725  33.946  11.621   0.261
16167W        W79726  42.810   9.342   1.744
16168W        W79727  35.413  13.154   4.759
16169W        W79728  18.151  23.605   0.269
16170W        W79729  17.260   8.166   1.401
16171W        W79730  34.417  41.976  12.514
16172W        W79731  43.410  42.979  13.386
16173W        W79732  20.564  31.905   1.911
16174W        W79733  34.557   4.218   0.272
16175W        W79734  44.852  40.015  13.526
16176W        W79735  42.489  30.135   2.331
16177W        W79736  11.237  14.263   4.138
16178W        W79737  37.839  33.075  12.369
16179W        W79738  29.527   4.861  10.505
16180W        W79739  16.137  42.777  11.389
16181W        W79740  37.486  17.228  14.490
16182W        W79741  18.623  13.815  14.394
16183W        W79742  13.107  35.102   1.765
16184W        W79743  34.054  25.983  12.059
16185W        W79744  14.280  30.946   5.229
16186W        W79745  19.709   1.385   3.278
16187W        W79746  22.224   0.930  13.420
16188W        W79747  28.065   9.683  11.082
16189W        W79748  31.471  25.133  11.124
16190W        W79749   0.285  29.525  12.956
16191W        W79750  16.233   9.264   2.360
16192W        W79751   8.351  26.202  11.002
16193W        W79752  25.509   1.431  11.511
16194W        W79753  43.832  21.083  13.344
16195W        W79754  18.645   5.905  13.516
16196W        W79755  26.976  15.766   2.264
16197W        W79756  21.118   9.154   0.839
16198W        W79757   2.961   6.376  13.410
16199W        W79758  34.898  40.837  11.089
16200W        W79759  43.816  24.605   0.898
16201W        W79760   1.967  30.952   0.341
16202W        W79761   1.392  17.656  13.388
16203W        W79762  38.978   6.332   0.283
16204W        W79763   9.234   0.850  14.462
16205W        W79764  26.055  43.276   4.298
16206W        W79765  30.639  21.639   4.635
16207W        W79766  29.599  36.094  11.104
16208W        W79767  17.197  33.963   4.235
16209W        W79768  35.012  38.499  10.077
16210W        W79769  25.969   9.820  13.356
16211W        W79770   1.834  21.571  13.005
16212W        W79771   9.668  17.577  14.367
16213W        W79772  26.611  19.161  10.645
16214W        W79773  29.435   7.248   1.395
16215W        W79774   6.827  23.238  14.401
16216W        W79775  14.809  26.140   3.810
16217W        W79776  22.116  34.479   4.703
16218W        W79777   6.366  15.159  11.101
16219W        W79778  21.184  12.745  12.579
16220W        W79779  26.641   4.812   5.269
16221W        W79780  42.369  28.636  14.360
16222W        W79781  33.394  13.642  14.300
16223W        W79782  40.826  14.149   2.309
16224W        W79783  27.122   9.384   1.915
16225W        W79784  26.477  25.170  11.056
16226W        W79785   9.830  40.507   4.623
16227W        W79786   4.364  36.059  14.475
16228W        W79787  37.906  16.770  14.981
16229W        W79788  13.221  36.074  13.435
16230W        W79789  30.952   8.814   4.119
16231W        W79790  19.663  34.517   1.915
16232W        W79791   1.785  33.426  12.522
16233W        W79792  16.736  10.676   1.867
16234W        W79793   0.756  27.980  14.482
16235W        W79794  21.173  43.515  12.945
16236W        W79795  11.637  14.702  14.919
16237W        W79796  39.873   0.280  10.640
16238W        W79797   5.909  34.524   2.183
16239W        W79798  11.803  30.990   2.290
16240W        W79799  39.007  10.801  12.550
16241W        W79800  19.670  10.805  11.412
16242W        W79801  17.634   8.821   0.342
16243W        W79802  16.604   0.777  12.927
16244W        W79803  31.924  33.392   0.844
16245W        W79804  14.105  24.224  11.018
16246W        W79805  37.955  11.670  14.356
16247W        W79806  18.147  22.722  12.524
16248W        W79807  35.421  34.507  13.937
16249W        W79808  44.366  33.452  14.032
16250W        W79809  44.928  32.501   1.886
16251W        W79810  34.411  27.994   0.459
16252W        W79811  14.623  12.744   2.776
16253W        W79812  36.481  21.532   2.351
16254W        W79813  43.392   9.298  11.550
16255W        W79814  16.082   2.257   1.435
16256W        W79815  23.634  37.359   4.220
16257W        W79816  13.136   0.480  13.883
16258W        W79817  27.942  30.031  14.433
16259W        W79818  27.030  25.181   2.253
16260W        W79819  12.839   1.328   0.366
16261W        W79820  28.448  15.171  11.495
16262W        W79821  40.501  33.011   0.910
16263W        W79822  43.998   1.326  14.410
16264W        W79823  14.595  26.108  12.445
16265W        W79824  16.195   7.263   3.214
16266W        W79825  16.811  32.483  14.838
16267W        W79826   1.748  14.147   1.311
16268W        W79827  31.428  11.866  11.437
16269W        W79828  41.491   4.225   4.221
16270W        W79829  31.065  38.433   5.627
16271W        W79830  32.498  10.745  11.447
16272W        W79831  28.460  17.285   1.728
16273W        W79832  31.125  31.109   0.410
16274W        W79833  21.114  18.285   5.183
16275W        W79834  25.693  24.561   0.757
16276W        W79835  28.482  27.148   0.336
16277W        W79836   4.319   1.477   1.925
16278W        W79837  29.595  30.455   4.231
16279W        W79838   6.332  34.074  13.859
16280W        W79839  18.680  32.579   3.164
16281W        W79840   1.922   4.714  11.538
16282W        W79841  41.333  42.312   1.775
16283W        W79842  11.657   8.270   5.304
16284W        W79843  12.656  19.769   2.386
16285W        W79844  40.861   6.202  10.989
16286W        W79845  15.238  41.500  11.948
16287W        W79846  15.235  39.059  12.463
16288W        W79847  21.103   0.978  11.008
16289W        W79848  44.431  32.435  14.420
16290W        W79849  27.586  15.120  14.881
16291W        W79850  11.195  13.763   4.277
16292W        W79851  17.214   1.269  12.927
16293W        W79852  12.780  18.590  12.568
16294W        W79853  25.660  39.858  11.032
16295W        W79854  14.824  21.041  12.987
16296W        W79855  24.053  13.784   4.751
16297W        W79856  35.883  27.573  11.869
16298W        W79857  16.161  25.674   5.294
16299W        W79858  37.366   2.855   0.313
16300W        W79859  25.156  15.639  12.859
16301W        W79860  41.946  30.483   0.447
16302W        W79861  21.584   2.789   0.920
16303W        W79862   9.305  37.422   4.175
16304W        W79863  32.942  10.834  12.097
16305W        W79864  22.704   1.305  13.429
16306W        W79865  34.567  24.711  10.511
16307W        W79866  34.521  22.711   1.827
16308W        W79867  19.221  15.637  10.577
16309W        W79868  43.821   7.194   0.451
16310W        W79869   9.375   3.828  12.339
16311W        W79870  30.007  40.515   2.390
16312W        W79871  26.191  38.479   0.363
16313W        W79872  12.227  44.344  14.952
16314W        W79873   6.922   8.660   2.776
16315W        W79874  36.007   0.450  12.934
16316W        W79875  23.605  40.352   3.157
16317W        W79876  36.054  13.270  14.450
16318W        W79877  40.384  20.114  12.012
16319W        W79878  17.231   7.693  12.559
16320W        W79879  21.065   8.814  14.813
16321W        W79880  43.812  15.683   1.905
16322W        W79881  36.955   2.762   0.795
16323W        W79882  37.070  43.885   4.151
16324W        W79883  25.604  18.104  11.960
16325W        W79884  32.035  12.635  14.936
16326W        W79885   0.492   0.789   0.741
16327W        W79886  33.024  43.290   0.953
16328W        W79887  41.802   6.294  13.536
16329W        W79888  20.061  27.669  10.411
16330W        W79889  20.045  38.961   1.331
16331W        W79890  10.710  37.407   2.296
16332W        W79891   0.957  41.398  11.459
16333W        W79892   7.809   2.257  12.887
16334W        W79893  17.062  28.136  10.484
16335W        W79894   2.357  15.703   1.246
16336W        W79895  39.539  29.127   2.246
16337W        W79896  36.097  37.068   2.897
16338W        W79897  42.907  28.573   2.264
16339W        W79898  20.671   3.932  11.551
16340W        W79899  34.419   6.792  12.991
16341W        W79900  33.007  43.274  12.989
16342W        W79901   3.889  29.084  13.474
16343W        W79902  10.633  27.940  13.459
16344W        W79903   0.957  14.736  13.873
16345W        W79904  29.103  43.986  13.324
16346W        W79905  43.468  37.054   3.194
16347W        W79906  30.956  23.112   0.321
16348W        W79907  23.121   1.875   3.269
16349W        W79908   9.230   9.738   4.712
16350W        W79909  38.422  32.483   1.886
16351W        W79910  34.369  15.303   0.389
16352W        W79911  25.713  41.442  13.414
16353W        W79912  21.057   0.275  14.935
16354W        W79913  22.189   3.262  13.954
16355W        W79914   2.891  38.564  13.542
16356W        W79915   8.874  36.016   1.727
16357W        W79916  25.075  26.508   1.767
16358W        W79917  35.537  36.912  12.395
16359W        W79918  19.255  19.112   1.865
16360W        W79919  38.365  21.226  10.560
16361W        W79920  37.931  23.024   2.787
16362W        W79921  39.493  37.436  12.971
16363W        W79922  43.868  35.099   4.309
16364W        W79923  43.294  17.712   1.703
16365W        W79924  15.120   6.237  11.921
16366W        W79925  20.084  37.505   0.454
16367W        W79926  37.566  37.577  14.862
16368W        W79927  29.515  33.596  11.899
16369W        W79928  37.367  35.972   1.413
16370W        W79929  11.258  22.507  13.008
16371W        W79930  20.067  34.987   3.844
16372W        W79931  36.022  20.253  11.603
16373W        W79932   5.384  34.527   2.246
16374W        W79933  28.628   0.311  10.415
16375W        W79934  10.798  17.173   9.929
16376W        W79935  29.967   9.312   0.347
16377W        W79936  16.595  27.602  12.475
16378W        W79937  40.462  26.995   3.380
16379W        W79938   8.246  20.672  13.983
16380W        W79939  23.569   9.288  14.790
16381W        W79940  33.024   8.343  13.036
16382W        W79941  29.609   3.267  14.926
16383W        W79942  15.095  14.660   2.736
16384W        W79943  42.425  25.001  10.580
16385W        W79944  35.527   8.406   5.110
16386W        W79945   9.175  44.279  10.059
16387W        W79946  43.017   6.182   3.705
16388W        W79947  37.362  29.071   2.892
16389W        W79948  36.534  33.885  14.424
16390W        W79949  23.098  12.333  12.868
16391W        W79950  20.616  17.753  12.576
16392W        W79951  17.091  27.965  12.530
16393W        W79952   5.886  38.388  14.999
16394W        W79953  32.976  31.617   3.697
16395W        W79954   3.317   6.354   4.620
16396W        W79955   6.277   2.800   2.690
16397W        W79956  39.846  19.121  14.479
16398W        W79957  21.021   0.277  10.508
16399W        W79958  31.116  18.613  10.935
16400W        W79959  26.971  20.703  12.842
16401W        W79960  22.037  21.192   1.819
16402W        W79961  20.077  30.422  13.354
16403W        W79962  39.512  20.725   4.632
16404W        W79963  35.572  13.239  12.550
16405W        W79964  31.479  24.013   4.326
16406W        W79965  44.759  35.941   4.143
16407W        W79966  43.481   3.848   2.253
16408W        W79967   2.721  18.660  11.077
16409W        W79968  23.694  21.235  12.895
16410W        W79969  15.694  21.214  10.618
16411W        W79970  16.202   9.756   5.618
16412W        W79971  32.024  25.616  11.858
16413W        W79972  10.220  13.205   3.202
16414W        W79973  30.133   8.741   3.146
16415W        W79974  42.409   8.729  13.412
16416W        W79975  40.535  39.453  14.383
16417W        W79976  39.859   6.683   3.652
16418W        W79977  26.087  24.489  13.031
16419W        W79978  23.685   1.829  12.896
16420W        W79979   0.331  31.412   2.834
16421W        W79980  33.913  33.946  13.406
16422W        W79981  29.493  43.886   3.770
16423W        W79982  30.013  14.745   3.648
16424W        W79983  29.503  39.019   4.317
16425W        W79984  31.965  44.758   2.282
16426W        W79985  16.238  26.104   2.754
16427W        W79986   0.257   3.247  13.350
16428W        W79987  23.735  44.916   4.268
16429W        W79988  13.240  15.084  12.468
16430W        W79989  18.095  28.059   3.827
16431W        W79990  10.646   8.896  13.473
16432W        W79991  15.113  41.439  11.401
16433W        W79992  23.146  27.637   2.661
16434W        W79993  35.950  17.610   3.180
16435W        W79994  13.173  11.327  10.599
16436W        W79995  33.388  37.865  14.847
16437W        W79996  36.955  28.656   3.849
16438W        W79997  16.601  18.746  12.531
16439W        W79998  14.299  22.665   1.907
16440W        W79999  21.711   2.732  14.871
16441W        W80000  16.141  12.831   4.325
16442W        W80001  37.509  35.586   3.361
16443W        W80002  34.116  26.050   0.793
16444W        W80003  32.460  23.650  10.888
16445W        W80004  36.356  12.633  14.516
16446W        W80005  12.761  39.327   2.405
16447W        W80006  38.854  11.624  13.989
16448W        W80007  31.004  18.088  12.519
16449W        W80008  10.638  20.097   0.934
16450W        W80009  20.711  22.599   0.345
16451W        W80010  12.763  16.683  13.055
16452W        W80011   2.339  36.418   1.300
16453W        W80012  35.423  19.646  12.939
16454W        W80013  24.686  11.268  13.807
16455W        W80014  39.515  31.405  11.979
16456W        W80015  27.104   7.331  14.484
16457W        W80016  32.445  42.294   9.506
16458W        W80017  22.596  21.611  12.564
16459W        W80018   5.229  42.854   3.774
16460W        W80019  43.472  31.517  11.475
16461W        W80020   0.896  33.502  13.375
16462W        W80021  37.422  43.409   3.379
16463W        W80022  28.144  33.124   3.359
16464W        W80023  12.247  33.501   9.945
16465W        W80024  14.829   7.887   2.222
16466W        W80025   8.664  34.476  12.017
16467W        W80026  30.651   1.472   1.773
16468W        W80027  32.047  33.549  14.924
16469W        W80028  17.563  44.287   1.397
16470W        W80029  20.089   0.985   3.216
16471W        W80030  31.050   1.905  13.333
16472W        W80031  19.081  10.792  14.867
16473W        W80032   7.804  20.124   0.293
16474W        W80033   3.714  30.536   4.283
16475W        W80034  36.503  28.163   1.434
16476W        W80035  33.561  40.496  12.408
16477W        W80036  30.574  44.338   2.286
16478W        W80037  11.767  34.996   0.287
16479W        W80038  36.366   3.788   3.347
16480W        W80039  32.117   5.219   1.410
16481W        W80040  43.271  18.557   4.146
16482W        W80041  37.980   2.847   1.866
16483W        W80042  31.424  15.117  13.874
16484W        W80043   7.254  36.347   3.181
16485W        W80044  30.605  25.487  11.957
16486W        W80045  43.318  44.873   2.778
16487W        W80046  20.065   4.710   4.212
16488W        W80047  43.417  12.266   0.820
16489W        W80048  24.001  22.218  10.952
16490W        W80049  44.465  43.851  14.933
16491W        W80050  31.429  19.268  14.779
16492W        W80051  36.915  38.522   2.282
16493W        W80052   8.243  24.626   2.734
16494W        W80053  18.050  37.850  12.991
16495W        W80054   6.733  37.435   1.858
16496W        W80055  12.632  11.146  12.393
16497W        W80056  11.659   3.440   2.812
16498W        W80057   2.892  41.538   0.940
16499W        W80058  12.785   5.436  14.470
16500W        W80059   3.256  24.521  13.461
16501W        W80060  14.327   7.699   1.281
16502W        W80061  23.660  37.422   3.833
16503W        W80062  28.137  30.159   1.423
16504W        W80063  14.665  12.717  12.353
16505W        W80064  34.065  37.559  14.835
16506W        W80065  44.865  22.136   0.263
16507W        W80066  22.084   2.860   2.307
16508W        W80067  26.565   8.723  13.941
16509W        W80068   3.392   0.746   1.762
16510W        W80069  10.694  44.965   0.953
16511W        W80070  14.283   0.987   3.828
16512W        W80071  25.105  40.456  13.491
16513W        W80072  20.171  36.527   2.793
16514W        W80073  11.258  25.703  10.621
16515W        W80074  44.990   2.908   2.281
16516W        W80075  44.873   1.971   3.643
16517W        W80076  42.801   4.789   4.624
16518W        W80077  12.635  39.318  14.914
16519W        W80078  19.609  42.449  11.523
16520W        W80079   7.867  19.674   3.763
16521W        W80080  24.099  14.330   2.185
16522W        W80081   9.763  41.856  14.322
16523W        W80082  39.890  30.602   1.833
16524W        W80083  17.555  27.952   1.233
16525W        W80084  27.102  21.180   0.463
16526W        W80085   2.306  15.821  12.359
16527W        W80086  27.568  23.569   2.901
16528W        W80087  37.866  40.938  10.992
16529W        W80088  12.353  35.050  14.928
16530W        W80089  15.689   9.859  10.555
16531W        W80090  40.009  20.649  11.437
16532W        W80091  18.683  39.834   2.735
16533W        W80092  16.689   5.337  11.471
16534W        W80093  32.401  14.710   3.290
16535W        W80094  27.535  34.552   4.651
16536W        W80095  15.799   1.473  12.021
16537W        W80096  31.146  37.355  14.431
16538W        W80097  42.300  40.322   2.264
16539W        W80098  30.163  30.601  13.930
16540W        W80099   4.370  17.217   2.849
16541W        W80100  19.119  28.588   4.615
16542W        W80101   4.387  16.235  10.634
16543W        W80102  24.624   0.760  11.526
16544W        W80103  41.870  14.739  14.459
16545W        W80104  20.111   9.840  13.005
16546W        W80105  13.327  10.342   4.127
16547W        W80106  29.948   4.406   0.799
16548W        W80107  28.160  22.040  12.546
16549W        W80108  15.758  38.962   3.316
16550W        W80109  27.476  34.002  13.811
16551W        W80110  30.447   5.929   2.683
16552W        W80111  28.676  17.159   3.632
16553W        W80112  22.691   8.349   1.212
16554W        W80113  35.472  11.295  10.909
16555W        W80114   0.897  11.239  10.467
16556W        W80115   1.918  16.646  10.599
16557W        W80116   2.882  20.182  13.376
16558W        W80117  29.439  26.591  12.562
16559W        W80118   7.307  27.962  12.843
16560W        W80119  14.683  22.645  11.584
16561W        W80120  39.496  10.254  13.392
16562W        W80121  19.151  37.547   1.765
16563W        W80122  28.963   3.436  11.099
16564W        W80123  21.207  31.579  12.441
16565W        W80124  25.173  32.537  10.953
16566W        W80125  32.951  38.539   2.182
16567W        W80126  33.625   4.326   2.386
16568W        W80127  33.571  38.928  10.030
16569W        W80128   1.253   7.882  11.442
16570W        W80129  39.831  13.605   3.340
16571W        W80130  32.946  40.818   1.749
16572W        W80131  21.168  23.658   2.669
16573W        W80132  20.546  38.029  10.927
16574W        W80133  37.033  16.226   0.464
16575W        W80134  17.246  39.386   1.891
16576W        W80135  27.478  41.884  14.000
16577W        W80136  30.989  16.293   0.830
16578W        W80137  28.566  18.556  10.643
16579W        W80138  37.830  41.429  14.942
16580W        W80139  40.342  10.829   4.793
16581W        W80140  34.932  17.084   2.222
16582W        W80141   0.885  20.662  12.391
16583W        W80142  23.144  30.979  12.913
16584W        W80143  25.512  41.979   0.956
16585W        W80144  38.334  39.359  12.917
16586W        W80145  43.458  12.135   1.792
16587W        W80146  22.093  42.942   4.199
16588W        W80147  11.141  14.149  14.927
16589W        W80148  26.668   2.254  11.032
16590W        W80149   4.326  37.831  13.061
16591W        W80150   7.403  17.651  12.056
16592W        W80151  10.664  11.140   1.436
16593W        W80152  19.274  31.645   4.761
16594W        W80153  44.817  30.583   2.399
16595W        W80154  35.503   1.794   0.295
16596W        W80155  40.436  29.616   0.808
16597W        W80156  29.153  44.269   3.660
16598W        W80157   0.866  16.714   0.247
16599W        W80158  12.839   8.735  10.094
16600W        W80159  18.225  32.953   4.237
16601W        W80160  15.187  21.658  13.961
16602W        W80161  41.869   3.242  12.091
16603W        W80162  20.633   1.460  11.534
16604W        W80163  36.567  11.285   1.834
16605W        W80164  43.401  38.000   2.858
16606W        W80165  44.875   1.961  13.374
16607W        W80166  35.029  32.582   4.262
16608W        W80167  24.632  19.212  13.997
16609W        W80168  10.238  27.639  11.861
16610W        W80169  38.389   5.225   1.731
16611W        W80170  42.376  19.227  13.902
16612W        W80171  37.389  16.716   1.928
16613W        W80172  39.012  11.726   0.756
16614W        W80173   2.419   6.315  14.276
16615W        W80174  17.796   1.839   4.308
16616W        W80175  11.245  22.221  11.386
16617W        W80176   7.194  28.140   2.727
16618W        W80177  26.649   5.801   2.325
16619W        W80178  16.229  14.795   1.809
16620W        W80179  13.170  14.601  12.569
16621W        W80180  19.656  14.758   2.268
16622W        W80181  29.932   1.927  10.506
16623W        W80182   1.423   5.867   0.408
16624W        W80183  33.045  40.486   1.907
16625W        W80184  34.474   9.754   2.217
16626W        W80185  35.978  26.087  13.446
16627W        W80186  10.178   8.770   2.700
16628W        W80187  14.601   1.302   1.434
16629W        W80188   8.271  10.260  14.396
16630W        W80189  30.480  18.705   3.209
16631W        W80190  39.011  16.648   1.319
16632W        W80191   2.350  21.729   4.203
16633W        W80192  27.140   9.380  13.385
16634W        W80193   8.296  20.696  14.818
16635W        W80194  42.400  28.675   3.170
16636W        W80195   8.379   6.273  10.553
16637W        W80196  41.442   5.709   0.340
16638W        W80197  32.605  16.600   2.769
16639W        W80198  18.629   3.288  11.428
16640W        W80199   6.285  32.608   1.787
16641W        W80200  15.205  28.059  12.842
16642W        W80201  16.074   9.376  12.363
16643W        W80202  28.010  17.694  13.502
16644W        W80203  15.177  34.464  14.018
16645W        W80204  25.080  42.971   1.382
16646W        W80205  27.996   7.859   4.126
16647W        W80206  44.926  23.541   4.156
16648W        W80207  26.996  39.361   1.380
16649W        W80208  19.168  17.679  12.579
16650W        W80209  40.898  20.675   2.686
16651W        W80210  27.989  24.705  10.998
16652W        W80211  16.272  39.442  14.849
16653W        W80212  28.960  25.978  14.459
16654W        W80213  37.019  34.950  13.828
16655W        W80214  12.853  25.123   3.759
16656W        W80215  32.448   8.255   3.755
16657W        W80216  34.534   7.209   0.790
16658W        W80217  20.532  18.727  14.362
16659W        W80218  19.069   0.750   1.422
16660W        W80219  12.668  26.556   2.788
16661W        W80220  44.930   1.352   4.345
16662W        W80221  33.969  25.003  11.942
16663W        W80222  32.930   9.858  13.861
16664W        W80223  21.256  30.512   1.885
16665W        W80224  36.459   0.825  13.527
16666W        W80225  44.274   9.868  11.960
16667W        W80226  21.543  11.195   0.903
16668W        W80227  32.626  15.324   0.746
16669W        W80228   4.266   6.789   3.637
16670W        W80229  14.722  28.071   1.752
16671W        W80230   9.834   7.265   3.165
16672W        W80231  27.560  20.089  10.998
16673W        W80232  14.128  35.584   5.165
16674W        W80233   3.739  24.138  12.448
16675W        W80234  41.432  15.197   0.907
16676W        W80235  44.267  38.362   1.809
16677W        W80236   1.253   4.871   4.689
16678W        W80237  21.167  39.837  13.430
16679W        W80238   2.805  24.160   0.745
16680W        W80239  23.651  29.557  12.503
16681W        W80240  19.698  31.933  14.831
16682W        W80241  26.629  21.020   5.599
16683W        W80242  24.650  13.674  13.447
16684W        W80243   4.762  43.491   2.669
16685W        W80244  29.010  27.955  14.942
16686W        W80245  24.229   0.799   2.682
16687W        W80246  32.986  25.696   4.626
16688W        W80247  31.075  28.478   4.818
16689W        W80248   5.332  40.370  10.580
16690W        W80249  16.152  23.586   0.935
16691W        W80250  27.024   9.182  11.876
16692W        W80251   3.368  12.257   0.475
16693W        W80252  34.395  16.185   0.444
16694W        W80253  32.535   1.449   0.845
16695W        W80254  32.621   7.185  12.425
16696W        W80255   6.875  31.106   4.127
16697W        W80256   8.379  27.095  14.342
16698W        W80257  38.543  41.957   0.460
16699W        W80258  32.017  34.414  14.856
16700W        W80259   3.842  15.260   0.291
16701W        W80260  41.391  30.607   2.852
16702W        W80261  36.003  31.135   0.405
16703W        W80262  26.075  13.655   1.745
16704W        W80263   2.902  10.357   0.847
16705W        W80264  11.224  17.257   2.303
16706W        W80265  17.231  13.168  14.910
16707W        W80266  26.158  30.054  12.934
16708W        W80267  21.153  22.684   1.281
16709W        W80268  16.286  36.591  12.373
16710W        W80269   2.927  18.189  14.843
16711W        W80270  33.428   3.719  12.375
16712W        W80271  42.445  28.007  13.854
16713W        W80272  44.347  25.151   0.481
16714W        W80273  25.216  39.319   3.633
16715W        W80274  10.307   2.966  13.061
16716W        W80275  22.026  37.067  13.386
16717W        W80276   7.255  27.067  14.885
16718W        W80277  35.889  15.316  11.034
16719W        W80278  36.999  39.965  12.490
16720W        W80279   3.731  12.676   1.222
16721W        W80280  27.073   6.311   1.760
16722W        W80281   2.258   4.906   0.893
16723W        W80282  14.235  41.889  10.575
16724W        W80283  22.530  28.494  10.427
16725W        W80284  43.884  42.986   2.371
16726W        W80285  42.281   4.426  11.396
16727W        W80286   7.393  18.053   4.642
16728W        W80287   1.462  36.514  13.987
16729W        W80288  28.172  41.470  11.381
16730W        W80289  27.084  37.862  12.514
16731W        W80290  25.162  21.676  14.978
16732W        W80291  26.095   7.369  10.482
16733W        W80292  31.598  27.588   2.826
16734W        W80293  31.124   4.275  13.812
16735W        W80294  41.002   9.227  11.039
16736W        W80295  35.867   1.240  11.600
16737W        W80296  12.282  13.203   1.285
16738W        W80297   4.863  27.156   0.282
16739W        W80298   1.268  22.017  13.812
16740W        W80299  30.564  30.577   2.819
16741W        W80300  11.131   8.355   3.717
16742W        W80301  41.337  33.552  12.477
16743W        W80302  25.667  17.122  14.883
16744W        W80303   1.379   7.183   4.716
16745W        W80304  38.363   3.288   2.807
16746W        W80305  14.154  21.678   1.913
16747W        W80306   9.792  28.508  12.989
16748W        W80307  43.484  26.041  14.350
16749W        W80308  13.134  23.685  11.475
16750W        W80309  36.573   3.400  12.511
16751W        W80310  28.474   0.980  13.034
16752W        W80311  24.506  36.488   4.274
16753W        W80312  32.010  42.367   3.763
16754W        W80313   7.176   1.827   1.291
16755W        W80314  29.099  13.167   1.774
16756W        W80315  32.068  14.775  11.003
16757W        W80316   9.377  21.188   2.679
16758W        W80317  42.775  22.036  11.066
16759W        W80318  14.283   6.812  10.448
16760W        W80319  41.306  29.153  12.003
16761W        W80320   6.396  17.645   1.397
16762W        W80321   8.782   1.381  13.405
16763W        W80322  41.840  17.221  10.404
16764W        W80323  34.954  35.424   2.778
16765W        W80324  32.970  18.724  12.342
16766W        W80325  36.097   6.250  13.836
16767W        W80326  37.398  30.482  12.022
16768W        W80327   6.334  13.225  11.528
16769W        W80328   8.817  26.052   1.820
16770W        W80329   5.749  39.888  10.571
16771W        W80330  32.534  19.544   2.735
16772W        W80331  29.634   1.321  12.044
16773W        W80332  27.998   9.351  11.972
16774W        W80333   2.329  19.678   3.808
16775W        W80334  42.823  29.144   3.265
16776W        W80335  14.108  39.951   4.666
16777W        W80336  37.524  33.545   2.724
16778W        W80337  44.495  20.192  10.898
16779W        W80338   7.709  35.072   2.367
16780W        W80339  31.461   6.761   3.383
16781W        W80340  40.967  38.002   1.304
16782W        W80341  28.539  37.002   1.424
16783W        W80342  28.062  38.552  13.899
16784W        W80343   6.258  37.061   0.916
16785W        W80344   3.791  32.976   0.277
16786W        W80345   1.851  28.160  13.395
16787W        W80346  18.075  28.676  11.401
16788W        W80347  28.452  33.581   3.711
16789W        W80348  27.188  37.988  11.088
16790W        W80349  20.145  30.604  14.017
16791W        W80350  39.953  31.517   3.837
16792W        W80351  23.216  41.441   0.843
16793W        W80352  10.640  18.077  12.897
16794W        W80353   6.410  10.810   1.443
16795W        W80354   8.216  25.098  12.019
16796W        W80355  15.086  37.076  12.037
16797W        W80356  42.452  18.640   2.676
16798W        W80357  24.123  22.555  14.992
16799W        W80358   2.950  17.258   1.699
16800W        W80359  27.066  32.412  10.922
16801W        W80360  36.005  36.523   3.184
16802W        W80361  38.437  32.430  12.539
16803W        W80362  37.405  38.329  11.420
16804W        W80363  34.437  31.562  11.510
16805W        W80364  26.170  35.377  11.017
16806W        W80365  25.624  12.804   3.344
16807W        W80366  12.781  42.001   3.321
16808W        W80367  21.589   2.812  13.400
16809W        W80368  11.677  26.529  11.555
16810W        W80369   5.771   5.420  12.045
16811W        W80370  41.370   9.158  10.523
16812W        W80371   6.767  19.096   2.234
16813W        W80372  18.713   4.764   4.600
16814W        W80373  35.876  18.607   4.783
16815W        W80374   4.431  33.512  11.096
16816W        W80375  30.600   3.318   2.210
16817W        W80376  26.636  26.701  13.009
16818W        W80377  37.028  16.304  11.571
16819W        W80378   5.870  40.849   1.840
16820W        W80379  41.937  21.247   2.292
16821W        W80380  38.947  30.083  10.111
16822W        W80381   1.849   2.350   4.783
16823W        W80382  17.196  24.015  10.461
16824W        W80383   2.867  27.661  13.866
16825W        W80384  30.419  25.081  13.390
16826W        W80385  21.683  14.750  12.049
16827W        W80386  10.830  18.172   4.352
16828W        W80387  19.044  16.111   0.798
16829W        W80388  24.103  13.313   2.386
16830W        W80389   6.215  43.976  14.498
16831W        W80390  37.010  35.884  13.519
16832W        W80391   7.342  37.904  10.497
16833W        W80392  37.981  34.424  10.092
16834W        W80393  32.505   0.380   2.665
16835W        W80394  26.526  11.350  11.014
16836W        W80395  16.229  15.263  14.974
16837W        W80396  38.959  12.177   5.197
16838W        W80397  21.088  19.646   4.220
16839W        W80398  16.075  23.142  10.435
16840W        W80399   1.334  35.021  12.390
16841W        W80400  44.761  39.063  14.330
16842W        W80401  20.260  25.517  13.433
16843W        W80402  41.331  29.051  14.817
16844W        W80403   2.258  29.516  10.635
16845W        W80404  42.347  41.827   4.635
16846W        W80405  27.617   9.852  13.405
16847W        W80406  12.234  25.162  14.881
16848W        W80407   0.841  10.260  14.874
16849W        W80408  39.380   3.771   0.322
16850W        W80409  31.021  24.011   0.328
16851W        W80410   0.421  17.239   0.736
16852W        W80411  25.558  21.087   4.699
16853W        W80412  21.518  28.117  10.041
16854W        W80413  41.341   1.889   1.272
16855W        W80414  35.416  33.480  11.598
16856W        W80415  37.031  26.962   2.219
16857W        W80416  14.111  26.985  10.478
16858W        W80417  15.266  38.018   3.248
16859W        W80418  22.566   1.395  11.375
16860W        W80419   4.422   9.647   2.287
16861W        W80420  14.179  32.134  14.350
16862W        W80421  34.566  28.166  13.466
16863W        W80422  35.879  38.373  14.841
16864W        W80423  24.582   6.909  14.851
16865W        W80424   7.861   0.795  12.447
16866W        W80425  16.179   7.188  13.049
16867W        W80426  19.565   0.758   2.842
16868W        W80427  30.955   2.250   0.838
16869W        W80428   6.392   4.842   1.892
16870W        W80429  43.407  28.513   1.299
16871W        W80430  35.391  27.007  12.047
16872W        W80431  20.643  18.782   1.786
16873W        W80432  44.286  11.285  11.035
16874W        W80433  31.898  36.016   2.857
16875W        W80434  13.222  44.411   0.732
16876W        W80435  18.110  31.481  13.988
16877W        W80436  27.982  15.149  12.986
16878W        W80437  13.116   5.791   3.845
16879W        W80438  37.498  17.133   4.635
16880W        W80439  43.896  40.973  12.343
16881W        W80440  41.856  35.103   0.759
16882W        W80441  33.439  22.632   2.186
16883W        W80442  12.355  41.334  12.509
16884W        W80443  20.760   0.354  14.286
16885W        W80444  23.506  36.515   0.467
16886W        W80445   0.783  21.675   3.362
16887W        W80446  19.667   2.361  11.413
16888W        W80447  26.599  11.726  14.831
16889W        W80448  30.928  36.901   4.165
16890W        W80449  19.239  13.209  12.856
16891W        W80450  44.473  22.215   3.197
16892W        W80451  42.319  36.582  10.576
16893W        W80452  22.721   1.325  11.869
16894W        W80453  16.788  31.060  13.995
16895W        W80454  43.019  16.179  10.639
16896W        W80455   3.838  37.992   2.882
16897W        W80456  36.562   9.669   3.701
16898W        W80457  17.186   9.795   4.192
16899W        W80458  41.419   1.295  12.914
16900W        W80459   2.904   2.263   2.210
16901W        W80460  11.677  31.012  13.827
16902W        W80461  35.383  41.410   1.396
16903W        W80462  41.882   7.895  13.406
16904W        W80463  41.386  18.078   4.260
16905W        W80464   9.877  30.535  13.045
16906W        W80465  38.059  13.347  14.028
16907W        W80466  35.476  43.396   4.281
16908W        W80467  29.583  30.030   2.842
16909W        W80468  34.554  16.267  10.921
16910W        W80469  38.490  42.885  12.539
16911W        W80470  41.916   9.270  12.880
16912W        W80471   6.295   4.305   2.289
16913W        W80472  13.838  23.030   3.170
16914W        W80473  33.960  12.324  10.449
16915W        W80474   1.961   8.749   1.823
16916W        W80475   6.826  33.538   1.818
16917W        W80476   9.840  21.151  13.353
16918W        W80477  14.259  10.867  14.330
16919W        W80478  11.228   9.850   4.601
16920W        W80479  42.322  24.011   3.315
16921W        W80480   7.323  23.595  10.449
16922W        W80481  14.236  37.934   4.708
16923W        W80482  44.908  33.113  13.820
16924W        W80483   7.345  25.209   0.382
16925W        W80484   5.398  11.332   3.254
16926W        W80485  15.168  13.814   0.946
16927W        W80486  20.212  24.989   2.740
16928W        W80487  16.167  35.389  12.473
16929W        W80488  32.082   2.744   0.421
16930W        W80489   9.185   4.825   2.861
16931W        W80490  31.510  16.313  11.968
16932W        W80491  18.709  27.008  13.857
16933W        W80492  25.043  39.501  14.471
16934W        W80493  17.119   1.241  12.058
16935W        W80494  14.323   8.830  10.497
16936W        W80495  16.607  38.362   0.436
16937W        W80496  34.877  12.120   3.205
16938W        W80497  15.608  10.816   4.293
16939W        W80498  18.228   4.768  13.940
16940W        W80499  35.431  34.381  12.903
16941W        W80500   0.308   3.862  14.832
16942W        W80501  40.943  32.887  12.058
16943W        W80502  21.241  18.137  10.571
16944W        W80503  19.776  22.074  12.963
16945W        W80504  42.449  35.030   3.700
16946W        W80505  37.485  43.398   2.826
16947W        W80506  31.058  22.646   4.189
16948W        W80507  32.617  23.615   3.754
16949W        W80508  28.054  22.653   3.677
16950W        W80509  44.483  31.642   2.271
16951W        W80510  23.573  25.144   2.203
16952W        W80511   0.466   0.373   3.827
16953W        W80512  37.879  38.477   4.648
16954W        W80513   0.358   0.858   1.711
16955W        W80514  27.578  40.449   0.896
16956W        W80515  32.454  34.548  13.439
16957W        W80516  20.074  32.451   5.135
16958W        W80517   3.948  10.174  13.819
16959W        W80518  34.482  41.991   2.217
16960W        W80519  27.476  24.986  11.906
16961W        W80520  10.657  35.927  14.449
16962W        W80521  25.479  35.373   3.839
16963W        W80522   3.348  25.985  10.059
16964W        W80523  20.099  21.171  13.006
16965W        W80524  17.243   7.212   1.439
16966W        W80525  31.489  10.717  14.343
16967W        W80526  17.289  41.465   4.828
16968W        W80527  31.954   6.700   4.294
16969W        W80528  20.647  43.482  12.071
16970W        W80529  39.548   4.238   1.752
16971W        W80530  13.260  31.985   2.302
16972W        W80531  17.086  43.459   4.768
16973W        W80532  40.407  14.268  12.967
16974W        W80533   4.841   2.459   4.127
16975W        W80534  12.172  29.614  14.402
16976W        W80535  37.539   7.768   3.378
16977W        W80536  30.483  41.481  12.899
16978W        W80537  25.538  40.369  12.561
16979W        W80538  24.987  16.307   0.379
16980W        W80539  30.969  11.324  11.877
16981W        W80540  34.113   9.815  10.926
16982W        W80541   9.658  27.132   1.367
16983W        W80542  32.510   6.862  11.855
16984W        W80543  41.951  36.985   0.395
16985W        W80544  31.549  23.986  11.920
16986W        W80545  21.739  26.133  12.384
16987W        W80546  28.666  38.336   4.169
16988W        W80547  17.789  36.970   2.674
16989W        W80548  38.070  19.192   1.767
16990W        W80549  27.109  23.515   5.210
16991W        W80550  33.000  40.987   2.343
16992W        W80551  25.105  22.626   5.799
16993W        W80552   1.253  25.611  10.575
16994W        W80553  41.528  15.786   3.851
16995W        W80554  19.252  19.551   3.828
16996W        W80555  23.621  19.567   3.667
16997W        W80556  15.168  34.098  11.453
16998W        W80557   4.432  29.464  10.477
16999W        W80558  25.117   2.449  11.042
17000W        W80559  29.051  17.301  14.439
17001W        W80560  22.718   7.670   1.752
17002W        W80561  21.021  24.122   1.891
17003W        W80562   9.166  18.176   3.773
17004W        W80563  40.422  13.725  14.502
17005W        W80564  12.780  25.629  14.507
17006W        W80565  34.871   4.271   3.249
17007W        W80566  25.188  26.630  12.838
17008W        W80567  41.835  21.676  12.015
17009W        W80568  33.986   2.831  13.989
17010W        W80569  19.274   4.776  11.599
17011W        W80570  27.057  33.398  14.766
17012W        W80571  39.003  38.943   0.340
17013W        W80572   8.708  33.001  13.399
17014W        W80573  20.172  14.707  12.909
17015W        W80574  18.182  17.689   2.293
17016W        W80575  18.563  31.917   2.221
17017W        W80576   5.791  10.758  10.573
17018W        W80577  36.402  36.397   4.706
17019W        W80578   2.423  32.448   1.795
17020W        W80579  30.521  10.637   1.782
17021W        W80580  19.725  44.483   1.243
17022W        W80581  33.888  37.559   5.186
17023W        W80582  39.385  26.505   1.447
17024W        W80583   9.235   8.703  13.824
17025W        W80584  10.804  14.832  12.958
17026W        W80585  44.892   7.220  11.577
17027W        W80586   0.944  41.397   3.371
17028W        W80587   4.942  16.263  13.032
17029W        W80588  43.773  26.596   0.787
17030W        W80589  20.622  15.184   1.231
17031W        W80590  38.465   7.303  11.904
17032W        W80591   6.223   2.905   0.429
17033W        W80592  24.513  41.913   3.747
17034W        W80593  24.056  24.030   2.416
17035W        W80594   7.234  10.793  12.520
17036W        W80595  33.416  27.014  13.866
17037W        W80596   0.396   1.763  11.522
17038W        W80597   8.676  25.503   1.281
17039W        W80598  31.044   5.923   1.915
17040W        W80599  12.204  44.285  10.568
17041W        W80600   9.277  12.136   5.794
17042W        W80601  36.956  32.896   0.388
17043W        W80602  44.002  16.585   2.684
17044W        W80603  33.933  33.457   2.373
17045W        W80604  35.083  25.207   4.826
17046W        W80605  22.015   7.810  14.993
17047W        W80606  38.393  32.037   3.362
17048W        W80607   7.415  22.056  13.480
17049W        W80608  27.145   8.856   2.284
17050W        W80609  32.568  36.959   5.659
17051W        W80610  32.015  25.992   2.257
17052W        W80611  11.732  32.080  12.832
17053W        W80612  13.256  22.084   0.410
17054W        W80613  14.795  24.221   1.732
17055W        W80614   3.220   8.220  13.995
17056W        W80615  32.410  35.479  14.796
17057W        W80616  22.207  32.916   4.327
17058W        W80617  32.042  41.841   0.317
17059W        W80618  39.999  25.108   0.413
17060W        W80619  29.089  12.770   3.180
17061W        W80620   1.947  25.201  13.340
17062W        W80621  24.673  19.161   1.382
17063W        W80622  24.121  23.236   0.813
17064W        W80623  10.875   1.407   4.814
17065W        W80624  20.528  41.042   0.395
17066W        W80625  32.443   8.803  10.902
17067W        W80626  31.135  33.116  13.821
17068W        W80627  36.530  42.810  11.548
17069W        W80628  23.141  17.105  12.976
17070W        W80629   2.287   8.844   0.902
17071W        W80630  38.329  32.954   1.377
17072W        W80631  42.970   9.321  12.576
17073W        W80632  36.041  25.609  14.017
17074W        W80633  11.700  29.445   1.360
17075W        W80634  20.266   6.714  10.514
17076W        W80635   9.261  23.025  12.378
17077W        W80636   1.424  19.647   4.170
17078W        W80637  14.300  42.347   3.265
17079W        W80638  40.423  19.637  11.091
17080W        W80639  20.551  31.006   3.163
17081W        W80640   5.297  13.743  12.572
17082W        W80641   6.817   4.866  14.299
17083W        W80642  38.979   6.742   3.261
17084W        W80643  27.946  24.715  10.617
17085W        W80644  17.145  35.495  11.450
17086W        W80645  35.049  21.538   2.249
17087W        W80646   9.276  21.601  12.888
17088W        W80647  39.886  21.562  12.529
17089W        W80648  42.869  30.948   4.653
17090W        W80649  32.565  30.558  12.901
17091W        W80650  37.838   3.809   4.753
17092W        W80651  22.201   2.874   0.382
17093W        W80652  36.959  16.647  10.941
17094W        W80653  40.302   5.833  13.819
17095W        W80654  23.137  41.406   4.776
17096W        W80655   1.815  16.275   0.389
17097W        W80656  34.571  42.526  14.339
17098W        W80657  36.902   1.738  11.583
17099W        W80658  20.046  42.418   2.233
17100W        W80659   1.916  42.822   0.948
17101W        W80660  28.539  33.080  11.029
17102W        W80661   8.749   4.407   3.638
17103W        W80662   1.878  31.936  13.532
17104W        W80663   7.346  33.608   1.349
17105W        W80664  35.576  14.214   2.858
17106W        W80665  14.766  15.102   0.851
17107W        W80666  13.331  18.060   5.292
17108W        W80667  31.409  44.337   0.351
17109W        W80668  12.329   5.327   0.935
17110W        W80669  43.009  16.264  10.935
17111W        W80670  21.167  13.805  11.608
17112W        W80671  16.627  36.900  12.415
17113W        W80672  33.539  17.300   4.656
17114W        W80673  20.222  23.130   2.791
17115W        W80674   2.373   3.440   3.241
17116W        W80675  21.153   0.487   1.378
17117W        W80676  44.323  37.366   2.826
17118W        W80677  30.993  24.588  12.850
17119W        W80678  33.422  23.193  13.977
17120W        W80679  32.102   6.802  14.988
17121W        W80680  23.517  13.843   2.275
17122W        W80681   1.902  24.666  14.487
17123W        W80682  19.615  20.044  11.543
17124W        W80683  33.060  39.394   1.905
17125W        W80684   8.743  18.681   3.833
17126W        W80685  18.215  21.589   2.295
17127W        W80686  39.808  30.961  12.094
17128W        W80687  39.940  25.190   3.721
17129W        W80688   6.790  21.101   4.623
17130W        W80689   1.741  36.377   4.263
17131W        W80690   6.350  14.288   3.370
17132W        W80691   9.361  29.628   3.360
17133W        W80692  25.071  34.557  12.914
17134W        W80693  23.174  22.733  10.968
17135W        W80694  34.409  17.190  12.841
17136W        W80695  11.668  36.444  14.494
17137W        W80696  24.481  18.055   3.224
17138W        W80697  24.216  20.699  13.042
17139W        W80698   4.928  32.405   2.254
17140W        W80699  40.879  41.988  13.512
17141W        W80700   4.785  23.582   3.813
17142W        W80701  38.044  21.123   3.250
17143W        W80702  12.736  27.473  11.098
17144W        W80703  40.893  36.507  13.918
17145W        W80704   2.268  44.466   9.945
17146W        W80705  33.982  20.651  12.504
17147W        W80706   3.272  19.587  11.593
17148W        W80707   6.789  19.056  13.892
17149W        W80708  25.203  44.398  14.399
17150W        W80709  41.946   0.440   1.752
17151W        W80710  19.769  28.556  13.056
17152W        W80711  31.112  27.183  13.354
17153W        W80712  20.248   7.244   4.669
17154W        W80713  18.235  27.455  11.502
17155W        W80714  39.868   1.412   4.249
17156W        W80715  26.501  14.618   4.196
17157W        W80716   4.308  32.012   2.670
17158W        W80717  40.024  15.250   3.752
17159W        W80718  10.225   4.793   1.786
17160W        W80719  21.222  11.358  10.038
17161W        W80720  39.829  35.416   3.864
17162W        W80721   1.260  19.067   0.382
17163W        W80722  41.425  22.100   3.633
17164W        W80723  18.671  38.990  13.994
17165W        W80724  28.172  30.656  13.507
17166W        W80725  36.097  36.563  14.896
17167W        W80726  13.155  42.880   5.093
17168W        W80727  21.667   6.722   1.293
17169W        W80728  44.374  41.316  11.387
17170W        W80729  23.156  40.942  14.973
17171W        W80730   7.717  12.340  11.478
17172W        W80731  35.984  15.319  14.787
17173W        W80732  27.172  43.513   0.931
17174W        W80733   7.889   3.856  11.491
17175W        W80734  20.251  26.643  13.387
17176W        W80735  31.062   2.250  13.532
17177W        W80736  22.048  34.502  13.954
17178W        W80737  41.486  21.530   2.323
17179W        W80738  29.031  27.101  11.387
17180W        W80739  38.520   1.844   0.772
17181W        W80740  22.101  24.680   1.764
17182W        W80741   6.401  38.074   3.253
17183W        W80742   2.901  34.961   4.780
17184W        W80743  37.053   3.771  10.635
17185W        W80744  13.307  16.212   1.843
17186W        W80745  14.812  41.366   1.823
17187W        W80746   2.281  28.186  10.032
17188W        W80747  33.963  41.383  14.425
17189W        W80748  20.707  43.955  14.319
17190W        W80749  39.506  28.057   1.912
17191W        W80750  31.052  36.893   1.294
17192W        W80751  16.213   1.478  14.766
17193W        W80752  24.492  43.846  14.513
17194W        W80753  36.035   1.776  13.044
17195W        W80754  28.549  34.993   3.858
17196W        W80755  16.267  17.795  12.501
17197W        W80756  43.881  12.679  10.594
17198W        W80757   6.220  33.013   2.765
17199W        W80758  21.691  31.600   4.142
17200W        W80759  10.250  27.990  10.441
17201W        W80760   2.859   6.686   2.688
17202W        W80761  24.662  15.793   4.202
17203W        W80762  31.983  37.351   5.210
17204W        W80763  34.382   2.799   3.320
17205W        W80764  18.566  26.096  13.976
17206W        W80765   5.906  35.867  11.466
17207W        W80766  12.837  12.188  10.486
17208W        W80767  17.230   2.376  13.854
17209W        W80768   2.819  28.681  10.558
17210W        W80769  23.193   7.782   4.116
17211W        W80770  40.972  34.605  13.445
17212W        W80771  28.649  27.482   4.680
17213W        W80772  27.002  32.411   1.309
17214W        W80773  15.683  15.257  10.430
17215W        W80774  11.644  14.716   4.666
17216W        W80775   5.427  44.444   3.246
17217W        W80776  29.092  11.708   0.392
17218W        W80777  44.808  32.499  13.339
17219W        W80778  26.183   7.767   4.252
17220W        W80779  25.110  11.859  13.790
17221W        W80780  25.994  13.162  13.855
17222W        W80781  23.542  30.961   2.200
17223W        W80782  37.891  42.476   3.292
17224W        W80783  36.385   8.249   4.684
17225W        W80784  20.537  34.446   3.631
17226W        W80785  44.771  18.101   2.255
17227W        W80786  30.152  31.601  12.887
17228W        W80787  11.810  36.551   0.777
17229W        W80788  38.037   5.337  12.914
17230W        W80789  15.738   1.964  12.062
17231W        W80790  15.270  34.039  14.483
17232W        W80791   6.913  44.929   2.358
17233W        W80792  19.543  13.844   2.263
17234W        W80793  17.620  21.068  12.932
17235W        W80794  36.557  41.303   0.747
17236W        W80795  11.637  34.574   2.282
17237W        W80796  38.532  31.137   2.854
17238W        W80797  37.886  39.878  10.903
17239W        W80798  10.139  36.412  11.865
17240W        W80799  24.480  25.642   1.896
17241W        W80800  35.052   4.783   3.709
17242W        W80801  32.626  14.751  10.452
17243W        W80802   6.403  42.426   1.279
17244W        W80803  33.976  39.855  11.980
17245W        W80804  28.660  25.111   4.803
17246W        W80805   8.243   3.797   3.235
17247W        W80806  43.855  14.818  11.913
17248W        W80807   5.727  25.654   0.929
17249W        W80808  37.003   7.308   0.921
17250W        W80809  10.242   8.210  11.017
17251W        W80810  36.383  27.589  12.080
17252W        W80811  22.537  33.884   0.954
17253W        W80812  25.152  12.301   3.286
17254W        W80813  42.438  33.019   4.248
17255W        W80814   6.251  25.595   2.882
17256W        W80815  20.742  43.438  12.541
17257W        W80816  39.365  44.764   0.776
17258W        W80817  17.281  42.486  10.513
17259W        W80818  18.753   9.294   3.671
17260W        W80819  23.147  13.330  11.884
17261W        W80820  42.006   5.714   1.281
17262W        W80821  42.422  42.836  11.592
17263W        W80822  26.519  14.290  14.463
17264W        W80823  31.925  11.224  10.154
17265W        W80824  26.626  19.614  14.452
17266W        W80825  18.612  14.734   3.284
17267W        W80826  24.198  14.805  11.128
17268W        W80827  14.738  24.127   0.368
17269W        W80828  10.788  38.052   2.217
17270W        W80829  29.510  23.568   9.941
17271W        W80830  30.911   2.238   2.298
17272W        W80831  31.135   1.312  12.849
17273W        W80832  29.568  25.713  11.899
17274W        W80833  44.807  38.056   4.802
17275W        W80834  44.474  40.030  12.846
17276W        W80835  14.732   4.916  11.584
17277W        W80836  10.831   4.228   3.237
17278W        W80837  20.643  31.090   2.772
17279W        W80838  24.046  29.466   0.927
17280W        W80839  11.367  44.407   2.757
17281W        W80840  32.619   3.401   2.346
17282W        W80841  33.953  21.715   3.856
17283W        W80842  13.352   6.321   1.935
17284W        W80843  26.553  39.557  13.527
17285W        W80844  33.102   4.761  12.879
17286W        W80845  17.133   3.823   4.664
17287W        W80846  22.205   4.261  14.988
17288W        W80847  42.884  37.987   4.717
17289W        W80848  25.189  28.489  14.866
17290W        W80849   0.423  27.161  12.836
17291W        W80850  25.668  26.168  10.403
17292W        W80851  29.452  43.017   2.836
17293W        W80852  34.102   0.392   0.298
17294W        W80853  29.515  14.101  10.588
17295W        W80854   7.751  25.981  13.901
17296W        W80855  44.310  29.462  11.424
17297W        W80856  14.273  36.081   0.460
17298W        W80857  23.066  24.687   4.769
17299W        W80858   4.936  21.179   4.683
17300W        W80859  20.248  12.199   2.699
17301W        W80860  41.436  17.702   0.828
17302W        W80861   4.432  23.154   1.930
17303W        W80862  23.560   0.287   2.316
17304W        W80863  18.224  16.729   1.869
17305W        W80864  22.669   4.927  12.429
17306W        W80865  44.285   4.448   4.659
17307W        W80866   3.739   2.360  12.362
17308W        W80867  11.267  40.496  11.460
17309W        W80868  38.417  16.660   4.240
17310W        W80869  37.012  24.542   3.288
17311W        W80870   5.914  23.653   2.858
17312W        W80871   9.649   5.805  10.486
17313W        W80872  40.926   6.810   3.272
17314W        W80873  15.648   8.834   1.357
17315W        W80874   7.874  25.050  13.030
17316W        W80875   7.879  16.262  13.866
17317W        W80876  38.334  38.821  13.472
17318W        W80877  10.792   9.793  14.800
17319W        W80878  25.985  34.463  10.417
17320W        W80879  23.166   4.895  12.887
17321W        W80880  13.684  44.426   0.963
17322W        W80881  18.559  26.683   5.152
17323W        W80882  41.307   8.692  13.004
17324W        W80883   7.256  26.516  12.867
17325W        W80884  22.615   5.904   3.807
17326W        W80885  16.249  30.102   3.804
17327W        W80886  29.098  21.750  11.912
17328W        W80887  32.023   2.346  13.523
17329W        W80888  17.157  31.623  11.964
17330W        W80889  31.979  33.614   1.416
17331W        W80890   5.878   4.783   1.702
17332W        W80891  39.527   8.872   1.826
17333W        W80892  38.941  37.501  12.839
17334W        W80893  41.396  25.659  13.993
17335W        W80894   6.726  13.197   0.356
17336W        W80895   2.380  35.067  12.477
17337W        W80896  29.556  40.033  12.903
17338W        W80897  20.154  31.644   1.346
17339W        W80898  26.966  29.059   0.875
17340W        W80899  10.844  40.041  11.861
17341W        W80900  31.902  10.299   2.195
17342W        W80901  31.005  35.025   3.810
17343W        W80902  40.025  35.558  13.505
17344W        W80903  40.892   4.893   1.346
17345W        W80904  33.626  20.760   1.707
17346W        W80905  26.515   0.454  11.562
17347W        W80906  41.303   5.228   0.475
17348W        W80907   2.958  20.113  11.382
17349W        W80908   6.870   2.833   2.692
17350W        W80909   2.433  16.177  11.871
17351W        W80910  18.091  16.300  14.447
17352W        W80911  11.786  27.058   1.842
17353W        W80912  27.630   6.803   3.651
17354W        W80913  27.960  27.135   0.966
17355W        W80914  39.432  29.452  14.899
17356W        W80915  32.038  35.541  14.410
17357W        W80916  34.986  10.860   0.923
17358W        W80917  29.921  25.602  12.500
17359W        W80918  11.223  24.021  12.465
17360W        W80919  33.059  37.566   3.149
17361W        W80920  37.502  20.539   0.945
17362W        W80921  43.854  16.163   2.207
17363W        W80922  31.107   7.737   4.352
17364W        W80923  32.920  25.503   0.244
17365W        W80924  18.746  14.187   0.796
17366W        W80925  36.849   7.408   1.846
17367W        W80926  20.564  15.813  12.064
17368W        W80927  34.881   0.755  12.961
17369W        W80928  39.927  22.694  11.376
17370W        W80929  11.648  37.462  13.022
17371W        W80930  14.247  16.712   2.836
17372W        W80931  27.569  26.674   3.863
17373W        W80932   4.430  34.391   3.839
17374W        W80933  24.029  24.612  14.888
17375W        W80934  19.260  17.690  13.465
17376W        W80935  28.997   9.764  14.358
17377W        W80936  25.555  15.785  11.582
17378W        W80937  39.896  31.454   0.804
17379W        W80938  13.823  16.758   0.467
17380W        W80939  28.158   8.880  10.042
17381W        W80940  43.449  44.453  10.933
17382W        W80941  18.144   1.807   1.391
17383W        W80942  29.978   8.771   4.631
17384W        W80943  22.243  30.656   0.765
17385W        W80944   7.179  12.696  13.433
17386W        W80945  36.535   4.776   3.815
17387W        W80946  14.737  18.296   1.402
17388W        W80947  12.734  15.202   0.281
17389W        W80948  36.558  24.074  14.905
17390W        W80949  34.895   0.982  11.513
17391W        W80950  39.502   5.345   1.888
17392W        W80951   3.756  42.846  14.364
17393W        W80952   6.803  19.590  10.638
17394W        W80953  11.186  19.636   4.175
17395W        W80954  13.652   4.844   3.147
17396W        W80955  19.182  12.634  11.528
17397W        W80956  25.505  29.040   5.103
17398W        W80957  40.506  18.106   2.205
17399W        W80958  14.182  19.611   1.902
17400W        W80959  21.229  33.411   0.886
17401W        W80960   9.814  38.543   3.756
17402W        W80961   9.307  26.203   2.334
17403W        W80962  33.042  22.556  10.422
17404W        W80963  19.756  35.978  12.983
17405W        W80964  22.046   7.248  10.933
17406W        W80965   4.897  19.557  10.602
17407W        W80966  38.361  17.259   3.290
17408W        W80967  42.344   2.922   3.328
17409W        W80968  24.202  30.563   3.801
17410W        W80969   6.854  30.112   1.782
17411W        W80970  36.900  36.367   4.653
17412W        W80971  43.803  10.288   3.238
17413W        W80972  33.429   7.838  12.078
17414W        W80973  29.013  25.522  12.027
17415W        W80974   3.359  40.943  13.973
17416W        W80975  39.977  24.613  11.080
17417W        W80976  25.693  24.098  12.955
17418W        W80977  38.416   8.701   1.396
17419W        W80978  24.001  27.664  11.925
17420W        W80979   4.711   8.694  12.059
17421W        W80980  21.036  18.216   4.811
17422W        W80981  22.172  40.449  14.951
17423W        W80982   7.207   1.384  11.031
17424W        W80983  19.079   5.749  10.594
17425W        W80984  32.501   1.417  10.458
17426W        W80985  18.171  25.994  14.792
17427W        W80986  32.024  40.368   3.812
17428W        W80987   3.749   1.764   3.241
17429W        W80988  20.557  28.972  11.475
17430W        W80989   1.966   2.301   0.425
17431W        W80990  30.421  14.671  13.824
17432W        W80991  19.539  16.678   4.351
17433W        W80992   7.416  25.592   1.263
17434W        W80993  36.456  22.095  13.473
17435W        W80994  30.935  33.475   3.228
17436W        W80995   6.389  17.252  11.484
17437W        W80996  17.770   4.420   4.285
17438W        W80997  42.996  28.447   4.183
17439W        W80998  36.567  40.956  11.085
17440W        W80999   4.919  39.546  10.542
17441W        W81000   6.398   1.959  11.518
17442W        W81001  31.452  31.462  14.419
17443W        W81002  24.065  14.217   1.795
17444W        W81003  22.732  43.942   3.155
17445W        W81004  14.330  19.669  12.035
17446W        W81005  22.084  40.517   4.330
17447W        W81006  12.843   8.739   4.333
17448W        W81007  43.314  10.247  11.118
17449W        W81008   5.342   8.707   1.783
17450W        W81009   7.410  10.783  12.833
17451W        W81010  23.094  40.353  12.894
17452W        W81011  16.655  33.459  14.024
17453W        W81012  18.754  36.556  10.950
17454W        W81013   8.679  16.226  12.033
17455W        W81014   8.236  37.491   1.726
17456W        W81015  40.355  24.123  11.577
17457W        W81016   6.231  33.522   5.264
17458W        W81017  16.116  32.407  13.051
17459W        W81018   2.228   9.809  11.592
17460W        W81019   7.823  16.232  14.467
17461W        W81020  14.690   2.453  14.813
17462W        W81021  26.014   6.220   2.265
17463W        W81022   3.262  21.057  14.930
17464W        W81023  24.576   2.734  14.874
17465W        W81024   3.334   9.878   4.306
17466W        W81025   9.161  19.666   0.830
17467W        W81026  43.314   0.468  10.516
17468W        W81027  40.332  10.200  12.358
17469W        W81028  38.953  15.209  10.535
17470W        W81029  23.017  42.405   3.868
17471W        W81030  38.933  44.906   2.715
17472W        W81031  43.911   3.223  10.489
17473W        W81032  39.901  30.452  13.341
17474W        W81033  11.662  22.537   5.108
17475W        W81034  41.858  21.753  10.433
17476W        W81035  27.614   4.772   1.802
17477W        W81036  17.636  16.730  14.295
17478W        W81037  16.568   6.257  14.435
17479W        W81038  20.602  17.242   4.203
17480W        W81039  19.254  11.626   3.818
17481W        W81040  11.696  20.534  14.493
17482W        W81041   3.422  36.987   0.854
17483W        W81042  24.156  21.103   1.232
17484W        W81043  13.349  36.566  12.880
17485W        W81044  17.164  21.122   4.815
17486W        W81045  30.095  38.528   4.192
17487W        W81046  22.593  31.922   3.732
17488W        W81047   4.252  14.699  11.016
17489W        W81048   0.394  23.606  13.361
17490W        W81049  29.435  23.202   5.781
17491W        W81050  27.191  40.031   1.400
17492W        W81051  37.400  18.725  12.075
17493W        W81052  37.830  34.011  11.576
17494W        W81053  16.314  29.614  13.018
17495W        W81054  31.123  42.981   3.689
17496W        W81055  29.037   4.775  13.980
17497W        W81056  10.226  39.546   2.224
17498W        W81057  18.212  29.074  14.493
17499W        W81058  14.622  24.046   0.927
17500W        W81059  15.199  15.287  14.493
17501W        W81060  34.424  23.013   1.892
17502W        W81061  33.909  30.526   4.803
17503W        W81062  19.714   4.723  13.837
17504W        W81063   2.380  24.998   2.243
17505W        W81064   0.949  15.583  13.340
17506W        W81065  27.179  30.578  12.474
17507W        W81066  11.307  31.118  13.538
17508W        W81067   0.342  41.921   4.287
17509W        W81068  36.522  43.421  13.462
17510W        W81069   4.433  44.910   3.760
17511W        W81070   7.778  10.269   1.890
17512W        W81071  20.608  40.522   1.452
17513W        W81072  32.543  10.186  10.626
17514W        W81073  14.197  38.921  11.541
17515W        W81074  42.994  15.699  14.406
17516W        W81075  38.829  10.260  13.491
17517W        W81076  11.763   5.196  13.461
17518W        W81077  38.472  38.966   2.875
17519W        W81078  38.844  21.186   5.299
17520W        W81079   4.421  34.538  14.883
17521W        W81080  18.178  28.162   1.270
17522W        W81081  39.862  37.942   4.751
17523W        W81082  36.890   0.349   0.858
17524W        W81083  18.057   5.417  12.858
17525W        W81084   5.712  11.714   4.140
17526W        W81085  26.171  44.820  10.487
17527W        W81086  11.163   5.877   3.253
17528W        W81087  39.896  21.654   0.314
17529W        W81088  19.283  29.022  13.432
17530W        W81089  28.517  33.979   4.617
17531W        W81090  34.071  13.773  12.874
17532W        W81091  39.465  24.984  13.340
17533W        W81092  13.159  41.315   5.117
17534W        W81093  35.063   4.771  10.008
17535W        W81094  10.362  14.326  11.593
17536W        W81095  17.181  18.649  11.965
17537W        W81096  18.669  26.105  10.429
17538W        W81097   9.890   3.300   4.192
17539W        W81098  32.911  26.197   4.622
17540W        W81099   4.925  26.167  10.990
17541W        W81100  42.928  33.124  11.965
17542W        W81101  27.119  26.520   0.855
17543W        W81102  35.554  20.747  14.308
17544W        W81103  16.663   6.846  11.950
17545W        W81104   0.402  19.128   4.734
17546W        W81105  25.106  21.181   4.268
17547W        W81106  44.789  32.419  11.032
17548W        W81107   6.408  28.046   2.388
17549W        W81108   3.295  18.240   0.290
17550W        W81109  10.780  11.857  11.995
17551W        W81110  20.224  10.737   3.319
17552W        W81111  20.100  37.024   0.869
17553W        W81112  37.068  25.115   0.746
17554W        W81113  30.423   5.193   3.864
17555W        W81114  35.394  34.978  12.015
17556W        W81115  21.679   9.178   2.806
17557W        W81116   6.291   3.263   4.791
17558W        W81117  18.694  32.893  14.344
17559W        W81118  10.174  11.810   0.794
17560W        W81119  36.575  34.926  12.823
17561W        W81120  33.589  29.070  13.479
17562W        W81121  34.879  11.846   3.300
17563W        W81122   3.724  19.254  11.871
17564W        W81123  12.721   0.381   1.818
17565W        W81124   0.853  20.084  13.971
17566W        W81125  18.278  33.537  10.987
17567W        W81126  21.709  42.394  13.892
17568W        W81127  23.715  28.502  12.959
17569W        W81128  19.611  26.690   3.774
17570W        W81129  19.572  44.305  14.925
17571W        W81130  32.993   9.348   0.951
17572W        W81131   1.866   2.235   3.642
17573W        W81132  34.913  42.470  12.912
17574W        W81133  17.199  12.664  14.951
17575W        W81134  29.141   5.919  12.474
17576W        W81135  44.908   2.936   2.737
17577W        W81136  28.670   7.794   1.878
17578W        W81137  42.331  26.961   4.123
17579W        W81138  15.283  23.060   1.361
17580W        W81139  39.989  35.987   1.762
17581W        W81140  32.006   5.319  12.971
17582W        W81141   8.219  39.499  12.006
17583W        W81142  21.713  42.412  11.953
17584W        W81143  22.065  23.608  13.030
17585W        W81144  35.012  41.451   4.598
17586W        W81145  15.701  23.151  10.969
17587W        W81146  44.972  24.548  11.585
17588W        W81147  11.626  24.659   5.115
17589W        W81148  11.661  39.504  11.068
17590W        W81149  14.643  18.674  13.838
17591W        W81150  19.275  12.180  14.419
17592W        W81151  33.884  27.492  13.952
17593W        W81152  42.307  25.102   3.637
17594W        W81153  32.090  17.265   4.120
17595W        W81154   3.344  43.378  12.520
17596W        W81155  18.205  10.846  12.576
17597W        W81156  11.844   7.370   3.729
17598W        W81157   0.335  34.982  14.015
17599W        W81158  42.284  40.051  10.631
17600W        W81159   1.947   5.877  11.409
17601W        W81160  27.049  29.649   3.263
17602W        W81161  29.939  23.175   1.785
17603W        W81162  38.936  20.168  13.514
17604W        W81163   5.243  18.552  13.862
17605W        W81164  19.236  26.659  14.803
17606W        W81165  32.999  40.400   4.306
17607W        W81166  32.040   0.948   0.468
17608W        W81167  15.147  36.540   4.292
17609W        W81168   8.350  22.647   4.169
17610W        W81169  13.233  39.494  11.011
17611W        W81170  10.325   0.952  13.536
17612W        W81171   4.917   3.894  10.404
17613W        W81172  39.980  32.535  13.938
17614W        W81173   5.704  22.068  14.021
17615W        W81174  20.059  38.995   3.779
17616W        W81175  25.708   4.397   3.684
17617W        W81176  17.563  29.963   0.827
17618W        W81177   8.276  39.335  13.346
17619W        W81178  13.713  44.271  12.058
17620W        W81179  22.622   4.260   3.630
17621W        W81180  25.148  22.124  13.036
17622W        W81181  19.776  36.963   3.366
17623W        W81182  27.573  32.109  12.958
17624W        W81183  44.778  13.749   1.441
17625W        W81184  29.643  25.021  14.393
17626W        W81185   3.922  42.933  10.941
17627W        W81186  27.141   5.292  11.484
17628W        W81187   9.393   3.914  13.027
17629W        W81188  38.440  26.015  12.845
17630W        W81189  44.340  24.566   4.281
17631W        W81190  22.732  41.355   5.084
17632W        W81191  34.577  13.322   3.150
17633W        W81192   9.868  14.121   3.783
17634W        W81193  27.457  22.632  10.081
17635W        W81194  10.842  39.990   0.371
17636W        W81195  44.878  42.416   2.364
17637W        W81196  18.097  20.704  13.916
17638W        W81197  42.903   9.783  12.541
17639W        W81198   7.777  26.545  11.456
17640W        W81199   5.753  36.036   0.411
17641W        W81200  32.907   5.405   0.958
17642W        W81201  36.392   9.817   1.831
17643W        W81202  15.236  10.853  13.035
17644W        W81203  17.641  27.018   3.640
17645W        W81204  13.163  10.252   1.747
17646W        W81205  10.741  38.850   3.655
17647W        W81206   0.385   4.370  12.351
17648W        W81207  26.490   4.922  11.864
17649W        W81208  30.050  31.966   3.676
17650W        W81209  39.899  16.110  12.456
17651W        W81210   4.717  35.075   2.248
17652W        W81211  13.295  32.131  13.541
17653W        W81212  15.607  10.876  12.394
17654W        W81213  29.461   0.266   0.824
17655W        W81214  34.037  21.755  13.964
17656W        W81215  43.285  43.017  10.542
17657W        W81216  26.576  29.065  11.466
17658W        W81217   2.378  21.753   0.788
17659W        W81218   2.451  36.032   1.854
17660W        W81219   3.856  40.381  13.380
17661W        W81220  37.508   1.238   0.460
17662W        W81221  11.780  11.296  11.472
17663W        W81222  40.392  37.841  11.022
17664W        W81223  29.614  25.990  13.022
17665W        W81224  36.509  22.523   3.661
17666W        W81225   7.180  37.446  14.493
17667W        W81226  38.374  39.998  10.590
17668W        W81227  11.128  12.192  14.021
17669W        W81228  31.459  23.528  14.894
17670W        W81229  26.507  11.218  12.401
17671W        W81230  13.624   4.839  10.547
17672W        W81231  15.314  11.191  12.360
17673W        W81232   9.790  42.307  11.127
17674W        W81233  31.616  31.148   0.413
17675W        W81234  12.685  41.430   1.762
17676W        W81235  14.130   5.309  13.322
17677W        W81236  41.344  20.662  11.607
17678W        W81237  33.549  18.613  12.515
17679W        W81238  21.183   3.429   1.350
17680W        W81239   0.487  37.494   4.196
17681W        W81240  37.440   4.773   2.274
17682W        W81241  24.579  20.543   0.882
17683W        W81242  11.728   3.929   3.794
17684W        W81243   6.854   5.918  11.382
17685W        W81244  21.098  29.038  14.296
17686W        W81245   3.361  35.370   0.353
17687W        W81246   2.432  41.884  13.399
17688W        W81247  16.611  34.564  13.807
17689W        W81248   9.186  44.451  12.931
17690W        W81249  38.377  22.085   0.843
17691W        W81250  13.204  25.989  12.002
17692W        W81251   6.336  10.744  11.501
17693W        W81252  26.601  39.492   4.150
17694W        W81253  16.791  20.627  14.329
17695W        W81254  13.158   2.343  14.868
17696W        W81255  22.086  41.449  11.952
17697W        W81256  19.160  22.658  13.875
17698W        W81257  25.701  13.193  13.916
17699W        W81258   2.860  16.632   0.285
17700W        W81259  33.409  29.012   0.848
17701W        W81260  14.814  13.661   4.712
17702W        W81261  44.436  33.609  12.955
17703W        W81262   8.883  34.594   4.720
17704W        W81263  21.550  28.581  14.777
17705W        W81264  16.736  22.665  13.502
17706W        W81265   0.458  11.159  11.536
17707W        W81266  23.191   4.375   4.337
17708W        W81267  29.965   9.792   3.185
17709W        W81268  20.159   2.296   3.194
17710W        W81269   9.312   2.836  11.996
17711W        W81270  20.233  34.030   3.245
17712W        W81271  32.599  13.770   3.642
17713W        W81272  44.860  22.031  13.826
17714W        W81273  32.570   4.743  14.514
17715W        W81274  42.323  39.933  14.991
17716W        W81275  35.028  29.027   2.876
17717W        W81276  36.993   3.816  11.442
17718W        W81277  12.138  33.919  14.803
17719W        W81278   5.375  34.425   1.775
17720W        W81279  38.050  43.810   0.482
17721W        W81280  17.170  44.497  10.931
17722W        W81281  35.396  10.841  13.327
17723W        W81282  26.018  25.536   1.742
17724W        W81283   9.814   1.358   0.899
17725W        W81284   3.767  23.223   2.264
17726W        W81285  17.086   4.228   3.155
17727W        W81286  12.260  10.814  10.543
17728W        W81287  29.922  27.674   2.858
17729W        W81288  36.505   1.860  12.016
17730W        W81289  24.154  43.819   1.283
17731W        W81290   6.861  33.547  12.502
17732W        W81291  13.729  29.501   2.739
17733W        W81292  44.850   5.310   1.740
17734W        W81293   2.721  35.446  14.814
17735W        W81294  33.096  18.790  11.604
17736W        W81295  34.557  40.866   0.830
17737W        W81296  11.154  26.123  13.548
17738W        W81297   8.752   6.231   0.375
17739W        W81298   0.983  38.963  12.478
17740W        W81299  23.678  12.209  10.133
17741W        W81300   7.346  27.156   4.608
17742W        W81301  17.785  21.045   1.349
17743W        W81302  39.529  23.500  11.102
17744W        W81303   5.788  20.555   4.210
17745W        W81304   3.445  32.552  14.310
17746W        W81305   7.242   2.847   0.791
17747W        W81306  13.177  33.412   2.194
17748W        W81307  24.610  18.262  14.922
17749W        W81308   6.840   5.926   3.671
17750W        W81309  19.195  38.011  12.987
17751W        W81310   1.337  25.699  11.880
17752W        W81311   1.426  43.018   0.358
17753W        W81312  16.633  41.419   4.670
17754W        W81313   0.390   3.802   1.882
17755W        W81314   8.253  12.734   4.174
17756W        W81315  28.648  39.953  11.045
17757W        W81316  36.998  24.716  13.934
17758W        W81317  32.464  21.634  13.384
17759W        W81318  15.148  11.164  11.089
17760W        W81319  33.114  11.307   1.292
17761W        W81320  21.226   9.208  14.929
17762W        W81321   8.813   5.829  14.972
17763W        W81322   7.675  16.792   0.846
17764W        W81323  32.432  37.542  12.917
17765W        W81324  13.329  16.736  12.968
17766W        W81325  38.993   0.950  13.002
17767W        W81326  41.471  17.160   0.741
17768W        W81327  16.595  28.997   3.295
17769W        W81328  41.814  16.710   3.223
17770W        W81329  31.934  42.379   1.752
17771W        W81330  25.501  38.997  12.890
17772W        W81331  17.283  32.139   2.409
17773W        W81332  21.576   4.813   1.878
17774W        W81333   8.406   0.751  11.919
17775W        W81334   7.732  19.044  10.422
17776W        W81335  33.618  26.547  12.339
17777W        W81336  14.307  41.412  14.953
17778W        W81337  41.464  35.040   1.828
17779W        W81338  44.831  22.529  12.350
17780W        W81339  14.588   0.936  14.982
17781W        W81340  20.674  10.382   1.833
17782W        W81341  13.245  42.281  12.492
17783W        W81342  27.137  25.123  11.534
17784W        W81343   2.414   1.743   3.162
17785W        W81344  27.527  36.467  14.808
17786W        W81345  38.885  18.093   5.119
17787W        W81346  37.407   9.854   3.800
17788W        W81347  20.756   9.222   3.782
17789W        W81348  23.984  28.042  12.912
17790W        W81349  38.856  15.790  10.970
17791W        W81350  37.035  28.559   1.834
17792W        W81351  36.546   3.399  10.575
17793W        W81352  26.136  44.346   9.964
17794W        W81353  39.537  22.093   2.261
17795W        W81354  18.181  32.609  12.042
17796W        W81355  27.140  35.990   3.189
17797W        W81356  19.226  34.882  10.609
17798W        W81357  29.081  16.808   2.370
17799W        W81358  34.476   6.315   2.219
17800W        W81359   4.870  27.197   3.337
17801W        W81360  24.711  15.774  14.346
17802W        W81361  21.667  20.265  11.095
17803W        W81362   7.302  41.528   4.311
17804W        W81363   8.308  21.036  12.401
17805W        W81364  38.895  39.044   1.896
17806W        W81365  39.463  17.593   4.805
17807W        W81366   6.210  39.402  13.966
17808W        W81367   0.951  36.974  13.512
17809W        W81368  27.642   1.964   3.789
17810W        W81369  19.636  41.803  14.511
17811W        W81370  44.949  35.957  13.822
17812W        W81371  32.482   0.862   9.980
17813W        W81372   7.384  26.035  14.842
17814W        W81373  10.148   8.694   3.792
17815W        W81374  21.557  24.108   3.719
17816W        W81375   8.292   5.337   4.600
17817W        W81376  16.115  37.848  12.825
17818W        W81377   8.694   2.405   0.436
17819W        W81378  30.520  17.715   3.655
17820W        W81379  17.187  26.118   1.426
17821W        W81380  15.668  35.866  12.005
17822W        W81381  11.857   1.960  11.034
17823W        W81382  28.039  18.129  13.007
17824W        W81383  12.121  32.576   1.824
17825W        W81384  27.957  12.187  12.931
17826W        W81385   0.302   2.966   1.410
17827W        W81386  11.695   0.343  11.379
17828W        W81387   3.423   4.305   4.767
17829W        W81388  21.581  40.349  14.368
17830W        W81389   8.355  20.265  10.618
17831W        W81390  18.591  44.279  11.034
17832W        W81391   7.197  39.498   3.321
17833W        W81392  14.276   9.231  11.532
17834W        W81393  36.066  18.575  13.840
17835W        W81394  43.463  35.398  13.423
17836W        W81395   6.340  21.566   9.981
17837W        W81396  44.922  28.101   9.945
17838W        W81397  31.596  26.581   2.298
17839W        W81398   0.817   0.902   1.885
17840W        W81399  16.680  37.976  12.045
17841W        W81400  31.572  30.004   2.845
17842W        W81401   9.287  30.439  10.034
17843W        W81402   6.236  38.963  11.377
17844W        W81403  16.599  40.987  10.943
17845W        W81404   1.909   2.900   1.855
17846W        W81405  30.599  18.785   0.820
17847W        W81406  22.630  23.620   1.924
17848W        W81407  42.301  27.181  14.460
17849W        W81408  35.444  22.604   2.877
17850W        W81409  17.607  35.034   3.330
17851W        W81410  36.562   1.416   4.780
17852W        W81411   2.318  37.395   4.798
17853W        W81412   4.736  12.791  13.879
17854W        W81413   6.369  29.076   1.244
17855W        W81414  23.125  38.458  11.129
17856W        W81415  18.776  21.606   4.284
17857W        W81416  41.951  27.542   2.886
17858W        W81417  26.206  32.399   3.824
17859W        W81418  20.668  20.610   4.622
17860W        W81419  19.706   5.397  14.783
17861W        W81420  44.449  33.397   1.808
17862W        W81421  17.796  44.447   1.758
17863W        W81422  26.956  13.117  14.786
17864W        W81423  40.345  12.232  10.432
17865W        W81424  41.391  15.188  13.515
17866W        W81425  33.127  41.958   3.242
17867W        W81426  34.482   8.659   3.265
17868W        W81427  29.002  23.207  12.837
17869W        W81428  25.026  18.081  12.507
17870W        W81429  17.666   8.748   3.796
17871W        W81430  15.787  44.886  12.476
17872W        W81431  20.552  34.542  10.613
17873W        W81432  20.057  25.045  13.340
17874W        W81433   2.899  41.529   2.233
17875W        W81434   0.808   9.390   1.789
17876W        W81435  43.466  13.290   4.328
17877W        W81436  24.681   6.314  14.882
17878W        W81437  15.239  39.827   3.303
17879W        W81438  21.639  43.950   4.316
17880W        W81439  41.866  35.960   5.223
17881W        W81440  16.678  42.377   0.254
17882W        W81441   0.357   7.239  10.503
17883W        W81442  32.011  24.634   4.832
17884W        W81443   7.406  44.782   4.149
17885W        W81444  20.199  24.705   4.302
17886W        W81445  33.529  25.710  11.460
17887W        W81446   2.816  28.570  12.070
17888W        W81447  34.051  22.621  11.522
17889W        W81448  41.832  37.456   3.178
17890W        W81449  11.653  21.748   2.665
17891W        W81450  28.476  24.055   4.830
17892W        W81451   2.247   2.241   1.408
17893W        W81452   0.944  13.780  13.917
17894W        W81453   2.463  22.580   3.702
17895W        W81454  33.450   3.805  13.314
17896W        W81455  11.191  29.139  10.952
17897W        W81456  21.061  16.691  12.555
17898W        W81457   5.357  11.824  11.442
17899W        W81458   6.407  29.590   2.689
17900W        W81459  40.816  37.989   0.417
17901W        W81460  29.109  34.472   1.285
17902W        W81461  27.064   9.150   1.222
17903W        W81462  35.858  21.237   3.846
17904W        W81463  39.376  20.129  11.091
17905W        W81464  42.339  31.903   4.281
17906W        W81465  36.969  23.211  12.408
17907W        W81466  31.977  32.950   1.281
17908W        W81467   2.856  25.137   2.879
17909W        W81468   0.753  10.764  14.289
17910W        W81469  43.507  22.717  13.409
17911W        W81470  28.032  24.995   0.327
17912W        W81471  44.824   3.338   2.716
17913W        W81472  17.258  31.900   4.243
17914W        W81473   1.349   5.394   1.882
17915W        W81474  26.022  26.559  13.818
17916W        W81475  39.949  33.946   4.761
17917W        W81476  17.268  30.583  12.531
17918W        W81477  19.715  40.843  10.422
17919W        W81478  11.746   9.384  12.546
17920W        W81479  31.975  26.006   4.139
17921W        W81480  26.186  20.134  11.885
17922W        W81481  33.080  11.832   2.273
17923W        W81482  21.234  23.116   3.747
17924W        W81483  10.211  37.064   0.831
17925W        W81484  30.572  44.808   1.764
17926W        W81485  14.237  31.993   2.315
17927W        W81486   5.299  19.164  12.552
17928W        W81487  39.960   9.754  11.468
17929W        W81488  21.061   9.376   3.323
17930W        W81489  43.442  26.631   3.283
17931W        W81490  14.602  33.407   4.663
17932W        W81491  16.230  22.006   2.305
17933W        W81492  44.834  25.650  11.042
17934W        W81493  13.633  11.157  12.533
17935W        W81494  32.047  27.151   3.187
17936W        W81495  41.346  28.031   4.204
17937W        W81496   4.842  21.681   0.482
17938W        W81497  43.296  30.935   1.797
17939W        W81498  18.689  12.118   2.412
17940W        W81499  15.802  24.719   1.852
17941W        W81500  40.954  23.648  12.573
17942W        W81501  26.114   9.163   0.798
17943W        W81502  10.765  24.143   3.688
17944W        W81503  43.908  43.869  14.401
17945W        W81504  32.009  30.938   4.599
17946W        W81505  13.151  40.902  11.509
17947W        W81506  21.730  35.452  13.004
17948W        W81507  25.589  34.512  13.332
17949W        W81508  36.412  41.494   4.211
17950W        W81509  39.988  32.555   9.592
17951W        W81510   1.240  22.137  13.405
17952W        W81511  36.976   8.731   3.170
17953W        W81512  25.975  14.149  12.546
17954W        W81513  23.691  32.004  11.053
17955W        W81514  17.747  35.898  10.530
17956W        W81515  29.545  18.612   3.815
17957W        W81516   8.726  17.754   2.356
17958W        W81517  29.092  38.990   9.461
17959W        W81518  38.991   5.772   2.290
17960W        W81519  22.040  30.048   1.435
17961W        W81520  39.953  25.567  11.109
17962W        W81521  15.737   2.951   2.687
17963W        W81522  36.069  39.379  10.996
17964W        W81523  24.611   2.841   3.773
17965W        W81524  37.371  41.923   5.153
17966W        W81525  40.458   1.918   2.178
17967W        W81526  16.139  43.847  11.528
17968W        W81527  37.034  31.036  11.030
17969W        W81528  42.804  25.049  13.869
17970W        W81529  41.988  11.700   4.133
17971W        W81530  35.854  14.741   0.780
17972W        W81531  35.034  28.946   3.240
17973W        W81532  40.868  27.952   3.379
17974W        W81533  12.121  19.071  12.081
17975W        W81534  39.522  13.218  13.976
17976W        W81535   8.224   8.203  14.333
17977W        W81536   8.275  44.944  13.540
17978W        W81537  30.141  41.033   4.743
17979W        W81538  40.869  19.056  12.917
17980W        W81539  22.726  24.653   1.695
17981W        W81540   9.304  28.004  13.857
17982W        W81541   8.748   4.910   1.337
17983W        W81542  38.561  32.569   0.371
17984W        W81543  17.785  14.595  11.082
17985W        W81544  20.597  36.917   4.707
17986W        W81545  10.358   8.850  10.977
17987W        W81546  31.998  20.032   2.387
17988W        W81547  17.651  22.090   1.848
17989W        W81548  42.490  11.680   4.792
17990W        W81549  15.616  21.643   1.843
17991W        W81550  38.977   6.884   1.427
17992W        W81551  12.676   4.357  13.511
17993W        W81552  19.239   0.916  12.461
17994W        W81553  11.135   7.754  13.503
17995W        W81554  41.339  22.620   3.746
17996W        W81555  37.469  15.635   5.293
17997W        W81556  18.705  40.858  11.422
17998W        W81557  34.547  34.468  13.966
17999W        W81558  38.856   0.461  12.343
18000W        W81559  27.647   4.327  14.966
18001W        W81560   7.681   9.264  12.414
18002W        W81561  41.994   5.836   2.683
18003W        W81562  13.688   0.253   0.738
18004W        W81563  35.917   8.357   0.898
18005W        W81564  34.871  28.033  12.900
18006W        W81565  15.772  10.822  13.948
18007W        W81566  34.596  36.086   2.208
18008W        W81567  43.830  31.423  13.008
18009W        W81568  20.094  36.488   3.348
18010W        W81569  12.687  26.540   3.188
18011W        W81570   4.794  26.169   1.905
18012W        W81571   0.816  25.473   0.763
18013W        W81572  34.450  36.587   0.865
18014W        W81573  28.058  17.167   1.717
18015W        W81574  37.020  21.246   1.854
18016W        W81575   8.228  36.999   1.913
18017W        W81576  38.034   8.292  12.971
18018W        W81577  25.192  14.237  11.066
18019W        W81578  34.444  13.223  11.485
18020W        W81579  26.961  12.758   2.350
18021W        W81580  24.031  34.477   0.440
18022W        W81581  16.311  26.033  12.991
18023W        W81582  19.722   7.327  10.522
18024W        W81583  37.342  32.912   1.321
18025W        W81584  43.290  30.438   0.354
18026W        W81585   6.870  12.294   4.354
18027W        W81586  21.687   9.174  12.922
18028W        W81587   3.313  39.388   0.774
18029W        W81588   7.177  31.438  10.600
18030W        W81589  19.774  25.188   0.401
18031W        W81590  22.075  43.792  11.974
18032W        W81591  16.685   9.667   2.888
18033W        W81592   7.372  36.075  14.307
18034W        W81593  22.097  36.988   1.909
18035W        W81594  11.771   8.162  14.383
18036W        W81595  44.870   7.882  12.835
18037W        W81596  23.033  10.730   1.910
18038W        W81597  33.085  34.473   1.245
18039W        W81598   4.722  13.706   3.378
18040W        W81599  18.700  41.420   2.308
18041W        W81600   5.239  31.898   4.749
18042W        W81601  44.393  37.504  12.966
18043W        W81602  27.556  43.013  11.869
18044W        W81603  12.285  28.939   0.895
18045W        W81604  35.584  12.762   2.277
18046W        W81605  37.001   4.833   1.793
18047W        W81606  30.916  30.931   4.832
18048W        W81607   8.314  43.349   4.705
18049W        W81608  17.191  35.970  11.071
18050W        W81609   2.932  38.538  11.022
18051W        W81610   5.850  26.535   3.859
18052W        W81611  38.873  17.680  12.411
18053W        W81612  27.574  28.997   2.366
18054W        W81613  34.607  23.502  11.927
18055W        W81614  21.680  41.326   0.893
18056W        W81615   6.350  37.050  13.350
18057W        W81616  36.587  23.609   4.309
18058W        W81617   9.771  15.144   4.612
18059W        W81618   0.444  41.830  14.343
18060W        W81619  10.688   2.855   1.894
18061W        W81620  33.880  31.579  13.483
18062W        W81621   0.754  10.665  12.951
18063W        W81622  39.452  36.380  11.377
18064W        W81623  28.678  32.119   3.220
18065W        W81624   7.271   8.193  14.030
18066W        W81625  29.534  38.059  11.511
18067W        W81626  33.116  43.778   1.274
18068W        W81627   7.395  26.192   3.724
18069W        W81628  42.450  36.425  10.967
18070W        W81629  19.610  19.701  12.902
18071W        W81630  15.242   4.363  11.607
18072W        W81631  33.954  27.474  11.094
18073W        W81632  23.631  30.509   3.368
18074W        W81633  19.250   6.351   4.134
18075W        W81634  17.627  43.782   3.341
18076W        W81635   7.250  35.531  11.031
18077W        W81636  21.573  38.404  14.997
18078W        W81637  14.335  30.110  12.505
18079W        W81638   1.404  43.856  12.415
18080W        W81639  17.087   1.831   0.368
18081W        W81640   9.291   9.348  14.999
18082W        W81641   4.916  39.006   4.235
18083W        W81642   0.854  22.095  14.441
18084W        W81643   2.727  37.905  13.432
18085W        W81644   5.392  25.609   3.707
18086W        W81645  39.891  39.003  13.027
18087W        W81646   9.180  42.292  13.986
18088W        W81647  30.433   7.697  13.045
18089W        W81648  21.635  17.232   0.457
18090W        W81649   0.283  18.779  12.869
18091W        W81650   0.884  27.527   1.406
18092W        W81651   5.425   6.832   4.262
18093W        W81652  17.689  38.430   2.810
18094W        W81653   4.786   4.826   4.787
18095W        W81654   1.969  39.944  12.399
18096W        W81655   0.300  33.979   1.234
18097W        W81656  36.454  44.384   2.351
18098W        W81657  19.736   5.256   1.226
18099W        W81658  29.064   3.296   4.159
18100W        W81659   4.263  14.127   2.790
18101W        W81660   6.845   0.752   1.724
18102W        W81661  15.580  41.358   3.701
18103W        W81662  35.446   4.403   3.851
18104W        W81663  41.922  11.192  11.125
18105W        W81664  14.171  32.951   2.335
18106W        W81665  33.923  16.751   4.629
18107W        W81666  20.230   4.248   1.300
18108W        W81667   7.201   5.429   3.867
18109W        W81668  32.967   4.405  10.890
18110W        W81669  13.610   5.200  13.831
18111W        W81670  33.502  17.600  10.561
18112W        W81671  12.298  44.843  14.383
18113W        W81672  13.141  12.362   0.251
18114W        W81673   8.722  38.397  12.518
18115W        W81674  19.059   5.878   2.810
18116W        W81675   2.813  38.864  11.444
18117W        W81676  35.905  24.554  11.438
18118W        W81677  19.684  32.446  10.634
18119W        W81678   5.884  19.208   3.194
18120W        W81679  42.923   2.466   2.725
18121W        W81680   6.889   9.804   1.447
18122W        W81681   3.897  27.010  10.526
18123W        W81682  15.717  21.639   1.332
18124W        W81683   0.492   0.869  12.360
18125W        W81684  20.582   9.186   0.772
18126W        W81685  33.040  35.546   2.295
18127W        W81686  28.448  13.809   0.885
18128W        W81687  17.703  27.680  10.909
18129W        W81688  19.088  28.937  12.827
18130W        W81689  16.782  43.422  12.542
18131W        W81690  19.665  22.530  10.528
18132W        W81691  20.146   9.836   1.246
18133W        W81692   7.787   6.213   5.300
18134W        W81693  33.617  11.303  12.014
18135W        W81694  27.950  42.954  13.057
18136W        W81695   4.369  22.565   2.274
18137W        W81696  12.826  15.659   2.736
18138W        W81697   6.388  13.763   2.705
18139W        W81698  11.809  44.390   5.293
18140W        W81699  35.088  10.672   4.742
18141W        W81700  31.606  27.050   2.758
18142W        W81701  19.702  40.371  13.808
18143W        W81702   6.384  12.835   1.914
18144W        W81703  29.943  31.646  13.350
18145W        W81704   6.388  13.750   3.630
18146W        W81705  43.458  39.352  14.978
18147W        W81706   6.839  30.548  14.468
18148W        W81707  33.498  30.101   4.261
18149W        W81708  39.816   1.748  14.948
18150W        W81709   4.708  29.512  14.478
18151W        W81710  19.743  40.387   1.228
18152W        W81711   4.340   6.213  13.004
18153W        W81712  19.057  28.959   0.907
18154W        W81713  29.627  12.785   3.782
18155W        W81714  12.725  12.775  14.865
18156W        W81715   9.370  31.919   1.424
18157W        W81716  22.249  37.542  13.031
18158W        W81717  24.009  14.817   2.805
18159W        W81718  12.805  44.969   2.789
18160W        W81719  25.644   9.279   1.443
18161W        W81720  41.908   2.397  13.399
18162W        W81721  39.006   0.898   3.754
18163W        W81722  19.049  22.193  14.399
18164W        W81723  14.105  32.056   1.752
18165W        W81724  44.351  24.647  13.381
18166W        W81725  21.571  18.669   0.909
18167W        W81726  43.463  26.016   1.708
18168W        W81727  27.031  34.027   0.732
18169W        W81728   4.879   2.725  11.897
18170W        W81729  14.785  10.264   9.942
18171W        W81730  43.454   6.416   3.370
18172W        W81731  37.459   7.806   2.879
18173W        W81732   0.897  35.006   3.868
18174W        W81733  29.459  28.454   4.786
18175W        W81734  43.815   1.478  11.036
18176W        W81735  26.616  20.535   0.943
18177W        W81736  19.085  15.583   4.662
18178W        W81737   1.459   0.933  13.391
18179W        W81738  37.971  34.964  10.644
18180W        W81739  28.969  15.767  10.596
18181W        W81740  12.830  35.583   5.684
18182W        W81741  32.992   7.177  11.914
18183W        W81742  19.583   3.810   2.760
18184W        W81743  40.812   0.944  14.967
18185W        W81744  15.315  20.577   0.382
18186W        W81745  37.521   2.281  11.473
18187W        W81746  18.634  24.982   2.186
18188W        W81747  35.561  24.571   4.277
18189W        W81748  40.956   9.744  14.811
18190W        W81749  41.334  25.988  14.911
18191W        W81750  14.595  31.476   1.304
18192W        W81751  40.476  39.982   4.153
18193W        W81752  22.555   5.417   1.814
18194W        W81753  37.915  13.781  12.010
18195W        W81754  35.589  37.074   2.679
18196W        W81755  16.734  23.000  14.418
18197W        W81756  20.048  22.552  14.016
18198W        W81757   9.180  16.184   1.389
18199W        W81758  11.761  18.577   4.262
18200W        W81759  34.090  29.587  10.497
18201W        W81760  20.159   3.938   1.743
18202W        W81761   5.424  12.237   4.707
18203W        W81762   4.763   4.292  13.436
18204W        W81763  44.305  44.988   3.784
18205W        W81764  44.331   5.895   4.214
18206W        W81765  17.755  31.515  13.395
18207W        W81766  23.001  15.591   3.841
18208W        W81767  28.464  40.529  13.887
18209W        W81768  18.680  18.174  13.446
18210W        W81769  29.943  43.344  11.860
18211W        W81770  19.648  28.558   0.840
18212W        W81771  32.391  24.068  10.536
18213W        W81772  39.954  21.573  13.956
18214W        W81773   5.322  41.314   0.476
18215W        W81774  21.143  16.598  11.449
18216W        W81775  24.539   7.289  11.063
18217W        W81776  23.546   0.410   4.836
18218W        W81777  15.209  20.047  11.485
18219W        W81778  37.037  41.875   4.648
18220W        W81779  34.600  24.231   3.288
18221W        W81780   9.668   1.823   0.272
18222W        W81781  15.222   8.800   0.945
18223W        W81782   2.845  16.076   1.890
18224W        W81783  10.270  42.894   0.959
18225W        W81784   7.672  44.435   3.853
18226W        W81785  40.893  30.505   3.184
18227W        W81786  13.157  11.331   4.598
18228W        W81787  25.645  17.744  13.341
18229W        W81788   7.227  21.609   0.832
18230W        W81789  33.109  30.961   3.824
18231W        W81790  34.604  21.044   0.934
18232W        W81791   1.413  21.100   2.691
18233W        W81792  26.998  21.747  10.607
18234W        W81793  30.549   4.384  10.500
18235W        W81794  21.239  12.312  10.447
18236W        W81795   2.261  10.292  11.577
18237W        W81796  39.913  18.587   3.682
18238W        W81797  18.580  15.641   5.250
18239W        W81798  23.577  34.964   4.638
18240W        W81799   3.376  32.530  11.560
18241W        W81800  27.044  20.132  14.955
18242W        W81801  43.511  27.945   0.363
18243W        W81802   7.216  39.911  11.960
18244W        W81803   9.705  41.933   2.743
18245W        W81804  34.053   6.275   2.213
18246W        W81805   0.252   6.358   2.780
18247W        W81806   0.328   8.234   2.278
18248W        W81807   0.883   5.917   1.803
18249W        W81808  44.373   8.257  13.827
18250W        W81809  32.966  14.127  10.589
18251W        W81810  43.829  39.956  13.325
18252W        W81811  10.230  18.079  10.636
18253W        W81812   1.383  26.011  11.115
18254W        W81813  40.926  19.739  10.986
18255W        W81814  28.586  11.360   4.343
18256W        W81815  37.342  38.356  11.028
18257W        W81816  38.026  31.129   5.173
18258W        W81817  20.530  38.062   1.727
18259W        W81818  14.198  17.085  14.347
18260W        W81819  24.656  38.064   4.796
18261W        W81820  24.136  24.524   3.764
18262W        W81821   0.971  25.114   5.207
18263W        W81822  32.136  38.535  10.587
18264W        W81823  25.157   3.287  12.562
18265W        W81824  32.130  40.534   1.789
18266W        W81825  22.058  12.155   0.872
18267W        W81826  19.626  39.991  10.550
18268W        W81827  20.115  23.222  12.992
18269W        W81828   9.686  35.856  14.949
18270W        W81829  11.817  30.059  10.894
18271W        W81830   4.889  25.560   2.832
18272W        W81831  33.599  17.701   3.275
18273W        W81832  15.130  13.662   1.829
18274W        W81833  24.982  36.960  13.935
18275W        W81834  14.757  28.650  13.918
18276W        W81835   9.243  39.835   2.251
18277W        W81836  26.472  38.949  12.472
18278W        W81837   6.380   6.824   4.707
18279W        W81838  39.416   0.375  13.452
18280W        W81839  38.332  16.628   2.861
18281W        W81840  38.940  40.392  14.968
18282W        W81841  10.358   5.705  12.559
18283W        W81842  33.898  17.105  13.973
18284W        W81843  21.533  43.302  14.783
18285W        W81844  19.183  21.529   1.305
18286W        W81845  28.025  36.542  13.871
18287W        W81846  37.501  13.174  11.038
18288W        W81847  39.434  14.799   1.761
18289W        W81848   3.287  40.983   2.231
18290W        W81849  25.145  22.173  12.384
18291W        W81850  35.021  27.615   1.333
18292W        W81851  26.491  29.154  14.998
18293W        W81852  12.162   8.784  14.911
18294W        W81853  12.664  35.450   2.324
18295W        W81854   6.768  29.461  11.872
18296W        W81855  21.177  32.921   0.805
18297W        W81856  37.844  43.516   1.350
18298W        W81857   5.863  37.007   2.206
18299W        W81858  24.564   5.393   0.886
18300W        W81859   8.174  37.842  13.019
18301W        W81860  14.301  22.170   2.796
18302W        W81861   0.856  32.123  10.600
18303W        W81862  13.839   8.709  13.807
18304W        W81863  15.124  21.576  10.894
18305W        W81864  14.205  14.233   3.843
18306W        W81865  21.537   3.256   1.705
18307W        W81866   7.744  11.829   4.599
18308W        W81867   1.772  39.861  14.913
18309W        W81868  17.651  20.040   2.391
18310W        W81869  32.570   9.194  13.030
18311W        W81870  23.519  27.153  12.882
18312W        W81871   3.924  41.810  12.839
18313W        W81872  14.747  38.341   4.286
18314W        W81873  11.847  44.495  11.096
18315W        W81874  23.231  16.593  14.805
18316W        W81875  37.427  14.776   4.729
18317W        W81876  29.030  20.255  13.033
18318W        W81877  35.854  27.495   4.663
18319W        W81878   3.716  30.042   1.423
18320W        W81879  23.623  15.777  14.322
18321W        W81880  43.460   1.404   4.820
18322W        W81881  14.267  32.106   4.136
18323W        W81882  22.709  39.829   4.710
18324W        W81883   3.378   6.251  11.016
18325W        W81884  22.662  33.944  11.543
18326W        W81885  15.195  14.668   1.776
18327W        W81886  11.195  13.280   3.190
18328W        W81887  16.107   9.721  14.386
18329W        W81888  23.554  31.442  11.526
18330W        W81889   6.685  42.904  14.843
18331W        W81890  34.990   8.231  12.948
18332W        W81891  39.542  28.115  10.958
18333W        W81892  30.634  32.583   0.403
18334W        W81893  14.203  38.052   2.336
18335W        W81894  22.727  27.477  13.898
18336W        W81895  20.192  41.986   3.373
18337W        W81896  13.641  10.833   0.832
18338W        W81897  43.330  34.875  12.410
18339W        W81898  23.157   0.424   4.240
18340W        W81899   7.860  17.698   2.747
18341W        W81900   7.203   8.255   1.252
18342W        W81901   4.821  24.006   1.210
18343W        W81902  29.601  21.194   5.085
18344W        W81903  34.599  38.465   1.337
18345W        W81904  20.224  38.539  12.481
18346W        W81905   3.278   4.795  14.960
18347W        W81906  36.039  30.094   3.828
18348W        W81907  17.064  28.649  12.065
18349W        W81908  43.280  29.667  14.298
18350W        W81909  43.358  23.689  14.340
18351W        W81910  20.080  24.487   4.714
18352W        W81911  37.985  10.757   2.229
18353W        W81912  11.230  44.381  11.554
18354W        W81913  22.675   1.369  14.313
18355W        W81914  43.981  41.876   4.656
18356W        W81915  25.576  25.009  12.073
18357W        W81916  34.070  14.340  14.402
18358W        W81917  27.087  23.708  13.964
18359W        W81918  27.110   2.886  12.860
18360W        W81919  14.788   6.297  10.922
18361W        W81920  33.502  39.510  12.564
18362W        W81921  41.522  38.033   1.402
18363W        W81922  37.043  27.164  13.038
18364W        W81923  26.006  28.497   4.266
18365W        W81924  27.993   1.904  12.401
18366W        W81925  39.907  24.566   1.445
18367W        W81926  27.128  11.327  13.442
18368W        W81927   8.329   3.897   1.905
18369W        W81928   1.313   1.319  13.880
18370W        W81929  28.087   4.274   0.785
18371W        W81930  37.553  35.426   0.357
18372W        W81931  25.052  17.596  12.868
18373W        W81932  13.265  21.262   3.757
18374W        W81933  29.506  18.547  12.057
18375W        W81934  11.297   9.762   0.445
18376W        W81935  12.201  40.042   2.370
18377W        W81936   5.727   9.771   3.147
18378W        W81937   0.461  24.565   0.833
18379W        W81938   8.239  23.544   3.747
18380W        W81939  23.170   9.314  10.092
18381W        W81940   2.389   4.280   1.241
18382W        W81941  12.125  40.986   2.185
18383W        W81942  30.530   8.847   0.296
18384W        W81943  10.850  27.576  14.834
18385W        W81944  42.474  23.687   2.867
18386W        W81945   8.390  41.011  11.953
18387W        W81946  33.875  25.681   4.330
18388W        W81947   0.467  22.042  10.540
18389W        W81948   5.876  37.513  12.048
18390W        W81949  34.401  43.513   3.696
18391W        W81950  29.172  38.968   1.896
18392W        W81951   4.755  21.137   2.806
18393W        W81952  14.094   2.351  14.883
18394W        W81953  17.234   3.251   2.260
18395W        W81954   9.837  39.918   4.326
18396W        W81955  11.307  41.464   1.929
18397W        W81956  20.204   4.279  13.836
18398W        W81957  11.768  31.576   2.314
18399W        W81958   9.761  33.537   0.311
18400W        W81959  24.588  20.646  13.950
18401W        W81960  44.895  23.071  14.761
18402W        W81961   4.340  30.066   4.826
18403W        W81962  41.910  13.743   0.888
18404W        W81963  14.732   0.373   4.660
18405W        W81964  31.607  37.959  12.459
18406W        W81965  28.992  27.469   4.302
18407W        W81966  17.285   6.852  11.964
18408W        W81967   2.408  17.578  11.075
18409W        W81968   0.803  31.424  10.428
18410W        W81969   4.827  10.757   2.284
18411W        W81970  36.434  31.442   4.705
18412W        W81971   9.868  26.079  11.080
18413W        W81972  26.488  40.941  12.091
18414W        W81973  18.160   3.787  14.979
18415W        W81974   0.388  28.468  14.491
18416W        W81975  18.667   3.408  14.954
18417W        W81976  18.768  11.135   3.319
18418W        W81977   3.370  26.510   0.741
18419W        W81978  31.074  27.454   4.670
18420W        W81979  16.279  23.647  11.984
18421W        W81980  14.124  34.949   3.189
18422W        W81981  27.553   4.263   3.216
18423W        W81982  20.050  23.728   1.759
18424W        W81983  37.893   7.737   3.174
18425W        W81984  44.316   3.808  10.604
18426W        W81985   6.281  39.394   0.804
18427W        W81986  14.725  20.634   0.459
18428W        W81987   7.225  26.525  11.916
18429W        W81988  20.625   9.723   1.302
18430W        W81989  22.628  15.758  11.379
18431W        W81990  10.686  23.188   3.261
18432W        W81991  15.808  40.004   4.153
18433W        W81992  25.482  22.505   2.827
18434W        W81993  22.133  22.053  14.390
18435W        W81994  41.920  43.342  14.283
18436W        W81995  18.687  22.143  10.586
18437W        W81996   7.885  34.584   4.797
18438W        W81997  21.630  16.252  13.847
18439W        W81998  23.729  33.413  11.867
18440W        W81999  44.840  26.194  10.636
18441W        W82000  37.398  14.657   0.914
18442W        W82001   0.918  30.115   4.782
18443W        W82002  15.207  26.660  13.951
18444W        W82003  43.795  44.468  13.900
18445W        W82004  29.555  35.379  10.642
18446W        W82005  37.388  15.203   4.307
18447W        W82006  33.056  32.125   3.231
18448W        W82007   8.737  28.943  10.484
18449W        W82008  41.880  27.662   4.833
18450W        W82009  27.976  12.227   4.654
18451W        W82010  19.095   8.709  10.440
18452W        W82011  15.813   1.453   4.115
18453W        W82012  29.605   1.818   1.748
18454W        W82013   4.332  15.312  14.977
18455W        W82014  15.620  20.551   9.933
18456W        W82015  32.475  12.822  13.365
18457W        W82016   7.305  13.739  10.631
18458W        W82017   9.663  37.884  10.506
18459W        W82018  32.471  11.627   1.233
18460W        W82019  10.204  38.966   0.446
18461W        W82020  19.562  16.632  13.912
18462W        W82021  10.163  30.533   4.817
18463W        W82022   7.294   0.388   0.918
18464W        W82023   6.306  40.910  11.399
18465W        W82024  11.289  19.156  13.019
18466W        W82025  40.368   9.794  14.003
18467W        W82026  28.678  34.604  12.560
18468W        W82027  12.222  11.861   2.410
18469W        W82028  31.470  32.917   3.194
18470W        W82029   2.961   8.173   2.360
18471W        W82030   1.765  42.409   0.264
18472W        W82031  36.051  39.330  14.355
18473W        W82032  30.091   4.874  10.597
18474W        W82033  35.580  43.884  13.809
18475W        W82034  21.569  28.514   2.758
18476W        W82035  22.543  44.359   1.773
18477W        W82036  16.138  24.015   2.379
18478W        W82037   4.243  26.642   0.476
18479W        W82038  34.931  41.496  14.414
18480W        W82039  16.305   5.702  10.085
18481W        W82040  18.251  36.397   0.345
18482W        W82041  35.544  43.515  13.888
18483W        W82042  44.405  35.550  10.960
18484W        W82043  18.174   8.287   4.795
18485W        W82044  33.574  43.378  11.000
18486W        W82045  20.209  29.930  14.279
18487W        W82046  23.992   9.230   1.226
18488W        W82047  14.775  37.016   4.220
18489W        W82048  27.510  32.891   1.709
18490W        W82049  23.091  20.562   3.799
18491W        W82050   6.221  15.786   4.681
18492W        W82051  36.421  24.048   0.408
18493W        W82052  37.980  25.506  11.539
18494W        W82053  40.370  25.139  11.026
18495W        W82054  32.594  25.618  10.916
18496W        W82055  19.190   2.810   0.960
18497W        W82056  38.846  11.250  14.995
18498W        W82057  40.323  44.804   3.661
18499W        W82058  36.925   8.334   1.429
18500W        W82059  24.701  28.454  11.461
18501W        W82060  27.095   4.378   1.719
18502W        W82061  25.072  10.842   0.248
18503W        W82062   6.189  43.392   2.372
18504W        W82063  44.768  30.117  12.063
18505W        W82064  44.423  24.551  11.601
18506W        W82065  12.729   7.309  11.061
18507W        W82066   6.852  13.243  11.020
18508W        W82067  36.541  41.791  13.374
18509W        W82068  24.042   2.465  13.001
18510W        W82069  18.653  26.596   3.194
18511W        W82070  38.936  43.790   1.245
18512W        W82071  20.177   5.934  11.375
18513W        W82072  21.202  24.071   3.747
18514W        W82073  14.604   4.819  14.883
18515W        W82074  41.538  26.685  12.403
18516W        W82075   5.418  23.991  13.510
18517W        W82076  10.636   8.668   4.836
18518W        W82077  29.113  39.513   9.984
18519W        W82078  19.640  43.016   3.200
18520W        W82079  36.989   9.349   4.650
18521W        W82080   3.811  30.082  11.467
18522W        W82081  26.530  29.098   4.161
18523W        W82082  10.271  40.348   4.320
18524W        W82083   4.428   7.791   3.268
18525W        W82084  10.366  19.071  10.608
18526W        W82085  14.202  41.321   0.356
18527W        W82086  41.994   3.357  12.833
18528W        W82087  26.600  12.186  11.550
18529W        W82088  37.568   4.291  14.387
18530W        W82089  26.095  41.915   1.336
18531W        W82090  27.007  17.801  11.476
18532W        W82091  10.833  26.659   3.870
18533W        W82092  13.283   4.334  14.293
18534W        W82093  17.277  35.505  14.895
18535W        W82094  23.522  30.470   0.306
18536W        W82095  40.416  10.224   2.228
18537W        W82096  16.269  18.745   2.204
18538W        W82097  31.518   9.781   2.780
18539W        W82098  16.674  20.152  13.823
18540W        W82099  34.938  27.059   2.291
18541W        W82100   1.951  14.162  14.433
18542W        W82101  28.644  30.450  14.985
18543W        W82102   9.208   0.385   4.335
18544W        W82103  33.102  23.579   1.743
18545W        W82104  12.742   3.322   5.273
18546W        W82105  20.578  24.538  14.306
18547W        W82106   4.384  43.434  13.948
18548W        W82107  32.561  39.517   2.399
18549W        W82108  25.656  21.663  11.986
18550W        W82109  10.315  10.248   3.777
18551W        W82110  40.401  21.058  13.978
18552W        W82111  24.485  20.624   3.664
18553W        W82112  34.520   6.791   4.326
18554W        W82113  39.051   1.806  13.897
18555W        W82114  37.004   2.372   3.153
18556W        W82115   3.447  20.748  14.789
18557W        W82116  23.079  22.564  10.466
18558W        W82117   0.968  28.649   3.633
18559W        W82118  20.721  40.917   0.941
18560W        W82119  27.601  30.924  14.807
18561W        W82120  40.900  10.661  13.013
18562W        W82121   9.158  24.166  13.958
18563W        W82122  41.496   0.792   1.307
18564W        W82123  11.781  18.200  14.371
18565W        W82124  22.040  27.560  13.355
18566W        W82125   9.869  33.038  11.940
18567W        W82126  41.797  11.722   0.936
18568W        W82127  25.185  23.098  12.075
18569W        W82128  22.583  36.500   1.337
18570W        W82129  19.678  16.092   1.719
18571W        W82130   2.420  23.030  11.046
18572W        W82131  28.476  10.771   3.785
18573W        W82132  25.068   8.859  10.892
18574W        W82133   1.858  37.905  10.432
18575W        W82134  26.524   0.280  14.875
18576W        W82135  32.609  18.202   3.770
18577W        W82136   4.832   5.746   2.383
18578W        W82137  44.869  28.985  12.458
18579W        W82138  22.588   6.264  12.421
18580W        W82139  36.358  30.648  10.975
18581W        W82140  11.712  19.767   2.750
18582W        W82141  39.941   8.851  10.472
18583W        W82142   0.965  12.320  11.094
18584W        W82143  40.530  24.022  10.592
18585W        W82144  38.518  10.312   2.301
18586W        W82145  12.746  35.979  10.465
18587W        W82146  12.342  21.538  14.971
18588W        W82147  44.976   8.785  12.579
18589W        W82148   8.204  23.511   2.738
18590W        W82149  35.448  37.910  12.477
18591W        W82150  34.092  36.971  11.996
18592W        W82151  12.284  27.477  14.999
18593W        W82152  29.564  27.659  14.768
18594W        W82153  17.795  16.679   4.188
18595W        W82154  12.661  24.975  14.922
18596W        W82155   7.841   9.852  11.899
18597W        W82156  22.187  20.043  12.339
18598W        W82157  28.143  17.643  14.018
18599W        W82158  10.832  21.174  11.978
18600W        W82159  14.825  40.342   3.304
18601W        W82160  23.589  29.446   2.888
18602W        W82161  24.015  20.571   1.849
18603W        W82162  39.512  15.164   1.403
18604W        W82163  42.995  21.133   4.726
18605W        W82164   0.481  18.268   0.466
18606W        W82165  17.071  33.016   1.421
18607W        W82166  39.810  18.574  10.565
18608W        W82167   1.483   3.361  11.990
18609W        W82168   8.831  35.557   1.733
18610W        W82169  18.192  27.548  13.024
18611W        W82170  42.941  15.316  13.872
18612W        W82171  18.784  27.084   4.661
18613W        W82172  20.720   0.439  13.991
18614W        W82173  42.032   5.856  14.408
18615W        W82174   6.854  30.483  13.844
18616W        W82175  19.712   1.868   1.745
18617W        W82176  37.908  33.438   3.180
18618W        W82177  36.452  35.909  14.797
18619W        W82178  39.434  43.285   0.926
18620W        W82179   6.311  40.850   0.878
18621W        W82180  39.849  10.680  12.037
18622W        W82181  27.079  10.696   9.488
18623W        W82182  12.142  38.929  12.421
18624W        W82183  11.819  42.493  13.529
18625W        W82184  28.124  23.734   4.630
18626W        W82185  33.026  34.542  12.357
18627W        W82186  28.111  31.629   2.207
18628W        W82187   0.932  27.097   0.272
18629W        W82188  20.179  16.224  12.006
18630W        W82189   2.932  23.531   4.836
18631W        W82190  36.870  22.201   4.267
18632W        W82191  13.814  23.984  14.958
18633W        W82192  43.363  44.787  10.635
18634W        W82193  28.456  21.187  11.925
18635W        W82194  16.631  22.214  13.063
18636W        W82195  28.971  26.009   0.744
18637W        W82196  15.108  13.686  12.416
18638W        W82197  20.130  10.344   1.388
18639W        W82198   7.372  42.897   2.352
18640W        W82199  39.389  40.876   3.720
18641W        W82200  24.636  43.823  12.566
18642W        W82201  14.826  10.203  13.855
18643W        W82202  40.425  21.231  12.575
18644W        W82203   8.691  30.984   4.716
18645W        W82204  17.644   9.305  14.355
18646W        W82205   1.824   8.837   4.627
18647W        W82206   3.842  13.142  10.521
18648W        W82207  29.430  44.378  12.355
18649W        W82208   4.884  34.408  11.590
18650W        W82209   1.281  17.575   2.872
18651W        W82210  19.595  40.875   4.806
18652W        W82211   0.792  32.597  14.022
18653W        W82212   0.859  15.235  13.899
18654W        W82213  16.671   0.831   3.681
18655W        W82214  28.452  31.997   1.823
18656W        W82215  19.284  29.998   0.819
18657W        W82216  13.645  23.537  12.576
18658W        W82217   6.693   2.887  14.458
18659W        W82218  13.137  26.669  12.551
18660W        W82219   6.310  40.357  11.460
18661W        W82220  18.775  36.043   9.923
18662W        W82221  19.221  15.757  10.918
18663W        W82222  40.834  18.609   4.646
18664W        W82223  12.116  24.121   2.327
18665W        W82224  24.638   4.835  11.494
18666W        W82225   4.234  25.167   2.284
18667W        W82226  22.513  32.628  11.055
18668W        W82227  18.128   9.658  10.590
18669W        W82228  41.007  19.171  13.808
18670W        W82229   8.293  26.169  12.488
18671W        W82230  34.454  39.950   1.791
18672W        W82231   2.413  39.995  14.021
18673W        W82232  15.752  42.366   4.172
18674W        W82233  14.771  20.763   4.133
18675W        W82234   4.386   6.874   4.335
18676W        W82235  32.902  22.206  11.382
18677W        W82236  34.887   4.719  11.475
18678W        W82237   7.856  43.336  12.868
18679W        W82238  20.552  40.415   1.741
18680W        W82239  10.358  36.441  10.973
18681W        W82240  40.484   9.717   1.288
18682W        W82241  42.894  10.690  13.425
18683W        W82242  19.106   2.249   2.291
18684W        W82243  37.903  31.607  11.531
18685W        W82244  17.661  35.907   4.622
18686W        W82245  12.352   9.229   0.809
18687W        W82246   8.864   9.272  10.619
18688W        W82247   7.687  33.501  10.141
18689W        W82248   3.229  32.080  11.571
18690W        W82249   8.282  38.955   1.700
18691W        W82250  42.489  21.542   4.281
18692W        W82251  23.508  25.680   3.858
18693W        W82252   1.247   9.724  13.537
18694W        W82253   4.335  27.479  11.918
18695W        W82254  18.231   1.297   1.380
18696W        W82255  25.095  23.538   2.315
18697W        W82256  19.146  38.507  12.396
18698W        W82257  21.720  31.930   2.686
18699W        W82258  21.068  42.457   0.826
18700W        W82259  20.148  35.562  14.017
18701W        W82260  31.940  11.167   4.343
18702W        W82261  34.024   0.808  13.000
18703W        W82262  27.996   1.409   1.326
18704W        W82263  28.534  29.920   0.871
18705W        W82264   4.792  44.770   1.802
18706W        W82265  31.965  39.509  12.992
18707W        W82266  28.470   0.790   2.389
18708W        W82267   5.337   7.392  12.858
18709W        W82268  11.636  36.401   4.245
18710W        W82269  27.690  29.045   1.446
18711W        W82270  21.085  21.717   0.360
18712W        W82271  30.980  44.373   1.275
18713W        W82272  44.904   7.737  14.822
18714W        W82273  20.227   7.839   4.261
18715W        W82274   8.259  27.465  12.891
18716W        W82275  25.128  18.666  14.811
18717W        W82276  36.058   6.847   0.913
18718W        W82277  30.072  27.630  14.282
18719W        W82278   2.437  31.961  12.933
18720W        W82279  12.241   7.678  13.357
18721W        W82280   6.725  24.722  12.026
18722W        W82281  21.576  13.305  12.920
18723W        W82282  24.104  23.166  12.366
18724W        W82283  42.829  10.144  13.364
18725W        W82284  24.102  20.140  11.563
18726W        W82285  37.524  43.900   0.436
18727W        W82286  30.632  14.276   4.790
18728W        W82287   1.804  44.265  14.493
18729W        W82288   3.350   6.350   0.340
18730W        W82289   9.861   3.900  14.331
18731W        W82290  28.547  15.740  13.791
18732W        W82291   8.717  32.934  10.622
18733W        W82292  18.559  32.569   4.756
18734W        W82293  11.732  20.066  12.939
18735W        W82294  25.106  32.422   2.213
18736W        W82295  14.804  33.620  13.971
18737W        W82296   7.684  20.585   4.666
18738W        W82297  30.415  21.099  13.047
18739W        W82298   5.350  33.401   3.783
18740W        W82299   1.967  33.913   3.660
18741W        W82300   7.772  25.500   1.315
18742W        W82301   4.295  41.921  12.509
18743W        W82302  16.707  22.605  11.083
18744W        W82303  42.992  42.346   2.244
18745W        W82304   9.203  10.203  13.902
18746W        W82305   2.890   3.827   3.776
18747W        W82306  29.995  22.112  10.622
18748W        W82307  30.642  34.459  13.831
18749W        W82308  23.690  11.709  13.836
18750W        W82309   3.910   6.735   3.736
18751W        W82310  15.750   0.786  14.987
18752W        W82311   0.412  16.718   2.756
18753W        W82312   4.230  29.954  14.919
18754W        W82313   4.927  40.802   4.196
18755W        W82314  33.483   2.765   3.190
18756W        W82315  41.459  42.980   4.762
18757W        W82316  10.673  10.364  14.018
18758W        W82317  36.475  32.121  14.902
18759W        W82318  40.461  37.512  12.922
18760W        W82319  27.678   4.416  13.438
18761W        W82320  29.507  35.475  13.957
18762W        W82321  14.127  28.958  12.869
18763W        W82322   7.829  24.504   3.201
18764W        W82323  23.161   7.683  12.873
18765W        W82324  20.219  17.064   2.395
18766W        W82325  19.655  38.895   0.785
18767W        W82326  28.578   5.787   2.680
18768W        W82327  21.722  18.633   0.322
18769W        W82328  28.510  17.703  11.935
18770W        W82329   4.740  24.659  12.542
18771W        W82330   1.414  18.212  11.543
18772W        W82331   5.828  36.390   2.727
18773W        W82332  25.003  19.550   0.821
18774W        W82333  12.682  32.566  11.077
18775W        W82334  13.715  23.693   1.819
18776W        W82335  16.672  10.169   3.213
18777W        W82336  16.720  41.977  10.536
18778W        W82337   2.246  41.948   4.240
18779W        W82338  22.044  12.619   0.458
18780W        W82339  28.470  12.255  14.460
18781W        W82340  19.718   6.851  13.932
18782W        W82341  24.500   8.189  11.091
18783W        W82342  38.031  44.386  13.871
18784W        W82343   7.248  37.557   1.731
18785W        W82344  34.012  14.103   2.691
18786W        W82345  31.583  22.523  14.303
18787W        W82346  25.200  40.966   1.805
18788W        W82347  11.632  36.388   5.312
18789W        W82348   0.476  14.741   4.805
18790W        W82349  36.424  41.994   0.416
18791W        W82350  36.853  30.092   0.310
18792W        W82351   3.709   3.324  11.470
18793W        W82352  16.314   9.883   4.249
18794W        W82353  12.291  43.415   4.751
18795W        W82354  40.317  14.116   5.120
18796W        W82355  28.450  15.817  14.443
18797W        W82356  23.062   0.874  13.411
18798W        W82357  12.852  32.047  13.519
18799W        W82358  18.094  33.980   1.393
18800W        W82359  24.099  40.532   5.254
18801W        W82360   1.815  31.900   2.345
18802W        W82361  16.213  28.067  13.937
18803W        W82362   4.705  14.335  11.601
18804W        W82363  43.871  29.599  12.833
18805W        W82364  38.420   3.915  12.513
18806W        W82365   7.352  15.590   2.261
18807W        W82366   9.730  24.984   4.771
18808W        W82367  43.880  32.548  14.870
18809W        W82368   5.755   5.386   1.824
18810W        W82369  38.007  13.315   4.637
18811W        W82370  29.124  30.591   3.714
18812W        W82371  23.122  24.677  10.914
18813W        W82372  32.535  41.831  11.956
18814W        W82373  26.179  24.179   0.833
18815W        W82374  37.382  38.566   1.853
18816W        W82375   3.832  27.112  12.869
18817W        W82376   0.315  41.295  12.461
18818W        W82377  23.515  44.844  14.978
18819W        W82378  31.446   6.716  10.450
18820W        W82379   4.901  18.684   4.667
18821W        W82380  41.811  27.064  10.637
18822W        W82381   8.669  18.765  13.502
18823W        W82382  19.075  40.895  13.980
18824W        W82383  20.543  32.620   0.270
18825W        W82384  34.899  29.620   2.350
18826W        W82385  20.649   6.831  10.984
18827W        W82386   7.723  23.012  14.998
18828W        W82387  25.543  33.491   0.264
18829W        W82388   2.787  31.564   0.862
18830W        W82389  24.998  42.999  12.368
18831W        W82390  41.895  16.307   2.272
18832W        W82391  13.696  30.073   2.356
18833W        W82392   0.790  33.949   1.898
18834W        W82393  34.435  43.010   1.820
18835W        W82394  42.435  23.149   4.251
18836W        W82395  44.325  14.807   3.845
18837W        W82396   2.940  35.889   3.153
18838W        W82397  27.671  39.559  14.889
18839W        W82398  39.894  14.808  11.427
18840W        W82399  16.259  20.561   1.219
18841W        W82400  39.419   5.348  12.908
18842W        W82401  35.091  41.842  10.929
18843W        W82402  12.686  15.100  13.422
18844W        W82403  13.719  41.517  14.009
18845W        W82404  13.210  33.096  14.859
18846W        W82405   0.383  18.050   1.296
18847W        W82406  19.169   3.325   1.224
18848W        W82407  19.599   6.218   4.115
18849W        W82408   6.694  33.065  14.399
18850W        W82409  16.126  13.230   1.214
18851W        W82410  36.019  12.199   3.769
18852W        W82411  35.928  23.728  14.315
18853W        W82412  36.390  20.126   1.273
18854W        W82413  26.157  20.185   0.390
18855W        W82414  15.208  41.801   2.249
18856W        W82415  33.073  36.494  11.068
18857W        W82416  36.407  32.019  13.538
18858W        W82417   5.404   0.896  13.510
18859W        W82418   8.281   7.730  14.900
18860W        W82419  21.619  43.930  11.989
18861W        W82420  21.080  18.614   2.271
18862W        W82421  34.972   9.766   0.836
18863W        W82422  15.735  16.659  13.493
18864W        W82423   9.666  23.109  13.799
18865W        W82424  13.173  25.995  14.972
18866W        W82425  41.896  33.111  14.512
18867W        W82426  13.242  38.913  11.864
18868W        W82427  13.141  20.636  10.505
18869W        W82428  11.173  34.116  10.640
18870W        W82429  24.630  12.664  10.575
18871W        W82430  37.428   4.862  12.414
18872W        W82431  28.603   9.793   2.691
18873W        W82432   6.862  35.052   3.764
18874W        W82433   9.291   0.398   3.644
18875W        W82434   9.664   3.952   0.455
18876W        W82435  44.501  19.284  10.642
18877W        W82436  44.354  26.682  13.329
18878W        W82437   7.855  43.874  14.413
18879W        W82438  37.945  24.072  10.049
18880W        W82439   3.275  30.910   5.128
18881W        W82440  38.840   6.677  14.430
18882W        W82441   7.801   3.270  11.989
18883W        W82442  13.323  44.267  12.571
18884W        W82443  22.683  42.784   1.444
18885W        W82444  22.014  32.573   1.759
18886W        W82445   5.201  17.725   2.865
18887W        W82446  43.417  16.168  11.400
18888W        W82447  25.512  34.085  11.861
18889W        W82448  30.955  27.627   1.901
18890W        W82449   7.844   1.431  11.488
18891W        W82450  15.293  18.156   4.150
18892W        W82451  18.663  27.141   1.407
18893W        W82452  13.127  17.147   0.304
18894W        W82453  11.366  37.959  11.960
18895W        W82454  30.421   6.830   2.318
18896W        W82455   6.404  24.978  13.473
18897W        W82456  39.509   5.755   3.302
18898W        W82457  30.027  32.902  13.888
18899W        W82458  41.533  24.576  13.502
18900W        W82459  25.078   4.311  10.422
18901W        W82460  40.361  40.462  10.014
18902W        W82461  43.495   4.393   0.764
18903W        W82462  13.149  10.691  11.573
18904W        W82463   6.922  17.231   1.748
18905W        W82464  14.102  42.364   0.294
18906W        W82465   2.768  25.134   3.690
18907W        W82466  33.438   3.361   2.339
18908W        W82467  43.889  40.503   4.242
18909W        W82468  30.475  40.022  13.930
18910W        W82469   3.460  18.695   4.119
18911W        W82470   0.980   2.457  13.508
18912W        W82471  14.224  10.711  10.962
18913W        W82472  37.028  30.426   4.272
18914W        W82473  16.217  35.545   4.676
18915W        W82474  33.624  42.781   3.701
18916W        W82475   2.235   1.370   3.154
18917W        W82476  39.986   2.441  12.345
18918W        W82477   9.716  29.078  10.917
18919W        W82478   6.806   1.371  11.572
18920W        W82479  41.510  34.608   1.319
18921W        W82480   5.335  37.929   4.217
18922W        W82481   9.343  44.423   4.264
18923W        W82482  22.564  24.515  12.360
18924W        W82483   6.244  25.059   5.315
18925W        W82484  32.051   8.272  11.047
18926W        W82485   9.277   1.420  10.628
18927W        W82486  32.971   2.782   1.237
18928W        W82487  17.678   1.742   2.860
18929W        W82488  31.615  25.127   3.379
18930W        W82489  17.776  32.896   1.263
18931W        W82490  40.403  25.074  14.030
18932W        W82491  41.955  18.117  12.994
18933W        W82492  22.617  27.633  13.457
18934W        W82493  28.500  31.021   0.967
18935W        W82494  17.153   9.806  11.086
18936W        W82495  20.769  14.751  11.542
18937W        W82496  39.834  19.544  13.036
18938W        W82497  19.573  37.374   1.788
18939W        W82498   5.337   8.248  14.512
18940W        W82499   6.740  19.754  12.040
18941W        W82500  30.079   2.877   1.829
18942W        W82501  37.498  15.113  13.003
18943W        W82502   7.797  33.962  11.893
18944W        W82503  10.754  35.392  14.402
18945W        W82504  43.993   8.851   4.721
18946W        W82505  11.841  43.370   2.779
18947W        W82506  15.291  30.491  13.953
18948W        W82507   4.938  20.589  13.467
18949W        W82508  34.558  11.128   4.167
18950W        W82509  31.493   2.915  12.363
18951W        W82510   5.195  32.534  14.913
18952W        W82511   1.359   5.853  14.840
18953W        W82512  18.257  27.667   0.798
18954W        W82513  35.088   8.264   9.505
18955W        W82514   3.912  26.656   3.349
18956W        W82515  34.587   8.350   5.145
18957W        W82516  26.169  32.011  10.418
18958W        W82517  16.160  34.441  13.531
18959W        W82518  18.058  31.116  13.458
18960W        W82519   7.871  30.453   3.356
18961W        W82520   9.394   1.937  11.097
18962W        W82521  13.793  40.365   3.777
18963W        W82522  14.110  30.480   0.740
18964W        W82523  32.553  22.179  13.307
18965W        W82524   6.911   2.342  14.872
18966W        W82525  17.660  14.158  13.946
18967W        W82526  19.751  12.657   4.716
18968W        W82527  38.395   9.178   3.285
18969W        W82528   7.376  21.230  10.117
18970W        W82529  20.078  41.456   1.931
18971W        W82530   3.940  41.302   5.296
18972W        W82531  42.934  10.157   2.203
18973W        W82532   2.343  24.009  10.906
18974W        W82533  37.929  31.488   4.675
18975W        W82534  21.532  42.786   3.642
18976W        W82535  31.979  33.928   0.367
18977W        W82536  31.501  44.273  12.074
18978W        W82537  31.110  32.459   1.435
18979W        W82538  19.284  43.957   2.391
18980W        W82539   1.455  44.382   4.787
18981W        W82540  19.113   9.318  14.468
18982W        W82541  29.521  28.448   1.428
18983W        W82542  26.173  19.118   3.242
18984W        W82543  34.400  41.418  13.536
18985W        W82544  35.949  38.350  12.425
18986W        W82545  42.032   5.778  12.013
18987W        W82546   6.258  43.394  14.026
18988W        W82547  35.410  14.185   3.369
18989W        W82548  15.147  22.565  13.908
18990W        W82549   4.339   6.859  14.909
18991W        W82550   1.841  44.396   2.840
18992W        W82551  17.154  44.462  11.543
18993W        W82552  36.529  17.178   3.751
18994W        W82553  31.113  40.911   2.401
18995W        W82554  29.046  20.127   3.372
18996W        W82555  16.710  11.862   1.840
18997W        W82556  36.568  10.867  14.477
18998W        W82557   0.770  21.702   2.715
18999W        W82558  13.236  10.823  13.342
19000W        W82559  41.893  36.433  12.997
19001W        W82560  15.294  44.416   3.784
19002W        W82561  23.580  38.039   4.121
19003W        W82562  32.399  28.460  11.039
19004W        W82563  43.416   1.862  12.467
19005W        W82564   1.901   3.398   0.946
19006W        W82565  35.524  38.957  11.006
19007W        W82566  25.211  30.099  12.089
19008W        W82567  18.151  40.813   1.235
19009W        W82568  39.556  20.738   4.285
19010W        W82569  31.972  40.011   2.781
19011W        W82570   8.306  41.488   1.243
19012W        W82571  34.456  40.856  11.438
19013W        W82572   5.227  18.777  10.573
19014W        W82573  35.858  38.961   3.871
19015W        W82574  42.478   2.240  11.491
19016W        W82575  27.642  44.324   4.324
19017W        W82576   4.261  33.879   4.782
19018W        W82577   8.859  30.556   1.699
19019W        W82578  33.100   4.266   3.297
19020W        W82579  17.790  38.543   2.399
19021W        W82580  36.432  34.469   1.284
19022W        W82581  27.650   5.231   3.782
19023W        W82582  35.442  19.659   4.661
19024W        W82583  11.691   1.797   3.206
19025W        W82584  10.716  10.327   2.251
19026W        W82585  42.312  31.120   4.152
19027W        W82586   9.679  43.955   0.928
19028W        W82587  25.555   6.820  13.025
19029W        W82588  35.934   2.833   1.708
19030W        W82589   5.223  32.910   3.656
19031W        W82590  24.116  21.106  14.953
19032W        W82591  42.483   2.419   4.693
19033W        W82592   4.858  28.448   2.416
19034W        W82593  11.796  34.967  10.577
19035W        W82594  30.656  40.476   1.288
19036W        W82595  36.491  20.734  11.858
19037W        W82596  22.565  11.229   1.416
19038W        W82597  32.986   1.894  14.432
19039W        W82598  33.522  20.767  13.475
19040W        W82599  11.692  35.024  13.972
19041W        W82600  33.896  18.603  11.536
19042W        W82601  32.505  18.123   1.234
19043W        W82602  37.379  33.507  11.461
19044W        W82603  22.537   8.727   4.818
19045W        W82604  27.664  11.761  10.570
19046W        W82605   6.921  23.219  11.523
19047W        W82606  37.999  13.218  12.854
19048W        W82607  13.175   5.196  13.026
19049W        W82608  28.498  43.277   0.384
19050W        W82609   1.254  35.444   0.959
19051W        W82610  17.559  43.819   3.734
19052W        W82611  22.184  22.515  12.969
19053W        W82612  43.912  17.601   0.335
19054W        W82613  26.597  25.571  13.941
19055W        W82614  42.449  40.474   3.833
19056W        W82615  25.619  40.026  13.404
19057W        W82616  16.755  12.217  11.980
19058W        W82617  11.154  34.391   2.818
19059W        W82618  27.133  38.331   1.854
19060W        W82619   8.344  25.472  11.020
19061W        W82620  14.238  17.110   2.672
19062W        W82621  43.363  44.495  10.100
19063W        W82622  43.448  29.632  12.531
19064W        W82623  36.449   6.899   1.234
19065W        W82624  13.776  40.334  12.973
19066W        W82625  35.959  40.370   1.375
19067W        W82626   4.852  14.119  12.491
19068W        W82627  14.281  39.920   2.865
19069W        W82628  37.502  22.685  10.620
19070W        W82629   3.249  42.796  11.514
19071W        W82630  42.310  22.545   3.746
19072W        W82631   2.887  42.378  11.572
19073W        W82632  29.461  26.527   5.089
19074W        W82633  31.606  34.932  13.929
19075W        W82634  36.451  40.423   4.178
19076W        W82635  15.731  35.912  13.407
19077W        W82636  20.217  35.555   2.310
19078W        W82637  12.677  30.609   1.440
19079W        W82638  15.313  11.180   0.773
19080W        W82639  29.617  31.579   3.641
19081W        W82640  32.608   2.435   3.798
19082W        W82641  42.443  12.633  14.310
19083W        W82642  10.180   1.293  14.788
19084W        W82643  11.784  19.047   2.701
19085W        W82644  17.146  18.597   4.609
19086W        W82645  25.032   2.376   5.318
19087W        W82646  41.300   1.860   3.690
19088W        W82647   9.782   4.868  10.462
19089W        W82648  40.346  24.536   1.779
19090W        W82649  43.316  11.260  11.413
19091W        W82650   1.793  26.601  13.335
19092W        W82651  14.615   2.393   0.958
19093W        W82652  21.727  20.709  13.952
19094W        W82653   4.209  15.742   4.273
19095W        W82654  44.381   8.767  12.877
19096W        W82655  26.642  40.497   2.733
19097W        W82656  39.922  30.947  11.503
19098W        W82657  29.608   2.436   0.322
19099W        W82658  31.595  23.010  13.912
19100W        W82659  20.028  21.062  12.547
19101W        W82660  31.543   2.870  11.570
19102W        W82661   7.675  31.049   0.904
19103W        W82662  33.085  32.928   1.702
19104W        W82663  39.954  18.132   4.264
19105W        W82664   2.937   7.343   4.838
19106W        W82665  21.698  26.574   4.648
19107W        W82666  42.332  39.820  13.882
19108W        W82667  25.056  19.585   1.307
19109W        W82668  44.959  37.552  14.833
19110W        W82669  16.116  44.846  11.483
19111W        W82670  18.671  16.785   4.156
19112W        W82671  27.453  34.905   3.198
19113W        W82672  31.553   7.873   1.856
19114W        W82673  23.524  26.470  11.410
19115W        W82674  39.966  43.507   1.901
19116W        W82675  25.077  34.881  11.100
19117W        W82676  14.764  35.887  14.382
19118W        W82677  37.465  20.549   3.645
19119W        W82678  15.641   4.431  10.462
19120W        W82679  19.079  23.067   2.784
19121W        W82680  17.722   4.747  11.886
19122W        W82681  24.480  19.760  14.850
19123W        W82682  23.535  36.024   4.839
19124W        W82683  39.907  40.423  14.865
19125W        W82684  11.680  33.475  11.416
19126W        W82685  10.224  18.257   2.690
19127W        W82686  38.535   9.860  11.863
19128W        W82687   5.411  24.136  14.350
19129W        W82688  37.936  37.417  13.936
19130W        W82689  35.078  23.129   4.317
19131W        W82690  40.980  21.611   4.345
19132W        W82691  12.618  37.854  11.016
19133W        W82692   8.245  31.133  12.379
19134W        W82693  15.778   5.827   1.426
19135W        W82694  37.565  22.657   0.360
19136W        W82695  44.408  21.241   2.754
19137W        W82696  27.663  18.558  14.423
19138W        W82697  39.979  13.322  13.396
19139W        W82698  17.767   3.791  11.002
19140W        W82699  39.943  19.202  13.945
19141W        W82700  12.784  40.999   0.809
19142W        W82701  44.305  10.723   3.151
19143W        W82702  10.784   6.910   0.372
19144W        W82703   3.285  21.754  12.346
19145W        W82704   4.774  31.036  14.376
19146W        W82705  10.657   3.428  12.079
19147W        W82706   3.400  17.576   3.864
19148W        W82707  23.657  19.616  12.896
19149W        W82708  41.027  35.955  13.440
19150W        W82709  37.955  15.783   2.182
19151W        W82710  18.607  24.163   4.607
19152W        W82711  40.525  32.075  12.050
19153W        W82712  43.328  38.355  10.977
19154W        W82713  23.022  28.959   1.764
19155W        W82714   2.351  33.938  13.412
19156W        W82715  43.788  31.427  12.510
19157W        W82716   6.682  38.019  13.812
19158W        W82717   2.929  44.465   2.792
19159W        W82718  24.123   8.808  12.002
19160W        W82719  17.718  18.708  11.606
19161W        W82720  43.845  30.533  10.979
19162W        W82721  39.415   9.339   3.223
19163W        W82722  14.731  16.191  13.951
19164W        W82723  37.936   9.185  12.459
19165W        W82724  19.275  16.779  11.511
19166W        W82725  20.261  32.526  11.408
19167W        W82726   2.748  30.054  13.409
19168W        W82727   4.291   8.857  14.851
19169W        W82728   0.453  34.597  10.621
19170W        W82729  10.159  10.168   1.338
19171W        W82730  13.694  16.303   2.800
19172W        W82731  10.365  32.898  11.389
19173W        W82732  13.207  43.818   4.124
19174W        W82733  35.045  37.051  12.862
19175W        W82734  17.693  23.082   2.248
19176W        W82735   9.359  30.474   3.745
19177W        W82736  31.132  28.032   1.257
19178W        W82737  39.909   7.909  14.277
19179W        W82738  19.660  25.088   2.740
19180W        W82739   8.862   4.384  10.598
19181W        W82740  16.152   6.292  10.589
19182W        W82741  31.920  20.699  11.493
19183W        W82742  19.086  43.304  10.584
19184W        W82743  20.139  40.954  13.914
19185W        W82744  31.072  21.116  13.347
19186W        W82745  32.557  40.435   3.847
19187W        W82746  21.194  17.120   4.796
19188W        W82747  16.143   8.742   4.257
19189W        W82748  24.692  27.637  13.866
19190W        W82749   0.853  32.033   1.789
19191W        W82750  12.149  27.988   1.288
19192W        W82751  30.522  35.451  10.961
19193W        W82752  43.414  10.325   4.770
19194W        W82753  29.524  22.039   0.310
19195W        W82754  37.913  11.214  13.875
19196W        W82755  10.863  44.886  12.407
19197W        W82756  43.488  30.502   3.819
19198W        W82757   4.269   4.438  10.492
19199W        W82758  41.806   5.866   3.864
19200W        W82759  42.837  35.015   5.307
19201W        W82760  15.204   9.209  12.046
19202W        W82761  31.939  34.983   0.816
19203W        W82762  28.666  35.495  13.969
19204W        W82763  37.901   7.295  14.475
19205W        W82764  29.425  26.010   1.247
19206W        W82765   8.339  20.118   0.429
19207W        W82766   0.256  23.623   1.734
19208W        W82767  25.045  18.099  11.939
19209W        W82768   0.458   1.781  12.017
19210W        W82769   4.311  35.042  11.596
19211W        W82770  21.237  19.039   0.756
19212W        W82771  22.180  43.017  11.894
19213W        W82772  18.657  21.193  11.526
19214W        W82773  41.911  41.464  13.326
19215W        W82774   4.394  25.165  11.450
19216W        W82775  25.601  21.744   5.302
19217W        W82776   7.911  34.469  13.323
19218W        W82777  35.432  38.897  14.482
19219W        W82778  31.016   2.280  14.479
19220W        W82779  40.860  21.178  12.869
19221W        W82780   0.911  23.052  13.480
19222W        W82781  24.515   1.412   1.906
19223W        W82782  28.597  33.396   4.816
19224W        W82783  34.939  27.976   4.265
19225W        W82784  30.510  44.767  10.645
19226W        W82785  26.472  24.718   2.885
19227W        W82786   0.780  26.149  12.491
19228W        W82787  22.559  34.382  11.010
19229W        W82788  29.447   2.347   3.786
19230W        W82789  15.143  42.434  10.910
19231W        W82790  39.908  31.407  11.439
19232W        W82791  15.256   5.220   1.841
19233W        W82792  17.128  15.183  11.959
19234W        W82793  16.674  23.045   9.647
19235W        W82794  29.055  13.816   4.228
19236W        W82795   8.848   0.808   5.251
19237W        W82796  34.514  18.056   4.221
19238W        W82797  18.757  28.556  10.104
19239W        W82798  32.945   3.323  14.424
19240W        W82799   8.803  20.263   1.835
19241W        W82800   9.779  38.043  13.944
19242W        W82801  34.977  42.968   5.201
19243W        W82802  41.469   7.903  14.026
19244W        W82803  10.787  39.343   3.821
19245W        W82804  37.904  37.502   2.193
19246W        W82805   2.863   3.419  10.546
19247W        W82806  20.541   4.872   1.292
19248W        W82807  18.236   5.719   1.300
19249W        W82808  33.064  43.962   2.201
19250W        W82809  26.457  15.148   0.825
19251W        W82810  30.960   1.795   1.776
19252W        W82811  18.624  11.755   4.222
19253W        W82812   6.230  44.387   3.377
19254W        W82813  12.166  41.353   4.704
19255W        W82814   6.361  28.171   3.160
19256W        W82815  14.166  33.560   3.341
19257W        W82816  27.651  12.303  14.381
19258W        W82817   9.257   4.216  12.018
19259W        W82818  36.545  28.605  10.971
19260W        W82819  23.652   7.820   1.284
19261W        W82820  14.198  42.933   0.769
19262W        W82821   3.268  24.982  13.931
19263W        W82822  26.203   1.357  11.049
19264W        W82823  24.157  21.613   0.920
19265W        W82824  11.684  33.897  14.777
19266W        W82825  11.792   2.331   1.357
19267W        W82826  19.067   6.890   1.746
19268W        W82827  20.038  25.516   2.879
19269W        W82828  13.131   4.944   2.271
19270W        W82829  22.137   2.847   0.940
19271W        W82830  13.771  24.019  13.933
19272W        W82831   2.378   1.787  12.053
19273W        W82832  38.513   4.715  10.431
19274W        W82833  31.913  22.183  12.047
19275W        W82834  37.515   6.855   4.598
19276W        W82835  11.267  39.472  12.072
19277W        W82836   5.896  38.522  12.064
19278W        W82837  11.705  21.254   5.315
19279W        W82838  32.119  18.134   3.714
19280W        W82839  29.548  16.628   1.277
19281W        W82840   1.836   8.217  14.944
19282W        W82841  42.832  25.198   4.722
19283W        W82842  23.554  30.608   1.239
19284W        W82843  27.592  43.441   0.350
19285W        W82844  28.107  27.486  11.552
19286W        W82845  27.151  40.527  11.432
19287W        W82846  12.162  28.178  11.884
19288W        W82847  42.306  26.601   4.801
19289W        W82848  11.222   1.859   0.270
19290W        W82849  12.832  34.434   2.720
19291W        W82850  37.003  22.609  12.358
19292W        W82851  20.069  41.484   2.355
19293W        W82852  11.712  29.025   1.299
19294W        W82853  21.608  40.546  11.004
19295W        W82854  39.042  39.957  11.881
19296W        W82855   5.327  36.377   3.707
19297W        W82856  40.047  37.854  13.946
19298W        W82857  28.999  39.540   0.473
19299W        W82858   6.889  18.560   3.262
19300W        W82859  29.499  32.984   2.752
19301W        W82860  15.684  24.505  10.072
19302W        W82861   6.842   4.447  14.304
19303W        W82862  17.099  38.418  11.524
19304W        W82863  36.458  16.219  12.911
19305W        W82864  11.282  20.059   3.770
19306W        W82865   4.279   0.907   0.254
19307W        W82866  39.522  11.760   2.834
19308W        W82867   9.816  15.135   3.208
19309W        W82868   2.815  37.074  14.951
19310W        W82869   4.216  10.374  13.967
19311W        W82870  25.057  21.703  11.128
19312W        W82871  29.036  34.993   1.915
19313W        W82872  21.174  28.104   5.678
19314W        W82873   3.410  38.961  13.919
19315W        W82874  29.927   8.260   2.309
19316W        W82875  19.734   2.473   0.918
19317W        W82876  35.066  28.003  14.465
19318W        W82877  40.360   8.731  14.866
19319W        W82878   7.878   7.690  13.307
19320W        W82879   2.873   3.712   0.883
19321W        W82880  34.038  16.679  10.498
19322W        W82881   0.367   1.898   4.824
19323W        W82882  40.814  18.615  11.527
19324W        W82883  10.334  31.009  12.349
19325W        W82884   6.245  36.400   2.191
19326W        W82885  32.530  20.183  13.357
19327W        W82886  29.653  29.951   4.612
19328W        W82887   4.900  15.608   4.167
19329W        W82888  32.410  42.876   1.769
19330W        W82889   3.726  43.949  12.851
19331W        W82890  10.381   8.834  12.996
19332W        W82891   3.932  16.569   3.656
19333W        W82892  35.369  26.600  12.549
19334W        W82893  19.649  11.764  14.875
19335W        W82894  14.114  21.651   4.303
19336W        W82895  22.567  39.817   3.759
19337W        W82896  32.034   7.764  11.974
19338W        W82897  22.131  30.597   2.780
19339W        W82898   8.293  18.785   4.823
19340W        W82899  16.090  44.959  11.956
19341W        W82900  39.542  25.683   2.335
19342W        W82901  29.601  26.550   1.312
19343W        W82902  22.606  24.607   1.231
19344W        W82903  17.159  35.488  10.427
19345W        W82904  16.235  19.040   2.208
19346W        W82905  40.373  10.638   2.743
19347W        W82906  17.735   6.428  14.515
19348W        W82907   1.451   1.955  14.880
19349W        W82908  36.882  20.716   3.870
19350W        W82909  24.641  22.013   2.691
19351W        W82910  15.636  20.258   2.727
19352W        W82911  12.316  21.527  11.082
19353W        W82912  14.310   7.719  11.052
19354W        W82913  20.667  34.584  12.977
19355W        W82914   2.752  16.702  11.984
19356W        W82915  22.236  43.820   3.352
19357W        W82916  34.515   3.269  13.451
19358W        W82917  16.765  18.281   0.815
19359W        W82918  21.180  38.909   1.743
19360W        W82919  27.056  25.662  14.329
19361W        W82920  17.086  35.919   0.454
19362W        W82921  11.793   8.844  14.444
19363W        W82922  20.675  28.537   5.320
19364W        W82923  35.436  36.395   0.752
19365W        W82924  39.458  31.956   2.386
19366W        W82925  20.679  41.817   1.803
19367W        W82926  30.446   7.199  12.548
19368W        W82927   5.261  32.060  12.379
19369W        W82928  13.268  43.870   0.275
19370W        W82929  21.210  37.867   3.809
19371W        W82930  18.093  39.360   3.242
19372W        W82931  38.049  23.664  10.998
19373W        W82932  32.075   9.779   2.708
19374W        W82933  20.596  27.542   4.276
19375W        W82934   9.164  36.420  11.057
19376W        W82935  14.270  12.352   3.267
19377W        W82936  37.374  12.235   2.847
19378W        W82937  26.495  14.209   4.713
19379W        W82938   1.463  38.878  14.794
19380W        W82939  23.642   0.976  11.912
19381W        W82940  42.454  32.593   0.381
19382W        W82941  44.300  26.521  11.508
19383W        W82942  34.389  17.194  10.903
19384W        W82943  14.203  37.966  11.897
19385W        W82944  36.364  14.716   2.842
19386W        W82945  13.216  24.482  10.982
19387W        W82946   8.166   7.215   2.754
19388W        W82947   4.318   0.372   1.239
19389W        W82948  42.006   2.902   2.301
19390W        W82949  27.140  11.236   4.621
19391W        W82950  18.132  13.753  13.922
19392W        W82951  23.996  34.956  12.949
19393W        W82952  34.091  12.202   0.829
19394W        W82953   8.730  15.757   2.211
19395W        W82954  28.019  35.563   2.822
19396W        W82955  27.174   5.406  13.485
19397W        W82956  34.889   6.205  13.485
19398W        W82957  21.632  11.368   1.876
19399W        W82958  26.129  40.537   4.784
19400W        W82959  18.570  36.025  12.381
19401W        W82960  40.981  43.355   2.777
19402W        W82961   4.758  16.226  13.968
19403W        W82962   7.370  32.441  12.982
19404W        W82963  11.212  10.832   2.707
19405W        W82964  10.747  15.083  13.440
19406W        W82965   5.839  35.450   2.691
19407W        W82966  33.396   7.192  10.926
19408W        W82967   4.853  18.731   0.796
19409W        W82968  43.345  38.363   4.696
19410W        W82969  10.647  32.937  13.464
19411W        W82970   9.236  44.980  14.516
19412W        W82971  35.514   6.790  14.494
19413W        W82972   8.686  28.084   2.304
19414W        W82973  17.769   2.894  13.848
19415W        W82974  42.923   9.242   1.401
19416W        W82975  25.089  33.012  11.899
19417W        W82976  34.402  32.138   2.291
19418W        W82977   2.733  25.611  11.400
19419W        W82978  18.703  36.348   1.327
19420W        W82979   8.806  22.688   4.271
19421W        W82980  27.539   8.225  13.432
19422W        W82981   9.377   2.845  14.306
19423W        W82982   7.274  13.268  12.954
19424W        W82983  38.820  20.193  10.488
19425W        W82984   5.780  37.999  11.101
19426W        W82985  10.360   6.895  13.524
19427W        W82986  27.518  25.024  12.923
19428W        W82987  12.848  31.417  14.827
19429W        W82988  42.312   2.446   1.227
19430W        W82989  17.122  26.078  11.539
19431W        W82990  19.757  30.473   1.309
19432W        W82991  23.671  22.119   3.869
19433W        W82992  25.188   2.362  14.763
19434W        W82993  22.135  25.177   1.315
19435W        W82994  33.532  22.155   4.207
19436W        W82995  27.471  12.637   4.160
19437W        W82996   7.226  43.940   4.253
19438W        W82997  16.157  17.162  10.488
19439W        W82998  14.606  38.512  11.099
19440W        W82999  22.205  25.107  11.108
19441W        W83000  17.097   0.867  13.401
19442W        W83001  26.683  30.155   1.822
19443W        W83002   3.429  19.179  10.575
19444W        W83003  15.106  19.079  13.980
19445W        W83004   7.413   8.212   0.765
19446W        W83005   4.763  22.561  13.798
19447W        W83006  23.133  13.149   1.413
19448W        W83007  43.947  33.024  10.405
19449W        W83008  21.610  26.595  13.428
19450W        W83009  11.862  13.322  13.910
19451W        W83010   2.833  33.106   2.259
19452W        W83011  27.668  26.006   0.765
19453W        W83012  23.074  20.729   1.275
19454W        W83013  26.198  36.436  10.487
19455W        W83014  30.509  21.539  12.352
19456W        W83015  24.517  16.100   0.843
19457W        W83016  12.666  41.471   1.255
19458W        W83017  32.536  17.133   2.290
19459W        W83018  36.986  42.357   3.835
19460W        W83019  22.017  30.502  14.860
19461W        W83020  23.117  12.815   4.297
19462W        W83021  20.764  11.358   0.764
19463W        W83022   7.763  31.961  11.485
19464W        W83023  43.789  15.766   0.862
19465W        W83024  36.047  25.971   4.325
19466W        W83025  13.602   4.842   3.731
19467W        W83026   9.357  22.031   2.711
19468W        W83027   4.907  40.012  14.928
19469W        W83028  31.111  40.549  11.038
19470W        W83029   0.905  17.780  11.420
19471W        W83030  14.247   8.730   3.684
19472W        W83031  12.653  13.151  14.311
19473W        W83032  41.377  35.905   4.782
19474W        W83033  40.451  24.176  14.336
19475W        W83034  37.449  44.828   1.862
19476W        W83035   0.913  12.236  13.897
19477W        W83036  26.050  36.352   4.319
19478W        W83037  32.452  37.497   0.922
19479W        W83038   9.875  21.080   2.211
19480W        W83039  33.882   3.908  14.820
19481W        W83040  11.656  39.922   2.195
19482W        W83041  41.910  12.144  12.887
19483W        W83042   7.700  19.712   1.444
19484W        W83043  30.131  10.834  11.012
19485W        W83044  19.723  36.572  13.522
19486W        W83045  31.531  41.017  10.445
19487W        W83046   6.717  14.808  10.915
19488W        W83047  13.779  35.108   2.210
19489W        W83048  21.067  22.530   4.648
19490W        W83049   5.395  36.593  11.873
19491W        W83050  42.011  36.394  12.054
19492W        W83051  44.348  16.147  14.325
19493W        W83052  18.601  38.859  13.028
19494W        W83053   8.305  34.992  14.823
19495W        W83054  28.078  16.160  13.360
19496W        W83055  14.212  29.969  13.014
19497W        W83056  27.107  38.887   0.384
19498W        W83057  12.211   1.458   3.170
19499W        W83058  18.109  26.008   4.275
19500W        W83059  31.911  21.731   0.732
19501W        W83060  15.168  26.612   2.693
19502W        W83061  39.491   2.392   0.344
19503W        W83062  43.876  29.567   1.921
19504W        W83063  16.127   7.391  11.054
19505W        W83064  21.631   3.260   4.727
19506W        W83065  39.995  40.996  12.413
19507W        W83066  30.139  43.903   1.902
19508W        W83067  31.994  34.494   2.785
19509W        W83068  30.532  26.456   1.345
19510W        W83069  16.112  43.510  12.878
19511W        W83070  37.545   7.852   4.229
19512W        W83071  10.155  33.015  13.543
19513W        W83072   9.674  28.124   0.779
19514W        W83073  22.620  38.395   3.783
19515W        W83074  40.930   9.730  10.458
19516W        W83075  32.122   7.297   9.993
19517W        W83076  19.768  20.703  13.351
19518W        W83077  36.378  31.438  11.032
19519W        W83078  18.601  18.265  11.980
19520W        W83079  39.965   6.189   0.890
19521W        W83080  27.550  19.664  14.836
19522W        W83081  39.038  26.635  13.506
19523W        W83082  10.352  10.317   4.699
19524W        W83083  32.986  26.578   0.290
19525W        W83084  10.635  32.912   0.302
19526W        W83085  13.657  14.789  13.413
19527W        W83086  41.948  23.551   2.268
19528W        W83087   7.808  25.694   1.896
19529W        W83088  11.156  19.704  11.095
19530W        W83089   3.357  40.413   4.303
19531W        W83090  18.758   8.166   4.756
19532W        W83091  30.069  16.223  12.536
19533W        W83092  30.426   5.762  11.546
19534W        W83093  20.631   6.846   2.207
19535W        W83094   2.938  17.180   4.197
19536W        W83095  33.091   4.743   3.263
19537W        W83096   5.767   5.428  13.964
19538W        W83097   6.380  11.363   3.235
19539W        W83098  21.182  12.706   9.936
19540W        W83099  10.245  40.953  14.446
19541W        W83100  14.763  42.285  11.874
19542W        W83101   3.826  31.576  14.337
19543W        W83102  26.600  26.594   2.355
19544W        W83103  44.346  16.189  13.462
19545W        W83104  43.443  17.146   0.907
19546W        W83105  41.002  25.204   0.763
19547W        W83106  16.621  21.688   3.213
19548W        W83107   5.429  26.655   1.336
19549W        W83108  41.014   2.822  13.402
19550W        W83109  14.799  35.924  12.033
19551W        W83110  14.704  30.579   3.690
19552W        W83111  19.699  41.362   3.671
19553W        W83112  11.712  17.729  11.496
19554W        W83113  29.104  31.479  14.452
19555W        W83114  19.742   5.297  11.606
19556W        W83115   0.806  23.617  14.890
19557W        W83116  22.143   4.817  12.380
19558W        W83117  12.836  31.549   4.251
19559W        W83118  38.490   7.847  12.379
19560W        W83119  18.571  41.876   1.797
19561W        W83120  30.065   2.291  11.380
19562W        W83121  22.633  32.043  14.940
19563W        W83122  23.994  12.116   1.780
19564W        W83123  24.507  30.963   0.331
19565W        W83124  11.748  32.089  10.948
19566W        W83125  31.902  23.117   2.771
19567W        W83126  17.791  16.756  13.477
19568W        W83127  24.160   3.435   0.801
19569W        W83128  23.065  42.408   4.333
19570W        W83129  44.873  25.623  10.476
19571W        W83130  14.789   7.811  13.016
19572W        W83131  24.122   8.831   3.364
19573W        W83132  36.845  37.850  13.353
19574W        W83133  25.477  18.139   1.849
19575W        W83134  21.249   3.272  14.973
19576W        W83135  30.421   2.889   2.308
19577W        W83136  42.891  14.165  13.928
19578W        W83137  34.966  18.559  11.426
19579W        W83138  33.479  13.144   2.787
19580W        W83139  38.841  31.140   1.414
19581W        W83140  37.450  41.538   4.724
19582W        W83141  33.879  12.624   5.206
19583W        W83142  12.246  24.054   2.687
19584W        W83143  27.955  43.411   2.720
19585W        W83144  34.539  16.264   2.889
19586W        W83145   0.281  32.998   4.615
19587W        W83146  20.638   7.314   0.298
19588W        W83147  16.652  29.664   0.905
19589W        W83148   9.255  40.838  13.502
19590W        W83149   4.430  44.373   4.751
19591W        W83150  36.523  23.612   1.868
19592W        W83151  36.943  11.128   0.242
19593W        W83152  37.061  25.654   0.815
19594W        W83153  42.284   9.787  12.904
19595W        W83154  39.843  19.236   0.269
19596W        W83155  38.570  19.622   2.390
19597W        W83156  39.882   0.331   2.826
19598W        W83157  12.306   2.813   1.794
19599W        W83158  21.742  43.409   2.287
19600W        W83159  28.434  19.621  14.440
19601W        W83160   3.380  23.578   1.318
19602W        W83161   9.665   1.772  12.837
19603W        W83162   6.252  29.593   3.778
19604W        W83163   5.363  11.651   2.288
19605W        W83164  35.959  26.983  12.515
19606W        W83165  37.965  27.001  12.065
19607W        W83166  32.062  14.241   3.689
19608W        W83167  32.130  38.462   5.692
19609W        W83168  29.497  43.313   4.152
19610W        W83169  25.712   8.250  12.504
19611W        W83170  19.582  11.229  14.446
19612W        W83171  12.278   5.419   0.358
19613W        W83172   4.840  16.746  11.050
19614W        W83173  27.689  21.215  14.780
19615W        W83174  11.214  17.751  10.987
19616W        W83175   4.698  40.318   4.649
19617W        W83176  14.179  41.875   3.730
19618W        W83177  12.259  43.286  10.524
19619W        W83178  28.479  33.891   3.308
19620W        W83179  30.413  42.009  12.344
19621W        W83180  19.670   7.286   4.136
19622W        W83181  38.362  19.564   1.370
19623W        W83182  16.310  25.085   1.885
19624W        W83183  44.836  41.319  11.005
19625W        W83184   1.409  41.366  13.429
19626W        W83185  41.013  39.406  10.931
19627W        W83186  21.054  24.004  13.950
19628W        W83187  33.122  38.364   3.151
19629W        W83188  42.828  10.681   4.156
19630W        W83189  23.148  32.073  14.926
19631W        W83190  26.567  36.017   0.248
19632W        W83191  11.627  39.317  12.482
19633W        W83192  22.539  24.132   0.906
19634W        W83193  37.939  35.585   0.823
19635W        W83194  40.487  15.637   2.762
19636W        W83195  41.438  30.935  12.058
19637W        W83196  39.925  44.818  11.583
19638W        W83197  38.050  42.786  13.902
19639W        W83198   6.408  32.907   4.253
19640W        W83199   3.320  32.890  10.987
19641W        W83200  28.024  43.815  13.484
19642W        W83201  33.423  36.500  10.978
19643W        W83202  21.740  26.138   1.224
19644W        W83203  36.385  29.056   3.843
19645W        W83204  21.716  25.131  14.836
19646W        W83205   5.725  23.608   4.744
19647W        W83206  17.650   6.304   3.779
19648W        W83207  28.652  14.311  10.517
19649W        W83208  26.017  25.567   3.382
19650W        W83209  22.534   6.198  11.987
19651W        W83210  24.199  11.182  12.059
19652W        W83211   1.332  14.187   3.654
19653W        W83212  33.517  29.076  10.955
19654W        W83213  39.881   6.859  14.786
19655W        W83214  33.070  22.620  13.045
19656W        W83215  38.923  10.678   1.932
19657W        W83216  16.755  38.004  10.922
19658W        W83217  32.558  31.439   3.373
19659W        W83218  43.993  27.179  14.489
19660W        W83219  39.921  25.505   1.308
19661W        W83220  27.981  43.781   0.469
19662W        W83221  33.592  14.825  10.902
19663W        W83222   0.964   0.454  11.985
19664W        W83223  27.013  34.875  13.539
19665W        W83224  35.469  38.976   0.921
19666W        W83225  36.865  38.939  11.886
19667W        W83226  19.774  29.436   0.786
19668W        W83227  26.596  33.583   4.271
19669W        W83228   3.423   1.846   3.753
19670W        W83229  25.630   6.386  11.506
19671W        W83230  33.952  39.407   0.269
19672W        W83231   6.322  37.390   9.998
19673W        W83232  40.863  34.496  13.807
19674W        W83233  17.235  21.017   3.339
19675W        W83234  27.187  34.409  13.484
19676W        W83235  42.988  21.048   0.400
19677W        W83236  40.014  43.469  12.988
19678W        W83237  28.435   3.263  12.411
19679W        W83238   2.261  32.095  11.562
19680W        W83239   0.492  16.250   3.164
19681W        W83240  34.020  39.352  12.527
19682W        W83241  21.697  30.164   3.213
19683W        W83242  35.961  34.887   5.109
19684W        W83243  12.122   8.737   1.897
19685W        W83244  26.205  13.226   2.867
19686W        W83245  36.907   1.278  10.419
19687W        W83246  33.105  44.954  12.989
19688W        W83247  34.006  31.022   2.271
19689W        W83248  30.941  21.120   2.775
19690W        W83249  24.576  12.341   5.293
19691W        W83250  32.910  37.562  13.407
19692W        W83251  24.652  18.570  11.383
19693W        W83252  39.507   4.870   4.161
19694W        W83253  31.033  18.667   3.160
19695W        W83254   0.393  31.460  14.334
19696W        W83255  16.275  35.016  11.964
19697W        W83256  39.059  21.219   0.394
19698W        W83257  17.754  33.035  13.021
19699W        W83258  22.721  41.392   3.659
19700W        W83259  38.041   3.786   1.349
19701W        W83260  10.685  19.275  11.578
19702W        W83261   1.435  32.047  11.901
19703W        W83262  13.828  30.092   1.830
19704W        W83263  39.998  44.011   0.379
19705W        W83264  31.102   9.752   4.292
19706W        W83265   5.426   1.862   4.758
19707W        W83266  19.099  42.798  12.458
19708W        W83267  32.890  16.752   1.720
19709W        W83268  28.120  25.506  14.936
19710W        W83269  12.667  43.889  11.513
19711W        W83270   6.353   4.871  11.439
19712W        W83271   4.941  29.426   5.268
19713W        W83272  22.110  10.382   2.354
19714W        W83273  35.546  38.569   0.929
19715W        W83274  38.334  18.729  10.617
19716W        W83275  43.987   4.337  14.420
19717W        W83276  21.189  33.064   4.760
19718W        W83277  37.900   6.408   2.784
19719W        W83278  18.717  18.235  14.433
19720W        W83279  25.641  32.952  10.470
19721W        W83280  41.425  37.368  10.963
19722W        W83281   9.267  20.204   4.803
19723W        W83282   7.740  34.101  12.405
19724W        W83283   1.363  29.109   2.287
19725W        W83284  39.840   2.353   1.705
19726W        W83285  19.637  12.699  13.434
19727W        W83286  22.089  18.075   2.790
19728W        W83287  34.572   6.272  14.904
19729W        W83288   1.381  40.323  13.313
19730W        W83289  28.646  31.016   3.835
19731W        W83290  10.301  24.615  10.431
19732W        W83291  18.101  12.320   3.750
19733W        W83292  18.674  10.803  12.413
19734W        W83293   3.837  16.128   2.694
19735W        W83294   0.874  22.524  10.071
19736W        W83295  33.479  23.539   2.324
19737W        W83296  44.337   2.363  13.493
19738W        W83297  24.974   4.869   1.767
19739W        W83298  15.675  15.812   1.713
19740W        W83299  23.591  29.589  11.112
19741W        W83300  31.503   5.833  14.959
19742W        W83301  14.305  33.565  11.016
19743W        W83302  44.000  39.465   2.716
19744W        W83303  16.669   7.804  13.466
19745W        W83304  42.457  42.289   3.857
19746W        W83305  22.600  28.135  12.552
19747W        W83306  42.448   0.266   1.819
19748W        W83307   8.725  41.855   5.255
19749W        W83308  27.134  10.643  12.480
19750W        W83309   4.409  22.724  12.044
19751W        W83310  11.291  20.106   4.631
19752W        W83311   1.469  38.918   4.294
19753W        W83312  40.989   0.952  11.022
19754W        W83313   8.881  14.620   3.180
19755W        W83314  28.131  33.129  12.896
19756W        W83315  43.779  14.606   1.771
19757W        W83316   6.866  11.626  10.956
19758W        W83317  24.041  17.208  12.036
19759W        W83318  13.148   0.822  14.399
19760W        W83319  27.689   0.320  13.469
19761W        W83320  24.719   2.933  11.415
19762W        W83321  43.777  27.626   4.598
19763W        W83322   0.919   1.870   2.711
19764W        W83323  34.058  28.007   4.673
19765W        W83324   0.436  33.422   1.728
19766W        W83325  26.122  15.252   2.699
19767W        W83326  20.141  14.615   4.343
19768W        W83327  40.844   0.291  14.822
19769W        W83328  10.763  22.239   0.891
19770W        W83329   1.267  24.604   2.881
19771W        W83330  28.025  32.952   0.870
19772W        W83331   6.847   4.418   1.713
19773W        W83332  41.456  22.087   4.337
19774W        W83333  41.990  29.669   0.288
19775W        W83334  16.713  37.542   3.793
19776W        W83335   8.749  23.640   4.725
19777W        W83336   9.889   6.701   0.448
19778W        W83337  36.897   8.847   4.186
19779W        W83338  24.977   6.293   1.390
19780W        W83339  12.171  24.503   0.414
19781W        W83340  14.254  28.113   4.234
19782W        W83341   4.425  19.552  11.047
19783W        W83342  23.611  35.390  12.871
19784W        W83343  18.076  18.740  13.012
19785W        W83344  38.571   3.922  14.879
19786W        W83345  25.484  42.915   4.280
19787W        W83346  40.386  19.154   3.745
19788W        W83347  34.514  13.823   0.296
19789W        W83348  35.526  37.381   4.601
19790W        W83349  39.966   3.279  14.436
19791W        W83350  26.114  30.462   3.215
19792W        W83351  29.573  25.504  14.933
19793W        W83352  37.883  19.070  13.516
19794W        W83353   0.445  19.116   3.763
19795W        W83354   0.336  21.608  13.478
19796W        W83355  26.099  32.471  12.997
19797W        W83356  25.612  18.545  14.487
19798W        W83357   5.762   4.855   2.790
19799W        W83358  19.638  43.954   0.379
19800W        W83359  22.734  37.079  14.427
19801W        W83360  23.046  28.562   1.785
19802W        W83361  18.624  36.524  13.335
19803W        W83362  28.004  11.312  13.918
19804W        W83363  17.658  16.630   0.952
19805W        W83364  26.168  26.702  12.078
19806W        W83365  23.219   9.269  14.993
19807W        W83366  37.065  42.833  12.526
19808W        W83367   3.398  41.961  13.386
19809W        W83368  14.619  16.109  12.046
19810W        W83369   8.393  12.216  11.401
19811W        W83370  34.869  27.946   4.645
19812W        W83371  37.359   9.314   1.386
19813W        W83372  30.056  11.819   0.906
19814W        W83373   4.825  12.657  11.477
19815W        W83374  17.702  27.132  12.961
19816W        W83375  37.513  31.451  13.047
19817W        W83376  19.231  33.042   2.708
19818W        W83377  13.651  10.664  11.048
19819W        W83378  36.926  44.385   4.671
19820W        W83379  11.796   5.883   3.329
19821W        W83380  15.656  24.103   9.503
19822W        W83381  13.608  10.226  13.015
19823W        W83382  14.310  28.507   2.841
19824W        W83383  42.348  40.463   4.656
19825W        W83384  31.576   5.431   0.448
19826W        W83385  23.714  13.722   0.247
19827W        W83386  35.980  39.856   3.309
19828W        W83387  37.901  40.950   0.350
19829W        W83388  31.931  15.777   4.179
19830W        W83389  33.953  22.520   3.768
19831W        W83390   1.345  13.185  14.484
19832W        W83391  39.977  34.115  14.915
19833W        W83392  30.907  35.371   3.827
19834W        W83393  30.044   3.755   3.174
19835W        W83394  22.687  34.899   4.204
19836W        W83395   2.893  38.842   1.366
19837W        W83396  27.687  44.842   2.724
19838W        W83397  37.537  26.556  11.887
19839W        W83398  39.035  31.095  13.444
19840W        W83399  12.650  19.570  13.485
19841W        W83400  19.563   6.384   4.814
19842W        W83401  34.375   0.978  11.602
19843W        W83402  38.522  37.040  13.513
19844W        W83403  14.117  37.962   3.668
19845W        W83404  10.690  37.392  10.899
19846W        W83405  20.156  29.113  14.005
19847W        W83406  35.585  29.593  14.335
19848W        W83407  37.539   0.844   4.622
19849W        W83408  16.702  17.696  11.464
19850W        W83409  24.607  44.449   0.393
19851W        W83410   6.308  28.094  14.943
19852W        W83411   3.894  37.051  10.591
19853W        W83412  39.333  39.039  11.441
19854W        W83413  39.944   8.831   0.775
19855W        W83414  38.409  35.388   3.870
19856W        W83415   1.288  20.726   0.322
19857W        W83416  26.597   8.260  14.820
19858W        W83417  35.600  42.890  10.404
19859W        W83418   7.869  31.438  12.516
19860W        W83419  22.560  10.711   2.889
19861W        W83420   4.800   8.740   3.253
19862W        W83421  25.668  40.802   3.326
19863W        W83422   1.732  30.914   2.778
19864W        W83423  14.332  28.137  12.950
19865W        W83424  37.577  24.504   2.266
19866W        W83425   4.848  11.302   3.228
19867W        W83426  42.778  34.955   3.773
19868W        W83427  37.954  36.406  10.438
19869W        W83428  11.766   5.853  10.985
19870W        W83429  10.856  11.327  13.835
19871W        W83430  22.636  34.061  10.961
19872W        W83431   0.848  41.475   4.300
19873W        W83432  39.325  29.048   1.888
19874W        W83433  19.041  43.807   1.836
19875W        W83434  13.730  16.695  13.855
19876W        W83435  28.170  40.438  13.879
19877W        W83436  38.842   6.918  13.357
19878W        W83437   3.799  36.500  11.911
19879W        W83438  21.114  10.875  11.591
19880W        W83439   1.435  41.493  12.551
19881W        W83440  32.468   0.255   0.443
19882W        W83441   3.240   3.247   4.672
19883W        W83442   5.427  13.136   4.208
19884W        W83443  40.326  35.039   5.263
19885W        W83444   6.787  28.595   2.665
19886W        W83445   7.689  16.277   3.160
19887W        W83446  18.622  16.204  11.471
19888W        W83447  22.999   2.863   4.351
19889W        W83448   1.936   5.862   3.726
19890W        W83449  39.332  39.422   1.387
19891W        W83450   8.728  25.675  13.829
19892W        W83451  24.005   7.712   3.757
19893W        W83452  37.518  28.565   2.196
19894W        W83453  38.559  30.023   4.747
19895W        W83454  26.679  42.907   5.111
19896W        W83455  34.369   0.275  11.096
19897W        W83456  36.923  23.203   3.738
19898W        W83457  44.414  26.049  14.511
19899W        W83458  30.132  26.495   2.180
19900W        W83459   0.770  22.728   5.197
19901W        W83460  17.701  42.300   1.266
19902W        W83461  41.840  38.507   4.211
19903W        W83462  30.141  25.141   2.304
19904W        W83463  31.145  41.436  11.117
19905W        W83464  36.933  38.424  11.900
19906W        W83465   4.226  39.844   3.325
19907W        W83466   2.240  29.446   4.174
19908W        W83467  25.489   9.650  12.037
19909W        W83468  30.553  33.114  12.857
19910W        W83469   0.297  11.743  12.504
19911W        W83470   3.816  36.543   0.785
19912W        W83471  44.338  39.873  13.466
19913W        W83472  40.036  24.044  12.379
19914W        W83473  28.010  36.450  11.542
19915W        W83474  32.958  22.206   0.441
19916W        W83475   7.759  28.028  14.764
19917W        W83476  37.054  40.976  11.945
19918W        W83477   0.300  32.563  14.878
19919W        W83478  35.088  35.944  10.919
19920W        W83479  38.388  29.433  14.512
19921W        W83480  12.705   4.721   3.324
19922W        W83481  33.937  21.202  12.017
19923W        W83482  28.575  30.553  11.012
19924W        W83483  17.225  41.887  12.056
19925W        W83484   6.700  42.914  12.507
19926W        W83485  30.499  15.741  12.371
19927W        W83486  19.224  37.430   3.162
19928W        W83487  15.769  10.294  13.008
19929W        W83488  43.887  23.708  10.486
19930W        W83489  34.033  16.704  13.453
19931W        W83490   0.976  33.983  14.980
19932W        W83491  36.941  10.643   2.263
19933W        W83492   3.216   1.879   0.342
19934W        W83493  30.626   4.242   0.963
19935W        W83494  24.046  27.536  13.321
19936W        W83495   4.280  43.433   0.256
19937W        W83496  10.716  29.495  12.464
19938W        W83497  23.551  39.560  11.058
19939W        W83498  10.639  41.501  12.927
19940W        W83499  25.574   7.208   2.413
19941W        W83500  30.505  14.154  14.314
19942W        W83501  37.474  43.966   3.256
19943W        W83502  11.769  29.546   0.441
19944W        W83503  11.830   8.889  14.846
19945W        W83504  10.857  11.715  11.496
19946W        W83505  10.322  18.598   4.682
19947W        W83506  15.602  24.183  12.886
19948W        W83507   1.773  10.843   0.960
19949W        W83508  11.637   4.223  11.067
19950W        W83509  42.415  40.907  10.914
19951W        W83510   3.247  23.715   2.410
19952W        W83511  11.754   3.279  14.828
19953W        W83512  26.079  10.254  10.961
19954W        W83513  22.702  11.257  12.494
19955W        W83514  29.494  42.441   0.315
19956W        W83515  34.118   1.739   1.256
19957W        W83516  32.041   3.948   0.777
19958W        W83517  42.033  38.544  11.044
19959W        W83518  39.445  30.081  12.443
19960W        W83519   1.733  32.100   1.895
19961W        W83520  10.851  23.680   0.376
19962W        W83521  12.171  17.708  10.944
19963W        W83522  29.073  13.284  12.414
19964W        W83523  26.589   4.368  11.879
19965W        W83524  36.443  43.866   2.194
19966W        W83525   3.232   9.687  13.455
19967W        W83526  19.052   3.363  12.907
19968W        W83527   6.697  38.890  10.497
19969W        W83528  44.372  32.899  11.419
19970W        W83529  12.758  21.537   4.722
19971W        W83530  30.129  44.854  14.482
19972W        W83531  32.908  10.338   4.321
19973W        W83532  33.074  20.638  14.439
19974W        W83533  18.787  19.279   0.360
19975W        W83534   0.931  35.970   1.249
19976W        W83535  42.921  31.959  13.818
19977W        W83536  25.536  34.516  14.791
19978W        W83537  20.120   4.335  14.766
19979W        W83538  41.473  44.471  14.469
19980W        W83539   5.799  35.549   1.745
19981W        W83540  44.967   5.269   4.634
19982W        W83541  20.138  42.295   3.713
19983W        W83542  20.616   4.924   3.716
19984W        W83543  42.288  27.147   2.273
19985W        W83544   9.225  26.035  13.831
19986W        W83545   5.344  44.814  13.358
19987W        W83546   9.718  11.215   0.777
19988W        W83547   2.431  12.152   1.891
19989W        W83548   7.202  23.528  12.390
19990W        W83549   3.376  20.054   2.271
19991W        W83550  22.165  16.719   2.699
19992W        W83551  32.933  28.660   4.816
19993W        W83552  18.787  14.732   2.270
19994W        W83553  22.173  24.981  10.455
19995W        W83554  33.105  42.504  14.490
19996W        W83555  25.191   2.470   1.772
19997W        W83556  22.251  26.038  13.880
19998W        W83557  37.908  22.080   2.716
19999W        W83558  23.059  40.029  11.915
20000W        W83559  16.650  22.047   3.285
20001W        W83560  33.945   5.310   3.221
20002W        W83561  15.708  29.434  11.606
20003W        W83562  35.069  22.159  11.024
20004W        W83563  20.232  28.930   0.342
20005W        W83564  39.321  42.833   3.253
20006W        W83565  28.167  10.199  10.143
20007W        W83566   4.850   1.878   3.648
20008W        W83567  24.082   9.387  13.040
20009W        W83568  12.292  44.430  13.045
20010W        W83569  17.138   5.307  11.998
20011W        W83570  12.748  18.555   4.355
20012W        W83571  16.106  40.039  12.920
20013W        W83572  15.657  27.540   2.244
20014W        W83573  43.820  14.622  14.466
20015W        W83574  29.105  14.338  14.427
20016W        W83575  39.357  41.389  13.442
20017W        W83576  43.890   2.823   2.880
20018W        W83577  18.195   9.803   1.876
20019W        W83578   4.216  19.690  14.317
20020W        W83579  35.862   3.283   0.743
20021W        W83580  14.094   4.240   3.164
20022W        W83581  36.900   8.748   3.752
20023W        W83582  42.492  30.911  14.471
20024W        W83583  38.512   1.303   3.813
20025W        W83584  42.470   1.293  13.943
20026W        W83585   8.839   7.350  11.448
20027W        W83586  12.683  17.678  13.387
20028W        W83587  11.719  41.940  13.864
20029W        W83588  14.710  33.115  11.499
20030W        W83589  21.098  11.741  14.948
20031W        W83590   2.469  30.911  12.386
20032W        W83591  33.471  11.192   3.199
20033W        W83592  10.268  21.112   3.813
20034W        W83593  29.502  13.628   0.282
20035W        W83594  29.955  19.691  10.970
20036W        W83595  43.401  19.183  10.415
20037W        W83596  16.767  44.932   2.395
20038W        W83597  37.879  14.106   3.823
20039W        W83598  28.130  29.635   1.830
20040W        W83599   0.415  32.941   3.301
20041W        W83600  23.620   2.383   2.419
20042W        W83601  32.555  41.853   2.186
20043W        W83602   2.894  16.186  12.075
20044W        W83603  33.066  20.243  11.057
20045W        W83604  20.618  32.089   1.229
20046W        W83605   6.840  40.418   0.933
20047W        W83606  14.319   9.841  10.536
20048W        W83607   1.306  41.355   3.826
20049W        W83608   0.774   8.290  14.510
20050W        W83609  28.983  36.451  13.793
20051W        W83610  10.806  12.197   1.289
20052W        W83611  20.638   3.720   2.269
20053W        W83612  44.008  32.488  11.438
20054W        W83613  36.880  27.990   0.772
20055W        W83614  37.875  29.445  13.351
20056W        W83615  31.587  42.888   0.366
20057W        W83616  20.186  32.623   0.791
20058W        W83617   5.917  15.628  11.063
20059W        W83618  11.235  14.314   0.469
20060W        W83619   2.753  25.494   2.866
20061W        W83620  41.412  32.917  11.383
20062W        W83621  32.428  21.630   2.711
20063W        W83622  37.353  31.476  13.512
20064W        W83623  44.451  13.349  12.873
20065W        W83624  39.366  27.185   3.764
20066W        W83625  43.511  20.607   1.222
20067W        W83626  12.841  28.957   4.179
20068W        W83627  16.711  43.930   4.647
20069W        W83628  38.562  19.157   0.300
20070W        W83629  19.111  37.085  12.508
20071W        W83630  42.821  44.801   1.708
20072W        W83631   9.794  37.465   4.715
20073W        W83632  37.044  10.343   0.800
20074W        W83633  34.891  43.880   1.740
20075W        W83634  30.956  38.488   3.200
20076W        W83635  15.122  43.887  11.514
20077W        W83636   7.231  31.058   3.174
20078W        W83637   9.333   1.395  11.563
20079W        W83638  21.610  37.409   3.199
20080W        W83639   7.836  16.806   1.282
20081W        W83640  25.986  44.417   2.795
20082W        W83641  43.461  42.383   4.311
20083W        W83642   6.898  30.919  13.874
20084W        W83643  11.835  32.002  10.528
20085W        W83644  33.485  13.754   5.124
20086W        W83645   7.861  41.945   1.796
20087W        W83646   0.764  12.266   2.337
20088W        W83647  13.229   8.703  13.310
20089W        W83648  27.081  18.103   4.285
20090W        W83649  28.107  29.509  10.629
20091W        W83650  39.927   4.927   2.854
20092W        W83651  15.216  16.648  10.636
20093W        W83652  23.071  15.816  11.606
20094W        W83653  20.174   6.707   2.823
20095W        W83654  34.972  37.004  12.455
20096W        W83655  11.161  35.882   4.191
20097W        W83656  20.044  32.449   4.349
20098W        W83657  43.781   4.817   3.828
20099W        W83658  23.117   7.331   3.671
20100W        W83659   1.968  33.396  11.559
20101W        W83660  20.132  32.465  14.995
20102W        W83661  33.906  17.182  11.973
20103W        W83662  28.964   9.218   3.633
20104W        W83663  40.869   4.328  12.416
20105W        W83664  44.474  38.414  14.797
20106W        W83665  10.195   9.195  14.409
20107W        W83666  44.261  39.559   2.782
20108W        W83667   8.214  15.311   2.265
20109W        W83668  34.610  32.095   1.249
20110W        W83669  31.611   2.315   2.246
20111W        W83670  44.298  37.470  11.596
20112W        W83671  36.403  35.916  13.981
20113W        W83672  33.456  13.662  11.070
20114W        W83673  44.938  17.241   1.699
20115W        W83674  21.249  31.089   2.743
20116W        W83675  42.799  32.913   0.767
20117W        W83676  27.544  31.605   3.666
20118W        W83677  43.289  10.147   2.298
20119W        W83678   4.282  37.886   3.725
20120W        W83679  18.077  20.127   3.685
20121W        W83680  41.346  16.709   1.809
20122W        W83681  22.214  18.757   0.827
20123W        W83682   2.793   7.716   1.872
20124W        W83683  27.659  23.703   1.852
20125W        W83684  43.399  44.352   1.845
20126W        W83685  33.118   3.916  13.012
20127W        W83686  24.140   0.823   1.225
20128W        W83687   1.370  30.039   0.286
20129W        W83688   8.812  37.927  12.502
20130W        W83689  10.795  10.875   0.331
20131W        W83690   5.226   7.394   3.689
20132W        W83691   3.730  28.560  12.932
20133W        W83692  37.369   5.300   2.893
20134W        W83693  44.952  37.080   1.346
20135W        W83694  44.858  29.650   2.375
20136W        W83695  12.768  28.680  11.030
20137W        W83696  11.293  20.114   4.255
20138W        W83697  18.288   1.481  10.415
20139W        W83698  29.661   6.365  14.025
20140W        W83699  42.810  20.208   2.688
20141W        W83700  39.948  37.447  12.954
20142W        W83701  39.848  35.952  10.404
20143W        W83702  12.837  10.637  11.527
20144W        W83703  27.061  31.641  14.320
20145W        W83704  20.165  35.922   1.802
20146W        W83705  27.087   3.288  14.800
20147W        W83706  17.259   3.738   1.433
20148W        W83707  42.825  15.805   4.209
20149W        W83708  38.844  23.713   4.126
20150W        W83709   2.411  39.922  11.916
20151W        W83710  26.524  27.137  14.918
20152W        W83711  30.085  22.230  10.891
20153W        W83712  29.102  11.243   3.815
20154W        W83713  30.946  15.105  10.441
20155W        W83714  31.099   4.440   2.839
20156W        W83715  27.092   1.239   0.892
20157W        W83716   2.418  13.707  11.528
20158W        W83717  13.339  10.635  13.003
20159W        W83718  35.081  27.130  10.555
20160W        W83719  13.725  33.457  11.486
20161W        W83720  33.896  19.195   4.154
20162W        W83721  41.417  22.173  11.918
20163W        W83722  41.033  19.562  14.904
20164W        W83723  43.885  38.831  11.951
20165W        W83724  21.102  25.038   3.714
20166W        W83725  17.156  22.716   1.922
20167W        W83726   2.799   8.661  11.087
20168W        W83727  32.608  26.547  12.019
20169W        W83728  18.079   0.447  12.008
20170W        W83729  32.131   3.723   0.266
20171W        W83730  18.671  12.122   0.318
20172W        W83731  23.657   5.810  13.039
20173W        W83732  21.220  28.460  11.566
20174W        W83733  27.054   7.346  11.940
20175W        W83734  21.638  16.595  11.983
20176W        W83735  30.457   0.445  10.468
20177W        W83736  15.650   2.903  11.918
20178W        W83737  12.308  18.273  11.965
20179W        W83738   1.375   4.376   3.360
20180W        W83739  16.071  38.485   2.741
20181W        W83740  40.982  40.852  13.998
20182W        W83741  15.260   5.840  12.500
20183W        W83742  20.618  29.087  12.339
20184W        W83743  10.378  12.843   4.676
20185W        W83744   3.432  41.901  14.304
20186W        W83745  44.802   8.332  13.029
20187W        W83746  39.533  12.617  12.417
20188W        W83747  43.303   4.843   4.658
20189W        W83748  38.043  38.935  13.393
20190W        W83749   7.184  18.068   1.737
20191W        W83750   3.335  14.104  13.446
20192W        W83751  34.069   3.371  12.939
20193W        W83752   4.871  12.180   2.381
20194W        W83753  30.643  38.569   1.236
20195W        W83754  26.049   9.314   2.859
20196W        W83755  27.591  22.172  12.977
20197W        W83756  11.687  18.197  12.385
20198W        W83757   6.273  30.474   0.818
20199W        W83758  33.012  34.059   3.383
20200W        W83759  29.608  13.201   2.222
20201W        W83760   4.264  25.141   4.259
20202W        W83761  41.394  25.021  12.906
20203W        W83762  26.515  20.182   0.309
20204W        W83763  31.947  42.019   4.121
20205W        W83764   7.735  26.188  10.426
20206W        W83765  12.164  26.492  14.818
20207W        W83766   7.390   0.491   2.281
20208W        W83767  43.481  24.049  10.532
20209W        W83768  36.448   8.733  10.091
20210W        W83769  15.807  28.137   5.266
20211W        W83770   8.344   6.366   1.292
20212W        W83771  20.191   6.324  11.064
20213W        W83772  37.897  27.462  14.007
20214W        W83773  39.383  36.845  11.113
20215W        W83774  21.643  36.359   1.923
20216W        W83775  32.975  18.178   1.876
20217W        W83776  24.114   5.282  11.042
20218W        W83777  43.973  43.305  13.519
20219W        W83778   8.399  26.559  12.966
20220W        W83779  29.548  35.602   0.812
20221W        W83780  31.026  11.365   0.738
20222W        W83781  18.152   9.329   3.149
20223W        W83782   8.690  42.941  11.092
20224W        W83783  15.304  10.194  14.843
20225W        W83784   2.746  26.559  14.975
20226W        W83785  21.511  44.500  12.064
20227W        W83786  22.716  43.915   0.802
20228W        W83787  26.006  22.225  12.856
20229W        W83788  24.980  27.613   0.248
20230W        W83789  29.509  12.817   2.195
20231W        W83790  42.867  36.841  11.562
20232W        W83791  42.353  11.816  13.937
20233W        W83792  23.125  29.108   4.732
20234W        W83793  36.443  26.679   2.752
20235W        W83794  32.505  23.219   1.247
20236W        W83795  15.178  33.026  12.516
20237W        W83796  17.202  25.595  11.544
20238W        W83797  19.770  13.167   3.775
20239W        W83798  14.105  12.812  13.854
20240W        W83799   5.728  20.608  14.376
20241W        W83800   1.922  17.162  13.343
20242W        W83801   5.831   2.335  13.351
20243W        W83802  37.572  23.516   2.413
20244W        W83803  32.134  31.500  14.425
20245W        W83804  41.410  17.617  14.281
20246W        W83805  31.031  14.119  11.405
20247W        W83806  17.600  18.650  11.028
20248W        W83807  39.842  30.099  10.917
20249W        W83808  40.944  29.544   4.159
20250W        W83809  30.163  32.586   0.908
20251W        W83810  38.494   5.436   0.362
20252W        W83811   2.795  25.063   3.354
20253W        W83812  24.189  20.149   1.814
20254W        W83813  39.530  43.977  14.974
20255W        W83814   7.252  43.278   4.297
20256W        W83815  20.194  24.182  13.402
20257W        W83816  41.325  32.598  14.388
20258W        W83817  37.383  40.388  13.440
20259W        W83818  16.566  26.527  11.971
20260W        W83819   3.419  44.854   4.682
20261W        W83820   0.762  20.626  11.066
20262W        W83821  10.767  18.671  12.010
20263W        W83822  32.441  43.850   4.131
20264W        W83823  17.714  34.104  12.068
20265W        W83824  41.934  22.163   2.297
20266W        W83825   4.945  11.225  13.844
20267W        W83826   0.849  10.378  13.418
20268W        W83827  42.860  11.844  12.469
20269W        W83828  39.501   8.174   2.359
20270W        W83829   6.306  30.522   5.272
20271W        W83830  10.869  41.840   4.344
20272W        W83831  19.657   7.267  13.436
20273W        W83832  14.254  20.150   1.306
20274W        W83833  29.432   0.280  14.879
20275W        W83834  13.784  36.568   1.395
20276W        W83835   1.374  15.200  12.923
20277W        W83836  40.906  28.996   4.682
20278W        W83837  23.019  31.940   0.249
20279W        W83838  18.280  41.437   0.316
20280W        W83839  17.603  20.104  11.501
20281W        W83840   5.906   7.397  13.001
20282W        W83841  19.171  41.832   2.209
20283W        W83842   8.667   8.391  13.413
20284W        W83843   0.371  12.777   1.392
20285W        W83844  37.989  17.639   0.734
20286W        W83845   3.885  39.331  12.037
20287W        W83846  44.496  12.761  10.567
20288W        W83847  22.008   3.421   3.160
20289W        W83848   1.380  22.201  12.063
20290W        W83849   0.306  21.703  10.639
20291W        W83850  39.014  22.074   2.376
20292W        W83851  34.435  27.609  12.874
20293W        W83852  11.253  32.633  13.486
20294W        W83853  37.903   9.373   0.803
20295W        W83854  36.360  35.938  10.620
20296W        W83855  44.302   5.280   2.844
20297W        W83856  41.501  12.243   3.290
20298W        W83857  24.680  17.770  13.311
20299W        W83858  16.707  26.084  11.431
20300W        W83859  17.219  22.562  14.996
20301W        W83860   5.773  11.323   1.223
20302W        W83861  20.176  42.924   4.124
20303W        W83862  31.481  33.970   3.249
20304W        W83863  14.104   8.333  14.437
20305W        W83864  12.295  29.931   3.368
20306W        W83865  38.847   1.452   1.934
20307W        W83866  11.149  41.016  10.449
20308W        W83867  11.775  12.837  13.441
20309W        W83868  24.181  35.908  14.868
20310W        W83869  16.807   6.415  10.471
20311W        W83870  25.562  23.009  12.835
20312W        W83871   4.388  29.967   0.293
20313W        W83872  25.000  39.876  10.601
20314W        W83873  28.480  44.349  11.567
20315W        W83874   7.894   1.420   1.749
20316W        W83875  19.681  39.028  13.514
20317W        W83876  28.518  22.150   2.804
20318W        W83877   0.920  11.637   3.672
20319W        W83878  13.120  19.644   1.932
20320W        W83879  43.977  24.035  11.524
20321W        W83880  34.993  35.362  11.552
20322W        W83881  33.611  29.146   2.779
20323W        W83882   5.797  17.686   3.188
20324W        W83883  10.272  23.225   3.170
20325W        W83884  37.875   3.350   1.867
20326W        W83885  43.348  19.276   3.386
20327W        W83886  30.147   1.360  12.453
20328W        W83887  24.044  40.814  12.909
20329W        W83888  12.821  41.468   4.612
20330W        W83889   6.380  21.644   1.444
20331W        W83890  27.162  37.361  10.045
20332W        W83891  28.555  36.094  11.079
20333W        W83892  16.130  23.720  10.065
20334W        W83893   7.766  33.113  14.465
20335W        W83894  33.000   0.882  12.447
20336W        W83895  25.079  18.097  13.428
20337W        W83896   0.839  32.114  14.005
20338W        W83897  13.151  31.632  12.051
20339W        W83898  39.371  35.048   0.770
20340W        W83899  41.810  25.699   1.311
20341W        W83900  43.465   7.378   0.455
20342W        W83901  14.592  37.932   2.299
20343W        W83902  16.576   0.763   3.200
20344W        W83903  29.168  17.800  14.918
20345W        W83904  44.345  39.912   1.283
20346W        W83905   9.327   0.402   4.733
20347W        W83906   5.903  28.166  14.849
20348W        W83907  38.555  21.726  10.473
20349W        W83908   6.682  37.886   4.210
20350W        W83909  20.687  18.738  11.475
20351W        W83910  39.810  36.992   0.290
20352W        W83911  15.660  42.973   0.765
20353W        W83912  29.643  13.288  11.029
20354W        W83913  24.150   6.406  14.878
20355W        W83914  39.862  31.951   0.281
20356W        W83915   7.175  35.062  14.817
20357W        W83916  30.497  11.284   3.378
20358W        W83917  38.549  28.992   3.269
20359W        W83918  33.427  43.430   0.414
20360W        W83919  18.092  15.176  14.377
20361W        W83920   9.330  27.456  11.043
20362W        W83921  41.021   6.364  12.428
20363W        W83922  43.420  25.593  11.475
20364W        W83923  33.446   6.756  10.586
20365W        W83924   1.940  17.106   2.748
20366W        W83925   7.854   2.755   1.381
20367W        W83926  34.465  34.883   2.281
20368W        W83927  10.159  29.504  13.037
20369W        W83928  35.439  41.359   3.676
20370W        W83929   9.231   5.850  12.539
20371W        W83930   3.909  35.077  12.483
20372W        W83931  15.604  39.445  12.341
20373W        W83932  35.072  36.875   4.756
20374W        W83933   7.772  43.319   0.470
20375W        W83934  30.958   3.795   0.440
20376W        W83935  29.427  38.463  14.808
20377W        W83936  36.476  30.124   4.701
20378W        W83937  39.918  22.129  11.568
20379W        W83938  34.614  25.640  12.088
20380W        W83939  25.038  22.664   3.145
20381W        W83940  30.586  26.983  13.875
20382W        W83941  10.852   4.801   3.758
20383W        W83942  32.108  31.594   2.750
20384W        W83943   3.439  11.814   3.352
20385W        W83944  34.091  33.081   0.785
20386W        W83945  31.933  42.959  12.860
20387W        W83946  32.919  40.484  10.054
20388W        W83947  34.478  14.733  14.303
20389W        W83948  10.225  28.156   5.137
20390W        W83949   5.435   8.404   4.646
20391W        W83950  14.105  35.398  10.012
20392W        W83951  14.205  26.533   4.737
20393W        W83952  41.427  35.551   4.328
20394W        W83953  34.427  31.599  10.446
20395W        W83954   2.358  23.595   0.340
20396W        W83955  41.343  36.387  10.433
20397W        W83956  38.967  42.341  14.989
20398W        W83957   6.201  27.069   2.666
20399W        W83958  13.184   7.676   0.416
20400W        W83959  23.019  37.956  13.805
20401W        W83960  14.128  37.007   3.233
20402W        W83961  28.532  18.099   2.266
20403W        W83962  32.952  18.713  14.890
20404W        W83963  25.981   5.232   3.221
20405W        W83964  41.036  14.160   1.383
20406W        W83965  40.042  10.234  11.083
20407W        W83966   7.366  20.592  14.015
20408W        W83967   3.377   9.330   4.630
20409W        W83968  17.075  30.415  13.346
20410W        W83969   3.938   2.374   4.325
20411W        W83970  35.552  41.811  10.437
20412W        W83971  17.197  10.772   3.751
20413W        W83972  27.457  26.045  12.466
20414W        W83973   8.389  25.191   4.607
20415W        W83974  27.027  28.936  11.905
20416W        W83975  22.549  23.727  13.478
20417W        W83976  24.656  17.290  12.029
20418W        W83977  23.214   9.346  14.487
20419W        W83978  31.482  13.284  11.992
20420W        W83979  37.010  24.700   1.753
20421W        W83980  13.282   4.864   2.824
20422W        W83981  21.576  39.486  14.368
20423W        W83982  44.384  39.505  10.535
20424W        W83983  41.516  21.134  11.524
20425W        W83984  30.948   6.184  10.483
20426W        W83985  31.632  17.299   0.778
20427W        W83986  13.648  34.442  11.043
20428W        W83987  34.481  38.553   2.383
20429W        W83988  28.491   2.940   4.293
20430W        W83989  36.990  36.063  12.441
20431W        W83990  25.534   0.765   2.332
20432W        W83991   3.433   1.340  11.399
20433W        W83992  22.015  20.127   2.900
20434W        W83993  37.933  24.030  11.421
20435W        W83994  13.288  10.339  14.952
20436W        W83995  36.849  15.097  11.448
20437W        W83996  28.499  17.758   2.816
20438W        W83997  13.669   1.264  11.928
20439W        W83998  38.408   7.222  14.436
20440W        W83999  30.497  37.462  14.857
20441W        W84000   9.186  44.950   3.212
20442W        W84001  33.118  19.172  12.919
20443W        W84002  40.465  11.228  14.950
20444W        W84003  27.138  22.533  10.460
20445W        W84004  28.559  16.236   1.247
20446W        W84005   1.838  33.579  13.383
20447W        W84006  39.892  22.052   2.215
20448W        W84007  18.261  22.507  11.103
20449W        W84008  21.657   7.356  11.090
20450W        W84009  25.626  16.774  13.921
20451W        W84010  39.875  16.176  10.415
20452W        W84011  32.087  18.131   2.813
20453W        W84012   2.830  23.571   1.450
20454W        W84013   6.257   2.329   0.795
20455W        W84014  36.954  11.306   4.261
20456W        W84015  15.738  39.340   3.650
20457W        W84016   8.777  44.792   3.346
20458W        W84017   0.364   9.724  13.003
20459W        W84018   0.966  30.425   2.385
20460W        W84019  16.222  26.015  12.440
20461W        W84020  40.840  14.240  12.446
20462W        W84021  33.533  11.128   0.364
20463W        W84022  25.007   4.341   3.722
20464W        W84023   2.794  20.073  10.499
20465W        W84024  10.248  26.500   2.389
20466W        W84025   0.829  26.615  11.572
20467W        W84026  11.238  44.884  14.803
20468W        W84027  14.120  37.336   1.930
20469W        W84028  40.874  29.439  13.043
20470W        W84029  42.865  12.317  13.463
20471W        W84030   7.727  19.720   0.280
20472W        W84031   5.338  12.126  10.485
20473W        W84032   1.843  16.671   3.304
20474W        W84033  44.457  17.564   2.806
20475W        W84034  35.957  36.542   2.332
20476W        W84035  36.049   5.395  10.633
20477W        W84036  27.161  38.442  13.007
20478W        W84037  43.788  32.392   3.798
20479W        W84038  19.110  35.006   4.344
20480W        W84039  16.635  42.954  13.909
20481W        W84040  26.008  26.687  10.638
20482W        W84041  16.247  27.690   3.266
20483W        W84042  15.653  43.860  13.798
20484W        W84043  28.184  17.150  11.412
20485W        W84044  38.503  24.713   1.318
20486W        W84045  42.396  38.362   4.765
20487W        W84046   7.753  26.043   2.366
20488W        W84047  16.102  10.187   3.274
20489W        W84048  40.841  20.266   3.265
20490W        W84049  19.588  29.944  14.456
20491W        W84050  40.318  15.254   2.800
20492W        W84051  16.094  40.937   2.682
20493W        W84052   0.263  35.559   4.353
20494W        W84053   5.305  15.224  14.778
20495W        W84054   9.356  29.494   0.759
20496W        W84055  33.524  33.985   4.817
20497W        W84056   7.765  32.938  10.636
20498W        W84057  28.996  36.969   4.147
20499W        W84058   1.468  44.297  14.788
20500W        W84059   1.961   9.170   3.282
20501W        W84060  24.103  27.150   1.828
20502W        W84061  31.483  31.502   0.368
20503W        W84062  43.892  43.832   4.663
20504W        W84063  32.011   2.290  10.991
20505W        W84064  37.569  10.170   4.170
20506W        W84065  20.168   5.688   2.720
20507W        W84066   3.949   5.362  12.400
20508W        W84067  31.915  15.226   1.315
20509W        W84068  18.699   4.228  13.425
20510W        W84069  35.854  28.573  14.376
20511W        W84070  23.233   5.814   0.397
20512W        W84071   8.777  29.634  14.891
20513W        W84072  38.935  13.623   0.946
20514W        W84073   5.304  39.549   1.397
20515W        W84074  10.171   8.884   1.398
20516W        W84075  43.835  28.660  11.067
20517W        W84076  13.826  17.751   4.212
20518W        W84077   4.348  33.490  12.540
20519W        W84078  23.675  22.671  10.567
20520W        W84079   5.412  29.107  13.328
20521W        W84080  41.482  24.026   4.174
20522W        W84081  20.617   9.757  12.058
20523W        W84082   9.315  37.964   1.720
20524W        W84083  37.493  39.385   2.712
20525W        W84084  34.011  21.204   0.342
20526W        W84085  19.054  17.776  10.509
20527W        W84086  34.004   0.469   4.152
20528W        W84087   4.761  40.851  12.062
20529W        W84088  33.408  21.206  14.453
20530W        W84089  10.805  11.198   4.355
20531W        W84090  16.730  30.911   0.909
20532W        W84091   4.800   2.390  11.011
20533W        W84092  30.579  22.070   3.363
20534W        W84093  29.056  14.614   3.302
20535W        W84094  35.860   4.446  10.519
20536W        W84095   7.784  33.380   1.854
20537W        W84096  18.203   6.878   4.745
20538W        W84097  33.593   5.739   1.429
20539W        W84098  26.968  18.224   4.772
20540W        W84099  30.502  29.092   0.315
20541W        W84100  11.187   1.856   1.263
20542W        W84101  12.812  31.503  14.020
20543W        W84102  33.990  17.768  13.045
20544W        W84103  35.420  11.356   0.294
20545W        W84104  35.983  22.673  14.298
20546W        W84105  18.296  11.781  10.936
20547W        W84106  21.052   9.705   4.180
20548W        W84107   0.431  27.005  11.506
20549W        W84108  11.314  22.032   9.512
20550W        W84109  23.605  40.855  13.937
20551W        W84110  13.251  37.906  14.927
20552W        W84111  15.598  20.537   3.834
20553W        W84112   9.754  14.642   4.246
20554W        W84113   8.850  11.288  13.860
20555W        W84114   7.807   3.243  12.451
20556W        W84115   9.755  24.617  11.547
20557W        W84116  23.135  39.933   0.304
20558W        W84117  12.789  26.693   4.733
20559W        W84118  32.114  17.779   4.690
20560W        W84119  20.561  17.073   2.372
20561W        W84120  43.908   6.720  11.558
20562W        W84121  42.312   4.829  10.487
20563W        W84122   7.351  23.552   2.873
20564W        W84123   6.403  39.036  10.102
20565W        W84124   1.919   3.447   4.686
20566W        W84125  26.208  35.952   2.200
20567W        W84126   5.313  38.931  14.819
20568W        W84127  30.044  37.349   3.738
20569W        W84128  33.940  12.251  11.008
20570W        W84129  38.953  13.138   9.953
20571W        W84130  22.664   0.783   2.251
20572W        W84131  20.535  16.772   4.638
20573W        W84132   2.963  30.066  12.428
20574W        W84133  18.271  23.135   0.345
20575W        W84134  29.583   5.276   2.798
20576W        W84135  19.258  39.520  14.767
20577W        W84136  12.243  17.171   0.286
20578W        W84137  33.026  37.062  12.831
20579W        W84138  37.965   2.258  12.529
20580W        W84139  18.213  20.129   4.263
20581W        W84140  37.832  40.402   4.230
20582W        W84141  41.396  11.239   2.775
20583W        W84142  18.050  17.773   0.781
20584W        W84143  14.699   4.717  12.374
20585W        W84144   0.767   8.898   3.365
20586W        W84145  17.156  44.887   4.219
20587W        W84146  25.552  16.110  10.889
20588W        W84147  20.241  11.373   1.407
20589W        W84148  16.583  34.885  13.485
20590W        W84149  20.736  43.315   1.386
20591W        W84150  30.448  25.030   1.886
20592W        W84151  25.564  24.623  13.456
20593W        W84152  28.974  43.910  12.049
20594W        W84153   2.876  20.685   3.665
20595W        W84154   9.316  12.188   5.170
20596W        W84155  18.208  16.777   4.622
20597W        W84156  41.463  11.179   1.857
20598W        W84157   7.248  13.183   5.085
20599W        W84158  26.522  16.702  11.412
20600W        W84159  12.717  11.736  14.898
20601W        W84160   9.750  32.983  10.609
20602W        W84161  42.836  12.789   2.243
20603W        W84162  26.631  26.656  14.409
20604W        W84163  16.813  18.171  10.581
20605W        W84164  38.965   1.274   4.601
20606W        W84165  29.107  38.398  14.994
20607W        W84166  32.070  13.345   1.724
20608W        W84167  13.654  21.540  13.971
20609W        W84168  42.309  25.510   0.350
20610W        W84169  21.553  28.506   1.931
20611W        W84170  19.202   8.290  13.489
20612W        W84171  11.303  43.299  10.561
20613W        W84172  14.777   8.227   1.889
20614W        W84173  14.193   6.907   0.288
20615W        W84174   1.239  10.266  12.867
20616W        W84175  25.063  24.570  14.779
20617W        W84176   4.353  26.171   2.708
20618W        W84177   5.259  42.031   3.187
20619W        W84178  18.655   3.800   4.118
20620W        W84179  30.920  11.286  10.463
20621W        W84180  13.163  19.568  10.558
20622W        W84181  44.778  15.636   3.169
20623W        W84182  30.615   7.388  14.344
20624W        W84183  25.639   7.242   1.801
20625W        W84184  33.934  36.036   4.791
20626W        W84185  14.339  26.201   0.413
20627W        W84186   9.242  17.110   1.379
20628W        W84187  34.105  13.607   2.315
20629W        W84188  43.294  36.959  13.977
20630W        W84189  28.566   5.297   2.673
20631W        W84190  14.709  38.569  14.298
20632W        W84191  15.697  41.432  13.443
20633W        W84192  27.537   2.902  14.337
20634W        W84193  13.251  10.648  13.865
20635W        W84194   3.403  16.778  10.971
20636W        W84195  22.585   0.933  14.450
20637W        W84196  26.701  42.889   1.782
20638W        W84197  20.679  22.660  11.441
20639W        W84198   5.810  24.483   1.922
20640W        W84199  43.991  16.258  14.912
20641W        W84200   9.278  15.136  14.291
20642W        W84201  11.219  34.029   2.896
20643W        W84202  13.230  16.206   1.402
20644W        W84203  20.113  44.459  12.843
20645W        W84204  22.215  37.961  11.110
20646W        W84205  16.813  33.597  10.468
20647W        W84206   9.743   7.722  10.956
20648W        W84207   8.779  23.582  12.875
20649W        W84208  26.493  15.683  10.592
20650W        W84209  20.588  15.220  13.907
20651W        W84210  27.641   6.279  12.943
20652W        W84211  36.950  17.301   0.293
20653W        W84212   2.723  37.411   1.304
20654W        W84213   2.380  41.372  11.536
20655W        W84214  44.371  37.907   0.812
20656W        W84215   4.258  36.418   0.823
20657W        W84216   2.815   5.313   4.664
20658W        W84217  37.481  30.552   0.467
20659W        W84218  36.020  43.509  13.342
20660W        W84219   1.789  27.061  14.924
20661W        W84220  13.130  37.961   0.845
20662W        W84221  23.038   6.222  13.988
20663W        W84222   1.975   6.704  12.960
20664W        W84223  25.992  22.025   3.188
20665W        W84224  15.190   1.441   4.604
20666W        W84225  32.080  23.548  10.105
20667W        W84226  11.135   9.873   9.616
20668W        W84227  14.095  41.835   0.300
20669W        W84228  19.755  24.537   1.846
20670W        W84229  33.876  43.306   1.358
20671W        W84230  15.196  25.162  11.067
20672W        W84231  30.072  16.263  13.406
20673W        W84232   2.290   4.349   0.278
20674W        W84233  40.991   2.370  13.516
20675W        W84234  24.973   5.850   3.153
20676W        W84235  28.054  13.814   1.421
20677W        W84236  33.608   9.790  12.911
20678W        W84237   8.294  19.062   0.368
20679W        W84238  42.373   4.768  11.909
20680W        W84239  35.521  33.546  11.925
20681W        W84240  38.957  43.323   4.185
20682W        W84241  25.078  40.457   5.092
20683W        W84242   4.755   3.916   0.312
20684W        W84243  38.528   9.153  13.421
20685W        W84244  10.176   0.415   1.883
20686W        W84245   3.231   2.960   2.700
20687W        W84246   6.811   3.786  11.921
20688W        W84247  44.819  21.055  14.495
20689W        W84248  21.668  34.013   3.747
20690W        W84249  16.230  11.301   1.888
20691W        W84250  25.522  16.136  14.834
20692W        W84251  36.849  36.015   2.299
20693W        W84252  21.070  40.410   1.399
20694W        W84253   3.903  32.574   2.260
20695W        W84254  21.135   0.828   1.870
20696W        W84255  40.840  36.971   1.897
20697W        W84256  11.707   8.686   4.752
20698W        W84257  27.587  43.328  10.918
20699W        W84258  42.866  21.583   0.453
20700W        W84259  14.741  23.504  12.009
20701W        W84260  14.762  25.205   3.353
20702W        W84261  44.356  28.049   1.891
20703W        W84262  34.472  42.391   3.149
20704W        W84263  36.549   3.815  10.628
20705W        W84264   4.763  20.142  13.464
20706W        W84265   7.864  36.962  10.945
20707W        W84266   3.905  14.107   4.629
20708W        W84267  34.536  41.909   0.427
20709W        W84268  31.997  17.299   2.755
20710W        W84269   3.391   0.442  10.140
20711W        W84270   8.237   9.678   1.876
20712W        W84271  28.149  22.158   3.164
20713W        W84272   7.392  28.452   4.281
20714W        W84273  17.194  26.567  11.043
20715W        W84274  16.259  11.246   0.299
20716W        W84275  20.042  14.736   4.617
20717W        W84276  26.609  39.888   0.316
20718W        W84277  38.874  31.557   3.683
20719W        W84278  28.595  36.410   1.259
20720W        W84279  34.939  18.151   3.297
20721W        W84280  37.502  32.014   0.950
20722W        W84281  44.910  34.093  14.475
20723W        W84282  44.902   9.645   3.746
20724W        W84283  38.998  41.524  10.426
20725W        W84284  11.306  36.899   4.280
20726W        W84285  10.312  13.815   0.928
20727W        W84286   0.904  27.170   2.391
20728W        W84287  17.115  28.502  14.363
20729W        W84288  20.729  38.074   0.407
20730W        W84289  33.421   7.684  12.929
20731W        W84290   6.686  26.184   3.249
20732W        W84291   6.749  26.567  14.514
20733W        W84292  23.627  16.174  14.869
20734W        W84293  36.017  34.396  13.034
20735W        W84294   3.269   8.773  11.098
20736W        W84295  38.923   7.764   1.837
20737W        W84296  25.070  15.658   2.866
20738W        W84297  26.144  39.035  12.420
20739W        W84298   4.420  37.535  13.385
20740W        W84299   2.305  22.529  13.312
20741W        W84300  36.575  13.163   2.392
20742W        W84301   4.811  18.156   2.234
20743W        W84302  29.171  38.367   1.237
20744W        W84303   6.887   8.333  13.489
20745W        W84304  17.639   7.314   0.363
20746W        W84305  39.386  19.555   1.859
20747W        W84306  21.580   8.713   4.142
20748W        W84307   9.720  38.460   1.760
20749W        W84308   4.715  28.943   3.302
20750W        W84309   2.914   1.754  14.899
20751W        W84310  10.633   0.281   2.227
20752W        W84311  23.562  33.402   3.795
20753W        W84312  29.546  34.577   2.358
20754W        W84313   6.697   7.212  14.885
20755W        W84314  33.599  41.962   2.736
20756W        W84315   8.766   2.907   4.186
20757W        W84316  25.074   9.880  14.986
20758W        W84317  35.942  19.200  10.525
20759W        W84318  12.309   7.228   4.175
20760W        W84319  37.459  43.010   2.241
20761W        W84320  35.448   6.747   1.411
20762W        W84321   7.411  41.011  14.417
20763W        W84322  21.081  36.348  10.048
20764W        W84323  43.863  16.616  13.838
20765W        W84324  22.726  35.585  14.506
20766W        W84325  38.965  14.245  13.482
20767W        W84326  28.094  35.576  13.838
20768W        W84327  39.346  33.525  14.430
20769W        W84328  39.821  32.940   2.191
20770W        W84329  11.241   3.875   3.721
20771W        W84330  34.519  20.738   1.214
20772W        W84331   1.436  23.734   0.464
20773W        W84332  19.148  15.705   2.341
20774W        W84333   9.202   9.737  11.463
20775W        W84334  28.166   5.770  10.456
20776W        W84335  24.673  12.266   4.306
20777W        W84336   4.217  20.105  14.427
20778W        W84337  32.415  17.248  11.895
20779W        W84338  40.924  33.043   4.140
20780W        W84339  22.565  19.131  13.798
20781W        W84340  34.058  33.470   1.829
20782W        W84341  15.586   4.367   2.810
20783W        W84342  11.711  38.507  11.931
20784W        W84343  27.112  36.554  10.630
20785W        W84344  39.526  12.182   0.459
20786W        W84345  32.497  26.491   3.675
20787W        W84346  22.197  24.152   3.749
20788W        W84347   0.270  24.670  13.945
20789W        W84348  39.869  37.087  10.974
20790W        W84349  26.479  17.605  11.508
20791W        W84350  10.259  25.507   2.885
20792W        W84351  41.364   9.860  14.292
20793W        W84352  12.652  13.784  12.553
20794W        W84353  10.367  30.520  11.126
20795W        W84354  26.480  19.748   4.838
20796W        W84355   4.284  21.064  11.948
20797W        W84356  30.105  10.842  12.549
20798W        W84357  33.471  39.455   0.243
20799W        W84358   2.244  22.126   3.166
20800W        W84359  26.011  40.418   3.367
20801W        W84360   0.961  29.053   4.669
20802W        W84361  26.068  19.123  11.469
20803W        W84362  38.535  28.570   3.790
20804W        W84363  28.526  32.519   2.256
20805W        W84364   8.877  28.556  12.425
20806W        W84365  37.854  26.700  12.991
20807W        W84366  21.588   9.291  10.614
20808W        W84367   9.801  21.675  11.987
20809W        W84368  21.161  32.470   4.824
20810W        W84369  34.977  14.334  12.834
20811W        W84370  38.071  17.647   1.326
20812W        W84371   6.899  18.546  13.014
20813W        W84372   8.807   3.413   0.289
20814W        W84373  21.552   8.693  10.520
20815W        W84374   5.303  27.557  13.448
20816W        W84375   6.371  34.482   0.876
20817W        W84376  33.111  35.002  12.532
20818W        W84377  27.999  23.720  14.908
20819W        W84378  38.015  40.320  13.044
20820W        W84379   2.411  21.700  14.511
20821W        W84380   8.303  32.909   1.860
20822W        W84381  19.160   7.742  14.473
20823W        W84382  13.148  40.445  10.603
20824W        W84383  21.150  30.163  10.917
20825W        W84384   4.781  11.777   0.767
20826W        W84385  38.495  34.399  10.520
20827W        W84386   9.216  17.625  14.470
20828W        W84387  42.463  37.553   3.294
20829W        W84388  24.502  40.002   3.778
20830W        W84389  29.932  40.373   4.224
20831W        W84390  17.716  26.631   4.313
20832W        W84391  21.648  26.145   2.383
20833W        W84392  28.151  40.020  11.609
20834W        W84393   7.753  10.656   2.308
20835W        W84394  34.083  29.452   0.423
20836W        W84395  39.317  35.911   3.688
20837W        W84396  10.819  39.016  13.022
20838W        W84397  29.664  29.567   3.649
20839W        W84398  14.819  42.799  12.480
20840W        W84399  31.579   1.936   2.900
20841W        W84400  11.769  34.997  14.448
20842W        W84401  10.693   1.421  12.998
20843W        W84402   8.188  33.899  14.892
20844W        W84403  43.409   0.915  12.941
20845W        W84404  42.881   6.799   3.733
20846W        W84405  30.026   7.682  12.982
20847W        W84406  28.597  35.468  14.772
20848W        W84407  38.387  13.174  13.057
20849W        W84408  34.049  42.329  14.803
20850W        W84409  31.483  38.504   5.156
20851W        W84410  15.255  15.242   2.415
20852W        W84411  26.515  10.687   1.842
20853W        W84412  30.920  30.497  13.888
20854W        W84413  21.715   6.329   4.218
20855W        W84414  24.537  13.315   9.668
20856W        W84415  44.326   5.413  11.376
20857W        W84416   1.340  16.165   3.775
20858W        W84417   3.931  39.822   3.175
20859W        W84418  28.446  17.169  10.491
20860W        W84419  16.235  21.593   4.731
20861W        W84420  25.526  42.908   2.825
20862W        W84421   6.870  15.593   1.857
20863W        W84422  38.361  13.719  10.452
20864W        W84423  15.329   6.914   3.235
20865W        W84424  18.245  41.912  10.610
20866W        W84425  17.624  21.185   0.914
20867W        W84426  32.096   3.773   5.137
20868W        W84427  25.180  36.410  10.430
20869W        W84428  19.574  14.208   0.743
20870W        W84429   9.364  24.695  13.418
20871W        W84430  41.341  20.155   1.345
20872W        W84431  24.212  23.621   1.806
20873W        W84432  23.208  32.632   1.808
20874W        W84433  39.832  36.469  12.094
20875W        W84434  27.000  11.766   0.812
20876W        W84435   9.790  14.630  10.073
20877W        W84436   9.233   1.307  11.086
20878W        W84437   8.364  23.493  13.425
20879W        W84438  31.131  23.992   4.163
20880W        W84439  22.502  32.478   2.343
20881W        W84440  12.259  37.988  13.944
20882W        W84441  30.159  31.574   1.413
20883W        W84442   9.889  12.717   3.857
20884W        W84443   9.850  27.577   3.859
20885W        W84444  12.303  34.399   1.841
20886W        W84445  23.021  13.817  11.947
20887W        W84446  23.526  11.186   3.761
20888W        W84447   1.308  21.232   3.646
20889W        W84448  29.615  31.085   2.792
20890W        W84449   2.458  18.551   3.255
20891W        W84450  44.892  44.753   0.752
20892W        W84451  20.128  15.145  13.847
20893W        W84452   5.800   1.306   0.243
20894W        W84453  26.665  39.011   0.433
20895W        W84454  35.490  42.798  11.463
20896W        W84455  16.699  18.118  12.966
20897W        W84456  16.318  21.157  14.028
20898W        W84457  33.612  34.603   3.309
20899W        W84458   1.862   3.935   2.415
20900W        W84459  39.505  23.672   4.331
20901W        W84460  26.186   0.493   1.429
20902W        W84461  26.629  13.162  11.485
20903W        W84462  27.980   0.818  11.089
20904W        W84463  27.662  21.534   3.636
20905W        W84464  39.033  40.519   2.824
20906W        W84465  30.035  21.568  14.950
20907W        W84466   5.428  34.098  14.910
20908W        W84467  12.855  28.036   4.759
20909W        W84468  17.681   7.300  12.931
20910W        W84469  31.997   5.896  14.804
20911W        W84470  11.288  31.503   4.244
20912W        W84471  22.564  28.476  14.841
20913W        W84472  39.538  33.990   3.661
20914W        W84473   8.218  40.045   1.724
20915W        W84474  34.464  22.113  11.974
20916W        W84475  36.893  30.499   5.272
20917W        W84476   8.249   9.191   2.178
20918W        W84477  11.129   4.703   4.775
20919W        W84478  22.646  35.505  12.379
20920W        W84479  44.947  15.795   1.349
20921W        W84480  43.487   7.824  11.875
20922W        W84481  19.088   8.221  12.928
20923W        W84482  28.575  27.608   1.247
20924W        W84483   1.343  12.655  12.063
20925W        W84484  23.584   9.171   4.668
20926W        W84485  37.875  34.960   9.985
20927W        W84486  12.665  39.473  11.437
20928W        W84487  17.600  22.696  10.464
20929W        W84488  27.529  36.914  12.555
20930W        W84489  33.093  15.760  13.877
20931W        W84490  26.649  39.529  11.426
20932W        W84491  22.997  39.041  14.492
20933W        W84492  44.865  10.849   4.801
20934W        W84493   8.701  15.740   4.738
20935W        W84494  36.547   2.262  10.974
20936W        W84495  39.375   1.976   1.917
20937W        W84496  34.116  27.028  11.960
20938W        W84497  28.156  14.336  12.480
20939W        W84498  24.596   9.666   4.164
20940W        W84499  13.343  38.860   1.757
20941W        W84500   8.712  15.632   1.873
20942W        W84501  41.456  14.797   2.263
20943W        W84502  36.509   0.963   3.380
20944W        W84503  32.986  38.359  10.579
20945W        W84504   7.807  34.007  11.372
20946W        W84505  23.623   0.388  14.784
20947W        W84506   4.725   4.217   2.307
20948W        W84507  29.668  17.694   0.403
20949W        W84508  13.608  36.002  13.874
20950W        W84509  15.783  19.723  12.071
20951W        W84510   8.358  24.042   0.808
20952W        W84511  22.235  36.414  11.981
20953W        W84512   3.910  41.463  14.915
20954W        W84513   8.329  41.462   4.831
20955W        W84514  12.345   0.433   1.257
20956W        W84515  44.491   7.195   0.827
20957W        W84516  36.900  34.521  10.428
20958W        W84517  40.526  17.790   4.599
20959W        W84518   5.338  22.061  13.829
20960W        W84519   1.924  21.733  11.587
20961W        W84520  20.146  44.278  14.848
20962W        W84521   5.287   7.288   0.342
20963W        W84522  14.167  11.835   3.283
20964W        W84523  24.673  21.212  14.470
20965W        W84524  25.055  15.739   0.278
20966W        W84525  36.429  35.863  12.571
20967W        W84526  32.082  23.616  11.088
20968W        W84527  42.410  17.732  12.924
20969W        W84528  15.615  42.932  12.353
20970W        W84529  21.602  40.830  12.414
20971W        W84530   4.426  38.937  11.597
20972W        W84531   6.846  31.032   1.703
20973W        W84532  11.199  24.509   5.111
20974W        W84533  26.685  23.999   9.502
20975W        W84534  16.168  26.470   4.749
20976W        W84535  11.305  23.517   3.307
20977W        W84536   7.257   6.717  12.352
20978W        W84537  31.955  15.806   0.789
20979W        W84538  12.293  31.944   3.863
20980W        W84539  31.130  44.327  14.398
20981W        W84540  27.487  34.422   2.877
20982W        W84541  21.612  33.111   4.818
20983W        W84542  22.090  10.290  11.494
20984W        W84543  39.982   6.359   4.698
20985W        W84544  28.018  28.956  14.300
20986W        W84545  23.562  42.411   4.285
20987W        W84546  17.781  30.625  12.995
20988W        W84547  11.790   6.783  12.948
20989W        W84548  35.394  19.165   2.689
20990W        W84549   9.322  23.216   3.207
20991W        W84550  38.469  26.154  10.539
20992W        W84551   4.350  38.890   1.855
20993W        W84552  30.944  42.466  11.894
20994W        W84553  31.562  32.094   1.921
20995W        W84554  10.707  24.989   0.773
20996W        W84555  15.183  36.971  12.914
20997W        W84556  34.063   4.316   3.766
20998W        W84557  19.109  23.672  13.950
20999W        W84558   7.702  29.966  11.021
21000W        W84559  41.913  18.782  14.352
21001W        W84560  21.575  40.472   3.780
21002W        W84561  23.607  35.399  13.346
21003W        W84562  21.633  31.994   0.902
21004W        W84563  30.595  34.069   2.288
21005W        W84564   8.838  25.181   0.888
21006W        W84565  27.957   8.203   1.844
21007W        W84566  11.242  11.243  12.450
21008W        W84567  22.722  32.927  11.608
21009W        W84568  33.119  25.586   1.286
21010W        W84569  14.262  34.519   0.419
21011W        W84570   0.939  16.148   4.779
21012W        W84571  10.262  16.283   4.741
21013W        W84572  44.888  14.232   4.799
21014W        W84573  39.927  18.051   2.901
21015W        W84574  36.568  41.472  12.340
21016W        W84575   2.796  30.525  13.868
21017W        W84576  17.753  13.724  14.388
21018W        W84577  16.690  22.744  12.885
21019W        W84578  26.521  30.043  13.492
21020W        W84579  32.531  22.103   0.878
21021W        W84580  34.019   0.444   3.314
21022W        W84581  22.167  20.534  13.432
21023W        W84582  44.807  42.336   4.205
21024W        W84583  14.706  16.190   0.400
21025W        W84584  12.672  23.190   0.743
21026W        W84585  28.451   9.320  12.996
21027W        W84586  14.600  10.270   5.710
21028W        W84587   1.397  28.995  11.528
21029W        W84588  20.134   6.315  14.437
21030W        W84589  38.967  10.819  13.518
21031W        W84590  16.285  25.135   2.786
21032W        W84591  28.641  22.179   0.290
21033W        W84592  32.081   5.409  11.605
21034W        W84593  28.140  43.381   3.166
21035W        W84594  25.579   6.186   4.737
21036W        W84595  22.009  10.656  13.477
21037W        W84596  35.024  19.156   4.272
21038W        W84597  38.935  33.608  11.901
21039W        W84598   3.250  20.542  13.332
21040W        W84599  24.659  24.641   1.714
21041W        W84600  44.345   6.399  12.823
21042W        W84601   9.757  23.109   3.371
21043W        W84602  18.592  13.655   4.252
21044W        W84603   9.257  40.020   0.379
21045W        W84604  38.522  24.136  12.891
21046W        W84605  25.213   7.373   4.641
21047W        W84606   3.365  23.547   2.865
21048W        W84607  12.227  24.611  10.948
21049W        W84608  32.982  42.340  13.823
21050W        W84609  33.059   0.305   3.849
21051W        W84610  19.259   1.956   1.371
21052W        W84611  41.339  32.918   1.703
21053W        W84612   5.722  16.221   4.623
21054W        W84613   2.419  13.712  10.544
21055W        W84614   1.458  29.497  13.836
21056W        W84615  13.837  10.663  14.444
21057W        W84616  13.242  10.688  10.942
21058W        W84617  11.714  38.923  12.829
21059W        W84618  38.486  30.047   3.333
21060W        W84619  37.890  44.285   1.418
21061W        W84620   2.228  22.688  11.444
21062W        W84621  42.284  33.893  12.543
21063W        W84622  32.461   2.816  13.470
21064W        W84623  26.967  44.431   3.650
21065W        W84624  15.611  31.915  11.387
21066W        W84625  41.412  32.467   0.813
21067W        W84626  17.607  22.078  13.835
21068W        W84627  25.095  13.222   1.241
21069W        W84628  44.342  18.754   1.876
21070W        W84629  27.128  20.664  11.056
21071W        W84630  37.368  17.710   3.826
21072W        W84631  21.174   7.794   3.168
21073W        W84632   5.817  16.585   4.666
21074W        W84633  33.501  42.514   0.825
21075W        W84634  30.612  25.160   4.271
21076W        W84635  23.234  40.908   4.617
21077W        W84636   9.656  18.729   1.854
21078W        W84637  33.474   8.160   4.802
21079W        W84638  40.896  31.629   4.828
21080W        W84639  17.222  36.932  12.392
21081W        W84640   2.331  24.227   1.305
21082W        W84641  32.392  31.086   4.142
21083W        W84642  12.283  37.087  14.489
21084W        W84643  36.928   1.944  12.499
21085W        W84644  18.258   3.855  13.802
21086W        W84645  31.989  28.568  10.954
21087W        W84646   1.781  25.587   0.405
21088W        W84647  44.325  32.978  13.478
21089W        W84648   2.429  44.312  12.566
21090W        W84649   7.687  44.459   4.306
21091W        W84650  36.397  40.506   1.443
21092W        W84651  21.575  26.614   4.230
21093W        W84652   4.803  42.304  10.474
21094W        W84653  43.014   1.753   1.928
21095W        W84654   2.735  26.460  13.885
21096W        W84655  24.562   5.913   0.739
21097W        W84656  22.043  38.839  12.873
21098W        W84657   4.908  17.675   3.714
21099W        W84658   0.746  36.349  14.990
21100W        W84659  41.306   6.774   2.347
21101W        W84660  12.700   2.387  11.542
21102W        W84661  41.034   0.450  13.341
21103W        W84662  43.288  18.176  14.768
21104W        W84663  42.329   5.373   3.642
21105W        W84664  22.744   0.962  13.851
21106W        W84665  18.162   3.853  11.886
21107W        W84666  32.465  26.170   2.311
21108W        W84667  33.084  34.594   3.251
21109W        W84668  21.755  23.221  12.018
21110W        W84669   7.732  32.547   4.277
21111W        W84670  33.463  24.629   4.127
21112W        W84671  40.402  19.076   1.858
21113W        W84672  26.142   3.800  11.384
21114W        W84673  36.581   0.837   0.427
21115W        W84674  19.117  29.650   1.842
21116W        W84675   6.231  41.787   3.685
21117W        W84676  37.862  16.593  10.955
21118W        W84677  39.918  39.866  14.874
21119W        W84678   6.424  40.534   3.338
21120W        W84679  39.405   7.909  13.857
21121W        W84680  31.970  17.272  12.434
21122W        W84681  33.430  27.628   0.952
21123W        W84682  16.785  15.090   2.730
21124W        W84683  22.682  21.597  14.928
21125W        W84684   9.668  36.383   1.743
21126W        W84685   7.270  10.363   4.685
21127W        W84686  12.639  40.829  14.450
21128W        W84687  37.477  32.061  11.515
21129W        W84688  33.998  13.137  13.885
21130W        W84689  40.842   7.228  11.481
21131W        W84690  38.064  15.618  13.870
21132W        W84691  25.560   5.827   1.898
21133W        W84692  11.174   3.750  13.525
21134W        W84693  24.705  13.817   4.343
21135W        W84694  25.529  11.244  13.306
21136W        W84695   9.746   6.257   1.307
21137W        W84696  19.075   2.839   3.273
21138W        W84697  34.456  22.723  11.065
21139W        W84698  33.112  22.615   3.228
21140W        W84699   4.817  28.013   2.308
21141W        W84700  33.983  15.161  10.896
21142W        W84701   9.182  25.599   1.934
21143W        W84702   2.945  35.492   4.734
21144W        W84703  16.602   7.279  11.964
21145W        W84704  42.287  10.158   3.222
21146W        W84705   7.375  24.487   4.729
21147W        W84706  25.111  25.694  11.612
21148W        W84707  44.497   4.341   1.413
21149W        W84708  44.995  17.796   2.181
21150W        W84709  11.853  11.716   0.762
21151W        W84710   8.677  14.784   9.936
21152W        W84711  24.207  29.935   2.687
21153W        W84712  17.134   5.217  14.773
21154W        W84713  32.891   9.680   3.180
21155W        W84714  26.499  32.895  13.854
21156W        W84715  17.649  18.741   3.151
21157W        W84716   0.480  18.292   0.955
21158W        W84717  19.752  31.638   4.158
21159W        W84718  41.429  14.755   4.605
21160W        W84719  21.589   6.247   4.678
21161W        W84720  39.512  32.520  12.421
21162W        W84721   9.673  22.147   3.232
21163W        W84722  13.625  12.676   2.234
21164W        W84723  37.517  10.879  12.986
21165W        W84724  41.954  36.573   0.813
21166W        W84725   3.768  35.880  10.932
21167W        W84726  40.369  40.874   4.691
21168W        W84727   7.832   3.892  11.031
21169W        W84728  44.825  42.852  10.976
21170W        W84729   9.871  34.930   1.722
21171W        W84730  42.032  25.982  12.447
21172W        W84731  29.551  36.924   3.175
21173W        W84732  33.572  11.147  13.414
21174W        W84733  27.004   7.700   3.267
21175W        W84734  16.602  34.863   1.445
21176W        W84735  35.534   8.252   0.362
21177W        W84736  10.765   6.382   3.634
21178W        W84737  34.501  15.206   4.797
21179W        W84738  21.589  10.690   1.783
21180W        W84739  22.182  16.788  13.422
21181W        W84740   2.761   0.956   0.734
21182W        W84741  25.585  18.675  12.360
21183W        W84742  18.688  25.054   1.342
21184W        W84743  38.418  39.400   1.351
21185W        W84744   5.215  41.862  13.346
21186W        W84745  41.948  44.876   2.366
21187W        W84746  41.461  36.444   2.192
21188W        W84747  34.000   7.387  12.448
21189W        W84748  29.603  30.448  14.793
21190W        W84749  34.515  33.924  12.472
21191W        W84750   6.312  34.879  13.470
21192W        W84751   1.962  13.778   4.280
21193W        W84752   8.390   2.389   3.854
21194W        W84753  30.509  12.276   4.712
21195W        W84754  24.598  23.717   5.312
21196W        W84755  17.064  22.671   0.341
21197W        W84756   0.752   7.684   3.305
21198W        W84757   0.861  26.656  12.467
21199W        W84758  25.049  38.553   4.642
21200W        W84759  20.685  10.234  13.851
21201W        W84760   2.922  37.551   4.725
21202W        W84761  20.532   0.970  14.387
21203W        W84762   5.892  22.193  14.384
21204W        W84763   5.302  32.119  10.506
21205W        W84764  19.141  42.884   2.346
21206W        W84765  16.595   8.208   9.470
21207W        W84766  25.991  13.678   1.257
21208W        W84767  18.644  13.345  12.483
21209W        W84768  22.727  29.666  14.020
21210W        W84769  16.079  23.188  10.074
21211W        W84770  18.549  13.286  11.985
21212W        W84771  25.656  26.486  10.906
21213W        W84772   5.291   1.746  12.969
21214W        W84773  16.806  25.128  11.430
21215W        W84774  33.568   4.714  12.030
21216W        W84775  37.537  44.395  10.948
21217W        W84776  40.319  41.040   1.780
21218W        W84777  16.720   7.886  11.894
21219W        W84778   2.273  25.479  10.505
21220W        W84779  14.747  28.150   9.979
21221W        W84780   6.742  25.488   0.311
21222W        W84781  28.627  15.152  13.048
21223W        W84782   6.294   8.259  13.494
21224W        W84783  30.568  16.717   0.875
21225W        W84784   0.919  30.001   0.949
21226W        W84785  35.372  42.327   3.754
21227W        W84786  29.534  36.960  12.524
21228W        W84787  43.295   8.732   3.272
21229W        W84788  11.252  38.482   2.405
21230W        W84789  10.354   8.311  11.984
21231W        W84790  26.023  25.538   2.331
21232W        W84791  25.496  13.683   1.237
21233W        W84792  22.612  39.968   3.365
21234W        W84793   9.252  20.161   3.152
21235W        W84794  26.162  11.148   0.282
21236W        W84795  27.555  10.826   4.214
21237W        W84796  40.488  40.869  13.833
21238W        W84797  42.776  21.594  11.449
21239W        W84798  36.429   4.906   0.865
21240W        W84799  26.502  19.079  12.948
21241W        W84800  29.495   1.246   3.787
21242W        W84801  41.025   7.221  11.912
21243W        W84802  19.738   5.728   3.659
21244W        W84803  32.396  16.266   4.214
21245W        W84804  43.385  43.905   4.128
21246W        W84805  28.552   9.295  14.002
21247W        W84806  15.785  36.039   1.280
21248W        W84807  11.842  34.971   3.768
21249W        W84808   2.959   1.912  12.411
21250W        W84809   0.820   4.904  10.568
21251W        W84810   8.814   3.851  14.937
21252W        W84811  42.918   6.824  12.042
21253W        W84812   0.809  42.402  10.595
21254W        W84813  17.240   9.749   2.277
21255W        W84814  44.952  22.251   2.266
21256W        W84815  12.222  13.175   2.892
21257W        W84816  23.498  15.322  12.339
21258W        W84817  14.224   1.844   4.753
21259W        W84818  39.035  18.605   4.754
21260W        W84819  20.036   6.341  11.454
21261W        W84820   4.734  39.383   4.256
21262W        W84821  36.997  19.081  13.859
21263W        W84822  29.129  35.918   2.187
21264W        W84823  26.178  42.360   3.831
21265W        W84824  30.941  32.136  14.497
21266W        W84825   4.359  16.635  11.949
21267W        W84826  20.190  19.121  10.624
21268W        W84827   9.764  21.751   3.216
21269W        W84828  23.016   3.216  14.870
21270W        W84829  19.057  26.966  14.881
21271W        W84830  27.617  10.189   3.361
21272W        W84831   1.376   0.866  11.502
21273W        W84832  12.683  22.246  14.802
21274W        W84833  16.184  13.628  14.501
21275W        W84834  17.777  12.358   1.770
21276W        W84835   4.272   1.370  12.521
21277W        W84836  15.103  40.446  13.475
21278W        W84837  37.933  22.127  12.925
21279W        W84838  33.510  13.685   4.287
21280W        W84839  13.748   4.247  12.421
21281W        W84840  17.595  13.675  11.987
21282W        W84841  17.203  18.241  12.489
21283W        W84842   7.700  17.168  10.152
21284W        W84843  36.960  23.489  12.939
21285W        W84844  41.971  36.433  12.508
21286W        W84845  29.145  41.417  14.795
21287W        W84846   9.751  16.768  10.948
21288W        W84847  19.190   6.388   0.411
21289W        W84848   7.385   0.394   2.783
21290W        W84849   7.667  13.143   0.914
21291W        W84850  12.166  18.192   3.733
21292W        W84851   4.722  39.371   0.841
21293W        W84852   5.923   5.758   3.373
21294W        W84853  42.839  43.803  13.363
21295W        W84854  35.490  42.820   2.314
21296W        W84855  17.242   2.819  12.536
21297W        W84856  33.431  39.925  11.575
21298W        W84857  38.892  22.559  12.044
21299W        W84858  31.028  25.060  12.062
21300W        W84859  34.912  41.518  10.080
21301W        W84860  25.145   1.268  14.972
21302W        W84861   6.900   1.916  14.831
21303W        W84862   6.378  44.317   0.854
21304W        W84863  32.475  36.894   9.995
21305W        W84864   2.748  21.197  14.356
21306W        W84865  39.894  40.816   4.196
21307W        W84866  38.873  29.967   0.478
21308W        W84867  18.210  12.192  14.002
21309W        W84868  30.920  34.450   0.250
21310W        W84869  18.609  13.788  13.849
21311W        W84870   6.232  16.305   4.142
21312W        W84871  19.743   0.878  12.479
21313W        W84872   9.255  39.903   3.667
21314W        W84873  41.448  20.108   0.427
21315W        W84874  15.321  14.626  13.544
21316W        W84875   1.408  11.370   4.238
21317W        W84876   1.747  37.074   0.825
21318W        W84877  39.831  16.621  10.427
21319W        W84878  17.141  33.047   2.330
21320W        W84879  36.929  13.703   4.119
21321W        W84880  28.450  28.554   2.699
21322W        W84881  35.047  25.674  11.555
21323W        W84882  30.128  35.858   0.267
21324W        W84883  37.471   2.456  13.821
21325W        W84884  32.087  24.976   2.722
21326W        W84885   0.909  41.463  13.417
21327W        W84886  29.172  12.632  12.995
21328W        W84887   5.815  44.785   4.308
21329W        W84888  14.104   0.410  12.394
21330W        W84889  33.978   5.333   4.830
21331W        W84890  25.036  17.241   0.764
21332W        W84891  22.699  15.191  12.921
21333W        W84892  30.005   9.681  11.547
21334W        W84893  44.486  24.144  10.496
21335W        W84894  30.460  31.006  11.394
21336W        W84895  43.386  28.564   0.315
21337W        W84896  39.407  26.492   4.118
21338W        W84897  17.118  12.348  11.436
21339W        W84898   1.881   5.791   4.116
21340W        W84899  42.004   6.812  12.439
21341W        W84900   2.326   3.343  11.971
21342W        W84901  30.990  30.517  13.488
21343W        W84902  36.369  12.853   1.926
21344W        W84903  23.160  13.249  11.447
21345W        W84904  25.615  31.577  12.930
21346W        W84905  19.627   7.813   2.874
21347W        W84906  42.985  10.348  12.840
21348W        W84907  42.495  29.498  14.991
21349W        W84908  11.673  14.785  11.097
21350W        W84909   1.967  39.873   1.211
21351W        W84910  36.511  24.042  11.552
21352W        W84911  24.199  31.499   1.326
21353W        W84912  35.925  18.128  11.372
21354W        W84913  12.854  31.132  12.054
21355W        W84914  41.853  10.246  14.850
21356W        W84915  36.468   8.165   3.737
21357W        W84916  32.960   8.238  12.072
21358W        W84917   4.216  15.740  11.965
21359W        W84918  29.987  16.215   4.788
21360W        W84919  15.700  26.125   1.893
21361W        W84920  22.522   5.315  14.419
21362W        W84921  34.952  25.003   0.263
21363W        W84922  39.488  10.795  13.315
21364W        W84923   4.434  16.211   1.771
21365W        W84924  32.055  22.715   2.750
21366W        W84925  13.732  30.990  13.413
21367W        W84926  11.716  34.008  10.996
21368W        W84927  15.623   5.421   0.299
21369W        W84928  31.073   8.793   1.421
21370W        W84929  22.523  18.176   1.756
21371W        W84930  27.531  39.534   2.405
21372W        W84931  22.015  41.433   4.167
21373W        W84932  30.499  17.135  12.528
21374W        W84933  11.277  31.429  12.379
21375W        W84934  11.853  32.483   5.281
21376W        W84935  40.867  33.990   1.754
21377W        W84936  11.255  35.505   4.168
21378W        W84937  23.649   1.863  11.929
21379W        W84938  23.609  39.922  11.470
21380W        W84939  34.431  32.418   3.658
21381W        W84940  24.220  16.101  10.919
21382W        W84941  43.927  27.023  13.353
21383W        W84942   5.412  19.173   1.755
21384W        W84943  24.586  30.590  12.504
21385W        W84944   3.893  33.558  13.021
21386W        W84945  32.934  14.318   2.251
21387W        W84946   7.303  25.166  11.885
21388W        W84947  28.439  44.866   4.147
21389W        W84948   5.813  38.531   0.332
21390W        W84949  32.100   6.288  12.407
21391W        W84950  41.377  14.165  12.470
21392W        W84951  35.505   4.278   1.245
21393W        W84952  18.268  40.332   4.635
21394W        W84953  42.518   5.902   2.268
21395W        W84954  32.485  38.940   0.951
21396W        W84955   6.421  30.050   1.765
21397W        W84956   1.833  35.393  13.376
21398W        W84957   6.767  43.331   4.139
21399W        W84958   8.669  21.130   1.268
21400W        W84959  28.559   6.255  11.067
21401W        W84960  38.857  36.442  14.394
21402W        W84961  13.675  14.239   4.787
21403W        W84962  22.027  10.700  11.992
21404W        W84963   9.652  23.163   2.185
21405W        W84964  18.072  29.937   1.831
21406W        W84965  23.700  36.859  12.465
21407W        W84966  26.973  22.600  12.966
21408W        W84967  12.729   9.724   3.860
21409W        W84968  18.584  30.968  12.981
21410W        W84969  20.206  32.473  11.111
21411W        W84970  25.053  28.528   3.236
21412W        W84971  19.776  38.336  13.986
21413W        W84972  43.468  39.372  11.527
21414W        W84973   8.676  17.562   4.320
21415W        W84974  40.950  22.016  14.346
21416W        W84975   0.955  31.604   4.205
21417W        W84976   6.402  30.066  10.527
21418W        W84977  12.170  28.140  11.462
21419W        W84978  15.241   9.750   1.388
21420W        W84979  28.529  13.663  11.608
21421W        W84980  29.031   0.394   3.217
21422W        W84981  27.686  17.191   4.598
21423W        W84982   4.706  41.853   1.399
21424W        W84983  37.036  14.117   2.245
21425W        W84984   7.681   5.842  10.917
21426W        W84985  39.828  29.140   4.683
21427W        W84986  34.369  10.652   0.733
21428W        W84987   8.365  19.710  11.554
21429W        W84988   0.891  25.488  11.058
21430W        W84989  26.960  24.580  10.489
21431W        W84990  35.878  13.292  13.876
21432W        W84991  15.306   0.980  14.896
21433W        W84992  12.213   7.875   1.269
21434W        W84993  15.092   1.761   3.850
21435W        W84994  22.038  29.985  14.836
21436W        W84995   2.411  31.958  11.898
21437W        W84996  32.452   6.425   0.960
21438W        W84997  25.090  13.840  12.531
21439W        W84998  25.196   3.364  13.337
21440W        W84999  27.093  22.202   1.803
21441W        W85000   2.390  21.648   3.349
21442W        W85001  30.976  31.635  13.535
21443W        W85002  17.660  33.021   2.745
21444W        W85003   0.328  15.630   0.292
21445W        W85004  28.492  33.000  14.982
21446W        W85005  32.551   5.228   2.786
21447W        W85006  39.917  30.594   3.763
21448W        W85007  20.225  41.860  14.952
21449W        W85008  36.008  26.667   1.305
21450W        W85009  16.235   3.305  14.405
21451W        W85010  40.045  31.143  13.900
21452W        W85011  32.401  30.492  11.037
21453W        W85012  38.996  11.628  14.817
21454W        W85013  29.667  27.976   2.831
21455W        W85014  38.008  26.052  10.439
21456W        W85015   1.839  43.898   3.168
21457W        W85016  13.351  26.614  14.926
21458W        W85017  31.107  44.316  11.474
21459W        W85018   9.672  39.989   0.924
21460W        W85019  31.999  33.460  11.872
21461W        W85020  20.259  12.754  14.468
21462W        W85021  42.889  22.505  13.914
21463W        W85022  37.397  44.980  13.005
21464W        W85023  30.531   3.459   2.778
21465W        W85024   1.352   2.723  14.951
21466W        W85025  34.049  19.673   0.920
21467W        W85026  41.509  33.970  14.836
21468W        W85027  31.505  19.091   4.151
21469W        W85028   0.824   1.874  13.508
21470W        W85029  23.069  23.546   3.723
21471W        W85030  18.162  19.241  14.019
21472W        W85031   7.241   5.236   4.323
21473W        W85032  20.237  13.193   4.349
21474W        W85033   4.363  19.141   1.707
21475W        W85034  17.178  34.394   0.932
21476W        W85035  17.168  38.350  11.932
21477W        W85036  28.106  27.609   4.319
21478W        W85037  27.545  27.191  11.119
21479W        W85038  30.068   4.876  13.537
21480W        W85039  21.631  19.062  11.006
21481W        W85040   2.772  20.652   2.874
21482W        W85041  30.512  17.121  11.023
21483W        W85042  42.504  28.932  13.428
21484W        W85043   3.829  12.256   1.752
21485W        W85044   9.166   0.437   0.726
21486W        W85045  26.527  38.404   0.293
21487W        W85046  38.967  33.590  13.834
21488W        W85047  15.811  13.119   0.380
21489W        W85048  37.837  19.177  14.323
21490W        W85049  17.250   1.883  14.419
21491W        W85050  41.411  30.956   0.409
21492W        W85051  31.116  41.366  11.923
21493W        W85052  34.910  40.383  13.313
21494W        W85053   5.707   6.760  13.314
21495W        W85054  43.330  43.393   4.216
21496W        W85055   5.341  41.856   2.826
21497W        W85056  42.848  11.354  11.440
21498W        W85057  19.123  12.308   4.117
21499W        W85058  20.670  14.594  12.827
21500W        W85059  24.136  30.649   3.285
21501W        W85060  43.290  11.313   4.158
21502W        W85061  30.092  27.673  13.898
21503W        W85062  29.573  43.862  12.943
21504W        W85063  38.022  27.035  14.298
21505W        W85064  42.314  12.693  11.533
21506W        W85065  29.083  43.833   2.261
21507W        W85066  32.046  29.027  12.563
21508W        W85067  27.667  35.998   0.464
21509W        W85068   4.732   0.778  13.405
21510W        W85069   7.268  33.521  11.601
21511W        W85070  39.909  41.308  13.905
21512W        W85071  40.313  29.459  13.362
21513W        W85072  20.053  34.380   0.275
21514W        W85073  18.580  22.160  11.027
21515W        W85074  11.649   4.915  10.999
21516W        W85075   3.766  22.560   1.233
21517W        W85076  12.737  31.439   3.326
21518W        W85077  35.855   8.170   3.733
21519W        W85078  19.560  42.947  14.319
21520W        W85079  25.048  14.681  11.951
21521W        W85080   7.311   4.420   4.716
21522W        W85081  40.439   1.800  14.021
21523W        W85082  33.490  35.400   2.874
21524W        W85083  28.170   7.766  11.111
21525W        W85084   4.862   8.236   2.246
21526W        W85085  31.458   6.307   0.318
21527W        W85086  34.530  33.510  13.360
21528W        W85087  23.119  25.216  11.860
21529W        W85088  18.694   7.415   4.203
21530W        W85089  32.498  19.133   1.447
21531W        W85090  40.836  38.988   4.714
21532W        W85091  41.527  40.397  11.918
21533W        W85092  36.979  15.727  11.454
21534W        W85093  32.462   0.444   2.322
21535W        W85094  33.103  24.678  12.084
21536W        W85095  38.400  32.409   2.792
21537W        W85096  31.128   5.216  13.999
21538W        W85097  24.679  27.191   3.378
21539W        W85098   9.885  40.951   3.631
21540W        W85099  31.064  35.379   1.919
21541W        W85100  42.023   3.764   2.244
21542W        W85101  27.969  19.757  13.319
21543W        W85102  36.014  16.103   1.878
21544W        W85103  14.613   9.712   0.811
21545W        W85104  23.502  30.028   9.939
21546W        W85105  27.496  13.204  11.937
21547W        W85106   0.447  10.360   3.171
21548W        W85107  29.025  44.793  13.473
21549W        W85108  26.975   6.683   3.314
21550W        W85109   6.762  10.285   1.909
21551W        W85110  21.234   2.353  10.547
21552W        W85111  20.124  27.610  11.861
21553W        W85112   4.902  20.210   3.825
21554W        W85113  29.972  13.153   3.649
21555W        W85114   5.879  24.034  12.992
21556W        W85115   7.191  22.149   4.129
21557W        W85116  25.665  16.118  12.971
21558W        W85117  42.963  32.102  12.859
21559W        W85118  15.317  22.731   0.306
21560W        W85119  22.131   9.161   1.420
21561W        W85120  16.633   0.824   4.346
21562W        W85121  33.891  39.500  11.560
21563W        W85122  35.577  36.975  13.374
21564W        W85123  25.010  25.151   4.253
21565W        W85124  38.529  31.060   0.864
21566W        W85125  12.285  25.533   2.214
21567W        W85126   4.759  34.901  12.882
21568W        W85127  17.568  19.535  13.328
21569W        W85128  21.618  14.300  12.886
21570W        W85129  20.682   1.978  14.915
21571W        W85130  33.990  10.224   3.831
21572W        W85131  34.865  24.641   3.751
21573W        W85132  34.870  21.648  10.927
21574W        W85133  43.962  34.615  10.907
21575W        W85134  42.289  34.462  10.573
21576W        W85135  34.470  38.390  10.026
21577W        W85136   1.854  13.288   4.737
21578W        W85137  36.447  12.319  12.868
21579W        W85138  29.444  23.160   4.765
21580W        W85139   9.369  18.222  13.488
21581W        W85140   8.754   0.846  13.970
21582W        W85141   5.722  17.565   3.736
21583W        W85142  16.783  37.512   0.345
21584W        W85143   2.767  17.068  13.429
21585W        W85144  36.434  18.740   3.335
21586W        W85145  17.184  15.767  13.521
21587W        W85146   3.782   6.428  10.905
21588W        W85147  21.040  34.876   5.271
21589W        W85148  12.715  25.714  12.994
21590W        W85149   6.795  21.696  11.920
21591W        W85150  27.083  36.465   0.413
21592W        W85151  24.674  24.982  14.901
21593W        W85152  31.502  37.053  13.815
21594W        W85153   1.417  25.140   3.795
21595W        W85154  29.514   2.763  12.451
21596W        W85155   1.807   5.718  14.769
21597W        W85156  37.574  28.489   4.607
21598W        W85157  35.427   5.739  10.979
21599W        W85158  20.675  28.137   0.918
21600W        W85159  32.069  38.484  11.053
21601W        W85160  35.534   3.315  14.919
21602W        W85161   0.961   3.830  13.952
21603W        W85162  33.472  39.505   1.367
21604W        W85163  41.501  10.781   4.130
21605W        W85164  10.322  15.244   2.692
21606W        W85165   1.801   4.819  13.518
21607W        W85166  12.220   4.221  12.993
21608W        W85167  13.762   3.264  10.462
21609W        W85168  16.123  22.007   4.671
21610W        W85169  12.611  39.060  13.386
21611W        W85170   8.367  34.449   0.821
21612W        W85171  30.466  25.490  14.277
21613W        W85172   1.790  11.242  14.433
21614W        W85173  15.672  11.131  11.415
21615W        W85174  33.887   4.820  13.902
21616W        W85175  12.823  27.006  12.004
21617W        W85176  44.763  42.483   0.248
21618W        W85177   6.710  39.330  13.908
21619W        W85178   4.341   2.456   1.879
21620W        W85179  24.568  14.253  14.868
21621W        W85180  20.720  25.211  10.950
21622W        W85181  17.734  37.996   3.661
21623W        W85182  11.707  17.252   0.289
21624W        W85183  33.983  32.902  13.876
21625W        W85184  20.698  26.182  11.897
21626W        W85185  38.360  31.436  11.882
21627W        W85186   9.716  31.614   4.634
21628W        W85187  15.734  18.278  11.079
21629W        W85188  37.960  23.734  12.460
21630W        W85189  18.216   9.824  14.444
21631W        W85190  33.491   7.396   1.415
21632W        W85191  41.977  41.015   1.440
21633W        W85192   5.220  23.189  13.502
21634W        W85193  44.964  28.092  12.026
21635W        W85194  33.064  10.365   1.213
21636W        W85195  35.093  33.621  13.519
21637W        W85196  11.768  14.760  12.457
21638W        W85197  38.875   1.316   3.745
21639W        W85198   1.930  21.650  14.913
21640W        W85199   6.322   7.400   4.811
21641W        W85200  34.914   6.229   3.736
21642W        W85201   0.471  42.858  13.912
21643W        W85202  18.582  44.501   5.295
21644W        W85203  43.808   4.422  12.418
21645W        W85204  20.660  23.718   4.246
21646W        W85205  22.678  38.864   3.379
21647W        W85206   4.282  41.408   0.956
21648W        W85207  30.911  27.674  12.870
21649W        W85208  21.586  43.357   1.808
21650W        W85209  33.901  16.288  12.366
21651W        W85210  23.014   0.828   0.829
21652W        W85211  19.643  22.564   5.258
21653W        W85212  10.193  42.300  11.009
21654W        W85213  20.527  15.740   0.419
21655W        W85214  18.267  15.257  14.786
21656W        W85215  10.841   9.365  12.364
21657W        W85216  22.742  20.727   2.789
21658W        W85217  36.901  37.361   1.863
21659W        W85218  27.578  21.072   1.329
21660W        W85219  38.887  44.754  13.796
21661W        W85220  29.141  12.615  11.456
21662W        W85221  42.948  11.713  11.955
21663W        W85222   2.229   7.276   3.862
21664W        W85223  34.997  38.500   0.781
21665W        W85224  23.004  30.141  13.365
21666W        W85225  31.642   3.420  10.591
21667W        W85226  25.095   1.822  12.993
21668W        W85227  24.716  11.663   1.812
21669W        W85228   3.430  11.856   5.233
21670W        W85229  38.429  20.705  11.394
21671W        W85230   5.244  12.326  11.576
21672W        W85231  11.196  40.831   1.290
21673W        W85232  11.342  11.165  11.948
21674W        W85233   9.712  29.596  12.018
21675W        W85234  15.586  13.140  11.467
21676W        W85235  44.451  22.038   0.278
21677W        W85236  17.627  26.585   1.768
21678W        W85237  14.779  16.314   4.235
21679W        W85238  24.189  19.652   0.478
21680W        W85239   7.325  38.470  14.890
21681W        W85240  39.892  36.377   4.232
21682W        W85241  24.528  39.369  14.386
21683W        W85242  13.616  33.046   3.756
21684W        W85243  31.522   4.429   0.943
21685W        W85244   9.871  22.124  13.967
21686W        W85245   0.308  28.653   2.343
21687W        W85246  15.199  41.039   3.652
21688W        W85247  18.695  35.554   3.752
21689W        W85248  10.262  43.325   3.172
21690W        W85249  36.941  20.240  12.095
21691W        W85250  14.232  40.390  13.431
21692W        W85251  39.918  37.885   1.900
21693W        W85252   4.214  17.106  10.496
21694W        W85253   7.372  38.991   3.337
21695W        W85254  18.244   5.431  10.433
21696W        W85255  28.527   1.760  12.405
21697W        W85256   0.981   5.698   9.994
21698W        W85257  24.665  28.935   1.253
21699W        W85258  16.090   4.339  13.536
21700W        W85259  44.487  28.094  10.943
21701W        W85260  39.545   6.776   3.219
21702W        W85261   2.863   1.960  14.457
21703W        W85262  20.744  29.616   0.742
21704W        W85263  43.816   1.350   0.325
21705W        W85264  22.648  23.055   1.305
21706W        W85265  42.024  33.426  12.973
21707W        W85266  25.470  44.894   3.676
21708W        W85267  32.531   1.968  14.394
21709W        W85268  28.498  11.268  13.919
21710W        W85269  44.789  43.992   1.708
21711W        W85270  11.180  22.187  11.945
21712W        W85271   9.281   2.406   3.251
21713W        W85272  19.589  27.146   3.651
21714W        W85273   4.793   3.911   2.392
21715W        W85274   8.333   3.361   4.156
21716W        W85275  26.973   1.294   1.361
21717W        W85276  28.066  25.117  12.905
21718W        W85277   1.366   9.265   4.614
21719W        W85278  35.603  20.134  13.459
21720W        W85279  21.659  44.375   4.295
21721W        W85280  24.171  11.194   0.252
21722W        W85281  20.219  41.975  11.496
21723W        W85282  43.274  39.535  11.108
21724W        W85283   9.645   4.849  11.435
21725W        W85284  39.828  20.122   0.781
21726W        W85285  12.656  21.118   3.639
21727W        W85286  25.092  28.058  11.017
21728W        W85287   1.476   0.464   1.889
21729W        W85288  22.594  25.569   0.913
21730W        W85289  18.773  34.537   0.302
21731W        W85290   8.291  30.964  11.018
21732W        W85291  10.342  35.358  12.419
21733W        W85292  24.602  32.119  10.118
21734W        W85293  12.182  38.523  11.548
21735W        W85294  22.243  19.538   5.238
21736W        W85295  16.246  10.224   3.762
21737W        W85296  33.432  31.079   1.933
21738W        W85297  27.036  29.486  11.972
21739W        W85298  17.766  23.074   4.125
21740W        W85299  22.591   8.692   3.241
21741W        W85300  41.424   0.950  14.762
21742W        W85301  17.308  32.026   3.709
21743W        W85302  34.883   9.224  14.019
21744W        W85303  17.661  44.914   1.826
21745W        W85304  42.456  18.210   4.230
21746W        W85305  34.907  29.942  13.357
21747W        W85306  44.462  38.543   0.859
21748W        W85307  21.633  37.485   2.399
21749W        W85308  37.082  34.902   3.214
21750W        W85309  19.223  30.479   5.099
21751W        W85310  43.473  14.200  12.483
21752W        W85311  41.293  31.585   1.255
21753W        W85312  24.517  31.466  13.841
21754W        W85313  16.162  42.326  11.943
21755W        W85314  25.088  41.913  11.501
21756W        W85315  25.135  44.834  14.777
21757W        W85316  13.607  41.538   2.703
21758W        W85317  42.351  37.984   3.224
21759W        W85318  26.055  23.657  11.390
21760W        W85319   5.408  12.696   2.682
21761W        W85320   7.369   8.206   3.361
21762W        W85321  18.132  37.443  14.340
21763W        W85322   6.193  20.565   4.735
21764W        W85323  29.081   7.763   1.778
21765W        W85324  28.963  39.338   9.472
21766W        W85325  35.512  43.987  11.972
21767W        W85326  25.549  21.630   4.143
21768W        W85327   2.408  17.605  13.346
21769W        W85328  42.854  26.094   1.694
21770W        W85329  27.171   5.749  10.554
21771W        W85330  17.202  18.178   1.345
21772W        W85331  29.989  34.965   4.686
21773W        W85332  20.626  41.957  12.443
21774W        W85333   3.362  43.467  10.910
21775W        W85334  39.437   4.208  12.467
21776W        W85335  29.481   1.408   1.316
21777W        W85336  21.670  22.529   3.302
21778W        W85337  42.303  13.699  13.492
21779W        W85338   4.793  38.877   5.120
21780W        W85339  14.317  25.999   2.254
21781W        W85340   4.431   1.927  10.432
21782W        W85341  37.953  33.933   3.639
21783W        W85342   5.803  20.606   1.286
21784W        W85343  35.468  32.446  12.408
21785W        W85344   9.689  21.548  14.016
21786W        W85345   6.239   8.298  11.100
21787W        W85346  29.025  12.663   1.922
21788W        W85347  44.955  13.828   0.854
21789W        W85348  38.950  33.013  14.468
21790W        W85349  40.932  36.928   2.790
21791W        W85350   2.929   3.427   1.775
21792W        W85351  13.769  11.271  14.459
21793W        W85352  23.509   3.862   1.750
21794W        W85353   6.720  20.540  13.048
21795W        W85354  37.889  33.439  14.769
21796W        W85355  41.821  19.590   0.428
21797W        W85356   2.277  43.388   2.678
21798W        W85357  21.179   9.756  10.544
21799W        W85358  33.970   6.728  10.591
21800W        W85359   5.721   1.368   4.237
21801W        W85360   9.802   4.260  13.041
21802W        W85361  35.524  31.573  10.603
21803W        W85362  41.852  14.161   3.635
21804W        W85363  41.835   3.752  12.523
21805W        W85364  32.510  39.323  13.023
21806W        W85365  21.685  43.417   1.242
21807W        W85366  28.468  10.745   2.333
21808W        W85367  37.064   3.428  12.886
21809W        W85368  12.298   0.760   1.861
21810W        W85369  35.868  32.894  10.908
21811W        W85370  32.933  28.582  14.367
21812W        W85371   1.841  15.632  11.555
21813W        W85372  10.712   2.268   1.735
21814W        W85373  25.195   1.328  10.444
21815W        W85374  37.397   5.265  11.504
21816W        W85375  39.994  24.642  12.384
21817W        W85376  22.072   7.406  10.438
21818W        W85377  34.585  42.290  11.897
21819W        W85378  10.848  25.173  13.385
21820W        W85379  14.833  39.849   2.675
21821W        W85380  38.008  27.188   3.696
21822W        W85381  24.091  24.014  10.578
21823W        W85382   8.895   5.401   0.281
21824W        W85383  42.376  21.148  12.825
21825W        W85384   1.346  27.453   3.755
21826W        W85385  43.005   7.180  10.483
21827W        W85386  11.814  17.608   0.949
21828W        W85387  41.790  39.975   1.711
21829W        W85388  30.114   5.860  13.859
21830W        W85389  23.074  44.773  11.382
21831W        W85390   2.464  10.816  12.424
21832W        W85391  37.349   5.886  12.868
21833W        W85392  25.537  39.492   3.683
21834W        W85393   3.359  40.836  10.428
21835W        W85394  38.434  19.551  12.411
21836W        W85395  44.984  20.273  11.975
21837W        W85396  24.709  34.060   2.662
21838W        W85397  30.986  44.961   2.179
21839W        W85398   6.806  38.392  14.474
21840W        W85399  38.873  15.706  11.898
21841W        W85400  38.372  35.987  14.907
21842W        W85401  36.946  17.641   3.340
21843W        W85402   5.886  36.532  14.485
21844W        W85403  31.031  19.132  12.414
21845W        W85404   8.304  21.204   1.806
21846W        W85405  24.566  13.105   5.740
21847W        W85406  31.543  12.317   1.220
21848W        W85407  44.772  39.902   1.743
21849W        W85408  35.440   1.858  13.948
21850W        W85409  22.574  26.983   3.338
21851W        W85410   7.854  14.174   3.646
21852W        W85411  16.123  26.203  14.016
21853W        W85412   4.888  43.357   3.179
21854W        W85413  39.000  33.073   2.228
21855W        W85414  31.545  18.650  13.921
21856W        W85415  41.822  32.135   2.322
21857W        W85416  21.044   4.302  13.397
21858W        W85417   3.900   3.412  12.442
21859W        W85418  39.380  29.945   1.414
21860W        W85419  31.052  23.020  11.381
21861W        W85420  25.532  17.167   3.337
21862W        W85421   5.293  19.045  11.972
21863W        W85422  16.729  14.267   4.220
21864W        W85423  10.157  39.842  10.042
21865W        W85424  40.395  14.242   4.743
21866W        W85425  20.644  22.140   0.908
21867W        W85426  29.041  42.404   4.811
21868W        W85427  18.276  44.486  11.398
21869W        W85428  28.929  40.869   2.885
21870W        W85429  22.136  33.411   3.341
21871W        W85430  16.574   8.854  10.498
21872W        W85431  39.428  26.197   2.837
21873W        W85432  36.573  16.803  10.545
21874W        W85433   0.364  37.931   0.755
21875W        W85434   2.293  19.741   4.303
21876W        W85435  32.461  38.474  14.949
21877W        W85436  29.444  14.116  13.946
21878W        W85437  11.239  15.267   1.832
21879W        W85438  37.947   5.404  14.494
21880W        W85439  25.983  16.724   1.786
21881W        W85440  18.094  28.173   1.741
21882W        W85441  43.019  10.275  14.323
21883W        W85442  30.571  11.321   4.293
21884W        W85443  43.935   1.839  11.055
21885W        W85444  18.579  33.936   3.868
21886W        W85445  34.580  37.403   3.813
21887W        W85446  18.713   0.942   1.768
21888W        W85447  13.116   9.771   2.882
21889W        W85448  23.632  38.367  12.465
21890W        W85449  12.854  11.317   3.357
21891W        W85450   7.226   5.293   0.310
21892W        W85451  43.930  17.126  14.959
21893W        W85452  43.853  30.131  10.987
21894W        W85453  25.966  17.680  10.576
21895W        W85454  14.604  21.525   4.643
21896W        W85455  16.787  30.101  11.907
21897W        W85456  24.053  31.956   0.443
21898W        W85457  30.553  28.020   1.293
21899W        W85458  13.200  17.624  11.074
21900W        W85459   9.307  38.421  11.971
21901W        W85460  24.532  16.616   1.924
21902W        W85461  15.294  21.624  12.363
21903W        W85462  23.570  16.236   2.275
21904W        W85463  42.958  38.037   0.883
21905W        W85464   7.287  20.198  14.349
21906W        W85465  18.757  30.553  11.089
21907W        W85466  26.561  41.825   0.959
21908W        W85467  11.278  20.537  12.886
21909W        W85468  42.822  22.118   1.872
21910W        W85469   7.177  19.767  14.437
21911W        W85470  38.538  30.010   2.740
21912W        W85471  20.181   3.360  13.485
21913W        W85472  33.525   7.718   4.115
21914W        W85473  44.898  18.560  13.354
21915W        W85474  33.086  24.526   0.329
21916W        W85475  32.481  40.454   2.749
21917W        W85476  21.038  20.617   4.220
21918W        W85477  31.142  39.856  11.592
21919W        W85478   9.211  13.601   2.885
21920W        W85479  10.239   4.838  11.376
21921W        W85480  28.151  11.740   2.729
21922W        W85481  12.646   7.825  12.522
21923W        W85482  35.918   4.890   0.287
21924W        W85483   9.247  13.841  11.921
21925W        W85484  21.043   1.472   1.212
21926W        W85485  43.021  20.574   4.233
21927W        W85486  17.281  40.450   0.391
21928W        W85487   2.270  13.799   2.813
21929W        W85488   6.697  21.034   3.354
21930W        W85489  24.575  13.743  14.462
21931W        W85490  39.360  17.127   1.829
21932W        W85491  35.034  23.074  14.995
21933W        W85492  40.380   3.807  13.360
21934W        W85493  42.467  15.094   2.884
21935W        W85494  42.378  21.181  13.345
21936W        W85495  18.128   1.287  12.458
21937W        W85496  35.368  11.756   5.216
21938W        W85497  33.603   0.868   1.743
21939W        W85498  11.636  27.603   3.745
21940W        W85499  10.660  18.058   0.343
21941W        W85500  22.686  33.087  11.086
21942W        W85501  18.179   0.347   0.824
21943W        W85502  20.128  35.472  11.117
21944W        W85503  25.219  26.104  12.038
21945W        W85504  32.542  22.060   2.700
21946W        W85505  36.937  28.434   4.636
21947W        W85506  19.104  36.448  13.939
21948W        W85507  31.585  10.740   1.811
21949W        W85508  12.283  40.805   4.830
21950W        W85509  19.055  19.726  14.952
21951W        W85510  23.215  43.800  10.604
21952W        W85511  43.982  36.919   4.677
21953W        W85512  30.947  34.082  10.607
21954W        W85513  40.421  10.189  14.006
21955W        W85514   3.257  24.572  11.579
21956W        W85515  23.547  18.258   2.231
21957W        W85516  44.466  42.975  12.061
21958W        W85517  20.239  34.395   0.887
21959W        W85518  22.193  21.085  14.415
21960W        W85519  20.729  10.749   2.886
21961W        W85520   8.169  21.563   1.247
21962W        W85521   9.251  42.994   1.805
21963W        W85522  12.642  37.852  12.037
21964W        W85523  36.349   7.195   1.737
21965W        W85524  19.725  17.292  13.397
21966W        W85525  40.548  32.455  13.919
21967W        W85526  10.159  39.380  10.410
21968W        W85527  31.118  32.898  10.493
21969W        W85528   1.440   4.823  10.906
21970W        W85529  22.683   1.347  10.986
21971W        W85530  19.234  40.430   3.162
21972W        W85531  20.665   0.919  12.067
21973W        W85532  10.217  15.792   4.303
21974W        W85533   4.389   0.853  11.429
21975W        W85534  28.963  34.923   2.343
21976W        W85535  25.190   5.691  12.087
21977W        W85536   6.774  24.592   0.735
21978W        W85537  30.042  25.999   4.247
21979W        W85538  22.157  10.870   9.607
21980W        W85539  11.700  25.581   3.295
21981W        W85540  13.749  39.969   0.740
21982W        W85541  28.154   7.368   0.325
21983W        W85542   3.406  17.161  13.943
21984W        W85543   7.273  41.327  13.024
21985W        W85544  26.191  16.810  10.948
21986W        W85545  30.417  29.663  14.851
21987W        W85546  29.509   6.714  14.997
21988W        W85547   9.179   2.868   0.344
21989W        W85548  37.538  17.223  11.382
21990W        W85549  37.990  35.862  14.513
21991W        W85550  17.061  18.174  10.493
21992W        W85551  41.907  16.287   2.725
21993W        W85552  22.196  16.117  12.913
21994W        W85553   3.320  33.587   1.808
21995W        W85554  15.265  27.952   0.259
21996W        W85555  30.648  22.217   2.785
21997W        W85556  39.957  25.993  14.894
21998W        W85557  11.672  16.243   3.746
21999W        W85558  13.627  42.292  12.472
22000W        W85559  13.309  27.137   1.927
22001W        W85560  30.540   3.357  13.381
22002W        W85561  16.260  44.362  10.613
22003W        W85562  27.049  44.776  14.503
22004W        W85563  17.599   0.490  14.930
22005W        W85564  27.567  25.495  11.513
22006W        W85565  37.922  33.525  11.506
22007W        W85566  25.198  32.140  14.965
22008W        W85567   4.220  24.565   3.234
22009W        W85568  42.965  10.364   3.329
22010W        W85569  15.265   6.827  11.122
22011W        W85570  34.588  28.182   4.262
22012W        W85571  16.679  40.943  11.430
22013W        W85572  22.629  13.775   4.195
22014W        W85573   5.796  34.044  13.523
22015W        W85574   5.226  31.021  13.332
22016W        W85575  16.145   3.436   1.782
22017W        W85576  24.095   0.824  13.025
22018W        W85577   3.845  21.111  14.989
22019W        W85578  38.975  22.051  14.355
22020W        W85579  17.294  23.090  14.290
22021W        W85580   1.405   0.315  11.560
22022W        W85581  26.077  18.787  10.598
22023W        W85582  43.794  13.619  13.812
22024W        W85583  26.541  19.605   2.310
22025W        W85584  22.675   3.739  13.958
22026W        W85585   5.916  31.598  11.887
22027W        W85586   4.832  10.757   0.255
22028W        W85587  17.711  26.020  10.523
22029W        W85588  15.160   0.312   0.333
22030W        W85589  13.728  29.644   4.198
22031W        W85590   4.415  19.545   0.886
22032W        W85591  31.051  42.356  14.320
22033W        W85592  26.499   9.300  11.949
22034W        W85593  18.649  43.880  12.530
22035W        W85594  30.028  44.306  11.491
22036W        W85595  16.705  27.516   3.214
22037W        W85596  26.156  25.598  11.873
22038W        W85597  10.871   3.855   0.785
22039W        W85598   8.183  25.133   1.878
22040W        W85599   2.445   8.849  12.001
22041W        W85600  23.223  33.968   2.227
22042W        W85601  30.907  32.602  14.371
22043W        W85602  16.713  21.686   4.153
22044W        W85603  38.571  30.111   3.808
22045W        W85604  43.838  40.966  14.433
22046W        W85605  25.031  23.118  10.609
22047W        W85606   2.469   5.687  13.458
22048W        W85607  40.039   9.768   2.316
22049W        W85608  13.164  15.733  10.928
22050W        W85609   0.355  41.863  10.428
22051W        W85610  12.827  39.320  14.293
22052W        W85611   0.788  31.421  12.435
22053W        W85612  27.641  35.546  13.897
22054W        W85613  13.265  19.237   4.777
22055W        W85614  18.253  23.643  11.401
22056W        W85615  38.975  32.520   0.404
22057W        W85616   3.424  42.328  11.023
22058W        W85617  15.644  26.156  11.457
22059W        W85618   6.878  37.572   1.386
22060W        W85619  25.034  36.062   2.350
22061W        W85620  15.262  13.221  10.929
22062W        W85621   1.895  20.245   4.334
22063W        W85622  27.024  42.850  13.016
22064W        W85623  30.046  11.708   3.331
22065W        W85624   6.256  34.968  11.519
22066W        W85625  20.034   0.849  12.965
22067W        W85626  12.140  14.829  13.797
22068W        W85627  21.247  18.613  11.041
22069W        W85628  36.402   5.750  14.773
22070W        W85629  38.443  25.972  11.491
22071W        W85630  19.234  22.588   0.464
22072W        W85631  31.934  31.089  14.344
22073W        W85632   9.310  15.275   4.306
22074W        W85633  34.916  44.399  13.033
22075W        W85634  12.320   5.711   0.858
22076W        W85635  28.574  11.265  11.477
22077W        W85636   7.807  22.683   4.741
22078W        W85637   8.726  25.970   4.601
22079W        W85638  22.999   8.657   3.851
22080W        W85639  38.944   4.795   4.192
22081W        W85640  31.617  41.343   1.317
22082W        W85641  25.680   2.814  11.433
22083W        W85642  19.758   4.381   1.263
22084W        W85643   9.322   7.255  10.942
22085W        W85644   0.378  42.907  10.010
22086W        W85645   3.217  14.778  11.943
22087W        W85646  10.699  17.257   1.408
22088W        W85647  12.335  13.205  14.320
22089W        W85648  23.233  12.832   0.733
22090W        W85649   8.879  32.442  11.034
22091W        W85650  38.060  27.969   1.930
22092W        W85651  44.952  38.342   2.299
22093W        W85652  18.219   3.266  10.994
22094W        W85653  40.469   9.774  12.892
22095W        W85654  31.542  27.666  11.873
22096W        W85655  15.640   4.235  12.350
22097W        W85656  41.533   0.407   3.674
22098W        W85657  11.790  14.647  10.550
22099W        W85658  22.613  39.930   2.258
22100W        W85659   1.946  41.401  10.491
22101W        W85660  28.659  36.998  10.895
22102W        W85661  25.145  15.577   4.309
22103W        W85662  41.887  22.017   0.902
22104W        W85663   6.793  12.632   2.224
22105W        W85664   2.390  13.135  13.838
22106W        W85665  29.062  17.121   2.289
22107W        W85666  21.645  30.085   0.411
22108W        W85667  40.810  25.974  13.855
22109W        W85668  20.768   1.974  11.451
22110W        W85669   7.670  25.624   4.295
22111W        W85670  29.426  30.421   0.961
22112W        W85671  21.603   1.803   3.232
22113W        W85672  38.991   9.278  10.976
22114W        W85673  28.141   2.450  12.051
22115W        W85674  13.110  26.110  11.008
22116W        W85675  15.309  35.527   2.800
22117W        W85676  41.446   1.936   2.372
22118W        W85677   8.227  41.351   2.788
22119W        W85678   4.438  29.457   0.861
22120W        W85679  27.588  38.974  12.343
22121W        W85680  33.410   0.847   5.103
22122W        W85681   8.370   1.919  12.966
22123W        W85682  40.892  40.475   0.276
22124W        W85683   5.314  24.046   1.801
22125W        W85684  36.374  26.506   1.903
22126W        W85685   7.768  42.969   1.358
22127W        W85686  33.493  43.795   2.848
22128W        W85687  34.094  33.904   4.781
22129W        W85688  32.945  13.628   0.471
22130W        W85689  33.092   8.187   4.776
22131W        W85690   4.765  35.869   0.961
22132W        W85691  17.616  29.628  10.476
22133W        W85692  13.177  15.635  13.437
22134W        W85693  37.052  38.917  13.929
22135W        W85694  29.130  35.573   2.329
22136W        W85695   6.897  19.537   2.236
22137W        W85696  18.209   0.807   4.132
22138W        W85697  21.157  33.577   1.416
22139W        W85698  42.972  20.640  13.792
22140W        W85699  41.432  30.061  13.330
22141W        W85700  30.628  17.625   3.360
22142W        W85701  31.052  13.348  14.511
22143W        W85702  12.691  42.286   4.727
22144W        W85703  42.886  34.373   0.892
22145W        W85704  16.781   7.882   3.711
22146W        W85705  38.429  10.183  11.907
22147W        W85706  25.495  20.707  13.805
22148W        W85707  33.985  25.990  11.394
22149W        W85708  39.517  30.596  13.887
22150W        W85709  19.047   7.205  12.515
22151W        W85710  36.981  19.121   3.202
22152W        W85711  35.467  27.077   4.699
22153W        W85712  33.417  32.054   3.289
22154W        W85713  19.752  11.366  14.827
22155W        W85714  21.540  36.417   4.700
22156W        W85715  11.783  44.981  13.436
22157W        W85716  31.580  43.868  12.065
22158W        W85717  38.895  37.516  10.580
22159W        W85718   2.350  31.552   4.674
22160W        W85719  42.945  24.207  11.397
22161W        W85720  43.818  16.084   4.695
22162W        W85721  30.918   8.761  12.514
22163W        W85722  36.926  38.896  12.831
22164W        W85723  19.104   6.256   3.247
22165W        W85724  26.560  14.285   3.750
22166W        W85725  33.118  32.626  10.570
22167W        W85726  36.852   6.234  14.904
22168W        W85727  27.488   9.721   5.168
22169W        W85728  21.753  44.271   0.924
22170W        W85729   2.457  42.776  13.901
22171W        W85730   3.327  31.057  13.505
22172W        W85731  24.202  15.742  14.448
22173W        W85732   5.803  33.623  14.380
22174W        W85733  33.611  40.876   5.315
22175W        W85734   5.827  18.621  11.399
22176W        W85735  42.031  22.714  14.986
22177W        W85736  31.628  16.660  10.640
22178W        W85737  31.152  36.421  12.903
22179W        W85738  27.160  40.917   0.253
22180W        W85739  36.483  14.332   3.837
22181W        W85740  19.763  30.031   0.431
22182W        W85741   4.333  18.694   2.205
22183W        W85742  26.476  29.442  13.060
22184W        W85743  38.357  17.258  11.973
22185W        W85744  20.657  39.438  10.411
22186W        W85745  21.118  40.302   2.678
22187W        W85746  34.039  28.969   3.788
22188W        W85747  41.327  36.959  11.990
22189W        W85748   6.198  36.447  10.616
22190W        W85749   2.782  20.631   0.275
22191W        W85750  34.508   3.338   2.212
22192W        W85751  32.029  31.921   4.275
22193W        W85752  26.552  31.626   0.763
22194W        W85753  28.973  27.678   3.229
22195W        W85754  31.111  36.390   1.718
22196W        W85755  39.334  32.410   0.436
22197W        W85756  23.492  26.126  11.516
22198W        W85757  26.185  42.836  12.838
22199W        W85758   8.192  18.108   2.676
22200W        W85759  43.981  20.138   0.480
22201W        W85760  40.335  20.255   2.732
22202W        W85761  35.888  43.384   1.760
22203W        W85762  38.331  40.548   3.847
22204W        W85763   1.292  15.715  12.865
22205W        W85764  28.026  33.407  14.497
22206W        W85765   5.691   2.395   1.226
22207W        W85766  38.424  11.310  14.926
22208W        W85767  19.241  33.506   9.939
22209W        W85768  10.668  20.641   4.802
22210W        W85769  10.294  35.359  13.799
22211W        W85770  22.027  28.539   9.931
22212W        W85771  24.132  28.943   4.255
22213W        W85772  28.134  38.005  10.463
22214W        W85773  33.014   0.836  14.998
22215W        W85774   4.922   9.190  11.937
22216W        W85775   9.806   2.418  12.064
22217W        W85776  25.554  41.303   0.845
22218W        W85777  11.635  16.248   4.605
22219W        W85778  35.504  39.450   0.938
22220W        W85779  16.729  26.070   2.845
22221W        W85780  12.306   3.395   3.800
22222W        W85781  22.606  34.043   4.167
22223W        W85782  39.538  41.323   3.163
22224W        W85783  28.525  42.359  13.012
22225W        W85784  43.020  30.918  11.375
22226W        W85785   3.334  29.450   4.656
22227W        W85786   6.197  34.064   3.717
22228W        W85787  36.453  36.521  11.981
22229W        W85788  36.356   6.389   0.313
22230W        W85789  36.480   3.765   2.375
22231W        W85790  18.669  33.555  13.314
22232W        W85791  34.525   1.792  14.961
22233W        W85792  38.558  40.953  10.515
22234W        W85793  29.166  16.677  13.814
22235W        W85794  31.414  38.834  10.467
22236W        W85795  17.798  15.643  11.069
22237W        W85796  32.032   4.328   0.730
22238W        W85797  10.702  33.537  11.069
22239W        W85798  23.019  33.014   3.148
22240W        W85799  12.694  37.925   2.863
22241W        W85800  29.668  12.232   0.278
22242W        W85801  21.131  14.817  10.619
22243W        W85802  11.160  25.589  10.001
22244W        W85803  10.727  41.494   3.284
22245W        W85804  32.091  33.389   2.714
22246W        W85805   4.336  25.201  13.916
22247W        W85806  29.945  26.462  14.395
22248W        W85807  25.614  38.973  14.473
22249W        W85808  44.836  41.929   4.795
22250W        W85809  34.917  34.378   3.230
22251W        W85810  33.949  31.563  12.982
22252W        W85811  12.844   1.265   1.285
22253W        W85812  15.662  35.017  12.442
22254W        W85813  20.054  40.005   0.883
22255W        W85814  15.088  31.993  10.596
22256W        W85815  28.545  15.816   1.410
22257W        W85816  37.849   8.867   2.694
22258W        W85817   8.662  13.797   4.324
22259W        W85818  25.191  39.912   4.211
22260W        W85819  24.519   1.900   0.398
22261W        W85820   4.794  38.883  14.031
22262W        W85821   1.825  44.970   3.745
22263W        W85822  35.079  23.179  13.539
22264W        W85823  17.714  21.250  11.069
22265W        W85824  23.073  28.930  12.401
22266W        W85825  22.104   5.382  13.973
22267W        W85826  18.247   5.843  12.430
22268W        W85827   6.895  21.060  14.898
22269W        W85828  25.109  25.167  12.397
22270W        W85829  14.722  34.863   1.723
22271W        W85830  31.953  14.260  14.374
22272W        W85831  32.505   0.450  10.579
22273W        W85832  35.406  23.231  13.851
22274W        W85833  13.182  32.478  13.442
22275W        W85834  29.093  19.669   4.301
22276W        W85835  10.865  40.501   3.760
22277W        W85836   1.824  32.036   1.402
22278W        W85837  28.075  30.930  10.544
22279W        W85838  36.895  31.110   3.803
22280W        W85839  32.635  26.679   0.423
22281W        W85840  15.282  29.149   1.266
22282W        W85841  43.999  15.741  14.305
22283W        W85842  31.083  11.774   5.288
22284W        W85843  34.057  34.899   4.680
22285W        W85844  29.478  19.204  12.537
22286W        W85845  17.278  42.938   3.868
22287W        W85846  14.162  38.015   4.310
22288W        W85847  14.688  37.864  14.829
22289W        W85848  23.147  28.950  10.093
22290W        W85849  27.593  35.402   3.817
22291W        W85850  37.503   2.270   0.827
22292W        W85851  25.214  13.770  11.901
22293W        W85852  18.719   8.263  12.341
22294W        W85853  39.379  19.046  11.953
22295W        W85854   9.375  15.201  11.555
22296W        W85855   2.734  31.094  10.435
22297W        W85856  13.254  21.201  10.071
22298W        W85857  10.851  23.217   5.253
22299W        W85858   6.762  38.899  12.489
22300W        W85859  16.220  25.008  10.985
22301W        W85860  33.002  37.891  11.114
22302W        W85861  29.433  42.000   1.279
22303W        W85862  20.215   1.880  11.036
22304W        W85863   6.717   1.847  11.564
22305W        W85864  38.560   2.725   2.377
22306W        W85865  30.163  32.543  12.920
22307W        W85866   2.949  18.677  11.403
22308W        W85867  31.139  32.938   0.841
22309W        W85868  27.094   7.835   1.790
22310W        W85869  10.363  11.185  10.978
22311W        W85870  33.457  19.724   2.829
22312W        W85871  33.565   2.841   5.174
22313W        W85872  14.801  27.179  12.007
22314W        W85873  40.498  28.948   4.757
22315W        W85874  24.007  27.021   4.615
22316W        W85875   5.273  26.167  13.394
22317W        W85876  22.690   8.750  10.576
22318W        W85877  26.670   0.781   1.262
22319W        W85878   2.801   6.753   2.197
22320W        W85879  14.686  16.284   1.405
22321W        W85880  38.447  20.647  12.344
22322W        W85881  18.283  38.538   1.338
22323W        W85882  17.159   6.688  10.551
22324W        W85883  30.573  23.624   2.391
22325W        W85884   3.867  42.370  11.565
22326W        W85885   4.758   1.749  10.426
22327W        W85886  41.373   4.932   5.231
22328W        W85887  36.523  20.261  13.030
22329W        W85888   8.729  12.709  12.358
22330W        W85889  38.542  39.498  10.456
22331W        W85890  14.187  10.737   0.367
22332W        W85891  43.937  17.744  14.433
22333W        W85892  29.012   0.422  11.011
22334W        W85893  31.494  27.510  10.965
22335W        W85894  26.622  27.624  11.391
22336W        W85895  35.427  30.568  12.963
22337W        W85896  12.788  22.189   1.704
22338W        W85897   6.842  38.937   2.328
22339W        W85898   8.389  24.608  11.554
22340W        W85899   6.917  28.586   4.250
22341W        W85900   2.271   9.325  12.479
22342W        W85901   3.877   1.428   3.160
22343W        W85902  11.823  37.384   0.785
22344W        W85903  30.574  22.679   2.255
22345W        W85904  26.612  13.690   0.392
22346W        W85905  39.494   9.765  11.548
22347W        W85906  17.641  18.555  13.395
22348W        W85907   0.820  39.940   3.327
22349W        W85908   8.788  14.204   3.264
22350W        W85909  32.910  42.347   2.706
22351W        W85910  43.477  14.326   5.195
22352W        W85911  33.072   2.464  14.941
22353W        W85912  31.555  25.006   0.820
22354W        W85913  26.978  22.510  14.468
22355W        W85914  16.134   2.908   2.292
22356W        W85915  13.674  38.067  14.868
22357W        W85916   7.708   9.746   4.121
22358W        W85917  36.990   9.228  11.004
22359W        W85918   0.872  43.905   2.850
22360W        W85919  40.962  43.513  12.494
22361W        W85920  10.798   9.195  14.427
22362W        W85921   2.885  41.939  12.545
22363W        W85922  33.093  35.373   3.750
22364W        W85923  28.967   7.819   0.479
22365W        W85924  39.953  39.377  10.963
22366W        W85925  21.019  17.677  11.028
22367W        W85926  21.157  15.142   1.252
22368W        W85927  16.124  37.521   3.163
22369W        W85928  13.703  22.051  14.859
22370W        W85929  41.036  44.457  13.512
22371W        W85930   8.814   2.385   1.406
22372W        W85931   5.263  32.396   2.686
22373W        W85932  29.983  30.448  11.528
22374W        W85933   4.310  43.970   2.796
22375W        W85934  44.274   8.329   5.250
22376W        W85935  12.308  30.619   2.825
22377W        W85936   7.676  10.205   5.308
22378W        W85937  36.557  13.211   4.833
22379W        W85938   5.702   0.802   4.779
22380W        W85939  37.999  39.040  14.022
22381W        W85940  19.259  43.433   4.317
22382W        W85941  24.535  26.550   3.795
22383W        W85942  18.776  37.030   4.715
22384W        W85943  20.179  24.532  10.438
22385W        W85944  20.225   2.954  11.497
22386W        W85945  16.753  27.464   1.315
22387W        W85946  23.579  20.528  13.317
22388W        W85947  41.358  11.364   0.943
22389W        W85948  32.573  12.280  11.913
22390W        W85949  26.049   8.864   2.311
22391W        W85950  36.849  35.374   0.248
22392W        W85951  26.095  31.145  12.400
22393W        W85952  35.586  23.240  13.003
22394W        W85953  29.046  28.992  11.889
22395W        W85954  34.981  17.788  13.058
22396W        W85955  13.334  40.936   0.244
22397W        W85956  44.318  32.605  13.878
22398W        W85957  34.047  29.106   4.774
22399W        W85958  22.527  39.022  12.927
22400W        W85959  11.152  34.582   2.394
22401W        W85960   4.836  20.544  10.441
22402W        W85961  30.642  27.135   2.382
22403W        W85962  26.623  28.160  10.987
22404W        W85963  30.024  26.193   3.726
22405W        W85964   3.890  36.891   1.358
22406W        W85965  34.595  31.480   4.199
22407W        W85966  20.676  43.353   2.687
22408W        W85967   2.927  37.086   1.814
22409W        W85968  19.074  30.514  10.606
22410W        W85969  29.147  40.324   3.778
22411W        W85970  30.988  39.431  13.439
22412W        W85971  22.544   9.722  12.972
22413W        W85972  33.391  22.028   3.700
22414W        W85973  19.065  21.206   1.291
22415W        W85974   9.710   8.867  12.946
22416W        W85975  25.470  29.508  12.448
22417W        W85976   9.724  33.453   2.284
22418W        W85977  11.682   8.273  10.966
22419W        W85978  31.637  26.024  12.459
22420W        W85979  23.998  38.376   4.758
22421W        W85980  20.694   9.388   4.765
22422W        W85981  44.305  27.154  12.563
22423W        W85982  31.564  13.232   2.229
22424W        W85983   3.339  34.446   1.850
22425W        W85984  43.274  25.597   3.347
22426W        W85985  42.450  25.637   0.961
22427W        W85986   3.239  31.133   1.358
22428W        W85987   7.881  20.229  14.330
22429W        W85988  11.835  36.387  10.924
22430W        W85989  36.074  15.225   0.838
22431W        W85990  27.949   3.890  11.471
22432W        W85991  23.217   7.269  14.462
22433W        W85992   6.323   4.776  14.415
22434W        W85993  10.726  20.165  10.968
22435W        W85994   6.192   2.904  12.873
22436W        W85995   1.267  23.204  14.992
22437W        W85996  38.951  30.512   4.344
22438W        W85997  28.134  29.456  11.020
22439W        W85998  27.113   1.754   0.400
22440W        W85999  12.849   8.277  12.389
22441W        W86000  33.426   1.430   1.367
22442W        W86001   8.282  40.320  13.308
22443W        W86002   5.278   4.707  13.020
22444W        W86003  29.114  19.577   1.860
22445W        W86004  23.645  27.541  14.930
22446W        W86005   5.927  29.940  13.808
22447W        W86006  36.918  38.057  12.868
22448W        W86007  30.014  29.129  11.020
22449W        W86008  25.538  42.456   3.204
22450W        W86009  33.022   3.240  10.594
22451W        W86010  32.398   3.944   4.782
22452W        W86011  19.554  19.562   0.333
22453W        W86012  20.250  33.476   4.235
22454W        W86013  22.707  35.919  11.000
22455W        W86014   6.291  11.720  10.928
22456W        W86015  29.937  43.805   2.719
22457W        W86016  24.095  33.385  10.018
22458W        W86017  41.304  32.013  13.377
22459W        W86018  29.110  32.104   2.737
22460W        W86019  19.691   5.788  12.492
22461W        W86020  40.520  38.434  14.935
22462W        W86021  11.175   3.241  14.305
22463W        W86022  19.215  34.398   0.267
22464W        W86023  10.739  20.669  11.878
22465W        W86024  34.890  36.879  11.085
22466W        W86025  38.341  35.532  10.979
22467W        W86026  24.606   6.270   2.772
22468W        W86027  38.556  34.447  12.025
22469W        W86028  27.614  43.859  11.416
22470W        W86029  27.637  28.061   0.758
22471W        W86030  30.526  15.788  14.317
22472W        W86031  21.586  27.623  14.463
22473W        W86032  36.949  21.245  11.557
22474W        W86033  43.344  12.184  10.944
22475W        W86034  25.122  23.004   3.850
22476W        W86035  27.481  25.158   5.287
22477W        W86036   0.332  25.595   3.237
22478W        W86037  15.154  20.529  12.862
22479W        W86038   0.429  41.874   4.673
22480W        W86039  19.602   8.359  14.009
22481W        W86040  19.732  39.015  14.446
22482W        W86041  36.583  42.455  13.047
22483W        W86042  22.033  41.451   1.384
22484W        W86043  19.560  41.998  10.405
22485W        W86044  11.789  12.298  13.313
22486W        W86045  19.143  34.412   4.782
22487W        W86046  30.051   7.248  13.879
22488W        W86047  34.522  30.951   0.445
22489W        W86048  28.638  28.647  12.047
22490W        W86049   1.248   9.352  13.377
22491W        W86050   3.448  31.407  12.844
22492W        W86051  21.138   8.870  13.909
22493W        W86052  30.526  15.222  13.001
22494W        W86053  43.853  37.397  14.886
22495W        W86054  13.119  43.275  10.624
22496W        W86055  13.839  37.345  14.783
22497W        W86056  12.259   4.267  12.348
22498W        W86057  31.953  26.956   2.735
22499W        W86058  38.465  25.971   0.848
22500W        W86059  29.105  28.978  14.019
22501W        W86060  10.352  16.713   1.882
22502W        W86061  37.908  25.614  13.936
22503W        W86062  25.202  19.199   2.822
22504W        W86063  20.744  26.005   1.428
22505W        W86064  28.140  36.504   3.378
22506W        W86065  19.065  23.510  10.632
22507W        W86066  40.806  31.559   3.868
22508W        W86067  13.194  28.067  13.545
22509W        W86068  33.622  13.613  10.415
22510W        W86069  16.306  22.244  13.369
22511W        W86070  22.063  21.193  12.992
22512W        W86071  12.762  35.580   9.546
22513W        W86072  20.683   4.443   4.283
22514W        W86073  14.682  43.381   2.778
22515W        W86074  30.110  35.437   4.757
22516W        W86075   7.282  22.706   1.223
22517W        W86076  29.622  40.023  14.910
22518W        W86077  12.185  38.063   4.777
22519W        W86078  15.155  13.639   4.159
22520W        W86079  43.996  33.491   2.357
22521W        W86080   2.461  23.642  12.535
22522W        W86081  28.006  44.300   3.239
22523W        W86082  35.997  34.967  10.928
22524W        W86083  29.650  15.613  12.478
22525W        W86084  14.623   8.279   0.304
22526W        W86085  37.352  22.033   0.385
22527W        W86086  29.590  20.098   0.941
22528W        W86087  37.410  37.021  13.845
22529W        W86088   3.787   0.910   3.350
22530W        W86089   7.384  19.643  11.556
22531W        W86090   5.856  14.103  11.426
22532W        W86091   1.260  12.612   1.284
22533W        W86092  15.593  34.535  10.027
22534W        W86093  25.211  44.326  14.829
22535W        W86094  10.328   5.371   2.893
22536W        W86095   3.721  38.528   1.928
22537W        W86096   7.734  15.129  14.373
22538W        W86097   5.210  39.439   3.787
22539W        W86098  25.112   6.804   1.848
22540W        W86099  14.704  44.768   4.213
22541W        W86100  19.652  25.015  11.905
22542W        W86101   9.211  18.646   2.822
22543W        W86102  30.451  36.480   3.225
22544W        W86103  13.693  37.035   2.192
22545W        W86104  42.814  20.124   5.123
22546W        W86105   9.673  10.723  11.125
22547W        W86106   0.844  13.304   4.121
22548W        W86107  28.458  17.077  13.337
22549W        W86108  14.340  31.107   0.944
22550W        W86109  40.505  25.153   3.735
22551W        W86110  10.310   0.949   1.303
22552W        W86111  28.002  27.481  12.472
22553W        W86112  22.704   6.844   3.857
22554W        W86113   4.218  39.054  14.968
22555W        W86114  29.464   6.373  13.338
22556W        W86115  21.052  40.386  11.987
22557W        W86116  22.626  18.703   3.696
22558W        W86117  30.616  19.544   2.335
22559W        W86118  33.003  43.015  14.325
22560W        W86119  36.485  43.008   3.363
22561W        W86120  23.166   6.372   0.414
22562W        W86121   6.855   7.263   4.233
22563W        W86122  22.206  31.410   3.386
22564W        W86123   8.843  21.682   2.322
22565W        W86124  40.971  40.002   3.828
22566W        W86125  37.834  29.976   4.722
22567W        W86126  35.420   3.281  10.589
22568W        W86127  35.550   9.294   3.816
22569W        W86128  43.391   6.898   4.640
22570W        W86129   2.463   6.768   0.791
22571W        W86130  34.485   9.851   3.208
22572W        W86131  37.083  37.492  12.413
22573W        W86132   8.221  22.209   4.809
22574W        W86133  13.770  42.460   0.274
22575W        W86134  11.764  34.993   4.304
22576W        W86135  41.294  33.069   4.764
22577W        W86136  28.999   8.812   1.746
22578W        W86137   5.347  35.852   4.203
22579W        W86138   1.946  22.725  11.945
22580W        W86139   6.423  15.688  11.064
22581W        W86140  37.468   7.244  14.916
22582W        W86141  43.361  41.433   0.804
22583W        W86142  44.985   6.395  14.811
22584W        W86143  16.224  12.155   1.304
22585W        W86144  43.362  26.061   3.734
22586W        W86145  42.927  41.956  10.604
22587W        W86146  13.789  33.122   2.771
22588W        W86147  32.026   7.349  12.045
22589W        W86148  26.138  11.743   5.582
22590W        W86149  15.678  31.059   0.932
22591W        W86150  29.037   7.715  13.993
22592W        W86151  15.125  19.174   3.758
22593W        W86152  32.550  37.517  14.281
22594W        W86153  24.667  43.366  14.451
22595W        W86154  12.236  41.486   4.209
22596W        W86155  35.858  28.145  13.419
22597W        W86156  37.353  11.631  14.025
22598W        W86157  26.047  38.364   1.219
22599W        W86158  43.800  38.389   2.787
22600W        W86159  41.341  32.460   1.261
22601W        W86160  40.503  26.187  14.410
22602W        W86161  35.404  33.563   4.227
22603W        W86162  35.586  11.685  12.954
22604W        W86163   8.825  43.015  13.904
22605W        W86164  26.583  13.725  14.912
22606W        W86165  21.620  30.496  13.817
22607W        W86166  29.517  35.435   0.367
22608W        W86167  11.174  39.417  11.483
22609W        W86168  36.509  20.135   0.295
22610W        W86169  17.105   2.310  12.572
22611W        W86170   9.223  11.359   2.821
22612W        W86171  11.337   1.790  11.070
22613W        W86172  43.318  26.178  10.962
22614W        W86173  12.843  25.570   0.843
22615W        W86174  29.492  15.759  14.868
22616W        W86175  11.706  32.534  13.425
22617W        W86176  26.582  28.638  13.015
22618W        W86177   0.491  40.425   0.938
22619W        W86178  42.795   8.856   0.332
22620W        W86179  36.845   8.317  12.881
22621W        W86180  34.372   6.401  11.010
22622W        W86181  41.323   9.347  13.968
22623W        W86182  30.514  20.249  11.488
22624W        W86183  35.366  20.121   2.719
22625W        W86184  16.577  10.840  12.040
22626W        W86185  32.575  26.956  12.989
22627W        W86186   4.787  18.165   1.785
22628W        W86187  13.268   5.403  12.370
22629W        W86188  17.304  38.326   2.224
22630W        W86189   6.874  38.926   0.753
22631W        W86190  17.724  25.989  12.449
22632W        W86191  35.034  18.164  14.398
22633W        W86192  12.278   2.746  12.861
22634W        W86193  20.248  21.145   0.374
22635W        W86194  18.107  42.015  14.792
22636W        W86195  22.238  42.928   4.811
22637W        W86196  33.516  14.297   4.734
22638W        W86197   7.752  37.891  11.412
22639W        W86198  15.237  23.536   0.765
22640W        W86199  37.069  37.075  10.564
22641W        W86200  19.080  21.667  14.853
22642W        W86201  41.407  44.298  10.940
22643W        W86202  29.510  18.187   3.369
22644W        W86203  12.205  36.856   3.846
22645W        W86204  11.178  24.229   0.384
22646W        W86205   6.230  39.007   3.778
22647W        W86206  36.576  24.103  12.429
22648W        W86207   7.683  43.806   0.940
22649W        W86208  44.374  27.533  11.459
22650W        W86209  33.506  33.057  10.017
22651W        W86210   7.668   4.890   3.848
22652W        W86211  10.326  22.066   1.750
22653W        W86212  31.535  40.992   4.822
22654W        W86213  27.041  16.083  14.326
22655W        W86214  28.998   6.751  12.463
22656W        W86215  26.644  10.253   5.262
22657W        W86216  13.685  21.511   0.426
22658W        W86217   0.357  24.994   0.475
22659W        W86218  39.000   3.275   2.798
22660W        W86219  25.566  20.046   0.356
22661W        W86220   2.362   7.769  14.029
22662W        W86221  37.359  34.995   0.889
22663W        W86222  34.089  44.331   4.245
22664W        W86223   4.767   9.842   0.287
22665W        W86224   2.883   8.303   1.789
22666W        W86225   4.902  12.134  11.539
22667W        W86226   8.898  42.342  12.909
22668W        W86227   1.813  21.628   1.744
22669W        W86228  40.818  34.576  14.460
22670W        W86229  32.587   1.735  11.448
22671W        W86230  43.780  30.428   4.821
22672W        W86231   0.982  13.195   3.248
22673W        W86232  14.241  23.729   3.159
22674W        W86233  18.605  42.465   2.404
22675W        W86234  42.797  35.588   0.915
22676W        W86235  20.118  32.986   3.274
22677W        W86236  20.238  28.464   2.412
22678W        W86237   6.374  14.179   4.292
22679W        W86238   2.951   7.729  10.526
22680W        W86239  22.578   1.764  13.956
22681W        W86240  41.879  24.027  14.860
22682W        W86241  40.329  27.183  13.877
22683W        W86242  40.388  32.472   1.221
22684W        W86243  34.441  37.990  11.014
22685W        W86244   7.376  27.164   3.793
22686W        W86245  28.569  33.961   2.230
22687W        W86246  35.093  15.701   2.417
22688W        W86247  29.090  44.361  13.859
22689W        W86248  44.415   3.912   2.301
22690W        W86249  25.970  16.752   4.671
22691W        W86250  38.374  11.236  10.990
22692W        W86251  14.133  25.140  13.858
22693W        W86252  26.089  34.864   2.865
22694W        W86253   9.160  21.643  14.912
22695W        W86254  15.307  36.996   1.399
22696W        W86255  35.583  33.600   5.167
22697W        W86256  41.865  18.659   5.087
22698W        W86257   0.412  11.295  14.877
22699W        W86258  13.762   2.883   3.826
22700W        W86259  39.400  14.184   4.738
22701W        W86260  17.769  32.113   0.465
22702W        W86261  12.150  42.013  12.000
22703W        W86262  40.017  33.594  13.524
22704W        W86263   9.730  40.848   4.660
22705W        W86264  34.398  34.064  11.606
22706W        W86265  18.552  28.626  12.516
22707W        W86266  32.928  24.555  11.090
22708W        W86267  37.083  27.450   2.808
22709W        W86268  24.543  11.224   2.181
22710W        W86269  42.877  41.387   3.326
22711W        W86270  21.592  20.537   1.426
22712W        W86271   5.800   8.720  12.838
22713W        W86272  26.626   1.868  12.348
22714W        W86273  32.572  18.185   0.469
22715W        W86274  15.636  35.372  13.402
22716W        W86275  41.323  21.746   0.341
22717W        W86276  12.658  25.093  10.474
22718W        W86277  41.441  12.181   1.917
22719W        W86278   9.359  43.378  12.907
22720W        W86279   9.845  10.322  13.981
22721W        W86280   9.337   5.248  14.823
22722W        W86281  44.486  30.990  14.355
22723W        W86282  18.207   3.305  11.573
22724W        W86283   6.844   2.427  11.960
22725W        W86284  31.598   5.298   3.818
22726W        W86285  25.066  17.061   1.810
22727W        W86286  22.235  21.216   4.223
22728W        W86287  21.228  24.676  12.943
22729W        W86288  35.495  20.085  10.975
22730W        W86289  18.661  40.012   0.875
22731W        W86290   2.739  12.125   0.786
22732W        W86291  32.400  22.582   2.261
22733W        W86292  21.054   7.318   1.758
22734W        W86293  17.222  16.607  11.577
22735W        W86294   2.337  19.193   0.252
22736W        W86295  10.158  19.250  11.017
22737W        W86296  11.152   8.182  10.022
22738W        W86297  44.953  10.288  14.955
22739W        W86298  36.868  19.614   0.344
22740W        W86299  10.304  30.121  10.918
22741W        W86300  19.712  24.596   0.413
22742W        W86301  11.729  42.298  12.938
22743W        W86302   6.766  18.107   3.338
22744W        W86303  22.090  44.997  13.061
22745W        W86304  36.383  27.550  11.080
22746W        W86305  11.265  14.794  11.873
22747W        W86306   5.242   4.334  11.501
22748W        W86307  15.615  25.550  10.436
22749W        W86308  34.907  15.642  14.803
22750W        W86309   0.408   8.270   3.687
22751W        W86310   2.755  37.912   3.827
22752W        W86311   3.400   1.818  14.463
22753W        W86312  35.949   4.745   5.220
22754W        W86313  32.132  11.270  13.802
22755W        W86314   9.841  41.876   1.810
22756W        W86315  27.059  39.008  12.422
22757W        W86316  23.732  32.555  12.518
22758W        W86317  40.991  21.659   1.254
22759W        W86318  28.660   8.188   2.726
22760W        W86319   1.481  42.356   3.312
22761W        W86320  17.237  35.365   1.905
22762W        W86321  17.092  28.077   2.667
22763W        W86322   9.296  44.380   1.355
22764W        W86323  44.964   6.183  10.918
22765W        W86324  27.946  34.116  10.642
22766W        W86325  19.539   3.321  12.061
22767W        W86326   8.675  16.146   2.186
22768W        W86327  43.407  28.462  14.461
22769W        W86328  24.485  14.651   3.376
22770W        W86329  12.260  35.433   1.823
22771W        W86330  25.973  18.582   3.224
22772W        W86331  32.050   9.239   4.172
22773W        W86332   5.915  18.224   2.276
22774W        W86333   3.288  15.120  10.431
22775W        W86334  19.597  30.014   2.198
22776W        W86335  12.670  20.264  13.919
22777W        W86336  36.098  38.495  13.466
22778W        W86337  18.741   2.376  13.798
22779W        W86338  36.946  38.414   1.765
22780W        W86339  41.853  42.382   2.342
22781W        W86340  31.640   5.424  13.539
22782W        W86341  33.502  26.979   1.361
22783W        W86342   5.826  13.106   3.307
22784W        W86343   5.772  10.316   0.245
22785W        W86344  13.728  19.092   1.277
22786W        W86345  18.215  35.556  14.362
22787W        W86346  21.180  19.142  11.538
22788W        W86347  34.989  33.937   1.279
22789W        W86348  17.705  19.568  10.889
22790W        W86349  42.913  26.036  14.768
22791W        W86350   2.746   2.279   0.924
22792W        W86351  39.881  37.993  11.873
22793W        W86352   5.295   1.317   1.332
22794W        W86353  11.783  13.241   9.530
22795W        W86354  34.413   7.172  11.460
22796W        W86355  25.592  43.853   0.883
22797W        W86356  22.248   4.341  14.399
22798W        W86357  21.019  26.520  14.933
22799W        W86358  38.847  26.589   4.791
22800W        W86359  34.920  32.527  14.293
22801W        W86360   5.318  41.529  11.898
22802W        W86361  36.857  41.882   3.323
22803W        W86362  42.002  15.301   3.361
22804W        W86363  21.030  17.221  14.815
22805W        W86364  25.205   0.820   3.657
22806W        W86365   0.438   9.392  14.469
22807W        W86366  26.139  39.017  10.958
22808W        W86367  44.795  11.316   3.701
22809W        W86368  36.889  10.704   3.816
22810W        W86369  24.015  38.504  11.543
22811W        W86370  42.890  11.827   3.846
22812W        W86371   8.799   3.871  11.938
22813W        W86372  34.087  41.336   1.450
22814W        W86373   0.355  17.614   3.253
22815W        W86374   1.828  19.772   0.843
22816W        W86375   5.409  20.645   1.319
22817W        W86376  41.338  33.392   2.888
22818W        W86377  29.583  19.711  12.095
22819W        W86378  17.214  40.007  10.531
22820W        W86379  21.551  31.931  14.396
22821W        W86380  29.434  26.015  10.950
22822W        W86381  30.963  27.599  14.280
22823W        W86382  34.971  14.761  12.532
22824W        W86383  44.879   7.278  11.076
22825W        W86384  18.688  20.266  14.895
22826W        W86385  16.805  23.232   3.689
22827W        W86386  13.729  17.201   4.655
22828W        W86387  17.594   2.873   2.673
22829W        W86388  20.258  18.127   5.189
22830W        W86389  10.860  42.489   2.725
22831W        W86390   9.350  25.616   2.692
22832W        W86391  23.190  12.719  13.395
22833W        W86392  43.972   3.907   3.719
22834W        W86393   5.311  39.511   0.850
22835W        W86394  40.835   7.246   4.332
22836W        W86395  29.592  15.213   1.877
22837W        W86396  37.973  31.019  14.494
22838W        W86397  18.098  17.064   4.641
22839W        W86398  25.090   9.648   2.184
22840W        W86399  24.615  40.050  14.388
22841W        W86400  44.345  12.668   4.654
22842W        W86401  33.885  29.632   3.195
22843W        W86402  40.984  28.489   4.156
22844W        W86403   9.372  38.536  14.320
22845W        W86404  15.319  11.861   2.847
22846W        W86405  23.717  10.873  11.896
22847W        W86406   6.757  33.523   1.330
22848W        W86407   2.742  38.429   1.896
22849W        W86408  27.606  32.077  13.361
22850W        W86409  43.815  12.849   3.837
22851W        W86410  41.896  27.951  14.886
22852W        W86411   2.343  41.293  11.083
22853W        W86412   2.373  25.640  13.040
22854W        W86413  40.404  10.249  11.046
22855W        W86414   8.785   8.862  12.504
22856W        W86415  32.008  18.066   0.326
22857W        W86416  34.102   9.305   3.799
22858W        W86417   2.892  19.668  13.852
22859W        W86418  10.249  17.125   2.717
22860W        W86419  27.114  43.314  11.052
22861W        W86420  37.582  11.230  12.382
22862W        W86421   1.362   6.254  13.064
22863W        W86422  38.981  31.559   0.832
22864W        W86423  13.754  32.452   3.178
22865W        W86424  32.609  23.134   3.190
22866W        W86425  38.834  34.994   0.762
22867W        W86426   2.787  19.534   0.867
22868W        W86427  33.488   4.249   1.708
22869W        W86428  15.713  43.367   5.083
22870W        W86429  23.997  22.163   0.349
22871W        W86430  20.118  25.525  13.978
22872W        W86431   1.823  23.016   2.878
22873W        W86432  22.216  12.811   3.835
22874W        W86433  36.454  15.651  11.538
22875W        W86434   7.875   4.397   4.621
22876W        W86435  41.365  13.827  11.527
22877W        W86436  19.225  22.201  13.326
22878W        W86437  28.661  29.129   0.471
22879W        W86438  20.103  29.011   9.510
22880W        W86439  25.080  17.674   1.243
22881W        W86440  44.281  30.485   2.741
22882W        W86441  42.990  30.095  13.850
22883W        W86442  19.619  30.557  12.039
22884W        W86443  28.617   4.770  13.914
22885W        W86444  12.659  32.411   1.855
22886W        W86445  34.096   6.898  10.931
22887W        W86446  24.612   0.938   2.377
22888W        W86447  32.140  12.622   3.169
22889W        W86448   9.293  40.523  12.569
22890W        W86449   3.221  27.582  11.604
22891W        W86450  27.509  25.686   2.314
22892W        W86451  22.117   2.779  11.921
22893W        W86452  17.719  17.578   0.926
22894W        W86453  35.862   3.780  13.420
22895W        W86454   8.221  39.840   3.180
22896W        W86455   7.197   3.814  14.898
22897W        W86456   5.269  15.772   2.306
22898W        W86457  31.066  39.461   2.236
22899W        W86458   3.935  30.026  12.400
22900W        W86459   9.830  17.738  10.492
22901W        W86460  11.194  29.941   0.845
22902W        W86461  41.486  23.526  14.007
22903W        W86462  23.560   4.922   1.919
22904W        W86463   1.744   8.171  12.441
22905W        W86464  26.461  34.864  13.021
22906W        W86465  15.637  33.022  10.980
22907W        W86466  10.230  32.605   1.210
22908W        W86467  36.382  11.820   5.295
22909W        W86468  27.966   0.768   1.331
22910W        W86469   4.334  35.105   2.325
22911W        W86470  24.693  43.963  10.890
22912W        W86471  38.358  43.369   2.902
22913W        W86472  19.637  39.898  14.864
22914W        W86473  43.447  21.594   0.954
22915W        W86474  24.006  19.544  14.875
22916W        W86475   1.883  34.051  11.449
22917W        W86476   7.269  41.477   0.928
22918W        W86477   9.173  40.400  11.054
22919W        W86478  12.279  13.146  13.412
22920W        W86479  24.148  12.203  11.535
22921W        W86480  17.305  44.782  14.978
22922W        W86481  26.553  11.788   5.096
22923W        W86482   3.214   7.682   3.703
22924W        W86483  31.929  29.604  11.982
22925W        W86484  25.173   0.416  11.108
22926W        W86485  26.606  30.052  12.994
22927W        W86486  40.982  31.417   1.718
22928W        W86487  11.326  14.630   4.740
22929W        W86488  39.875  20.736   3.224
22930W        W86489  27.549   5.301  12.378
22931W        W86490  13.261  35.897   1.415
22932W        W86491  38.442  20.575  12.918
22933W        W86492  21.579  36.926   4.783
22934W        W86493  43.796  30.493  13.329
22935W        W86494  22.724  23.694  10.466
22936W        W86495  26.095  11.347   3.201
22937W        W86496  34.541  43.769  10.535
22938W        W86497   0.475  23.231   4.806
22939W        W86498  37.413  24.154   4.199
22940W        W86499  25.051  33.896  10.975
22941W        W86500  17.141  22.238  13.043
22942W        W86501  16.698  24.646   3.825
22943W        W86502   0.804   9.341  12.380
22944W        W86503  34.048  18.708   2.842
22945W        W86504  29.619  44.435   4.190
22946W        W86505   3.277  33.590   0.399
22947W        W86506   9.836  28.070   3.367
22948W        W86507  29.628  42.435  12.074
22949W        W86508  34.587  32.409   3.198
22950W        W86509   3.368  41.826  11.506
22951W        W86510   4.939  15.215   4.156
22952W        W86511  12.792  15.100   2.709
22953W        W86512  26.623   2.901   0.307
22954W        W86513  20.141   9.174   3.361
22955W        W86514  25.653  13.152   2.816
22956W        W86515  36.507  15.649  12.958
22957W        W86516  28.486   1.260  14.030
22958W        W86517  25.537   8.297   3.845
22959W        W86518  39.346  19.612   4.208
22960W        W86519   4.224  32.536  13.386
22961W        W86520  14.169  22.605   4.167
22962W        W86521  20.204  12.634  11.050
22963W        W86522  38.571   8.889   2.399
22964W        W86523   8.310  36.928  14.333
22965W        W86524   0.272   4.440  14.905
22966W        W86525  32.539  38.064  12.399
22967W        W86526  12.356  43.348  13.485
22968W        W86527  14.209   4.872   2.260
22969W        W86528  16.613  14.155   2.813
22970W        W86529   1.302   8.655  10.483
22971W        W86530  18.678  40.534  11.117
22972W        W86531  20.734  42.020  11.914
22973W        W86532  22.995  26.500  14.025
22974W        W86533  11.157  33.882   0.470
22975W        W86534  34.595  43.004   4.313
22976W        W86535  22.142   5.273  11.522
22977W        W86536  22.114  13.290  10.955
22978W        W86537  11.702   8.358  14.848
22979W        W86538  30.500  37.361  13.989
22980W        W86539  27.188  24.104  11.399
22981W        W86540  40.832   6.786   4.809
22982W        W86541  11.166  36.034   0.732
22983W        W86542  38.972   9.264   3.863
22984W        W86543   7.218  16.597   2.819
22985W        W86544  18.116  43.328  13.817
22986W        W86545   6.915  17.629   0.468
22987W        W86546  27.561  12.298  13.453
22988W        W86547   8.760  41.484  11.894
22989W        W86548  43.880  42.799   3.821
22990W        W86549   9.763  42.786  13.930
22991W        W86550   1.291  25.971  12.027
22992W        W86551  44.816  34.409   0.396
22993W        W86552  32.391  18.714  12.950
22994W        W86553   6.317  24.680  13.870
22995W        W86554  23.168  19.082  13.941
22996W        W86555   3.779  11.249  10.626
22997W        W86556   6.726  29.009   2.227
22998W        W86557  40.472  44.321   2.744
22999W        W86558  44.379  17.066   3.302
23000W        W86559   2.289   1.264  13.456
23001W        W86560   6.911  44.375  12.993
23002W        W86561   7.685   8.743  11.001
23003W        W86562  36.017  34.510  10.530
23004W        W86563  12.748  15.164   4.249
23005W        W86564  43.951  32.508  12.404
23006W        W86565  43.292  29.963  11.454
23007W        W86566  25.666  23.092   5.220
23008W        W86567  38.990  25.628  11.039
23009W        W86568   7.268  31.540  12.501
23010W        W86569  11.710  37.449   2.709
23011W        W86570  35.938  34.394   4.777
23012W        W86571  19.731   7.307  13.060
23013W        W86572   4.903  41.326  11.069
23014W        W86573   8.882  35.860  11.058
23015W        W86574   0.755  23.085  14.438
23016W        W86575  16.282  44.310  14.333
23017W        W86576  26.591  33.901  14.966
23018W        W86577  36.356  34.921  13.875
23019W        W86578  10.244   4.401   4.337
23020W        W86579  18.617  16.592   2.348
23021W        W86580   6.861   1.856   1.895
23022W        W86581   6.678  20.072   2.902
23023W        W86582  42.979  22.694  11.114
23024W        W86583  42.325  36.976   0.456
23025W        W86584   0.294  12.266  11.902
23026W        W86585  43.436  21.547  10.924
23027W        W86586  16.207  12.834   2.697
23028W        W86587  15.798  39.872  11.520
23029W        W86588  18.590  37.920  11.897
23030W        W86589  42.840   7.382  11.091
23031W        W86590   6.828  31.904  13.415
23032W        W86591  28.953   4.226  12.350
23033W        W86592  27.058  16.757   2.728
23034W        W86593  24.491  38.370  12.909
23035W        W86594   9.742  21.228   2.726
23036W        W86595   7.721  21.723   3.280
23037W        W86596  20.166   3.227   0.860
23038W        W86597  10.640   3.317  13.980
23039W        W86598  32.004   0.250  12.498
23040W        W86599  23.206  12.308   1.373
23041W        W86600  15.697  39.030  12.398
23042W        W86601  29.019  13.609   2.835
23043W        W86602  34.511  35.947   0.409
23044W        W86603   0.379   0.756  12.035
23045W        W86604  28.950  41.489  13.047
23046W        W86605   6.712  25.976   0.890
23047W        W86606  29.659  30.578  11.456
23048W        W86607  15.736   8.861   1.833
23049W        W86608  27.046  33.612  13.960
23050W        W86609  19.210  34.066  13.471
23051W        W86610  11.831  10.813   4.213
23052W        W86611  28.657  39.924  14.403
23053W        W86612   2.795  33.491   2.768
23054W        W86613  24.010   5.722   0.397
23055W        W86614  41.959  36.349   1.857
23056W        W86615  34.409  41.443  14.802
23057W        W86616  15.164  26.493  14.816
23058W        W86617  21.057  43.839  10.438
23059W        W86618  25.592  42.846  11.375
23060W        W86619  24.530  39.879   4.164
23061W        W86620   8.267  23.703  14.294
23062W        W86621  39.950  10.871   4.333
23063W        W86622  37.047  22.197  12.525
23064W        W86623   5.415  19.085   2.374
23065W        W86624  42.992  41.347  11.101
23066W        W86625  40.962  35.361  11.123
23067W        W86626  33.984  33.107  10.573
23068W        W86627  23.732  41.433  14.784
23069W        W86628  19.268  26.151   4.707
23070W        W86629  20.745  24.093   1.750
23071W        W86630  42.407  43.471  14.795
23072W        W86631  18.099  13.693  14.947
23073W        W86632   2.749  12.638   4.266
23074W        W86633   5.854  26.540  12.828
23075W        W86634  33.546   1.237  11.549
23076W        W86635  32.117  39.980  14.983
23077W        W86636  34.447  23.719  10.419
23078W        W86637  10.216  40.967  14.025
23079W        W86638  43.952  24.021  10.542
23080W        W86639   0.374  34.899   0.773
23081W        W86640  42.022   3.423  13.427
23082W        W86641  25.981  44.440  10.579
23083W        W86642   9.710  16.185  11.881
23084W        W86643  19.224  28.642   2.411
23085W        W86644  22.600  33.473  11.969
23086W        W86645  38.025   9.766  11.608
23087W        W86646   9.887  44.498  12.540
23088W        W86647  19.623  36.546   2.291
23089W        W86648   4.877  12.271  14.888
23090W        W86649  39.014  42.974  11.035
23091W        W86650  40.830  20.195   4.621
23092W        W86651  19.675  12.206   2.219
23093W        W86652  12.237  41.797   4.602
23094W        W86653  44.285  15.174   0.443
23095W        W86654  13.709  28.473  13.985
23096W        W86655  38.888  13.700  12.524
23097W        W86656  30.915  38.018  11.073
23098W        W86657  40.845  31.050   1.263
23099W        W86658   6.727  15.155  14.765
23100W        W86659  44.293  29.026  12.931
23101W        W86660  38.945  16.128  14.003
23102W        W86661  31.500  44.289   2.800
23103W        W86662  23.552  40.466  10.891
23104W        W86663  36.502  31.415   1.236
23105W        W86664   7.762  40.494   2.247
23106W        W86665   8.733  26.555  12.884
23107W        W86666  36.405  19.601   4.613
23108W        W86667  13.660  35.435  11.510
23109W        W86668  44.777  20.220  13.365
23110W        W86669  28.976  31.529  11.512
23111W        W86670   1.371  31.917   0.810
23112W        W86671  12.666  17.802   2.189
23113W        W86672   9.156   4.769   0.868
23114W        W86673  12.312  36.967  11.502
23115W        W86674   9.756  34.450  12.541
23116W        W86675  38.052  28.564  12.958
23117W        W86676   4.931   9.260  10.501
23118W        W86677  41.997   6.912  11.430
23119W        W86678   3.231  25.563   0.885
23120W        W86679  13.210   4.348  14.827
23121W        W86680  26.981  21.242   3.374
23122W        W86681   4.433  34.523  10.563
23123W        W86682   9.803  39.441   2.813
23124W        W86683  23.195  36.505   0.733
23125W        W86684  20.044  34.998  14.448
23126W        W86685  37.074  31.971   3.328
23127W        W86686  20.238  39.380  10.587
23128W        W86687  44.849  25.191  11.117
23129W        W86688  10.751  11.662   4.624
23130W        W86689   1.866  27.533   4.153
23131W        W86690  38.059  38.860   2.391
23132W        W86691  34.868  18.640  11.990
23133W        W86692  15.102  43.312   4.702
23134W        W86693  19.172   1.838  15.000
23135W        W86694   0.867  18.554   0.910
23136W        W86695  41.348  40.854  12.413
23137W        W86696  19.764  24.093   3.694
23138W        W86697  41.506  18.260   4.668
23139W        W86698  31.966  42.944  14.952
23140W        W86699  24.550   4.876  10.453
23141W        W86700  26.171   0.881   2.274
23142W        W86701  33.968  31.631  13.817
23143W        W86702  14.609   6.812   0.363
23144W        W86703  44.839  24.711  10.553
23145W        W86704  21.694   9.799  11.077
23146W        W86705  23.729  35.375  11.099
23147W        W86706  35.895  35.920  12.072
23148W        W86707  29.509  28.174  13.339
23149W        W86708  38.518  42.878   1.239
23150W        W86709  17.752  16.125  10.448
23151W        W86710  20.107  19.046  11.554
23152W        W86711  27.093  27.979  11.872
23153W        W86712  39.318  23.990  10.997
23154W        W86713  35.936  29.647  10.457
23155W        W86714   6.862   8.202  12.949
23156W        W86715  30.651  24.546   2.857
23157W        W86716  29.141   0.822  12.072
23158W        W86717  23.206  31.090   0.395
23159W        W86718  37.388   3.902   4.250
23160W        W86719  17.588  32.503   4.209
23161W        W86720  25.995  31.620   2.759
23162W        W86721   9.371  24.590   1.926
23163W        W86722  23.578  16.203   2.736
23164W        W86723  40.023   7.730  11.593
23165W        W86724  39.065  12.311   1.382
23166W        W86725  32.057  17.135   0.916
23167W        W86726  41.794  28.165   0.280
23168W        W86727  12.199  14.187  11.442
23169W        W86728  12.700  25.173   4.793
23170W        W86729  23.680  15.781  10.556
23171W        W86730  37.901  29.026   4.180
23172W        W86731   4.710  33.068   3.146
23173W        W86732  40.909  42.787   4.798
23174W        W86733  14.794  32.972   4.733
23175W        W86734  14.257  41.916   2.743
23176W        W86735  14.334  35.016  14.306
23177W        W86736  36.406  35.535   0.298
23178W        W86737   1.736  29.919  10.985
23179W        W86738   2.763  22.113   3.276
23180W        W86739  44.775  21.679   0.447
23181W        W86740  24.631   1.473  12.525
23182W        W86741  37.455  34.049   4.212
23183W        W86742  41.849  12.634   3.285
23184W        W86743   7.259  18.231  10.890
23185W        W86744  15.665  15.287   1.735
23186W        W86745  30.468  41.320  10.643
23187W        W86746  10.851  11.784   0.423
23188W        W86747   0.389  41.360  11.097
23189W        W86748  20.536  18.122   2.369
23190W        W86749   7.204   2.431  10.889
23191W        W86750  22.082   6.713  10.413
23192W        W86751  25.212  35.492  14.307
23193W        W86752  33.944  42.834   4.719
23194W        W86753  12.179   8.892   4.267
23195W        W86754  35.968  30.635   3.350
23196W        W86755  18.727  15.157  12.001
23197W        W86756  26.180   9.295   4.158
23198W        W86757  16.176  16.628   3.755
23199W        W86758  34.438   5.330  10.626
23200W        W86759  31.478  38.351  10.993
23201W        W86760  31.534   8.291  14.279
23202W        W86761  43.941   9.152  14.398
23203W        W86762   1.771   8.373   1.822
23204W        W86763  30.605  10.854   1.380
23205W        W86764  25.165  17.206  13.393
23206W        W86765  13.751  11.360   1.716
23207W        W86766  34.983  31.959  14.385
23208W        W86767   2.812  23.601   2.830
23209W        W86768  38.886  40.807  11.037
23210W        W86769  22.218  22.233   0.847
23211W        W86770  23.175   3.905  10.427
23212W        W86771   9.293  34.435   1.870
23213W        W86772   5.766   8.162  11.406
23214W        W86773  28.530  33.390   1.919
23215W        W86774  38.444  35.458  10.511
23216W        W86775  10.307  17.683   2.803
23217W        W86776  36.986  24.142  12.956
23218W        W86777  26.205  32.002  11.598
23219W        W86778  38.454  19.613   0.949
23220W        W86779  26.142   2.928  14.011
23221W        W86780  18.732  44.838   1.276
23222W        W86781  24.569  38.433  12.017
23223W        W86782  43.310   4.392   1.271
23224W        W86783  30.507  28.534   4.687
23225W        W86784  36.495  17.581  13.880
23226W        W86785  35.036  43.302   2.387
23227W        W86786  44.398  33.915  10.477
23228W        W86787  16.293   4.721  14.434
23229W        W86788  12.283   1.280   0.257
23230W        W86789  41.320  40.420   1.431
23231W        W86790  25.696   6.860  12.049
23232W        W86791  38.448   3.789   2.772
23233W        W86792  14.312  33.988  12.874
23234W        W86793  24.642  20.074  11.016
23235W        W86794   4.815  11.756   4.227
23236W        W86795  14.628  40.314   4.682
23237W        W86796  12.626  39.527   3.720
23238W        W86797  26.608   2.452  10.556
23239W        W86798   1.339   8.226  14.859
23240W        W86799   2.961  13.795  12.883
23241W        W86800  22.603  41.884   9.920
23242W        W86801   8.769  37.513  10.011
23243W        W86802  36.083  18.197  11.940
23244W        W86803  26.527  20.053   4.602
23245W        W86804  15.243  41.837  10.536
23246W        W86805  23.015  20.595  13.436
23247W        W86806  36.417   6.814  12.041
23248W        W86807  34.987   1.960  12.870
23249W        W86808  19.217   9.257   4.138
23250W        W86809  23.111  39.479  12.948
23251W        W86810  34.907  12.209   2.302
23252W        W86811  24.596  27.599   2.221
23253W        W86812   5.336  32.467  10.917
23254W        W86813   5.222  23.684   0.278
23255W        W86814   1.321  17.157  11.916
23256W        W86815  33.381   0.353   1.445
23257W        W86816   3.806  34.589   3.372
23258W        W86817  41.028  30.017  13.792
23259W        W86818  35.931  28.106  10.429
23260W        W86819  25.133  29.978   1.814
23261W        W86820   7.277  24.546  12.944
23262W        W86821  18.721  31.411   4.243
23263W        W86822  21.090  24.720   2.860
23264W        W86823  41.510  26.986   0.875
23265W        W86824  38.936  16.210   2.879
23266W        W86825  27.110  17.175   2.301
23267W        W86826  15.313  30.563  10.488
23268W        W86827  11.145  33.000  13.452
23269W        W86828  12.625  12.117   2.349
23270W        W86829   6.216  11.128  12.389
23271W        W86830   0.368  17.712  13.997
23272W        W86831  13.201   1.781   4.806
23273W        W86832  28.065  11.129   2.334
23274W        W86833   3.886  17.249  10.583
23275W        W86834  29.007  38.822   4.835
23276W        W86835  17.664   8.709  13.896
23277W        W86836  38.421   2.255   1.929
23278W        W86837  23.499   0.982   3.846
23279W        W86838  44.762   8.894  14.451
23280W        W86839  35.587  43.349  14.930
23281W        W86840   0.417  24.148   0.476
23282W        W86841  38.917  42.386  10.506
23283W        W86842  11.828  12.765   4.125
23284W        W86843  16.313  39.980   1.328
23285W        W86844  43.450   8.844   4.725
23286W        W86845  34.906   6.255  13.845
23287W        W86846  37.566  30.163  14.883
23288W        W86847  13.344  36.005  14.788
23289W        W86848   3.438  14.305   2.822
23290W        W86849  43.968  31.642  11.372
23291W        W86850  35.869  37.018   3.800
23292W        W86851   6.722  30.977  11.082
23293W        W86852  31.108  26.580  11.106
23294W        W86853  34.582  43.421  12.471
23295W        W86854  36.379   9.314   1.871
23296W        W86855  26.116  35.598  10.483
23297W        W86856  27.612  43.472   1.749
23298W        W86857  17.177  40.358  13.949
23299W        W86858  27.940  20.178  13.398
23300W        W86859   5.314   1.267   1.847
23301W        W86860  23.643  25.541  14.955
23302W        W86861   4.267  22.505  10.557
23303W        W86862   3.731  40.363  13.041
23304W        W86863  33.908  15.160   0.777
23305W        W86864  39.809  31.931   3.210
23306W        W86865  17.208  13.181   0.802
23307W        W86866  38.356   9.708   2.694
23308W        W86867  25.150  30.511   1.856
23309W        W86868   1.785  22.742  13.489
23310W        W86869   4.439  30.623  10.441
23311W        W86870   5.798  20.532   1.731
23312W        W86871  43.482   6.233  12.037
23313W        W86872  22.594  11.207   1.735
23314W        W86873  26.590  15.794   2.182
23315W        W86874  16.148  21.531   3.785
23316W        W86875   3.284  37.512  11.990
23317W        W86876  19.710  36.538  12.934
23318W        W86877  20.250  29.476  14.495
23319W        W86878  19.236   8.406   3.207
23320W        W86879   3.810  15.788  13.849
23321W        W86880  38.527  13.291   1.225
23322W        W86881  28.932  38.351   2.689
23323W        W86882  36.851   7.828  12.388
23324W        W86883  43.839   4.868  13.992
23325W        W86884   9.301  41.031   4.323
23326W        W86885  13.834  41.947   1.813
23327W        W86886  22.077  12.665   1.211
23328W        W86887  23.495  19.614   2.860
23329W        W86888  21.602   7.281  11.392
23330W        W86889  23.172  43.330  13.390
23331W        W86890  19.761  36.994   4.629
23332W        W86891  29.632  40.518  14.447
23333W        W86892  22.537  17.207   2.418
23334W        W86893  34.598  44.368  12.057
23335W        W86894  44.822  38.853   1.303
23336W        W86895  33.894  44.840   3.314
23337W        W86896  40.441   8.803   2.715
23338W        W86897  25.587   8.764   4.608
23339W        W86898  24.647  23.509   1.712
23340W        W86899  42.903  28.446  13.484
23341W        W86900   4.827   4.703  13.873
23342W        W86901  20.720  11.755   3.764
23343W        W86902   7.318   0.474   4.154
23344W        W86903  27.097  36.363  11.531
23345W        W86904  43.992   0.461   0.413
23346W        W86905  20.173  34.580  12.860
23347W        W86906  21.049  40.828   1.371
23348W        W86907  43.881  19.778   2.830
23349W        W86908   9.280  18.261   1.445
23350W        W86909  19.662   6.757   3.704
23351W        W86910  16.224  42.429   2.191
23352W        W86911   6.823  39.905   2.742
23353W        W86912  36.439  32.946   3.700
23354W        W86913  44.406   2.907  12.467
23355W        W86914   6.275  35.105  13.827
23356W        W86915  13.325  20.749  14.816
23357W        W86916   2.891  28.987   4.299
23358W        W86917  40.452  39.437  11.007
23359W        W86918  37.489  17.093  12.001
23360W        W86919   7.232  33.093   1.436
23361W        W86920   6.696  32.983   3.379
23362W        W86921  24.197  15.133  14.494
23363W        W86922   3.837  17.616   4.331
23364W        W86923  40.511  22.159  10.993
23365W        W86924  18.251  18.112   2.791
23366W        W86925   0.842  19.054   3.298
23367W        W86926  12.254  41.437  12.896
23368W        W86927   0.436  32.981  10.447
23369W        W86928  23.529  26.085   0.438
23370W        W86929  39.417  12.153   4.827
23371W        W86930   7.731  36.367  12.913
23372W        W86931   7.402  22.669  14.502
23373W        W86932  38.912  28.112   1.296
23374W        W86933  36.910   5.430   4.655
23375W        W86934  23.058   0.461   3.288
23376W        W86935   0.403  18.552   1.919
23377W        W86936   9.769  43.007   4.693
23378W        W86937  39.940  39.981   2.717
23379W        W86938  14.307  13.273   1.249
23380W        W86939   4.931  37.929  13.840
23381W        W86940   0.784   2.807  13.921
23382W        W86941  14.170  40.825   2.250
23383W        W86942  25.033  35.941  14.339
23384W        W86943  25.067  38.484   2.739
23385W        W86944   1.886   0.751   4.180
23386W        W86945  18.657  14.788  12.347
23387W        W86946  14.720  27.022   2.201
23388W        W86947  21.134   5.278  12.843
23389W        W86948  14.282  10.700   4.140
23390W        W86949  31.583  23.113   3.346
23391W        W86950   8.322  34.591   4.689
23392W        W86951  41.805  32.541   1.859
23393W        W86952  41.321  18.134  10.969
23394W        W86953   7.236  40.407   3.173
23395W        W86954   4.390   1.739  11.893
23396W        W86955  29.975  16.571   2.719
23397W        W86956  13.812  33.022  10.505
23398W        W86957   1.455  23.720  10.537
23399W        W86958  12.220  25.501  12.440
23400W        W86959  23.001  36.381  10.465
23401W        W86960  29.512   3.872  10.411
23402W        W86961  33.520  38.899  14.302
23403W        W86962  44.790   9.372   1.867
23404W        W86963  31.417  36.952  11.091
23405W        W86964   7.801  18.192  11.108
23406W        W86965   7.189  43.417  11.119
23407W        W86966  16.152   3.906   1.402
23408W        W86967  33.429  32.533   4.118
23409W        W86968  31.588  25.658   3.319
23410W        W86969  38.972  22.019  13.974
23411W        W86970  11.621  42.452   3.197
23412W        W86971  22.509  21.545  13.031
23413W        W86972  30.414   1.749   1.890
23414W        W86973  13.211  44.980  13.350
23415W        W86974  21.624  39.530   0.414
23416W        W86975  21.069  13.781  13.929
23417W        W86976  30.453  29.568   2.295
23418W        W86977  36.885  12.666  13.037
23419W        W86978  30.629   0.967   5.245
23420W        W86979  10.162  43.955   1.910
23421W        W86980  37.942  33.021  13.333
23422W        W86981  44.865  37.909  11.579
23423W        W86982  14.325  15.311  12.360
23424W        W86983   8.719   9.157   1.858
23425W        W86984  44.393   9.344  14.444
23426W        W86985  42.304   2.948  11.056
23427W        W86986  21.512  44.475  13.032
23428W        W86987  33.433  22.204   1.925
23429W        W86988  31.548  41.996   4.197
23430W        W86989  19.619   4.245  12.871
23431W        W86990  12.168   6.838   1.711
23432W        W86991   6.373  21.035   1.820
23433W        W86992  17.242  20.739   1.832
23434W        W86993   9.661  31.090   4.325
23435W        W86994  27.069  26.700  13.433
23436W        W86995  40.449  31.585  10.478
23437W        W86996  22.050  33.069  11.374
23438W        W86997  42.833  18.710   4.325
23439W        W86998  37.531  29.488  14.968
23440W        W86999  32.438  22.232   1.927
23441W        W87000  15.817  44.867  10.980
23442W        W87001  37.385  42.941  11.475
23443W        W87002  29.173  23.082  13.856
23444W        W87003  40.028  20.032   0.331
23445W        W87004  39.837  15.204  14.506
23446W        W87005  14.196  42.983   4.153
23447W        W87006  31.933  39.354   2.239
23448W        W87007  44.487  35.361  10.492
23449W        W87008  26.199  37.497   0.877
23450W        W87009  12.681   4.789  10.509
23451W        W87010   9.789  32.047   0.921
23452W        W87011  31.497  20.075   0.389
23453W        W87012  40.358  25.188  13.498
23454W        W87013  36.493  30.561  13.834
23455W        W87014   6.377   3.406   5.206
23456W        W87015  39.431  13.344   4.762
23457W        W87016   7.885  26.500   1.421
23458W        W87017   0.333  15.105   4.762
23459W        W87018  32.521  40.835  11.376
23460W        W87019   6.838   1.460   1.292
23461W        W87020   4.428  41.990  14.441
23462W        W87021  34.545  15.107  11.906
23463W        W87022  31.408  21.239   1.738
23464W        W87023  20.760   0.929  12.997
23465W        W87024  37.409  38.939   2.783
23466W        W87025   6.233   6.807  10.935
23467W        W87026  40.513  41.923  13.851
23468W        W87027  35.986  29.552   3.267
23469W        W87028  23.209  41.021  13.809
23470W        W87029  11.145  12.147   4.807
23471W        W87030  25.478  13.155  10.541
23472W        W87031   8.736  30.562   3.677
23473W        W87032  26.630   6.206   3.169
23474W        W87033   6.900  39.340  12.011
23475W        W87034  18.128  42.985   3.684
23476W        W87035  37.426  13.123   3.228
23477W        W87036   9.326  26.188  11.512
23478W        W87037   3.460  32.995  14.469
23479W        W87038   6.908  16.803  14.811
23480W        W87039  18.778  28.993  14.471
23481W        W87040  35.515   6.789  13.061
23482W        W87041  34.005  38.013   3.352
23483W        W87042  28.970  20.043   1.883
23484W        W87043   7.736  20.033  13.433
23485W        W87044   0.300  36.003  10.628
23486W        W87045  28.101   8.400   0.908
23487W        W87046  15.269  10.269   3.703
23488W        W87047  19.117  31.077   0.925
23489W        W87048  10.863  20.227  11.936
23490W        W87049   6.677  28.677  10.613
23491W        W87050  30.162  26.002   1.849
23492W        W87051  28.973  27.971   0.951
23493W        W87052  44.991   7.174  12.894
23494W        W87053  15.734  33.117  14.932
23495W        W87054  38.470   7.723  12.952
23496W        W87055  34.457  39.890   0.947
23497W        W87056  42.920  15.679   4.733
23498W        W87057  17.124  11.663  10.464
23499W        W87058  27.003  16.716  10.540
23500W        W87059  29.067  35.955   1.790
23501W        W87060  33.980  27.596   0.382
23502W        W87061  12.201   6.820  10.141
23503W        W87062  17.715  44.398   4.765
23504W        W87063  28.564  14.832  12.570
23505W        W87064  43.392  24.560  11.858
23506W        W87065  42.347  23.111   0.742
23507W        W87066  42.512  22.161  12.495
23508W        W87067  25.015  35.028   4.663
23509W        W87068   4.840  13.740   2.274
23510W        W87069  34.102   9.268  11.967
23511W        W87070  14.274  30.053   3.867
23512W        W87071  27.496  25.559   9.674
23513W        W87072   5.720  40.458  13.401
23514W        W87073   1.273  26.650   2.228
23515W        W87074  31.495  32.091  13.856
23516W        W87075  24.709  26.015  13.519
23517W        W87076  19.096  16.121   2.373
23518W        W87077   2.417   5.911  10.156
23519W        W87078  14.133   8.883   1.450
23520W        W87079  22.048  44.997  11.085
23521W        W87080  12.345  12.161   2.752
23522W        W87081  41.979  32.090  13.928
23523W        W87082   3.362  44.802   2.674
23524W        W87083  37.512  22.134  12.026
23525W        W87084  28.037   3.433   4.621
23526W        W87085   0.364  41.878  14.990
23527W        W87086  20.169  34.954  10.418
23528W        W87087  20.032  30.034   2.290
23529W        W87088   7.880  39.908  12.984
23530W        W87089  30.968  43.330  11.431
23531W        W87090  23.096  36.412  12.576
23532W        W87091  13.214  30.981   1.792
23533W        W87092  20.151   6.790   4.197
23534W        W87093  37.012  43.931  11.901
23535W        W87094  30.123   4.317   1.874
23536W        W87095   0.882  30.019   4.216
23537W        W87096  38.863  39.062   5.317
23538W        W87097  24.610   1.325  11.104
23539W        W87098  43.956  16.154   1.251
23540W        W87099  28.616  22.148  12.935
23541W        W87100  38.469   6.423  12.579
23542W        W87101  28.055   6.246   3.641
23543W        W87102   7.822  20.033   2.744
23544W        W87103   4.292  33.016  13.537
23545W        W87104  31.117  20.567  14.928
23546W        W87105  30.640  36.857   0.355
23547W        W87106  26.527  38.428   4.650
23548W        W87107  13.159  33.888   1.316
23549W        W87108  35.362   8.270  14.415
23550W        W87109  14.324  25.095   9.986
23551W        W87110  12.136  33.504  13.958
23552W        W87111   1.830  14.755   4.738
23553W        W87112  38.471  33.928  14.900
23554W        W87113  41.902   7.353   4.707
23555W        W87114   2.852  14.138  14.491
23556W        W87115  19.612   4.786  11.545
23557W        W87116  20.711  22.562  10.980
23558W        W87117   6.249  40.411  11.936
23559W        W87118  35.878  33.081   2.222
23560W        W87119  22.579  44.341  13.463
23561W        W87120  31.647  30.424   2.804
23562W        W87121  20.725  11.136  10.441
23563W        W87122  34.431  11.154   2.865
23564W        W87123  39.925  40.464   4.187
23565W        W87124  12.161   5.710  11.482
23566W        W87125  34.955  20.201   4.685
23567W        W87126  33.523  15.814   5.197
23568W        W87127  30.590   1.295  10.961
23569W        W87128  17.731  29.656   1.221
23570W        W87129   8.824   8.832   3.771
23571W        W87130   2.925   0.295   0.415
23572W        W87131  37.065   8.274  11.033
23573W        W87132  17.307  29.092  14.298
23574W        W87133   0.905  24.486  14.899
23575W        W87134  24.212  12.794   4.661
23576W        W87135  31.957  11.650   5.261
23577W        W87136  27.522  29.113  11.084
23578W        W87137  42.310  38.946   4.337
23579W        W87138   0.438  19.193  14.977
23580W        W87139  10.650   0.477  11.490
23581W        W87140  39.865   7.882   2.181
23582W        W87141  32.056  18.584   1.337
23583W        W87142  40.451  35.497  10.554
23584W        W87143  14.293   9.275  14.333
23585W        W87144   0.364  29.930   3.640
23586W        W87145  34.917  18.231   2.866
23587W        W87146   3.306  12.177  13.345
23588W        W87147   5.311  26.494   3.709
23589W        W87148  41.928  13.635   0.329
23590W        W87149  42.838   7.785  14.413
23591W        W87150  11.813  31.027  14.930
23592W        W87151   9.267   4.243  10.908
23593W        W87152  23.705  44.794   2.255
23594W        W87153   4.894   5.330  10.569
23595W        W87154  13.216  29.543  10.568
23596W        W87155  24.665  13.251   0.341
23597W        W87156  38.359  44.842   4.733
23598W        W87157  34.102   2.291   0.259
23599W        W87158  10.189  14.657  13.002
23600W        W87159  28.514   0.832   0.368
23601W        W87160  25.195  36.964  10.418
23602W        W87161  10.284   7.214   3.238
23603W        W87162  37.380  13.777  12.449
23604W        W87163  18.642   6.813  12.494
23605W        W87164  24.059   3.226   4.196
23606W        W87165  15.788  25.510  12.460
23607W        W87166   9.388  28.544  12.437
23608W        W87167  42.819  34.470  11.406
23609W        W87168  27.012  17.075  13.033
23610W        W87169  32.530  44.900   0.356
23611W        W87170  36.940  17.654   2.321
23612W        W87171  10.645  26.688  14.433
23613W        W87172  32.141  44.445  13.876
23614W        W87173   9.831  42.422   2.766
23615W        W87174  12.700  22.076   4.150
23616W        W87175  43.767  29.173   1.342
23617W        W87176   8.339  20.242  12.403
23618W        W87177  17.737  19.729   0.751
23619W        W87178  11.255  36.068  10.102
23620W        W87179  43.784  38.431  10.967
23621W        W87180  23.077   7.702   1.221
23622W        W87181   5.292  30.953   0.967
23623W        W87182  35.515  22.591  11.559
23624W        W87183  38.011  20.270  10.579
23625W        W87184   2.872  26.569  12.426
23626W        W87185  14.628  44.486   0.788
23627W        W87186   8.660  17.127  12.488
23628W        W87187  42.344  29.516   2.389
23629W        W87188  27.967  33.923  14.426
23630W        W87189  16.174  17.643  13.393
23631W        W87190  22.168  41.847   4.725
23632W        W87191  44.321  43.407   0.349
23633W        W87192   1.793   5.199   4.762
23634W        W87193  39.937  14.628   0.365
23635W        W87194  41.863   7.269   0.734
23636W        W87195  29.108  12.709  14.897
23637W        W87196  19.213  17.725   0.443
23638W        W87197   8.711  42.814   0.335
23639W        W87198  39.406  17.256  12.484
23640W        W87199  37.989  41.340  14.515
23641W        W87200  21.563  20.756  14.289
23642W        W87201  18.647  35.408  14.445
23643W        W87202   2.284  44.368   3.843
23644W        W87203  24.215   0.834  11.075
23645W        W87204  30.588  36.469   2.777
23646W        W87205  43.812  38.470   1.279
23647W        W87206  38.382   6.868   0.747
23648W        W87207  33.057   6.710  13.348
23649W        W87208  18.631  18.588  10.497
23650W        W87209  25.153  35.480  10.946
23651W        W87210  22.674   9.819  10.911
23652W        W87211  39.843  11.660  13.393
23653W        W87212  22.134  40.896  11.106
23654W        W87213  22.640  35.420   2.327
23655W        W87214  12.227   9.820   1.302
23656W        W87215  40.415  14.185   1.224
23657W        W87216  17.125   2.907  13.329
23658W        W87217   1.793  37.065  14.403
23659W        W87218  26.694  38.834  10.988
23660W        W87219  28.674  18.287  10.537
23661W        W87220  25.614  18.560   1.708
23662W        W87221   0.317  24.975   1.212
23663W        W87222  39.548   9.826  11.005
23664W        W87223  25.196  38.855   2.800
23665W        W87224  13.331  39.945  13.308
23666W        W87225  27.565  32.446   0.822
23667W        W87226  16.772  40.353   1.411
23668W        W87227  37.486  26.978  11.409
23669W        W87228  23.235  14.176  12.018
23670W        W87229  21.120   8.730   2.706
23671W        W87230  44.839  19.078   4.736
23672W        W87231  16.269   2.803   0.332
23673W        W87232  15.628  29.932  13.449
23674W        W87233   0.890  16.252   4.116
23675W        W87234   1.314  22.520  12.383
23676W        W87235   7.834  28.999   1.359
23677W        W87236   2.259  35.540  10.985
23678W        W87237  32.422   8.757   5.183
23679W        W87238  32.617  37.388  14.946
23680W        W87239  35.009  32.897   3.368
23681W        W87240  25.670  16.126   1.402
23682W        W87241  30.659  12.656  12.941
23683W        W87242   4.870  11.772  12.086
23684W        W87243  28.982   4.763   3.182
23685W        W87244  36.396   3.395   1.351
23686W        W87245  24.489  19.229   3.305
23687W        W87246  38.038  31.427   2.663
23688W        W87247  16.579  19.043   2.182
23689W        W87248   3.272  17.250  14.452
23690W        W87249  21.123  43.892  10.917
23691W        W87250  18.719  33.090   2.878
23692W        W87251  26.614   2.419  12.517
23693W        W87252   4.702   6.755  13.927
23694W        W87253  15.608  43.424   3.330
23695W        W87254   7.382   8.393  12.982
23696W        W87255  39.456  13.315  14.498
23697W        W87256   2.383   0.871   1.782
23698W        W87257   6.812  19.138  12.379
23699W        W87258  13.333  10.161   3.271
23700W        W87259  20.584  32.498  10.935
23701W        W87260  14.332  15.153   2.321
23702W        W87261  36.939  31.550  12.880
23703W        W87262  26.963  25.976   2.719
23704W        W87263  38.476  35.008  14.375
23705W        W87264   0.825   6.313  10.429
23706W        W87265  35.466   7.318  10.515
23707W        W87266  32.447  24.700  11.103
23708W        W87267  41.922  42.450   4.139
23709W        W87268  29.605   7.756   1.321
23710W        W87269  22.636   9.318  13.368
23711W        W87270   9.833  22.010  10.442
23712W        W87271  13.338  29.046   2.862
23713W        W87272  40.315  21.227   4.283
23714W        W87273   2.412  11.851  13.841
23715W        W87274  27.949   3.300   1.261
23716W        W87275  27.045  44.979   0.421
23717W        W87276  38.398   1.303   0.289
23718W        W87277  35.428  31.526   1.376
23719W        W87278  18.602  43.483   4.213
23720W        W87279  13.821  37.084  11.474
23721W        W87280  25.526   5.301   1.329
23722W        W87281  19.144  39.317  13.455
23723W        W87282  21.702  40.987  11.006
23724W        W87283  30.510  29.553   1.372
23725W        W87284  44.361  37.038  13.420
23726W        W87285  21.200  38.494  11.872
23727W        W87286  10.170  20.627   2.364
23728W        W87287  31.455   1.357  12.861
23729W        W87288   0.423  33.419   0.331
23730W        W87289  20.210  26.104  11.484
23731W        W87290  27.018   3.333   0.726
23732W        W87291  25.007  36.501  11.864
23733W        W87292  38.541   1.331  13.323
23734W        W87293  31.929  15.229   3.288
23735W        W87294  32.524  23.632  13.420
23736W        W87295  34.867   5.363   0.339
23737W        W87296   4.878  32.438   4.619
23738W        W87297  10.146   6.788  13.956
23739W        W87298  38.956   3.951  12.534
23740W        W87299  21.253  37.486   3.159
23741W        W87300  41.501  26.529  10.607
23742W        W87301  35.967  21.151  12.561
23743W        W87302   2.846  34.929  14.782
23744W        W87303  15.702  44.851  10.635
23745W        W87304  11.822  42.336   2.325
23746W        W87305  33.506  16.652   9.985
23747W        W87306  14.272  13.324   3.332
23748W        W87307  31.056  31.543   1.832
23749W        W87308  44.409  29.584  11.967
23750W        W87309  12.127   8.744  11.543
23751W        W87310   0.832  23.556  13.447
23752W        W87311   6.227   5.732  13.908
23753W        W87312  44.385  31.457   0.311
23754W        W87313  35.990  25.678   3.189
23755W        W87314  36.009  28.518  12.914
23756W        W87315   2.867   3.265  11.106
23757W        W87316  42.308  14.211  14.292
23758W        W87317  24.992  22.601  11.421
23759W        W87318  33.553  42.498  13.997
23760W        W87319  20.733  18.607   2.685
23761W        W87320  13.105  25.059  10.477
23762W        W87321  29.073  17.638  14.358
23763W        W87322  19.766  44.320  10.441
23764W        W87323  34.906  42.449   4.230
23765W        W87324  41.367  29.486   3.148
23766W        W87325  24.589  31.090   0.830
23767W        W87326  27.018  16.583   4.717
23768W        W87327  26.017  22.619  14.938
23769W        W87328  14.762  39.450  14.856
23770W        W87329   9.324  41.853   3.257
23771W        W87330  42.924  44.932  13.890
23772W        W87331   1.914  29.931  12.525
23773W        W87332  21.558  22.605  10.448
23774W        W87333  28.630  23.088  12.388
23775W        W87334   6.282   7.302  14.491
23776W        W87335  19.054  31.024  10.985
23777W        W87336   6.258  37.339  13.829
23778W        W87337  11.812  41.016   2.254
23779W        W87338  28.582   1.238  11.561
23780W        W87339   7.310   6.322   2.197
23781W        W87340   7.212  16.725  12.920
23782W        W87341  11.185  18.722  13.824
23783W        W87342   5.832  18.732   3.641
23784W        W87343  30.960   4.260   0.366
23785W        W87344  17.692   9.773   2.787
23786W        W87345  10.642  32.489   1.282
23787W        W87346   9.329  24.061  12.522
23788W        W87347  18.086  17.761   4.834
23789W        W87348  21.126  12.181   0.743
23790W        W87349  21.222  18.685   4.182
23791W        W87350   9.814  41.537  14.438
23792W        W87351  35.987  15.695  12.490
23793W        W87352  15.225  10.723  11.602
23794W        W87353  33.921  14.728  13.874
23795W        W87354  32.421  23.531   4.226
23796W        W87355   5.798  34.593  11.509
23797W        W87356  13.125   5.899   2.183
23798W        W87357   0.473  12.184  14.765
23799W        W87358  19.252  23.540   2.264
23800W        W87359  14.208  30.519   1.927
23801W        W87360  29.432  27.644   3.179
23802W        W87361  34.398  33.914   5.302
23803W        W87362   6.204   5.241   3.231
23804W        W87363  37.009   0.769  12.973
23805W        W87364   7.764   4.344  13.820
23806W        W87365  33.931  32.608   2.346
23807W        W87366  18.165  14.323   0.774
23808W        W87367  27.608   9.703   3.670
23809W        W87368   6.190  19.117  12.920
23810W        W87369  15.752   6.841  14.013
23811W        W87370  11.272  14.263   5.599
23812W        W87371  24.612   3.260   2.828
23813W        W87372  25.009  11.288  10.547
23814W        W87373  42.882  26.025   3.351
23815W        W87374  42.968   0.851  14.869
23816W        W87375  30.923  41.811  13.837
23817W        W87376  38.893  27.984   2.351
23818W        W87377  18.627  19.061  13.336
23819W        W87378  33.906  44.990  13.860
23820W        W87379  39.967  21.149   3.869
23821W        W87380  27.634  30.941   4.224
23822W        W87381  13.651   0.781  13.981
23823W        W87382   0.987  21.737  11.087
23824W        W87383  20.659  20.112  12.420
23825W        W87384  30.104  22.204   2.337
23826W        W87385   8.298  29.652  12.456
23827W        W87386  31.409  17.558   4.817
23828W        W87387  12.711  28.949  14.845
23829W        W87388  30.965  31.610   4.821
23830W        W87389   1.307  14.265  11.591
23831W        W87390  20.635  24.663   3.777
23832W        W87391  13.224  22.011   3.165
23833W        W87392  25.625  25.094  10.917
23834W        W87393   7.901  25.120   2.673
23835W        W87394  18.634  16.278   0.760
23836W        W87395  41.513  27.465  11.127
23837W        W87396  31.069  29.010  13.978
23838W        W87397  10.308  29.434   2.872
23839W        W87398  14.310  29.989  14.900
23840W        W87399  44.325   2.242   4.154
23841W        W87400  13.645  21.144   2.743
23842W        W87401  44.335   3.442   1.838
23843W        W87402  44.955  14.104  10.495
23844W        W87403  35.545  10.705   0.728
23845W        W87404  21.638  19.183   3.708
23846W        W87405   6.365  42.426  12.424
23847W        W87406  20.718   8.314   4.319
23848W        W87407  14.706  13.778   3.793
23849W        W87408  44.942  32.420   4.803
23850W        W87409   4.861  25.036   2.835
23851W        W87410   6.899   9.698  14.480
23852W        W87411   1.842  23.636   3.807
23853W        W87412  11.289  33.067   2.757
23854W        W87413   8.755  30.646   3.319
23855W        W87414  15.582  23.036   5.708
23856W        W87415   7.228  37.066   0.317
23857W        W87416  22.161  16.161  10.991
23858W        W87417  25.468  31.431   0.771
23859W        W87418  30.041  31.559  10.573
23860W        W87419  34.112   9.255  14.415
23861W        W87420  37.038  41.018  14.405
23862W        W87421  41.039  34.121   3.252
23863W        W87422   1.906  31.500  14.956
23864W        W87423  18.610  20.523  11.605
23865W        W87424   6.882  36.403   3.338
23866W        W87425  42.297  39.813  14.311
23867W        W87426   4.801  41.475  13.936
23868W        W87427   4.424  11.136   2.897
23869W        W87428  12.617   8.362   3.714
23870W        W87429  32.044  15.712  12.852
23871W        W87430  38.548  39.886   2.293
23872W        W87431   6.874  25.138   2.293
23873W        W87432   7.802  19.233   2.682
23874W        W87433  38.974  36.048   2.787
23875W        W87434  43.964  15.821   1.287
23876W        W87435  40.927  20.171  10.542
23877W        W87436  31.095   2.829  13.343
23878W        W87437  30.426  11.657  14.812
23879W        W87438  44.439   8.673  12.056
23880W        W87439  26.126  16.661  14.419
23881W        W87440  10.275   8.186   0.964
23882W        W87441   6.782   5.859   0.797
23883W        W87442  22.675  18.565   3.147
23884W        W87443   7.874   7.872   4.751
23885W        W87444  32.410  33.058   1.395
23886W        W87445  40.042   5.281  10.503
23887W        W87446  17.710  41.380   2.816
23888W        W87447   7.831  17.655  13.868
23889W        W87448  21.207  23.087   4.688
23890W        W87449  26.534   7.795  12.828
23891W        W87450  24.722   5.374   0.469
23892W        W87451  24.142   4.699  14.953
23893W        W87452  30.083   4.933   0.891
23894W        W87453  29.615  34.559   0.317
23895W        W87454  42.454  30.495   1.233
23896W        W87455  25.680   3.451  11.021
23897W        W87456  26.461  44.008  11.010
23898W        W87457  13.209  42.785  11.605
23899W        W87458  15.165   1.237   2.772
23900W        W87459  29.166  29.028  11.517
23901W        W87460  21.086  40.018   2.317
23902W        W87461   1.786  16.689   0.361
23903W        W87462  35.425  12.649  11.526
23904W        W87463  24.075  26.697  13.960
23905W        W87464  36.490   8.741   3.812
23906W        W87465  44.803  28.100   4.751
23907W        W87466   5.272  30.588  11.473
23908W        W87467  34.503  38.971   5.262
23909W        W87468   7.377  13.826   0.867
23910W        W87469   4.434  22.222  14.848
23911W        W87470  21.560  42.369  10.555
23912W        W87471  43.842  11.339   4.695
23913W        W87472  23.700   0.457   0.267
23914W        W87473  13.155  21.244   4.653
23915W        W87474  35.021  10.303  13.966
23916W        W87475   7.204   5.437  13.837
23917W        W87476  41.937  36.898   2.705
23918W        W87477  13.335   2.773   4.702
23919W        W87478  38.060  15.638  14.453
23920W        W87479  30.164  35.068  10.634
23921W        W87480  24.050  42.958  12.860
23922W        W87481   9.222   6.257  10.031
23923W        W87482  42.404  25.164  12.351
23924W        W87483  30.111  34.608   4.215
23925W        W87484  40.499   5.861   3.841
23926W        W87485   9.395  11.215   9.925
23927W        W87486  35.945  28.955  11.949
23928W        W87487  19.592  12.230   3.816
23929W        W87488  23.104  30.620  10.553
23930W        W87489  10.697   3.756  11.496
23931W        W87490  24.068  20.538   0.946
23932W        W87491  13.670  39.336  11.964
23933W        W87492  39.866   3.264  13.027
23934W        W87493  41.358   9.719  13.327
23935W        W87494  19.776  22.108   4.673
23936W        W87495  43.931  31.497  14.411
23937W        W87496  20.562  25.544  12.551
23938W        W87497   4.257  23.513  12.553
23939W        W87498  43.313  24.500   3.756
23940W        W87499  14.770  30.950   2.833
23941W        W87500   6.752  38.005  13.004
23942W        W87501   1.432  15.321   0.320
23943W        W87502  42.411  33.415  13.330
23944W        W87503  33.100  14.329   1.918
23945W        W87504  30.097   8.855  12.058
23946W        W87505   3.721  23.220  10.404
23947W        W87506  12.809  21.045  14.499
23948W        W87507  12.624   3.411   1.395
23949W        W87508   6.751  32.083  11.953
23950W        W87509  10.762  17.583  13.471
23951W        W87510  35.864   4.786  11.500
23952W        W87511  15.305   4.855  11.859
23953W        W87512  35.866  42.417   0.344
23954W        W87513   6.702  25.048  14.387
23955W        W87514  21.044  18.085  11.868
23956W        W87515  43.270  40.332   0.950
23957W        W87516   8.741   5.918  12.964
23958W        W87517   7.904  17.239  12.092
23959W        W87518  10.173  33.882   0.932
23960W        W87519  35.391   5.354   4.116
23961W        W87520  26.117   1.362  13.994
23962W        W87521  32.631  30.571   3.179
23963W        W87522  19.222   7.190   4.184
23964W        W87523  17.266  39.888   1.364
23965W        W87524   6.834  16.614   2.711
23966W        W87525  31.934  22.153  11.065
23967W        W87526  23.157   7.887   3.379
23968W        W87527  12.308  18.637  12.074
23969W        W87528  26.501   6.314  13.797
23970W        W87529   1.385  36.537  11.454
23971W        W87530  19.768  17.657  11.896
23972W        W87531  26.664   4.900  13.444
23973W        W87532  36.385   9.888  12.393
23974W        W87533  33.048  35.105   1.255
23975W        W87534  11.662   5.298   2.746
23976W        W87535  25.036   8.170   2.241
23977W        W87536  29.485  22.052  11.515
23978W        W87537  18.758  33.023  14.909
23979W        W87538  18.091  23.184  14.768
23980W        W87539  38.377  16.248  12.565
23981W        W87540  21.184  42.927   4.765
23982W        W87541  11.201  37.424   3.696
23983W        W87542  40.541  30.631   4.754
23984W        W87543   7.417   7.287   3.273
23985W        W87544   0.916   6.807  12.468
23986W        W87545  39.554  10.295   0.435
23987W        W87546  39.986  31.472   1.226
23988W        W87547  30.109   5.816   2.756
23989W        W87548  14.764  44.951   2.284
23990W        W87549  43.888  27.483   0.478
23991W        W87550  10.758   2.775  11.604
23992W        W87551  25.099  17.687   0.357
23993W        W87552  42.434  35.957  14.021
23994W        W87553  41.378  24.981  14.867
23995W        W87554  20.679  27.020   1.219
23996W        W87555  21.585  43.331  13.805
23997W        W87556  34.540  36.364   3.252
23998W        W87557   5.846  34.078   3.226
23999W        W87558  37.929  30.985  12.974
24000W        W87559   6.884   8.825   0.320
24001W        W87560  17.708  34.370  14.928
24002W        W87561  21.018  41.012   0.335
24003W        W87562  14.234   3.856  14.890
24004W        W87563   4.207  19.136  13.481
24005W        W87564  13.799  37.037  10.630
24006W        W87565   5.865  30.546   4.680
24007W        W87566  15.100  11.642  11.077
24008W        W87567   8.190  35.959  11.375
24009W        W87568  34.864  16.230  10.539
24010W        W87569  16.570  37.579  14.989
24011W        W87570  19.567  17.710   4.637
24012W        W87571  40.332  31.061   4.702
24013W        W87572  11.711  22.678   0.801
24014W        W87573  28.163  12.266  11.460
24015W        W87574  17.226   8.864  14.870
24016W        W87575  31.040  40.507  13.831
24017W        W87576  38.381   9.883  14.329
24018W        W87577   8.793  42.356   1.865
24019W        W87578   8.169  18.270   4.333
24020W        W87579  11.157   6.847  10.946
24021W        W87580  28.493   4.251  10.583
24022W        W87581  16.107   1.271   0.381
24023W        W87582  37.000  37.943  10.407
24024W        W87583  12.853  36.849  14.760
24025W        W87584  38.068  28.150   4.688
24026W        W87585  21.205  18.204   1.222
24027W        W87586  35.955  24.561   0.955
24028W        W87587  42.378  19.109   0.323
24029W        W87588   9.258  21.748   2.716
24030W        W87589   5.353   3.346   1.410
24031W        W87590   7.368   0.926   4.220
24032W        W87591  20.190  38.515  11.029
24033W        W87592   7.171  10.185  11.915
24034W        W87593   0.904  25.114   4.159
24035W        W87594  10.717  41.791  13.992
24036W        W87595  25.619   4.266  12.348
24037W        W87596  33.878  33.001  12.833
24038W        W87597  23.066  22.567  12.037
24039W        W87598   9.786  22.113  13.451
24040W        W87599  16.657   6.405   3.650
24041W        W87600  35.426  15.615  11.979
24042W        W87601   5.855  13.779  10.567
24043W        W87602  30.532  36.472  12.449
24044W        W87603  15.186  40.974  12.428
24045W        W87604   5.389  22.664   1.890
24046W        W87605  36.098   9.259   1.798
24047W        W87606   1.878   3.377  12.856
24048W        W87607  31.147  26.099  14.998
24049W        W87608  24.104  23.229   3.675
24050W        W87609  14.628  38.969   1.409
24051W        W87610  16.644  37.046  11.581
24052W        W87611  27.497  26.011   1.772
24053W        W87612  32.628   7.254  11.877
24054W        W87613  37.452  16.223  10.916
24055W        W87614  39.417   9.673   3.343
24056W        W87615  13.294  19.751   2.766
24057W        W87616  16.809  21.177  13.927
24058W        W87617  22.175  29.666   1.268
24059W        W87618  24.158   5.219  14.951
24060W        W87619  21.064  41.536  14.512
24061W        W87620  22.732  14.207   1.294
24062W        W87621  30.123   1.422   0.803
24063W        W87622  24.055   6.696   0.420
24064W        W87623   0.261  28.528   4.173
24065W        W87624  15.792  18.691  13.892
24066W        W87625  37.403  30.984   3.379
24067W        W87626  34.490  20.674  13.952
24068W        W87627  27.668  40.533   2.393
24069W        W87628  11.820   2.871   1.718
24070W        W87629  19.570  21.057  13.440
24071W        W87630   1.762  18.641   1.920
24072W        W87631   5.301  32.556  13.317
24073W        W87632  31.142  43.428  14.928
24074W        W87633  29.158  23.125   5.268
24075W        W87634  10.252   7.408  11.950
24076W        W87635  28.575  37.880  12.086
24077W        W87636   0.337  12.748   2.900
24078W        W87637  21.085  17.622   1.220
24079W        W87638   8.818  18.137  10.620
24080W        W87639   1.353   1.478   2.798
24081W        W87640   5.745  17.126  13.323
24082W        W87641  13.240  26.645   1.303
24083W        W87642  19.545  41.463  13.462
24084W        W87643   4.747  21.095   4.164
24085W        W87644  37.473  35.362   4.750
24086W        W87645  29.584  43.817  14.411
24087W        W87646  15.628  28.943   0.953
24088W        W87647   0.282  21.641  14.359
24089W        W87648  31.900  16.731   3.150
24090W        W87649   6.409  24.017  13.061
24091W        W87650   0.889  17.105  11.401
24092W        W87651   6.885  38.547  11.472
24093W        W87652  35.593   7.247   4.266
24094W        W87653   8.863  16.791  11.416
24095W        W87654  42.505   3.925   3.767
24096W        W87655  27.183  31.440   3.692
24097W        W87656  11.337  28.012   4.331
24098W        W87657  18.646  31.935   1.441
24099W        W87658   4.378  37.365   4.284
24100W        W87659  31.607   1.926  10.493
24101W        W87660  17.739  17.673   4.631
24102W        W87661  15.251  12.330   1.696
24103W        W87662  11.644  22.628  11.464
24104W        W87663  30.907  33.082   1.731
24105W        W87664  33.960  34.075  10.999
24106W        W87665  34.428  36.976  10.455
24107W        W87666  34.896  16.250   2.825
24108W        W87667  43.778   7.288   4.138
24109W        W87668  34.573  24.615  13.976
24110W        W87669  14.713  36.030  10.630
24111W        W87670   5.888  19.237   1.328
24112W        W87671  29.497   3.268  10.145
24113W        W87672   5.817  30.138  14.969
24114W        W87673  13.649  44.771   2.752
24115W        W87674   1.411  36.955  11.437
24116W        W87675  23.610  39.383   1.720
24117W        W87676  13.706  40.379  11.376
24118W        W87677  31.044  27.969   4.195
24119W        W87678  16.223   5.869  14.000
24120W        W87679   2.882  31.597  13.521
24121W        W87680   3.768   5.805   4.231
24122W        W87681  26.118  31.116  14.880
24123W        W87682  39.515  13.334   1.308
24124W        W87683  31.538  14.233   0.897
24125W        W87684  12.225  15.258  12.941
24126W        W87685  10.741  30.095   1.925
24127W        W87686  22.567  26.164  11.466
24128W        W87687  43.429  10.859   0.431
24129W        W87688  13.278   3.903   0.950
24130W        W87689  15.297  23.062  12.991
24131W        W87690  32.406  19.213  13.519
24132W        W87691  31.947  26.462   0.301
24133W        W87692  10.205  40.408   2.353
24134W        W87693  32.581  33.881  12.374
24135W        W87694  14.152  40.510  13.959
24136W        W87695  18.238  13.818   1.242
24137W        W87696  35.461  16.686   4.252
24138W        W87697  33.111  27.046  11.907
24139W        W87698  12.674  16.647   3.298
24140W        W87699  11.687  34.092   1.231
24141W        W87700  29.047  20.696  11.911
24142W        W87701  43.458  38.392   2.722
24143W        W87702  24.559   2.858  12.914
24144W        W87703  29.523   5.846  13.050
24145W        W87704   6.336  27.194  13.448
24146W        W87705  25.569   4.294  11.857
24147W        W87706  33.600  36.538   1.825
24148W        W87707   0.303  29.154   1.863
24149W        W87708   9.817  42.786  14.838
24150W        W87709  43.964   6.213   2.825
24151W        W87710  40.543  15.597   2.405
24152W        W87711  24.621  29.927   3.835
24153W        W87712  12.287  37.439  12.502
24154W        W87713  23.669  27.538   0.396
24155W        W87714  39.808  42.486   3.292
24156W        W87715  34.099  11.719   2.763
24157W        W87716  25.690   3.384  12.380
24158W        W87717  28.591  18.607  11.501
24159W        W87718  10.653   4.784  12.026
24160W        W87719   6.837   0.488  10.983
24161W        W87720  43.274  22.070   3.173
24162W        W87721  37.537  29.085   1.840
24163W        W87722  36.870  43.003   4.185
24164W        W87723   3.841  25.110  13.423
24165W        W87724  34.868  21.575  13.918
24166W        W87725   2.424  18.083  12.447
24167W        W87726  24.092  21.111   4.120
24168W        W87727  38.003  11.718  10.530
24169W        W87728  36.535  15.226   4.277
24170W        W87729  12.848  39.007   0.755
24171W        W87730  44.479   6.732   5.253
24172W        W87731   4.432  33.945  12.354
24173W        W87732  21.731   3.235   0.394
24174W        W87733  34.457  43.944   2.895
24175W        W87734  23.505  29.032   0.837
24176W        W87735  22.617   1.735  12.086
24177W        W87736  12.325   6.228  14.321
24178W        W87737  16.625  16.628  11.480
24179W        W87738  25.998  44.324  14.393
24180W        W87739  28.611   9.750  11.934
24181W        W87740  34.883   1.808   1.905
24182W        W87741  25.689   1.290   3.678
24183W        W87742  16.717  22.065  11.981
24184W        W87743  18.712  42.881  10.559
24185W        W87744  31.073  29.529  11.032
24186W        W87745  31.591   8.288  12.479
24187W        W87746  22.628  42.446  11.944
24188W        W87747   4.831  16.104   4.729
24189W        W87748   7.674  26.575  13.548
24190W        W87749  34.404  31.990   4.307
24191W        W87750   1.752  10.779   1.429
24192W        W87751   4.908  25.969  14.015
24193W        W87752  44.380  43.301   4.325
24194W        W87753  43.826  24.691  10.622
24195W        W87754  33.498  21.112   2.751
24196W        W87755  13.707  13.242  14.448
24197W        W87756   8.755   3.934  12.841
24198W        W87757  37.403   3.954   1.929
24199W        W87758  37.364  30.431   4.173
24200W        W87759  28.565  23.490  12.936
24201W        W87760   9.248   3.322  10.913
24202W        W87761   0.949  26.207  10.997
24203W        W87762   7.891  31.072  12.503
24204W        W87763  27.998  42.883  11.922
24205W        W87764  26.083  15.691   0.792
24206W        W87765  22.603   6.921   3.248
24207W        W87766  28.163  17.594   0.343
24208W        W87767  33.933  17.595  14.340
24209W        W87768  41.303  35.039   1.268
24210W        W87769  13.700  18.734  12.894
24211W        W87770  29.650  44.496   0.334
24212W        W87771   2.240  23.121   4.132
24213W        W87772  26.037  29.039   3.354
24214W        W87773  24.626  28.680  14.932
24215W        W87774  18.125  11.721   3.323
24216W        W87775  30.576  27.631  14.475
24217W        W87776  26.585  21.521   4.626
24218W        W87777  38.393  21.645  11.977
24219W        W87778   2.366  33.062  14.983
24220W        W87779   7.850   1.875   1.819
24221W        W87780  17.736  29.525   4.781
24222W        W87781   7.875  25.099  10.091
24223W        W87782  37.839  15.785   0.272
24224W        W87783   5.419  14.288   3.706
24225W        W87784  25.090  28.962   0.878
24226W        W87785  35.409  20.537   3.861
24227W        W87786   0.862  30.523  13.820
24228W        W87787   0.820  13.337  11.964
24229W        W87788  12.219  12.722   3.380
24230W        W87789   0.258  34.489  11.904
24231W        W87790  27.596  31.974  10.996
24232W        W87791  35.989  44.466   2.725
24233W        W87792  10.827   1.258   3.369
24234W        W87793  43.362  19.200  12.850
24235W        W87794  18.089   9.355  11.000
24236W        W87795  23.151  15.777   4.258
24237W        W87796  15.770  23.084  10.571
24238W        W87797  41.433  14.771  13.361
24239W        W87798   8.711  27.629  14.453
24240W        W87799   9.234  23.124   1.729
24241W        W87800   4.824  30.542  13.971
24242W        W87801   1.914  35.399   4.822
24243W        W87802  29.552  41.836  14.373
24244W        W87803  29.953  20.193  12.344
24245W        W87804   6.321  13.655   1.261
24246W        W87805  24.006  13.830   0.804
24247W        W87806   9.342   7.217   4.831
24248W        W87807  11.226  36.586   5.785
24249W        W87808  26.081  25.516  12.880
24250W        W87809  20.727  37.032   3.358
24251W        W87810  40.910  40.843   1.429
24252W        W87811  37.391   6.751  12.941
24253W        W87812  11.833  17.108  10.149
24254W        W87813  29.654  15.745   2.243
24255W        W87814  32.416   5.299  14.503
24256W        W87815  26.037  34.570  14.426
24257W        W87816  36.907   5.348  13.848
24258W        W87817   0.343  40.014   0.252
24259W        W87818  17.064   0.870  14.874
24260W        W87819  24.592  40.421  10.980
24261W        W87820  32.395   6.271   0.315
24262W        W87821   8.176  43.353   0.425
24263W        W87822  31.448  27.559  14.907
24264W        W87823  39.515  18.177  11.933
24265W        W87824  14.193  16.609   0.268
24266W        W87825  33.980  41.498  11.565
24267W        W87826  24.104   1.406  12.850
24268W        W87827  13.157  30.642   4.132
24269W        W87828  26.174  24.570  13.351
24270W        W87829  31.604  42.891  12.413
24271W        W87830  37.407  44.281   4.131
24272W        W87831   5.252  34.493  14.311
24273W        W87832  37.480  12.665  11.969
24274W        W87833  37.435  26.636  13.794
24275W        W87834  39.560   7.330   2.759
24276W        W87835  27.122  10.288  10.982
24277W        W87836  23.208   8.284  13.452
24278W        W87837  25.585   0.262  10.902
24279W        W87838   3.234  14.597   3.265
24280W        W87839  28.049   3.887  10.594
24281W        W87840  27.034  39.900   0.431
24282W        W87841  27.130  27.671  12.506
24283W        W87842  43.343   8.169   0.295
24284W        W87843  39.981  44.783  14.902
24285W        W87844  23.525  30.636  14.795
24286W        W87845  23.084  25.677  12.370
24287W        W87846  42.008   9.671   3.648
24288W        W87847  31.050  22.014  12.471
24289W        W87848   8.876   5.726   3.213
24290W        W87849  42.383  35.927  14.485
24291W        W87850   1.903   0.473   0.473
24292W        W87851  37.067   1.778   3.267
24293W        W87852  21.626  19.044   4.699
24294W        W87853  24.149  44.928   1.450
24295W        W87854  18.570  11.240   1.883
24296W        W87855  36.856  10.154   9.601
24297W        W87856  22.593   6.413   1.744
24298W        W87857  32.461  33.502  12.908
24299W        W87858  21.218   6.799  13.940
24300W        W87859  22.172  29.121  12.436
24301W        W87860  26.698  20.601  13.508
24302W        W87861  19.629   3.783  12.854
24303W        W87862  34.496  36.522   1.432
24304W        W87863   0.307   1.459   4.288
24305W        W87864  25.105  13.772   1.813
24306W        W87865   1.791  18.078   0.383
24307W        W87866  13.827  43.791   1.718
24308W        W87867  43.272   9.843  14.308
24309W        W87868   1.246  13.634   1.890
24310W        W87869  40.416  14.591  14.307
24311W        W87870  39.383  29.492   2.898
24312W        W87871  18.631  24.701   1.846
24313W        W87872  28.577  41.298   3.649
24314W        W87873  12.138  21.220  10.608
24315W        W87874   7.726  14.705   1.725
24316W        W87875  33.534  10.687   3.237
24317W        W87876  38.332  22.198  10.977
24318W        W87877  29.453  31.600   0.415
24319W        W87878   5.932   7.356  11.415
24320W        W87879  41.367   9.788  10.523
24321W        W87880  14.104  36.920  11.956
24322W        W87881   1.442   6.426  14.371
24323W        W87882  21.511   6.907  12.048
24324W        W87883  13.198  11.170   0.362
24325W        W87884  44.001   0.779  13.459
24326W        W87885  39.052  11.371   4.204
24327W        W87886  35.051  41.834   1.783
24328W        W87887  38.915  34.371  13.029
24329W        W87888  17.136  43.829   0.750
24330W        W87889  23.492  34.393  13.318
24331W        W87890   8.241  18.220  10.622
24332W        W87891  27.167  20.547  14.465
24333W        W87892  18.740  27.689   4.130
24334W        W87893  38.066   0.480   3.364
24335W        W87894  19.070  43.796  11.129
24336W        W87895  34.094  24.545  12.358
24337W        W87896   3.448  17.758   3.238
24338W        W87897  39.480  39.825  13.874
24339W        W87898  19.194  11.363  14.428
24340W        W87899   0.251   3.898   3.291
24341W        W87900  21.572  22.629  11.889
24342W        W87901   9.849   9.724   2.394
24343W        W87902  42.309  11.162   3.338
24344W        W87903   9.871   9.356  12.826
24345W        W87904  32.891  18.739   1.915
24346W        W87905  11.674   6.811  13.814
24347W        W87906  27.571  23.551   4.332
24348W        W87907  29.948  39.435   2.242
24349W        W87908  25.470  27.569   3.669
24350W        W87909  33.064  28.998  12.549
24351W        W87910  29.524  14.200   0.799
24352W        W87911  41.833  17.570   3.250
24353W        W87912  42.029  40.953  11.491
24354W        W87913  18.262  23.239  11.965
24355W        W87914  27.041  31.469  11.404
24356W        W87915   3.384  35.543   3.770
24357W        W87916   6.393   8.257   4.158
24358W        W87917  29.649  17.628   1.446
24359W        W87918  25.213  18.554  14.419
24360W        W87919   1.810  18.594  14.304
24361W        W87920   3.304  31.015  10.566
24362W        W87921  10.325  10.190  14.011
24363W        W87922   4.789  38.042   4.601
24364W        W87923  18.165  21.612  14.412
24365W        W87924  17.239  17.734  12.897
24366W        W87925   8.351   5.366   0.381
24367W        W87926  42.966  12.199  14.960
24368W        W87927   7.281  44.417   4.318
24369W        W87928   0.831  35.460   1.896
24370W        W87929  23.211  25.167  11.463
24371W        W87930  18.766  26.079  12.393
24372W        W87931  13.702  39.417   4.810
24373W        W87932  23.113  26.996  11.014
24374W        W87933  23.671  27.087  12.341
24375W        W87934  30.081  20.601   4.226
24376W        W87935  19.244   5.289   4.206
24377W        W87936  16.670  25.065   2.254
24378W        W87937  25.630  13.340  12.379
24379W        W87938  18.566  11.332   3.790
24380W        W87939  36.915  11.695  14.910
24381W        W87940  11.354  34.435  13.895
24382W        W87941  14.797   1.315   4.199
24383W        W87942  16.795  44.475   4.320
24384W        W87943  25.606  27.177   4.708
24385W        W87944  28.951  18.066   0.791
24386W        W87945  19.687  35.548  12.560
24387W        W87946  19.117  33.522  13.864
24388W        W87947   8.351  34.922  13.426
24389W        W87948  19.719  14.281  14.991
24390W        W87949  34.892  26.196   0.275
24391W        W87950  16.281  23.523  10.496
24392W        W87951  28.982  12.187  14.363
24393W        W87952   3.354  10.759  11.070
24394W        W87953  12.735   2.737  12.526
24395W        W87954  40.857   2.266   1.224
24396W        W87955  26.510   7.720  13.335
24397W        W87956  25.494  11.307   0.329
24398W        W87957   5.836   8.685   0.289
24399W        W87958  26.517  41.869   1.450
24400W        W87959  16.747   5.384   2.671
24401W        W87960  31.072  41.394   5.098
24402W        W87961  20.615  21.652   4.221
24403W        W87962  10.276  16.798   2.848
24404W        W87963  15.783  21.732  12.417
24405W        W87964  39.330   0.260   2.178
24406W        W87965   1.402  19.162  12.472
24407W        W87966  37.551  29.932   2.371
24408W        W87967   5.421  16.658   2.846
24409W        W87968  24.198  35.506   2.831
24410W        W87969  43.443  35.391  13.863
24411W        W87970   1.806  44.477   1.388
24412W        W87971  38.366   7.697   4.168
24413W        W87972   9.802   1.940   2.296
24414W        W87973  17.091  28.168   2.350
24415W        W87974   9.201  28.653   3.650
24416W        W87975  30.946  28.639   1.325
24417W        W87976  31.101  35.394   1.269
24418W        W87977  21.089  27.455  13.044
24419W        W87978  33.123  12.753  14.970
24420W        W87979  34.568  28.116  11.569
24421W        W87980   2.369  34.556   1.841
24422W        W87981  30.096  35.101  12.487
24423W        W87982  28.017  26.204   3.152
24424W        W87983  19.576   4.393   2.277
24425W        W87984  33.963  12.691  12.518
24426W        W87985  24.518  43.843  11.418
24427W        W87986  40.021   7.309  11.056
24428W        W87987  30.624   7.858  10.983
24429W        W87988  36.974  16.686   4.685
24430W        W87989  42.994  42.380  11.488
24431W        W87990  18.779  26.550  11.024
24432W        W87991  20.691   5.375   0.432
24433W        W87992   8.654  44.294  14.836
24434W        W87993  26.963  17.716  13.314
24435W        W87994   7.338   9.647  14.815
24436W        W87995   4.312  26.636  13.819
24437W        W87996  24.588  16.794   0.773
24438W        W87997   9.888  19.063  14.914
24439W        W87998  27.000  32.066   4.653
24440W        W87999  23.643  26.665  12.368
24441W        W88000  30.972  26.554   3.229
24442W        W88001  20.763  43.872   4.324
24443W        W88002  12.329   6.423  10.941
24444W        W88003  10.225  25.006   1.384
24445W        W88004  32.481  26.103   2.696
24446W        W88005  28.492  14.622  12.021
24447W        W88006  12.721  22.656   4.829
24448W        W88007  16.285  14.118   0.400
24449W        W88008  19.082  31.104   1.263
24450W        W88009  24.982  19.172  10.417
24451W        W88010  27.943  18.689  12.372
24452W        W88011   9.847   9.374   3.632
24453W        W88012  35.026  40.996   9.955
24454W        W88013  23.154  36.932   2.769
24455W        W88014   8.785  18.713  11.930
24456W        W88015  25.510  19.733  12.832
24457W        W88016  20.177  18.204  14.493
24458W        W88017  20.145  10.320  12.094
24459W        W88018  15.277  34.419   1.305
24460W        W88019  17.275  29.160  10.909
24461W        W88020  13.675  44.392   1.337
24462W        W88021  12.828   7.174   2.672
24463W        W88022  10.718  21.750  14.462
24464W        W88023  32.135  16.614  10.947
24465W        W88024  33.621  36.012   1.240
24466W        W88025  34.088  24.195  13.493
24467W        W88026   2.908  31.058   4.732
24468W        W88027  27.669  26.092  10.569
24469W        W88028  41.838   9.211   2.753
24470W        W88029  40.344  20.710   3.173
24471W        W88030  21.243  39.008   2.255
24472W        W88031   1.389  21.696  10.641
24473W        W88032   7.775  43.324  13.882
24474W        W88033   0.472  44.418  10.915
24475W        W88034  20.155  24.096   2.289
24476W        W88035  17.605  37.053  11.980
24477W        W88036  29.517  39.847  11.948
24478W        W88037   6.741  11.725   1.374
24479W        W88038   9.165   2.788  13.329
24480W        W88039  42.894  14.242  13.389
24481W        W88040   6.423   6.317  11.097
24482W        W88041  34.436  35.423   0.869
24483W        W88042  30.653  22.076   3.864
24484W        W88043   5.329  44.895   0.444
24485W        W88044  15.241  30.125   1.424
24486W        W88045  24.075  42.854  12.469
24487W        W88046   5.347   0.843   1.749
24488W        W88047   1.457  25.583  13.455
24489W        W88048   9.729  34.051  10.621
24490W        W88049  13.230  24.626  10.047
24491W        W88050   7.280  21.224   2.889
24492W        W88051  22.168  27.574   2.763
24493W        W88052  30.070  41.333   3.849
24494W        W88053   0.880  19.634  11.590
24495W        W88054  34.382  42.788   1.403
24496W        W88055  41.349  20.213  14.393
24497W        W88056  41.898  20.648   0.861
24498W        W88057  27.575  40.431   3.790
24499W        W88058  42.339  35.571  12.881
24500W        W88059   9.159  20.688   4.790
24501W        W88060  34.992  11.868   1.795
24502W        W88061  22.616  19.148   1.833
24503W        W88062  14.315  35.899  13.021
24504W        W88063  44.501  34.969   5.091
24505W        W88064  34.384   6.689   3.668
24506W        W88065  26.125  43.996  11.463
24507W        W88066  18.737  40.505   0.469
24508W        W88067  33.561  23.075   4.731
24509W        W88068  29.167  30.526   3.342
24510W        W88069  43.793  13.167  10.950
24511W        W88070  44.943  33.887  12.981
24512W        W88071  20.724  34.555  14.482
24513W        W88072   5.814  15.310   0.959
24514W        W88073  40.910  18.549  11.061
24515W        W88074   5.237   9.169  12.540
24516W        W88075  43.992  42.861   4.766
24517W        W88076  15.707   6.807  10.036
24518W        W88077  19.652   2.748  12.386
24519W        W88078   5.349   5.229   2.793
24520W        W88079  34.407  10.651   1.715
24521W        W88080  30.535  13.834   3.857
24522W        W88081  10.203  31.645  10.436
24523W        W88082  21.197  21.028  10.029
24524W        W88083  28.655   6.880   0.858
24525W        W88084  10.199   7.378   1.709
24526W        W88085  12.736   2.318   3.858
24527W        W88086  36.965  34.946   1.809
24528W        W88087  30.418  12.343  10.991
24529W        W88088  44.971  42.920   0.790
24530W        W88089  33.920   6.864  11.465
24531W        W88090   6.379   9.715   0.375
24532W        W88091  22.592   6.389  12.832
24533W        W88092   4.897  10.641  10.520
24534W        W88093  32.049  25.965   0.411
24535W        W88094  18.072  13.221  14.000
24536W        W88095  34.385  40.511  12.071
24537W        W88096   0.923   0.457  13.500
24538W        W88097   2.447  25.704   0.892
24539W        W88098   5.766  11.285   3.775
24540W        W88099  20.046   9.823   3.355
24541W        W88100  13.165   8.359  14.311
24542W        W88101  15.589  42.826   1.744
24543W        W88102  30.058  28.503   2.247
24544W        W88103  31.997  10.286  10.515
24545W        W88104  28.584  40.979  10.941
24546W        W88105  10.836  34.931  13.844
24547W        W88106   4.721  25.197   3.738
24548W        W88107  43.942  44.259   3.684
24549W        W88108  38.032  37.846  14.343
24550W        W88109  33.438  22.154  12.437
24551W        W88110  44.990  24.605   1.900
24552W        W88111  35.076  32.478   2.387
24553W        W88112  28.990  39.474  12.351
24554W        W88113  19.668  10.788  12.020
24555W        W88114  44.397  27.943   2.689
24556W        W88115   1.332   9.712  11.518
24557W        W88116  31.971  37.474   0.746
24558W        W88117  32.923  38.908   0.837
24559W        W88118  31.526  18.627  14.944
24560W        W88119  26.084  31.593   1.768
24561W        W88120  41.503  20.136  11.977
24562W        W88121  43.443  26.523  11.431
24563W        W88122   7.232  19.082   4.701
24564W        W88123  15.191  35.099  12.899
24565W        W88124  32.917   1.463   3.180
24566W        W88125  10.152   9.781  11.989
24567W        W88126  38.569  25.026  14.358
24568W        W88127  20.651   0.457  14.971
24569W        W88128  17.670  22.074   0.800
24570W        W88129  29.592  33.517  12.450
24571W        W88130   0.487  33.418  12.081
24572W        W88131  34.407  25.175  13.309
24573W        W88132  27.189  18.214   0.467
24574W        W88133  21.114  34.990  14.866
24575W        W88134  30.125  20.755  13.500
24576W        W88135  44.310   3.439  11.034
24577W        W88136  10.665  10.160  13.453
24578W        W88137   8.849  20.039  13.938
24579W        W88138  14.785   2.852   4.284
24580W        W88139  28.663  18.194   0.959
24581W        W88140  33.535  30.018   2.249
24582W        W88141   6.688  13.319   9.968
24583W        W88142  39.943  29.590  13.977
24584W        W88143  11.738  38.008   1.813
24585W        W88144  39.010   1.463  14.508
24586W        W88145  16.277  44.479   2.716
24587W        W88146  42.308  15.250  10.420
24588W        W88147  39.914  23.126   0.752
24589W        W88148  21.230   1.373  11.062
24590W        W88149  20.150  13.753   0.401
24591W        W88150  20.625   5.702  12.550
24592W        W88151  40.435  27.623  11.058
24593W        W88152  15.683  35.492   2.769
24594W        W88153  42.516   5.821  11.103
24595W        W88154  36.466  21.687  11.508
24596W        W88155  38.435  40.442  13.979
24597W        W88156  30.067  39.903  11.860
24598W        W88157   4.278  28.008   0.366
24599W        W88158  35.089   7.261  13.902
24600W        W88159   2.791  43.424  12.874
24601W        W88160  36.026  34.895  11.490
24602W        W88161   3.225  18.718  10.603
24603W        W88162  38.065   5.439   0.421
24604W        W88163  18.621  17.087  11.873
24605W        W88164  23.525  34.466   3.868
24606W        W88165  31.046  24.086   3.337
24607W        W88166   1.955  26.089   3.659
24608W        W88167  13.760  37.060  14.312
24609W        W88168  33.040  22.030  13.895
24610W        W88169   0.275  28.666  14.938
24611W        W88170  23.684  27.075  13.862
24612W        W88171  31.932  13.177  12.476
24613W        W88172  34.957  33.955   2.209
24614W        W88173   9.661  28.990  12.060
24615W        W88174  35.550   4.804  11.895
24616W        W88175   7.294  15.663   3.209
24617W        W88176   2.366  34.887  14.433
24618W        W88177   4.707  37.070  11.498
24619W        W88178  34.528  10.765   5.674
24620W        W88179   0.831   3.920  11.480
24621W        W88180   1.896  19.226   0.909
24622W        W88181   4.430   9.383   2.320
24623W        W88182  26.028   1.766  13.854
24624W        W88183  17.760  40.005   3.821
24625W        W88184  27.949  29.520  13.324
24626W        W88185  37.997   8.364  10.986
24627W        W88186  31.441  43.018  14.778
24628W        W88187  42.848  44.985  12.858
24629W        W88188  24.194   6.316   4.750
24630W        W88189  42.856  37.509   2.728
24631W        W88190  26.108  35.899   1.781
24632W        W88191  23.122  33.622  13.950
24633W        W88192  42.960  23.010   1.725
24634W        W88193  24.147   5.284  14.425
24635W        W88194  35.061  33.994  14.460
24636W        W88195  16.203  29.561  13.320
24637W        W88196   4.385  32.439   1.918
24638W        W88197  37.377  43.865  11.419
24639W        W88198  32.983  10.815   0.761
24640W        W88199  35.381  33.519   5.737
24641W        W88200  19.740  26.031  11.577
24642W        W88201  41.830  31.142   0.885
24643W        W88202   5.780  42.483  14.419
24644W        W88203   6.896  10.814  14.824
24645W        W88204   3.352  12.817   2.268
24646W        W88205  32.906   7.810   2.667
24647W        W88206  20.092  10.784   1.745
24648W        W88207  44.758  33.878  12.499
24649W        W88208  12.127  28.530  14.954
24650W        W88209   7.856  11.366   2.858
24651W        W88210  29.110  33.051  10.459
24652W        W88211  21.536  36.917  11.082
24653W        W88212  41.921  42.390  11.546
24654W        W88213  16.088  29.554   2.820
24655W        W88214  17.734  24.102   4.787
24656W        W88215  44.851  44.334   4.751
24657W        W88216   0.446  36.572   4.792
24658W        W88217  42.913   4.206  11.550
24659W        W88218   7.681  37.488   0.347
24660W        W88219   6.895   6.680  11.895
24661W        W88220  32.564  29.595   1.370
24662W        W88221  14.763  27.626  10.545
24663W        W88222  26.595  18.642  14.892
24664W        W88223  41.813  33.530   1.413
24665W        W88224  14.612  40.980  12.025
24666W        W88225  22.627   8.204  13.917
24667W        W88226  44.885  31.438  11.387
24668W        W88227  44.920   9.363  12.431
24669W        W88228  28.139   3.354  10.891
24670W        W88229   9.164  18.718  12.041
24671W        W88230  36.465  33.566   1.220
24672W        W88231  10.872  16.583  12.475
24673W        W88232  41.036  18.690   1.877
24674W        W88233  28.641   4.921  13.486
24675W        W88234  30.468   3.833  10.466
24676W        W88235  18.785  31.515  12.539
24677W        W88236   5.197   3.873  12.839
24678W        W88237   3.386  32.058  13.976
24679W        W88238  36.495  11.135  12.518
24680W        W88239  11.215   6.270   0.376
24681W        W88240  29.017  13.188   4.829
24682W        W88241   4.876  10.768  11.390
24683W        W88242  37.040   9.285  11.984
24684W        W88243  29.498   7.868  14.813
24685W        W88244  26.968   2.229   4.757
24686W        W88245  15.271   6.682   3.739
24687W        W88246  25.638  10.153   1.880
24688W        W88247  38.012  37.907  11.930
24689W        W88248  24.690   1.908   0.880
24690W        W88249   6.334   9.828   2.725
24691W        W88250  14.208  36.912   2.266
24692W        W88251   6.344   6.285  14.990
24693W        W88252   2.427  37.839   2.392
24694W        W88253  37.874  10.250  14.354
24695W        W88254  18.183  25.059   3.383
24696W        W88255  44.890  44.997  11.407
24697W        W88256   0.316  14.649   1.350
24698W        W88257  24.668   3.928  14.760
24699W        W88258   3.838  37.421   0.743
24700W        W88259  11.210  44.753   2.694
24701W        W88260   0.311   9.237   3.261
24702W        W88261   1.280   2.721   4.805
24703W        W88262  22.013  11.725  11.606
24704W        W88263   7.752  28.162   1.819
24705W        W88264  40.000  37.411  13.957
24706W        W88265   0.361  38.925   3.775
24707W        W88266  34.945   7.816  12.439
24708W        W88267  12.683  28.494   2.412
24709W        W88268  17.186  41.482  11.437
24710W        W88269   3.812   0.868   0.884
24711W        W88270  26.015  15.726  11.018
24712W        W88271  35.531   8.185   1.744
24713W        W88272  20.588  40.815  11.475
24714W        W88273  29.918  10.711  14.316
24715W        W88274   1.853  30.532  14.455
24716W        W88275  24.648  28.155  11.575
24717W        W88276  34.410  23.999  14.406
24718W        W88277  13.819  21.096  10.973
24719W        W88278  17.291   6.716  12.427
24720W        W88279  40.899  22.079   2.315
24721W        W88280  44.006  23.068   4.806
24722W        W88281   3.863  30.076   0.277
24723W        W88282   5.405   6.826  13.984
24724W        W88283   7.275  14.172  11.000
24725W        W88284  21.123  32.451   0.338
24726W        W88285  35.064  35.002   4.749
24727W        W88286  26.988  12.181  10.600
24728W        W88287  39.388  19.621   2.763
24729W        W88288  34.900   1.815   2.237
24730W        W88289  35.559  44.768   1.786
24731W        W88290  35.045  44.349   3.384
24732W        W88291  17.115   2.457   1.299
24733W        W88292  32.928  44.361  12.840
24734W        W88293  19.668  23.217  11.076
24735W        W88294  22.603  21.017   3.719
24736W        W88295  14.155  42.317  10.421
24737W        W88296   7.269  43.489  10.419
24738W        W88297   0.883  26.988  14.898
24739W        W88298  25.033  27.542  11.909
24740W        W88299   6.357  35.364   2.203
24741W        W88300  22.577  34.561  11.870
24742W        W88301  38.822  21.159  13.877
24743W        W88302   0.775   1.858   0.737
24744W        W88303  41.909  26.547   4.702
24745W        W88304   5.774   4.226   4.164
24746W        W88305  26.972  36.009  11.021
24747W        W88306  34.494  44.303  10.557
24748W        W88307  12.185  16.283   4.329
24749W        W88308  31.945  21.211  13.819
24750W        W88309  21.632  29.127   2.248
24751W        W88310   8.726  33.508   0.739
24752W        W88311  29.109   4.401   0.891
24753W        W88312  24.990   9.360   0.243
24754W        W88313   8.781  29.477   5.203
24755W        W88314   4.307  11.814   4.646
24756W        W88315  27.669   6.370   4.755
24757W        W88316  37.448  19.164   4.117
24758W        W88317  10.832  19.268   0.953
24759W        W88318   1.814   9.777  13.441
24760W        W88319   0.469  14.643   2.230
24761W        W88320  20.189  15.694  12.870
24762W        W88321   0.403  27.950  10.560
24763W        W88322  30.484  44.442  10.974
24764W        W88323  38.023  20.135  13.439
24765W        W88324  29.651   0.258  11.515
24766W        W88325  33.940  44.271  11.896
24767W        W88326  44.842  41.381   3.151
24768W        W88327   4.227  28.571   1.320
24769W        W88328  20.235   0.835   0.286
24770W        W88329  22.607  11.834   4.678
24771W        W88330   9.198  23.133   4.833
24772W        W88331   6.216  18.755   4.283
24773W        W88332  41.021  37.949   0.838
24774W        W88333  11.156   9.813  11.885
24775W        W88334  42.382  42.893  14.983
24776W        W88335  20.731  13.846   2.787
24777W        W88336  18.050  32.887  11.003
24778W        W88337   2.858  18.227   0.848
24779W        W88338  15.234  27.584  11.440
24780W        W88339  39.953  18.720  13.324
24781W        W88340  11.745   6.230   5.229
24782W        W88341  19.691  34.120  12.527
24783W        W88342  40.485  24.166   3.779
24784W        W88343  20.747  19.589   1.352
24785W        W88344  15.143  20.201   0.440
24786W        W88345  35.437  42.003   0.930
24787W        W88346  35.359   2.428   0.293
24788W        W88347  24.621   6.364   3.224
24789W        W88348  42.323  37.874   0.767
24790W        W88349  20.161  12.217  12.355
24791W        W88350   9.267   1.891   4.254
24792W        W88351   8.191  29.019  14.368
24793W        W88352  28.643  41.961   0.425
24794W        W88353  24.573  41.321   4.826
24795W        W88354  24.669  43.833   1.244
24796W        W88355  26.057  36.088  12.550
24797W        W88356  43.921  33.102  12.825
24798W        W88357  36.441  23.701   3.331
24799W        W88358   8.749   4.883   3.815
24800W        W88359   1.825  40.947  13.917
24801W        W88360  11.352  19.733  14.296
24802W        W88361  10.735  37.471   3.718
24803W        W88362  44.310  25.580   1.888
24804W        W88363   2.393  24.075   5.209
24805W        W88364  42.943  11.164   4.649
24806W        W88365  22.242  32.922  12.385
24807W        W88366  17.665   4.438  14.329
24808W        W88367  19.550   3.392   1.373
24809W        W88368  43.811  13.255  13.543
24810W        W88369  26.553  41.538   4.808
24811W        W88370   8.286   0.975   4.355
24812W        W88371  15.298  11.370  12.829
24813W        W88372  36.975   7.814  14.802
24814W        W88373   3.374  25.711   1.817
24815W        W88374  40.993  22.042  11.120
24816W        W88375  16.662  13.676   0.439
24817W        W88376  12.150  16.611   2.354
24818W        W88377  20.222  12.196  12.968
24819W        W88378  24.554  19.638   3.677
24820W        W88379   5.788  18.209  11.905
24821W        W88380  40.420  21.037  13.035
24822W        W88381  41.014  37.404   4.629
24823W        W88382  40.359  29.564  12.858
24824W        W88383  40.843  10.763  11.954
24825W        W88384  29.175  42.370  13.502
24826W        W88385  28.938  21.264  12.559
24827W        W88386  31.009  23.526  12.060
24828W        W88387  40.926   6.415   3.676
24829W        W88388   9.865  15.189   1.346
24830W        W88389  35.420  31.105  12.856
24831W        W88390  34.551  16.108  10.530
24832W        W88391  39.381  36.435   1.748
24833W        W88392  27.004  43.983  11.062
24834W        W88393  27.162  10.348  12.519
24835W        W88394  41.043  44.856   0.403
24836W        W88395  17.306  17.264  14.485
24837W        W88396  18.127  30.551  12.027
24838W        W88397  37.997   2.888   0.784
24839W        W88398   6.332  41.428  13.887
24840W        W88399  15.648   6.274   3.869
24841W        W88400  34.003  13.701   1.370
24842W        W88401  21.729  41.034   2.884
24843W        W88402  44.934  37.456  13.474
24844W        W88403  29.957  17.236   0.457
24845W        W88404  25.586  32.460   3.790
24846W        W88405  32.044  12.131   0.804
24847W        W88406  35.438  30.642  14.788
24848W        W88407  21.131  35.972   9.966
24849W        W88408  17.188   4.804  14.833
24850W        W88409  38.959  10.755  10.934
24851W        W88410  21.070   5.753   1.388
24852W        W88411   5.697  40.856   3.630
24853W        W88412  33.436   2.923  14.786
24854W        W88413  34.992  27.950   0.837
24855W        W88414  38.549   9.328  14.288
24856W        W88415  15.739  27.969  10.970
24857W        W88416  43.332  28.007  13.889
24858W        W88417   2.384  39.502   3.294
24859W        W88418  14.296  19.271   3.277
24860W        W88419  37.043  20.675  11.017
24861W        W88420  37.337  25.990   0.378
24862W        W88421  10.277  19.088   0.255
24863W        W88422  31.517   5.829   4.180
24864W        W88423   8.359   0.764  11.570
24865W        W88424  14.097  22.556   4.716
24866W        W88425  22.012  11.245  12.951
24867W        W88426  29.611  32.962  10.514
24868W        W88427  25.713  34.952  10.541
24869W        W88428  10.803  26.982  11.402
24870W        W88429  11.626  32.633   3.846
24871W        W88430  11.187  31.903   1.898
24872W        W88431  16.083  21.570   1.425
24873W        W88432  23.120  16.090   4.290
24874W        W88433  14.643   6.694   4.224
24875W        W88434  37.458  32.952  14.405
24876W        W88435  36.067  32.451   1.266
24877W        W88436  16.784   3.728  13.311
24878W        W88437  11.814   9.293  14.411
24879W        W88438   8.386  33.129  10.636
24880W        W88439  14.730  10.774  12.074
24881W        W88440  30.578   8.800  14.994
24882W        W88441   8.666   5.275   2.886
24883W        W88442  14.127  15.771  12.992
24884W        W88443  24.071  37.363   9.983
24885W        W88444  37.366  34.084  12.576
24886W        W88445  21.261  36.364   3.836
24887W        W88446  20.222  40.460  12.083
24888W        W88447  30.614  11.364   1.878
24889W        W88448  43.904  12.198   2.181
24890W        W88449  33.429   5.920  14.913
24891W        W88450  35.039  42.314   4.649
24892W        W88451  10.721   5.759  12.516
24893W        W88452  40.959  22.722   1.333
24894W        W88453  24.503   1.258  14.373
24895W        W88454  16.287  44.822  13.017
24896W        W88455  26.592   5.776  10.471
24897W        W88456   6.869   5.781   4.269
24898W        W88457  17.248  14.827   2.350
24899W        W88458  28.641  17.607   0.325
24900W        W88459  14.337  11.214   3.210
24901W        W88460  13.633  23.020   9.964
24902W        W88461  23.673  33.997   3.711
24903W        W88462   6.745  22.252   1.217
24904W        W88463  34.535  32.413   4.337
24905W        W88464  22.545  41.920   0.817
24906W        W88465   2.259  24.205   4.602
24907W        W88466   1.951  44.994  14.436
24908W        W88467  38.923  32.112  13.424
24909W        W88468  27.122   9.737   2.758
24910W        W88469  24.628  44.787   4.645
24911W        W88470   9.881  21.548  12.341
24912W        W88471  23.165  35.418  10.613
24913W        W88472   8.759  14.701  13.312
24914W        W88473   6.399   3.284   2.822
24915W        W88474  44.376  17.151   0.869
24916W        W88475   7.207   5.704  13.527
24917W        W88476  19.546  19.192   2.275
24918W        W88477  42.486  28.454  10.413
24919W        W88478  16.772   9.725   4.765
24920W        W88479  35.446  34.517  13.465
24921W        W88480  32.089   0.492  13.412
24922W        W88481  41.014  39.405   1.389
24923W        W88482  37.491  34.062   0.951
24924W        W88483   2.942  30.425   1.790
24925W        W88484  41.533  18.687  12.535
24926W        W88485   4.320  20.597  14.453
24927W        W88486  23.734  35.524   3.655
24928W        W88487  11.853  11.188   1.240
24929W        W88488  39.011   7.816   3.205
24930W        W88489  25.015   2.742   0.730
24931W        W88490  24.051   3.948  10.596
24932W        W88491  37.411  32.924  10.486
24933W        W88492  40.529  37.357  12.080
24934W        W88493  29.462  12.312   4.828
24935W        W88494  37.921  38.038  10.458
24936W        W88495  17.712  38.366   1.749
24937W        W88496   1.932  38.863   3.202
24938W        W88497  36.509   5.887  13.546
24939W        W88498  30.065  13.242   0.417
24940W        W88499  42.821  41.302  14.981
24941W        W88500   7.214  21.742   1.766
24942W        W88501  44.805  19.614  14.507
24943W        W88502  43.809  34.930   3.163
24944W        W88503  35.992   3.928   4.254
24945W        W88504  28.038  26.985  13.814
24946W        W88505  17.080  13.599  11.586
24947W        W88506   0.406  32.964  12.892
24948W        W88507  26.030  31.022  13.037
24949W        W88508  10.306   1.874  14.327
24950W        W88509  24.146   7.863  13.057
24951W        W88510  39.046  27.023   0.883
24952W        W88511   5.360  40.495  14.292
24953W        W88512  19.721   3.868   0.392
24954W        W88513  26.668  11.360   0.828
24955W        W88514   0.835  41.930  11.578
24956W        W88515   4.713  22.629  14.969
24957W        W88516  10.777  28.993  11.869
24958W        W88517  15.740   5.212  11.078
24959W        W88518  20.560   6.844   1.768
24960W        W88519  27.178  15.752  13.017
24961W        W88520   9.326  16.738  12.884
24962W        W88521  40.368  10.809   3.315
24963W        W88522  24.192   6.246  11.966
24964W        W88523  39.982  42.476   0.947
24965W        W88524   7.396  36.076   0.870
24966W        W88525  32.093  17.649   0.760
24967W        W88526  25.660   7.836  12.511
24968W        W88527  11.151  27.523   3.691
24969W        W88528  25.706   2.924   1.357
24970W        W88529   7.771  23.665   5.212
24971W        W88530  25.103  37.471  12.081
24972W        W88531  17.194  12.297   0.775
24973W        W88532  19.584  42.516   1.381
24974W        W88533   0.895  17.236  12.012
24975W        W88534  36.380  41.979   2.861
24976W        W88535  26.011  39.338   2.871
24977W        W88536  11.332  16.598   0.294
24978W        W88537  30.047   1.918   3.294
24979W        W88538  29.964   8.787  14.297
24980W        W88539  40.403  21.519   0.902
24981W        W88540   7.729  19.693   4.685
24982W        W88541  33.409   6.371   5.108
24983W        W88542  24.654  14.263  12.356
24984W        W88543  34.019  15.594  13.436
24985W        W88544  39.429  29.137   3.770
24986W        W88545  25.526  38.370   4.628
24987W        W88546   6.234  28.607  14.011
24988W        W88547  17.141  36.527  10.930
24989W        W88548  28.049  35.475   0.963
24990W        W88549  18.086  36.359   2.864
24991W        W88550  13.286   8.753   0.473
24992W        W88551   0.465   4.822  11.012
24993W        W88552  33.990  24.555   1.708
24994W        W88553  11.829  33.122   1.419
24995W        W88554  17.158  13.349  11.382
24996W        W88555  12.223   5.689  13.381
24997W        W88556  15.718  21.249   2.709
24998W        W88557  22.626  43.442   2.280
24999W        W88558  24.718  34.577   4.194
25000W        W88559   7.314   0.814   0.920
25001W        W88560  14.254  14.832   2.416
25002W        W88561  18.104  28.680  10.483
25003W        W88562  28.571  24.675   4.348
25004W        W88563   6.388   3.862   3.758
25005W        W88564   6.764  15.724  14.912
25006W        W88565  36.468  38.076   4.645
25007W        W88566  24.558  43.283  10.489
25008W        W88567  14.196  36.018   4.301
25009W        W88568  26.668  44.929   2.789
25010W        W88569  37.001  21.059   0.466
25011W        W88570   2.864   0.469   4.638
25012W        W88571  36.972  38.911   2.791
25013W        W88572  25.032   6.920   4.340
25014W        W88573   6.779  18.686   0.296
25015W        W88574  44.291  38.349   3.205
25016W        W88575  26.545   8.813   5.110
25017W        W88576  42.475  36.974  12.928
25018W        W88577  20.124  42.930  13.869
25019W        W88578  39.328  24.174   3.285
25020W        W88579   1.751  44.851   4.230
25021W        W88580  31.065  32.134   4.604
25022W        W88581   7.338  28.539   0.245
25023W        W88582  35.899  33.925   3.240
25024W        W88583   4.785   9.751   4.703
25025W        W88584   7.415   6.900   4.245
25026W        W88585   3.764   2.458   0.250
25027W        W88586  22.525  23.609   0.414
25028W        W88587  10.819  41.520  10.930
25029W        W88588  12.344   2.467  11.872
25030W        W88589  28.543  20.612  14.485
25031W        W88590  32.555   8.299   1.226
25032W        W88591  19.757   0.324   2.662
25033W        W88592  33.569   0.357  10.487
25034W        W88593   2.429   3.352  11.524
25035W        W88594  26.099   3.235  13.029
25036W        W88595  17.731   3.876  12.482
25037W        W88596   7.853  39.456  12.880
25038W        W88597  28.485   0.251  13.518
25039W        W88598  39.380  13.271  10.910
25040W        W88599  21.647   6.867  12.392
25041W        W88600  28.630  29.986   2.685
25042W        W88601  32.423   9.375  10.565
25043W        W88602   9.183  41.390   9.921
25044W        W88603  26.472  11.716   2.266
25045W        W88604  29.948  42.292  13.873
25046W        W88605  20.032  10.374  14.279
25047W        W88606   8.406  11.132  10.595
25048W        W88607  15.740  29.496   0.394
25049W        W88608   9.224   4.786   9.956
25050W        W88609  20.257  42.777  10.560
25051W        W88610  27.580  18.732   3.336
25052W        W88611   9.173  11.766  10.021
25053W        W88612   8.266   3.923  13.354
25054W        W88613  32.939  10.374   1.872
25055W        W88614  15.727  41.873  14.905
25056W        W88615  29.531  39.500  13.336
25057W        W88616  23.105  44.007  11.482
25058W        W88617  23.197  13.220  13.042
25059W        W88618  20.227  40.474  14.968
25060W        W88619  14.779  42.382   2.851
25061W        W88620  22.706  43.902  12.578
25062W        W88621  16.200  27.101   3.166
25063W        W88622  15.160  15.796   2.810
25064W        W88623  24.055  43.827  13.007
25065W        W88624   8.888  12.786   4.279
25066W        W88625  35.963  15.769  14.890
25067W        W88626  44.434   0.420   2.277
25068W        W88627  36.517  22.713  12.041
25069W        W88628   6.410  11.222  11.902
25070W        W88629  19.093  22.008   0.902
25071W        W88630   7.275  10.341   2.706
25072W        W88631  29.166  40.498   3.277
25073W        W88632  10.212  39.329  13.536
25074W        W88633  30.942  28.094   3.713
25075W        W88634  12.611   4.721   3.731
25076W        W88635   8.855   7.743   3.295
25077W        W88636   2.774   9.234  11.929
25078W        W88637   9.336  26.020  12.516
25079W        W88638  20.078  25.982  13.890
25080W        W88639  39.992  43.938  10.936
25081W        W88640  41.962  44.375   3.869
25082W        W88641  39.371  44.784   1.712
25083W        W88642  26.133  43.348  13.392
25084W        W88643  43.864  42.526  12.422
25085W        W88644   6.378  40.409  12.874
25086W        W88645   3.816  11.707  14.392
25087W        W88646  21.737  34.421  12.458
25088W        W88647   3.283  23.596  12.400
25089W        W88648   3.459  27.112   1.221
25090W        W88649  38.913  22.245   0.914
25091W        W88650  35.431  43.370  14.429
25092W        W88651   6.292  30.535   0.340
25093W        W88652  43.343   6.355  10.482
25094W        W88653  26.657  44.363   3.365
25095W        W88654   4.843  24.514   3.368
25096W        W88655   7.314  12.736  10.924
25097W        W88656  31.463  27.472   3.310
25098W        W88657  11.154  37.409  12.476
25099W        W88658  42.810  44.464   1.355
25100W        W88659  16.302  10.354   2.225
25101W        W88660  38.832  40.055   0.922
25102W        W88661  38.984  42.935  13.346
25103W        W88662  30.964  44.970   2.752
25104W        W88663  30.106  17.198  11.059
25105W        W88664   6.808   0.964  10.553
25106W        W88665  36.354  23.031  11.933
25107W        W88666  17.093  13.295  14.001
25108W        W88667   7.235  27.657   4.314
25109W        W88668  35.100  27.487  12.086
25110W        W88669   5.209  38.994  10.997
25111W        W88670  20.201  29.007  14.489
25112W        W88671  10.790   1.277  14.025
25113W        W88672   5.825  27.512  13.841
25114W        W88673  38.352  40.302   4.245
25115W        W88674  13.833  21.213  13.796
25116W        W88675  31.032  24.974   4.785
25117W        W88676   5.794   8.264  10.475
25118W        W88677  25.157   3.780   1.775
25119W        W88678  21.533   6.701   2.363
25120W        W88679  32.031  24.106   4.290
25121W        W88680   2.908  39.038   1.774
25122W        W88681  13.134  31.431  10.959
25123W        W88682  18.637  17.578  10.487
25124W        W88683  41.481  42.853  13.928
25125W        W88684  38.950  21.140  13.424
25126W        W88685   5.274  11.183  10.470
25127W        W88686  27.062  16.236   4.682
25128W        W88687  13.736   1.425  13.483
25129W        W88688  21.623  35.996   0.314
25130W        W88689  42.973  22.640   3.349
25131W        W88690  13.716  18.632  12.380
25132W        W88691  14.235   4.850  10.972
25133W        W88692  39.885  38.903   3.147
25134W        W88693  31.409  22.547  12.037
25135W        W88694  31.572  37.487   4.274
25136W        W88695  29.158  21.607   3.679
25137W        W88696   1.941   4.414   2.861
25138W        W88697  38.913  37.946  10.566
25139W        W88698  25.984   4.448  14.469
25140W        W88699  22.204  37.841   2.830
25141W        W88700  39.992   4.334   1.247
25142W        W88701  24.216  34.398  12.079
25143W        W88702   1.483   5.303   4.779
25144W        W88703  26.629  32.580  10.460
25145W        W88704   0.882  32.917  12.079
25146W        W88705   1.358  37.373  10.441
25147W        W88706  26.118  15.217   1.390
25148W        W88707  23.533  38.034   3.648
25149W        W88708   5.409  34.462  13.535
25150W        W88709   9.345  30.470  13.447
25151W        W88710  31.979  27.552   2.303
25152W        W88711  28.638   1.301   4.833
25153W        W88712  27.603  36.899   3.201
25154W        W88713   0.438   5.200  10.523
25155W        W88714   5.860   3.753  14.429
25156W        W88715  23.097  32.988   0.956
25157W        W88716  20.254   6.772  10.910
25158W        W88717  11.312  23.515  12.552
25159W        W88718  22.641  31.457   4.610
25160W        W88719   1.237   5.362  10.538
25161W        W88720  28.525  10.185  14.835
25162W        W88721   9.781  24.161   1.223
25163W        W88722  33.608  37.985   4.342
25164W        W88723  32.595  39.872  11.913
25165W        W88724   2.928  44.755   1.746
25166W        W88725  39.027   5.921   0.342
25167W        W88726  12.613  33.563   4.247
25168W        W88727  26.584  24.553   3.338
25169W        W88728   3.303  23.236  10.469
25170W        W88729  40.383  41.799   1.292
25171W        W88730  21.172  16.084   4.670
25172W        W88731  27.083  37.979   0.356
25173W        W88732  29.566  13.303   3.309
25174W        W88733  21.657   8.203  13.337
25175W        W88734   6.856  14.288   2.190
25176W        W88735  15.694  15.637   0.312
25177W        W88736  14.324  16.609   0.863
25178W        W88737  25.533   2.434   0.956
25179W        W88738   7.810  30.045  12.831
25180W        W88739   4.241   3.236  13.806
25181W        W88740  18.732  15.705  14.883
25182W        W88741  30.074   0.879   4.696
25183W        W88742   9.752  11.131   4.686
25184W        W88743   1.944  10.143  10.575
25185W        W88744  14.832  17.226  10.989
25186W        W88745  18.277  10.322   2.400
25187W        W88746   9.844  17.199  14.420
25188W        W88747   4.717  21.708  12.045
25189W        W88748  15.725  31.499  14.964
25190W        W88749  21.101  20.548   1.317
25191W        W88750  12.203  37.019   9.547
25192W        W88751  14.639   5.242   3.335
25193W        W88752   7.867  39.384  12.546
25194W        W88753  34.522  19.740  14.281
25195W        W88754  33.099   7.224   1.712
25196W        W88755  16.703   2.757  14.310
25197W        W88756  40.424   1.854   2.766
25198W        W88757  14.784  11.249  10.582
25199W        W88758  25.115  35.095  11.992
25200W        W88759  17.771  36.020  13.364
25201W        W88760   1.893   1.764   0.372
25202W        W88761   3.934   1.874  13.850
25203W        W88762  42.309  33.557  14.973
25204W        W88763   5.802   6.292   1.390
25205W        W88764  16.730   1.747  13.896
25206W        W88765  18.113  42.893  13.535
25207W        W88766   0.387  30.602   3.709
25208W        W88767  43.872  24.164   3.801
25209W        W88768  32.513  18.557   3.655
25210W        W88769  23.575  30.011  12.457
25211W        W88770  36.968  25.473  11.432
25212W        W88771  43.978  31.500  11.971
25213W        W88772  37.488  31.948  14.496
25214W        W88773  17.557   2.238   4.195
25215W        W88774  38.882  39.911   4.189
25216W        W88775  29.995  40.041   4.191
25217W        W88776  18.225  42.910   0.778
25218W        W88777  31.473  27.578   3.803
25219W        W88778   7.395  24.550  13.808
25220W        W88779  29.961  23.038   2.222
25221W        W88780  40.377  23.590  14.353
25222W        W88781  13.214  21.630  11.985
25223W        W88782   7.815  20.145   4.604
25224W        W88783  18.620  14.621  11.419
25225W        W88784  13.685  31.022  13.800
25226W        W88785  42.284  36.948  14.952
25227W        W88786  18.083   7.721  11.051
25228W        W88787  29.636  28.177   0.301
25229W        W88788  11.780  22.586  13.389
25230W        W88789  12.315   9.851  13.865
25231W        W88790   1.926  38.039   3.733
25232W        W88791  15.763   1.412  12.429
25233W        W88792   6.311  18.096   1.328
25234W        W88793  28.521   9.700  12.342
25235W        W88794   4.279  21.588   3.278
25236W        W88795   7.898  26.658   5.153
25237W        W88796  42.973  40.548   1.256
25238W        W88797  19.741  11.648   3.178
25239W        W88798   8.381  12.276  12.352
25240W        W88799  21.017  34.039  11.433
25241W        W88800  17.150  30.466  11.110
25242W        W88801  36.355  34.911   4.271
25243W        W88802   9.847  41.977  10.951
25244W        W88803  18.561  27.587   0.924
25245W        W88804   2.794   3.357  13.859
25246W        W88805  10.379  19.725   2.891
25247W        W88806  23.710  30.067   3.782
25248W        W88807   7.243  13.664  11.874
25249W        W88808  22.613  18.071  10.404
25250W        W88809  27.064  43.858  10.526
25251W        W88810  17.601  34.436  10.583
25252W        W88811  24.019  33.458   0.374
25253W        W88812  20.119  35.947   5.220
25254W        W88813   6.835   4.342  14.939
25255W        W88814   7.685  22.548   5.282
25256W        W88815  16.579  17.132   0.428
25257W        W88816  27.665  39.367   0.331
25258W        W88817  17.590  42.452  10.963
25259W        W88818   5.755   8.166   3.257
25260W        W88819  12.714  29.046   4.629
25261W        W88820   5.826  17.247   3.267
25262W        W88821  35.031  14.236  12.383
25263W        W88822  29.102   1.393   2.288
25264W        W88823  13.322  36.987  11.430
25265W        W88824   4.387  27.596  13.819
25266W        W88825  39.915  21.620  14.985
25267W        W88826  15.235  37.896  11.491
25268W        W88827  34.614   1.441  10.448
25269W        W88828  40.492  42.012   2.750
25270W        W88829  39.050   0.949  13.524
25271W        W88830   5.249  34.476  10.539
25272W        W88831  44.785  41.489   0.959
25273W        W88832  11.725  41.906   3.779
25274W        W88833  30.430  42.502  12.497
25275W        W88834  36.957  25.541  10.977
25276W        W88835  24.138  21.188   0.952
25277W        W88836   3.437  15.123   3.194
25278W        W88837   8.254  15.240  10.632
25279W        W88838  36.532  18.248   0.394
25280W        W88839   6.755   9.352  14.759
25281W        W88840  12.714  43.916   2.304
25282W        W88841  15.213  34.422   4.191
25283W        W88842   6.204  30.972   4.127
25284W        W88843  41.794  21.527  14.868
25285W        W88844  12.833  30.120  11.122
25286W        W88845   9.379  36.057   1.916
25287W        W88846  44.332  40.345   1.367
25288W        W88847  33.926   2.353  12.563
25289W        W88848  39.350  38.501   0.258
25290W        W88849  23.057  37.965  11.860
25291W        W88850  28.526  38.342  11.398
25292W        W88851  31.517   9.884   1.392
25293W        W88852  11.693  37.429  11.372
25294W        W88853  14.311  36.014   1.822
25295W        W88854  28.953  14.767  14.911
25296W        W88855  37.003  28.505   0.352
25297W        W88856  43.883   8.324   4.605
25298W        W88857  21.028  24.131   1.403
25299W        W88858  31.078  27.047   4.129
25300W        W88859  16.712  44.988  12.406
25301W        W88860  30.514  25.659   4.655
25302W        W88861  41.928  26.561  11.492
25303W        W88862  44.432  29.994   3.164
25304W        W88863  39.467  28.969  10.555
25305W        W88864  39.486  27.052   3.344
25306W        W88865   2.768  22.164   0.346
25307W        W88866  30.004  22.178   1.776
25308W        W88867  31.525  37.379  11.006
25309W        W88868   3.290  35.930   2.339
25310W        W88869  27.671  37.929  13.811
25311W        W88870   6.807  36.552  14.426
25312W        W88871  29.060  13.618  14.316
25313W        W88872  28.446  29.625  10.918
25314W        W88873  14.658  37.035   1.338
25315W        W88874  33.103  19.255  14.828
25316W        W88875  41.291  38.449  13.005
25317W        W88876  21.634  19.188  12.412
25318W        W88877  18.206   3.282  14.323
25319W        W88878   3.773  19.142   3.791
25320W        W88879  41.345  23.505   1.700
25321W        W88880  21.550   1.905   4.207
25322W        W88881  13.162  37.497   1.357
25323W        W88882  13.330  16.230  13.343
25324W        W88883  13.136  22.066  10.106
25325W        W88884  26.993  44.893  10.556
25326W        W88885  15.165  31.098   0.476
25327W        W88886  43.299   6.370  14.020
25328W        W88887  17.218  13.290   4.717
25329W        W88888   5.847  35.079  12.982
25330W        W88889  22.222  33.910  14.978
25331W        W88890  44.288  22.044  12.895
25332W        W88891  32.463  19.067  14.854
25333W        W88892  20.629  33.557  11.434
25334W        W88893  15.602  20.049  12.416
25335W        W88894  44.916  12.683  13.838
25336W        W88895  42.379  21.658   1.906
25337W        W88896   8.754  30.111  11.434
25338W        W88897  22.131  43.878  10.936
25339W        W88898  28.457  14.609  12.986
25340W        W88899  22.232  20.623   4.695
25341W        W88900   9.184  30.536  13.844
25342W        W88901  22.551  30.504   5.738
25343W        W88902  18.624   0.868   2.249
25344W        W88903  21.123   0.887   0.931
25345W        W88904  39.970  30.511  14.354
25346W        W88905  29.535  43.786  11.604
25347W        W88906  10.148  27.465  14.335
25348W        W88907  11.273  32.571   1.815
25349W        W88908  28.503   9.173   0.460
25350W        W88909  37.063  12.176   0.301
25351W        W88910   1.457  43.469   2.677
25352W        W88911  15.786   5.809  14.467
25353W        W88912   0.488  15.318  12.027
25354W        W88913  31.523   0.473  13.034
25355W        W88914  16.092  31.970  11.940
25356W        W88915  35.489  23.569   0.369
25357W        W88916  22.648  25.640  14.285
25358W        W88917  27.482  19.671   2.320
25359W        W88918   9.371   2.730   2.867
25360W        W88919  15.751  16.629   3.836
25361W        W88920  17.167  33.394   3.774
25362W        W88921  13.811  35.460  10.907
25363W        W88922  15.143  24.223  13.497
25364W        W88923   7.672  42.980   4.325
25365W        W88924  13.290   7.236   3.310
25366W        W88925  11.688   8.791   5.204
25367W        W88926   2.811  35.947   1.392
25368W        W88927  39.812  44.963   4.197
25369W        W88928  31.540  25.493  10.916
25370W        W88929  31.135  40.514   2.216
25371W        W88930   5.306  44.502   2.761
25372W        W88931  29.455  40.421  12.995
25373W        W88932  14.657   5.304   4.807
25374W        W88933  18.226  27.664   4.126
25375W        W88934  35.957  18.701  11.405
25376W        W88935  10.203  32.414  14.376
25377W        W88936  29.580   7.196  13.984
25378W        W88937  10.330  19.606   0.783
25379W        W88938  14.793  28.534  14.313
25380W        W88939   8.374  27.547  11.924
25381W        W88940  29.663  27.144   1.712
25382W        W88941   3.803  12.683  11.916
25383W        W88942  43.407  36.929   2.851
25384W        W88943   4.768  26.595  12.418
25385W        W88944  25.173  32.491   4.226
25386W        W88945  41.858  11.181   0.739
25387W        W88946  37.492   2.328  11.895
25388W        W88947   9.755  18.620  10.497
25389W        W88948  16.209  35.366   1.722
25390W        W88949  10.281  17.186  10.928
25391W        W88950  30.544   4.866  11.121
25392W        W88951  35.596  43.960   2.407
25393W        W88952  38.470   8.200  13.910
25394W        W88953  16.602   3.826  12.440
25395W        W88954  30.126  12.236   4.172
25396W        W88955   2.770  10.696   2.840
25397W        W88956   4.388   9.748   3.362
25398W        W88957  13.629  23.195   0.962
25399W        W88958  30.482  28.583  14.912
25400W        W88959   2.443  26.077   0.771
25401W        W88960   0.945  44.788  12.489
25402W        W88961  35.898   8.282   0.480
25403W        W88962  20.210  31.127   1.397
25404W        W88963   7.838   6.255   4.739
25405W        W88964  13.714  22.663   9.659
25406W        W88965  29.643  36.545  14.390
25407W        W88966  15.234  37.478  12.039
25408W        W88967  43.775   6.765  12.364
25409W        W88968  25.174  38.516  10.630
25410W        W88969  42.393   8.707  11.997
25411W        W88970   8.322  15.747   4.255
25412W        W88971  22.659  30.064  11.014
25413W        W88972  20.175  20.555  14.842
25414W        W88973  12.653  11.744   3.831
25415W        W88974  33.511  30.592   1.306
25416W        W88975  33.972  20.596   1.812
25417W        W88976  34.410  42.908   0.741
25418W        W88977   7.211   6.219  10.888
25419W        W88978  19.625  12.855   3.334
25420W        W88979  12.660  31.111   1.877
25421W        W88980  39.997  14.755  13.826
25422W        W88981  34.461  14.618  13.401
25423W        W88982  18.609  38.364   3.750
25424W        W88983   7.908   1.750  14.350
25425W        W88984  11.329  41.964   4.340
25426W        W88985  10.311  24.006  12.014
25427W        W88986  37.580  30.924  10.535
25428W        W88987  40.485  21.584   3.275
25429W        W88988  38.061   7.411  13.794
25430W        W88989  41.296  28.652   2.842
25431W        W88990  40.848  42.515  11.532
25432W        W88991  25.980  38.862  14.286
25433W        W88992  34.863  30.554  13.954
25434W        W88993  29.665  26.696  13.403
25435W        W88994  32.058  40.820   1.289
25436W        W88995   2.247   4.332  12.084
25437W        W88996  43.997  23.570   0.777
25438W        W88997   0.752  27.472  10.412
25439W        W88998  41.461  21.032   3.849
25440W        W88999  43.349  15.763   4.600
25441W        W89000  30.602  23.646  14.383
25442W        W89001  44.007  38.384   4.717
25443W        W89002  34.992  22.535  11.601
25444W        W89003   1.806  33.551   0.837
25445W        W89004   8.803  16.088  13.440
25446W        W89005  41.363  19.280  14.955
25447W        W89006  39.522   4.350  13.358
25448W        W89007   7.387  39.869   0.775
25449W        W89008  25.130  19.093   4.811
25450W        W89009  24.108  37.970  11.426
25451W        W89010  29.471   2.874   1.437
25452W        W89011  24.527  40.357  11.927
25453W        W89012  29.665  11.705   5.214
25454W        W89013  31.591  19.593  11.916
25455W        W89014  37.862  20.142   4.123
25456W        W89015  34.955   3.355  10.099
25457W        W89016  36.029  18.075   3.261
25458W        W89017  15.129  41.958   2.745
25459W        W89018  34.417  39.556  14.993
25460W        W89019  10.692  11.845  13.039
25461W        W89020  16.667  10.324   0.858
25462W        W89021  32.631  43.487  11.923
25463W        W89022  33.932   2.951  12.012
25464W        W89023  39.899  39.340   2.411
25465W        W89024   7.187   9.749   2.326
25466W        W89025   0.987  40.381   0.860
25467W        W89026  28.966  41.911   3.740
25468W        W89027  30.954  11.170   3.267
25469W        W89028  14.145  22.721   9.585
25470W        W89029   4.270  43.002   4.312
25471W        W89030  15.306  28.443  12.085
25472W        W89031  42.938  19.690   1.414
25473W        W89032  36.359  11.771   4.745
25474W        W89033  33.929  39.469   3.146
25475W        W89034   4.925  43.443   9.990
25476W        W89035  10.265  26.102  11.529
25477W        W89036  41.403  40.917   0.378
25478W        W89037  37.053   2.937   2.803
25479W        W89038  10.345  39.356  14.388
25480W        W89039  32.084  37.444   3.742
25481W        W89040   2.390  24.985  10.945
25482W        W89041  21.161   9.649  11.400
25483W        W89042  10.819  41.986  11.895
25484W        W89043  27.494  37.563  14.974
25485W        W89044  29.424  43.307   1.755
25486W        W89045  36.023   8.327   1.785
25487W        W89046  18.783   1.882   0.948
25488W        W89047  21.738  43.349  14.327
25489W        W89048  44.352  23.661  12.526
25490W        W89049  41.939  16.670  10.957
25491W        W89050  23.242  37.857  11.418
25492W        W89051   4.415  22.519   1.822
25493W        W89052  36.522   7.775  10.031
25494W        W89053  22.159  28.952   0.350
25495W        W89054  31.641   1.890   4.335
25496W        W89055  22.141  35.988   3.238
25497W        W89056  28.459  41.402  13.390
25498W        W89057  24.185  16.807  13.338
25499W        W89058  31.593  39.003  13.057
25500W        W89059  12.236  34.420  13.419
25501W        W89060  17.680  29.499   2.846
25502W        W89061  25.625   8.836   1.273
25503W        W89062  34.401  25.469   3.635
25504W        W89063   9.663  19.666   4.782
25505W        W89064  41.848  39.932  13.318
25506W        W89065  24.988   7.282   2.890
25507W        W89066  16.688  16.804   3.354
25508W        W89067  43.298  32.002  10.408
25509W        W89068  29.076  29.438   4.170
25510W        W89069  12.651  20.202  14.494
25511W        W89070  12.628  34.119  12.993
25512W        W89071  17.705  40.822   3.788
25513W        W89072  39.372  12.794  10.527
25514W        W89073  44.938  23.031  12.447
25515W        W89074  36.917  11.842   2.210
25516W        W89075  21.069  29.457  13.368
25517W        W89076  29.016  13.767  10.556
25518W        W89077   5.230  22.159   3.695
25519W        W89078  21.095  15.097   4.688
25520W        W89079  40.891  35.374   4.649
25521W        W89080  25.686   5.412   1.909
25522W        W89081   0.477   7.833   1.806
25523W        W89082  28.605  20.751   2.239
25524W        W89083  36.050   0.885   4.749
25525W        W89084  42.022  30.073  10.534
25526W        W89085   0.894   1.857   3.223
25527W        W89086   6.355  27.062  11.115
25528W        W89087   9.151  40.304   1.434
25529W        W89088  39.938   6.835   3.381
25530W        W89089  19.217  15.214  13.315
25531W        W89090  13.152   8.798  13.056
25532W        W89091  38.075   2.335  11.579
25533W        W89092  15.285  42.320  11.463
25534W        W89093   7.374  30.654  14.462
25535W        W89094  35.966   8.193   4.634
25536W        W89095  43.815  11.791  10.520
25537W        W89096  19.257  42.830   1.411
25538W        W89097   6.682  26.670   1.245
25539W        W89098  35.571  24.721  11.071
25540W        W89099   1.934  36.968   4.791
25541W        W89100  10.822  31.097  13.006
25542W        W89101  10.637  28.529  14.828
25543W        W89102  19.601  28.112  10.946
25544W        W89103  20.088  25.619   3.261
25545W        W89104  10.144   4.408   0.914
25546W        W89105  35.072  22.117  13.002
25547W        W89106  39.540  40.328   2.272
25548W        W89107  34.113  36.044  11.560
25549W        W89108  15.703  36.861   0.338
25550W        W89109  15.627  30.489  11.414
25551W        W89110  37.365  14.676  14.820
25552W        W89111   3.795  44.407  12.827
25553W        W89112  40.993  35.542   2.331
25554W        W89113  21.228   2.419   1.402
25555W        W89114  17.636  18.545   4.792
25556W        W89115   9.247   6.266  13.406
25557W        W89116  15.683   1.265   2.376
25558W        W89117  22.083  35.932  13.047
25559W        W89118  13.778  22.698   0.273
25560W        W89119  12.181  34.525  11.956
25561W        W89120  43.411  29.667   0.352
25562W        W89121  32.466  16.113   2.270
25563W        W89122   1.952   8.193  13.928
25564W        W89123   5.875  16.789   0.437
25565W        W89124   7.902  13.258  11.091
25566W        W89125  14.175   4.409  10.553
25567W        W89126  40.463  23.544  13.467
25568W        W89127  16.310  42.426   3.865
25569W        W89128  44.982  10.168  11.861
25570W        W89129   7.704  34.565  11.977
25571W        W89130  33.573  31.489   3.303
25572W        W89131  43.412  38.070   4.687
25573W        W89132  38.026   3.458  13.389
25574W        W89133   0.887  44.887  12.001
25575W        W89134  17.245  38.409  11.099
25576W        W89135  25.119  16.746   1.351
25577W        W89136   1.391  37.963   4.298
25578W        W89137  32.975  40.487  10.418
25579W        W89138  24.191  26.579   2.845
25580W        W89139  18.591  13.771  12.919
25581W        W89140  42.306  33.962   1.719
25582W        W89141  33.047   9.698  12.017
25583W        W89142  34.071  17.655  10.451
25584W        W89143  16.316  19.102   1.706
25585W        W89144  42.343   8.356  14.302
25586W        W89145  26.614  10.318  11.111
25587W        W89146  28.519  13.177  13.953
25588W        W89147  36.425  13.824  10.429
25589W        W89148  31.955  43.835  13.912
25590W        W89149  37.965  10.743  14.330
25591W        W89150   5.339  39.922   0.263
25592W        W89151   2.885  19.128  12.518
25593W        W89152   7.254  15.694  10.990
25594W        W89153  40.394  32.489   5.318
25595W        W89154  37.854  35.972  10.415
25596W        W89155  21.640  30.922   3.648
25597W        W89156  43.275  30.050   1.217
25598W        W89157  18.633  43.826  14.287
25599W        W89158  10.342   4.272   4.711
25600W        W89159  27.576  30.999  12.884
25601W        W89160  19.056  40.482   4.351
25602W        W89161  37.535  27.018   4.675
25603W        W89162  42.831   5.790   0.955
25604W        W89163   3.315  28.065   2.326
25605W        W89164  41.847  19.635  11.883
25606W        W89165  28.502  44.292   2.680
25607W        W89166  28.440  40.473   4.615
25608W        W89167  32.111   6.321  10.987
25609W        W89168  39.540  26.673   4.704
25610W        W89169  18.287  21.570   0.287
25611W        W89170  31.408  28.660  12.837
25612W        W89171  18.718   0.858   4.647
25613W        W89172   0.785  44.766  11.542
25614W        W89173   0.897  17.061  10.477
25615W        W89174   6.278  43.302  13.519
25616W        W89175  16.685  38.849   4.145
25617W        W89176   8.404   6.735  12.370
25618W        W89177  13.273  19.065  11.397
25619W        W89178   0.472  23.216  11.945
25620W        W89179  12.177  39.825   3.376
25621W        W89180  29.450  38.945   5.768
25622W        W89181   9.848  44.851  12.460
25623W        W89182  18.735  29.075   4.672
25624W        W89183  16.205  23.049   3.168
25625W        W89184   5.873  18.624  11.874
25626W        W89185  37.522   4.819  11.486
25627W        W89186   3.818  18.618   3.159
25628W        W89187   9.810  12.330   9.520
25629W        W89188  16.697  26.490  12.479
25630W        W89189   9.304  41.027   1.427
25631W        W89190  38.428  39.486  13.946
25632W        W89191  24.674  27.618   1.817
25633W        W89192  13.216  14.647   0.312
25634W        W89193  41.380   2.833   3.338
25635W        W89194  13.645   8.813  10.137
25636W        W89195  13.182   6.795  11.958
25637W        W89196  31.614  14.331  13.528
25638W        W89197  33.585  25.622  14.291
25639W        W89198   0.912  12.805  12.073
25640W        W89199  13.738  28.961   0.310
25641W        W89200  44.272   3.373   0.301
25642W        W89201   7.197  42.496  13.367
25643W        W89202  43.368  15.733  11.533
25644W        W89203   6.211  23.694   4.767
25645W        W89204  28.004  37.339  12.864
25646W        W89205  44.380  11.667   4.304
25647W        W89206  11.338  39.866   0.386
25648W        W89207   5.210  22.172  14.425
25649W        W89208  21.140  37.353  12.916
25650W        W89209  28.008  31.985   9.961
25651W        W89210  40.459  37.555   1.921
25652W        W89211  15.222  10.809  10.414
25653W        W89212  34.597   7.382  13.927
25654W        W89213  19.631  39.382   4.658
25655W        W89214  40.440   7.226   1.388
25656W        W89215  16.110  11.691   2.380
25657W        W89216  42.898  40.928   3.196
25658W        W89217  27.114  34.466  12.552
25659W        W89218  30.554  36.868  11.487
25660W        W89219  43.851   2.919  13.526
25661W        W89220  44.454   9.767  10.159
25662W        W89221  38.862  11.719  10.626
25663W        W89222  31.079  29.987   2.262
25664W        W89223  38.027  20.207  12.871
25665W        W89224  13.236  22.124   1.295
25666W        W89225   2.745  29.959  10.427
25667W        W89226   4.284   7.387  10.903
25668W        W89227  42.855  43.320  12.484
25669W        W89228  38.917  17.755   3.670
25670W        W89229  12.706   3.722   4.634
25671W        W89230  11.811  19.548  11.391
25672W        W89231  38.365  15.790   2.348
25673W        W89232  23.102  35.061   1.886
25674W        W89233  20.620  17.294  13.027
25675W        W89234  34.383   8.184   0.772
25676W        W89235  37.435  13.651  13.872
25677W        W89236  39.414  19.269   1.277
25678W        W89237  30.557  23.209  13.049
25679W        W89238   1.978  11.343  12.970
25680W        W89239  39.922   3.452   0.803
25681W        W89240   3.938  36.404   0.320
25682W        W89241  24.010   2.232  11.558
25683W        W89242  34.866  17.269   1.423
25684W        W89243  44.915   8.172   2.755
25685W        W89244   5.840   2.869  13.530
25686W        W89245   2.762  44.262   3.380
25687W        W89246  40.318  36.588  14.340
25688W        W89247  30.113  12.268  12.830
25689W        W89248  16.786  16.726   3.867
25690W        W89249  43.467  35.913  13.353
25691W        W89250   1.432  44.414   0.460
25692W        W89251  20.626  39.036   3.775
25693W        W89252   6.226  21.606  14.324
25694W        W89253  43.460   0.268   4.304
25695W        W89254  24.029   1.811  13.307
25696W        W89255  29.043  27.531  10.405
25697W        W89256  38.028  26.079  12.081
25698W        W89257  24.105  32.930   3.738
25699W        W89258  34.419  22.738   0.371
25700W        W89259  15.701  10.235   5.232
25701W        W89260  11.650  15.705   3.663
25702W        W89261  28.619  15.672   4.781
25703W        W89262  10.727  39.890   3.687
25704W        W89263  37.995  13.671  11.417
25705W        W89264  11.307  30.136   4.791
25706W        W89265  34.101  19.744   3.733
25707W        W89266  37.852  26.478  14.800
25708W        W89267   5.234  23.568   3.365
25709W        W89268  27.447  33.387  14.960
25710W        W89269   1.248  25.107   0.869
25711W        W89270  44.276   6.751   0.866
25712W        W89271  16.075   5.837  13.471
25713W        W89272  24.711  29.445   4.665
25714W        W89273  40.865  22.671   4.611
25715W        W89274  29.546  21.735  14.886
25716W        W89275  25.570  30.537  13.843
25717W        W89276   8.879  39.557   0.429
25718W        W89277   6.823  14.740   5.766
25719W        W89278   3.793  26.484   1.737
25720W        W89279  32.616   1.840   0.360
25721W        W89280  35.452  15.777  11.473
25722W        W89281  43.935  38.006   2.365
25723W        W89282  44.921  14.191   3.293
25724W        W89283   8.269  40.014  12.064
25725W        W89284   4.210  34.076  13.488
25726W        W89285   1.870  37.875   3.146
25727W        W89286   5.881  24.110   3.643
25728W        W89287  11.732  31.109   2.834
25729W        W89288  44.380  29.099  13.463
25730W        W89289  23.991  22.126   4.819
25731W        W89290  25.108  36.069   4.186
25732W        W89291  26.050  31.520   1.249
25733W        W89292  39.432  38.555   3.237
25734W        W89293   4.851  32.432   3.380
25735W        W89294  28.593  20.667   0.955
25736W        W89295   6.184  25.019  10.030
25737W        W89296  14.728  13.178  13.897
25738W        W89297  24.174  16.612   3.839
25739W        W89298  15.271  13.729  13.859
25740W        W89299  40.379  37.372  15.000
25741W        W89300  22.602  24.119   0.465
25742W        W89301  44.856  43.492   2.229
25743W        W89302  43.486  15.748   4.265
25744W        W89303  25.013  30.110   2.688
25745W        W89304  14.340  36.350   1.845
25746W        W89305  30.550  18.640   2.299
25747W        W89306  10.635  21.522   4.719
25748W        W89307  31.468  16.257  11.570
25749W        W89308  44.307   4.338  10.506
25750W        W89309  29.113  28.115   1.890
25751W        W89310  32.885  14.776  13.313
25752W        W89311  16.645  29.001   3.669
25753W        W89312  41.503  14.128  13.891
25754W        W89313  11.349  24.516  13.507
25755W        W89314  31.460   6.235  11.915
25756W        W89315  20.232  20.167  12.950
25757W        W89316  17.639  15.658  13.346
25758W        W89317  43.308   6.789   3.740
25759W        W89318  35.489  21.656   1.813
25760W        W89319  39.476  28.999   0.436
25761W        W89320  26.003  44.351   1.214
25762W        W89321   4.834  26.463  10.537
25763W        W89322  19.093  17.234   0.317
25764W        W89323  41.499  41.455  13.816
25765W        W89324  31.591   5.377  14.396
25766W        W89325   5.193  31.905  13.425
25767W        W89326  30.133   0.343   0.872
25768W        W89327  33.615  30.061  12.910
25769W        W89328  31.409  34.116  14.925
25770W        W89329   8.707   3.345  13.890
25771W        W89330   1.824  14.747   2.287
25772W        W89331  22.590   6.681   1.446
25773W        W89332   7.359  29.043  12.427
25774W        W89333  42.462  12.318   4.645
25775W        W89334   3.730   7.361   2.377
25776W        W89335  42.360  25.998   2.329
25777W        W89336   6.207  17.182  11.128
25778W        W89337  37.048  42.509  13.534
25779W        W89338  43.886  16.768  14.998
25780W        W89339  37.045  44.285  13.874
25781W        W89340  25.087  32.464   4.819
25782W        W89341  27.534  15.111   2.407
25783W        W89342   5.431  10.299  11.402
25784W        W89343  11.212  27.540  10.448
25785W        W89344  29.014  30.928   1.215
25786W        W89345   8.363   2.923  10.990
25787W        W89346  42.992  15.656  11.920
25788W        W89347  33.426  26.962  14.470
25789W        W89348   9.819  26.500  13.801
25790W        W89349   2.395  19.568   1.745
25791W        W89350  38.831  17.632   2.310
25792W        W89351  10.784   6.208  12.958
25793W        W89352  21.251  12.358  10.919
25794W        W89353   6.732  35.896   2.188
25795W        W89354  13.219  30.924  12.864
25796W        W89355  30.915  21.047   1.345
25797W        W89356   4.798  11.166   4.217
25798W        W89357  18.750  14.293   4.749
25799W        W89358  23.160   5.739  10.419
25800W        W89359   4.745  38.019   2.214
25801W        W89360  29.441  18.134   4.166
25802W        W89361  37.913  41.509   1.792
25803W        W89362   1.419  13.314   1.920
25804W        W89363  43.791   6.276  12.965
25805W        W89364   8.694  31.492  13.040
25806W        W89365  44.390  18.694   4.818
25807W        W89366  37.357   8.225   0.823
25808W        W89367   3.904  18.617   2.267
25809W        W89368  26.664  16.710  14.442
25810W        W89369   0.977   8.242  10.562
25811W        W89370  29.943  35.512  11.994
25812W        W89371   2.246  37.505   0.388
25813W        W89372  15.761  18.117   3.833
25814W        W89373  12.299   1.260  14.305
25815W        W89374  25.146   3.873  10.897
25816W        W89375   1.847  11.739  11.603
25817W        W89376  36.028  13.822   1.451
25818W        W89377  28.113  16.802  12.965
25819W        W89378  34.599  26.152   3.688
25820W        W89379  27.941  28.105   3.833
25821W        W89380  44.837  18.559  14.905
25822W        W89381  42.432  15.140  14.378
25823W        W89382  12.246  36.521  13.801
25824W        W89383   2.460  16.247   1.877
25825W        W89384   5.402  41.419   2.739
25826W        W89385  32.065   4.371  14.382
25827W        W89386  41.528  25.001  14.350
25828W        W89387  41.304  30.649   1.758
25829W        W89388  26.073   2.911   4.811
25830W        W89389   0.947   9.823   3.275
25831W        W89390  23.594   7.665  12.562
25832W        W89391   3.941  25.184  12.840
25833W        W89392  41.492  33.118   0.949
25834W        W89393  17.796  24.118   0.837
25835W        W89394  35.463   3.241  13.816
25836W        W89395   4.922  29.121  14.950
25837W        W89396  39.314  26.162  12.414
25838W        W89397  39.343  36.010  13.007
25839W        W89398  21.518  29.568   3.662
25840W        W89399  35.553  41.786  13.359
25841W        W89400  15.732  44.912   2.235
25842W        W89401  37.947  10.651   0.310
25843W        W89402  16.736   4.365   2.902
25844W        W89403  26.608   7.400   3.809
25845W        W89404  32.136   2.446  13.851
25846W        W89405   5.722  28.676   3.868
25847W        W89406  39.379  30.018  11.081
25848W        W89407  13.231  14.640   1.321
25849W        W89408  44.468  41.872  11.491
25850W        W89409  21.522   6.719  14.306
25851W        W89410  21.121  28.999   2.792
25852W        W89411   1.843  34.896   1.696
25853W        W89412  17.252  18.768   0.363
25854W        W89413  22.512  41.951  11.528
25855W        W89414  22.561  28.672   4.679
25856W        W89415  41.452  37.007   0.460
25857W        W89416   5.807   8.162   4.691
25858W        W89417  18.602  19.171   1.247
25859W        W89418  20.600   6.197   0.296
25860W        W89419  14.300  27.617   0.798
25861W        W89420   1.389  16.257  13.373
25862W        W89421   3.926  43.931   3.846
25863W        W89422  16.206  34.464  12.834
25864W        W89423  25.523  28.132   0.744
25865W        W89424  14.588  38.517  12.536
25866W        W89425   6.394  17.076  14.866
25867W        W89426  18.182  40.542   2.213
25868W        W89427  31.995   1.238   4.605
25869W        W89428  13.721  44.954  11.414
25870W        W89429  35.467  17.731  11.018
25871W        W89430  28.492   4.322   3.683
25872W        W89431  41.947  28.958  13.972
25873W        W89432  43.865  30.601   2.276
25874W        W89433  43.857  39.388   4.194
25875W        W89434  44.915  22.650   2.712
25876W        W89435  44.305  39.414  13.316
25877W        W89436  26.541   9.306   0.421
25878W        W89437   2.735   3.759   0.255
25879W        W89438  31.630  34.395   2.192
25880W        W89439  25.611  22.505   0.945
25881W        W89440  29.011   3.804   1.352
25882W        W89441  29.120  14.743  11.388
25883W        W89442  16.590   8.356  12.467
25884W        W89443  27.025   2.862  11.074
25885W        W89444  44.816   7.209   3.298
25886W        W89445  37.000  28.180   1.301
25887W        W89446  26.467   3.324   2.402
25888W        W89447  11.730  37.012  14.403
25889W        W89448  24.697  18.255  13.925
25890W        W89449  14.743  13.614  12.865
25891W        W89450  23.033  14.220   0.362
25892W        W89451  34.415  31.430   1.907
25893W        W89452  15.221  40.489   4.814
25894W        W89453   2.939  30.959   2.805
25895W        W89454  24.550   1.897   3.186
25896W        W89455  24.682  26.586   5.195
25897W        W89456  23.685  41.368   0.256
25898W        W89457  15.818  28.479   0.391
25899W        W89458   1.940  41.892  11.122
25900W        W89459  28.064  20.158  10.590
25901W        W89460  10.214  23.643  10.971
25902W        W89461  14.181  25.020   0.811
25903W        W89462   1.238  42.998   3.806
25904W        W89463  32.453  22.072  14.871
25905W        W89464  37.443  17.201   0.292
25906W        W89465  20.720  26.173   4.354
25907W        W89466  23.505  11.309   1.760
25908W        W89467  11.172  42.338   3.798
25909W        W89468  29.073  27.103   1.734
25910W        W89469  43.458  39.420  14.290
25911W        W89470  43.492  29.553  10.483
25912W        W89471   6.416   0.332  12.543
25913W        W89472  18.576   5.335   4.767
25914W        W89473  23.685  14.683   2.293
25915W        W89474  18.264   0.391  12.914
25916W        W89475  20.761   7.779   0.792
25917W        W89476  24.019   4.903   0.838
25918W        W89477  25.047  28.447   1.703
25919W        W89478  19.624  15.098   1.833
25920W        W89479  36.964  15.788   4.613
25921W        W89480  42.906  27.638  12.494
25922W        W89481  26.075  33.476  12.006
25923W        W89482  22.718  27.490   3.288
25924W        W89483  41.944  23.198  12.372
25925W        W89484  38.069  13.604   2.719
25926W        W89485  18.636  16.315  14.439
25927W        W89486  44.275  26.100  14.976
25928W        W89487   6.293  17.120   3.207
25929W        W89488   0.370  16.191  10.501
25930W        W89489  23.502  22.649   0.856
25931W        W89490  27.041  40.418  14.442
25932W        W89491  36.076  32.947  12.029
25933W        W89492   3.912   2.849   4.165
25934W        W89493  15.593  20.709   0.280
25935W        W89494  29.653  23.996   5.086
25936W        W89495  22.100  26.954   1.401
25937W        W89496  17.107  23.130  10.967
25938W        W89497  37.509  13.190  14.346
25939W        W89498  32.525  26.592  11.421
25940W        W89499  43.333   0.917   9.948
25941W        W89500  25.130  26.132   3.749
25942W        W89501  34.001  41.980   3.718
25943W        W89502  24.676  20.527  11.398
25944W        W89503   6.898  22.176   4.259
25945W        W89504  17.081   2.405   5.146
25946W        W89505   4.387  13.343  13.028
25947W        W89506  31.524  20.576  11.559
25948W        W89507  17.729  10.829  11.514
25949W        W89508  33.596  42.014   4.123
25950W        W89509  39.050  40.324   3.226
25951W        W89510  10.857  18.752  14.321
25952W        W89511  24.988  15.811   1.286
25953W        W89512   4.427  34.992  13.064
25954W        W89513   6.395  42.436   4.256
25955W        W89514  43.330  33.908  10.926
25956W        W89515   1.441   2.424   4.287
25957W        W89516  36.019  21.664  12.509
25958W        W89517   6.698  34.563  12.467
25959W        W89518  29.638  21.073   1.727
25960W        W89519  14.785   5.890  14.772
25961W        W89520  26.556  21.136   5.297
25962W        W89521  24.706  38.484   4.155
25963W        W89522  25.650  26.072  12.567
25964W        W89523  32.462  15.637  13.991
25965W        W89524  36.391  37.514  14.879
25966W        W89525  18.758   5.913  11.047
25967W        W89526   1.744  16.085  13.474
25968W        W89527  25.995  42.449   3.383
25969W        W89528  27.612   3.264   1.777
25970W        W89529  12.309  17.589   3.200
25971W        W89530  42.461  28.583  13.000
25972W        W89531  14.226  41.450  12.939
25973W        W89532  41.977  43.298  11.063
25974W        W89533  13.743  13.138  12.090
25975W        W89534  43.304   0.976   2.381
25976W        W89535  11.745  33.434   3.350
25977W        W89536  44.971  10.725  10.620
25978W        W89537   2.345  16.302  14.793
25979W        W89538  41.817   1.734  14.926
25980W        W89539  38.877  34.998  13.975
25981W        W89540   9.657  18.079  12.396
25982W        W89541  20.609  40.052   4.134
25983W        W89542  30.513  42.863  14.793
25984W        W89543  16.687   1.462  10.561
25985W        W89544  40.852   9.228   4.788
25986W        W89545  37.360   5.403   0.383
25987W        W89546  36.958   8.689  12.365
25988W        W89547   4.814   4.904  14.394
25989W        W89548  21.587  14.602  14.441
25990W        W89549  14.197  16.741  12.497
25991W        W89550  40.423  10.331  10.019
25992W        W89551  21.693  43.287   0.877
25993W        W89552   1.388   9.152   3.309
25994W        W89553  15.131  24.189  14.874
25995W        W89554  34.453  44.969  13.906
25996W        W89555  21.017  17.270   0.294
25997W        W89556  37.359  14.804   1.868
25998W        W89557   6.718   4.708   1.873
25999W        W89558  32.459  23.640   2.730
26000W        W89559  12.629  26.177   4.829
26001W        W89560  43.841   7.179  12.351
26002W        W89561   5.876   0.339  13.951
26003W        W89562   0.750   4.303  14.341
26004W        W89563  11.373  40.874   4.166
26005W        W89564  31.420  15.818  11.921
26006W        W89565   9.830  22.503  10.519
26007W        W89566  37.496  12.722   4.598
26008W        W89567  21.688  32.071   1.902
26009W        W89568  30.982  17.134   2.792
26010W        W89569  40.542  35.443   1.789
26011W        W89570  35.461  35.110   3.782
26012W        W89571   6.265  22.687   1.403
26013W        W89572   6.875  39.947   2.218
26014W        W89573  33.565  28.111   4.322
26015W        W89574  17.644  27.185   0.445
26016W        W89575  35.362  13.846   0.304
26017W        W89576  35.493  33.615  14.831
26018W        W89577  21.204  34.890  12.899
26019W        W89578  26.110  39.342   3.167
26020W        W89579  43.875  43.003  12.056
26021W        W89580  20.695  11.676   1.264
26022W        W89581   7.806  25.029  13.533
26023W        W89582   7.767  32.486  11.423
26024W        W89583  24.657   9.747   2.714
26025W        W89584  26.671  28.078  10.434
26026W        W89585  41.999  30.462   4.732
26027W        W89586   8.350  36.013  10.475
26028W        W89587  15.183   4.747  11.043
26029W        W89588  40.036  31.052   2.196
26030W        W89589   3.794  23.028   3.702
26031W        W89590  23.135  24.594  13.437
26032W        W89591  42.449  30.080  14.804
26033W        W89592  29.032   6.754  10.571
26034W        W89593   5.263   0.907  10.088
26035W        W89594  31.539  14.741   3.247
26036W        W89595  30.919  10.249   0.894
26037W        W89596   0.399  28.590  11.451
26038W        W89597  27.175  25.203   3.635
26039W        W89598  40.928  44.477  13.862
26040W        W89599  33.545  27.031   1.772
26041W        W89600  43.909  17.142   3.318
26042W        W89601  12.639  23.512   0.742
26043W        W89602  19.646  41.421  11.558
26044W        W89603  37.849  31.132   3.697
26045W        W89604  23.563  21.658  12.029
26046W        W89605  16.593   2.409  13.497
26047W        W89606  10.759   6.227  11.971
26048W        W89607   9.246  11.629   2.871
26049W        W89608  21.107  25.140   4.325
26050W        W89609  40.380  20.698  15.000
26051W        W89610   6.344  40.910  14.829
26052W        W89611  28.668   0.804  14.862
26053W        W89612  12.242   6.391   0.480
26054W        W89613  26.997  40.966   4.345
26055W        W89614  24.081  14.132   4.169
26056W        W89615  35.467  38.930  13.944
26057W        W89616  39.530   0.809  11.415
26058W        W89617  28.452  31.946  13.360
26059W        W89618  17.129   6.352   1.800
26060W        W89619  44.758   6.298  13.449
26061W        W89620  24.973  36.978   3.292
26062W        W89621  19.253  11.795  12.356
26063W        W89622  11.810  11.671   3.192
26064W        W89623  37.474  16.211   4.784
26065W        W89624  17.159  42.432  10.085
26066W        W89625  36.367  40.965  13.842
26067W        W89626  12.780   5.835  11.393
26068W        W89627  36.397  28.646  12.018
26069W        W89628  23.991  23.694   2.704
26070W        W89629  27.123  39.475  12.012
26071W        W89630  40.311  12.665  11.449
26072W        W89631   6.304   4.265  11.545
26073W        W89632   0.830  35.929  14.411
26074W        W89633  43.462  29.021   0.735
26075W        W89634  20.711  27.997   5.209
26076W        W89635  31.622   6.342  14.499
26077W        W89636  38.460  10.286   3.282
26078W        W89637   2.782  30.583  11.425
26079W        W89638  43.930  12.650  12.575
26080W        W89639  20.660  20.746   1.225
26081W        W89640  26.097  32.056   1.796
26082W        W89641  41.424   5.369  13.424
26083W        W89642  42.299  41.864   3.231
26084W        W89643   0.959  17.272  10.034
26085W        W89644  32.075   8.775   9.440
26086W        W89645  32.531  24.140   0.413
26087W        W89646   2.889  14.317   3.730
26088W        W89647  11.288  25.118   2.827
26089W        W89648  41.896  14.257   2.354
26090W        W89649  28.659  39.388  11.882
26091W        W89650  23.197  42.368   2.741
26092W        W89651  24.116  11.270   0.794
26093W        W89652  11.782  14.254  11.948
26094W        W89653  11.632  12.326  12.472
26095W        W89654  34.597  20.226  13.928
26096W        W89655  21.035  35.595   3.337
26097W        W89656  30.489   6.829   4.186
26098W        W89657  34.573  31.571  11.995
26099W        W89658  44.345   6.729   0.473
26100W        W89659  28.930  37.356  11.601
26101W        W89660  42.942  38.039   3.341
26102W        W89661   6.808  42.454  13.337
26103W        W89662  38.009   6.191   3.857
26104W        W89663  39.018  43.355   0.424
26105W        W89664   7.710  13.800   3.245
26106W        W89665  22.173  39.909  11.911
26107W        W89666  22.229  28.176   0.348
26108W        W89667  28.553  27.115  13.474
26109W        W89668   5.369   7.894   1.393
26110W        W89669  11.633  24.090   3.274
26111W        W89670   7.853  29.602   3.225
26112W        W89671  40.013  22.129  13.045
26113W        W89672  21.699  35.953  12.059
26114W        W89673  43.468  37.848  13.465
26115W        W89674  20.620  19.120   4.766
26116W        W89675  38.023   7.392   5.102
26117W        W89676   5.688  28.568   3.224
26118W        W89677  27.168  30.608  14.454
26119W        W89678  32.586   8.869  10.131
26120W        W89679   9.716   0.784  13.308
26121W        W89680   1.803  33.966  12.387
26122W        W89681   8.387   0.982   2.762
26123W        W89682  32.009   3.391   2.841
26124W        W89683  19.540  37.901  14.013
26125W        W89684  14.335   4.740   0.860
26126W        W89685  21.662  21.633   4.837
26127W        W89686  38.827  34.939   2.217
26128W        W89687  20.768  26.960  12.003
26129W        W89688  32.922   8.669   9.597
26130W        W89689  15.272  40.003  12.352
26131W        W89690  14.673  19.187   1.396
26132W        W89691  39.936   9.268   2.408
26133W        W89692  38.474  27.020   0.730
26134W        W89693   9.247  29.028   4.746
26135W        W89694  30.464  26.503   2.876
26136W        W89695  25.974  29.009  10.917
26137W        W89696   9.325  38.969   4.235
26138W        W89697  28.454  16.182   4.146
26139W        W89698  20.221  16.113   2.841
26140W        W89699  34.120   6.267   4.120
26141W        W89700  30.608   3.897   0.321
26142W        W89701  29.640  14.336  13.341
26143W        W89702  35.859  21.647   3.281
26144W        W89703  37.466  39.809   2.667
26145W        W89704  12.615  24.709   1.342
26146W        W89705  10.852  44.935  10.562
26147W        W89706  43.397  30.531   3.245
26148W        W89707  40.902  12.637   4.674
26149W        W89708   7.182  10.152   0.269
26150W        W89709  38.439  22.126   1.902
26151W        W89710  18.766  10.665  11.392
26152W        W89711  34.915  33.038   2.864
26153W        W89712   5.869   7.314  13.354
26154W        W89713  28.968   9.648   4.195
26155W        W89714  28.028  33.423   2.247
26156W        W89715  26.602  29.656  12.382
26157W        W89716   2.432  12.129  14.410
26158W        W89717   9.214  34.607  12.364
26159W        W89718   1.257  35.413   4.305
26160W        W89719  39.020  25.030  11.055
26161W        W89720   7.829  23.699   3.738
26162W        W89721  37.012  17.612  12.913
26163W        W89722  29.506  30.432   5.216
26164W        W89723   4.222   2.391   1.320
26165W        W89724  17.236  30.041  11.398
26166W        W89725  42.925  18.644  12.507
26167W        W89726  23.697  35.588   1.214
26168W        W89727   6.310  14.120  13.405
26169W        W89728  15.759  12.305  11.014
26170W        W89729  22.575   5.318   2.894
26171W        W89730  43.962  16.807  14.453
26172W        W89731  39.842  21.196  10.922
26173W        W89732  15.269  18.648  11.974
26174W        W89733  16.167  20.585   3.706
26175W        W89734   7.739  19.561   2.883
26176W        W89735  27.523  18.550   2.663
26177W        W89736  36.038  11.676   1.309
26178W        W89737  33.500  29.538   1.269
26179W        W89738  26.681  14.803   1.934
26180W        W89739  33.447   1.859   3.790
26181W        W89740  25.150   4.449  13.318
26182W        W89741  41.831   3.310   4.145
26183W        W89742  15.686  32.132  10.957
26184W        W89743  14.682  24.676  12.870
26185W        W89744   7.227  41.815  12.385
26186W        W89745  23.721  37.081  14.495
26187W        W89746  15.116  44.496  11.385
26188W        W89747  15.607  24.095   3.365
26189W        W89748  22.211  32.078  13.484
26190W        W89749  20.193   3.359   0.407
26191W        W89750   9.149  26.525  11.079
26192W        W89751   8.356   9.199   4.237
26193W        W89752  12.632  15.670   3.860
26194W        W89753  25.012  34.537  14.986
26195W        W89754  41.849   5.253  12.985
26196W        W89755  43.889   1.344   3.347
26197W        W89756  28.537  11.216   4.830
26198W        W89757  24.092   9.688  10.515
26199W        W89758  25.597  42.938   1.874
26200W        W89759   5.729   2.851   2.837
26201W        W89760  19.251  15.308  11.100
26202W        W89761  32.142  44.476   2.185
26203W        W89762  44.827  29.498  12.844
26204W        W89763  41.518   0.281  11.087
26205W        W89764  29.954   1.780   0.463
26206W        W89765  23.117  12.767  14.473
26207W        W89766  37.967  34.469   0.327
26208W        W89767  35.564  12.211   5.190
26209W        W89768  22.070   7.350   3.682
26210W        W89769  25.575  43.284  13.308
26211W        W89770  42.879  17.575  14.280
26212W        W89771   2.458   0.280   0.401
26213W        W89772  34.611  15.217  12.931
26214W        W89773  40.968  11.782   4.214
26215W        W89774  27.123   8.854  11.073
26216W        W89775  38.527  19.087   0.767
26217W        W89776   7.297  42.890  12.064
26218W        W89777   8.872  15.786   3.870
26219W        W89778   4.352  13.653   2.229
26220W        W89779  25.674  37.034  14.290
26221W        W89780   1.741   4.934  10.961
26222W        W89781   7.396  15.232  13.543
26223W        W89782  36.413  13.693   4.800
26224W        W89783  22.670  14.664  14.318
26225W        W89784  17.291  15.084   4.633
26226W        W89785   5.814   5.288  12.997
26227W        W89786  18.582  19.704  10.598
26228W        W89787  44.401  30.983   0.470
26229W        W89788  38.048  27.637   0.453
26230W        W89789  15.597  20.575   1.858
26231W        W89790  11.218  17.214  12.409
26232W        W89791  42.281  20.029   3.298
26233W        W89792  39.933  37.024  12.879
26234W        W89793  12.344  30.616  14.445
26235W        W89794  21.083  25.127  11.065
26236W        W89795   8.731  22.101   2.857
26237W        W89796  31.968   5.210  10.615
26238W        W89797  31.604  20.132   4.139
26239W        W89798   6.423  36.842  13.042
26240W        W89799  18.746   0.889  12.476
26241W        W89800  30.447  41.400  11.404
26242W        W89801  13.711  38.566   4.690
26243W        W89802  28.092  10.184   1.349
26244W        W89803  43.769  19.724   0.826
26245W        W89804   5.417   3.903   0.458
26246W        W89805  12.633  12.263  12.084
26247W        W89806  37.026  28.992  11.588
26248W        W89807  36.873  17.204   4.727
26249W        W89808  36.074  26.542  14.340
26250W        W89809  38.465  11.259   4.782
26251W        W89810  13.741  23.179   4.336
26252W        W89811  39.440  34.522   3.248
26253W        W89812  38.940  33.459   0.814
26254W        W89813  10.800  34.883  12.390
26255W        W89814  41.295  44.903   4.779
26256W        W89815  27.530  23.230  13.905
26257W        W89816  36.997   6.333  12.553
26258W        W89817  37.957  11.685   2.873
26259W        W89818  37.899  25.629   3.723
26260W        W89819   5.406  21.058   2.343
26261W        W89820   0.410  24.706  13.420
26262W        W89821  28.936  19.653  10.583
26263W        W89822  27.468  23.053  13.050
26264W        W89823  12.355   0.777   0.448
26265W        W89824  32.415  34.995   4.802
26266W        W89825  37.863   9.879  13.813
26267W        W89826  13.809  42.866  11.608
26268W        W89827  34.419   8.378   4.792
26269W        W89828  10.259  22.514   3.188
26270W        W89829   3.917  36.990   2.210
26271W        W89830  28.075  44.879   1.761
26272W        W89831   1.273  33.425  12.434
26273W        W89832  17.647   0.980   3.700
26274W        W89833   6.832  19.070  11.394
26275W        W89834   6.735  18.262  11.050
26276W        W89835  30.036  19.731   1.867
26277W        W89836  12.200  39.043  14.340
26278W        W89837  16.278  33.462   3.794
26279W        W89838  40.315  39.473  14.904
26280W        W89839  31.444   5.763   1.340
26281W        W89840  29.958   4.779  13.952
26282W        W89841  15.813  18.752  10.572
26283W        W89842  24.527  33.569  11.609
26284W        W89843  22.678  43.443  12.505
26285W        W89844   4.860  29.613  13.995
26286W        W89845  20.749  35.085   2.705
26287W        W89846  28.130   9.192   4.159
26288W        W89847  11.354  22.545   4.136
26289W        W89848  25.575   2.227  10.600
26290W        W89849  28.054   3.270  13.813
26291W        W89850   6.245  20.577  14.013
26292W        W89851   5.930  41.996   1.218
26293W        W89852  37.996  44.777   2.189
26294W        W89853  31.477  39.517   3.762
26295W        W89854  20.065  37.904  12.883
26296W        W89855  19.591  23.573   3.192
26297W        W89856  39.511  36.529  13.921
26298W        W89857  10.274  28.045   9.992
26299W        W89858  37.038  30.487   9.999
26300W        W89859  14.273  15.663   3.274
26301W        W89860  19.564  13.717  12.444
26302W        W89861   9.881  42.433  13.352
26303W        W89862  15.800  23.113  11.908
26304W        W89863  33.101  18.210   3.693
26305W        W89864  26.104  27.578   3.182
26306W        W89865  25.606   1.813  14.013
26307W        W89866  23.240  35.011  12.455
26308W        W89867  21.605  16.764  11.031
26309W        W89868  31.948  14.127   0.881
26310W        W89869  43.323   6.374  11.585
26311W        W89870  36.907   1.470   3.268
26312W        W89871   7.327  18.090  14.478
26313W        W89872  17.723  38.916  11.121
26314W        W89873   6.246  29.478   5.168
26315W        W89874   8.359  32.966  13.517
26316W        W89875   7.869   4.440   1.366
26317W        W89876  25.014  32.902   3.158
26318W        W89877  24.531  31.950   0.917
26319W        W89878   3.948  19.778  11.003
26320W        W89879  17.125   8.277  11.116
26321W        W89880  24.180   3.384   4.614
26322W        W89881  38.889  22.705  13.324
26323W        W89882   0.481  31.924  10.632
26324W        W89883   8.836  23.139  10.445
26325W        W89884  10.292  37.394   2.711
26326W        W89885   9.344   1.243  13.513
26327W        W89886  30.980  22.142   0.812
26328W        W89887   4.809  30.073   3.715
26329W        W89888  24.517   8.291  13.396
26330W        W89889  32.527  37.470   3.267
26331W        W89890   6.771  10.343   3.198
26332W        W89891  19.074  42.493   3.165
26333W        W89892  25.501  12.613  12.515
26334W        W89893  35.091  44.847   3.746
26335W        W89894  19.769  28.005  11.486
26336W        W89895  26.674  13.714   4.335
26337W        W89896  36.021  28.042   2.210
26338W        W89897  15.777  20.651  13.893
26339W        W89898  21.621   9.286   3.159
26340W        W89899  34.536   3.877  12.580
26341W        W89900  33.566  31.466  14.330
26342W        W89901   9.797  42.897   2.784
26343W        W89902  36.407  32.913  14.424
26344W        W89903  33.110  41.496   4.770
26345W        W89904  28.991  20.202   2.374
26346W        W89905  42.422  42.784   9.946
26347W        W89906  14.790   5.201  13.920
26348W        W89907  42.009  38.862  10.448
26349W        W89908  17.787  37.559   4.270
26350W        W89909  22.625  14.302  14.780
26351W        W89910  32.587   8.264  12.462
26352W        W89911  33.567  35.388  12.059
26353W        W89912   8.830  42.961   1.257
26354W        W89913  13.789  26.195   1.408
26355W        W89914  28.475  21.722   2.178
26356W        W89915  34.470   3.737   4.694
26357W        W89916  13.714  44.941  14.766
26358W        W89917  12.639  34.568  10.951
26359W        W89918  15.684  40.485  13.415
26360W        W89919  37.426   9.216   3.352
26361W        W89920   7.394  37.929   4.698
26362W        W89921  16.688  32.466  14.432
26363W        W89922  33.468  44.363   2.810
26364W        W89923  17.595  32.121  12.493
26365W        W89924   8.234  44.905   4.689
26366W        W89925  11.131  35.866  11.086
26367W        W89926  22.659  33.009  14.910
26368W        W89927  17.218  16.281  10.617
26369W        W89928  37.035  38.524  12.571
26370W        W89929  31.128   4.413   4.654
26371W        W89930  33.610   8.865  11.533
26372W        W89931  32.628   7.722   3.676
26373W        W89932   2.916   0.927   1.289
26374W        W89933  32.045  14.101   0.479
26375W        W89934  23.671  43.417   4.770
26376W        W89935  18.654  29.060  13.949
26377W        W89936  35.523  40.053  14.788
26378W        W89937  44.958  30.105  12.562
26379W        W89938  23.084  44.270  10.497
26380W        W89939  40.330  24.229   0.931
26381W        W89940  44.464  30.616   4.340
26382W        W89941  14.116  27.017   0.447
26383W        W89942  34.918  13.639  10.562
26384W        W89943   9.394  23.086  12.958
26385W        W89944  34.048   1.863   0.350
26386W        W89945   1.384  17.294  12.418
26387W        W89946  28.020  28.656   4.816
26388W        W89947  13.706   1.963   1.294
26389W        W89948  16.577  35.091  14.932
26390W        W89949  33.891  39.989   2.710
26391W        W89950   2.822   1.951  10.419
26392W        W89951  43.342  28.074  11.963
26393W        W89952  29.526   4.716   4.297
26394W        W89953   3.292  24.129   1.409
26395W        W89954  12.206  31.539  11.589
26396W        W89955   9.215  19.226   1.228
26397W        W89956  36.965  28.555   4.178
26398W        W89957  39.048  39.994   0.388
26399W        W89958  41.919   9.727  11.509
26400W        W89959  43.321  12.822  11.062
26401W        W89960   8.383  32.594  14.945
26402W        W89961   3.436  30.493  14.372
26403W        W89962   3.886   1.975   0.744
26404W        W89963  14.777   6.361  12.388
26405W        W89964  34.111   7.411  13.510
26406W        W89965  24.192  31.075   5.262
26407W        W89966  43.825  25.489  13.971
26408W        W89967  44.376  36.558   2.210
26409W        W89968  18.225  15.676   1.741
26410W        W89969  35.419  41.959   2.801
26411W        W89970  28.633  23.618   4.150
26412W        W89971  18.164  33.008  14.333
26413W        W89972  34.597   2.757  14.860
26414W        W89973  26.152  37.369  11.875
26415W        W89974   2.832  35.512  10.514
26416W        W89975  33.379  30.540  11.871
26417W        W89976   1.908  43.472   1.268
26418W        W89977   9.304  31.994   3.705
26419W        W89978  15.677  15.687  13.403
26420W        W89979  35.919   3.868   2.183
26421W        W89980  20.103  33.961   2.767
26422W        W89981  22.082  35.602  12.029
26423W        W89982  24.119  43.487   0.840
26424W        W89983  25.177  15.641   4.817
26425W        W89984  18.108  38.910   0.329
26426W        W89985  26.111   0.432   1.768
26427W        W89986  25.672  23.059   0.780
26428W        W89987  13.245  32.952   0.836
26429W        W89988  16.716  17.250   4.136
26430W        W89989   4.394  17.152   1.934
26431W        W89990  34.423   7.749  10.130
26432W        W89991  43.356  39.851  11.430
26433W        W89992   1.379   0.977  10.488
26434W        W89993  42.955   9.174   0.826
26435W        W89994  41.984  21.240  14.435
26436W        W89995   7.269   6.228   2.765
26437W        W89996   3.284  40.337   0.839
26438W        W89997   2.266  37.522   5.196
26439W        W89998  24.996  19.581   0.252
26440W        W89999  19.075  22.217  12.485
26441W        W90000  26.675   0.925  14.895
26442W        W90001   4.728  12.722  10.099
26443W        W90002   4.922   1.959   1.323
26444W        W90003  24.485  12.345  14.434
26445W        W90004  24.613  17.230  14.410
26446W        W90005  14.107   8.697   3.355
26447W        W90006  24.520  41.373   0.248
26448W        W90007  19.686  39.936  12.074
26449W        W90008   6.367  43.944  11.042
26450W        W90009  43.392  28.985   1.327
26451W        W90010   4.215  23.659   1.227
26452W        W90011  37.357  19.740  11.559
26453W        W90012  24.217   0.784  13.874
26454W        W90013  41.801   6.722  13.447
26455W        W90014  22.695  37.465  14.780
26456W        W90015  22.027  22.510  14.933
26457W        W90016   9.665  24.990   1.728
26458W        W90017  44.445   1.763  12.429
26459W        W90018  30.985   3.826   1.901
26460W        W90019  11.166   3.276   1.724
26461W        W90020  32.005  11.133  11.590
26462W        W90021  21.112  18.175   2.728
26463W        W90022  31.917  21.117  12.996
26464W        W90023  29.150  11.758  14.386
26465W        W90024   9.666   0.273  13.385
26466W        W90025   5.813  44.806   1.251
26467W        W90026  44.827  42.780   3.845
26468W        W90027  42.777  10.663  11.515
26469W        W90028  31.994  36.914  14.874
26470W        W90029  21.592  31.896   4.733
26471W        W90030  12.766  15.220  14.363
26472W        W90031  11.349  17.126  10.517
26473W        W90032  17.253  14.807  14.930
26474W        W90033  44.500  15.670   0.846
26475W        W90034  16.574  40.876   2.279
26476W        W90035  42.022  33.547   2.292
26477W        W90036   3.744  25.513  12.021
26478W        W90037  42.944  10.188   1.770
26479W        W90038  21.250  22.008   1.730
26480W        W90039  34.042  33.894  13.000
26481W        W90040   2.295  12.639  11.935
26482W        W90041  20.553  23.648   2.352
26483W        W90042  12.780  30.990  12.470
26484W        W90043  34.559  38.022  13.511
26485W        W90044  10.642  20.144  11.594
26486W        W90045  14.314  43.482  13.963
26487W        W90046  24.163   3.806   3.298
26488W        W90047  30.024  23.109  11.934
26489W        W90048  37.001   7.863   3.696
26490W        W90049  21.609  17.623  11.393
26491W        W90050  34.433   8.756   1.920
26492W        W90051  23.677  32.397   3.152
26493W        W90052  36.401  28.490   4.124
26494W        W90053   1.297  39.910  11.462
26495W        W90054  30.600  26.485   3.345
26496W        W90055   8.749  44.956   4.658
26497W        W90056   7.407  30.152   1.259
26498W        W90057  24.602   3.228  11.414
26499W        W90058  36.883  20.066  12.959
26500W        W90059  39.376  14.760  12.536
26501W        W90060  44.918  32.010   4.769
26502W        W90061  33.948  26.698  14.855
26503W        W90062  34.438  20.544   1.928
26504W        W90063   8.703  10.334   1.449
26505W        W90064  40.948  44.387   0.956
26506W        W90065   2.283   5.233   0.836
26507W        W90066   0.289   2.866   4.752
26508W        W90067  22.234  32.086  13.885
26509W        W90068  22.251  26.972  14.501
26510W        W90069  38.368  13.700  12.488
26511W        W90070  34.992   8.729   3.174
26512W        W90071   1.386   8.296  10.421
26513W        W90072  21.612  12.307  10.405
26514W        W90073   3.722  41.334   2.273
26515W        W90074  44.370  32.916  14.904
26516W        W90075  44.317   9.803   4.726
26517W        W90076  44.460  22.040   1.354
26518W        W90077  41.502  38.837  14.306
26519W        W90078  19.735  19.666   1.254
26520W        W90079  41.298  19.075   1.724
26521W        W90080  26.040  33.506  13.904
26522W        W90081  37.425  19.122  13.821
26523W        W90082  38.550  44.973  10.487
26524W        W90083  37.427  12.186   4.812
26525W        W90084  24.540  29.502  10.639
26526W        W90085   5.733  29.072  12.924
26527W        W90086  38.969  21.089   2.836
26528W        W90087  21.701   1.941  12.468
26529W        W90088  35.972  43.867  14.424
26530W        W90089  17.214   8.262   3.362
26531W        W90090  35.407   7.737   1.362
26532W        W90091   3.921   8.753   0.774
26533W        W90092  32.468  27.011  12.461
26534W        W90093  12.252  19.733  13.467
26535W        W90094   2.861  18.772   4.834
26536W        W90095  13.669  36.486  12.554
26537W        W90096  20.028  39.350   4.287
26538W        W90097  32.046   9.778  10.965
26539W        W90098   1.336   2.726   2.207
26540W        W90099  34.465   6.834  13.801
26541W        W90100  16.158   6.190   4.635
26542W        W90101  43.960   6.815   2.784
26543W        W90102  44.260  37.995   4.812
26544W        W90103  36.904  22.034  10.987
26545W        W90104  17.568  25.066  11.898
26546W        W90105   8.706  15.611   0.875
26547W        W90106  19.735  44.897  11.914
26548W        W90107  28.099  40.841  14.921
26549W        W90108  39.013  31.068  11.559
26550W        W90109  12.730  22.052   2.721
26551W        W90110  35.968  14.761  10.458
26552W        W90111  10.716   9.795  10.608
26553W        W90112  21.747  35.597   3.767
26554W        W90113   2.452  26.475   4.827
26555W        W90114  31.981  36.974   2.847
26556W        W90115  35.535  18.147   1.243
26557W        W90116  42.375  13.734   1.839
26558W        W90117  23.048   6.417   1.812
26559W        W90118  40.889  21.213  14.778
26560W        W90119  18.180   7.855  13.366
26561W        W90120  32.051  42.423  14.018
26562W        W90121   2.384  38.403  12.031
26563W        W90122  32.399   4.706   0.282
26564W        W90123  38.414  30.072   1.410
26565W        W90124  14.751   1.432   2.352
26566W        W90125  10.782  19.672  10.893
26567W        W90126   5.882  21.684   4.251
26568W        W90127  24.996  17.681  11.883
26569W        W90128  44.416  12.639   2.738
26570W        W90129  36.920  17.732   4.724
26571W        W90130  26.063  27.454  13.476
26572W        W90131   1.287  26.490   3.706
26573W        W90132  19.545  16.658   4.741
26574W        W90133  29.158  21.241  10.042
26575W        W90134  32.561  10.315   9.950
26576W        W90135  16.646  44.970  13.923
26577W        W90136   0.856  33.114  14.486
26578W        W90137  44.776  44.943  13.912
26579W        W90138  44.863  14.095   2.394
26580W        W90139  22.608  35.106  14.335
26581W        W90140  23.671  38.525  14.031
26582W        W90141  38.970  29.436  14.468
26583W        W90142  44.001  43.881   2.775
26584W        W90143  10.756  42.982  10.464
26585W        W90144  20.705   5.915   2.182
26586W        W90145  38.866  24.230  10.403
26587W        W90146  23.591  31.630   4.714
26588W        W90147  20.254  35.404   1.702
26589W        W90148   7.729  21.681   2.258
26590W        W90149  42.515  30.427  13.038
26591W        W90150   0.811   6.232  14.821
26592W        W90151  24.178  35.866  10.133
26593W        W90152  42.451  44.437   1.818
26594W        W90153  10.330   8.880  10.465
26595W        W90154   9.647   5.859  14.387
26596W        W90155  29.585  34.103  12.035
26597W        W90156   5.271  38.928   0.822
26598W        W90157  23.663  10.324   2.771
26599W        W90158   9.656  21.252  11.596
26600W        W90159  12.749   0.423   1.438
26601W        W90160   8.164  17.608  12.393
26602W        W90161  34.612  42.362   0.263
26603W        W90162  27.464  18.280   0.913
26604W        W90163   8.291  35.394  10.975
26605W        W90164  27.002  29.615   2.223
26606W        W90165   9.233   3.225   4.348
26607W        W90166  14.613  26.603   1.791
26608W        W90167  28.020  24.494   2.837
26609W        W90168  16.783  44.780  11.119
26610W        W90169   4.345   6.326  13.355
26611W        W90170  23.679  25.637  12.508
26612W        W90171  31.905  36.931   4.319
26613W        W90172  14.808  26.696  10.442
26614W        W90173  44.413  26.146  10.588
26615W        W90174  26.208  23.503  14.900
26616W        W90175  30.091  13.618  12.078
26617W        W90176  17.592  39.871   0.763
26618W        W90177  29.963  43.767  11.971
26619W        W90178  13.739  19.559   1.921
26620W        W90179  44.382  15.164  12.079
26621W        W90180  28.997  19.655   3.268
26622W        W90181  27.173  23.602  14.348
26623W        W90182  21.075  44.384  12.064
26624W        W90183  13.800  18.090  11.459
26625W        W90184  16.158   9.824   1.302
26626W        W90185   0.800  33.073   3.651
26627W        W90186  29.609   3.278   3.761
26628W        W90187  11.138  39.904   0.795
26629W        W90188  39.873  40.880  13.539
26630W        W90189  19.621  44.806   2.880
26631W        W90190  37.002  17.676  10.629
26632W        W90191  32.984  42.904  12.510
26633W        W90192  40.346  13.789  13.791
26634W        W90193  18.232  44.805   0.251
26635W        W90194  41.875   7.250   2.718
26636W        W90195   7.202  22.242  11.942
26637W        W90196   8.846  16.621  12.917
26638W        W90197  19.593   3.848  13.886
26639W        W90198   2.737  21.643  13.861
26640W        W90199  22.685   9.294  11.122
26641W        W90200  43.404  34.092   4.212
26642W        W90201   7.670   3.224   3.859
26643W        W90202  13.340  39.365  11.933
26644W        W90203  43.767   2.344  13.427
26645W        W90204  29.649  23.521   2.227
26646W        W90205   8.245   0.314   3.295
26647W        W90206  33.078   3.928  13.914
26648W        W90207  28.571  26.027   1.743
26649W        W90208   4.727  37.491   3.869
26650W        W90209  37.926   4.293  12.961
26651W        W90210  14.826   0.490   1.376
26652W        W90211  15.778  27.677  11.409
26653W        W90212  30.586   3.404  12.424
26654W        W90213   3.709  28.988   1.384
26655W        W90214  13.314   5.840   0.912
26656W        W90215  10.679  33.027   9.538
26657W        W90216  10.203  17.158   0.364
26658W        W90217  18.711  23.623  13.916
26659W        W90218  30.061  44.815   4.130
26660W        W90219  40.810   4.435   0.836
26661W        W90220  22.642  28.680  14.006
26662W        W90221  22.108  11.864   1.736
26663W        W90222  44.794  39.525   0.880
26664W        W90223  12.756  30.563   3.658
26665W        W90224  18.175   1.821   0.392
26666W        W90225  37.994  30.650   0.263
26667W        W90226  31.427  28.632  12.492
26668W        W90227  35.962   8.859  13.923
26669W        W90228   2.330   0.969   5.251
26670W        W90229  16.801  36.893  10.576
26671W        W90230   3.872  25.521   3.736
26672W        W90231   5.737  33.384  13.916
26673W        W90232  24.594   5.385   4.160
26674W        W90233  17.622   7.894  14.319
26675W        W90234   8.706  23.508  13.956
26676W        W90235   3.384   8.207   4.320
26677W        W90236  10.252  28.599   0.375
26678W        W90237  23.498  35.554   0.821
26679W        W90238  32.519  12.824   0.300
26680W        W90239  25.088   7.226  10.439
26681W        W90240  42.834  19.563   4.791
26682W        W90241  10.276  27.968   2.412
26683W        W90242  25.077  30.522  14.847
26684W        W90243  26.552  41.849   4.607
26685W        W90244  43.282   9.661  11.879
26686W        W90245   7.751  13.281   0.358
26687W        W90246  20.565  15.254   2.690
26688W        W90247   7.198  31.005   2.419
26689W        W90248   7.820  39.361   1.258
26690W        W90249  17.770  12.251   2.675
26691W        W90250   3.276  17.616  10.593
26692W        W90251  12.761  19.142   0.793
26693W        W90252  35.860   7.889   3.811
26694W        W90253  27.174  10.876  10.061
26695W        W90254   0.308  16.728   0.815
26696W        W90255  38.492  23.135   1.271
26697W        W90256  38.949   9.381  13.981
26698W        W90257  25.493  30.545   1.372
26699W        W90258  16.297  23.212  13.509
26700W        W90259  25.628   8.852  12.442
26701W        W90260  27.079  15.636  14.287
26702W        W90261  37.838  25.039   4.830
26703W        W90262  40.862  12.796   4.309
26704W        W90263  10.352  28.656  11.394
26705W        W90264  10.752  42.889  14.337
26706W        W90265  32.431  23.113  12.433
26707W        W90266   7.805  23.040  14.510
26708W        W90267   0.891  14.144  13.822
26709W        W90268   9.153  31.056   0.863
26710W        W90269  11.860  30.567   5.194
26711W        W90270  43.784   7.665   3.657
26712W        W90271  28.437   7.798  11.436
26713W        W90272  14.760   5.417   2.313
26714W        W90273  25.127  27.066   0.834
26715W        W90274  22.202  36.400   3.333
26716W        W90275  11.252  10.316  12.385
26717W        W90276  18.176  44.979  10.464
26718W        W90277  33.100   0.939  13.435
26719W        W90278  34.411  41.977  11.389
26720W        W90279  15.224  20.176   1.373
26721W        W90280  19.629   9.776   1.366
26722W        W90281  26.029  44.315  12.991
26723W        W90282  11.318  32.137  14.281
26724W        W90283  15.258   8.351   9.974
26725W        W90284  16.175  20.754  11.429
26726W        W90285  42.837  20.671   4.657
26727W        W90286  37.526  39.855  14.865
26728W        W90287  35.430  41.884   4.251
26729W        W90288  13.621   6.730   2.860
26730W        W90289  39.957  24.050  11.101
26731W        W90290  39.322  21.735   2.313
26732W        W90291  39.851   1.455   2.785
26733W        W90292  36.464  29.614   1.294
26734W        W90293   0.403   5.329   2.884
26735W        W90294   3.887  27.657   0.829
26736W        W90295  24.145  16.102   0.472
26737W        W90296   5.694   0.927   2.241
26738W        W90297  28.552  36.495   2.839
26739W        W90298  41.975  21.101  12.470
26740W        W90299  33.413  40.520  10.520
26741W        W90300  19.141  33.496  10.554
26742W        W90301  40.454  34.534   0.764
26743W        W90302  34.513  21.048  11.016
26744W        W90303  22.163  39.354  11.943
26745W        W90304  41.968   2.359  11.584
26746W        W90305   1.392   6.287  12.078
26747W        W90306   3.334  15.792  14.988
26748W        W90307  15.817  37.996   1.449
26749W        W90308  30.088   7.717  11.487
26750W        W90309  27.957  13.814  11.002
26751W        W90310  22.706  24.581  14.478
26752W        W90311   8.877  13.176   0.819
26753W        W90312  23.552  41.017   3.857
26754W        W90313  12.360  14.752  12.027
26755W        W90314   7.759  16.713  11.534
26756W        W90315  34.956  39.009  10.915
26757W        W90316  33.491  10.788   5.257
26758W        W90317  36.080   3.328  10.475
26759W        W90318   9.343  16.720   2.852
26760W        W90319  39.065   5.355   0.743
26761W        W90320  34.580  31.523   0.369
26762W        W90321  14.818  21.194  13.447
26763W        W90322   3.902  37.359   4.154
26764W        W90323  17.672  27.568   2.900
26765W        W90324  13.801  40.824   0.883
26766W        W90325  22.690  15.776  13.902
26767W        W90326  32.920  26.077  14.363
26768W        W90327   8.243  26.702  10.997
26769W        W90328  24.524  32.997   1.864
26770W        W90329  42.816  38.042  13.513
26771W        W90330  15.105  25.184  11.908
26772W        W90331   5.713   9.369  13.307
26773W        W90332   8.314  26.141  13.504
26774W        W90333   5.390   2.757   1.242
26775W        W90334  32.402   6.782   1.760
26776W        W90335  26.974  20.629   1.279
26777W        W90336  38.430  24.036   0.483
26778W        W90337  41.336  14.698  12.030
26779W        W90338  13.651  35.371   2.354
26780W        W90339  21.257  38.445   4.735
26781W        W90340  40.437  24.489  11.959
26782W        W90341  12.321  32.542   4.793
26783W        W90342  31.905  23.549  11.909
26784W        W90343  31.053  25.019  10.036
26785W        W90344  26.558  19.189  14.362
26786W        W90345  30.420   4.744   0.921
26787W        W90346  17.732  43.330  14.001
26788W        W90347  15.724  14.716   3.349
26789W        W90348  15.128  33.927   0.316
26790W        W90349  21.644  39.922   1.818
26791W        W90350  22.121  21.098  10.512
26792W        W90351  26.162  34.528  12.438
26793W        W90352   9.379  37.029  14.368
26794W        W90353  29.146  44.495   2.190
26795W        W90354  16.166  12.316  11.954
26796W        W90355  19.734   5.350  12.340
26797W        W90356  29.479   4.245  14.404
26798W        W90357  34.026   4.239   3.157
26799W        W90358  41.365  35.570   1.417
26800W        W90359  37.974  16.197  10.513
26801W        W90360  43.867  30.013   4.247
26802W        W90361  37.932   1.904   2.814
26803W        W90362  22.613  18.558  11.933
26804W        W90363  27.611  18.687   4.324
26805W        W90364  34.436  27.488   4.744
26806W        W90365   7.372  25.470  14.787
26807W        W90366   3.883  42.381   3.363
26808W        W90367  14.165  19.279  11.866
26809W        W90368  30.593  27.127   4.732
26810W        W90369   7.407  14.653   2.198
26811W        W90370   0.310   7.183   1.741
26812W        W90371  33.116  43.412   4.184
26813W        W90372  41.498  36.429  12.832
26814W        W90373  44.434  17.147   3.792
26815W        W90374  31.520  39.394   0.352
26816W        W90375  41.916  30.954   0.373
26817W        W90376  31.634   2.803   1.436
26818W        W90377   5.345  13.608   0.783
26819W        W90378   8.311  44.885   0.906
26820W        W90379  38.530   4.274  11.892
26821W        W90380  28.631  10.282   0.903
26822W        W90381   9.806  23.227   1.805
26823W        W90382  21.675  42.913   1.855
26824W        W90383  34.592  30.137   1.275
26825W        W90384  19.672  11.216   0.950
26826W        W90385   3.438  32.478  12.418
26827W        W90386  30.631   5.283  11.077
26828W        W90387  27.071  27.025   1.794
26829W        W90388  27.535  36.073   2.299
26830W        W90389   7.758  15.240  14.932
26831W        W90390  17.609  27.070  14.437
26832W        W90391  18.607  41.914  10.607
26833W        W90392   4.826  24.512  13.540
26834W        W90393  14.722   5.431  11.126
26835W        W90394  42.937  43.470   3.774
26836W        W90395   6.235  15.302   1.362
26837W        W90396   7.380  16.778   4.661
26838W        W90397  21.171  23.591  11.567
26839W        W90398  34.881   9.240   3.800
26840W        W90399   8.882  25.571   2.827
26841W        W90400  38.047  21.611   3.325
26842W        W90401  10.384  35.894  13.480
26843W        W90402  15.659  27.083   0.348
26844W        W90403   6.241  13.724  13.498
26845W        W90404   3.354  43.941  11.486
26846W        W90405  15.280  10.634  12.505
26847W        W90406  19.667  10.291   0.337
26848W        W90407  12.847  36.006  13.421
26849W        W90408  34.455  27.448   2.334
26850W        W90409   0.856  41.324  10.515
26851W        W90410  29.458  38.491   9.969
26852W        W90411   8.243   2.820   2.857
26853W        W90412   4.880  27.682   3.826
26854W        W90413  15.322  35.054  10.486
26855W        W90414  35.933  29.976   2.418
26856W        W90415  26.072   7.725  12.547
26857W        W90416   7.763  25.191   1.834
26858W        W90417  32.000  39.537   1.379
26859W        W90418  24.201  25.586  11.576
26860W        W90419  35.587   8.661  13.389
26861W        W90420  42.298  42.428  12.557
26862W        W90421  34.087  23.559   2.902
26863W        W90422  40.906  14.721  11.093
26864W        W90423  41.796   4.735  12.419
26865W        W90424  13.745   6.361  13.801
26866W        W90425  27.060  24.649   4.639
26867W        W90426   8.211  17.108  12.518
26868W        W90427  34.877  34.557  10.529
26869W        W90428   5.282  13.238   2.411
26870W        W90429  11.318  27.490  13.927
26871W        W90430  36.367  44.877   1.924
26872W        W90431   3.850  15.700   1.921
26873W        W90432   8.305  42.813   0.403
26874W        W90433  20.731  37.402   1.715
26875W        W90434  41.948  30.616  11.123
26876W        W90435  40.537  24.499  13.866
26877W        W90436  10.712  26.459  13.957
26878W        W90437  40.871  42.836   0.956
26879W        W90438  23.003   1.767   1.350
26880W        W90439  13.750  16.631   2.227
26881W        W90440  27.140  14.186   1.221
26882W        W90441   7.741  40.900   1.387
26883W        W90442   1.968   1.848  12.844
26884W        W90443  13.807   8.783   1.703
26885W        W90444  43.481   6.278  14.347
26886W        W90445  41.461  21.604   2.728
26887W        W90446  11.368   6.762  12.416
26888W        W90447  36.421  40.499  13.835
26889W        W90448   9.733  15.767  14.935
26890W        W90449  27.572  28.626   1.838
26891W        W90450   8.896   1.402   3.846
26892W        W90451  17.086  20.689   3.356
26893W        W90452   7.220   7.326  11.057
26894W        W90453  35.096  41.973  14.028
26895W        W90454  18.643  11.651   5.307
26896W        W90455  44.354  37.972   3.816
26897W        W90456  18.249  31.074   1.767
26898W        W90457  38.902  14.668   3.804
26899W        W90458   4.282  25.467   1.319
26900W        W90459  22.620  23.047  10.087
26901W        W90460  35.996  26.696  13.812
26902W        W90461   4.405  42.972   5.201
26903W        W90462   5.865   1.320   3.381
26904W        W90463   6.681  37.080   3.662
26905W        W90464  39.065  28.998   9.968
26906W        W90465  43.366  24.157   1.824
26907W        W90466   9.335  12.195   0.336
26908W        W90467   9.185   7.183   5.134
26909W        W90468  14.807   5.355   5.097
26910W        W90469  43.953   7.277   2.663
26911W        W90470  37.377   3.318  10.480
26912W        W90471   9.669  13.765  12.014
26913W        W90472  33.576   8.284  12.882
26914W        W90473  19.571   1.898  13.887
26915W        W90474  26.558  35.915  11.001
26916W        W90475   2.799  34.533  13.974
26917W        W90476  40.801   3.732   0.795
26918W        W90477  19.540  12.783   1.764
26919W        W90478  32.573  10.720   3.231
26920W        W90479  36.589  18.245  11.544
26921W        W90480  23.202  36.487   0.314
26922W        W90481   1.251  21.611  12.371
26923W        W90482  27.637  35.381   4.333
26924W        W90483  12.631  30.557  10.516
26925W        W90484  22.029  32.432  10.997
26926W        W90485  39.060  22.222  11.440
26927W        W90486  24.043  26.978   3.795
26928W        W90487  18.741   0.780   1.421
26929W        W90488  21.247  32.972  12.512
26930W        W90489  15.641   3.790   0.456
26931W        W90490  17.173  21.716   3.310
26932W        W90491   6.854  28.442  13.418
26933W        W90492  20.720  12.202  10.578
26934W        W90493  34.930  25.021   9.990
26935W        W90494  41.371   7.711   4.117
26936W        W90495  37.056  21.129  11.993
26937W        W90496   9.728  33.591   4.796
26938W        W90497  31.001  25.004   0.452
26939W        W90498  39.378  31.144   0.853
26940W        W90499  25.648  41.992  14.887
26941W        W90500  19.581  10.646   3.855
26942W        W90501  14.316  20.545   9.926
26943W        W90502  29.548   4.416   2.711
26944W        W90503  13.722  13.163   1.408
26945W        W90504  12.160  31.111   2.300
26946W        W90505  15.698  37.006   4.327
26947W        W90506  10.776  24.668   4.159
26948W        W90507   7.855  22.734   3.377
26949W        W90508  39.354  24.601   4.699
26950W        W90509   5.423  11.640   0.421
26951W        W90510   1.749  35.927  13.449
26952W        W90511  26.474  41.977  14.463
26953W        W90512  19.609   0.985  10.418
26954W        W90513  36.895   1.409  12.378
26955W        W90514   9.751  16.190  11.033
26956W        W90515   0.252  30.573   3.316
26957W        W90516   4.395  39.416   4.332
26958W        W90517  42.326  29.924  13.810
26959W        W90518  29.611  27.029   2.232
26960W        W90519  35.937  22.521  10.532
26961W        W90520  20.258  30.413  12.002
26962W        W90521  30.150  12.255   1.808
26963W        W90522  19.606  36.513  12.077
26964W        W90523  20.223  33.385   4.741
26965W        W90524  15.692  29.565   3.333
26966W        W90525  20.708   9.195  14.802
26967W        W90526  35.858  44.845   0.253
26968W        W90527  22.705  10.789  14.441
26969W        W90528  43.793  36.452  14.274
26970W        W90529  32.116  25.521   0.400
26971W        W90530  32.487  21.567  12.931
26972W        W90531  24.060   9.814  11.981
26973W        W90532   5.342   0.463   2.329
26974W        W90533  18.656   6.189   1.245
26975W        W90534  38.923   8.802  10.580
26976W        W90535  30.482  40.937  13.869
26977W        W90536   4.354  10.657   1.246
26978W        W90537  26.206  17.130   4.675
26979W        W90538  42.456  26.033  12.934
26980W        W90539  22.077  10.663   0.265
26981W        W90540  42.294  31.020   0.246
26982W        W90541  11.747   0.475   3.711
26983W        W90542  33.067  16.670   2.697
26984W        W90543  26.165   2.926  14.498
26985W        W90544   3.390  18.695   1.908
26986W        W90545   9.366  37.471  12.913
26987W        W90546   3.280  15.087  14.319
26988W        W90547  10.316   9.260   4.765
26989W        W90548   1.905  26.569   0.792
26990W        W90549  35.461  27.662  13.032
26991W        W90550  14.797  36.553   3.213
26992W        W90551  26.638  31.632   3.760
26993W        W90552  29.975   4.386   1.222
26994W        W90553  26.076  41.036   2.775
26995W        W90554  23.097   2.748   4.723
26996W        W90555   3.371   5.292   2.898
26997W        W90556   4.314  41.041  10.611
26998W        W90557  18.224  17.164  11.587
26999W        W90558  35.875   4.317   2.890
27000W        W90559  31.902   6.305   5.236
27001W        W90560  32.406  12.277  12.993
27002W        W90561  12.266  24.032  14.003
27003W        W90562   9.377  28.596   1.369
27004W        W90563  14.172  42.958   3.682
27005W        W90564  16.768  31.920  11.045
27006W        W90565  10.663  37.487  10.479
27007W        W90566  40.049  41.001   3.730
27008W        W90567  13.334  29.034   1.446
27009W        W90568  31.610  22.730  14.978
27010W        W90569   0.758  23.099   2.785
27011W        W90570  34.536  31.044   4.299
27012W        W90571  41.871  31.455  14.998
27013W        W90572  43.307  40.865   1.389
27014W        W90573   5.310  14.123   4.161
27015W        W90574  10.146  39.057   1.407
27016W        W90575  43.017  24.605  13.948
27017W        W90576  27.641  35.466   2.662
27018W        W90577   7.833   7.893   2.831
27019W        W90578  11.862   1.483  11.500
27020W        W90579  37.439  40.935   4.780
27021W        W90580  12.798  16.187  13.845
27022W        W90581  16.147  37.409   0.772
27023W        W90582  28.553  16.076  12.507
27024W        W90583  27.973   5.739  14.798
27025W        W90584  41.043   4.708  14.931
27026W        W90585  26.135  23.194  11.432
27027W        W90586  40.438  26.476   2.667
27028W        W90587  25.517  36.055  11.897
27029W        W90588   2.855   9.230   0.431
27030W        W90589  28.605  44.999   0.956
27031W        W90590  31.538  41.855  11.955
27032W        W90591  16.174  42.896  13.416
27033W        W90592  19.749  25.503  14.411
27034W        W90593  11.686  30.495   0.455
27035W        W90594  18.732  17.259   2.811
27036W        W90595  34.407  19.739   1.878
27037W        W90596  38.442  43.922   2.190
27038W        W90597  40.853  42.840   4.226
27039W        W90598  35.555  32.010  14.277
27040W        W90599  22.123   3.245  12.040
27041W        W90600  13.134  33.412  11.585
27042W        W90601  21.161  30.626   2.351
27043W        W90602  17.241  33.624  11.551
27044W        W90603  40.900   0.898   0.343
27045W        W90604   8.742  22.663  11.955
27046W        W90605  18.110  32.490   1.286
27047W        W90606  34.076  34.379   0.261
27048W        W90607  43.951  34.370  13.036
27049W        W90608  28.530   0.383  11.981
27050W        W90609  16.743  34.917   3.383
27051W        W90610   0.253  14.260   2.400
27052W        W90611  21.610   8.880   4.598
27053W        W90612  24.002  44.006  13.952
27054W        W90613  38.549  16.772  10.530
27055W        W90614  21.739  24.600  10.412
27056W        W90615  22.719   7.382   3.688
27057W        W90616  29.571  43.805  14.930
27058W        W90617   8.858  28.938  10.080
27059W        W90618  18.053  37.838   0.827
27060W        W90619  16.280  22.075  10.487
27061W        W90620  29.145  37.352   3.360
27062W        W90621   1.766  15.181  13.474
27063W        W90622   1.868  22.505  14.982
27064W        W90623  18.252  35.507   1.740
27065W        W90624   3.226  32.584   3.657
27066W        W90625  24.116   8.184   4.601
27067W        W90626  42.839   9.148  10.502
27068W        W90627  21.261  38.512  11.576
27069W        W90628  32.501  41.452   1.242
27070W        W90629  35.469   4.718   4.204
27071W        W90630   9.306   7.782   3.250
27072W        W90631  29.426  40.972  14.969
27073W        W90632   4.314  29.633  13.064
27074W        W90633   3.780  13.121   4.728
27075W        W90634  24.494  31.554   1.451
27076W        W90635  33.405  14.239  12.087
27077W        W90636   8.319   7.864  13.470
27078W        W90637  13.150  43.937  11.936
27079W        W90638  36.948  17.754  12.508
27080W        W90639  40.389  44.330   0.814
27081W        W90640  22.536  43.814   2.274
27082W        W90641  44.300  29.038   4.710
27083W        W90642  35.395   9.872   0.301
27084W        W90643  18.155  42.434  10.628
27085W        W90644   6.236  18.170  10.093
27086W        W90645   2.324  20.038   0.397
27087W        W90646  33.436  32.970   2.831
27088W        W90647   3.307   6.270  14.437
27089W        W90648  37.981  21.089  11.542
27090W        W90649  14.754  23.079  11.541
27091W        W90650   2.463   7.812  11.575
27092W        W90651  39.924   6.283   2.732
27093W        W90652  27.598  25.047   2.216
27094W        W90653  44.342  27.629  10.469
27095W        W90654  37.006  18.730  11.125
27096W        W90655  14.627  35.474   2.315
27097W        W90656  24.502  18.120   2.249
27098W        W90657  22.240  20.760  13.796
27099W        W90658  22.033  44.445  14.953
27100W        W90659  22.078  19.747  14.438
27101W        W90660  40.849   8.210   0.731
27102W        W90661   4.883  29.648  11.901
27103W        W90662  25.570  41.862   1.407
27104W        W90663  14.792   9.756  10.041
27105W        W90664  26.592   1.300  13.440
27106W        W90665  32.552   7.883  10.621
27107W        W90666  39.477  43.820   3.377
27108W        W90667  18.075  40.475   4.172
27109W        W90668  42.933  33.465   2.235
27110W        W90669  31.968   3.748  14.299
27111W        W90670  36.536  10.709   3.741
27112W        W90671  36.436  24.706   4.239
27113W        W90672  30.922  36.893  12.487
27114W        W90673  39.364   8.833  13.359
27115W        W90674   9.178   2.817   2.366
27116W        W90675  35.374   0.301  11.536
27117W        W90676  27.986  40.445   1.778
27118W        W90677  35.014  10.292  14.312
27119W        W90678  28.528   8.343  13.827
27120W        W90679  24.011   5.204   2.727
27121W        W90680  19.678  44.925   3.294
27122W        W90681  22.596   7.184   0.853
27123W        W90682  31.932   9.283   2.824
27124W        W90683   3.455   0.481  12.010
27125W        W90684  13.239  31.992  12.448
27126W        W90685  18.618  11.259  10.439
27127W        W90686   8.669  37.867   4.639
27128W        W90687  28.021  23.216   9.525
27129W        W90688   1.295   8.382   2.740
27130W        W90689   1.910  19.128  11.038
27131W        W90690  10.310   9.704   3.870
27132W        W90691   0.967  25.129   2.675
27133W        W90692  39.860  19.173  11.496
27134W        W90693  37.055  44.328  13.407
27135W        W90694  34.612  15.739  13.312
27136W        W90695  11.151  43.862   1.926
27137W        W90696  13.313  12.637   4.806
27138W        W90697  33.884  30.544   1.359
27139W        W90698  16.678   2.407  14.395
27140W        W90699  33.878  41.794   2.830
27141W        W90700  41.953  44.296   4.221
27142W        W90701  26.593  28.631  11.914
27143W        W90702  31.616  38.918  13.838
27144W        W90703  32.405  20.661  14.410
27145W        W90704   8.188  27.004  12.078
27146W        W90705  21.017  32.902  14.836
27147W        W90706  36.441  43.326   1.765
27148W        W90707  27.466  16.188  11.514
27149W        W90708  41.316  19.278  13.450
27150W        W90709  37.868  39.457   4.630
27151W        W90710  23.024  39.448  11.519
27152W        W90711  17.619  30.947  13.430
27153W        W90712  37.878  34.062   1.443
27154W        W90713  25.648  35.478  12.378
27155W        W90714   6.811  10.722  13.929
27156W        W90715  22.719  35.381   3.722
27157W        W90716  30.560  42.508  13.983
27158W        W90717  20.186  19.199   2.318
27159W        W90718   8.816  28.996  13.494
27160W        W90719  41.429  39.933   4.188
27161W        W90720   2.443   5.265  11.447
27162W        W90721  26.978  25.065  11.911
27163W        W90722  18.231  13.649   2.684
27164W        W90723  20.601  22.131  11.002
27165W        W90724   6.759  18.175  14.301
27166W        W90725   3.827  22.079  11.496
27167W        W90726  36.070  29.514   2.747
27168W        W90727  34.553  28.617  14.503
27169W        W90728  30.935  26.978   2.288
27170W        W90729   1.393  12.704   2.699
27171W        W90730  40.028  26.050  10.636
27172W        W90731  21.198  10.692  14.330
27173W        W90732  41.796   5.252  11.027
27174W        W90733  35.896  11.172  14.345
27175W        W90734  11.327  23.558   4.273
27176W        W90735  33.024  17.154  12.352
27177W        W90736  14.793  40.528  13.016
27178W        W90737  16.595   9.698   1.272
27179W        W90738   8.752  30.450  12.038
27180W        W90739  32.136  41.498   4.247
27181W        W90740  27.652   8.229  12.002
27182W        W90741  40.815  13.183   4.606
27183W        W90742  13.305  18.152  13.462
27184W        W90743  26.525  30.965  12.520
27185W        W90744   7.907  36.985   2.408
27186W        W90745  23.613  16.702   2.399
27187W        W90746  38.836  27.533  14.339
27188W        W90747  28.171  33.475   4.600
27189W        W90748  41.976   8.813  13.988
27190W        W90749  37.017  41.011   1.873
27191W        W90750  10.847  13.791   0.939
27192W        W90751  18.712  39.997  12.828
27193W        W90752  29.510  42.846  14.898
27194W        W90753  44.312  28.161  11.922
27195W        W90754  20.530   1.309  10.899
27196W        W90755   9.320   2.425   0.477
27197W        W90756   2.369  21.174  10.988
27198W        W90757  14.167  25.565  13.537
27199W        W90758  38.050  28.176   2.736
27200W        W90759  16.254  39.051   4.284
27201W        W90760  38.482  15.251   2.413
27202W        W90761  13.174  25.480   3.188
27203W        W90762  29.658  17.618   2.387
27204W        W90763   1.732   6.335   0.453
27205W        W90764  36.863  40.984  12.860
27206W        W90765  38.542  36.029  11.558
27207W        W90766   6.695  20.058   1.287
27208W        W90767   0.780   0.982  11.580
27209W        W90768  44.368   2.407   4.604
27210W        W90769  16.760  13.351  11.053
27211W        W90770  37.084  23.106  13.473
27212W        W90771  16.201  44.889   4.669
27213W        W90772  22.740  12.230  12.558
27214W        W90773   7.750  35.907  14.449
27215W        W90774  18.211  31.010   0.781
27216W        W90775  17.633   0.818  13.492
27217W        W90776   7.683  41.993  11.466
27218W        W90777  43.989  34.420  10.628
27219W        W90778  21.600   2.469   0.906
27220W        W90779  31.587  41.010   3.631
27221W        W90780  39.545  36.990  11.414
27222W        W90781  18.695  12.786  13.056
27223W        W90782  23.985  39.968   0.949
27224W        W90783  39.333  12.636   4.315
27225W        W90784  36.425  24.698   2.200
27226W        W90785  41.318  40.499  14.480
27227W        W90786  18.126  29.157   5.757
27228W        W90787  28.138   1.358   0.311
27229W        W90788   1.949  32.471   2.403
27230W        W90789   8.868  36.932   3.662
27231W        W90790  24.102  44.305   3.236
27232W        W90791  35.000  38.852   3.856
27233W        W90792  27.125  40.539  13.924
27234W        W90793  24.155  18.200   1.267
27235W        W90794  41.884  22.070  13.419
27236W        W90795  15.206  29.017  11.057
27237W        W90796  18.754  28.667  13.348
27238W        W90797  32.564  44.483   4.120
27239W        W90798  27.579  16.214   1.395
27240W        W90799  18.708  39.378   0.469
27241W        W90800  37.391  32.943   3.188
27242W        W90801  14.787  33.001   0.247
27243W        W90802  25.560  19.286   3.634
27244W        W90803  10.172   9.267   9.983
27245W        W90804  20.612  43.503   1.694
27246W        W90805  44.498  25.596  12.000
27247W        W90806  31.135   8.758   2.719
27248W        W90807  22.711  19.730  14.788
27249W        W90808  31.090  39.549   2.752
27250W        W90809  20.043  29.044  11.452
27251W        W90810  33.433  32.937  13.369
27252W        W90811  23.640  12.825  13.521
27253W        W90812  26.609  32.094  13.007
27254W        W90813  10.314  23.697   0.881
27255W        W90814   5.410   0.301   0.411
27256W        W90815  25.030  13.709  13.804
27257W        W90816  22.625  14.756  10.454
27258W        W90817  31.992  42.457  12.070
27259W        W90818  11.260  21.574   1.352
27260W        W90819  37.366  40.319  11.962
27261W        W90820  18.649  40.457  14.331
27262W        W90821  22.149  13.269  10.150
27263W        W90822  21.676  34.404   2.411
27264W        W90823   1.947  23.075   4.176
27265W        W90824  30.120  35.401  14.887
27266W        W90825   7.666   9.194   4.261
27267W        W90826  10.373  19.270  13.392
27268W        W90827   9.322  12.137  11.601
27269W        W90828   3.218   4.427   0.395
27270W        W90829  25.036  41.470   1.892
27271W        W90830  22.093  35.357   1.932
27272W        W90831   9.393  33.037   1.360
27273W        W90832   0.347  21.254  11.483
27274W        W90833  21.252  42.459  14.391
27275W        W90834  11.288  31.026  10.980
27276W        W90835  16.220  39.461  14.028
27277W        W90836  31.991  21.631  11.523
27278W        W90837  27.116  23.537  12.434
27279W        W90838  10.682  32.567  10.909
27280W        W90839  23.591   3.789   3.285
27281W        W90840  21.025  35.544   2.830
27282W        W90841  23.177  20.252   2.314
27283W        W90842  23.696   5.252   3.165
27284W        W90843   5.417   2.449  10.635
27285W        W90844   7.716  26.663  14.418
27286W        W90845   1.858  22.683   4.322
27287W        W90846  16.114  20.247  13.899
27288W        W90847  42.955   8.882   2.223
27289W        W90848   9.311  35.919  14.825
27290W        W90849  41.883  39.486  12.008
27291W        W90850   9.150  41.432   5.081
27292W        W90851  14.741   6.421   0.745
27293W        W90852  43.791   3.816   0.744
27294W        W90853  22.021  36.975   4.282
27295W        W90854  24.161   7.279  11.421
27296W        W90855  13.158  40.021  14.833
27297W        W90856  44.808   5.236  14.428
27298W        W90857  41.937  23.124  13.982
27299W        W90858   8.351  23.055   4.289
27300W        W90859  15.813  30.506  11.876
27301W        W90860  29.149  35.104   1.269
27302W        W90861  10.637  36.413   3.170
27303W        W90862  21.219  16.657  13.022
27304W        W90863  29.612  42.782  11.566
27305W        W90864  40.443   1.302   0.254
27306W        W90865   1.300  15.645  12.578
27307W        W90866  19.673  30.964   0.357
27308W        W90867  19.615  31.435  12.880
27309W        W90868  26.169  32.127   4.214
27310W        W90869  20.691   0.431  10.436
27311W        W90870  43.768  44.480   0.481
27312W        W90871  25.159  25.184   2.235
27313W        W90872  31.067   7.898  11.096
27314W        W90873  40.838  35.594   3.676
27315W        W90874   4.823  33.503   4.251
27316W        W90875   9.826  32.024   5.289
27317W        W90876  32.633  41.432  14.869
27318W        W90877   4.939  44.883  10.624
27319W        W90878  43.413  33.885  14.975
27320W        W90879  17.709   1.784   0.761
27321W        W90880  20.641  11.818   2.666
27322W        W90881  32.093   3.271   3.703
27323W        W90882   4.324  36.542  10.971
27324W        W90883  19.082  10.786   1.710
27325W        W90884   2.368  38.913   1.830
27326W        W90885  43.996  28.124   4.754
27327W        W90886  15.605  16.260  14.797
27328W        W90887  37.349  21.748  11.125
27329W        W90888   9.363  37.482  11.530
27330W        W90889  14.804  21.709   3.293
27331W        W90890  30.143  21.534   2.289
27332W        W90891  15.605  36.050   4.289
27333W        W90892  21.074  43.883   5.304
27334W        W90893  36.497  20.149  12.021
27335W        W90894  17.242  15.302  11.436
27336W        W90895   0.971  29.036  12.367
27337W        W90896  21.553  16.739   1.369
27338W        W90897  26.028   4.403  13.952
27339W        W90898   8.872   5.722   2.317
27340W        W90899  11.715  14.142   4.152
27341W        W90900   5.839   1.737   3.335
27342W        W90901  22.643  18.697   0.304
27343W        W90902   7.262  29.483   4.709
27344W        W90903   5.887  32.001   1.719
27345W        W90904  32.565  12.201   0.806
27346W        W90905   8.725  27.170   3.696
27347W        W90906   4.303  37.065   1.793
27348W        W90907   1.871  43.811  13.515
27349W        W90908  34.887   0.861   1.720
27350W        W90909  28.484  42.802   2.671
27351W        W90910   2.822  31.939   0.853
27352W        W90911  26.651  28.619   2.405
27353W        W90912   3.727  32.952  14.487
27354W        W90913  19.713  25.649   3.756
27355W        W90914  40.311  37.853   1.283
27356W        W90915   9.222  39.026  12.904
27357W        W90916  21.185  35.536   1.396
27358W        W90917  17.189  39.345  11.599
27359W        W90918  29.122   5.232   1.880
27360W        W90919  42.505  20.735   2.854
27361W        W90920  34.567   8.279  13.860
27362W        W90921  28.463  14.278   1.445
27363W        W90922  25.528  31.549  11.553
27364W        W90923  11.340  33.389  13.006
27365W        W90924  36.503  42.913   4.743
27366W        W90925  21.102   9.737   2.834
27367W        W90926   5.220  16.616  13.937
27368W        W90927  35.396  41.023   2.358
27369W        W90928  42.019  10.841  13.973
27370W        W90929  30.961  24.143   1.876
27371W        W90930  32.446  31.604  13.881
27372W        W90931   1.296  33.130  14.481
27373W        W90932  44.857  36.514  13.802
27374W        W90933   5.853  17.790  11.970
27375W        W90934  36.860  22.033  11.462
27376W        W90935  13.628   6.380  11.091
27377W        W90936  42.944  16.778  13.508
27378W        W90937   3.888  29.471  13.998
27379W        W90938  27.581  37.533  10.570
27380W        W90939  41.830  16.798   1.418
27381W        W90940   1.454  31.513   3.738
27382W        W90941  40.374  16.693  10.630
27383W        W90942  40.814  25.581   1.268
27384W        W90943  29.453  11.146   4.752
27385W        W90944   1.384   9.702   2.264
27386W        W90945  24.563  40.449  14.465
27387W        W90946   4.841   0.345   3.154
27388W        W90947  18.789  41.298   1.212
27389W        W90948  31.121  38.374   0.401
27390W        W90949  19.664   7.833   4.739
27391W        W90950  19.274   4.938  13.854
27392W        W90951   8.800  39.485   1.339
27393W        W90952   4.759   2.300   0.919
27394W        W90953  29.948  23.576   4.202
27395W        W90954   6.233  30.939  10.951
27396W        W90955  40.452  39.027  12.385
27397W        W90956  37.550  33.436  12.054
27398W        W90957  42.486  34.927  13.830
27399W        W90958  38.908  25.493   3.720
27400W        W90959  26.113  35.085   0.784
27401W        W90960  32.984  40.446   0.875
27402W        W90961  35.523  40.353   1.857
27403W        W90962   9.818   3.220  11.451
27404W        W90963  15.800  13.794   2.365
27405W        W90964  44.336  12.228   1.273
27406W        W90965  21.673  19.685  12.567
27407W        W90966   6.905  35.471   3.732
27408W        W90967  38.421  12.848   1.437
27409W        W90968  36.007  11.158   3.735
27410W        W90969  24.695  35.468  13.464
27411W        W90970   7.178  18.171   0.371
27412W        W90971  24.997  38.041  11.079
27413W        W90972  24.596   9.312  14.885
27414W        W90973  17.187  17.193   2.397
27415W        W90974  37.067  43.505   4.302
27416W        W90975  19.230  14.108  11.552
27417W        W90976   6.788  17.563  10.500
27418W        W90977  29.125   6.348  12.481
27419W        W90978   9.743  15.593   9.672
27420W        W90979  39.362   4.375  10.946
27421W        W90980  40.508  26.510   2.256
27422W        W90981  13.213  32.934   1.771
27423W        W90982  36.057  21.088   0.404
27424W        W90983  36.489  28.078  10.031
27425W        W90984  23.650  39.493  12.462
27426W        W90985  17.637  43.484   1.774
27427W        W90986  43.436  11.727  13.791
27428W        W90987  31.612   4.296  10.925
27429W        W90988  35.992  37.056  11.899
27430W        W90989  10.268  11.171   3.859
27431W        W90990  41.828  32.898  12.040
27432W        W90991   2.828   5.335  10.608
27433W        W90992  31.428  20.163   3.197
27434W        W90993  41.894  22.575  12.096
27435W        W90994   4.247   7.201  14.279
27436W        W90995  33.426  38.867  12.054
27437W        W90996  11.292  18.241   3.251
27438W        W90997  10.245  21.549  13.903
27439W        W90998  14.711  12.730   0.852
27440W        W90999  32.427   7.891  11.525
27441W        W91000   1.737  15.765   4.304
27442W        W91001  34.538  32.459  14.496
27443W        W91002  24.195   6.273  13.937
27444W        W91003  27.168   0.752  10.414
27445W        W91004  22.061  40.471  11.445
27446W        W91005   7.907  41.443   4.740
27447W        W91006  11.782   2.914  14.026
27448W        W91007  35.991   3.767   3.204
27449W        W91008   5.248   9.797   2.773
27450W        W91009  13.795  22.236   5.144
27451W        W91010  40.338  39.008  14.427
27452W        W91011   7.297  14.194  10.504
27453W        W91012  42.818  35.994   3.369
27454W        W91013  11.847   7.867   5.168
27455W        W91014  10.286  15.130   3.729
27456W        W91015   7.789  40.808   2.184
27457W        W91016   6.209   1.426  11.479
27458W        W91017  10.863  31.926  14.893
27459W        W91018   0.448  38.490  13.508
27460W        W91019  13.676   1.758   3.704
27461W        W91020  20.740  16.318  10.933
27462W        W91021   5.769  30.646   2.824
27463W        W91022  20.647  14.665   4.134
27464W        W91023  39.903  27.967  10.453
27465W        W91024  19.080  16.576   1.804
27466W        W91025  18.758  24.557  12.837
27467W        W91026  18.140   5.851  14.997
27468W        W91027  21.178  35.936   2.400
27469W        W91028  15.702  25.665  13.512
27470W        W91029   3.421   1.869  12.385
27471W        W91030  21.733  32.130  11.412
27472W        W91031  33.562   6.834   4.618
27473W        W91032  38.495  20.592  12.088
27474W        W91033  19.051  21.145  14.759
27475W        W91034  13.254  12.229  11.001
27476W        W91035  27.662  15.213  13.345
27477W        W91036  16.570   1.829  10.505
27478W        W91037  24.556  37.431   2.306
27479W        W91038  32.049   0.985  13.387
27480W        W91039   5.226  28.509  12.496
27481W        W91040  26.559  17.111  14.337
27482W        W91041  15.286  33.523   2.806
27483W        W91042  43.786  26.094   0.401
27484W        W91043  10.206  22.211  11.862
27485W        W91044  38.851   2.240   2.891
27486W        W91045  41.933   7.259   3.850
27487W        W91046  21.717  27.500  12.420
27488W        W91047  41.477  11.824  12.885
27489W        W91048  15.792   8.772  14.415
27490W        W91049   5.234   3.902   1.350
27491W        W91050  22.536  40.470   2.198
27492W        W91051  25.637  33.385   4.176
27493W        W91052   4.383  25.654   1.909
27494W        W91053   1.279   4.781   0.380
27495W        W91054  26.202   1.311   1.413
27496W        W91055  38.862   3.854   0.325
27497W        W91056  26.522  22.743  14.987
27498W        W91057  27.639   3.929   3.747
27499W        W91058  40.817  33.428  13.320
27500W        W91059  19.066   7.337  13.845
27501W        W91060  27.018   8.242   4.148
27502W        W91061  28.030  25.997  13.892
27503W        W91062  33.111  29.012   0.804
27504W        W91063  42.929  32.588   5.122
27505W        W91064  18.101  36.061   4.264
27506W        W91065  18.709  11.324   2.885
27507W        W91066  16.215  15.222   2.178
27508W        W91067  36.399   1.799  11.573
27509W        W91068   5.888   0.825  12.340
27510W        W91069  23.582  42.482  10.432
27511W        W91070   2.735   8.770  10.619
27512W        W91071   7.699  10.203  11.504
27513W        W91072  15.245  19.545  11.387
27514W        W91073   3.840  15.239   2.267
27515W        W91074  29.629  28.538   4.340
27516W        W91075  28.613  30.039  13.356
27517W        W91076  23.555  10.226  11.876
27518W        W91077   7.305  31.067  11.479
27519W        W91078  40.420  24.164   2.333
27520W        W91079   3.783  14.252  13.014
27521W        W91080  25.712   7.203  14.343
27522W        W91081  34.903   1.377   0.368
27523W        W91082  30.987  40.322   3.208
27524W        W91083   1.290   5.235   4.182
27525W        W91084  24.098   4.428  12.862
27526W        W91085  24.076  38.954  14.828
27527W        W91086  23.094  20.592  11.587
27528W        W91087  11.300  36.999   2.667
27529W        W91088  44.315   8.731   4.710
27530W        W91089  14.217  21.685  12.906
27531W        W91090  40.388  16.289  13.818
27532W        W91091  20.549  40.537   0.831
27533W        W91092  40.429  24.080  14.998
27534W        W91093  11.646  28.451  10.642
27535W        W91094   6.377  37.542   1.829
27536W        W91095   8.871  37.571  12.010
27537W        W91096  22.621  10.293  11.456
27538W        W91097   7.209  10.661  14.361
27539W        W91098  31.646  13.175  12.901
27540W        W91099  33.592  42.839   0.940
27541W        W91100  35.071  17.283  12.472
27542W        W91101  36.510  23.149   2.203
27543W        W91102  29.971   0.347   2.854
27544W        W91103  35.552  35.998   1.277
27545W        W91104  31.914  10.858   0.391
27546W        W91105  17.575  28.519  10.514
27547W        W91106  44.941   6.852  13.878
27548W        W91107  42.285  35.965   3.725
27549W        W91108   1.929  23.046  14.824
27550W        W91109  43.863  14.188  13.334
27551W        W91110   7.305  28.021  11.093
27552W        W91111  38.391   3.253   2.190
27553W        W91112   7.377   2.871  12.006
27554W        W91113  35.886   7.722  10.917
27555W        W91114  21.065   7.416  10.476
27556W        W91115   7.226  34.955  11.429
27557W        W91116  19.605   1.753   3.267
27558W        W91117   7.824  37.000  11.428
27559W        W91118  17.147  44.968   4.639
27560W        W91119  30.105  32.090  11.430
27561W        W91120  37.346  26.122   3.282
27562W        W91121  42.815  10.649   3.157
27563W        W91122  25.178  26.469  13.821
27564W        W91123   2.397   0.810  12.012
27565W        W91124  18.605  19.544   4.725
27566W        W91125  40.891  11.170   4.654
27567W        W91126  42.845  35.958  11.457
27568W        W91127  32.479  25.122  11.580
27569W        W91128  15.272  23.188  11.087
27570W        W91129  33.441  12.322  12.964
27571W        W91130   9.729   0.835   1.923
27572W        W91131  15.607  39.532  11.606
27573W        W91132  41.902  23.620  13.517
27574W        W91133   2.281  42.300   3.719
27575W        W91134  14.708  36.850   0.454
27576W        W91135  25.677  32.576  11.372
27577W        W91136  18.588  42.861   5.111
27578W        W91137  16.249  36.005  13.019
27579W        W91138  41.524  21.200   3.169
27580W        W91139  11.788  35.934   3.647
27581W        W91140  27.563  24.162   1.802
27582W        W91141  10.233  43.843  14.325
27583W        W91142  27.191   3.884  14.826
27584W        W91143  26.141  14.305   1.231
27585W        W91144  32.982  27.495   1.267
27586W        W91145   6.687   9.776   3.330
27587W        W91146   8.714  38.885  10.969
27588W        W91147  18.178  28.598   1.420
27589W        W91148   3.391  30.582   4.699
27590W        W91149  19.092  27.503   9.499
27591W        W91150  29.941   2.441  10.901
27592W        W91151  10.333  13.790  11.055
27593W        W91152  26.201  25.521  13.842
27594W        W91153  35.585  38.848  14.957
27595W        W91154  21.571   3.867   4.810
27596W        W91155  35.514  22.572  13.903
27597W        W91156  39.426  34.899   2.363
27598W        W91157  42.862  34.923  12.871
27599W        W91158  21.724   2.359  11.403
27600W        W91159  23.228  34.063   4.241
27601W        W91160   8.285   1.899   0.368
27602W        W91161  24.114  11.714   2.779
27603W        W91162  17.236  11.742  12.878
27604W        W91163  34.482  12.843  12.944
27605W        W91164  42.810  16.721   9.921
27606W        W91165  15.194  27.122   3.234
27607W        W91166  41.006  26.089   2.825
27608W        W91167  44.934   2.326  12.439
27609W        W91168  39.884   2.266   4.149
27610W        W91169  33.015   5.249  11.386
27611W        W91170  15.672  12.208  12.894
27612W        W91171  17.302  27.460  11.019
27613W        W91172  16.079  41.507  10.455
27614W        W91173   5.848   1.446  12.945
27615W        W91174  29.652   7.763   0.343
27616W        W91175  25.570   2.344   4.347
27617W        W91176  37.526   4.389   3.322
27618W        W91177  39.951  36.478  14.490
27619W        W91178  17.158  31.032  11.395
27620W        W91179  32.956   1.279   3.773
27621W        W91180   0.276  12.131  14.477
27622W        W91181  26.030  36.431   1.251
27623W        W91182   1.248  11.828   2.238
27624W        W91183  23.120  20.628  11.956
27625W        W91184  43.494   9.682   2.779
27626W        W91185  32.396  13.288   4.262
27627W        W91186  31.431  12.670   4.781
27628W        W91187   2.397   9.779  12.373
27629W        W91188  32.489  34.424  10.056
27630W        W91189   6.399  15.710  14.328
27631W        W91190  31.068  22.239  11.395
27632W        W91191  43.364  13.338  14.959
27633W        W91192   8.899  21.711  14.304
27634W        W91193  16.717  29.033   4.613
27635W        W91194  15.585  35.975  13.039
27636W        W91195  34.952  38.849   1.895
27637W        W91196   6.328   5.898   1.404
27638W        W91197  31.526  34.522  10.891
27639W        W91198  41.014  37.991  14.830
27640W        W91199   4.281  38.860  14.324
27641W        W91200  21.083  41.909  12.399
27642W        W91201  27.134  23.077  14.020
27643W        W91202   2.388  34.583   4.609
27644W        W91203  19.648  28.545  11.076
27645W        W91204   4.789  10.231   5.197
27646W        W91205  36.955  29.955   4.718
27647W        W91206  21.148  20.580  12.424
27648W        W91207  40.325   6.710  12.910
27649W        W91208  31.591  41.835  14.960
27650W        W91209  25.125   0.267  14.822
27651W        W91210  28.473   3.393   1.694
27652W        W91211  28.523  11.372  10.944
27653W        W91212  42.493   7.867  11.020
27654W        W91213   6.862  27.461   4.780
27655W        W91214  40.999   4.720  10.426
27656W        W91215   8.859  43.472  13.380
27657W        W91216   1.972   4.709   4.768
27658W        W91217   5.347  38.997  12.070
27659W        W91218  31.998  19.058  14.974
27660W        W91219   0.455  26.975  13.310
27661W        W91220   7.684  33.623  10.621
27662W        W91221  34.051   6.818   2.346
27663W        W91222  11.344  32.437   0.928
27664W        W91223  29.056  28.568   0.302
27665W        W91224   1.313   7.259  14.294
27666W        W91225  11.833  17.085   5.110
27667W        W91226  31.007  19.217  13.327
27668W        W91227  28.621  36.039   3.731
27669W        W91228  10.351   3.818   0.914
27670W        W91229   0.765  34.419  14.939
27671W        W91230  21.522   9.887   1.327
27672W        W91231   0.315  11.650  10.512
27673W        W91232  27.133  13.335   4.766
27674W        W91233  18.096  10.843  14.835
27675W        W91234  26.590  10.225   1.724
27676W        W91235  41.408  39.440   4.773
27677W        W91236   0.407  22.518  13.346
27678W        W91237  16.182  27.161  11.523
27679W        W91238  38.483  17.165  14.275
27680W        W91239  34.422  33.057  12.874
27681W        W91240  43.767  27.615   0.736
27682W        W91241  19.677   0.474  14.851
27683W        W91242  39.455  28.575   2.418
27684W        W91243   4.341  32.963   4.210
27685W        W91244  16.806  11.315  13.432
27686W        W91245  18.271  10.638  10.526
27687W        W91246   7.188  15.723  13.330
27688W        W91247   9.801  17.622  14.861
27689W        W91248  14.162  40.531  14.386
27690W        W91249  41.511  31.997   1.285
27691W        W91250   7.719   2.853   4.312
27692W        W91251  23.154   1.915  11.895
27693W        W91252  32.081  17.767  13.507
27694W        W91253  18.117  42.921   2.270
27695W        W91254  10.818  44.894  14.368
27696W        W91255  15.669  44.401   1.275
27697W        W91256  24.688  38.985  12.377
27698W        W91257  43.946  28.065  14.313
27699W        W91258  44.806  40.544   3.309
27700W        W91259  17.633  13.110  11.887
27701W        W91260   3.864  23.102   0.938
27702W        W91261  38.832  33.067   1.282
27703W        W91262  25.606   9.860  13.061
27704W        W91263  36.843  14.288  13.465
27705W        W91264   8.249  10.660   1.725
27706W        W91265   5.729  44.455  12.092
27707W        W91266   3.862  32.409  13.802
27708W        W91267  31.902  42.937   1.726
27709W        W91268  16.214  38.938   0.807
27710W        W91269  19.101  31.119  10.642
27711W        W91270  37.878  20.193  14.297
27712W        W91271   7.189  26.553  10.635
27713W        W91272  27.161  35.919  13.532
27714W        W91273  42.426  44.848   4.325
27715W        W91274  15.145  28.036  11.004
27716W        W91275  14.646  37.049  13.368
27717W        W91276  26.541  40.522  13.406
27718W        W91277  23.217  32.126  11.611
27719W        W91278  37.987   4.427   2.758
27720W        W91279  14.794  40.447   4.300
27721W        W91280  14.625   4.747   3.306
27722W        W91281  34.896  30.141  12.361
27723W        W91282  19.152  29.637  14.400
27724W        W91283  27.521  35.969   4.325
27725W        W91284   8.700  25.168  14.903
27726W        W91285  41.360   6.226   2.201
27727W        W91286  44.359  13.231   1.331
27728W        W91287  21.053  24.479  14.964
27729W        W91288  31.639  20.732   4.830
27730W        W91289  39.381  31.091  10.930
27731W        W91290  14.213  12.648  14.821
27732W        W91291  43.297  41.930   1.902
27733W        W91292   0.910  11.845   2.741
27734W        W91293  42.408   0.930  13.502
27735W        W91294  22.036   5.235  14.955
27736W        W91295  39.978   5.284   3.374
27737W        W91296  32.442  41.365   0.433
27738W        W91297  34.531  25.155   2.875
27739W        W91298  21.654  36.526  14.499
27740W        W91299   7.870   2.761  12.393
27741W        W91300  37.051  26.955  12.352
27742W        W91301   7.697  10.810   0.836
27743W        W91302  23.557   0.744  13.544
27744W        W91303  27.481  40.026  11.527
27745W        W91304  18.244  43.996   4.688
27746W        W91305   9.723   5.726  13.461
27747W        W91306  30.942   8.690  14.505
27748W        W91307  23.224  17.144   3.384
27749W        W91308  28.445  39.480   4.163
27750W        W91309  27.488  31.907   2.238
27751W        W91310  31.071   1.416  14.383
27752W        W91311  29.135  23.157  11.004
27753W        W91312  20.679  41.334   1.861
27754W        W91313  28.146  22.220  13.354
27755W        W91314  29.918  36.917  14.008
27756W        W91315   1.396  16.292  11.539
27757W        W91316  39.891  39.524  14.024
27758W        W91317  42.430  39.385   0.271
27759W        W91318  36.938  25.500   4.182
27760W        W91319  13.351  30.601  10.003
27761W        W91320  29.610  36.039   9.995
27762W        W91321  22.680  42.994  13.418
27763W        W91322  17.618  44.804  10.591
27764W        W91323  35.466  35.374   1.423
27765W        W91324  17.231  21.063   4.174
27766W        W91325  11.756  33.519  12.850
27767W        W91326  32.560  40.817  11.029
27768W        W91327  44.479   8.283   3.662
27769W        W91328   1.888  29.607   0.410
27770W        W91329   6.795  38.438   1.293
27771W        W91330  41.966   8.272  12.447
27772W        W91331  29.423  20.106   0.339
27773W        W91332   2.956  36.575   0.918
27774W        W91333  22.063  38.534   4.827
27775W        W91334   8.171  27.966   1.915
27776W        W91335  36.021  41.525  13.032
27777W        W91336  15.617  21.669  12.001
27778W        W91337  38.040  21.024   1.711
27779W        W91338  43.916   0.984   1.282
27780W        W91339  34.453  38.351  11.073
27781W        W91340  15.645  19.103  12.501
27782W        W91341  19.747  42.844   4.210
27783W        W91342  27.568   6.812   0.468
27784W        W91343  14.329  28.975   4.235
27785W        W91344  38.994  31.140   2.179
27786W        W91345  14.623  42.841   2.344
27787W        W91346  38.351  28.638  14.313
27788W        W91347  16.148  21.232  10.960
27789W        W91348  43.502   8.679   0.453
27790W        W91349   5.805  42.420  11.976
27791W        W91350   1.848  31.027   4.306
27792W        W91351  15.194   7.399   3.661
27793W        W91352   9.843  33.023   1.406
27794W        W91353  30.650  11.175  14.496
27795W        W91354   7.328  17.661  10.975
27796W        W91355  24.043  25.113  13.320
27797W        W91356  22.510  16.195  12.362
27798W        W91357  29.160  19.121  10.539
27799W        W91358   1.921  39.902  14.506
27800W        W91359  13.307  20.733   3.839
27801W        W91360  23.010  36.018  13.911
27802W        W91361  32.435  22.602  12.393
27803W        W91362  19.228  18.120   3.316
27804W        W91363  29.644  30.002  13.368
27805W        W91364   7.266  29.479  14.813
27806W        W91365  15.732  25.552  13.979
27807W        W91366  34.374  16.734   2.390
27808W        W91367  27.008  21.151  10.001
27809W        W91368   2.237  41.298   2.690
27810W        W91369   8.366   7.328  10.556
27811W        W91370  31.607  41.296  10.405
27812W        W91371  26.063  27.096  12.416
27813W        W91372  18.783  43.794  11.935
27814W        W91373  22.076  16.121   2.779
27815W        W91374  34.393  23.052   1.260
27816W        W91375  32.427   4.916   1.817
27817W        W91376   9.284  31.152   2.298
27818W        W91377  25.187  20.711  11.103
27819W        W91378  20.183   2.771   3.383
27820W        W91379  14.273  22.741   0.446
27821W        W91380   7.887  34.463  10.075
27822W        W91381  20.090  41.398   4.217
27823W        W91382  15.243  34.403   2.207
27824W        W91383  41.012  34.559  11.895
27825W        W91384   9.733  20.152  11.492
27826W        W91385   4.746  13.809   1.716
27827W        W91386  34.002   6.830  12.548
27828W        W91387  22.187  31.611   4.604
27829W        W91388  40.807  36.088  11.957
27830W        W91389  25.576  42.926   3.350
27831W        W91390  31.568  17.792  12.382
27832W        W91391   7.257  26.642   4.673
27833W        W91392  15.812  36.476  14.955
27834W        W91393  39.388  42.854  14.854
27835W        W91394  36.398  13.133   1.830
27836W        W91395   3.945  38.993   0.841
27837W        W91396  34.470  14.744   4.750
27838W        W91397   3.787  18.123   2.761
27839W        W91398  37.035   9.325   0.767
27840W        W91399  27.112   4.279  13.544
27841W        W91400  11.285  36.474   9.648
27842W        W91401   0.900   5.224  11.399
27843W        W91402  14.779  40.960   3.799
27844W        W91403   4.232  20.265   3.658
27845W        W91404  37.449  39.446   1.705
27846W        W91405  16.105  36.058  14.936
27847W        W91406  17.746  13.751  10.560
27848W        W91407  14.756  39.836  11.989
27849W        W91408  41.296  18.068   2.252
27850W        W91409   8.817  32.992   3.220
27851W        W91410  39.029   7.814   0.889
27852W        W91411  38.050   4.876   3.641
27853W        W91412   5.840  34.938  12.543
27854W        W91413  34.886  35.924  14.973
27855W        W91414  18.109   0.935   4.795
27856W        W91415   9.799  10.712   0.895
27857W        W91416  40.329   0.461   3.730
27858W        W91417  39.493  10.675   3.170
27859W        W91418  17.173  37.522  13.862
27860W        W91419   3.244  15.133   2.741
27861W        W91420  41.829  37.446  14.372
27862W        W91421   0.435  41.298  11.405
27863W        W91422  37.490  28.120   2.830
27864W        W91423  17.710  17.727   1.807
27865W        W91424  20.222  28.119   3.342
27866W        W91425  43.322   5.856  13.811
27867W        W91426  26.064  23.533  13.964
27868W        W91427  38.048   8.727   0.756
27869W        W91428   3.941  31.135  12.084
27870W        W91429   8.685  11.349  10.912
27871W        W91430  29.586  36.095   2.765
27872W        W91431  32.554  40.831  12.920
27873W        W91432   5.928  35.920  13.960
27874W        W91433   9.333   2.232  14.888
27875W        W91434  42.443  16.800  11.530
27876W        W91435   7.369  28.451  13.411
27877W        W91436   3.356  34.555   0.858
27878W        W91437  13.828  35.925   1.840
27879W        W91438  30.537  10.839  13.046
27880W        W91439  12.278  20.748  14.458
27881W        W91440  18.186  20.560   3.317
27882W        W91441  11.639  37.351  10.442
27883W        W91442  36.517   1.441  11.914
27884W        W91443  21.054  21.209   1.808
27885W        W91444  25.144  10.288   1.727
27886W        W91445  14.203   1.454   4.785
27887W        W91446  37.973   2.372   2.252
27888W        W91447  17.095  17.621  10.506
27889W        W91448  39.968  26.044   2.377
27890W        W91449   4.752   9.165  12.861
27891W        W91450  28.486  38.404   0.248
27892W        W91451  15.141   2.866  10.536
27893W        W91452   8.746   6.736  11.937
27894W        W91453  13.783  23.531   3.806
27895W        W91454  22.521  14.724   2.284
27896W        W91455  20.692  20.118  14.024
27897W        W91456  36.976   3.376   3.848
27898W        W91457  19.112  24.570  11.443
27899W        W91458   8.773  38.894   0.802
27900W        W91459  29.002  40.005  14.954
27901W        W91460  28.485  41.901   1.807
27902W        W91461  36.072  26.965  11.884
27903W        W91462  41.350  26.019   0.316
27904W        W91463   2.956  28.157   0.879
27905W        W91464  29.165  23.205   0.467
27906W        W91465  30.017   3.930  10.599
27907W        W91466   4.706   8.728  13.887
27908W        W91467  19.078  12.707  14.345
27909W        W91468  38.058  42.338   1.794
27910W        W91469  26.458  13.246   1.889
27911W        W91470  42.975  16.743   1.440
27912W        W91471  28.452  31.049   0.418
27913W        W91472  11.364  19.575   3.687
27914W        W91473  30.641  14.244   1.428
27915W        W91474  16.692  41.812   2.890
27916W        W91475  42.895   7.307  14.857
27917W        W91476  43.855  21.735  11.089
27918W        W91477  26.512  35.047  11.861
27919W        W91478  11.256  32.091  10.635
27920W        W91479  28.629   6.775  13.325
27921W        W91480   7.336  26.457  11.039
27922W        W91481  15.642   5.245   1.722
27923W        W91482  35.009  14.822  14.884
27924W        W91483   8.213  16.094   3.295
27925W        W91484  26.607  14.289  11.957
27926W        W91485  22.647  29.995   0.963
27927W        W91486  13.628  26.200  10.921
27928W        W91487  33.459  31.528  13.895
27929W        W91488  10.310   6.208   4.184
27930W        W91489  39.913   1.387  13.323
27931W        W91490  31.488  22.110   4.269
27932W        W91491  25.672  38.915  12.049
27933W        W91492   6.797  17.562  14.491
27934W        W91493  24.685  24.486  10.427
27935W        W91494  32.906  41.813   4.676
27936W        W91495  35.020  32.921   0.322
27937W        W91496  19.156  17.561   0.821
27938W        W91497  43.512  33.972   3.788
27939W        W91498  19.255   2.336  10.899
27940W        W91499  29.670  34.496  13.316
27941W        W91500  39.871  26.499  14.328
27942W        W91501  17.223   0.309  13.883
27943W        W91502  12.831  38.881   3.187
27944W        W91503   1.884  13.613  11.591
27945W        W91504  12.652   1.399   3.224
27946W        W91505  34.003  43.346   0.932
27947W        W91506  23.208   2.386  12.897
27948W        W91507  44.428  42.812  14.297
27949W        W91508  24.021   3.847   2.751
27950W        W91509  14.710  13.238  11.554
27951W        W91510  36.991  11.159  11.411
27952W        W91511   3.355   2.225   4.611
27953W        W91512  27.032  29.512   0.317
27954W        W91513  31.024  13.782  12.491
27955W        W91514  19.720   2.264   2.893
27956W        W91515  31.446  37.019  14.363
27957W        W91516  29.651   0.950  12.575
27958W        W91517  35.440   5.835   3.854
27959W        W91518  26.583  22.073  13.323
27960W        W91519  24.503  23.621   3.348
27961W        W91520   2.282  28.982  11.566
27962W        W91521  34.536  21.048  14.357
27963W        W91522  15.235  22.163   3.260
27964W        W91523   0.290  15.167   1.904
27965W        W91524   9.774  39.437   4.750
27966W        W91525  24.710   8.309   1.417
27967W        W91526  16.791  43.493  11.458
27968W        W91527   9.303  25.001  13.528
27969W        W91528  23.014  39.063  10.493
27970W        W91529  42.781  18.280   3.755
27971W        W91530  16.694   4.436  12.886
27972W        W91531   1.412   4.424  12.485
27973W        W91532  14.128   4.448   1.816
27974W        W91533  17.302   9.387   3.272
27975W        W91534  36.898  23.195   1.886
27976W        W91535   3.900  39.331   3.212
27977W        W91536  22.225  21.243   0.419
27978W        W91537   8.770  15.735   1.434
27979W        W91538   6.824  33.505  14.933
27980W        W91539  41.824  32.003   4.602
27981W        W91540  24.007   9.391   2.179
27982W        W91541  21.036  12.721   0.346
27983W        W91542  16.595  25.997   3.338
27984W        W91543  27.095  33.566   2.681
27985W        W91544  39.922  23.139   3.695
27986W        W91545   1.437   6.270  11.038
27987W        W91546   1.266  16.183  13.842
27988W        W91547  35.502  29.085   1.934
27989W        W91548   9.803   1.935  10.928
27990W        W91549  25.581   7.373  13.400
27991W        W91550  33.552  27.947   0.295
27992W        W91551  34.579  29.582   1.213
27993W        W91552  34.047  30.117   3.712
27994W        W91553  23.157  29.552  12.094
27995W        W91554   9.279   0.350  11.115
27996W        W91555   2.463  33.892  10.606
27997W        W91556  43.412  37.362   3.811
27998W        W91557  36.429  29.523   3.213
27999W        W91558  42.321   6.324   2.314
28000W        W91559   8.743  31.029   1.450
28001W        W91560  38.369   0.408   2.315
28002W        W91561  41.444  14.596   3.821
28003W        W91562  11.364   2.300  12.076
28004W        W91563  34.054  28.602   2.739
28005W        W91564  14.702  12.224   3.698
28006W        W91565  42.479  37.074  10.558
28007W        W91566  38.420  25.642  10.927
28008W        W91567   8.292  32.462   1.345
28009W        W91568  32.916  24.680  12.911
28010W        W91569  42.435  39.502   4.310
28011W        W91570  15.198   7.305   0.416
28012W        W91571  42.386  16.297  10.435
28013W        W91572  29.006  13.796   3.761
28014W        W91573   4.325  42.468  10.979
28015W        W91574   6.895  23.120   3.357
28016W        W91575  22.648  11.787   3.710
28017W        W91576  14.112  39.395   2.404
28018W        W91577  24.646   4.821  14.392
28019W        W91578  12.303  39.023  11.102
28020W        W91579   8.838  17.145   3.169
28021W        W91580  28.537  36.407  13.800
28022W        W91581  14.142   9.251   4.616
28023W        W91582  12.244   3.354  14.887
28024W        W91583  21.566   6.806   4.271
28025W        W91584  20.642   4.843  13.977
28026W        W91585  10.249   7.784  14.972
28027W        W91586  42.523  16.309  13.883
28028W        W91587  36.025  24.487  14.510
28029W        W91588  34.910  18.087  10.507
28030W        W91589  26.034  32.124  10.893
28031W        W91590  20.133  16.584  12.399
28032W        W91591  34.868   1.965   5.116
28033W        W91592  25.004  29.084   3.868
28034W        W91593   9.295  16.296   3.656
28035W        W91594   2.932  32.108  13.506
28036W        W91595   9.303  31.043   1.900
28037W        W91596  23.657   6.788  11.404
28038W        W91597  11.196  25.993  12.506
28039W        W91598  37.391   6.346  13.449
28040W        W91599   6.916  33.014  14.775
28041W        W91600  42.826  36.436  14.472
28042W        W91601   2.355  28.491  13.846
28043W        W91602  36.582  39.876  11.515
28044W        W91603  13.252  44.490  14.759
28045W        W91604  41.910  22.728  11.484
28046W        W91605  22.526  15.743  14.468
28047W        W91606   0.493  25.004   2.205
28048W        W91607  25.533  43.490  12.986
28049W        W91608  26.627  42.484  14.785
28050W        W91609  33.438   4.860   1.275
28051W        W91610  31.120  19.774  12.546
28052W        W91611   5.727  36.367   0.825
28053W        W91612  17.199  23.240  10.513
28054W        W91613  32.899  10.138  13.803
28055W        W91614  40.374   6.304   4.663
28056W        W91615  41.041   7.283   2.839
28057W        W91616  27.518   4.826  12.936
28058W        W91617  32.578  20.037   4.270
28059W        W91618   6.756   9.837  11.915
28060W        W91619   5.853  25.141  13.799
28061W        W91620  35.924  19.197   0.425
28062W        W91621  30.585  24.061  14.867
28063W        W91622   5.743  35.374  10.935
28064W        W91623  10.853  10.858  10.405
28065W        W91624   8.727  40.432   2.717
28066W        W91625  44.337   3.280  12.981
28067W        W91626  37.027  40.496   2.819
28068W        W91627  19.267  23.584   2.693
28069W        W91628   0.770  14.829  10.554
28070W        W91629  13.804  38.020  11.023
28071W        W91630  40.964   8.396   1.724
28072W        W91631  25.499   3.315   4.206
28073W        W91632  41.313  34.563  14.930
28074W        W91633  36.445   1.247   3.262
28075W        W91634   1.799  32.073   4.705
28076W        W91635  39.367  27.649   3.339
28077W        W91636  12.333  13.820   1.384
28078W        W91637   7.911  16.172   1.899
28079W        W91638  31.466  25.053   3.807
28080W        W91639   0.887  14.307   1.251
28081W        W91640  40.900  44.976   3.270
28082W        W91641  36.990  15.657   0.381
28083W        W91642   3.242  41.386  11.121
28084W        W91643  27.003  33.463  13.527
28085W        W91644   1.732  24.049   0.454
28086W        W91645  14.590   3.284   0.774
28087W        W91646  42.471  10.719  10.923
28088W        W91647  29.636   6.805   0.916
28089W        W91648   0.337  39.961   2.780
28090W        W91649  24.062  33.887   4.775
28091W        W91650  37.951  15.643  12.064
28092W        W91651  35.955   4.902  12.006
28093W        W91652  16.653   4.438  10.511
28094W        W91653   6.860   2.315   3.857
28095W        W91654  33.406  40.325  13.948
28096W        W91655  14.613  44.989  10.446
28097W        W91656  26.579  42.520   1.761
28098W        W91657  13.170   7.360   4.186
28099W        W91658  36.514   2.444   0.245
28100W        W91659  29.587   0.757   2.834
28101W        W91660  23.598   7.894   4.729
28102W        W91661  10.342  40.044   2.283
28103W        W91662   3.800  11.778  12.892
28104W        W91663  23.628  19.729  10.572
28105W        W91664  12.283  13.726  14.300
28106W        W91665  39.507  21.259   4.755
28107W        W91666  26.683   5.826  12.530
28108W        W91667  40.458  39.407   0.367
28109W        W91668  34.092  39.937  12.561
28110W        W91669   5.886  17.556  13.456
28111W        W91670  10.814  24.604   9.549
28112W        W91671   0.768  19.721   0.305
28113W        W91672  42.286  35.863   0.812
28114W        W91673  28.453  30.138  11.002
28115W        W91674  27.066  42.458  13.828
28116W        W91675  39.436   7.211   0.297
28117W        W91676  44.302  43.833  10.452
28118W        W91677  24.073  30.090   1.213
28119W        W91678  10.286   0.826   4.139
28120W        W91679   3.950   8.673   3.667
28121W        W91680  19.092  34.482  13.530
28122W        W91681  31.108  34.040  12.973
28123W        W91682  34.938  26.992  13.506
28124W        W91683   9.731  19.635   5.269
28125W        W91684  31.433  16.791  11.420
28126W        W91685  33.618  42.306  11.880
28127W        W91686  33.127  33.996   0.947
28128W        W91687  43.354  21.539   3.796
28129W        W91688  12.631  34.390   0.917
28130W        W91689  20.614  21.045   1.243
28131W        W91690   7.882   2.906   3.210
28132W        W91691  29.548   0.839   4.260
28133W        W91692  17.283  36.527   1.255
28134W        W91693  41.389  20.644  13.835
28135W        W91694   9.305  38.824  11.047
28136W        W91695  32.084  37.057  11.557
28137W        W91696  29.059  30.096  12.047
28138W        W91697  13.824  20.750  11.403
28139W        W91698  34.968  16.635   2.182
28140W        W91699  11.267  33.387  12.018
28141W        W91700  17.772  42.959  12.900
28142W        W91701  18.064  33.998  12.955
28143W        W91702  19.260  44.344  12.010
28144W        W91703   6.845   1.947   0.263
28145W        W91704  39.964  42.432   2.871
28146W        W91705  19.215  33.618  10.981
28147W        W91706  31.594  36.887  10.101
28148W        W91707  34.493   9.156  13.462
28149W        W91708  25.589  16.220   3.812
28150W        W91709  13.685  12.294  13.919
28151W        W91710  38.329  29.560  10.916
28152W        W91711  12.335   0.321  11.048
28153W        W91712  27.054   1.974   1.704
28154W        W91713  15.655  26.104  10.975
28155W        W91714  31.085  11.313   1.773
28156W        W91715   0.299  39.038  14.460
28157W        W91716  14.214   4.854  11.379
28158W        W91717   0.494   8.234  11.104
28159W        W91718  33.556  40.472   0.942
28160W        W91719   7.267   2.468   4.809
28161W        W91720  14.756  39.378  12.865
28162W        W91721  12.612  27.179   0.883
28163W        W91722  27.190   3.316  12.565
28164W        W91723  28.176  21.718  10.960
28165W        W91724  29.155  31.093  13.504
28166W        W91725  39.065   9.664   0.914
28167W        W91726  37.581  35.589  13.438
28168W        W91727   2.230  36.478  14.030
28169W        W91728   5.432   5.265   4.626
28170W        W91729  15.170  25.488   1.854
28171W        W91730  40.538  44.949   4.610
28172W        W91731   1.864  10.329  14.478
28173W        W91732  44.294  10.866   4.140
28174W        W91733  26.176  38.461  11.022
28175W        W91734  18.693   9.828   2.339
28176W        W91735  24.675   7.906   2.883
28177W        W91736  41.499   3.293  14.447
28178W        W91737   5.706  23.563  14.502
28179W        W91738   8.162  16.143  13.913
28180W        W91739   9.323  25.608   4.798
28181W        W91740  33.906  40.537   2.877
28182W        W91741  10.292   4.898   4.194
28183W        W91742  23.039  27.162  12.441
28184W        W91743   7.906   4.397  13.317
28185W        W91744   7.838   1.408   1.342
28186W        W91745   6.294  16.128   0.461
28187W        W91746  34.967  10.336  12.896
28188W        W91747   5.286  28.473   0.267
28189W        W91748  27.514  12.720   3.647
28190W        W91749  25.002  12.839  11.445
28191W        W91750  29.447   7.722  12.091
28192W        W91751   2.759  24.528  11.056
28193W        W91752  39.934  30.004   1.425
28194W        W91753  18.192  41.950  13.322
28195W        W91754  33.940  43.937  12.355
28196W        W91755  41.400  26.623   1.368
28197W        W91756  36.876  11.764  13.509
28198W        W91757   8.327   3.309  13.465
28199W        W91758   3.763   6.862   2.886
28200W        W91759   8.740  20.232  12.829
28201W        W91760  13.660  17.139  14.454
28202W        W91761  10.687  33.004   9.990
28203W        W91762  34.524   0.927   3.688
28204W        W91763  14.237   0.370   3.838
28205W        W91764  34.601   1.428   1.921
28206W        W91765  23.062  14.311  14.989
28207W        W91766  10.243  43.944   1.382
28208W        W91767  21.093  43.942   4.640
28209W        W91768  17.655   7.285   1.888
28210W        W91769  35.597   3.239   0.871
28211W        W91770  26.613   8.330  11.531
28212W        W91771   4.274   3.956   4.764
28213W        W91772  38.994  19.177  10.417
28214W        W91773   6.400  17.089   9.996
28215W        W91774  38.331   2.754  13.010
28216W        W91775  22.673  40.366   2.865
28217W        W91776   1.905  13.252   1.913
28218W        W91777  21.194  44.274   3.823
28219W        W91778  26.127   5.919  11.109
28220W        W91779   2.248  39.043   2.842
28221W        W91780  21.171  41.895   0.935
28222W        W91781  18.589  17.093  14.295
28223W        W91782  44.980  34.911   3.849
28224W        W91783   2.428  36.843  13.413
28225W        W91784  18.603   2.879   2.700
28226W        W91785  15.620  12.326  14.995
28227W        W91786  25.157  34.473   0.252
28228W        W91787  26.598   0.818  13.031
28229W        W91788  40.980  32.452   1.695
28230W        W91789   7.411  32.623   1.810
28231W        W91790   3.354   0.349  14.893
28232W        W91791  25.967   4.786  12.027
28233W        W91792  21.585  21.160   4.160
28234W        W91793  15.619   8.673   4.804
28235W        W91794  10.764   6.324   4.226
28236W        W91795  38.926  39.035   2.743
28237W        W91796   2.931  37.078   0.389
28238W        W91797  11.278  11.298   4.720
28239W        W91798  42.005  32.979  14.948
28240W        W91799  43.394  38.856   9.942
28241W        W91800   7.728   7.862   3.703
28242W        W91801  10.335  44.793  11.568
28243W        W91802  37.010  15.286  14.481
28244W        W91803  15.215  19.059  14.937
28245W        W91804  35.942  10.644   2.732
28246W        W91805  19.652  35.052  11.925
28247W        W91806   8.224  31.985   0.478
28248W        W91807  24.029  21.605   1.825
28249W        W91808   8.392  25.672  14.437
28250W        W91809  20.140   8.867   2.860
28251W        W91810  44.279  30.473  13.909
28252W        W91811  29.644  38.868  13.486
28253W        W91812  31.011  10.877   4.286
28254W        W91813  26.465  12.821   2.850
28255W        W91814  35.987  44.850  12.031
28256W        W91815  20.142  16.138  13.893
28257W        W91816   3.874  40.519   1.725
28258W        W91817   3.379  29.522   0.821
28259W        W91818   3.312  39.882  12.407
28260W        W91819  35.882  17.234   4.632
28261W        W91820  39.530   3.950  13.896
28262W        W91821  17.074  33.949  13.893
28263W        W91822  11.324   1.773   4.232
28264W        W91823  14.199  18.289  10.598
28265W        W91824  18.655  19.612  11.539
28266W        W91825  41.493  25.676  12.915
28267W        W91826   4.381  16.713  13.390
28268W        W91827   2.432  31.431  13.970
28269W        W91828  34.022  16.593  11.906
28270W        W91829  29.563   1.870  12.053
28271W        W91830  24.163   1.941   3.723
28272W        W91831  44.005  38.339   1.706
28273W        W91832  44.872  18.653  12.987
28274W        W91833  18.106  37.891  14.354
28275W        W91834  36.587   2.340  11.451
28276W        W91835   7.885  41.355   0.387
28277W        W91836  40.886  28.565  13.434
28278W        W91837  24.522   4.854   1.254
28279W        W91838   1.239  19.095  11.449
28280W        W91839  30.028   6.827   3.155
28281W        W91840   8.232   4.332  14.289
28282W        W91841   2.913  30.968  13.974
28283W        W91842  26.072  21.145   4.696
28284W        W91843  42.889  28.998  13.363
28285W        W91844   1.407  27.130   1.300
28286W        W91845  12.217  18.555  12.979
28287W        W91846  42.891  41.969   5.276
28288W        W91847  24.503  31.060   4.303
28289W        W91848   2.335  33.115  12.396
28290W        W91849   0.965  17.731  13.834
28291W        W91850  28.541  15.183   3.637
28292W        W91851   7.896  21.710  12.380
28293W        W91852  37.443  33.596  14.955
28294W        W91853  24.562  33.061  13.529
28295W        W91854   1.480   5.844   4.206
28296W        W91855  41.442  39.480  10.549
28297W        W91856  35.999  40.944  12.016
28298W        W91857  18.160  13.674  12.036
28299W        W91858   9.235  24.659  11.120
28300W        W91859  36.987   9.699   4.824
28301W        W91860  17.755   4.906   3.818
28302W        W91861   2.781  23.703  10.583
28303W        W91862  25.610  21.079   3.818
28304W        W91863  22.655  20.732   1.811
28305W        W91864  26.101  39.484   1.809
28306W        W91865  17.241  40.486  12.018
28307W        W91866  35.033  42.903   4.697
28308W        W91867  10.784  25.689   1.806
28309W        W91868  21.715  43.458   4.299
28310W        W91869  14.828  37.942  12.539
28311W        W91870  27.064   3.254  10.534
28312W        W91871  29.021  11.763   1.232
28313W        W91872  19.590  12.198  10.903
28314W        W91873  29.018  23.187  12.461
28315W        W91874  28.597   6.747   2.282
28316W        W91875  31.596   9.643   4.638
28317W        W91876  18.728  20.057  10.919
28318W        W91877  41.381  33.482  11.513
28319W        W91878  33.574  14.235   0.417
28320W        W91879   7.188  10.242  14.992
28321W        W91880   6.259  19.685  11.481
28322W        W91881  44.814  26.111  13.503
28323W        W91882  43.295  27.464  14.509
28324W        W91883   3.915   5.317   1.409
28325W        W91884  27.595   7.358   2.832
28326W        W91885   7.380  35.476   0.331
28327W        W91886  10.777  37.465  14.484
28328W        W91887   3.417   5.282  14.344
28329W        W91888  23.728   9.203   2.713
28330W        W91889   6.886   1.337  13.307
28331W        W91890  12.652  25.609  11.551
28332W        W91891  10.647  16.807   1.370
28333W        W91892  13.795  22.056  12.050
28334W        W91893  42.993  27.116  12.558
28335W        W91894  20.214  21.673   0.898
28336W        W91895   4.700   3.340  13.827
28337W        W91896  43.882  17.794   0.876
28338W        W91897  21.237  35.107  11.560
28339W        W91898   0.260  29.937  12.349
28340W        W91899  29.563  23.037  11.402
28341W        W91900  40.891   8.295   4.833
28342W        W91901  20.049  23.720  10.477
28343W        W91902   7.201  34.039  13.500
28344W        W91903  25.579   3.252  14.935
28345W        W91904  41.410  22.722  14.510
28346W        W91905  42.999  10.238   0.936
28347W        W91906  10.795  23.036   4.837
28348W        W91907  24.656  13.785   1.838
28349W        W91908   6.799  40.977   4.784
28350W        W91909  34.451  30.554   0.747
28351W        W91910  35.436  41.024   0.397
28352W        W91911  25.552  15.789   1.222
28353W        W91912  36.529  16.579  12.023
28354W        W91913   0.454  17.111  12.996
28355W        W91914  24.065  30.441  13.367
28356W        W91915  31.985  36.561   2.208
28357W        W91916  36.956  20.744  13.855
28358W        W91917  31.034  43.854  11.503
28359W        W91918  21.047   2.787  14.345
28360W        W91919  21.734  30.014   2.844
28361W        W91920  36.464  29.644  14.936
28362W        W91921  36.546  38.878   3.860
28363W        W91922  20.761   3.259   2.245
28364W        W91923   2.792  31.603  12.848
28365W        W91924   1.883  23.697  12.024
28366W        W91925  10.670   5.239  13.916
28367W        W91926  21.652   8.796  13.906
28368W        W91927  43.400  35.866   4.750
28369W        W91928  38.552  34.115   3.839
28370W        W91929  27.553  31.427   4.654
28371W        W91930  41.405  28.973   2.661
28372W        W91931  35.390  31.648   1.875
28373W        W91932  11.277  11.328  10.021
28374W        W91933  43.985  37.564  10.532
28375W        W91934  35.060   4.239   2.368
28376W        W91935  13.830  17.741  11.404
28377W        W91936   8.224   6.183  12.850
28378W        W91937   6.752  28.040  13.002
28379W        W91938  21.571   7.776   4.837
28380W        W91939  31.518  10.742   5.157
28381W        W91940   1.763   7.316   2.198
28382W        W91941  28.144  37.545   1.289
28383W        W91942  38.868  27.638  11.030
28384W        W91943  44.434  26.649  12.488
28385W        W91944  30.123  20.146   2.257
28386W        W91945  40.010   8.237   4.660
28387W        W91946   2.381  44.337  10.912
28388W        W91947  11.782  19.131   1.237
28389W        W91948  20.122  13.703  12.005
28390W        W91949  10.186   8.299   0.316
28391W        W91950  26.045  35.473   1.761
28392W        W91951   7.410   4.228   0.748
28393W        W91952  34.007  38.882   4.127
28394W        W91953  25.991  44.376   2.234
28395W        W91954  32.067  10.310   3.867
28396W        W91955  42.355  21.203   3.227
28397W        W91956  39.477  17.676  11.391
28398W        W91957  37.505  13.691   2.817
28399W        W91958  17.790  10.332  11.873
28400W        W91959  30.481   2.789  14.863
28401W        W91960   9.199  32.400   0.367
28402W        W91961  36.377  29.463  11.589
28403W        W91962  31.479  33.884   0.888
28404W        W91963  33.041   8.706  13.388
28405W        W91964   9.256  37.082  12.058
28406W        W91965  21.147  12.171  13.949
28407W        W91966  27.458   9.808   0.354
28408W        W91967  10.139  31.646  10.945
28409W        W91968  14.145  17.094  11.496
28410W        W91969   8.813  42.515  13.796
28411W        W91970  18.094  24.223  13.350
28412W        W91971   1.954   6.282  10.907
28413W        W91972  17.577  14.336   2.259
28414W        W91973  23.170  27.180   1.308
28415W        W91974  14.221  35.566   2.236
28416W        W91975  17.633  14.776  12.925
28417W        W91976   9.160   4.852  11.921
28418W        W91977  29.544  27.048  11.540
28419W        W91978  14.136  19.643   0.944
28420W        W91979  28.671  15.692   0.348
28421W        W91980  30.557  25.108   4.616
28422W        W91981  40.978  32.612  14.972
28423W        W91982  14.284  26.599   1.418
28424W        W91983  29.577  14.608  13.390
28425W        W91984  16.738  28.963  10.439
28426W        W91985  23.634  17.251   0.891
28427W        W91986  31.963  21.564   3.675
28428W        W91987  15.808  15.637  12.370
28429W        W91988  41.821  34.589  11.383
28430W        W91989   3.911   9.834   2.817
28431W        W91990   0.856  16.149   0.317
28432W        W91991  18.077  27.017  12.092
28433W        W91992  32.096  29.145  14.490
28434W        W91993  26.503   0.895  13.363
28435W        W91994   8.323  36.007   0.420
28436W        W91995  25.136   4.279  12.573
28437W        W91996  29.574  13.307  12.986
28438W        W91997  40.998  44.278  11.577
28439W        W91998  32.565  14.253  12.030
28440W        W91999   1.310  17.254  13.855
28441W        W92000   2.897  38.946  13.460
28442W        W92001  23.676  20.187  12.399
28443W        W92002   8.767  36.942  12.547
28444W        W92003  30.596  25.195  12.087
28445W        W92004  44.287   0.283   4.832
28446W        W92005   7.191  12.324   3.171
28447W        W92006   3.315   3.946   0.324
28448W        W92007  24.542  21.567  14.379
28449W        W92008  19.207   8.723   4.149
28450W        W92009  25.518  44.967   4.819
28451W        W92010  22.996  29.539  13.462
28452W        W92011  27.685  15.745   3.169
28453W        W92012   2.773  14.654  13.355
28454W        W92013  21.153  14.169  14.424
28455W        W92014  16.143   2.434   1.866
28456W        W92015  24.531  20.144   0.930
28457W        W92016  15.725   9.354   4.303
28458W        W92017  36.026   2.391  14.381
28459W        W92018   4.717   7.374   0.273
28460W        W92019  42.329  17.067  10.998
28461W        W92020  19.142  42.343  12.956
28462W        W92021  20.702  18.128  11.540
28463W        W92022  39.450  10.865   1.841
28464W        W92023  30.966  44.378  14.029
28465W        W92024  17.190  18.649  10.438
28466W        W92025  11.819   7.847  11.519
28467W        W92026   0.333  34.881   4.287
28468W        W92027  35.909  28.592  10.557
28469W        W92028   0.311  40.900  12.006
28470W        W92029  23.160  22.226   4.797
28471W        W92030  20.524  43.872  11.945
28472W        W92031  11.663  18.603   3.673
28473W        W92032  15.311  38.345   3.828
28474W        W92033  40.531  27.943   3.224
28475W        W92034  21.136  26.121   3.728
28476W        W92035  38.527  44.891   3.366
28477W        W92036  15.602  42.317  14.870
28478W        W92037   4.427  28.012  12.022
28479W        W92038  23.708  40.464  14.907
28480W        W92039  34.923   0.975  10.429
28481W        W92040  29.134  35.451  12.993
28482W        W92041  43.810  38.931   2.782
28483W        W92042  21.674  31.914  13.858
28484W        W92043  25.479   0.923  11.562
28485W        W92044  40.513   1.470   2.769
28486W        W92045   7.252   9.256  13.402
28487W        W92046  13.235  41.834   4.151
28488W        W92047   2.464   9.339  14.327
28489W        W92048   8.734  27.684  11.469
28490W        W92049  42.842  13.704  10.462
28491W        W92050   7.672  20.225  11.404
28492W        W92051   3.371  33.396  11.506
28493W        W92052  11.826  20.584   4.650
28494W        W92053  23.638  11.300  11.887
28495W        W92054  44.859   9.380   4.181
28496W        W92055   1.809  10.796  14.386
28497W        W92056  21.698  27.626  13.906
28498W        W92057  23.100  29.167  14.297
28499W        W92058   1.800  15.083  11.103
28500W        W92059  17.650  26.561  10.537
28501W        W92060  25.098  35.466   2.847
28502W        W92061  20.679  34.551   1.272
28503W        W92062  41.941  20.232  12.510
28504W        W92063  18.184  26.673  13.340
28505W        W92064  14.800  19.137  12.839
28506W        W92065  27.528   1.276   1.298
28507W        W92066   4.777  29.120   0.441
28508W        W92067  15.705  30.933  10.438
28509W        W92068  37.043  35.046  11.440
28510W        W92069   8.178  11.236   4.145
28511W        W92070  14.200  14.207   1.822
28512W        W92071   0.865  43.003  14.986
28513W        W92072  30.069  17.604   4.709
28514W        W92073  22.673  29.565  14.801
28515W        W92074   7.347  42.972  11.552
28516W        W92075  10.255  16.151  13.842
28517W        W92076  11.224  35.455   3.759
28518W        W92077  43.426   9.357   4.275
28519W        W92078  13.628  35.402  12.933
28520W        W92079  10.340  26.622  11.944
28521W        W92080  16.658  29.067  14.388
28522W        W92081  11.260  36.058  12.464
28523W        W92082  38.824   1.957  13.430
28524W        W92083  18.722  31.631   3.147
28525W        W92084  39.423  19.588   4.777
28526W        W92085   8.347  30.635   3.865
28527W        W92086  21.687  10.717  12.068
28528W        W92087  20.623  41.988  13.048
28529W        W92088  36.447  15.630   4.767
28530W        W92089   0.286  19.533  13.812
28531W        W92090  16.224  18.252  14.796
28532W        W92091  44.886  32.502  13.927
28533W        W92092  36.440  33.076  13.473
28534W        W92093  15.709  20.604   4.349
28535W        W92094  44.946  32.598   0.349
28536W        W92095   6.770  26.571   4.797
28537W        W92096  16.734   4.445  12.346
28538W        W92097   8.219  24.525   2.394
28539W        W92098  31.135  26.674   1.430
28540W        W92099   6.182  13.199  11.041
28541W        W92100   6.747  12.703  12.483
28542W        W92101  16.575  16.103   2.393
28543W        W92102  10.320  14.634   4.740
28544W        W92103  41.934  34.480  12.062
28545W        W92104  43.499  17.079   1.302
28546W        W92105   2.940  42.025  13.847
28547W        W92106  12.694  43.894   2.839
28548W        W92107  42.789   9.795   0.264
28549W        W92108   4.848  39.483   1.231
28550W        W92109  21.686  23.154  13.011
28551W        W92110  22.088  13.256  14.426
28552W        W92111  14.332   7.864   0.316
28553W        W92112  27.964  17.631   2.710
28554W        W92113  36.058  34.552   2.179
28555W        W92114  31.067  14.667   4.114
28556W        W92115   8.870  31.476   4.601
28557W        W92116  22.041  17.659   4.636
28558W        W92117   9.853  33.019  12.958
28559W        W92118  26.613   8.187  13.794
28560W        W92119   6.189  27.664   4.227
28561W        W92120  18.664  40.928   3.160
28562W        W92121  14.785  28.104  13.347
28563W        W92122  16.656  10.804  14.920
28564W        W92123   0.309  27.943  14.825
28565W        W92124   0.868   5.361   0.884
28566W        W92125  19.180   5.357  12.021
28567W        W92126  14.313   7.297   2.884
28568W        W92127  19.559  18.270   3.230
28569W        W92128   2.386  39.503   4.198
28570W        W92129  43.381  29.569  12.905
28571W        W92130   7.398  33.950  12.074
28572W        W92131   2.947  32.073   4.684
28573W        W92132  26.051  21.158   1.864
28574W        W92133   8.298  11.276   3.667
28575W        W92134  37.523  29.165   3.647
28576W        W92135  19.709  20.133   0.760
28577W        W92136   2.392  15.586   1.783
28578W        W92137  36.434  24.129   2.226
28579W        W92138  10.640  33.894  14.474
28580W        W92139  22.203   9.362   4.675
28581W        W92140  14.286   4.291   1.222
28582W        W92141  36.037  25.175  11.424
28583W        W92142  29.508   4.702  12.023
28584W        W92143  29.950  23.549  14.975
28585W        W92144  28.118  41.355   3.202
28586W        W92145  41.791  38.526   0.908
28587W        W92146  28.018   1.276   3.751
28588W        W92147  35.558  20.725   1.868
28589W        W92148  42.434  29.648  12.057
28590W        W92149   7.228  23.031   4.135
28591W        W92150  16.091  17.279   1.400
28592W        W92151   0.742  30.639  11.596
28593W        W92152  18.581  15.624   0.874
28594W        W92153   6.317  21.582  10.951
28595W        W92154  18.208   0.806   0.866
28596W        W92155  20.247   9.703   4.144
28597W        W92156   2.734  16.586  13.991
28598W        W92157  14.285  31.117   4.760
28599W        W92158  28.527  37.852   2.403
28600W        W92159  28.950  26.492  13.903
28601W        W92160  39.426  31.021   1.383
28602W        W92161  42.475   4.363  14.414
28603W        W92162  17.153  11.686   1.797
28604W        W92163   4.249  44.407  11.516
28605W        W92164  29.551  38.414  13.961
28606W        W92165  32.945  30.951   2.785
28607W        W92166   0.465   1.426   3.708
28608W        W92167  24.026  28.590  10.049
28609W        W92168  15.803   2.451   1.815
28610W        W92169   5.421  33.565  13.427
28611W        W92170  22.677  33.962   4.766
28612W        W92171  42.949   9.669  10.963
28613W        W92172   1.471  44.982  10.956
28614W        W92173  34.476  24.616  11.887
28615W        W92174   4.923   4.881  12.883
28616W        W92175   5.801  20.195  10.920
28617W        W92176  28.550  20.262  13.843
28618W        W92177  34.900  31.990   5.235
28619W        W92178  34.020  27.662  10.568
28620W        W92179  37.970   3.385   2.742
28621W        W92180  15.707  18.214  10.456
28622W        W92181   9.345   2.940  13.028
28623W        W92182  18.182   3.235  13.967
28624W        W92183  26.503  32.928   0.476
28625W        W92184  34.927  12.729   5.216
28626W        W92185  32.041  23.601  14.459
28627W        W92186  28.030  43.289  12.409
28628W        W92187  12.702  16.580  13.820
28629W        W92188  24.022  36.485  12.547
28630W        W92189  39.397  25.163   3.247
28631W        W92190  35.067   1.293   2.842
28632W        W92191   4.370  20.038  12.386
28633W        W92192   5.345  43.978   3.862
28634W        W92193  44.883  31.580   3.781
28635W        W92194   0.898  31.086   0.395
28636W        W92195  19.105   3.448   1.824
28637W        W92196  12.701   8.681   4.623
28638W        W92197  33.878  13.717  13.308
28639W        W92198  10.775  18.184  14.408
28640W        W92199   3.309  13.646   0.450
28641W        W92200  24.114  21.553   2.787
28642W        W92201  21.044  29.589   1.884
28643W        W92202  21.618  32.981  12.550
28644W        W92203  17.668  11.172   2.872
28645W        W92204  43.943  35.951   0.405
28646W        W92205  38.042   9.784   2.829
28647W        W92206   8.683  39.809  12.988
28648W        W92207  39.558  24.005   2.844
28649W        W92208  31.070  28.147  12.830
28650W        W92209  26.013   8.241   2.316
28651W        W92210  40.836  17.227   3.378
28652W        W92211  11.833  24.551   2.202
28653W        W92212  16.598  12.201   4.330
28654W        W92213  11.330  12.227  14.489
28655W        W92214  26.551  38.391  13.059
28656W        W92215  17.796  28.075   0.921
28657W        W92216  35.466  42.021  12.402
28658W        W92217  18.652  43.337  12.406
28659W        W92218   2.411  15.239  12.042
28660W        W92219   1.934  21.116   4.218
28661W        W92220   0.828  36.938  14.973
28662W        W92221  32.140  29.641  11.468
28663W        W92222  10.298  30.022   0.877
28664W        W92223  21.263  23.138   1.889
28665W        W92224  28.991   5.847  14.385
28666W        W92225  22.605  35.489   3.304
28667W        W92226  37.064  18.140   4.787
28668W        W92227   0.951   8.748   0.281
28669W        W92228  41.806  34.480   4.203
28670W        W92229  21.531  29.011   2.869
28671W        W92230   9.395  41.899   0.743
28672W        W92231  36.046  14.330  12.856
28673W        W92232   3.400  18.160  11.459
28674W        W92233  42.352  24.651  13.813
28675W        W92234  41.522  26.537   9.921
28676W        W92235  44.950   3.420  14.455
28677W        W92236  25.529   6.895   0.851
28678W        W92237   7.319  13.133   0.822
28679W        W92238  35.985   1.731   4.196
28680W        W92239  31.480  13.794  14.988
28681W        W92240  23.095   2.823  12.365
28682W        W92241  20.594  44.981   4.788
28683W        W92242   2.818   9.765   4.236
28684W        W92243  26.177  17.203  11.533
28685W        W92244  14.156  23.232  12.971
28686W        W92245   2.278  42.450  14.814
28687W        W92246  32.442  29.578   2.240
28688W        W92247  19.753   5.921   2.196
28689W        W92248  39.956  35.108  12.501
28690W        W92249  31.006  30.562  12.547
28691W        W92250  20.631  22.095   1.918
28692W        W92251  14.672  37.514   1.354
28693W        W92252  19.222   2.899   0.428
28694W        W92253  25.564  25.695   2.738
28695W        W92254  31.568  10.640  11.521
28696W        W92255   8.809   1.288   1.246
28697W        W92256  38.407  35.969   2.848
28698W        W92257  29.047  36.560  14.886
28699W        W92258   3.426  36.469  11.890
28700W        W92259  34.465  10.200   0.421
28701W        W92260   3.864   5.409   4.704
28702W        W92261  43.966  20.531  11.021
28703W        W92262   1.237  12.644  12.955
28704W        W92263  33.972  40.527  11.425
28705W        W92264  35.096   7.367  13.537
28706W        W92265   6.710  29.943  11.976
28707W        W92266  22.712  28.183  10.531
28708W        W92267  33.955  19.273   1.277
28709W        W92268  29.610  10.382  13.864
28710W        W92269  14.168  24.701   3.324
28711W        W92270  33.020  14.212   1.257
28712W        W92271  36.964   1.919  12.051
28713W        W92272  26.543  13.212   4.738
28714W        W92273  42.010  19.706  10.993
28715W        W92274  18.270   6.266  11.512
28716W        W92275  41.999   7.216  14.361
28717W        W92276  16.218  12.700  12.437
28718W        W92277  33.391   3.895  14.492
28719W        W92278  40.484  29.606  14.946
28720W        W92279  42.438  12.360  14.452
28721W        W92280  14.751  26.690  12.979
28722W        W92281  32.508   5.754  11.604
28723W        W92282  39.019   7.274   9.981
28724W        W92283  42.418  25.706  11.059
28725W        W92284  39.892  19.119   4.751
28726W        W92285  44.877   3.829  11.462
28727W        W92286  40.544  32.617  10.153
28728W        W92287  15.294  19.165  14.298
28729W        W92288  15.092  33.510  12.884
28730W        W92289  22.544   1.969   0.452
28731W        W92290  13.712  34.582  11.611
28732W        W92291  41.369  34.051  13.844
28733W        W92292  21.076  14.276   0.243
28734W        W92293  14.753  34.069   5.250
28735W        W92294  34.006   3.748   0.440
28736W        W92295   1.368   3.281  13.964
28737W        W92296  22.632  40.461  13.836
28738W        W92297   2.307   3.251  14.495
28739W        W92298   2.259  35.485   4.348
28740W        W92299  38.064  24.021   2.830
28741W        W92300  20.660  44.328   3.326
28742W        W92301  13.202   6.366  13.408
28743W        W92302  33.518  19.105   0.964
28744W        W92303  27.138   3.942  11.051
28745W        W92304   9.270  11.335   0.833
28746W        W92305  24.192  44.370   1.354
28747W        W92306  37.555  37.562  11.986
28748W        W92307  44.819  35.043   3.329
28749W        W92308  29.453  25.608   0.800
28750W        W92309  16.206  17.131   2.302
28751W        W92310  38.913  19.709   0.759
28752W        W92311  16.172  11.337  13.318
28753W        W92312  44.793  39.862  10.489
28754W        W92313  30.059   2.880  12.841
28755W        W92314  43.392  44.803  11.072
28756W        W92315  16.112  31.046  12.513
28757W        W92316  40.521  44.342   5.183
28758W        W92317  21.541  14.789   4.752
28759W        W92318  26.703  34.093  13.929
28760W        W92319  19.735   6.217   0.253
28761W        W92320  16.585  20.529  11.993
28762W        W92321  23.103  30.024   2.228
28763W        W92322  34.923  37.370  10.462
28764W        W92323  41.927  32.593  14.287
28765W        W92324  35.387   1.360   0.910
28766W        W92325   0.853  12.726  10.122
28767W        W92326  42.834  12.208   2.756
28768W        W92327   7.388  25.095  10.449
28769W        W92328   2.953  32.891  13.498
28770W        W92329  37.471  42.342  11.438
28771W        W92330  16.580   1.316  12.884
28772W        W92331  24.539  27.050   4.200
28773W        W92332  10.718  14.724   2.782
28774W        W92333  42.396  28.980   0.359
28775W        W92334  22.156  26.116   3.658
28776W        W92335  37.516   7.903  11.571
28777W        W92336  12.785  29.622  14.439
28778W        W92337   0.794  34.547  12.524
28779W        W92338  34.586  17.564  12.080
28780W        W92339  12.232  18.219  12.509
28781W        W92340   6.391  21.120   2.718
28782W        W92341  40.808  14.124  11.612
28783W        W92342  21.088   6.802   2.315
28784W        W92343  36.858  44.965   4.732
28785W        W92344  33.044  19.236  10.608
28786W        W92345  36.968   1.421  14.471
28787W        W92346  16.708  14.188  13.987
28788W        W92347  21.244   1.828   4.147
28789W        W92348  19.735  40.461   3.377
28790W        W92349   7.373  16.307  14.836
28791W        W92350  22.658  44.843   0.302
28792W        W92351  40.457   7.901  12.899
28793W        W92352  29.441  42.362  11.419
28794W        W92353  31.050  37.474  14.032
28795W        W92354  12.788   9.749   2.270
28796W        W92355  39.510  24.546  11.425
28797W        W92356  28.642   7.799  10.539
28798W        W92357  15.690  36.842  12.026
28799W        W92358   7.700   9.367   0.957
28800W        W92359  39.975  36.505  13.313
28801W        W92360  24.205  26.181   3.850
28802W        W92361  12.314  27.637   2.363
28803W        W92362  16.750  10.636  10.895
28804W        W92363  34.434  16.704  13.845
28805W        W92364   8.675  19.151   2.719
28806W        W92365  26.990  26.050  11.085
28807W        W92366  38.342   7.848   0.291
28808W        W92367  44.491  28.961  14.295
28809W        W92368   4.230   7.261   2.857
28810W        W92369  23.119  25.651   1.232
28811W        W92370  13.235  32.544  10.926
28812W        W92371  28.117  13.643   0.900
28813W        W92372   7.306  20.538  10.510
28814W        W92373  17.064  23.639  14.999
28815W        W92374  29.971  29.444   3.263
28816W        W92375  11.144  16.136   4.200
28817W        W92376  42.384   6.367  11.962
28818W        W92377  31.614  17.730  12.972
28819W        W92378   3.849  39.974   0.935
28820W        W92379  31.153  28.496  13.969
28821W        W92380  27.481  31.413  14.791
28822W        W92381  42.841   4.447  14.921
28823W        W92382  43.392   4.906  11.492
28824W        W92383  36.560   1.424  10.495
28825W        W92384  31.599  17.753  14.775
28826W        W92385  15.182  13.738   4.790
28827W        W92386  23.514  31.572   2.736
28828W        W92387  27.636  14.142   4.253
28829W        W92388  11.698  28.930  14.475
28830W        W92389   5.434  30.942   1.729
28831W        W92390   2.345  26.993   1.794
28832W        W92391  22.164  27.959   4.711
28833W        W92392  40.440  40.873  11.555
28834W        W92393   0.317   2.300  12.881
28835W        W92394  30.141   3.906   1.254
28836W        W92395   7.414  31.132   3.630
28837W        W92396  33.555  33.478  12.469
28838W        W92397  33.119  23.569  11.008
28839W        W92398  15.276  20.741   2.334
28840W        W92399   1.778  44.377   0.405
28841W        W92400  44.893  40.454  14.488
28842W        W92401  35.029  18.550   2.672
28843W        W92402  26.681  36.003   2.362
28844W        W92403  21.525  15.717  12.846
28845W        W92404   0.900  40.047   3.753
28846W        W92405   6.909  44.367  14.288
28847W        W92406  30.050   0.984  11.023
28848W        W92407  42.899  27.961  11.893
28849W        W92408  29.655  23.686  12.469
28850W        W92409  34.534  25.584   2.219
28851W        W92410  40.327  27.629  12.010
28852W        W92411  24.576  12.737   0.366
28853W        W92412  20.704  29.967  14.361
28854W        W92413  26.509  38.329   2.688
28855W        W92414  11.803   6.923   3.380
28856W        W92415   2.900  26.693   0.469
28857W        W92416  39.872   7.844  13.867
28858W        W92417  23.601  26.663   1.312
28859W        W92418   4.733  14.638   2.841
28860W        W92419   6.353  36.460   4.349
28861W        W92420  32.524   1.872  13.906
28862W        W92421  17.098  21.565   0.353
28863W        W92422  34.007   1.948  10.598
28864W        W92423  42.429  24.214  10.453
28865W        W92424  34.573  33.097  14.788
28866W        W92425  14.779  33.086   0.825
28867W        W92426   6.864  13.767   1.797
28868W        W92427  12.818  44.350  14.771
28869W        W92428  21.051  12.354  13.457
28870W        W92429  15.778   8.681  13.909
28871W        W92430  19.043  44.306   3.697
28872W        W92431   3.734  40.503  13.868
28873W        W92432  26.089  35.977  13.906
28874W        W92433  34.589  33.403  12.448
28875W        W92434  16.287  15.689   3.813
28876W        W92435  25.556  14.314   3.683
28877W        W92436  15.588  18.647   3.275
28878W        W92437  30.575  29.968  12.881
28879W        W92438  25.181  31.573  14.405
28880W        W92439  11.162  43.375   1.779
28881W        W92440   4.941   5.697  12.899
28882W        W92441  16.785  38.537   3.171
28883W        W92442  27.567  29.573  13.867
28884W        W92443  17.698  16.291  11.006
28885W        W92444   1.465  24.118  12.552
28886W        W92445  31.080   5.255   3.231
28887W        W92446  28.505  35.940  10.605
28888W        W92447  37.985   6.839  12.900
28889W        W92448  16.611  32.409   0.476
28890W        W92449  11.715  37.540   1.378
28891W        W92450  39.344  10.333  13.800
28892W        W92451  39.384  31.413   1.250
28893W        W92452  11.707  39.401  13.919
28894W        W92453   2.930  12.703   2.413
28895W        W92454  18.269   9.381  13.896
28896W        W92455  26.998  11.764  10.643
28897W        W92456  37.489  14.114  13.044
28898W        W92457  24.655  35.096   4.224
28899W        W92458  10.714   8.244   4.682
28900W        W92459   0.485  37.998  13.389
28901W        W92460  39.392   9.153  12.946
28902W        W92461  17.716  27.025  10.923
28903W        W92462  39.397  15.789   0.761
28904W        W92463  11.158  36.465  13.409
28905W        W92464  36.077  35.411  12.556
28906W        W92465  21.243  23.710  13.506
28907W        W92466  43.427  27.476  13.800
28908W        W92467  11.861  37.043  10.135
28909W        W92468  43.450  25.190  14.308
28910W        W92469  13.137  15.143   1.710
28911W        W92470  34.991  38.498  13.310
28912W        W92471   1.427  11.187  11.610
28913W        W92472   6.712  25.673   4.790
28914W        W92473  33.057  35.530   1.762
28915W        W92474  25.208  29.092  10.531
28916W        W92475  12.725  40.855   3.871
28917W        W92476  13.826  33.408   5.304
28918W        W92477  22.223  42.364   4.635
28919W        W92478  14.785   9.211  13.047
28920W        W92479   4.343  38.936  10.540
28921W        W92480  41.529  37.881   4.667
28922W        W92481   8.829  33.432   4.118
28923W        W92482   9.209  27.952  14.372
28924W        W92483  39.827  26.087   4.700
28925W        W92484  41.853  18.694  10.406
28926W        W92485  21.612   8.871  12.996
28927W        W92486  27.538   4.720  10.063
28928W        W92487  18.268  11.859   2.179
28929W        W92488  12.183  31.559   3.805
28930W        W92489  35.533  32.027  12.032
28931W        W92490  18.698   9.666   0.285
28932W        W92491   3.357  14.288   0.419
28933W        W92492   3.789   3.242   5.083
28934W        W92493  36.413  38.546  10.551
28935W        W92494  39.048  20.760   4.228
28936W        W92495  42.504  17.619   3.789
28937W        W92496  22.700  30.601   9.500
28938W        W92497  36.455  12.256  14.317
28939W        W92498   9.291   6.225  10.439
28940W        W92499  44.319   4.424  11.508
28941W        W92500  22.097  19.246  12.382
28942W        W92501  36.380  42.452  10.973
28943W        W92502  14.326  40.054  11.579
28944W        W92503  41.968  42.019  11.891
28945W        W92504  11.866  22.211  13.326
28946W        W92505  10.807  26.012  10.504
28947W        W92506  41.931  17.162  11.961
28948W        W92507  40.497  23.025  10.498
28949W        W92508   5.899  21.588   3.268
28950W        W92509  36.040  43.412   3.845
28951W        W92510  34.551  23.096  10.607
28952W        W92511  43.850  21.690  11.880
28953W        W92512  32.029  25.978   1.732
28954W        W92513  26.960  14.790   4.813
28955W        W92514   0.973  29.573  14.911
28956W        W92515  21.161  13.119  12.831
28957W        W92516  19.248  14.834  11.929
28958W        W92517  27.103   2.436   3.867
28959W        W92518  13.723   3.400   0.850
28960W        W92519  28.625  30.640  12.862
28961W        W92520  21.740  25.176  12.873
28962W        W92521  34.457  35.371  10.622
28963W        W92522  38.367  21.030   5.217
28964W        W92523  12.267  17.068  14.869
28965W        W92524  43.774  33.552   1.791
28966W        W92525  18.581  35.500   4.646
28967W        W92526  10.721  36.955   1.264
28968W        W92527   9.646   6.197   0.287
28969W        W92528  23.508   4.429  10.487
28970W        W92529   7.417   1.754  11.118
28971W        W92530   3.361  29.518  14.395
28972W        W92531  26.121  24.989   3.327
28973W        W92532  12.845   6.411   4.612
28974W        W92533  42.816  25.472  13.898
28975W        W92534  13.151  21.549  13.458
28976W        W92535  27.452  33.567   3.776
28977W        W92536  39.481  15.678   2.849
28978W        W92537  22.146  20.628   0.875
28979W        W92538   3.335  17.721  14.468
28980W        W92539  43.365  17.612  11.575
28981W        W92540   2.869   3.376  12.421
28982W        W92541  20.187   6.217   2.686
28983W        W92542  11.633  21.035   0.275
28984W        W92543  18.228  36.039   0.318
28985W        W92544  31.094   5.248  12.366
28986W        W92545  44.928   4.296  12.914
28987W        W92546  14.636  38.865   2.703
28988W        W92547   0.927  29.006   2.199
28989W        W92548  20.067   5.383   1.850
28990W        W92549  36.976   1.370  14.023
28991W        W92550  26.093  35.970   2.833
28992W        W92551  43.359  44.827   0.408
28993W        W92552  32.633   0.755   4.790
28994W        W92553  31.613  10.793   4.188
28995W        W92554  22.065  10.251   0.372
28996W        W92555  19.626  23.095   1.430
28997W        W92556  30.097  17.644   1.770
28998W        W92557  10.730  34.594  11.937
28999W        W92558  44.270  22.504   4.659
29000W        W92559  37.568  39.470  12.467
29001W        W92560  15.598  28.614   3.366
29002W        W92561  44.419  34.906   4.783
29003W        W92562   1.378  33.488   1.362
29004W        W92563  38.393  25.071  11.016
29005W        W92564  12.826  24.703   1.724
29006W        W92565  25.582  42.428   0.922
29007W        W92566  14.148  19.596   4.285
29008W        W92567   1.284   9.866  14.455
29009W        W92568   2.882  24.596   1.847
29010W        W92569   4.367  11.188   2.347
29011W        W92570  10.706   7.370  14.780
29012W        W92571  33.030  14.320  11.980
29013W        W92572   5.911  22.723  12.843
29014W        W92573  40.411  37.905  13.402
29015W        W92574  30.105  24.558   2.242
29016W        W92575  34.515  15.097  10.940
29017W        W92576   5.433  31.401   4.345
29018W        W92577   7.741  16.296   0.337
29019W        W92578   6.864  28.095  11.105
29020W        W92579  27.530  29.035  14.422
29021W        W92580  13.773   3.279  11.110
29022W        W92581  25.703   3.795   1.893
29023W        W92582  19.748   7.240   0.326
29024W        W92583   7.868  24.651   4.776
29025W        W92584  27.996  33.386  11.008
29026W        W92585  30.594  32.476   4.669
29027W        W92586  41.955  32.971   2.198
29028W        W92587  40.500   8.190  14.027
29029W        W92588  37.387  40.544  10.969
29030W        W92589  42.785   2.468   1.429
29031W        W92590  30.526   6.383  12.005
29032W        W92591   1.326   2.235   1.216
29033W        W92592  23.045  27.024   4.347
29034W        W92593   9.790   9.324   2.264
29035W        W92594   9.317  38.522  12.926
29036W        W92595   8.179  42.897   4.755
29037W        W92596  18.729  11.651  13.340
29038W        W92597  39.484   1.428  11.994
29039W        W92598  36.923   9.178   9.575
29040W        W92599  16.161  11.654   3.680
29041W        W92600  31.553   5.347   3.279
29042W        W92601  38.034  30.137   3.643
29043W        W92602  10.350  42.470   4.153
29044W        W92603  30.552  38.558  13.495
29045W        W92604  39.993  10.755  13.307
29046W        W92605  20.702   3.426  11.113
29047W        W92606  25.619   3.883   2.807
29048W        W92607  24.973  36.871   4.808
29049W        W92608  27.113   1.386  12.362
29050W        W92609   8.283  20.601  13.012
29051W        W92610  23.642  41.439   4.190
29052W        W92611  16.099   6.303   3.764
29053W        W92612   0.788  31.056   3.779
29054W        W92613  26.542   5.694   0.346
29055W        W92614   7.751   1.971  11.473
29056W        W92615  17.099  33.589  11.919
29057W        W92616  34.597  20.550  13.535
29058W        W92617   9.299  20.264  13.418
29059W        W92618  10.694  22.530  13.309
29060W        W92619  39.922  32.128  12.869
29061W        W92620  22.657   6.813  12.966
29062W        W92621  37.893  39.858  10.602
29063W        W92622  42.402  11.692   0.471
29064W        W92623  27.952  26.982  10.893
29065W        W92624  19.058  27.478  12.094
29066W        W92625   9.828  17.629   4.662
29067W        W92626  26.653  36.389   0.377
29068W        W92627  38.395  42.878  14.858
29069W        W92628  13.649  29.939   1.217
29070W        W92629   7.825  26.120  14.281
29071W        W92630  22.644  36.069  13.428
29072W        W92631  32.950  33.477   3.771
29073W        W92632  29.033  29.628  14.510
29074W        W92633  39.042  38.569  13.533
29075W        W92634   1.879  22.100  13.892
29076W        W92635  16.787  17.150  11.884
29077W        W92636  43.013  40.869   4.332
29078W        W92637  12.184  34.109  14.462
29079W        W92638  22.153  41.840   4.158
29080W        W92639   5.885  35.882   3.165
29081W        W92640  10.661   0.837  13.920
29082W        W92641  39.424  33.529  11.992
29083W        W92642  29.167  24.619   3.355
29084W        W92643  29.047  14.771  13.310
29085W        W92644  40.939  41.797  14.805
29086W        W92645  21.669   4.850  10.153
29087W        W92646   9.658  21.191   4.282
29088W        W92647  40.516  10.692  13.361
29089W        W92648   5.211  33.896  12.074
29090W        W92649  23.683  29.570   4.317
29091W        W92650  24.600  28.979  14.410
29092W        W92651  39.413  38.938  13.457
29093W        W92652  13.154   5.369  11.407
29094W        W92653   4.823   7.320   3.804
29095W        W92654  18.712   5.871   3.727
29096W        W92655   8.377   4.392  11.454
29097W        W92656  23.600  22.191   0.441
29098W        W92657  31.593  20.141  13.795
29099W        W92658  23.523  27.172  14.342
29100W        W92659   6.187  28.995   3.764
29101W        W92660  23.220  12.151   3.716
29102W        W92661  10.775   3.356   2.410
29103W        W92662  10.279  29.498   0.891
29104W        W92663  18.103  25.607  13.433
29105W        W92664  24.519  35.988   1.441
29106W        W92665  13.183   4.856   0.313
29107W        W92666  24.609  36.402   0.731
29108W        W92667  37.922  23.675   3.764
29109W        W92668  24.981  40.825  12.364
29110W        W92669  16.172  12.225  14.787
29111W        W92670   2.293   3.883   0.916
29112W        W92671   3.461  13.199   4.306
29113W        W92672  13.161  40.049  10.988
29114W        W92673   0.274  26.521  12.945
29115W        W92674   3.253  24.116  13.424
29116W        W92675   1.956  42.389  14.304
29117W        W92676   5.915  30.490   4.250
29118W        W92677  19.053  23.578   1.901
29119W        W92678  43.805  41.874  14.770
29120W        W92679  44.913  25.082  11.436
29121W        W92680  26.028  34.599   3.739
29122W        W92681  34.876  17.115  12.092
29123W        W92682  37.573  40.918   1.391
29124W        W92683  41.900  23.203   2.374
29125W        W92684   3.941  24.987  12.343
29126W        W92685  20.735  27.560  13.384
29127W        W92686   1.803  33.026  14.950
29128W        W92687  39.955  32.555  12.061
29129W        W92688  29.492  13.205  13.979
29130W        W92689  36.416   7.338  10.078
29131W        W92690  29.523  21.182   3.264
29132W        W92691  22.163   5.321   1.698
29133W        W92692  37.558  41.961  10.966
29134W        W92693  43.437  13.622  14.837
29135W        W92694   6.356  41.405  11.055
29136W        W92695   3.801  33.538  13.427
29137W        W92696   4.224  22.570  13.834
29138W        W92697  40.306  11.139   2.788
29139W        W92698  11.711  11.631   4.790
29140W        W92699  27.467  17.698   2.204
29141W        W92700  13.318  15.808  11.933
29142W        W92701  13.677  27.590  12.080
29143W        W92702   2.924  20.037   2.678
29144W        W92703  19.670  24.041  14.994
29145W        W92704  14.705  21.622  12.853
29146W        W92705  25.994  30.065   2.241
29147W        W92706  18.602   6.850  13.491
29148W        W92707  13.660  35.374  12.092
29149W        W92708  33.955  33.020  12.341
29150W        W92709  22.532  44.318  13.917
29151W        W92710  37.919  16.791  12.068
29152W        W92711   0.922  41.391   4.816
29153W        W92712   3.370  40.450   3.219
29154W        W92713  25.612  18.230   3.780
29155W        W92714   7.386  12.328  14.964
29156W        W92715  33.895  30.986   0.379
29157W        W92716  35.586  32.031  12.929
29158W        W92717  39.933   0.421  12.893
29159W        W92718  44.808  18.141  14.781
29160W        W92719   6.231  10.811  14.973
29161W        W92720  43.928  44.357   1.361
29162W        W92721  37.070  21.734  11.083
29163W        W92722  12.344   9.719  12.949
29164W        W92723  19.552   7.675  13.817
29165W        W92724  30.103  33.984   1.341
29166W        W92725  42.302   5.380  13.860
29167W        W92726   5.253  33.475  13.868
29168W        W92727   0.308   5.748  11.993
29169W        W92728  32.614  14.138  10.548
29170W        W92729  22.711  30.951  10.898
29171W        W92730  15.213  38.377   4.598
29172W        W92731  38.821  41.801   1.289
29173W        W92732  40.519  37.367   5.274
29174W        W92733  32.076  28.103  13.020
29175W        W92734  19.277  23.202   0.296
29176W        W92735  14.233  34.111   2.268
29177W        W92736  37.388  34.098  13.971
29178W        W92737  30.573  22.713  13.411
29179W        W92738  40.449  10.275   4.348
29180W        W92739  17.664  34.899   0.359
29181W        W92740   5.361  20.190   2.325
29182W        W92741  22.086  12.790   2.853
29183W        W92742   3.337  36.034  13.449
29184W        W92743  24.601  35.084  10.497
29185W        W92744  28.616  31.930   4.141
29186W        W92745  28.023  11.157   2.814
29187W        W92746   3.342   9.269  10.459
29188W        W92747  23.225  27.116   3.311
29189W        W92748  35.389  41.941   3.226
29190W        W92749   6.408  31.454   0.901
29191W        W92750  38.404  31.536   1.910
29192W        W92751  15.224  29.036  13.527
29193W        W92752  37.048   6.809   0.445
29194W        W92753  40.384   8.751   2.333
29195W        W92754  13.226  42.447   1.808
29196W        W92755   5.823  20.268   4.255
29197W        W92756  17.264  37.355   4.753
29198W        W92757  31.107  41.384  10.555
29199W        W92758  43.796  40.388  11.917
29200W        W92759  36.585  17.243  14.401
29201W        W92760  34.380  21.120   2.745
29202W        W92761   2.733  43.359   0.859
29203W        W92762  12.833  25.972  11.930
29204W        W92763  34.481  43.911  13.530
29205W        W92764  33.410  21.629   3.368
29206W        W92765   9.886  37.879  12.409
29207W        W92766  24.033  42.811  10.992
29208W        W92767  29.133  18.572  13.877
29209W        W92768  24.488  37.978   3.726
29210W        W92769   5.418  39.900  11.950
29211W        W92770  16.727  37.422   1.298
29212W        W92771  39.495   9.337   2.771
29213W        W92772  42.427  18.101   1.272
29214W        W92773  23.116  29.134  11.057
29215W        W92774  22.156  16.800  14.017
29216W        W92775  27.036  27.033  11.411
29217W        W92776   2.721   4.385  12.963
29218W        W92777  31.966  16.248  12.404
29219W        W92778  12.248  17.756   3.734
29220W        W92779  14.333  37.510  13.350
29221W        W92780   9.847  30.570  13.949
29222W        W92781  22.547  37.345   1.763
29223W        W92782  10.384  10.232   2.235
29224W        W92783  18.289   1.428  14.801
29225W        W92784  43.447   7.294   0.922
29226W        W92785   3.715  44.774   1.863
29227W        W92786   8.671  15.276  14.016
29228W        W92787  24.627  34.467  12.976
29229W        W92788  36.409   6.841   0.759
29230W        W92789  41.015   5.816   0.765
29231W        W92790  33.491  34.081   3.174
29232W        W92791  36.467   9.882  14.357
29233W        W92792  24.479   0.333  14.014
29234W        W92793  19.262  15.324   3.683
29235W        W92794   0.299  39.873   2.323
29236W        W92795  30.430  26.189  13.311
29237W        W92796   4.415  15.233   4.166
29238W        W92797  14.136  12.715   3.379
29239W        W92798  11.768  26.967   4.336
29240W        W92799   3.912  23.559  12.363
29241W        W92800  36.362   1.791  12.481
29242W        W92801  42.509  25.480  13.320
29243W        W92802   3.899  15.809   0.249
29244W        W92803   6.322  14.298   4.712
29245W        W92804   6.731   4.430   4.776
29246W        W92805  34.080  17.285  13.534
29247W        W92806  29.579  19.200   4.797
29248W        W92807   1.384   7.349  12.031
29249W        W92808  36.483  15.151   1.222
29250W        W92809  33.003  43.453   1.890
29251W        W92810  26.202  31.480  14.336
29252W        W92811  39.937  19.745  14.375
29253W        W92812  30.068  19.550  10.505
29254W        W92813  29.577  28.500   2.722
29255W        W92814   7.805  31.124  14.446
29256W        W92815  30.061   2.841   0.819
29257W        W92816  36.394  12.292  13.847
29258W        W92817  34.931  42.513  13.803
29259W        W92818  13.802   8.174  13.940
29260W        W92819   4.283  41.453  13.047
29261W        W92820  32.542  41.478   1.935
29262W        W92821  10.872   6.328   0.760
29263W        W92822  17.101  43.400   3.857
29264W        W92823  37.043  36.472   0.786
29265W        W92824  15.787  27.174   4.290
29266W        W92825  10.871  16.674   0.787
29267W        W92826  21.512  33.385  14.841
29268W        W92827  24.213  10.238  13.530
29269W        W92828  22.643  18.255   5.137
29270W        W92829   8.366  34.114   5.569
29271W        W92830   8.779  24.569  11.860
29272W        W92831   9.753  12.817   3.326
29273W        W92832  40.325  20.039  13.421
29274W        W92833  17.773  26.554  12.446
29275W        W92834   1.361  27.503   2.717
29276W        W92835  11.177   8.740  15.000
29277W        W92836   7.365  43.316   2.351
29278W        W92837   6.762  32.469   3.379
29279W        W92838  14.784  23.184   0.339
29280W        W92839   7.402  40.887  12.059
29281W        W92840  39.831  34.403   5.310
29282W        W92841  29.073  32.027  13.012
29283W        W92842  34.465  42.396   1.887
29284W        W92843   2.362  37.416  10.052
29285W        W92844   5.298  39.903  13.930
29286W        W92845  44.773  39.370  12.936
29287W        W92846  34.875  17.100  10.042
29288W        W92847  27.184  22.593   4.272
29289W        W92848  33.566   6.425   4.744
29290W        W92849  16.131  30.098  10.488
29291W        W92850  13.303  31.418  12.984
29292W        W92851   9.346  13.313   0.330
29293W        W92852  36.065   0.823  14.950
29294W        W92853  15.733  15.095  13.915
29295W        W92854  37.966  31.102   0.917
29296W        W92855  35.401  22.562   1.439
29297W        W92856   2.737  34.884   4.282
29298W        W92857  18.134  27.522   0.325
29299W        W92858   0.431  19.189   4.154
29300W        W92859  10.675  44.455   4.252
29301W        W92860  37.044  33.413   0.841
29302W        W92861  21.668  20.185   2.367
29303W        W92862   5.789  38.878   4.344
29304W        W92863  22.633  30.602   1.244
29305W        W92864  18.168   1.378   2.303
29306W        W92865  44.764  12.720  14.277
29307W        W92866  35.071  26.179   1.237
29308W        W92867  26.573   9.825   4.756
29309W        W92868  14.825  29.476  12.415
29310W        W92869  44.003   5.430  11.519
29311W        W92870  31.075  19.589  12.039
29312W        W92871  33.444  16.688  11.983
29313W        W92872  16.672  16.178   0.423
29314W        W92873   9.875  44.401   3.201
29315W        W92874   6.701  15.298  12.869
29316W        W92875  26.572  11.277  14.956
29317W        W92876   7.176   9.214  14.357
29318W        W92877  14.590   4.759  11.899
29319W        W92878   3.951  44.831  11.485
29320W        W92879  27.039  15.819   4.234
29321W        W92880  35.100  29.977   4.331
29322W        W92881  32.081  13.221   3.837
29323W        W92882  23.159  33.941  10.521
29324W        W92883   3.724   4.882  10.629
29325W        W92884  37.414  13.156  14.849
29326W        W92885  43.478  12.698   1.783
29327W        W92886  15.238  26.677  12.015
29328W        W92887   4.930   3.728   1.396
29329W        W92888  26.631   6.335   5.146
29330W        W92889   9.787  12.620  10.504
29331W        W92890  42.956   7.314  14.448
29332W        W92891  40.037  36.964   3.387
29333W        W92892  14.312   2.319  10.629
29334W        W92893  31.014  32.131  12.078
29335W        W92894  33.461  29.662   1.855
29336W        W92895   0.250   3.375  12.432
29337W        W92896  30.656  25.570   1.320
29338W        W92897  44.289  41.527  12.019
29339W        W92898  36.514   1.405  12.831
29340W        W92899  20.091  22.652   1.813
29341W        W92900  42.473   4.805   3.768
29342W        W92901  21.702  14.205   2.322
29343W        W92902  35.500   3.398   4.141
29344W        W92903  26.161  42.874   2.184
29345W        W92904  43.312  23.517   2.692
29346W        W92905   9.232   0.965  12.409
29347W        W92906  13.713  16.651  12.352
29348W        W92907  43.283  22.182   2.672
29349W        W92908  16.737  42.830   1.776
29350W        W92909   6.895  25.182  14.871
29351W        W92910  41.806   8.202   2.400
29352W        W92911  12.648  27.122  11.087
29353W        W92912  18.178  20.647   1.716
29354W        W92913  31.072  37.417  11.925
29355W        W92914   9.684  42.438  14.297
29356W        W92915  37.855  34.443   5.166
29357W        W92916  10.301  21.236  13.423
29358W        W92917   3.304   8.726   1.792
29359W        W92918   7.881   5.733   3.285
29360W        W92919  14.308  15.618   4.747
29361W        W92920  18.579  41.035   4.218
29362W        W92921  18.552  36.390   4.712
29363W        W92922   5.747   8.887   2.892
29364W        W92923  40.982  41.854  12.391
29365W        W92924  21.260  21.692   1.725
29366W        W92925   2.862  23.042   3.164
29367W        W92926  33.971   8.379  13.862
29368W        W92927   2.231  32.052   0.421
29369W        W92928  34.505   9.177  14.788
29370W        W92929  39.982  34.452   1.874
29371W        W92930   0.974  36.064  10.524
29372W        W92931  33.564  42.020  10.582
29373W        W92932  30.608  22.563   1.931
29374W        W92933  24.563  11.746  11.934
29375W        W92934   6.350   3.827  12.922
29376W        W92935  25.613  28.022  14.860
29377W        W92936   0.282  32.586   0.804
29378W        W92937  12.237  10.667   0.402
29379W        W92938   5.242  35.421   4.817
29380W        W92939  43.769  29.525   2.202
29381W        W92940  11.784  26.627  10.470
29382W        W92941  39.442  41.315  14.918
29383W        W92942   2.963  25.058   4.782
29384W        W92943  42.523   1.887   4.252
29385W        W92944   5.398  36.587   1.733
29386W        W92945  44.357  10.872   1.281
29387W        W92946  11.782  15.784   3.242
29388W        W92947  33.428  17.282  11.892
29389W        W92948  13.627  12.751   3.231
29390W        W92949  14.710  24.516  14.335
29391W        W92950  14.139  15.105  11.888
29392W        W92951   3.948   6.876  12.460
29393W        W92952  37.528  28.523  12.063
29394W        W92953   1.257  41.881  14.397
29395W        W92954  13.668  24.608  13.474
29396W        W92955   9.741  38.070   1.324
29397W        W92956   8.249  12.202  13.439
29398W        W92957  35.491  36.848  12.863
29399W        W92958  44.963   4.368   1.727
29400W        W92959   6.248  39.347   1.411
29401W        W92960   3.731  23.159  11.090
29402W        W92961   5.789   8.899   1.360
29403W        W92962  22.623   2.902   3.384
29404W        W92963  23.580  42.473   3.238
29405W        W92964  21.563  19.556  10.471
29406W        W92965   7.812  20.622  12.052
29407W        W92966  43.883  27.665   4.347
29408W        W92967  18.669   7.363   0.367
29409W        W92968  26.140  37.403  14.392
29410W        W92969  33.122  28.988   3.724
29411W        W92970  25.630  43.475   2.862
29412W        W92971  31.560  42.441   1.929
29413W        W92972  11.856   0.255  12.501
29414W        W92973  12.256  35.882   1.872
29415W        W92974   7.815  10.806  10.524
29416W        W92975  33.932   7.857  14.833
29417W        W92976   3.425   0.745   3.640
29418W        W92977  15.257  37.522   0.730
29419W        W92978  44.871  16.265  10.888
29420W        W92979  34.872  19.656   4.321
29421W        W92980   2.364  33.000   3.659
29422W        W92981  37.854  38.509   1.805
29423W        W92982  36.525  20.607  10.405
29424W        W92983  37.539  26.624  11.459
29425W        W92984  31.486  31.521   1.377
29426W        W92985  11.168  21.539  14.874
29427W        W92986  31.912  36.398  13.924
29428W        W92987  10.280  32.893   4.605
29429W        W92988  17.063  11.279   1.815
29430W        W92989  21.184  42.431   0.266
29431W        W92990   5.859  39.417  11.399
29432W        W92991  39.977  33.598  10.967
29433W        W92992  15.281  27.653   0.451
29434W        W92993  19.579  30.050  11.440
29435W        W92994  28.665  44.848   3.284
29436W        W92995  32.632  36.456  10.426
29437W        W92996   9.269  37.858  14.934
29438W        W92997   5.437  31.479  14.972
29439W        W92998  33.104  22.148   4.800
29440W        W92999  22.066  10.297   1.226
29441W        W93000  25.100   4.703   3.833
29442W        W93001  24.206   5.792  12.958
29443W        W93002  15.664  33.463   3.832
29444W        W93003  17.592  43.942   2.740
29445W        W93004  34.586  28.535  10.453
29446W        W93005  25.654   4.258   3.201
29447W        W93006   8.700  17.658  14.311
29448W        W93007   7.388  37.892  12.830
29449W        W93008  24.579  41.478  13.829
29450W        W93009  20.556  25.609   3.838
29451W        W93010  26.986  28.540  14.014
29452W        W93011   8.762  19.627  12.556
29453W        W93012  10.794  10.653   4.315
29454W        W93013  13.270  19.743  12.028
29455W        W93014  15.325  16.674   4.713
29456W        W93015  28.605  14.696   4.827
29457W        W93016  23.063  34.457  10.586
29458W        W93017  32.989  39.943  14.983
29459W        W93018   1.273   5.704   0.776
29460W        W93019  40.404  21.048  11.126
29461W        W93020  21.078  38.480   3.229
29462W        W93021  20.272  38.957   3.191
29463W        W93022  20.082  23.081  11.054
29464W        W93023  38.486  16.573  11.549
29465W        W93024  23.067  28.091  12.894
29466W        W93025  32.533  27.953  12.982
29467W        W93026  11.772  15.106   2.300
29468W        W93027  43.859  25.037  13.866
29469W        W93028   4.228  30.115  13.046
29470W        W93029  31.615   2.438  12.345
29471W        W93030  25.015   4.370   2.228
29472W        W93031  32.608  21.678  11.399
29473W        W93032  30.924  19.638  13.525
29474W        W93033  25.115  30.945  13.411
29475W        W93034   4.939  11.786   1.739
29476W        W93035  32.960  28.562  12.979
29477W        W93036  30.445   4.914   1.303
29478W        W93037  36.481  20.734   2.217
29479W        W93038   2.427  37.402   1.281
29480W        W93039  23.056  39.421   2.732
29481W        W93040  15.634  37.378   3.868
29482W        W93041  42.299   5.860  12.479
29483W        W93042   0.884  13.294  13.801
29484W        W93043  17.174  18.690  13.060
29485W        W93044  27.162   4.246  13.007
29486W        W93045  40.416  40.391  10.455
29487W        W93046  19.065  19.541  11.528
29488W        W93047   6.199  35.941   0.264
29489W        W93048  32.056  21.081   3.244
29490W        W93049  20.738  36.577   1.229
29491W        W93050  11.829  21.650  11.036
29492W        W93051  20.643  33.036   1.234
29493W        W93052  35.581  25.135   4.330
29494W        W93053  17.288  25.986  14.846
29495W        W93054  35.552   9.799   0.727
29496W        W93055   6.248  41.890  11.039
29497W        W93056  31.095  17.254  10.943
29498W        W93057  28.162  26.057  12.027
29499W        W93058   4.914   9.367  14.326
29500W        W93059  27.667  41.438  13.842
29501W        W93060  30.153  35.460  13.842
29502W        W93061  44.986   4.938   4.767
29503W        W93062  14.826   2.726   0.912
29504W        W93063   7.711  33.496  13.853
29505W        W93064  26.122  26.967  11.466
29506W        W93065  25.168  22.668   2.674
29507W        W93066  27.161   3.952  12.423
29508W        W93067   9.827   2.826  12.027
29509W        W93068   0.824   6.336   1.306
29510W        W93069  35.597   6.242  12.946
29511W        W93070  29.544  44.870   2.750
29512W        W93071  40.943   7.858   4.613
29513W        W93072  38.556  30.425   3.678
29514W        W93073  44.763  15.787  12.570
29515W        W93074  36.424  13.304   2.684
29516W        W93075  29.024  34.578  13.823
29517W        W93076  29.950   2.383   2.768
29518W        W93077  41.801  24.063  11.031
29519W        W93078  41.972  21.107  11.038
29520W        W93079  42.816  40.376  11.515
29521W        W93080  29.619  11.177   1.240
29522W        W93081  11.351   2.411   0.927
29523W        W93082  11.728   8.338  10.516
29524W        W93083  11.253  36.905   4.759
29525W        W93084  33.403  39.857   1.758
29526W        W93085   7.812  32.439   1.385
29527W        W93086  14.220  44.473  14.978
29528W        W93087   5.322  24.086   4.338
29529W        W93088  28.069  22.120  13.885
29530W        W93089  21.069  17.672   4.150
29531W        W93090  32.926   4.908  11.956
29532W        W93091   5.342  41.039  12.565
29533W        W93092  10.159  18.055   4.176
29534W        W93093  10.780   2.286   0.364
29535W        W93094   8.677   9.821  14.379
29536W        W93095  42.371  37.569  13.906
29537W        W93096   5.254  21.740  13.856
29538W        W93097   7.321  12.726   1.225
29539W        W93098  30.092  40.959   3.734
29540W        W93099  36.393  23.507   2.861
29541W        W93100  19.565  20.172   3.268
29542W        W93101  33.481  33.511   3.220
29543W        W93102   8.655  41.389  12.425
29544W        W93103  41.400  36.954   2.403
29545W        W93104   8.252  34.609  12.930
29546W        W93105  33.579   2.262   1.728
29547W        W93106   9.344  16.108   2.313
29548W        W93107  20.638  23.209   3.382
29549W        W93108   9.871  12.278  13.060
29550W        W93109  14.734  41.384   3.810
29551W        W93110   4.715   4.936   1.370
29552W        W93111  17.792   9.312  14.959
29553W        W93112  34.891  22.080   2.374
29554W        W93113  22.723   9.186   4.696
29555W        W93114  33.099  42.453  12.915
29556W        W93115   6.356  13.707  11.572
29557W        W93116  22.635  35.960  11.927
29558W        W93117  33.950  16.789  11.093
29559W        W93118  24.034  10.224   2.224
29560W        W93119  38.038   1.460   2.370
29561W        W93120   7.203  15.824   2.783
29562W        W93121  18.642  28.565   0.794
29563W        W93122  10.271  41.901  14.764
29564W        W93123  34.089  31.062  14.899
29565W        W93124   8.166  35.997  12.563
29566W        W93125  12.236  35.030  13.819
29567W        W93126  21.041   3.258  12.499
29568W        W93127  43.989  37.878  10.912
29569W        W93128  22.129  21.045  13.820
29570W        W93129  27.492  12.700  13.848
29571W        W93130  28.587  17.577  13.835
29572W        W93131  35.503  14.232   3.716
29573W        W93132  40.970   6.390   2.330
29574W        W93133  32.951  29.949   3.645
29575W        W93134  41.824   1.751   4.138
29576W        W93135  24.186   9.373  11.508
29577W        W93136   1.857   1.798  13.500
29578W        W93137  15.622  10.308  12.085
29579W        W93138  37.442  21.046  13.059
29580W        W93139  22.022  27.121  11.976
29581W        W93140  19.094   2.879   2.328
29582W        W93141  14.177  29.027  12.537
29583W        W93142  27.997  32.099   4.245
29584W        W93143  18.098  15.112   0.454
29585W        W93144  28.167  36.589   2.777
29586W        W93145  24.600  35.032   0.853
29587W        W93146  43.288  44.001   1.292
29588W        W93147  31.514  19.773   0.403
29589W        W93148  27.457  22.603   0.805
29590W        W93149  32.443  23.613   3.191
29591W        W93150  19.662  38.486  13.052
29592W        W93151  11.211  26.464  11.971
29593W        W93152  28.611  39.016   1.751
29594W        W93153   0.966  42.431  14.997
29595W        W93154  32.431  19.145  11.518
29596W        W93155   8.364  37.554  11.611
29597W        W93156  13.708  27.146  13.507
29598W        W93157  34.082  20.078   2.821
29599W        W93158  17.564  24.014   0.384
29600W        W93159  39.906  17.197   3.838
29601W        W93160  36.956  19.199   0.260
29602W        W93161  25.708  12.228   3.287
29603W        W93162  15.809  44.971   1.449
29604W        W93163  25.590  26.636  13.022
29605W        W93164  23.233  42.891   0.807
29606W        W93165  43.833  41.428   2.377
29607W        W93166  32.553  22.584   1.444
29608W        W93167   0.434   1.924   3.240
29609W        W93168  24.635   1.416   3.712
29610W        W93169  21.519  18.089  11.968
29611W        W93170  40.977  26.058   1.765
29612W        W93171  18.681  43.995  13.935
29613W        W93172  11.289  42.964  14.505
29614W        W93173  42.302  34.872  14.868
29615W        W93174  15.133  24.580  14.762
29616W        W93175  35.048   1.271  10.605
29617W        W93176  37.931   6.270   3.259
29618W        W93177  33.005  19.250  14.339
29619W        W93178  41.040  38.368  13.546
29620W        W93179  11.648  41.854   3.372
29621W        W93180  43.923   3.267  14.502
29622W        W93181  40.863   7.356  10.991
29623W        W93182   9.378  26.181  10.952
29624W        W93183  22.603   5.365   0.885
29625W        W93184   8.740  19.661   3.376
29626W        W93185   3.767  30.655   2.719
29627W        W93186  18.278  11.746  14.957
29628W        W93187  23.548  31.573  13.922
29629W        W93188  11.708  17.217   4.227
29630W        W93189  27.467  15.790   1.702
29631W        W93190   7.744  10.655   4.204
29632W        W93191  14.763  35.037  12.842
29633W        W93192  35.000   4.246  11.964
29634W        W93193  21.674  19.082  13.989
29635W        W93194  23.000  14.263   4.258
29636W        W93195  11.197  35.061  14.343
29637W        W93196  38.359   7.313   4.235
29638W        W93197  16.108  17.306  11.017
29639W        W93198  15.730  42.795  10.897
29640W        W93199  13.241  31.648   1.251
29641W        W93200  17.762  30.986  12.441
29642W        W93201  20.613  27.577  12.060
29643W        W93202   2.311  40.516  11.984
29644W        W93203   2.306   6.752  12.996
29645W        W93204  40.391  16.740  11.423
29646W        W93205   4.311  32.933  14.937
29647W        W93206  36.452   4.399   0.308
29648W        W93207  35.978   8.901  13.398
29649W        W93208  28.670  17.652  13.483
29650W        W93209   0.270   9.337   4.679
29651W        W93210  42.776  33.619   1.422
29652W        W93211  36.550  31.510   3.327
29653W        W93212  34.923  11.644  13.900
29654W        W93213  12.676   3.369   0.930
29655W        W93214   4.910   0.926   0.825
29656W        W93215   5.890   7.888  14.303
29657W        W93216  24.049  39.442  10.411
29658W        W93217  36.084  15.824  11.523
29659W        W93218  15.741  42.846  10.019
29660W        W93219   3.312  27.604   3.328
29661W        W93220  23.107  19.706  11.015
29662W        W93221  18.606  39.420  10.538
29663W        W93222  41.463   8.195  12.070
29664W        W93223  44.875  17.216  11.994
29665W        W93224  16.194  37.439   1.314
29666W        W93225  16.576  36.057  12.415
29667W        W93226  10.270  40.801   2.306
29668W        W93227   0.963  39.338  11.079
29669W        W93228  44.917  29.625  13.902
29670W        W93229   2.413  27.977   2.227
29671W        W93230  30.950  31.987  11.443
29672W        W93231  43.842  30.485   0.750
29673W        W93232  15.099  42.805   4.650
29674W        W93233   8.860  34.608   9.934
29675W        W93234  37.056  42.965  10.638
29676W        W93235  27.651  40.846  13.315
29677W        W93236  21.163   9.704  14.862
29678W        W93237  32.620   7.881  13.999
29679W        W93238  41.902  24.178  14.284
29680W        W93239  11.814  37.574   5.133
29681W        W93240  42.514  13.825   1.386
29682W        W93241  23.083  43.768   0.856
29683W        W93242  43.337  43.433  11.373
29684W        W93243  31.477  23.120  11.117
29685W        W93244  16.692  35.568  10.994
29686W        W93245  23.538  41.997   0.397
29687W        W93246  10.764  12.833  11.095
29688W        W93247  11.807  12.147   4.698
29689W        W93248  36.028   8.311   3.250
29690W        W93249  16.713  37.957  12.513
29691W        W93250  31.428  32.963  11.911
29692W        W93251  26.169  39.054  11.543
29693W        W93252  12.332  31.065  13.904
29694W        W93253   2.857  24.531   2.337
29695W        W93254  34.998  12.334  14.287
29696W        W93255   4.829  40.807   1.219
29697W        W93256  38.952  39.490  14.381
29698W        W93257  13.279   6.870  12.542
29699W        W93258  18.261  12.348  14.933
29700W        W93259  12.697   8.313   1.398
29701W        W93260  31.964  16.122  14.008
29702W        W93261  19.645  43.895  14.870
29703W        W93262  11.735  39.400   0.355
29704W        W93263  28.167  43.847   4.724
29705W        W93264  17.632  42.316   3.811
29706W        W93265  10.871  35.419   2.367
29707W        W93266  26.119   9.831  11.969
29708W        W93267  42.955  19.600  14.353
29709W        W93268   4.269  26.572  10.622
29710W        W93269  25.198  22.525  12.505
29711W        W93270  26.011  16.074  14.846
29712W        W93271   2.967   3.284  14.459
29713W        W93272  27.601  41.855   2.254
29714W        W93273  10.879  44.443  10.471
29715W        W93274   1.821  22.223   0.933
29716W        W93275  42.926   8.835   2.736
29717W        W93276  26.000  20.575  13.431
29718W        W93277   8.192  28.670  13.970
29719W        W93278  34.584  30.444   4.350
29720W        W93279  16.652  16.121   1.908
29721W        W93280  25.565   3.244  13.493
29722W        W93281  34.073  31.639   4.674
29723W        W93282  16.134  10.323   5.154
29724W        W93283  26.676  18.614   2.198
29725W        W93284  38.976  32.915   3.334
29726W        W93285  27.486  11.659  11.064
29727W        W93286   1.251   5.774   2.803
29728W        W93287   0.410  29.523   0.778
29729W        W93288   8.897  31.457   1.851
29730W        W93289   8.851  36.956  14.477
29731W        W93290  12.620  24.611  13.920
29732W        W93291  27.645  32.401   0.317
29733W        W93292  19.039  10.681  14.290
29734W        W93293  40.026  15.324  14.958
29735W        W93294  31.082  35.858  11.462
29736W        W93295  29.047  21.618  10.555
29737W        W93296  19.258  37.395   3.689
29738W        W93297  12.661  10.313  13.409
29739W        W93298  19.137  13.759   2.682
29740W        W93299  25.133   3.896   0.913
29741W        W93300   6.298  25.215   3.377
29742W        W93301  17.079  25.986  12.895
29743W        W93302  18.761  28.037   3.809
29744W        W93303   2.779   6.800   3.191
29745W        W93304  10.797  23.084   5.676
29746W        W93305   9.646   4.787  13.904
29747W        W93306   0.424  13.716  12.845
29748W        W93307  17.271  44.781  12.367
29749W        W93308  36.479   9.215  14.512
29750W        W93309  31.949   8.802  13.794
29751W        W93310  31.897  17.307  14.920
29752W        W93311  42.501  31.931  12.423
29753W        W93312  41.366  17.752   2.881
29754W        W93313  34.077  33.034   3.296
29755W        W93314  13.818  18.249   1.768
29756W        W93315  18.558  22.667   0.793
29757W        W93316  24.575  23.240   4.611
29758W        W93317   3.452  42.303   4.694
29759W        W93318  42.460   4.437   2.291
29760W        W93319   1.457  22.704   4.176
29761W        W93320  42.030  18.081  14.796
29762W        W93321  11.678  35.015  12.410
29763W        W93322  26.195   9.661  13.802
29764W        W93323  37.953  17.151   4.734
29765W        W93324  25.975  38.449   4.223
29766W        W93325  36.554  33.119  11.081
29767W        W93326  15.747  30.637  12.376
29768W        W93327  14.648  42.397   0.332
29769W        W93328  37.428  31.909  13.887
29770W        W93329  20.067  28.623   1.799
29771W        W93330  20.632  26.593  12.050
29772W        W93331  44.821   7.723  11.055
29773W        W93332   9.759  36.588   4.756
29774W        W93333  22.194  15.783  11.073
29775W        W93334  44.766   5.857  10.988
29776W        W93335  41.854   8.848   1.217
29777W        W93336  15.191  35.539  13.053
29778W        W93337  24.545  37.352  12.088
29779W        W93338  33.419   7.842   3.323
29780W        W93339   8.161   9.871  12.384
29781W        W93340  23.109  10.676   2.205
29782W        W93341   1.322  18.252  13.329
29783W        W93342  19.159  43.468  14.501
29784W        W93343   6.311  38.546  14.431
29785W        W93344  33.110  16.729  12.532
29786W        W93345  12.186   6.719  11.881
29787W        W93346   3.276  17.655  11.858
29788W        W93347  39.395  15.653  10.064
29789W        W93348  41.793   1.928   2.769
29790W        W93349  20.234   7.735  12.408
29791W        W93350  30.651  44.832  14.444
29792W        W93351  41.527   3.935  12.411
29793W        W93352   3.419   5.821   0.949
29794W        W93353   1.377  22.238   0.924
29795W        W93354  12.211  11.728   4.215
29796W        W93355  40.496  32.609   0.861
29797W        W93356  20.738  37.896  12.983
29798W        W93357  36.881   3.255  10.528
29799W        W93358  34.895  38.425  14.967
29800W        W93359  29.148  27.134   1.263
29801W        W93360  26.956  40.819  14.907
29802W        W93361  28.573  16.285  12.059
29803W        W93362  20.716  43.421   3.749
29804W        W93363  21.632  39.472  14.825
29805W        W93364   3.948  15.622   2.757
29806W        W93365  37.878   3.860  10.928
29807W        W93366  10.320  38.538  14.932
29808W        W93367  26.025   7.225   4.653
29809W        W93368  35.054   9.171   2.802
29810W        W93369  17.129  32.615  10.005
29811W        W93370  36.029  15.272  12.900
29812W        W93371  35.901   3.454   0.337
29813W        W93372  44.339  19.267   0.840
29814W        W93373  23.603   7.372  12.378
29815W        W93374  16.731  42.781   0.347
29816W        W93375  17.648   7.215   3.163
29817W        W93376  40.019   8.289   3.854
29818W        W93377  34.865   8.309   1.329
29819W        W93378  44.334  17.657   1.401
29820W        W93379  18.617   7.883  14.945
29821W        W93380  35.945  23.513  11.406
29822W        W93381  30.075  27.691   3.665
29823W        W93382  16.649  18.218  10.970
29824W        W93383   3.930  40.871  11.445
29825W        W93384  33.487   4.334  10.416
29826W        W93385   3.218  22.596   1.372
29827W        W93386  29.003  41.980   3.148
29828W        W93387  19.586  29.974   3.773
29829W        W93388  33.975  27.058   1.765
29830W        W93389   2.931   1.800   4.115
29831W        W93390  26.658  32.990   2.675
29832W        W93391   0.279  12.146   4.789
29833W        W93392   4.418  34.427  13.335
29834W        W93393  42.416  27.181   2.880
29835W        W93394  19.051  28.442   1.922
29836W        W93395  41.377  23.667   4.657
29837W        W93396  21.085  41.432  13.825
29838W        W93397  20.175   4.808   2.757
29839W        W93398  10.839  38.343   1.449
29840W        W93399  23.531  24.624  13.523
29841W        W93400  25.552  41.887   4.143
29842W        W93401  34.533   2.383   1.264
29843W        W93402  29.532  29.166   4.240
29844W        W93403   5.851  42.947   1.449
29845W        W93404  38.063  27.574   3.165
29846W        W93405  26.551  41.393   4.120
29847W        W93406  36.530   4.829   0.427
29848W        W93407  17.079  16.637  13.030
29849W        W93408  43.826  38.859   0.332
29850W        W93409   8.190  37.845   3.152
29851W        W93410  30.572  13.295  13.356
29852W        W93411  44.990  20.130   4.139
29853W        W93412  38.358  34.110   2.725
29854W        W93413  38.045   8.711   5.218
29855W        W93414  20.653  17.701   4.235
29856W        W93415   0.749  42.434   2.752
29857W        W93416  32.452  43.984  10.925
29858W        W93417  38.864  27.656   2.181
29859W        W93418  19.141   7.252  13.322
29860W        W93419  33.980   7.856  12.830
29861W        W93420   1.883  43.992   2.387
29862W        W93421  23.087  36.078  10.950
29863W        W93422   7.800  38.493  14.826
29864W        W93423   0.800  22.006   0.460
29865W        W93424  35.019  43.459   1.449
29866W        W93425  41.999  32.590   4.154
29867W        W93426   7.808  31.476  13.802
29868W        W93427  27.464   6.236   3.857
29869W        W93428  42.914  30.573  13.976
29870W        W93429  19.064  37.997   4.761
29871W        W93430  40.872  42.344   0.861
29872W        W93431  24.583   0.759   0.931
29873W        W93432  18.214  34.956  11.979
29874W        W93433   5.747  24.651   3.654
29875W        W93434  35.539  18.080  12.353
29876W        W93435  11.217  25.044  10.597
29877W        W93436  14.752  40.982  10.642
29878W        W93437  36.980  33.623   3.848
29879W        W93438  30.461  36.465   3.774
29880W        W93439  11.323  13.824   0.917
29881W        W93440   0.272  26.604  14.431
29882W        W93441   1.376   7.886  11.892
29883W        W93442  43.801  18.131   3.778
29884W        W93443  24.484  17.763   1.759
29885W        W93444  32.635  44.836  11.583
29886W        W93445  18.762  19.149   0.815
29887W        W93446  36.519   9.225  12.046
29888W        W93447  21.581  41.340   3.629
29889W        W93448  13.243  30.656  12.475
29890W        W93449  18.717   9.302  10.619
29891W        W93450  36.950  15.773  14.885
29892W        W93451  25.142   8.806   3.344
29893W        W93452   8.899   7.173  14.383
29894W        W93453  36.007  34.556   2.734
29895W        W93454  13.302  20.168   1.218
29896W        W93455   7.416  11.298   4.720
29897W        W93456  26.964  36.380   4.206
29898W        W93457  13.292   6.420   0.414
29899W        W93458   7.199  15.290   9.969
29900W        W93459  33.054  33.626   4.824
29901W        W93460  27.034  11.356   2.225
29902W        W93461  18.098  39.395  11.003
29903W        W93462  42.330  37.942  10.914
29904W        W93463   0.282  40.868   2.182
29905W        W93464   3.862  28.046   4.729
29906W        W93465   1.337   2.955  12.072
29907W        W93466   9.362  37.367  10.988
29908W        W93467  42.374  35.393   0.312
29909W        W93468  40.999  24.488  14.995
29910W        W93469   2.231  39.895  11.071
29911W        W93470  19.772  28.452   4.330
29912W        W93471  33.389   8.900   5.593
29913W        W93472  34.900  23.584  10.009
29914W        W93473  18.143  21.597  13.062
29915W        W93474  13.773   1.930  13.337
29916W        W93475  25.156  17.184   1.273
29917W        W93476   9.887  34.064  12.390
29918W        W93477  13.124   0.367   4.304
29919W        W93478  33.091  44.437  13.436
29920W        W93479  16.289   4.396  12.053
29921W        W93480  26.964  17.070  11.988
29922W        W93481  11.677   9.179   3.190
29923W        W93482  14.176  11.319  12.045
29924W        W93483  35.545  38.537  13.877
29925W        W93484  29.659  10.314   3.306
29926W        W93485  11.670   7.322   1.803
29927W        W93486   5.437  41.901  14.429
29928W        W93487  21.655  30.568   2.737
29929W        W93488  43.486  25.636   0.290
29930W        W93489  17.618  44.966  14.316
29931W        W93490  42.822  26.049  11.481
29932W        W93491  38.367  34.569   3.684
29933W        W93492  21.093  32.503   0.950
29934W        W93493   8.350  26.489  14.983
29935W        W93494  32.516  22.693  12.066
29936W        W93495  30.081  15.596  13.857
29937W        W93496  44.416  23.077   1.363
29938W        W93497  30.624  29.938  10.432
29939W        W93498   5.348  37.481   3.867
29940W        W93499  10.701  16.236   2.220
29941W        W93500  28.014  19.708  14.923
29942W        W93501  44.906  26.074  11.012
29943W        W93502  14.827  27.528  12.986
29944W        W93503   8.332  36.010  13.892
29945W        W93504  30.055  24.014   0.818
29946W        W93505  31.949  31.487   0.778
29947W        W93506   4.836  38.878   1.799
29948W        W93507   3.851   4.306  13.312
29949W        W93508  36.381  33.612  11.892
29950W        W93509  16.131   1.757  12.861
29951W        W93510  13.776  36.472  14.388
29952W        W93511  38.050  13.167   4.205
29953W        W93512  29.102  43.379   2.834
29954W        W93513   7.754  17.605   2.352
29955W        W93514  11.340  44.349   4.720
29956W        W93515  11.839  42.441   2.718
29957W        W93516  14.673  35.038   0.440
29958W        W93517   7.179  44.794   3.703
29959W        W93518  33.028  26.601  11.516
29960W        W93519  22.185  30.053  13.517
29961W        W93520  29.046   4.374   4.603
29962W        W93521  42.302  30.427  13.531
29963W        W93522  37.374  11.806  12.952
29964W        W93523   3.820  28.513  12.492
29965W        W93524  14.307  24.572  11.006
29966W        W93525  28.052  30.964  11.419
29967W        W93526  43.868   5.786  14.933
29968W        W93527   6.191  32.944  13.858
29969W        W93528  12.202  32.986   2.284
29970W        W93529  42.296  11.725  12.529
29971W        W93530   0.799  36.903   0.798
29972W        W93531  39.552  36.425   0.433
29973W        W93532  43.971  39.830   0.860
29974W        W93533  32.041  12.199   4.116
29975W        W93534   7.884  33.111  14.991
29976W        W93535  20.032  40.453  12.941
29977W        W93536  27.942  25.517   3.313
29978W        W93537  22.620   8.367  10.920
29979W        W93538   9.699  17.208   3.677
29980W        W93539   6.879  12.728  14.948
29981W        W93540  42.909  23.085  11.995
29982W        W93541  35.018  19.664  10.038
29983W        W93542  37.874  31.498  14.960
29984W        W93543  43.830  20.161  11.899
29985W        W93544   0.921  37.935  10.555
29986W        W93545  38.986  33.475   2.400
29987W        W93546  10.729  25.523  14.980
29988W        W93547  40.983  39.399  12.005
29989W        W93548  28.936  40.009   0.423
29990W        W93549   4.892  28.636   0.376
29991W        W93550   0.456   6.882   1.330
29992W        W93551  16.690  21.737   4.783
29993W        W93552  13.265  36.554  11.496
29994W        W93553  27.653  20.096   0.851
29995W        W93554  38.474   0.261  12.369
29996W        W93555  26.989  25.706  13.931
29997W        W93556  36.910   7.676  11.587
29998W        W93557  35.021  29.583  11.989
29999W        W93558  34.928  42.837  12.925
30000W        W93559   2.352  20.739   3.867
30001W        W93560  15.686  10.235   0.845
30002W        W93561  38.912   8.809   4.833
30003W        W93562  14.765   6.828  14.862
30004W        W93563  31.633  18.584  10.949
30005W        W93564  22.534  44.460  10.423
30006W        W93565   8.724   6.276   3.360
30007W        W93566   6.736   3.905  10.910
30008W        W93567   5.283  10.815  12.838
30009W        W93568  28.536  27.667   0.273
30010W        W93569  29.641  13.128   1.717
30011W        W93570  36.527   0.469  10.573
30012W        W93571  40.813  17.757  12.421
30013W        W93572  34.935   2.736   2.397
30014W        W93573   0.405  34.863  14.908
30015W        W93574  24.715  34.028  11.537
30016W        W93575  10.282  28.157  14.981
30017W        W93576  21.207  21.727  11.067
30018W        W93577   3.270   1.463  14.353
30019W        W93578   7.297  13.614  11.049
30020W        W93579  38.340  27.573  11.460
30021W        W93580  17.782  29.655  14.431
30022W        W93581  23.045  31.544   2.865
30023W        W93582   9.818   1.463   1.343
30024W        W93583  31.489   7.665  12.355
30025W        W93584  43.802   0.844   2.739
30026W        W93585  37.472   3.939   2.713
30027W        W93586  33.537  27.666  10.071
30028W        W93587  42.306   4.912   1.886
30029W        W93588  22.164  11.857  14.954
30030W        W93589  24.013  31.897  14.352
30031W        W93590  40.483  17.286   5.109
30032W        W93591  31.986  33.984   1.398
30033W        W93592  21.675   7.848  14.291
30034W        W93593   2.254  22.091   0.354
30035W        W93594  16.094   4.783  13.838
30036W        W93595   6.197  33.502  10.628
30037W        W93596  39.520  34.977   2.698
30038W        W93597  32.975  27.668  13.015
30039W        W93598  14.326  44.879  13.998
30040W        W93599  30.077   4.706  10.998
30041W        W93600  15.719  29.515   2.280
30042W        W93601   8.667  12.131   0.279
30043W        W93602  35.401   1.786   4.174
30044W        W93603  37.446  12.222  11.861
30045W        W93604  13.651  10.783  13.324
30046W        W93605  14.291  10.706  14.885
30047W        W93606  31.514  30.132  10.899
30048W        W93607  44.953  28.632   3.809
30049W        W93608  22.135  20.528   4.198
30050W        W93609   6.254  16.244   2.342
30051W        W93610  32.531  20.553   0.734
30052W        W93611  16.733  22.510  14.770
30053W        W93612  38.484  33.013   1.758
30054W        W93613  25.702   2.821   4.145
30055W        W93614  26.606  24.496   1.234
30056W        W93615  14.744   0.782  14.472
30057W        W93616  38.408   8.705  12.916
30058W        W93617  21.590  27.647  11.548
30059W        W93618  34.460  41.457   1.366
30060W        W93619   9.825  15.106  14.759
30061W        W93620   2.254  19.560  11.960
30062W        W93621   6.814  40.995   2.850
30063W        W93622  17.642  12.181   3.863
30064W        W93623  33.566  37.538  10.161
30065W        W93624  21.112  10.255  14.881
30066W        W93625  38.947  10.789  11.907
30067W        W93626  13.195  37.356  14.769
30068W        W93627   2.399  30.026  11.570
30069W        W93628   1.409  11.136   1.833
30070W        W93629  12.622  10.811  13.988
30071W        W93630  29.951  43.956   2.392
30072W        W93631  23.212  10.866   0.914
30073W        W93632  15.743   1.243   4.670
30074W        W93633  36.878   2.922  13.801
30075W        W93634  42.827   8.193   1.851
30076W        W93635  10.655   4.704  10.017
30077W        W93636  24.525  21.757   1.803
30078W        W93637  13.200  28.564  10.903
30079W        W93638  16.578   4.376  14.378
30080W        W93639  22.141  23.543   2.306
30081W        W93640  18.733   6.870  11.878
30082W        W93641  43.397  16.755  12.045
30083W        W93642  34.099   2.373   2.854
30084W        W93643  24.040  39.007  13.312
30085W        W93644  30.163  31.113  11.875
30086W        W93645  29.080  28.037   2.737
30087W        W93646   9.242  39.405   4.793
30088W        W93647   0.423  16.318  14.009
30089W        W93648  35.970  43.895   3.836
30090W        W93649   3.355  10.785   1.342
30091W        W93650  10.298  40.850  11.930
30092W        W93651  33.105  37.536   1.844
30093W        W93652  14.769   8.672   2.302
30094W        W93653   9.685   8.253  14.796
30095W        W93654  16.284  22.205  12.339
30096W        W93655  40.037  31.563  12.390
30097W        W93656  29.525  31.120   1.816
30098W        W93657   9.813  19.127   2.242
30099W        W93658  44.965  42.902   2.761
30100W        W93659   0.789  38.942  14.959
30101W        W93660   7.910   8.239  13.503
30102W        W93661  19.139  38.551  12.876
30103W        W93662  29.518  22.237  10.510
30104W        W93663  26.579  10.218   5.709
30105W        W93664  24.641  12.846   5.596
30106W        W93665   7.288  39.511   2.417
30107W        W93666  18.628  43.394  11.372
30108W        W93667  30.621  14.211  13.909
30109W        W93668  19.683  26.522  13.512
30110W        W93669  38.485  25.096  11.519
30111W        W93670   7.354  18.621  14.791
30112W        W93671   4.339  15.688  12.438
30113W        W93672  10.153  26.690  13.836
30114W        W93673   1.843  44.351   3.177
30115W        W93674  42.408  32.956   2.746
30116W        W93675   5.751  11.850  14.431
30117W        W93676   9.870   4.234   0.393
30118W        W93677   4.735  44.291   5.090
30119W        W93678  13.228  41.868  12.986
30120W        W93679  32.030  19.583  12.025
30121W        W93680  34.449  18.689   2.355
30122W        W93681  27.068  17.685   2.367
30123W        W93682  16.282  14.816   4.252
30124W        W93683   9.370  31.535  14.343
30125W        W93684  20.755  40.420   4.641
30126W        W93685   8.224   2.275  12.507
30127W        W93686   8.848  18.689  14.852
30128W        W93687   2.869  22.528   4.307
30129W        W93688  43.427   3.310   2.267
30130W        W93689  24.974  27.960   5.124
30131W        W93690  26.537  21.224  14.987
30132W        W93691   4.702   8.209   1.871
30133W        W93692  37.897  11.319  13.422
30134W        W93693  14.705  32.908   3.207
30135W        W93694  11.632  10.824  13.019
30136W        W93695  27.472   1.919  12.973
30137W        W93696   1.938   9.157   3.843
30138W        W93697  12.691   7.700   1.418
30139W        W93698  20.666  35.568  12.054
30140W        W93699  33.875  19.054  13.307
30141W        W93700  12.174  31.581  11.112
30142W        W93701   4.419   4.356   0.750
30143W        W93702  33.415   7.700  10.925
30144W        W93703  11.142   7.309  13.983
30145W        W93704   6.856   1.455   2.826
30146W        W93705  31.122  33.445  14.894
30147W        W93706  41.297  34.928  11.055
30148W        W93707   4.397  23.165   1.409
30149W        W93708  27.572  17.138  11.389
30150W        W93709  29.648  39.020   2.847
30151W        W93710  34.566  41.462   2.723
30152W        W93711   8.868  13.727  14.909
30153W        W93712  19.681  20.568  13.056
30154W        W93713   8.181  29.515  14.441
30155W        W93714  17.779  43.836  12.377
30156W        W93715  13.290  12.828   0.268
30157W        W93716  38.899  14.332   1.415
30158W        W93717  16.797  14.707   2.870
30159W        W93718   3.949  41.019  12.918
30160W        W93719  30.042  19.588   0.848
30161W        W93720  19.276  43.002  12.952
30162W        W93721  15.099  27.605   4.203
30163W        W93722   2.773  33.081  10.441
30164W        W93723  18.650  11.865   1.279
30165W        W93724  35.855  44.289  10.481
30166W        W93725   9.821   0.959   0.411
30167W        W93726  40.340  32.590   2.225
30168W        W93727  43.295  41.302  11.012
30169W        W93728   8.803  40.358   5.189
30170W        W93729  36.364  18.709  14.458
30171W        W93730  44.934  34.880  14.796
30172W        W93731  30.121  44.770   2.828
30173W        W93732  41.819  11.684  12.943
30174W        W93733  32.511  20.130   1.418
30175W        W93734   3.772  28.957   1.839
30176W        W93735  35.070  10.664   5.223
30177W        W93736  14.835  30.434  10.516
30178W        W93737  20.758   1.772  14.327
30179W        W93738  13.716  22.112   3.295
30180W        W93739  35.534   1.237  13.796
30181W        W93740  31.577  30.464  11.401
30182W        W93741  22.160  23.226   0.400
30183W        W93742  17.801   7.807   3.787
30184W        W93743  33.474  41.875  12.917
30185W        W93744  35.452   7.714   4.196
30186W        W93745  31.126  39.853  14.369
30187W        W93746  17.661   0.480   0.940
30188W        W93747  18.238  37.853  12.373
30189W        W93748  29.157  15.149   3.237
30190W        W93749  23.056   2.401   0.942
30191W        W93750  40.489  23.189  13.025
30192W        W93751   6.749  40.473   4.292
30193W        W93752   8.723   8.342   4.637
30194W        W93753  32.518   4.295   4.117
30195W        W93754  38.997  39.468   4.611
30196W        W93755  20.067  32.139  14.970
30197W        W93756  40.337   9.168   3.653
30198W        W93757   4.767  10.679  11.905
30199W        W93758  31.123   1.305   2.795
30200W        W93759  27.069  25.106   0.257
30201W        W93760   9.659  25.705  13.353
30202W        W93761  29.998  20.568   2.772
30203W        W93762   8.728  41.298  11.024
30204W        W93763   1.901  11.177   4.781
30205W        W93764   6.847  25.683  11.444
30206W        W93765  28.654   3.854   4.816
30207W        W93766   9.643  29.478  13.921
30208W        W93767  17.073  23.201   2.870
30209W        W93768   8.757  33.014  11.875
30210W        W93769   4.291  38.488  12.833
30211W        W93770  29.633  33.514   0.810
30212W        W93771  28.494   0.366  14.762
30213W        W93772   9.873  24.668  13.886
30214W        W93773  19.763   4.264   4.723
30215W        W93774  19.748  10.150  13.422
30216W        W93775   0.413  35.511   4.724
30217W        W93776  15.290  24.213   0.910
30218W        W93777  16.624  12.206   0.255
30219W        W93778  29.933  17.252  11.549
30220W        W93779  26.987  26.095  10.508
30221W        W93780  11.850   8.694  10.494
30222W        W93781  28.051  17.598   3.806
30223W        W93782   0.952   1.379   3.662
30224W        W93783  12.668  43.873  13.865
30225W        W93784  23.046  19.225   4.686
30226W        W93785  44.864  42.844   4.698
30227W        W93786  25.018   0.375   2.195
30228W        W93787   3.890  34.891   0.818
30229W        W93788  21.124  41.398   1.899
30230W        W93789   3.761   0.978   3.751
30231W        W93790  27.492   9.312   1.369
30232W        W93791  16.801   3.905   0.740
30233W        W93792  36.564  39.857  11.011
30234W        W93793  13.675  35.386   1.385
30235W        W93794  10.209   4.724  10.540
30236W        W93795  39.423  32.455  10.893
30237W        W93796  44.465  19.610  11.123
30238W        W93797  18.234  40.054  13.419
30239W        W93798  44.778   3.797  12.947
30240W        W93799  19.697  26.987  13.417
30241W        W93800   1.903   4.880   4.128
30242W        W93801  27.601  34.602  13.379
30243W        W93802  24.004  37.474  14.384
30244W        W93803  14.200  38.916   0.847
30245W        W93804  15.659   8.668  12.875
30246W        W93805   5.814  29.148   4.327
30247W        W93806  23.066  28.472   2.323
30248W        W93807   0.402  30.655  12.847
30249W        W93808  23.669  18.588  13.399
30250W        W93809  22.660  15.672   5.234
30251W        W93810  31.016  27.107   4.689
30252W        W93811  41.360  24.115  12.433
30253W        W93812  27.174  44.368   4.308
30254W        W93813  16.170  10.308   0.364
30255W        W93814  36.925  27.553   2.317
30256W        W93815  34.388  10.839  13.478
30257W        W93816  44.880  19.136   2.377
30258W        W93817  37.950  34.874  12.392
30259W        W93818  20.595  32.569   3.346
30260W        W93819   8.692  17.622  11.002
30261W        W93820  32.509  25.550  10.552
30262W        W93821   1.456  27.474   4.609
30263W        W93822  39.916  39.963   3.737
30264W        W93823  18.779  44.794  13.006
30265W        W93824  37.847   0.964   4.188
30266W        W93825  34.059  36.042   0.431
30267W        W93826  37.082  36.352  11.052
30268W        W93827  14.120  33.922   3.796
30269W        W93828  13.621   9.352   5.708
30270W        W93829  23.217   7.877  14.910
30271W        W93830  40.830  37.922   3.748
30272W        W93831  37.078  39.813   1.393
30273W        W93832  44.375   7.860   0.949
30274W        W93833   9.163   0.378   0.371
30275W        W93834  20.623   5.891   3.292
30276W        W93835  20.527  32.974   4.808
30277W        W93836  29.923   6.185   0.285
30278W        W93837  17.681   2.300   3.262
30279W        W93838  28.108  28.174  11.435
30280W        W93839   7.416  23.518   2.317
30281W        W93840  41.899   0.812  12.842
30282W        W93841  40.013  36.556   3.708
30283W        W93842  31.910  21.035  10.123
30284W        W93843   7.887  25.995   3.748
30285W        W93844  43.924   4.813  12.847
30286W        W93845   8.672   2.370   4.349
30287W        W93846   8.829   3.305   0.966
30288W        W93847  24.039  29.617   5.278
30289W        W93848  14.157  43.496   0.370
30290W        W93849   6.378  30.587   2.722
30291W        W93850  39.063  31.613  14.842
30292W        W93851  27.948  26.515  13.978
30293W        W93852  43.333   2.428  11.494
30294W        W93853  33.986  41.795  11.490
30295W        W93854  15.781  22.512   2.753
30296W        W93855  16.072  40.019  10.560
30297W        W93856  19.775  16.145   4.721
30298W        W93857  14.258  24.559  13.457
30299W        W93858   7.382  32.424  10.934
30300W        W93859  44.458  16.252  12.580
30301W        W93860  20.656   5.873   1.929
30302W        W93861  11.729  27.175   2.796
30303W        W93862   4.309  23.511  10.612
30304W        W93863   8.775  41.997   1.225
30305W        W93864   8.175  40.311   2.386
30306W        W93865  39.355  33.033  12.414
30307W        W93866  34.464  20.090  11.570
30308W        W93867  34.570  40.806  14.287
30309W        W93868   5.237   5.873  14.482
30310W        W93869   0.356   0.421   4.732
30311W        W93870  24.205  37.842   1.794
30312W        W93871   1.911  40.841   1.768
30313W        W93872  18.676  31.612  13.436
30314W        W93873  22.009  31.975  11.419
30315W        W93874  16.661   1.348   3.382
30316W        W93875  23.156  29.045   4.259
30317W        W93876   9.193  22.717  11.035
30318W        W93877  13.661  25.569  11.996
30319W        W93878   1.447  38.961   1.904
30320W        W93879  43.278  23.172   2.181
30321W        W93880  22.025  42.974   1.778
30322W        W93881  20.196  15.193  13.399
30323W        W93882  36.356  16.137   4.688
30324W        W93883  37.511   1.346  14.774
30325W        W93884  43.376  20.252   1.436
30326W        W93885  31.452  43.993   3.225
30327W        W93886  23.687  17.223   3.187
30328W        W93887  18.283  34.955  10.907
30329W        W93888  23.179  27.492   5.575
30330W        W93889  13.232  29.992  14.314
30331W        W93890  19.739  33.896   0.371
30332W        W93891  23.600  16.806  13.891
30333W        W93892  18.586  10.807  12.941
30334W        W93893  32.424  35.027   0.811
30335W        W93894  23.647  26.103   1.711
30336W        W93895  38.465   7.838  14.886
30337W        W93896  35.475  30.961   3.331
30338W        W93897   7.197  14.772   9.655
30339W        W93898   6.893  15.103   2.852
30340W        W93899  38.954  12.795  11.501
30341W        W93900  23.037  17.123   2.815
30342W        W93901   4.829   0.922  14.467
30343W        W93902  39.370  24.107  10.407
30344W        W93903  25.152  18.719   0.928
30345W        W93904  25.516  32.940  12.874
30346W        W93905  13.780  12.744  14.772
30347W        W93906  13.807  40.464  10.638
30348W        W93907  32.085   9.799  11.416
30349W        W93908  23.162  37.978   1.380
30350W        W93909  28.593  41.482  10.486
30351W        W93910  13.610  42.931   0.249
30352W        W93911  27.001   4.437   0.779
30353W        W93912  12.636  13.664  12.837
30354W        W93913  21.099  15.805   2.322
30355W        W93914  26.095  26.022   4.651
30356W        W93915  36.936  10.193  10.055
30357W        W93916  29.546  42.989   3.257
30358W        W93917  28.535  10.662  12.475
30359W        W93918  10.706  41.312   0.427
30360W        W93919  27.486  32.575  10.537
30361W        W93920  11.652  24.623  13.817
30362W        W93921  36.351  23.079  14.787
30363W        W93922  17.140   4.837  12.359
30364W        W93923   0.261  44.872   2.860
30365W        W93924  31.968  19.222   1.273
30366W        W93925  43.276  27.158  13.501
30367W        W93926  35.498  33.598   9.444
30368W        W93927  21.697  33.970   2.270
30369W        W93928  32.565  27.947   4.244
30370W        W93929  15.317  29.988   1.859
30371W        W93930  39.919   5.279   4.170
30372W        W93931  16.753  35.439   2.901
30373W        W93932  18.621  12.319  12.478
30374W        W93933  27.478   2.296  12.853
30375W        W93934  23.660  43.851   4.710
30376W        W93935  15.781  32.530  11.558
30377W        W93936   6.329  15.808   0.730
30378W        W93937   6.767  45.000   3.731
30379W        W93938  18.704   9.231  12.847
30380W        W93939  19.663   3.911  14.338
30381W        W93940  19.620  18.240  11.045
30382W        W93941  39.819  13.224   3.320
30383W        W93942  33.384  14.628   4.221
30384W        W93943  37.486  40.816  14.311
30385W        W93944  38.544   4.848  14.316
30386W        W93945   2.807  13.796   2.389
30387W        W93946  16.638  13.216   0.326
30388W        W93947  31.148  42.971   1.857
30389W        W93948  40.397  37.931  12.874
30390W        W93949  16.723  23.178   5.160
30391W        W93950  38.401  26.063   3.334
30392W        W93951   3.344  12.762  10.977
30393W        W93952   4.243  36.055   2.711
30394W        W93953   9.308   6.328   2.380
30395W        W93954  40.808  28.982  14.293
30396W        W93955  16.294  27.678  11.960
30397W        W93956   5.695  12.749   3.667
30398W        W93957  21.037   2.249   1.734
30399W        W93958  14.714   5.348   1.764
30400W        W93959  15.328  30.520   1.367
30401W        W93960  16.698   1.948   0.354
30402W        W93961  13.810  37.360   4.730
30403W        W93962   7.839  13.704   2.388
30404W        W93963  34.884  40.038  14.866
30405W        W93964  37.338  37.360  11.507
30406W        W93965  17.575  39.416  13.491
30407W        W93966  44.261  31.035   3.688
30408W        W93967  42.005  35.910   3.248
30409W        W93968  40.306   4.915  12.350
30410W        W93969  13.783   8.793   0.807
30411W        W93970  23.524  23.612  12.409
30412W        W93971  21.038  35.545   3.685
30413W        W93972  30.162  28.107   2.310
30414W        W93973  33.551   8.732  13.049
30415W        W93974  33.093  28.960   2.838
30416W        W93975  35.013   2.931   4.683
30417W        W93976  15.304  38.893   3.684
30418W        W93977   1.965   1.375  13.972
30419W        W93978  12.668   4.442  12.517
30420W        W93979   4.291  16.698   0.750
30421W        W93980  33.914  29.492   3.676
30422W        W93981  39.871  43.794   2.269
30423W        W93982  29.435  37.885  13.329
30424W        W93983  33.481  24.600  14.327
30425W        W93984  40.480  33.058   0.370
30426W        W93985  28.611  22.019   3.665
30427W        W93986  34.542  34.372  12.423
30428W        W93987  22.624  37.339  12.087
30429W        W93988  13.806  23.146   0.458
30430W        W93989  21.733  40.513  10.570
30431W        W93990  40.313  43.973  14.390
30432W        W93991   4.768  40.326  11.020
30433W        W93992  13.792  29.937   0.944
30434W        W93993  10.243  21.152   0.253
30435W        W93994  26.479   0.493   4.229
30436W        W93995  17.068  19.583  14.483
30437W        W93996  23.034  34.458   4.321
30438W        W93997   4.292  12.320  12.924
30439W        W93998  17.212  31.067   2.780
30440W        W93999   4.249  30.155   4.310
30441W        W94000  28.021  40.798  12.864
30442W        W94001  25.499  36.986   0.803
30443W        W94002  17.610  42.465  12.977
30444W        W94003  35.384  33.887   0.918
30445W        W94004  29.149  40.954   3.818
30446W        W94005  39.012   8.882   1.730
30447W        W94006  33.422  30.027   0.297
30448W        W94007  44.872  32.113   2.759
30449W        W94008   6.828  19.715   1.765
30450W        W94009  37.471  42.459  13.987
30451W        W94010  31.953   7.716  10.990
30452W        W94011  31.003  30.626   9.933
30453W        W94012   4.289  24.224  12.558
30454W        W94013  26.968  20.128   2.273
30455W        W94014  27.005  44.322  13.980
30456W        W94015  43.955  15.773  12.916
30457W        W94016  23.714  28.520  11.936
30458W        W94017   1.757  15.628  11.896
30459W        W94018  11.290   7.822   4.606
30460W        W94019  23.580   8.674   4.613
30461W        W94020  26.171  34.539   4.635
30462W        W94021  43.388   8.177  13.456
30463W        W94022   4.306   2.810   1.905
30464W        W94023   5.304   8.376   2.788
30465W        W94024   6.794   8.686  13.899
30466W        W94025  35.418  33.937   4.663
30467W        W94026  26.686  16.697  13.334
30468W        W94027   5.868  39.527   3.238
30469W        W94028  20.272  44.307  13.440
30470W        W94029  38.970  25.007  11.538
30471W        W94030  38.015  24.558   1.403
30472W        W94031  32.971  15.615   3.296
30473W        W94032   2.854  19.234  11.949
30474W        W94033  43.292  33.112   1.844
30475W        W94034  33.416  39.005  14.937
30476W        W94035  23.025  42.915   1.878
30477W        W94036   9.203   5.378   2.729
30478W        W94037  41.337   2.465   1.854
30479W        W94038  29.142  23.508  11.531
30480W        W94039  20.753  36.082  13.963
30481W        W94040   3.863  37.357  14.386
30482W        W94041  36.372   4.243   2.325
30483W        W94042  10.259  42.826   3.265
30484W        W94043   9.243   6.252  11.043
30485W        W94044   4.433  43.501   1.825
30486W        W94045  43.283   8.846  11.966
30487W        W94046   7.200  34.544   2.381
30488W        W94047  42.883   3.830   0.420
30489W        W94048  12.787   2.885  13.828
30490W        W94049  32.975   3.720  12.519
30491W        W94050  23.065  39.037   3.651
30492W        W94051  24.008  35.967   3.187
30493W        W94052  17.591  30.452  10.625
30494W        W94053   9.314  41.486   3.238
30495W        W94054  30.657   1.835   1.306
30496W        W94055   7.357  10.216  14.317
30497W        W94056   4.757  16.691   0.892
30498W        W94057  40.489   7.362  13.013
30499W        W94058  31.502  24.053   0.447
30500W        W94059  40.817  23.000  13.374
30501W        W94060  14.589   2.846  11.414
30502W        W94061  14.707  34.473   3.788
30503W        W94062  31.484  11.257   0.320
30504W        W94063  27.486   8.229  10.926
30505W        W94064  40.945  21.527   0.737
30506W        W94065   0.492  13.699  13.803
30507W        W94066  35.580  31.101   1.216
30508W        W94067   8.372  19.094  14.881
30509W        W94068  19.205   2.793   1.214
30510W        W94069  39.392  29.480   0.789
30511W        W94070  25.215   2.791  14.911
30512W        W94071  41.032  32.608   9.978
30513W        W94072   7.260  20.181   0.267
30514W        W94073  32.945  38.978  11.404
30515W        W94074   7.894  19.283   1.926
30516W        W94075  27.609   0.767  10.564
30517W        W94076  37.934  17.671  10.412
30518W        W94077   4.846  10.702   0.835
30519W        W94078  32.957   9.190   3.272
30520W        W94079  33.543  43.484  12.403
30521W        W94080  41.469  32.536  13.540
30522W        W94081  36.432  37.440  14.513
30523W        W94082  29.582   9.729  13.427
30524W        W94083   2.867  40.466   4.355
30525W        W94084  26.562  44.887  12.957
30526W        W94085   1.365  20.630   4.335
30527W        W94086  31.555  39.053  13.501
30528W        W94087  40.511  25.663  14.486
30529W        W94088  18.697  43.377  12.826
30530W        W94089   9.356   3.797  13.428
30531W        W94090  41.891  39.027   1.259
30532W        W94091   8.856   5.778  10.529
30533W        W94092  37.374  15.636   4.317
30534W        W94093  40.051  33.542   0.846
30535W        W94094   8.356  35.863   3.172
30536W        W94095  26.098  41.995  12.484
30537W        W94096  43.797   7.264   3.199
30538W        W94097   8.801  26.651   4.735
30539W        W94098  16.197  32.894   0.416
30540W        W94099  35.468  39.388   1.405
30541W        W94100  23.609  23.084  13.804
30542W        W94101  17.783  23.550  10.410
30543W        W94102  25.560   6.884   1.397
30544W        W94103   7.754  12.826   2.277
30545W        W94104   1.970  44.834   1.371
30546W        W94105  36.543  39.950   2.415
30547W        W94106   1.931   0.409  14.429
30548W        W94107  19.053   1.916  11.972
30549W        W94108  42.436  33.027   3.658
30550W        W94109  11.159  32.018   4.246
30551W        W94110  28.074  27.113   4.826
30552W        W94111  21.700   5.706   2.365
30553W        W94112   4.785  19.102   0.811
30554W        W94113   3.852   8.701  12.880
30555W        W94114   2.331  31.559  13.413
30556W        W94115  38.819  17.241   0.441
30557W        W94116  28.935  20.232   0.404
30558W        W94117  40.814   0.914   4.808
30559W        W94118   5.295  20.031   3.654
30560W        W94119   1.764   0.263  11.941
30561W        W94120  41.981  10.840  12.399
30562W        W94121  25.509  11.715   3.678
30563W        W94122  21.737  14.202  12.045
30564W        W94123  11.860  24.501   3.791
30565W        W94124  39.927   2.846   2.767
30566W        W94125  16.688  10.260  12.941
30567W        W94126   6.196  19.778   5.310
30568W        W94127   5.224  20.563  12.061
30569W        W94128   9.859  32.001   3.157
30570W        W94129  22.611  34.978   3.214
30571W        W94130  22.588  41.415  14.932
30572W        W94131  33.001  13.203   0.949
30573W        W94132  34.870  36.567  11.413
30574W        W94133  36.548  23.562   0.345
30575W        W94134   5.687  18.238   1.755
30576W        W94135  23.708   6.823   1.221
30577W        W94136  15.201  44.368  11.903
30578W        W94137  25.488  31.126  14.451
30579W        W94138  10.296  22.669   2.756
30580W        W94139  15.195  25.550   0.966
30581W        W94140  16.177   3.776   3.242
30582W        W94141   6.419  15.102   3.840
30583W        W94142   7.851  10.263   2.673
30584W        W94143  28.969   6.704   0.772
30585W        W94144  15.098  31.031  10.971
30586W        W94145  14.282  19.081  13.312
30587W        W94146   1.736  20.098   2.277
30588W        W94147  24.171  43.376  10.566
30589W        W94148   0.871  28.641   4.783
30590W        W94149  23.540   8.356   0.352
30591W        W94150  39.899   1.799  12.453
30592W        W94151  13.172  17.619  13.062
30593W        W94152   2.894  14.285  12.027
30594W        W94153  17.291  10.780   3.340
30595W        W94154  29.459  24.723   0.387
30596W        W94155  42.337  11.812  12.031
30597W        W94156  23.579  28.572   3.863
30598W        W94157  31.505  33.420   2.406
30599W        W94158  24.168  22.668  11.872
30600W        W94159   2.770  17.565  14.474
30601W        W94160  32.129  25.661  13.325
30602W        W94161  24.064  18.760   0.852
30603W        W94162  43.004   6.788   2.338
30604W        W94163   2.236   6.201   2.343
30605W        W94164  29.921  10.215  10.896
30606W        W94165  12.176   5.836  10.980
30607W        W94166  40.335   9.378   1.362
30608W        W94167  22.551  17.626  13.025
30609W        W94168  42.370  26.173  13.386
30610W        W94169  13.179  28.941  12.482
30611W        W94170  21.701  42.504   4.804
30612W        W94171  23.055  34.554   3.307
30613W        W94172   3.315  32.422   5.202
30614W        W94173   5.267  31.115   2.316
30615W        W94174   3.789   0.910   4.312
30616W        W94175  39.948  18.608   0.800
30617W        W94176  34.908  37.410   9.960
30618W        W94177  31.971  28.994  13.988
30619W        W94178   5.327  42.887   0.453
30620W        W94179   3.873  23.004  13.028
30621W        W94180  32.523   3.321   0.730
30622W        W94181  37.911  13.275  11.019
30623W        W94182  11.663  29.458   2.894
30624W        W94183  34.957  31.607   3.721
30625W        W94184  23.188  41.990  12.504
30626W        W94185  40.846  15.325  14.002
30627W        W94186  27.946  31.552   0.772
30628W        W94187  26.637  19.734   9.988
30629W        W94188  15.244  43.435  14.461
30630W        W94189  18.660  36.015   4.309
30631W        W94190  17.634  10.662  14.310
30632W        W94191  22.057   3.843  12.086
30633W        W94192  18.756  22.041   2.286
30634W        W94193  22.663  29.668   3.238
30635W        W94194  22.175  38.072  12.884
30636W        W94195  40.873  21.242   1.930
30637W        W94196   5.400   7.207   1.827
30638W        W94197  24.589  19.078   4.300
30639W        W94198  12.302  23.552  11.426
30640W        W94199   6.718   2.959   0.295
30641W        W94200  35.500  40.893  12.053
30642W        W94201  27.174  39.337  14.491
30643W        W94202  32.077  19.175   3.748
30644W        W94203  34.479  31.540   4.612
30645W        W94204  22.012  30.491  13.398
30646W        W94205  43.965  31.996  13.867
30647W        W94206  29.493  34.422   0.816
30648W        W94207  21.554   7.844  11.492
30649W        W94208  21.708  10.787  14.912
30650W        W94209  43.771   2.418   2.222
30651W        W94210  32.137  24.018  12.514
30652W        W94211  32.475  33.886  10.627
30653W        W94212  38.463  10.193  13.037
30654W        W94213  42.887  39.980  13.481
30655W        W94214  21.533  27.158  13.526
30656W        W94215  26.010  35.927   3.685
30657W        W94216  16.680  30.078   4.160
30658W        W94217  13.181  27.968   1.322
30659W        W94218  20.578   3.385   0.748
30660W        W94219  34.554   6.235  11.594
30661W        W94220  14.744   4.911  13.389
30662W        W94221  40.504  33.564   5.113
30663W        W94222  23.679  33.541   2.314
30664W        W94223  22.550  26.703   0.472
30665W        W94224  10.297  40.961   3.845
30666W        W94225  29.652  29.479  11.458
30667W        W94226  23.700  33.914   1.262
30668W        W94227  13.681  37.375   2.320
30669W        W94228   7.753  44.415  12.511
30670W        W94229  10.655  17.214  13.545
30671W        W94230  17.101  32.501   1.317
30672W        W94231  26.581  30.133  11.981
30673W        W94232  39.980  14.790  11.083
30674W        W94233  39.412  31.146   0.310
30675W        W94234  43.315  42.415  12.401
30676W        W94235  42.399  38.962  13.412
30677W        W94236  27.167   4.915   3.789
30678W        W94237   3.950  19.667  13.484
30679W        W94238   4.266   5.874   0.870
30680W        W94239  24.672  37.343   4.150
30681W        W94240  26.167  26.045  12.559
30682W        W94241  23.172  19.750   4.215
30683W        W94242  28.124   0.446   2.767
30684W        W94243   3.331  29.462   5.158
30685W        W94244  21.171   6.304  14.955
30686W        W94245  36.418  20.031   1.809
30687W        W94246  21.195  41.993  11.932
30688W        W94247  42.483  33.413   1.240
30689W        W94248  14.763   8.358  11.529
30690W        W94249  24.045  26.651  12.079
30691W        W94250  42.889  30.066  12.974
30692W        W94251  17.294  11.740   0.251
30693W        W94252  41.969  28.165   0.788
30694W        W94253  16.644  16.593   0.417
30695W        W94254  10.766  24.678  13.409
30696W        W94255  37.570  14.775   2.361
30697W        W94256  44.902  11.152   4.168
30698W        W94257  40.508  31.480   1.810
30699W        W94258  12.785  36.487   2.219
30700W        W94259  15.119  20.714   1.896
30701W        W94260  26.660  37.013  14.930
30702W        W94261   3.310   5.370   2.214
30703W        W94262  11.256  34.532   3.168
30704W        W94263  17.195   7.773  11.605
30705W        W94264  34.537  22.578  10.629
30706W        W94265  22.205  24.062  11.010
30707W        W94266  43.020  12.727  11.038
30708W        W94267   5.816  39.994   1.324
30709W        W94268   9.281  44.382   0.917
30710W        W94269  35.460   1.783   1.753
30711W        W94270  41.960  37.987  10.580
30712W        W94271  18.785  37.349  10.561
30713W        W94272  29.076  16.192  12.843
30714W        W94273   5.199  33.483  12.933
30715W        W94274   6.904  24.194   2.703
30716W        W94275  19.087  28.446   3.830
30717W        W94276   1.337   9.303  11.126
30718W        W94277   0.459  17.581   2.692
30719W        W94278  18.689  15.197  12.409
30720W        W94279  25.633   5.911   2.366
30721W        W94280  44.422  32.548  11.975
30722W        W94281  32.130   1.739   4.745
30723W        W94282   6.804  23.028  13.814
30724W        W94283   2.428   9.162   0.246
30725W        W94284  11.730  24.503   3.161
30726W        W94285  24.141   4.868  12.858
30727W        W94286  25.656  12.744  14.938
30728W        W94287  36.577   7.756   4.259
30729W        W94288  43.431   3.855   1.805
30730W        W94289  24.499  37.424  12.827
30731W        W94290  31.565  34.058   3.729
30732W        W94291  33.424  20.642   0.412
30733W        W94292  12.167  39.940  12.003
30734W        W94293  23.101  38.359   0.755
30735W        W94294  43.855   2.368  11.959
30736W        W94295   2.911  34.041   4.145
30737W        W94296  37.428  26.137   2.318
30738W        W94297  36.870  36.572  13.921
30739W        W94298  37.366  20.640  10.580
30740W        W94299   3.922   3.424   2.718
30741W        W94300  24.165  25.529  14.353
30742W        W94301  20.737  23.518  14.881
30743W        W94302   4.359  34.389   0.828
30744W        W94303  30.909  44.500   3.838
30745W        W94304  30.998   9.679   0.891
30746W        W94305  40.540  22.252  14.004
30747W        W94306  33.487  44.344  12.455
30748W        W94307  28.981  22.155  12.894
30749W        W94308  25.212   9.178   4.147
30750W        W94309  17.664   6.415  13.534
30751W        W94310  33.443  39.028  10.456
30752W        W94311   9.658  35.050   0.766
30753W        W94312  41.452   2.755   2.190
30754W        W94313  32.584  32.023  10.429
30755W        W94314  24.049  18.198   2.888
30756W        W94315  15.316  11.233   4.281
30757W        W94316  40.984  34.047   9.468
30758W        W94317  25.545   1.807  14.386
30759W        W94318  37.547  21.172   4.333
30760W        W94319  35.984  37.880  10.456
30761W        W94320   7.794   2.748  11.012
30762W        W94321   9.190  31.898  11.121
30763W        W94322  28.086   8.250  14.888
30764W        W94323   0.775  38.364  13.474
30765W        W94324   2.890  23.024  10.561
30766W        W94325  42.985  27.032  12.991
30767W        W94326  31.019   1.294   1.774
30768W        W94327  25.566  14.703   1.897
30769W        W94328  19.697  26.510   2.258
30770W        W94329  28.461  26.105   3.699
30771W        W94330   6.246   0.336  13.341
30772W        W94331  35.570  23.229  10.427
30773W        W94332   6.713  32.503   1.365
30774W        W94333  44.935   0.477   1.259
30775W        W94334  27.992  32.009  13.836
30776W        W94335  18.290   1.770   3.239
30777W        W94336  30.159   8.348   4.687
30778W        W94337  32.034  22.077   1.236
30779W        W94338  41.442  33.404   0.825
30780W        W94339  12.786  34.602  14.805
30781W        W94340  38.979   5.216   3.867
30782W        W94341  30.937  19.570  10.905
30783W        W94342  30.559  19.714   3.307
30784W        W94343  33.129   6.299  12.453
30785W        W94344  11.132  43.922   1.341
30786W        W94345   1.317  20.040  11.098
30787W        W94346  14.221  38.371   4.208
30788W        W94347  44.347  29.588   2.707
30789W        W94348   4.415  31.902   3.720
30790W        W94349   4.839  26.065   2.734
30791W        W94350  14.104  33.403  13.425
30792W        W94351   4.247  41.516   3.318
30793W        W94352   7.294  21.148  14.476
30794W        W94353  43.401  35.960   3.668
30795W        W94354  35.019  17.639  14.453
30796W        W94355   9.262  33.582   0.856
30797W        W94356   3.750   6.342   0.323
30798W        W94357  17.614  10.229  14.012
30799W        W94358   7.739   3.459  14.933
30800W        W94359   7.343  40.987   4.290
30801W        W94360   2.315   1.312  11.961
30802W        W94361   0.346  25.481   0.374
30803W        W94362   8.777  17.115  10.405
30804W        W94363   5.911  33.121  10.433
30805W        W94364  35.994  40.494  13.463
30806W        W94365  16.782  15.209   0.959
30807W        W94366  29.071  26.202  10.557
30808W        W94367  16.175   6.191   2.792
30809W        W94368  41.491  13.681  10.593
30810W        W94369  16.695  29.146   2.349
30811W        W94370  13.714  31.518   2.368
30812W        W94371  23.999  21.259   2.356
30813W        W94372   3.802  40.424  11.596
30814W        W94373  23.685  34.096   0.841
30815W        W94374  34.412  25.179  13.879
30816W        W94375  43.988  29.072   4.650
30817W        W94376  40.355  33.998  12.031
30818W        W94377  22.596  29.159   5.575
30819W        W94378  17.193  37.837   1.240
30820W        W94379  12.663  39.888   0.328
30821W        W94380  37.532  38.511   4.231
30822W        W94381  44.306  29.624   0.474
30823W        W94382   4.727   1.435   0.482
30824W        W94383  16.604  22.643  10.543
30825W        W94384  21.688  37.349  12.041
30826W        W94385   1.798  12.212  11.931
30827W        W94386  15.272  28.662   3.758
30828W        W94387  34.434  28.647   3.368
30829W        W94388  41.535  42.335   1.228
30830W        W94389  25.689   9.376   9.980
30831W        W94390  44.432   5.930   0.430
30832W        W94391   9.199   9.166  13.857
30833W        W94392  16.597  24.579   5.286
30834W        W94393  17.246  31.443   3.286
30835W        W94394   2.810  23.148   4.762
30836W        W94395  36.419  22.092  14.510
30837W        W94396  38.463  28.585  12.909
30838W        W94397   2.896  10.646   1.331
30839W        W94398  36.468  34.487   3.641
30840W        W94399  32.132  41.366  11.080
30841W        W94400  11.760   4.874  12.421
30842W        W94401  42.909   0.275  13.306
30843W        W94402  36.938  23.063  10.459
30844W        W94403  16.591  10.269  11.078
30845W        W94404  32.889  20.185   3.308
30846W        W94405  33.977  28.037   2.842
30847W        W94406   7.778  28.952   2.309
30848W        W94407  17.696  21.215  11.377
30849W        W94408  33.555  25.685   1.796
30850W        W94409  31.551  32.578   3.675
30851W        W94410  34.077  25.050   1.344
30852W        W94411  37.836  27.523  11.567
30853W        W94412  38.336  14.321  12.915
30854W        W94413  14.122  40.809  11.007
30855W        W94414   6.224  28.021   0.443
30856W        W94415   1.867  36.547   2.276
30857W        W94416  19.767   1.956  13.528
30858W        W94417  27.545   5.227  14.297
30859W        W94418   9.250  23.054  11.448
30860W        W94419   6.337  15.124   0.967
30861W        W94420  15.143   6.700   0.440
30862W        W94421  13.740  43.881  14.357
30863W        W94422  35.875  18.679  12.426
30864W        W94423  33.037   8.824   1.359
30865W        W94424  10.671  43.800  14.886
30866W        W94425  20.595  28.647   1.261
30867W        W94426  27.146  13.284  10.542
30868W        W94427  25.570   7.229   1.306
30869W        W94428  36.054  29.141   3.867
30870W        W94429   1.817  10.240   1.252
30871W        W94430  12.166  18.288  10.571
30872W        W94431  16.673  33.929   2.789
30873W        W94432   1.277  18.072  10.578
30874W        W94433  41.360  33.102   3.378
30875W        W94434  35.551  14.622  12.502
30876W        W94435   5.712  17.720   2.244
30877W        W94436  38.049  34.977  11.567
30878W        W94437  20.586  30.632  13.871
30879W        W94438  22.190   9.646  14.402
30880W        W94439  21.609  24.723   0.420
30881W        W94440  35.047  36.511   3.817
30882W        W94441  35.497  24.978  13.839
30883W        W94442  10.661  27.681   2.282
30884W        W94443  32.906  31.565  10.459
30885W        W94444  11.762  26.614   5.270
30886W        W94445   1.419  42.356  10.612
30887W        W94446  17.726  22.038  13.050
30888W        W94447  27.958  19.612  11.119
30889W        W94448  12.336  18.578  11.607
30890W        W94449  42.943  27.637  11.518
30891W        W94450  39.030  27.025  11.070
30892W        W94451  12.840  13.195  11.603
30893W        W94452  11.860  20.733  12.536
30894W        W94453  43.924  31.975   0.877
30895W        W94454   6.338  12.291   3.305
30896W        W94455  44.335  22.520   1.806
30897W        W94456  30.044  23.496   4.747
30898W        W94457  10.236  25.620  10.473
30899W        W94458  43.004   2.355   4.242
30900W        W94459  18.610   6.760  10.497
30901W        W94460  41.363  44.461   3.146
30902W        W94461   8.305  24.674  14.013
30903W        W94462  20.114   6.387   1.321
30904W        W94463  25.978  19.068   0.878
30905W        W94464   0.439  15.153  13.915
30906W        W94465  15.762   2.949  14.304
30907W        W94466   8.180  34.867   1.701
30908W        W94467  18.113   2.861   0.243
30909W        W94468  28.582   6.725   3.319
30910W        W94469  27.098  42.862  13.485
30911W        W94470  38.052  19.645   2.822
30912W        W94471  22.679  20.048  14.384
30913W        W94472  15.188  22.709  11.862
30914W        W94473  35.902  42.296   3.684
30915W        W94474  11.704  42.881   5.309
30916W        W94475  37.558  12.340   4.201
30917W        W94476  14.167  33.044   1.891
30918W        W94477  40.988   8.243  11.479
30919W        W94478  22.130  27.116   0.808
30920W        W94479  26.192  34.872   4.749
30921W        W94480  14.168  18.582  12.542
30922W        W94481  25.048  39.521  12.849
30923W        W94482  16.623   5.274   1.289
30924W        W94483  38.019  33.054  10.435
30925W        W94484  37.953  31.100   4.214
30926W        W94485   1.383  42.838   1.216
30927W        W94486   1.976  10.205   2.834
30928W        W94487   8.203  38.437  12.920
30929W        W94488   7.728  20.737   0.781
30930W        W94489   1.965  37.523   2.790
30931W        W94490  39.523  39.405  11.473
30932W        W94491  39.009  28.508  10.412
30933W        W94492  29.600   1.844  10.404
30934W        W94493  17.122  16.117   2.303
30935W        W94494   6.765  19.724   0.322
30936W        W94495  22.160   8.882  11.575
30937W        W94496  23.998  24.543  12.972
30938W        W94497  34.606  12.682  11.504
30939W        W94498  31.570  20.693  12.351
30940W        W94499  42.452  32.919   0.911
30941W        W94500  41.937  31.006  12.505
30942W        W94501   1.809  34.878  14.872
30943W        W94502  20.691  29.584  11.942
30944W        W94503   5.762  11.154  12.869
30945W        W94504  10.291  30.639   3.209
30946W        W94505  13.794  25.689  12.528
30947W        W94506  14.219  35.465   1.755
30948W        W94507  27.977   6.680   2.790
30949W        W94508  20.705  24.205   4.770
30950W        W94509  21.579  29.135  14.352
30951W        W94510  39.842  17.734   4.762
30952W        W94511   3.916  37.467   3.662
30953W        W94512   1.354  39.366  11.465
30954W        W94513  29.979  14.618  14.337
30955W        W94514  31.937  14.835  14.954
30956W        W94515   8.702  44.772  14.767
30957W        W94516  26.030  22.052   0.807
30958W        W94517   0.385  18.213   2.187
30959W        W94518   7.360  31.619   0.397
30960W        W94519   2.873  13.211   2.895
30961W        W94520  23.635  14.771   3.738
30962W        W94521   5.237  31.087  11.061
30963W        W94522  16.247  33.477  14.276
30964W        W94523  37.027  39.521  13.862
30965W        W94524  35.449  36.465  12.433
30966W        W94525  31.024  31.055  13.826
30967W        W94526  44.488   2.724   2.734
30968W        W94527  27.495  23.211   3.782
30969W        W94528   8.397  14.797  14.984
30970W        W94529  26.602  26.132  11.994
30971W        W94530   7.789  35.477  13.456
30972W        W94531  26.466   8.727   1.414
30973W        W94532  44.365  35.046  14.832
30974W        W94533  22.556  35.060  13.381
30975W        W94534  25.123  19.548  14.962
30976W        W94535   3.269  12.815  12.948
30977W        W94536  42.494  39.538  12.868
30978W        W94537   5.275   5.742   0.841
30979W        W94538  36.379  37.845  14.843
30980W        W94539   5.715  22.563   2.822
30981W        W94540  21.219  37.537   0.766
30982W        W94541  35.992  42.029   4.197
30983W        W94542  34.580  21.518   4.153
30984W        W94543   0.292  11.744  13.931
30985W        W94544  38.432   7.212  12.518
30986W        W94545   9.302  42.478  14.476
30987W        W94546  38.045  13.602  14.832
30988W        W94547   5.358  20.568   4.821
30989W        W94548   9.247   9.855  13.794
30990W        W94549  26.521  44.957  10.422
30991W        W94550  23.218  22.172   2.369
30992W        W94551  36.861  43.385   0.737
30993W        W94552   5.763  42.393   0.450
30994W        W94553  44.432  20.616   1.861
30995W        W94554   2.424  15.192   4.808
30996W        W94555  18.550  44.347  12.492
30997W        W94556  16.134  12.239  10.905
30998W        W94557  29.656  33.005  13.946
30999W        W94558  20.171  11.208  11.525
31000W        W94559  16.279  13.783  13.889
31001W        W94560  34.116  27.503   2.886
31002W        W94561  39.364   0.458   0.733
31003W        W94562   0.300  10.738  14.875
31004W        W94563  17.702  25.638  14.288
31005W        W94564   1.809  39.018  13.058
31006W        W94565  19.564  19.052   4.600
31007W        W94566  13.662   9.298   4.833
31008W        W94567  34.946   6.413   2.282
31009W        W94568  19.096  18.638   2.882
31010W        W94569  36.389  41.858   0.785
31011W        W94570  37.483  18.605   0.731
31012W        W94571  12.310  23.055   2.826
31013W        W94572  11.839   4.847  14.922
31014W        W94573   6.696  17.559   4.166
31015W        W94574  18.713  40.516   4.755
31016W        W94575  42.950  36.593  10.517
31017W        W94576  19.047   9.243   1.913
31018W        W94577   4.715  35.990  11.405
31019W        W94578  15.302  36.485  10.933
31020W        W94579  24.483  29.130   0.396
31021W        W94580  41.438   3.320   0.282
31022W        W94581  37.046  40.374   3.831
31023W        W94582   6.766  29.521   0.479
31024W        W94583  19.689   8.355   3.672
31025W        W94584  18.636   0.396  14.459
31026W        W94585  20.653   9.837   4.820
31027W        W94586  32.625  18.144  11.015
31028W        W94587  33.093  38.829  14.882
31029W        W94588   8.198  11.187   2.750
31030W        W94589  35.450  27.952   4.216
31031W        W94590  22.695   4.876  10.913
31032W        W94591   6.757  34.412   4.709
31033W        W94592  32.460   5.369  13.905
31034W        W94593   5.305   0.432  11.599
31035W        W94594   7.415  13.685   3.169
31036W        W94595   0.956  33.095   1.450
31037W        W94596  10.361  39.928  12.408
31038W        W94597  22.169  20.073  12.908
31039W        W94598  15.172  17.306   1.246
31040W        W94599  32.566  38.990   3.637
31041W        W94600  23.144  36.535   1.854
31042W        W94601  38.351   0.871  14.784
31043W        W94602  26.123  16.642  12.845
31044W        W94603  24.691  14.596   1.703
31045W        W94604  39.482  13.726  13.486
31046W        W94605   5.794  44.896   1.870
31047W        W94606  35.369  16.265   4.702
31048W        W94607  36.025   6.205  11.034
31049W        W94608  35.992  18.182   2.218
31050W        W94609  23.159  29.938   5.741
31051W        W94610  13.663  12.743  10.603
31052W        W94611  38.902  35.396  11.032
31053W        W94612  19.750  18.223   0.255
31054W        W94613  11.842   9.859   0.267
31055W        W94614  32.473  44.753  10.998
31056W        W94615  31.988   1.349   3.347
31057W        W94616  19.224  13.815   0.358
31058W        W94617  39.322  23.070   1.795
31059W        W94618   0.957  28.061  13.391
31060W        W94619  38.893  30.589   1.214
31061W        W94620  44.765  17.636   4.200
31062W        W94621  40.049  40.407  14.426
31063W        W94622  10.334  17.770  11.385
31064W        W94623   0.253  26.676   1.349
31065W        W94624   6.896  17.755  12.488
31066W        W94625   3.724  29.528  12.385
31067W        W94626   4.403   5.410  14.900
31068W        W94627  27.468  16.131  14.341
31069W        W94628  22.690  11.185   3.774
31070W        W94629  18.665  15.247   2.750
31071W        W94630  24.190  23.543   0.782
31072W        W94631  10.187  44.805   3.789
31073W        W94632  19.072  27.573   4.172
31074W        W94633   9.177  19.733   3.366
31075W        W94634   6.320  35.979  11.122
31076W        W94635  34.962  32.933  13.460
31077W        W94636  10.719  29.463  11.077
31078W        W94637  10.277   0.919  11.963
31079W        W94638   9.177  34.550  14.869
31080W        W94639  28.501  38.556   2.197
31081W        W94640   5.688  28.631   2.845
31082W        W94641  24.619   2.454  14.360
31083W        W94642  16.199  35.602  12.861
31084W        W94643   8.230   1.959  13.357
31085W        W94644  29.038   0.458  13.023
31086W        W94645  24.550  42.837   0.469
31087W        W94646   1.898   2.896   4.284
31088W        W94647  11.848  23.995  11.379
31089W        W94648  35.918   4.258  10.981
31090W        W94649  13.183   9.266  10.476
31091W        W94650  18.635  17.767   0.804
31092W        W94651   8.824   6.772   1.876
31093W        W94652  23.041  10.276   5.208
31094W        W94653   4.421  30.117   3.713
31095W        W94654  32.499  12.166   4.210
31096W        W94655  39.481  22.542  11.017
31097W        W94656   5.794  38.390   0.951
31098W        W94657  17.069  27.626  14.278
31099W        W94658  30.525   3.354  11.075
31100W        W94659   6.733  25.990   1.276
31101W        W94660  24.514  12.211  12.422
31102W        W94661  17.660  10.857   1.267
31103W        W94662  14.218   3.883   0.276
31104W        W94663  25.497  42.958  11.892
31105W        W94664  19.713   8.725   0.431
31106W        W94665  13.120   1.924  12.477
31107W        W94666  33.620  24.171  14.888
31108W        W94667  19.085   5.373   2.256
31109W        W94668  28.660  12.698  10.491
31110W        W94669   5.303  38.540  13.990
31111W        W94670  31.093  35.109   0.255
31112W        W94671  29.134  16.242  11.035
31113W        W94672   5.782  29.447   1.862
31114W        W94673  40.507   9.827  13.545
31115W        W94674  44.423  28.005  11.468
31116W        W94675   9.356  43.420  12.356
31117W        W94676  31.627  30.103  12.844
31118W        W94677   5.314  18.177  13.533
31119W        W94678  36.442  42.489  11.377
31120W        W94679  24.547   2.837  10.950
31121W        W94680   5.258  27.041   2.800
31122W        W94681   3.302  40.955  11.096
31123W        W94682   8.211  17.301  11.508
31124W        W94683  14.278  14.635  14.904
31125W        W94684  39.364  17.735   1.428
31126W        W94685  35.506  27.520   2.385
31127W        W94686  14.713  14.245   0.479
31128W        W94687  20.230   9.263  12.063
31129W        W94688  13.641  43.449   3.351
31130W        W94689   6.780  12.204  11.030
31131W        W94690  42.966  31.984   3.722
31132W        W94691  38.409  43.399   4.629
31133W        W94692  22.060  27.592   1.832
31134W        W94693  24.154  13.636  11.583
31135W        W94694  32.022  30.964  12.570
31136W        W94695  11.275  14.213   2.234
31137W        W94696  14.158   0.865   1.708
31138W        W94697  35.912  25.468  14.299
31139W        W94698   3.935   1.305  12.445
31140W        W94699  38.414   6.747   3.374
31141W        W94700  38.025   4.852   1.841
31142W        W94701  16.617  36.497  14.347
31143W        W94702  38.886  35.956  11.549
31144W        W94703   8.800  10.293   4.259
31145W        W94704   5.422  38.997   2.264
31146W        W94705  12.699  34.863  12.937
31147W        W94706  35.994  26.645   0.847
31148W        W94707  29.466  16.193   1.210
31149W        W94708   5.774  42.985   1.903
31150W        W94709  11.847  24.662  12.904
31151W        W94710  43.858   6.380   1.342
31152W        W94711  11.807   9.781   0.826
31153W        W94712  28.973   0.947  14.320
31154W        W94713  20.715  18.591  12.014
31155W        W94714  29.450  39.827   4.267
31156W        W94715  38.829  31.424  13.454
31157W        W94716   6.761  39.426   4.289
31158W        W94717  32.409  19.570  11.477
31159W        W94718  32.423   0.331  11.474
31160W        W94719   0.470  24.636   3.694
31161W        W94720   7.318  13.763  12.445
31162W        W94721  16.767  12.276  14.342
31163W        W94722  23.999   1.278  10.906
31164W        W94723   9.808  14.763  13.950
31165W        W94724  26.148  36.001  11.968
31166W        W94725  19.198  10.852  12.364
31167W        W94726  19.137  36.905  12.958
31168W        W94727  38.982  42.930   0.876
31169W        W94728  42.026  28.670  11.067
31170W        W94729   2.305  39.977   4.221
31171W        W94730  17.675  29.492  13.867
31172W        W94731  13.230  36.950  14.373
31173W        W94732  21.650  39.854   0.871
31174W        W94733  12.794  26.579  14.915
31175W        W94734  40.353  31.020  11.013
31176W        W94735  11.630  29.000   4.672
31177W        W94736  15.585  43.444  14.935
31178W        W94737  21.263  30.602   1.384
31179W        W94738  24.002  39.321   0.784
31180W        W94739  20.583  18.135  13.376
31181W        W94740  21.757  23.132   1.809
31182W        W94741  44.909  30.988   3.314
31183W        W94742  37.014   3.232  10.909
31184W        W94743  18.287  30.062  14.903
31185W        W94744  32.492  34.017   3.666
31186W        W94745  40.354   2.376   1.340
31187W        W94746  38.478  35.980   9.955
31188W        W94747  14.249  14.127  11.568
31189W        W94748  27.177  19.185   3.739
31190W        W94749   9.343  30.640  11.125
31191W        W94750  42.903  20.239   4.662
31192W        W94751  17.200  43.339  12.872
31193W        W94752  36.587  41.327   3.313
31194W        W94753   2.781  35.601   2.250
31195W        W94754  21.669  33.016   0.835
31196W        W94755  13.285   7.809   0.842
31197W        W94756  20.712  11.172  10.912
31198W        W94757  27.640   9.378  10.986
31199W        W94758   7.784  29.935   0.846
31200W        W94759  10.684  14.107   3.710
31201W        W94760   3.948   1.392   0.368
31202W        W94761  38.937  38.419   3.632
31203W        W94762  29.612  17.565   0.919
31204W        W94763   4.886   6.292   2.820
31205W        W94764  21.084  37.373  10.987
31206W        W94765  33.067   4.422   1.805
31207W        W94766  18.130  42.994  12.938
31208W        W94767  39.868  28.449  14.926
31209W        W94768   6.855  43.020   0.858
31210W        W94769  37.578   0.308   1.272
31211W        W94770   1.405   9.271  12.356
31212W        W94771   1.751   0.947   1.704
31213W        W94772  33.383  41.452   3.662
31214W        W94773   2.855  26.964  14.818
31215W        W94774  27.104  18.624   3.680
31216W        W94775  21.036  27.596  13.823
31217W        W94776  30.946  32.628   4.748
31218W        W94777  32.936  43.968  12.095
31219W        W94778  44.950  11.220   2.179
31220W        W94779  43.407  32.978  10.481
31221W        W94780  17.306  27.593   1.828
31222W        W94781  34.081   0.353  13.833
31223W        W94782  16.171   6.757  13.937
31224W        W94783  44.797   7.740   1.281
31225W        W94784  16.631   7.874   1.407
31226W        W94785  35.049  43.345   0.816
31227W        W94786  14.155  23.713  13.886
31228W        W94787  34.447  33.124   1.280
31229W        W94788   5.301  42.430  11.527
31230W        W94789  43.932  44.443  11.537
31231W        W94790  33.080  42.866   1.726
31232W        W94791  13.747  10.707   1.925
31233W        W94792  21.616  10.371   0.907
31234W        W94793  14.694   5.277  14.785
31235W        W94794  21.188  29.137   1.777
31236W        W94795   5.415  24.093   4.826
31237W        W94796  21.699  24.014   4.733
31238W        W94797   7.382  13.280  11.031
31239W        W94798  30.084  27.123  11.536
31240W        W94799  19.597   3.891   5.220
31241W        W94800  13.319  42.803   3.762
31242W        W94801   9.174  13.280  11.558
31243W        W94802  42.960  43.411  13.057
31244W        W94803  32.450   4.411   3.204
31245W        W94804   3.722  15.273  14.326
31246W        W94805  17.578  21.249  12.350
31247W        W94806   6.700  24.576  13.037
31248W        W94807  39.811   3.307   3.719
31249W        W94808  34.587   1.356   0.743
31250W        W94809  42.347   1.879  10.548
31251W        W94810   3.239   7.379   0.749
31252W        W94811  35.032   5.415  14.926
31253W        W94812   7.787  40.004  14.796
31254W        W94813  18.152  36.501   3.384
31255W        W94814  24.065  12.661   3.805
31256W        W94815  27.473   2.875   0.361
31257W        W94816  38.489  24.725  13.494
31258W        W94817  13.207  12.160   0.789
31259W        W94818  31.079  27.470   1.234
31260W        W94819  38.432  41.449   4.274
31261W        W94820  26.023  34.040  13.369
31262W        W94821  28.035   1.862   2.877
31263W        W94822  39.424  19.172   3.332
31264W        W94823  18.149  43.917  10.896
31265W        W94824  26.605  29.461   4.597
31266W        W94825  19.216   5.932   3.305
31267W        W94826  16.092  26.980  14.834
31268W        W94827  12.306  25.153   3.158
31269W        W94828   5.388  39.327  10.593
31270W        W94829   4.834  10.287   0.730
31271W        W94830  35.397  37.898  12.962
31272W        W94831  20.581  37.884  12.064
31273W        W94832  20.239   2.820   3.774
31274W        W94833  21.748  26.650  13.891
31275W        W94834  17.186  38.966   3.749
31276W        W94835  26.501  35.025   5.267
31277W        W94836  18.080  43.486  10.612
31278W        W94837  25.472  26.975   1.354
31279W        W94838  40.365   6.775   4.148
31280W        W94839  38.455  34.444  11.026
31281W        W94840  38.354  43.502   1.229
31282W        W94841  34.465  25.154   0.251
31283W        W94842  40.836  16.789  13.993
31284W        W94843  21.217   2.262  11.486
31285W        W94844  15.721  18.188  14.906
31286W        W94845   4.204   0.394  12.998
31287W        W94846  37.892  18.053   3.844
31288W        W94847  26.121  33.967   4.800
31289W        W94848   0.904  34.986   1.856
31290W        W94849  21.019  40.895  10.897
31291W        W94850  12.336  31.493   1.421
31292W        W94851  24.035  21.018  11.426
31293W        W94852  38.482  18.286  14.863
31294W        W94853  20.215  27.684  11.508
31295W        W94854  29.074   9.668  12.852
31296W        W94855  42.498  40.453  13.017
31297W        W94856  20.064  27.498  12.492
31298W        W94857  28.637  32.111  14.312
31299W        W94858   3.952  20.241   0.425
31300W        W94859  29.602   2.895   0.314
31301W        W94860  36.442  31.432  11.444
31302W        W94861  16.618  18.225   1.213
31303W        W94862  20.251  33.970  11.016
31304W        W94863  17.561  23.061  14.340
31305W        W94864  38.970   2.952   1.919
31306W        W94865  15.236  37.523   3.702
31307W        W94866  24.596  22.683   2.710
31308W        W94867  21.260   7.809   1.915
31309W        W94868  27.114  15.177  14.444
31310W        W94869  30.133  26.066  14.437
31311W        W94870  10.163  19.634  14.951
31312W        W94871  18.633  42.844   4.710
31313W        W94872  43.876   2.767  13.805
31314W        W94873  34.597  44.928  14.849
31315W        W94874   9.195  39.963  10.571
31316W        W94875  28.510  37.343   3.302
31317W        W94876  19.625  24.702  14.028
31318W        W94877  25.670  24.718  10.621
31319W        W94878   6.274  36.592   0.359
31320W        W94879  32.054  29.156  13.343
31321W        W94880  25.982  20.705   4.727
31322W        W94881  31.480  14.813  10.994
31323W        W94882  16.584  15.679   4.288
31324W        W94883  13.718  43.964  14.806
31325W        W94884  44.005  15.577   4.827
31326W        W94885   9.154  29.038   0.962
31327W        W94886  23.616  33.559  13.477
31328W        W94887  27.061  31.429   4.828
31329W        W94888  19.732  14.290   4.176
31330W        W94889  28.571  42.959   2.354
31331W        W94890  23.675  21.743  14.838
31332W        W94891   0.834  23.118  12.089
31333W        W94892  44.289  10.823   0.281
31334W        W94893  44.347  43.278  11.054
31335W        W94894  40.848   4.254   4.738
31336W        W94895  17.118   8.666  12.947
31337W        W94896  28.978  38.835   4.149
31338W        W94897   0.954  33.427  12.975
31339W        W94898  36.903  28.100  13.509
31340W        W94899  38.357  28.137   4.229
31341W        W94900  13.128   8.390   2.392
31342W        W94901  13.224  27.134  12.402
31343W        W94902  41.535   2.747   3.637
31344W        W94903  42.518  38.904  12.578
31345W        W94904  28.559  36.036  13.512
31346W        W94905  21.136  19.692  11.979
31347W        W94906  25.002  21.040  14.929
31348W        W94907  19.218  24.689  10.913
31349W        W94908  17.095  21.662  14.789
31350W        W94909  11.357  28.658  14.761
31351W        W94910  15.164  30.644  12.563
31352W        W94911  35.594  18.632  14.426
31353W        W94912  36.046   0.327   3.855
31354W        W94913  10.328  14.206   1.804
31355W        W94914   9.779  11.715   2.701
31356W        W94915  33.997  31.472   0.402
31357W        W94916  41.817  34.936   5.225
31358W        W94917  39.331  17.305  14.385
31359W        W94918  43.766  11.156   0.383
31360W        W94919  11.212   9.757   1.776
31361W        W94920  37.955  22.062   3.639
31362W        W94921  44.960  32.509   2.855
31363W        W94922  30.010  41.020  10.545
31364W        W94923  39.957  21.062  13.045
31365W        W94924  29.569  11.156   4.206
31366W        W94925   4.739  30.449  14.891
31367W        W94926  17.239  10.172  11.970
31368W        W94927  22.503  14.233   5.185
31369W        W94928  38.385  43.796  12.029
31370W        W94929  12.178  35.926  11.589
31371W        W94930  31.566  35.038  12.911
31372W        W94931  34.000  28.114   3.841
31373W        W94932   0.367  12.213   0.463
31374W        W94933  16.701  30.071  11.074
31375W        W94934  28.019  34.398   3.822
31376W        W94935   5.259  19.702  13.027
31377W        W94936  13.331  41.020   3.336
31378W        W94937  18.220   4.300   3.639
31379W        W94938   6.327  40.342   3.740
31380W        W94939  19.094  25.086   2.357
31381W        W94940  31.105  15.181   0.386
31382W        W94941  10.692  23.584  10.454
31383W        W94942  12.290  26.035   5.630
31384W        W94943  12.639  26.077   0.752
31385W        W94944  41.415   3.363   3.287
31386W        W94945  21.563  43.800  13.338
31387W        W94946  14.751  14.773   2.683
31388W        W94947  35.528   3.440  12.387
31389W        W94948  36.945   1.941   1.715
31390W        W94949  19.249   7.841  12.427
31391W        W94950   5.383  34.396   3.249
31392W        W94951   2.273  25.531   2.873
31393W        W94952  34.073  23.702   1.270
31394W        W94953   4.284  18.206   0.462
31395W        W94954  18.581  43.767   0.821
31396W        W94955  32.133   7.342  14.511
31397W        W94956  11.223  38.960  12.355
31398W        W94957  29.511  27.508  14.512
31399W        W94958  14.793  43.343   3.310
31400W        W94959  26.963  35.566  10.964
31401W        W94960   1.450   9.312   3.846
31402W        W94961  19.185  16.119  14.325
31403W        W94962  30.583   3.377   1.366
31404W        W94963   3.773   8.864  14.867
31405W        W94964  11.258  36.994   0.900
31406W        W94965  21.057  15.215  13.536
31407W        W94966  29.931  29.067  13.045
31408W        W94967  27.164  12.837  12.392
31409W        W94968  23.124  19.094   2.266
31410W        W94969  20.181  41.794   1.833
31411W        W94970  25.003  30.977   2.773
31412W        W94971   8.755   4.232   4.792
31413W        W94972   5.349  41.016  14.496
31414W        W94973  21.068  43.904   1.332
31415W        W94974  41.843  29.540  13.450
31416W        W94975  27.093   7.736  12.919
31417W        W94976  22.731  30.517   2.673
31418W        W94977  40.375  14.339  10.513
31419W        W94978  18.618   6.754  11.494
31420W        W94979  18.102  32.533  14.291
31421W        W94980  16.731  28.627   1.769
31422W        W94981  26.673  20.688   2.666
31423W        W94982  36.426  31.935   1.325
31424W        W94983   2.230  29.051  12.892
31425W        W94984  39.831  38.952   4.276
31426W        W94985  27.986  38.558   1.728
31427W        W94986  38.483   1.289   2.219
31428W        W94987  17.796   2.367  12.535
31429W        W94988  33.054   6.800  12.498
31430W        W94989  22.539  29.589   0.849
31431W        W94990  28.054  20.567  11.071
31432W        W94991  13.172  30.058   3.246
31433W        W94992  32.633  38.372  11.085
31434W        W94993  42.822  37.556   3.705
31435W        W94994  25.185  32.576  14.338
31436W        W94995  10.207   7.216  10.932
31437W        W94996  13.163  23.092   3.347
31438W        W94997  28.604  30.155  14.329
31439W        W94998  17.230  43.785   3.747
31440W        W94999   4.934  11.833  14.914
31441W        W95000  33.879  36.586   2.780
31442W        W95001  10.673  31.605   4.601
31443W        W95002  38.433  38.565  10.443
31444W        W95003  34.499   2.404  14.427
31445W        W95004  20.050   1.842   1.894
31446W        W95005  38.970  33.890  12.048
31447W        W95006  23.652  27.612  12.572
31448W        W95007  30.005  10.856  12.932
31449W        W95008  12.148  30.149   0.943
31450W        W95009  21.589  24.538   3.342
31451W        W95010  28.468  42.007  14.918
31452W        W95011   2.723  19.216  12.997
31453W        W95012  40.813   4.894   4.334
31454W        W95013  24.046   3.387  13.323
31455W        W95014  23.726   0.774  10.952
31456W        W95015  33.462  11.800   4.203
31457W        W95016   3.422  42.013  12.843
31458W        W95017  10.646  40.045   2.200
31459W        W95018  35.033  40.330   9.675
31460W        W95019  30.080  42.000   2.898
31461W        W95020  29.476   0.854   1.851
31462W        W95021  16.768  43.287  13.430
31463W        W95022  11.834  22.076   5.288
31464W        W95023   8.266  38.474  11.498
31465W        W95024  10.832  33.067   3.331
31466W        W95025  28.975  41.807   2.401
31467W        W95026  19.678   8.660   1.892
31468W        W95027   8.674  40.305  12.464
31469W        W95028  27.574  26.523  10.411
31470W        W95029   4.876  24.603  13.957
31471W        W95030  35.485  11.309   5.262
31472W        W95031  33.428  16.108   0.435
31473W        W95032  20.203   7.704   3.265
31474W        W95033  27.070   5.348  10.947
31475W        W95034  40.940  37.857  13.532
31476W        W95035  34.434   9.216   0.269
31477W        W95036   9.312  41.425  10.411
31478W        W95037  11.831   9.813  14.973
31479W        W95038  32.109  44.317  14.476
31480W        W95039  11.348  30.437  12.996
31481W        W95040  25.167  18.607   2.198
31482W        W95041  37.878  41.927   4.838
31483W        W95042   9.801   5.363  14.789
31484W        W95043  40.871  36.864  13.372
31485W        W95044  35.365   5.338  12.427
31486W        W95045   1.420  34.988  12.864
31487W        W95046   7.213   2.806   4.663
31488W        W95047  43.914  32.517   2.337
31489W        W95048  13.271  41.307   4.687
31490W        W95049  15.747  28.661   4.337
31491W        W95050  38.561  12.657  11.475
31492W        W95051   1.456  28.984  13.838
31493W        W95052  29.643  43.807   2.408
31494W        W95053  13.821  12.827   0.751
31495W        W95054  31.969   4.931  12.881
31496W        W95055  25.469  33.898   3.745
31497W        W95056  17.095  17.120  13.870
31498W        W95057  39.866  13.134   4.165
31499W        W95058  20.531  16.795   3.743
31500W        W95059   3.273   2.851  11.937
31501W        W95060  41.868  40.046   0.445
31502W        W95061  20.244   3.769   2.806
31503W        W95062  35.584  40.403  11.381
31504W        W95063  33.468  16.268  14.466
31505W        W95064  10.181   6.417   2.307
31506W        W95065  22.064   0.947  10.945
31507W        W95066   4.707   0.409  10.492
31508W        W95067   7.259  23.675  11.102
31509W        W95068  23.620  32.473  11.507
31510W        W95069  44.380  44.821   4.290
31511W        W95070  27.158  22.183  12.878
31512W        W95071  20.744  31.630  10.552
31513W        W95072  33.590  32.510   0.823
31514W        W95073  36.971  28.972  13.439
31515W        W95074   2.854  38.017  10.597
31516W        W95075   7.263   3.923   1.844
31517W        W95076  25.682   8.405   5.725
31518W        W95077  36.026  43.895  14.887
31519W        W95078  41.792  16.101   1.325
31520W        W95079   7.700  19.097   3.643
31521W        W95080  24.509  15.606   4.689
31522W        W95081  25.064  14.200  14.485
31523W        W95082  32.971  18.150  10.570
31524W        W95083  13.754  33.898   4.630
31525W        W95084   4.237  18.076  14.422
31526W        W95085  26.005  40.938  10.574
31527W        W95086  11.765   0.750   1.266
31528W        W95087  27.496  33.060   1.245
31529W        W95088  39.524  26.683  14.876
31530W        W95089  31.631  18.560   1.289
31531W        W95090  10.157  34.559  13.933
31532W        W95091  18.766  21.093   4.122
31533W        W95092  33.541  38.482  14.321
31534W        W95093  27.960  15.822  14.997
31535W        W95094  20.639   9.162   3.150
31536W        W95095  18.172  29.596  13.484
31537W        W95096  38.941  38.355   4.633
31538W        W95097   5.702  40.509  12.065
31539W        W95098  43.318  16.253  10.442
31540W        W95099  28.528   8.407  12.038
31541W        W95100  12.615   9.664  14.784
31542W        W95101  10.770  27.648   1.395
31543W        W95102  21.158  38.368  14.438
31544W        W95103  33.505   1.338   0.926
31545W        W95104   2.792   0.420   4.316
31546W        W95105  35.543   7.893  12.872
31547W        W95106   8.794  32.057   4.789
31548W        W95107  27.691   1.891  14.943
31549W        W95108  35.470  40.442   4.352
31550W        W95109   2.926  22.138   1.313
31551W        W95110  25.521  44.000  11.017
31552W        W95111  14.720  40.336   2.728
31553W        W95112  25.983  20.659   0.295
31554W        W95113   4.287  44.290   1.869
31555W        W95114  34.444  33.570  14.486
31556W        W95115   5.917  38.511  13.512
31557W        W95116  15.156  40.010   1.840
31558W        W95117   6.272   0.943   0.902
31559W        W95118  13.814  33.950  12.995
31560W        W95119  22.525  10.139  14.480
31561W        W95120  17.742  37.563   2.295
31562W        W95121  35.856  40.529   2.715
31563W        W95122   9.872  30.655   4.802
31564W        W95123  41.843  25.019  10.028
31565W        W95124  27.148  26.489   9.955
31566W        W95125  18.291   7.819  12.373
31567W        W95126  27.455  20.243   1.371
31568W        W95127  22.503  10.784  14.810
31569W        W95128  39.319  42.432  14.992
31570W        W95129  42.381  22.646   0.391
31571W        W95130  17.089  30.445   5.235
31572W        W95131   5.400   2.337  14.807
31573W        W95132   1.845  41.990   0.321
31574W        W95133  16.140  17.171  14.008
31575W        W95134   8.359  19.647   1.230
31576W        W95135  41.033   7.889  10.914
31577W        W95136  43.442  17.064   4.813
31578W        W95137  33.441  28.082  12.872
31579W        W95138  14.809  22.082  13.052
31580W        W95139  39.983  13.164   0.272
31581W        W95140  27.099  41.874   3.289
31582W        W95141  36.032  34.461  11.900
31583W        W95142  32.434  11.672  11.974
31584W        W95143  24.128   4.287  14.336
31585W        W95144  32.014  18.757   0.790
31586W        W95145  41.357   3.380  13.890
31587W        W95146   0.905  34.517   1.769
31588W        W95147  17.089  22.638   0.735
31589W        W95148  30.132   0.898  12.520
31590W        W95149   7.362  29.071   1.348
31591W        W95150  34.073  34.044  14.858
31592W        W95151  42.895  22.539  14.476
31593W        W95152  38.442  28.452  13.934
31594W        W95153  17.092  14.757   4.764
31595W        W95154  16.598  12.757  10.915
31596W        W95155  43.504  43.833  10.446
31597W        W95156   9.197  23.219   1.295
31598W        W95157   0.494  29.593  14.275
31599W        W95158  21.068   1.450  13.498
31600W        W95159  22.637  30.461  14.926
31601W        W95160  28.669  29.539  10.586
31602W        W95161  36.862  33.562   3.328
31603W        W95162  25.677  26.132   1.893
31604W        W95163  24.599   8.834   4.118
31605W        W95164  43.370  11.748  14.323
31606W        W95165  20.682  35.101  12.967
31607W        W95166  28.650  13.670  10.615
31608W        W95167   1.476  15.095  14.887
31609W        W95168  15.789  14.256  12.355
31610W        W95169  43.442  36.521   2.206
31611W        W95170  28.464  26.007   4.342
31612W        W95171  30.487   9.646   4.291
31613W        W95172  42.790   0.980   1.754
31614W        W95173  31.484  43.381   0.254
31615W        W95174  35.990  13.602   1.719
31616W        W95175  27.140  41.489  13.449
31617W        W95176  42.830   1.247   0.776
31618W        W95177  28.048  12.348  11.866
31619W        W95178  43.997  38.560  14.956
31620W        W95179  30.070   0.878  14.339
31621W        W95180  41.519   0.366  12.957
31622W        W95181   7.875  18.705  14.320
31623W        W95182   5.724  40.360   3.844
31624W        W95183  43.341  20.611  11.541
31625W        W95184  32.918  38.030  10.588
31626W        W95185   4.310  36.418  14.932
31627W        W95186  13.290   9.301  13.856
31628W        W95187  27.994  23.494  12.999
31629W        W95188  14.231  10.159  10.505
31630W        W95189  25.024  25.562  11.033
31631W        W95190  43.825   8.722  14.336
31632W        W95191   9.884  29.470  13.046
31633W        W95192  30.420   9.162   4.152
31634W        W95193  24.213   2.767  14.356
31635W        W95194  36.943  43.377  10.452
31636W        W95195  18.560  23.725  11.942
31637W        W95196  20.720  32.579   4.656
31638W        W95197  35.874   5.734   4.838
31639W        W95198  10.185  17.271  12.887
31640W        W95199  15.729  13.122  14.336
31641W        W95200  23.044  32.966  12.423
31642W        W95201  28.048  12.703  10.953
31643W        W95202   6.356  14.231   0.913
31644W        W95203  41.296   4.877  12.384
31645W        W95204  11.776   5.233  11.424
31646W        W95205   0.476  21.165   3.680
31647W        W95206  37.449  37.440   5.110
31648W        W95207  21.697  14.126   2.790
31649W        W95208  40.416   8.208   0.903
31650W        W95209   1.307  22.130   2.299
31651W        W95210  43.332  33.124   3.719
31652W        W95211  43.803  18.083  10.956
31653W        W95212  12.793   9.202   4.228
31654W        W95213  36.851   7.242   0.332
31655W        W95214   5.858  24.222   4.280
31656W        W95215  25.087  41.375   4.301
31657W        W95216   5.741  41.359   3.307
31658W        W95217   5.340   9.293   0.417
31659W        W95218  23.999   6.300   4.154
31660W        W95219   8.739  44.802  12.900
31661W        W95220  36.579  42.523  13.534
31662W        W95221  13.199   2.850  14.290
31663W        W95222  37.565  20.137   1.227
31664W        W95223   2.857  10.689  12.901
31665W        W95224  43.407   0.986   4.652
31666W        W95225  10.732   9.182   0.868
31667W        W95226  38.979  27.507  12.391
31668W        W95227   6.826   1.900  14.279
31669W        W95228   8.296  18.772   4.223
31670W        W95229  12.131  13.182  11.598
31671W        W95230   1.248  41.508  14.932
31672W        W95231  11.736  34.875  11.437
31673W        W95232  37.874  33.975  10.952
31674W        W95233   1.380  24.991   0.432
31675W        W95234  11.224  41.338   3.768
31676W        W95235   4.206   7.728  12.831
31677W        W95236  14.288  32.095  10.641
31678W        W95237   1.445  33.020  11.005
31679W        W95238  34.540  19.640   0.260
31680W        W95239   6.857  36.062   1.319
31681W        W95240  39.820  39.962  14.405
31682W        W95241   1.805   0.348   0.924
31683W        W95242  38.390  42.515  14.476
31684W        W95243  30.956  37.060   1.779
31685W        W95244  16.311   9.266  14.004
31686W        W95245  39.530  42.286   2.873
31687W        W95246  39.948  28.550  12.966
31688W        W95247  11.244  13.138  12.505
31689W        W95248   9.703  12.320   3.649
31690W        W95249  37.481  11.657   4.708
31691W        W95250   0.788  32.496  14.784
31692W        W95251  31.459   0.857  11.111
31693W        W95252  41.434  21.571   3.219
31694W        W95253   2.794  29.606  14.954
31695W        W95254  14.719   8.759  12.935
31696W        W95255  23.192  40.969  13.376
31697W        W95256  15.597  29.424  12.010
31698W        W95257  16.637   9.152  10.133
31699W        W95258  26.147  17.580   0.763
31700W        W95259  24.032   7.878  13.392
31701W        W95260  12.261  31.024  11.956
31702W        W95261   2.452  23.699  11.513
31703W        W95262  17.774  20.178   3.673
31704W        W95263   3.795   8.296  14.775
31705W        W95264  22.104  14.206  13.834
31706W        W95265  41.478  42.930   0.794
31707W        W95266  39.405  27.100   1.368
31708W        W95267  28.056   1.867  14.474
31709W        W95268  24.984   8.368  12.083
31710W        W95269  33.573  32.556  14.509
31711W        W95270  40.409  19.277  11.091
31712W        W95271  26.978  33.518  11.556
31713W        W95272   7.688  26.971  12.550
31714W        W95273  23.615  27.149  11.878
31715W        W95274   6.923  33.543   4.258
31716W        W95275  39.902  42.471  12.430
31717W        W95276   6.266  30.107  13.893
31718W        W95277  31.531   6.402  13.868
31719W        W95278  17.157  34.091   3.693
31720W        W95279  44.347  22.232   4.734
31721W        W95280  19.282  44.318   4.619
31722W        W95281  31.433  13.192  11.503
31723W        W95282   4.835  20.751  12.876
31724W        W95283  12.302  29.130   4.829
31725W        W95284   2.372   2.384   1.712
31726W        W95285  10.738   6.881  11.092
31727W        W95286  29.145  42.438   3.148
31728W        W95287   2.359  26.573  13.990
31729W        W95288  19.209  10.220   3.788
31730W        W95289  18.259  18.085   4.709
31731W        W95290  19.052   3.833  12.503
31732W        W95291   7.314  37.084  10.501
31733W        W95292  19.262  14.252   2.876
31734W        W95293  33.538   0.823  10.480
31735W        W95294  22.185  23.103  13.880
31736W        W95295  16.651  27.665  11.914
31737W        W95296  36.072  13.627   2.415
31738W        W95297  25.070  31.936  13.480
31739W        W95298  25.648  20.140   2.758
31740W        W95299  24.175  23.071   4.153
31741W        W95300  41.500  25.995  12.450
31742W        W95301  44.346  33.387   2.307
31743W        W95302  41.490  43.442   3.269
31744W        W95303  30.932  32.060   0.418
31745W        W95304  30.609  19.079   4.179
31746W        W95305   6.830  39.512   3.814
31747W        W95306  16.627  23.680  12.465
31748W        W95307  11.780   2.842  12.347
31749W        W95308  31.953  30.628  14.980
31750W        W95309  17.174  42.980  10.569
31751W        W95310  30.433  39.418   4.269
31752W        W95311  28.108  14.648  12.949
31753W        W95312  21.107  36.011  12.974
31754W        W95313  12.724  27.977  11.984
31755W        W95314   0.271   9.848  10.589
31756W        W95315  33.991  25.705   2.258
31757W        W95316  27.094  13.280   1.251
31758W        W95317  33.075   5.708   2.303
31759W        W95318   5.868  16.204  12.841
31760W        W95319  13.240   4.219   0.960
31761W        W95320  15.644  31.915   2.309
31762W        W95321  23.066  33.881  14.856
31763W        W95322  36.522  18.190  12.978
31764W        W95323  30.522  13.649  14.489
31765W        W95324   5.210  12.162  14.469
31766W        W95325  13.149  23.688  11.929
31767W        W95326  39.498   5.791  10.488
31768W        W95327  40.545  27.951   4.295
31769W        W95328  40.802   0.263  12.050
31770W        W95329  15.753  30.030   0.771
31771W        W95330   2.766  25.675   1.385
31772W        W95331  36.447  26.089  12.847
31773W        W95332  30.600  21.150   1.261
31774W        W95333  26.074  32.444   4.667
31775W        W95334  23.725  26.589  10.912
31776W        W95335  38.001  28.547   2.804
31777W        W95336  32.124  38.933   0.744
31778W        W95337  22.589  39.874  10.500
31779W        W95338  27.948  18.239  11.906
31780W        W95339   0.379   0.438   0.934
31781W        W95340  34.925  36.897  14.366
31782W        W95341   7.345  16.712   3.671
31783W        W95342   6.374   7.309  12.553
31784W        W95343   7.339   9.326  12.476
31785W        W95344   3.837  18.692  11.028
31786W        W95345  35.482  26.488   0.273
31787W        W95346  23.571   2.796   4.155
31788W        W95347  36.006   9.762   4.337
31789W        W95348  44.422   1.340   2.192
31790W        W95349  11.318   4.880  14.497
31791W        W95350  18.069  26.534   2.733
31792W        W95351  35.928   1.390  12.572
31793W        W95352  30.935  29.460  14.935
31794W        W95353  24.049  10.815  11.868
31795W        W95354  14.207  15.814  13.384
31796W        W95355  43.474   5.291  11.030
31797W        W95356  25.208  35.449   0.790
31798W        W95357  30.443  44.843  13.460
31799W        W95358   9.163   2.790  11.382
31800W        W95359   5.795  33.920  12.513
31801W        W95360  20.270  38.524   1.446
31802W        W95361  39.918  23.533  13.846
31803W        W95362   0.369  14.830  14.398
31804W        W95363  41.914  44.811   0.409
31805W        W95364   5.888  41.294  13.904
31806W        W95365  17.700   3.239  12.994
31807W        W95366  11.147  39.931  13.816
31808W        W95367   5.245   2.274  11.596
31809W        W95368   3.953   6.233   9.950
31810W        W95369  38.442   4.725  13.949
31811W        W95370   8.857  11.202   5.268
31812W        W95371  26.162  14.814   1.827
31813W        W95372  32.546  35.359  11.857
31814W        W95373  29.128   9.850  13.463
31815W        W95374  31.641  14.324  12.031
31816W        W95375  34.446  11.234   5.201
31817W        W95376  42.396  33.963   0.780
31818W        W95377  26.675  24.046  14.985
31819W        W95378  36.992   9.736   1.434
31820W        W95379   1.776  37.388  14.363
31821W        W95380   3.460  10.184  10.457
31822W        W95381  34.901  25.495  14.848
31823W        W95382  34.469  12.313  13.923
31824W        W95383  42.362  40.003   3.766
31825W        W95384  22.066  12.793   4.231
31826W        W95385  38.944  32.919   0.246
31827W        W95386   4.277  40.805  12.097
31828W        W95387  12.197  38.888   1.917
31829W        W95388  44.893  27.517   1.329
31830W        W95389  36.981  30.481   3.675
31831W        W95390   9.763  35.473  11.119
31832W        W95391  33.951  40.968   1.228
31833W        W95392  23.004  28.077   9.948
31834W        W95393  24.035  42.326   0.930
31835W        W95394  37.078  22.719  13.001
31836W        W95395  15.788  31.566  11.610
31837W        W95396  16.170   6.364   0.936
31838W        W95397  10.262  40.988  10.580
31839W        W95398  23.544  36.083  13.479
31840W        W95399  13.251  28.992  14.798
31841W        W95400   7.793  21.017  13.823
31842W        W95401  12.162  17.593   2.366
31843W        W95402  32.896   4.809  14.829
31844W        W95403   2.921  33.391  13.838
31845W        W95404  12.122  26.045   2.399
31846W        W95405  43.419  25.069   5.197
31847W        W95406  24.682   3.813   0.304
31848W        W95407  15.647  25.157  13.539
31849W        W95408  37.400   0.406   3.299
31850W        W95409  16.131  32.440  10.902
31851W        W95410  15.745  35.895  11.009
31852W        W95411  13.266  19.173  11.878
31853W        W95412  24.515  21.124   3.375
31854W        W95413  38.987  18.145  11.934
31855W        W95414  13.190  11.760  10.039
31856W        W95415  18.111  39.340  11.498
31857W        W95416  30.468  12.646   0.312
31858W        W95417  28.437  25.120  14.981
31859W        W95418  21.028  43.317  12.560
31860W        W95419  23.046  15.147   1.436
31861W        W95420  18.106  43.009  14.022
31862W        W95421  29.599  12.295   1.429
31863W        W95422  34.879  12.227  12.931
31864W        W95423  39.449   3.457   2.277
31865W        W95424  17.281  37.372  14.311
31866W        W95425  31.973  21.082  14.823
31867W        W95426  42.013   0.933   1.771
31868W        W95427  23.985  41.329   2.854
31869W        W95428  29.029  34.037  11.976
31870W        W95429  10.777  13.695  12.350
31871W        W95430  40.513  17.291   3.807
31872W        W95431   1.411  20.094  12.992
31873W        W95432  20.581  31.022   4.300
31874W        W95433  44.377  33.510  12.428
31875W        W95434  35.932  21.123   3.311
31876W        W95435  31.997  38.446   0.848
31877W        W95436   7.189  29.075   2.864
31878W        W95437  29.985  20.758   1.339
31879W        W95438  43.806   4.215  11.535
31880W        W95439  26.168  32.993  14.294
31881W        W95440   4.272  39.398   1.769
31882W        W95441   2.895  24.493  10.501
31883W        W95442   3.340  43.342   4.679
31884W        W95443  17.705  11.854  14.828
31885W        W95444  17.644  30.592   3.337
31886W        W95445  29.149   8.840   2.859
31887W        W95446  37.364  19.155  12.086
31888W        W95447  33.579  20.623  11.969
31889W        W95448  20.602  41.526   4.803
31890W        W95449  35.060  18.763   1.281
31891W        W95450   2.766  34.513   3.158
31892W        W95451  31.464  32.545  13.064
31893W        W95452  13.821  18.116   0.305
31894W        W95453   4.934  43.998   3.161
31895W        W95454  32.979  25.491   1.703
31896W        W95455  22.557   4.785   3.630
31897W        W95456   7.368  27.549   0.294
31898W        W95457  32.143   9.703  12.940
31899W        W95458  20.135  11.341   0.393
31900W        W95459  22.651  34.562   0.869
31901W        W95460  15.200  12.164   4.742
31902W        W95461   4.268  24.204   1.786
31903W        W95462  21.652  24.518  13.444
31904W        W95463  42.491  32.915  14.287
31905W        W95464  15.213   6.870   0.802
31906W        W95465   3.779  35.443  13.416
31907W        W95466   9.297  42.312  13.503
31908W        W95467  26.191  42.515   1.309
31909W        W95468  10.195   4.287   1.409
31910W        W95469  19.565  24.090  10.912
31911W        W95470  13.345  35.926  10.630
31912W        W95471   8.845  23.525   4.295
31913W        W95472  40.493   4.442  12.340
31914W        W95473   1.428  36.094  11.611
31915W        W95474  24.609  43.813  11.966
31916W        W95475  18.058  16.723   4.146
31917W        W95476  35.078  39.432  14.902
31918W        W95477  13.697  22.556   2.868
31919W        W95478  36.085  36.350   1.890
31920W        W95479   5.278   2.750  12.911
31921W        W95480  31.148  22.699  10.551
31922W        W95481  21.201  29.504  10.521
31923W        W95482   8.883  12.736   5.696
31924W        W95483  10.709   4.317   3.755
31925W        W95484   2.775   8.866   2.341
31926W        W95485   3.876   7.230  12.496
31927W        W95486  36.356  43.860   4.114
31928W        W95487  18.583   7.300   3.728
31929W        W95488  19.160   5.812  13.466
31930W        W95489  22.170  20.077  12.053
31931W        W95490  20.127   4.299   0.414
31932W        W95491  26.072  34.500   2.326
31933W        W95492  27.118  18.662  10.621
31934W        W95493  18.550  29.951  11.537
31935W        W95494   9.751  11.333   4.206
31936W        W95495   3.813  13.755   3.694
31937W        W95496  10.350   7.807  14.401
31938W        W95497  15.823   4.806  12.856
31939W        W95498   8.200  21.227   1.415
31940W        W95499  20.568  42.926  13.919
31941W        W95500  32.554   6.919  12.478
31942W        W95501  32.996  25.150   0.881
31943W        W95502  37.920  43.431  13.000
31944W        W95503  38.946  21.212   1.228
31945W        W95504  25.053  41.519   2.221
31946W        W95505  33.428  25.122   1.427
31947W        W95506  26.118  35.875   0.788
31948W        W95507   5.753  37.869  13.007
31949W        W95508  16.583  11.238  11.970
31950W        W95509  10.369  15.240  10.091
31951W        W95510   0.961  11.692  14.816
31952W        W95511  28.039  31.421  11.943
31953W        W95512  30.564  10.793   4.729
31954W        W95513   7.880  37.566  11.073
31955W        W95514   9.220  25.649  11.025
31956W        W95515  13.141  16.621   0.453
31957W        W95516  10.140  13.199  11.911
31958W        W95517  29.602   2.898  11.469
31959W        W95518  19.566  10.322  11.520
31960W        W95519   0.466   2.834  11.438
31961W        W95520   1.865  38.889   2.881
31962W        W95521  44.314  30.454  14.905
31963W        W95522   4.251  42.392   4.152
31964W        W95523  29.120   5.283   0.748
31965W        W95524   7.809  23.614   3.288
31966W        W95525  39.429  10.662  12.052
31967W        W95526  37.879  18.227  10.980
31968W        W95527   6.749  32.408   2.686
31969W        W95528  33.998  12.612  13.959
31970W        W95529  15.805   8.767   4.262
31971W        W95530  12.762  16.192   2.726
31972W        W95531  19.584  30.571  11.571
31973W        W95532   9.377  10.173  14.347
31974W        W95533  42.961   9.732   4.317
31975W        W95534   2.417  19.635   1.232
31976W        W95535  22.668  27.563   0.391
31977W        W95536  24.008  17.263  13.413
31978W        W95537  33.616   3.260  11.085
31979W        W95538  27.675  27.677  10.571
31980W        W95539  15.152   5.878   1.853
31981W        W95540   4.291   8.825  13.015
31982W        W95541  21.086  20.146  12.523
31983W        W95542  23.666  20.646   0.732
31984W        W95543  20.758  38.559   1.394
31985W        W95544   8.706  21.196  14.875
31986W        W95545   9.285  42.878  11.572
31987W        W95546   8.340  13.127   0.376
31988W        W95547  38.381   4.305   0.830
31989W        W95548  21.654   2.398   1.927
31990W        W95549   0.281  39.536  12.344
31991W        W95550  29.657  10.809   0.739
31992W        W95551   7.668  14.787  11.973
31993W        W95552  33.084  21.065   3.793
31994W        W95553  28.021  14.833   1.220
31995W        W95554  33.913  25.662   0.308
31996W        W95555  14.259   8.374   1.813
31997W        W95556  22.055   1.916   3.710
31998W        W95557   1.895  18.151  14.969
31999W        W95558  14.634  11.372  10.993
32000W        W95559  30.546   4.872   3.632
32001W        W95560   7.881  29.606  14.389
32002W        W95561  21.594   1.768  10.488
32003W        W95562  18.677  37.507   1.863
32004W        W95563  17.612  24.616  13.828
32005W        W95564   5.399   2.287  12.899
32006W        W95565  22.559  42.005   1.396
32007W        W95566   6.819  22.088  10.404
32008W        W95567  40.991   0.783  13.041
32009W        W95568  26.952   8.851   4.710
32010W        W95569  16.680   4.741  14.339
32011W        W95570  32.585  12.676  11.081
32012W        W95571  13.711   2.438   1.403
32013W        W95572  11.178  30.569   0.441
32014W        W95573   3.860  18.710  11.984
32015W        W95574  16.663  17.778  14.454
32016W        W95575   7.309  17.169  12.466
32017W        W95576  35.897  30.062  12.414
32018W        W95577  44.470  22.730  13.348
32019W        W95578   4.809  39.413   1.838
32020W        W95579  32.994  30.505  13.858
32021W        W95580   3.263  11.359   2.800
32022W        W95581  17.592  12.629   3.339
32023W        W95582  14.625  15.582   1.933
32024W        W95583  44.851  17.265   2.704
32025W        W95584   0.361  31.624  11.919
32026W        W95585  10.816  35.428   0.475
32027W        W95586  25.580  41.956   1.801
32028W        W95587  15.584  14.298  11.986
32029W        W95588   0.458  36.035  12.420
32030W        W95589  40.319   4.699   4.136
32031W        W95590  16.289  18.223   0.372
32032W        W95591  29.950  35.928   4.609
32033W        W95592  40.446   8.266  14.367
32034W        W95593  22.689  44.934   0.833
32035W        W95594  16.264  16.086  13.440
32036W        W95595   4.776   9.676  11.881
32037W        W95596   5.240   1.885  11.553
32038W        W95597  37.570  20.198   5.195
32039W        W95598  43.328  41.308  11.489
32040W        W95599  14.295  12.700  11.053
32041W        W95600  28.624  23.641  14.296
32042W        W95601  40.476   2.788  11.095
32043W        W95602  35.462  22.529   0.437
32044W        W95603  31.483   8.291  13.984
32045W        W95604  29.433  24.668  11.936
32046W        W95605  44.890   1.836   1.718
32047W        W95606  37.494  35.571   3.742
32048W        W95607  19.243  37.013   4.251
32049W        W95608   6.883  16.078  10.420
32050W        W95609  38.947  20.237   1.753
32051W        W95610   4.723  40.004   1.390
32052W        W95611  24.156  11.228   2.282
32053W        W95612  26.546  26.514   0.274
32054W        W95613  12.291  16.579   1.422
32055W        W95614   7.221  16.232  11.046
32056W        W95615  39.360  43.912   2.356
32057W        W95616  30.983  38.066   9.994
32058W        W95617  44.377  38.962   3.788
32059W        W95618  18.767  25.213  10.507
32060W        W95619  16.682  26.514  11.067
32061W        W95620  35.598  13.771  13.889
32062W        W95621   7.810  27.609  12.026
32063W        W95622  27.652   6.765   3.205
32064W        W95623  13.681  44.405   1.868
32065W        W95624  40.929  25.523  13.893
32066W        W95625  43.954   9.822  12.961
32067W        W95626  19.584  24.511  12.979
32068W        W95627  32.407  41.532   4.124
32069W        W95628  30.518  16.745   4.234
32070W        W95629  24.081  29.478  11.124
32071W        W95630   1.832   8.879   2.195
32072W        W95631  23.503   9.313  13.370
32073W        W95632  22.581  32.550   3.828
32074W        W95633  18.654   7.266  13.441
32075W        W95634  19.073  27.478   0.934
32076W        W95635  27.574  24.642  13.364
32077W        W95636  32.412  12.339  14.425
32078W        W95637  35.942  12.306  11.598
32079W        W95638  34.044  25.652   1.753
32080W        W95639  25.628  29.065   4.774
32081W        W95640  27.616  10.298  13.519
32082W        W95641  30.425  28.559  12.066
32083W        W95642  38.858  22.606  13.924
32084W        W95643  30.656   3.456   3.385
32085W        W95644  14.330  39.487   2.807
32086W        W95645  36.944   7.231  14.812
32087W        W95646  20.624   2.843   3.187
32088W        W95647  32.636  41.867   1.910
32089W        W95648  10.795   1.803  10.632
32090W        W95649  19.283  36.879   1.767
32091W        W95650   0.971  35.508   0.410
32092W        W95651  18.594   5.739   0.731
32093W        W95652  19.158   2.734  11.095
32094W        W95653   3.382   7.336   2.249
32095W        W95654  43.892  21.167  14.985
32096W        W95655  26.118  21.543  11.525
32097W        W95656  36.570  28.093   5.250
32098W        W95657  13.703  22.635   0.904
32099W        W95658  30.987  27.493  10.920
32100W        W95659  21.692  36.060   0.787
32101W        W95660   4.854  13.327  14.480
32102W        W95661  19.272   1.753   4.793
32103W        W95662  28.446  42.473   3.362
32104W        W95663  10.286   1.768  10.016
32105W        W95664  18.642   0.259   3.747
32106W        W95665  35.960  30.015  10.461
32107W        W95666  10.208  29.075   0.360
32108W        W95667  17.145  33.539   1.908
32109W        W95668   1.406  14.607  10.973
32110W        W95669  10.187  22.028  11.575
32111W        W95670  11.192  36.366   1.932
32112W        W95671  19.187  20.182  12.354
32113W        W95672  23.587  35.043   3.686
32114W        W95673  10.330  33.961   0.320
32115W        W95674  16.293   2.393   3.263
32116W        W95675   4.324  25.072  14.451
32117W        W95676  39.926  44.357   2.274
32118W        W95677  11.815  12.749  11.099
32119W        W95678  43.865  44.499  10.926
32120W        W95679  29.077  35.498   1.327
32121W        W95680  33.990   6.866  14.926
32122W        W95681  15.803  40.429  11.386
32123W        W95682  26.128  14.626   2.730
32124W        W95683  20.119  36.362  10.501
32125W        W95684  44.763   7.780  11.507
32126W        W95685  22.158  27.010   2.671
32127W        W95686   0.460  37.027   4.758
32128W        W95687  36.433  40.369  11.883
32129W        W95688  15.128  23.578   4.226
32130W        W95689   5.791  38.916   0.406
32131W        W95690  21.091  27.673  14.433
32132W        W95691  10.207   9.231  13.491
32133W        W95692  17.143   6.906  13.323
32134W        W95693  22.052  42.987  13.861
32135W        W95694  39.481  42.881  10.465
32136W        W95695  33.950  20.707   1.295
32137W        W95696  25.994  36.544  12.416
32138W        W95697  18.079  36.451  13.423
32139W        W95698  38.902  18.612  12.020
32140W        W95699   5.727  13.801  12.386
32141W        W95700  32.528  36.865   3.696
32142W        W95701  16.705  35.988  12.928
32143W        W95702  11.213  15.670   3.352
32144W        W95703  27.653  31.524  13.064
32145W        W95704   9.791  18.156  12.035
32146W        W95705   1.744  31.529   0.375
32147W        W95706  36.472  17.719   2.395
32148W        W95707  22.999  11.139  14.356
32149W        W95708  40.873  34.513  10.986
32150W        W95709  12.696  19.709  10.512
32151W        W95710  42.420  32.897  13.345
32152W        W95711   3.442  41.961   4.188
32153W        W95712  30.952  14.753  10.551
32154W        W95713   1.916  37.496  12.553
32155W        W95714  44.959  28.050  13.936
32156W        W95715  29.609  40.945  13.327
32157W        W95716  24.698   9.312  11.859
32158W        W95717  37.853   5.855   0.330
32159W        W95718   3.924  15.740  11.051
32160W        W95719  30.058  40.516   4.604
32161W        W95720  13.105  40.479   4.644
32162W        W95721   5.434   7.409   4.646
32163W        W95722  38.402   2.731   0.270
32164W        W95723  22.028  32.555  13.814
32165W        W95724  22.164  24.698   2.198
32166W        W95725  18.683  21.113   4.648
32167W        W95726  29.632   3.834  13.528
32168W        W95727  20.068  37.989   2.664
32169W        W95728   1.955   8.656   1.451
32170W        W95729   0.305  34.578   4.609
32171W        W95730   4.324  34.069  14.781
32172W        W95731  33.934   1.749  14.348
32173W        W95732  25.113  15.650  11.913
32174W        W95733  18.789   5.354   4.328
32175W        W95734   1.245   7.862   1.436
32176W        W95735   1.914  28.516  10.500
32177W        W95736  41.363   6.882  14.419
32178W        W95737  14.733  12.159   1.297
32179W        W95738   9.724  33.444   1.406
32180W        W95739  10.377  30.927  14.865
32181W        W95740  34.371   2.942   0.882
32182W        W95741  14.646  44.317   3.254
32183W        W95742  42.813  26.044   4.785
32184W        W95743  44.930  44.406   1.268
32185W        W95744  43.937  34.897  11.449
32186W        W95745  21.245  25.533  11.431
32187W        W95746  37.369  34.081  10.945
32188W        W95747  36.355  17.086   2.703
32189W        W95748  28.003   3.399  14.452
32190W        W95749  30.602  17.702  12.508
32191W        W95750  38.828  15.142  12.848
32192W        W95751  20.646  32.923  11.064
32193W        W95752   8.848  22.503  13.019
32194W        W95753   6.774   0.963   1.267
32195W        W95754  23.211  32.086  11.961
32196W        W95755  11.183  27.528   1.753
32197W        W95756  39.907  24.126  14.967
32198W        W95757  33.992  42.376  10.449
32199W        W95758  17.728  29.146   2.334
32200W        W95759  19.747  27.496  13.509
32201W        W95760   9.699  15.214  11.494
32202W        W95761  20.552  41.903   3.766
32203W        W95762  36.982  39.538   1.749
32204W        W95763  20.667  39.008   4.708
32205W        W95764  38.000  37.003   4.673
32206W        W95765   9.876  31.427   0.856
32207W        W95766  27.536  15.814  12.860
32208W        W95767   1.885  33.581  10.935
32209W        W95768   6.759   7.783  13.875
32210W        W95769  14.223  19.535   3.218
32211W        W95770  20.767  25.996  12.558
32212W        W95771  11.833   1.872   3.778
32213W        W95772  23.098  10.839  13.446
32214W        W95773  12.774  17.276   0.928
32215W        W95774  39.830   0.745  12.566
32216W        W95775  36.869  38.943  13.458
32217W        W95776   2.465   9.848  14.310
32218W        W95777  17.093  13.293   0.416
32219W        W95778  19.158  26.532   2.815
32220W        W95779  24.588  12.796   9.651
32221W        W95780  27.186  41.431  12.527
32222W        W95781   1.939  43.349  10.502
32223W        W95782  43.789   2.939   3.189
32224W        W95783  30.100  33.964   2.738
32225W        W95784  25.029  15.237  10.586
32226W        W95785  12.235  43.807   3.294
32227W        W95786  15.780   6.239  13.938
32228W        W95787   4.391  34.988   4.759
32229W        W95788  37.035  17.157  12.383
32230W        W95789   9.845   2.287  14.340
32231W        W95790   1.427  44.798   4.213
32232W        W95791  31.084   8.258  13.866
32233W        W95792  23.110  23.984   1.910
32234W        W95793  16.190  12.164  12.878
32235W        W95794   3.320   7.353   0.303
32236W        W95795   6.297   4.323   2.671
32237W        W95796  15.740  11.256  12.548
32238W        W95797  25.199  12.322   5.594
32239W        W95798  28.171  26.628  10.011
32240W        W95799  22.601  16.800   4.719
32241W        W95800  23.021  33.436   3.228
32242W        W95801   3.437   9.298   0.444
32243W        W95802  20.603  27.651  14.348
32244W        W95803  27.482   6.901   1.909
32245W        W95804  37.880  29.063   3.279
32246W        W95805  10.803   7.900   1.767
32247W        W95806  24.193  19.128  14.875
32248W        W95807  37.939  15.627  12.369
32249W        W95808   6.874  24.697   3.200
32250W        W95809  36.581   8.227   0.945
32251W        W95810  44.881  28.549  13.976
32252W        W95811  28.026   6.800   0.285
32253W        W95812  12.806  34.614   3.168
32254W        W95813  33.477  27.066  11.918
32255W        W95814  41.437  35.874  14.809
32256W        W95815  27.692  26.621  14.420
32257W        W95816  31.413   3.743   3.353
32258W        W95817   4.348   9.703   0.881
32259W        W95818  10.257  20.531  13.373
32260W        W95819  10.833  35.913   3.777
32261W        W95820  27.567  40.821  11.496
32262W        W95821  25.182  22.055   3.302
32263W        W95822  28.639  27.488   2.387
32264W        W95823  11.137  21.577  13.864
32265W        W95824  41.524   9.873   0.742
32266W        W95825  15.126   2.766  11.968
32267W        W95826   3.844   4.706   0.312
32268W        W95827  37.428   8.726  12.422
32269W        W95828  21.076  25.560  11.125
32270W        W95829   6.188  24.504   0.246
32271W        W95830   1.264  26.643  10.429
32272W        W95831  37.029   1.834   2.850
32273W        W95832   0.794  11.797  11.032
32274W        W95833   7.726  13.714   0.752
32275W        W95834  31.062  21.655  12.085
32276W        W95835  35.563  27.963  14.468
32277W        W95836  41.041   0.911  11.942
32278W        W95837  10.706  33.566   1.396
32279W        W95838  40.005   2.826   3.371
32280W        W95839  39.061  20.092   2.824
32281W        W95840  34.479   3.329  14.791
32282W        W95841  13.205  33.399   1.776
32283W        W95842  37.926  36.897   2.806
32284W        W95843   2.786  14.820  14.839
32285W        W95844  38.903   5.267   0.245
32286W        W95845  39.958   2.229  11.072
32287W        W95846   1.316  25.643   3.849
32288W        W95847  11.201  17.230  14.334
32289W        W95848   1.390  23.058  13.046
32290W        W95849   0.778  12.665  11.576
32291W        W95850  37.371  23.093   3.383
32292W        W95851  42.944  43.384  11.901
32293W        W95852  14.830   1.819   2.768
32294W        W95853   7.751  23.555  10.979
32295W        W95854  37.973  12.705   5.299
32296W        W95855  33.955  35.985   3.224
32297W        W95856  28.023   7.212   3.736
32298W        W95857  10.772   8.232   2.749
32299W        W95858  39.480  10.148  12.032
32300W        W95859  42.863  26.609  14.982
32301W        W95860  17.564  25.014   2.392
32302W        W95861  13.139  27.518   3.310
32303W        W95862  12.173   4.310  11.042
32304W        W95863  11.841  30.907   0.297
32305W        W95864  17.233  41.939  12.417
32306W        W95865  10.727   1.381  14.505
32307W        W95866  34.966  34.944   3.263
32308W        W95867  42.366  27.489   4.252
32309W        W95868  27.496   7.223  12.519
32310W        W95869  39.529  18.735   1.899
32311W        W95870  27.049  30.961  10.969
32312W        W95871  36.922  13.144  11.463
32313W        W95872  25.525   0.458  13.430
32314W        W95873   9.693  29.607  14.513
32315W        W95874  38.002   5.846  14.429
32316W        W95875  30.947   4.706   2.298
32317W        W95876  12.241  38.075  11.117
32318W        W95877  41.389  18.647   1.368
32319W        W95878   7.210  29.444   3.825
32320W        W95879  14.189   8.799   0.275
32321W        W95880  18.193  16.798   1.398
32322W        W95881  21.028  44.858  11.470
32323W        W95882  22.067  14.315  14.318
32324W        W95883  32.903  35.054   4.597
32325W        W95884  20.625  36.030  10.421
32326W        W95885  14.231  16.160   0.259
32327W        W95886  18.202  33.461  13.370
32328W        W95887  31.094   0.257   1.861
32329W        W95888  39.015  15.585   1.262
32330W        W95889  14.113  37.852  13.010
32331W        W95890   1.468   8.202   4.661
32332W        W95891  13.639  25.576   4.318
32333W        W95892   7.253  22.021  12.565
32334W        W95893  19.065  27.617   2.892
32335W        W95894  10.792  24.507   5.175
32336W        W95895  28.110  39.869  10.643
32337W        W95896  31.953  39.953  12.343
32338W        W95897  17.759   7.358  13.992
32339W        W95898  14.113  25.134  11.930
32340W        W95899   8.167   8.289   1.829
32341W        W95900  38.819   3.781  13.511
32342W        W95901  11.191  24.498  11.892
32343W        W95902  23.019   0.447   1.835
32344W        W95903   3.729   5.250  10.894
32345W        W95904  10.229  40.309   1.730
32346W        W95905  39.811  32.058   2.317
32347W        W95906  19.118  33.883  13.045
32348W        W95907  30.456  20.724   1.786
32349W        W95908  38.911  16.309   4.335
32350W        W95909  18.680  34.043  14.455
32351W        W95910   4.318  12.773  12.479
32352W        W95911  27.102   4.749   2.673
32353W        W95912  27.655  43.873   0.439
32354W        W95913  42.968  25.127   1.443
32355W        W95914  42.451  12.624   2.671
32356W        W95915  35.024  21.171  12.027
32357W        W95916  12.286  28.082   0.894
32358W        W95917   8.663  35.529  13.428
32359W        W95918   9.199  39.449  14.309
32360W        W95919  25.974  33.941   2.856
32361W        W95920  13.343   6.710   2.228
32362W        W95921  36.424  34.588   1.866
32363W        W95922  39.013  36.464   5.096
32364W        W95923  22.591   7.900  10.489
32365W        W95924  32.132  20.090  11.485
32366W        W95925  17.787  30.010  13.332
32367W        W95926   5.378  15.581  11.550
32368W        W95927  28.183   0.249  11.986
32369W        W95928   9.177  22.232  14.470
32370W        W95929   5.895  13.691  10.996
32371W        W95930  21.753  37.378  14.874
32372W        W95931   2.358  21.031   3.717
32373W        W95932  26.550  11.296  12.847
32374W        W95933  31.118  24.156  13.372
32375W        W95934  10.369  17.062   3.866
32376W        W95935  24.978  42.436   2.703
32377W        W95936  37.931  11.214   0.945
32378W        W95937  43.783  41.377   3.814
32379W        W95938  20.089   0.859  14.975
32380W        W95939  15.796   4.875   0.770
32381W        W95940  36.892   7.820  14.027
32382W        W95941  17.291  40.844   4.615
32383W        W95942  40.463   8.670  12.848
32384W        W95943   0.281  26.513  11.967
32385W        W95944  23.998  19.093  11.420
32386W        W95945  16.777  26.019  14.325
32387W        W95946  29.489  34.537   1.424
32388W        W95947  21.057  36.469   1.256
32389W        W95948  27.458  16.645   3.823
32390W        W95949  43.996  24.215  14.995
32391W        W95950  44.477  13.795  11.596
32392W        W95951  21.176   3.935   4.728
32393W        W95952  34.590  19.101  10.558
32394W        W95953  16.567  11.278  13.011
32395W        W95954   8.688  40.467  13.392
32396W        W95955  41.786  14.609  11.861
32397W        W95956  24.150   3.936  11.029
32398W        W95957  24.610  34.000   1.829
32399W        W95958  37.350  21.073  10.119
32400W        W95959   3.749  37.396  11.025
32401W        W95960  34.554  37.847   4.704
32402W        W95961  37.511  33.916  14.838
32403W        W95962   8.343  32.549  13.493
32404W        W95963  38.513  16.586  14.999
32405W        W95964  30.001  17.794   3.387
32406W        W95965   5.388   7.362   2.736
32407W        W95966  21.205  24.493  14.284
32408W        W95967  12.136  13.693  13.980
32409W        W95968  10.788  13.340  11.926
32410W        W95969   4.847  11.741  11.575
32411W        W95970   6.192  25.982   1.288
32412W        W95971  11.269  16.798   2.242
32413W        W95972  13.347  14.656   2.687
32414W        W95973  21.598   3.377   4.278
32415W        W95974   0.332  38.413  14.448
32416W        W95975  35.001   1.424  11.414
32417W        W95976  44.441  15.322  14.362
32418W        W95977  35.088  14.831  10.571
32419W        W95978  32.954  17.201   2.266
32420W        W95979  36.492  32.564  13.410
32421W        W95980  28.591  42.328  10.615
32422W        W95981  29.631  32.010   0.893
32423W        W95982  30.023  18.599  14.449
32424W        W95983  22.532  29.114   3.364
32425W        W95984  20.728  16.607   0.839
32426W        W95985  36.995   8.171  13.491
32427W        W95986  32.548   1.830  12.497
32428W        W95987  42.919  43.864   1.728
32429W        W95988  10.203  34.558  14.980
32430W        W95989  13.820  39.511   1.344
32431W        W95990  39.935  42.299   0.325
32432W        W95991  30.570  27.667   4.203
32433W        W95992  23.160  34.601  11.565
32434W        W95993  43.821   0.335   3.333
32435W        W95994  16.721  14.222  14.392
32436W        W95995  17.296  27.544  13.413
32437W        W95996  26.076   7.300   1.777
32438W        W95997  21.115  16.601   9.947
32439W        W95998  24.112  44.393   5.132
32440W        W95999  43.876  18.700  14.030
32441W        W96000  15.729   5.234   0.919
32442W        W96001  43.446  40.339   2.332
32443W        W96002  22.666  24.719  10.927
32444W        W96003   2.745  33.607  11.515
32445W        W96004  18.760  32.979   0.354
32446W        W96005  32.999  24.527  10.583
32447W        W96006  28.099  17.290  14.782
32448W        W96007  28.590  33.521  11.048
32449W        W96008   8.805  10.139   0.409
32450W        W96009  20.650  35.506  14.415
32451W        W96010  11.368  43.388  12.968
32452W        W96011  18.679  37.006   1.709
32453W        W96012  25.130  30.634   3.794
32454W        W96013  41.392  19.203  14.412
32455W        W96014  28.519  19.255  10.929
32456W        W96015  28.033  28.991   4.640
32457W        W96016   4.375  26.516   4.244
32458W        W96017  21.173   2.879  12.096
32459W        W96018   2.449   6.404   1.751
32460W        W96019  36.589  30.146   0.918
32461W        W96020  23.036   8.175  11.991
32462W        W96021   7.231  29.514   1.913
32463W        W96022  21.657  23.514   2.865
32464W        W96023   9.698   8.274   4.756
32465W        W96024  23.084  12.290   2.805
32466W        W96025  21.080  29.142  13.355
32467W        W96026  35.467  44.964   3.692
32468W        W96027  35.386  22.023  14.023
32469W        W96028  22.183   6.196  14.829
32470W        W96029   2.461   5.811   0.930
32471W        W96030   9.195  24.044  13.471
32472W        W96031  36.076  19.136   2.880
32473W        W96032  17.182  43.915  11.894
32474W        W96033  37.570  44.354   0.924
32475W        W96034  29.066  41.360   3.758
32476W        W96035  35.588  15.261   1.295
32477W        W96036  26.192   2.857  11.897
32478W        W96037  12.770   4.340   4.788
32479W        W96038   3.752  31.122  11.091
32480W        W96039  10.270  19.734  11.609
32481W        W96040  29.081  42.016  14.502
32482W        W96041  14.599  26.110  13.937
32483W        W96042   4.240   4.265   3.336
32484W        W96043  13.221   6.293  10.977
32485W        W96044  37.047  20.262   1.761
32486W        W96045  13.153  44.364  12.930
32487W        W96046  13.713  11.263  14.997
32488W        W96047  22.073  42.339  13.013
32489W        W96048  35.507  18.609  14.885
32490W        W96049  43.454  11.372   0.935
32491W        W96050  30.474  19.619   2.712
32492W        W96051  38.396  19.622   3.680
32493W        W96052  15.619  24.193   4.138
32494W        W96053  10.713  29.595   4.276
32495W        W96054  32.509  41.001  14.358
32496W        W96055   4.935  11.711   5.321
32497W        W96056  21.689  39.321  13.358
32498W        W96057  17.149   4.369   2.843
32499W        W96058   6.310  16.718  10.567
32500W        W96059  43.476  41.016  11.873
32501W        W96060  42.359   5.714   2.803
32502W        W96061  40.430  33.522  11.971
32503W        W96062  21.100  13.347   2.803
32504W        W96063  35.408  26.656   5.132
32505W        W96064  11.187   8.234   1.828
32506W        W96065  36.983  12.135  14.391
32507W        W96066  21.251  18.057  13.974
32508W        W96067  18.664  35.521  12.377
32509W        W96068  16.773   4.333   1.351
32510W        W96069  24.613  38.937   0.903
32511W        W96070   1.448  41.015  10.571
32512W        W96071  17.076  19.155   3.226
32513W        W96072   3.334  40.541  14.770
32514W        W96073  15.107   6.317  14.999
32515W        W96074  41.900  12.669   4.651
32516W        W96075  35.596  21.114   2.391
32517W        W96076   3.297  43.018  10.143
32518W        W96077  33.541  34.463   5.178
32519W        W96078  25.135   8.298   0.931
32520W        W96079  29.049  25.575  13.949
32521W        W96080  37.046  29.019   1.412
32522W        W96081  28.946  11.843  12.991
32523W        W96082  36.037  13.647  12.434
32524W        W96083  17.634   0.817  11.870
32525W        W96084   3.395  12.239  12.090
32526W        W96085  32.624   6.182   2.185
32527W        W96086  18.070  33.541   0.363
32528W        W96087  10.838  31.615  10.483
32529W        W96088  13.172  15.191  11.585
32530W        W96089  12.250  17.196  13.428
32531W        W96090   7.838  24.680  12.991
32532W        W96091  28.570   0.344  14.512
32533W        W96092  44.372   8.677  11.009
32534W        W96093  26.989   0.450   2.737
32535W        W96094   5.786  24.096  13.362
32536W        W96095  43.868  12.716  11.867
32537W        W96096  25.151  16.235  13.333
32538W        W96097   1.971  33.507   1.405
32539W        W96098   5.756   6.745   4.651
32540W        W96099  15.669  40.959   3.193
32541W        W96100  37.004  21.711  11.417
32542W        W96101  25.019  17.265   0.445
32543W        W96102  22.514  25.614   1.790
32544W        W96103   2.874   7.230  12.962
32545W        W96104  39.899  38.562  13.338
32546W        W96105  42.294  17.296   0.758
32547W        W96106  43.982   1.946   2.698
32548W        W96107  10.705  42.835  11.946
32549W        W96108   0.821  11.731  10.104
32550W        W96109  39.814  11.685  10.586
32551W        W96110  14.778  17.068   3.743
32552W        W96111  15.192  43.955   2.277
32553W        W96112   0.767  13.230   1.792
32554W        W96113   8.385  21.556   2.239
32555W        W96114  41.833  44.393   9.955
32556W        W96115  33.478  30.958   2.891
32557W        W96116  37.475  29.014   9.988
32558W        W96117  26.124  33.941  10.433
32559W        W96118   2.757  18.227   0.374
32560W        W96119  30.160   8.743   1.437
32561W        W96120  25.987  43.386   0.753
32562W        W96121   4.778  15.302   0.474
32563W        W96122  33.457  17.135   2.225
32564W        W96123  19.064  37.033  13.526
32565W        W96124   8.863  35.909   4.599
32566W        W96125  44.009  19.720   4.206
32567W        W96126  38.847  30.974   4.725
32568W        W96127  20.099  24.987  14.319
32569W        W96128   1.310  39.537  11.073
32570W        W96129  10.309   0.357   4.185
32571W        W96130  22.721  43.801   3.814
32572W        W96131   6.778   7.714  12.571
32573W        W96132  33.917   5.794  12.941
32574W        W96133   8.710  20.761   4.813
32575W        W96134   2.395  42.369   2.764
32576W        W96135  42.336  43.961  12.873
32577W        W96136  33.072   1.739   2.852
32578W        W96137  39.519  34.050  13.454
32579W        W96138  29.644  36.007  12.963
32580W        W96139  18.600  28.025  11.909
32581W        W96140  19.732  29.159  12.953
32582W        W96141  33.467   0.308   3.300
32583W        W96142  10.702  10.654  12.452
32584W        W96143  13.158  13.333   1.236
32585W        W96144  17.783  17.564   2.338
32586W        W96145  39.008  32.028  10.443
32587W        W96146   3.866  21.245   2.872
32588W        W96147  26.080  31.409  10.571
32589W        W96148  41.980  12.269   0.293
32590W        W96149  28.156  35.110   3.632
32591W        W96150  42.010  43.892   2.682
32592W        W96151  31.028   6.731   4.647
32593W        W96152  41.803  30.593  11.589
32594W        W96153  20.708  33.014  12.951
32595W        W96154   2.355  29.974  13.012
32596W        W96155   4.291   3.383   3.792
32597W        W96156  29.580  11.785   0.347
32598W        W96157  44.769  24.114   0.371
32599W        W96158  27.988  39.492  13.321
32600W        W96159  24.977   5.862   3.852
32601W        W96160  43.292   0.485  11.579
32602W        W96161  17.116  15.277  14.393
32603W        W96162   3.951  23.561   0.437
32604W        W96163   1.368  24.554   2.411
32605W        W96164  37.430  31.500   9.579
32606W        W96165  32.521   0.766  10.904
32607W        W96166  16.175   7.387   5.171
32608W        W96167  20.156  23.114  14.883
32609W        W96168  17.210  44.772  14.404
32610W        W96169  21.605  32.580  14.854
32611W        W96170  26.632   0.774   4.189
32612W        W96171  13.272  27.602   1.754
32613W        W96172  42.777   3.833   2.368
32614W        W96173  13.812  23.684   4.142
32615W        W96174  28.602  41.509   0.943
32616W        W96175  33.576  15.204  11.994
32617W        W96176  42.897  23.224  11.398
32618W        W96177   0.751  15.604  12.408
32619W        W96178  29.549  30.493  10.070
32620W        W96179  38.399  32.541  14.881
32621W        W96180  22.033  32.017   1.358
32622W        W96181  33.395  17.683   1.292
32623W        W96182  41.838   4.271  10.583
32624W        W96183  42.465  32.581  11.107
32625W        W96184  32.977  44.471   0.904
32626W        W96185   7.802  19.273   2.315
32627W        W96186   7.901  23.056  11.384
32628W        W96187   4.223  43.349  14.369
32629W        W96188  32.886   6.803   1.306
32630W        W96189  23.069   6.818  10.502
32631W        W96190  35.915  38.003   4.617
32632W        W96191  25.082  32.091   0.892
32633W        W96192  42.778   9.284   2.380
32634W        W96193  19.558  40.449   5.161
32635W        W96194   8.711  14.311   5.727
32636W        W96195  42.522   8.870  14.473
32637W        W96196  38.978  34.028  10.911
32638W        W96197  37.021  43.931   2.723
32639W        W96198  41.832  35.092   4.717
32640W        W96199   9.353   5.304  14.388
32641W        W96200  22.094   9.273  14.392
32642W        W96201  18.618   4.748  13.504
32643W        W96202   2.340  27.078  10.605
32644W        W96203  30.037   6.858   2.822
32645W        W96204  29.618  33.886   4.277
32646W        W96205   2.925   5.810  14.278
32647W        W96206  34.100  37.472   0.848
32648W        W96207   6.706  17.243   1.253
32649W        W96208  14.237   3.945   0.786
32650W        W96209  35.938  26.092  14.437
32651W        W96210  18.776   8.395   1.935
32652W        W96211  29.646   6.853   4.736
32653W        W96212  30.054   2.808  14.874
32654W        W96213  33.943  10.878  12.956
32655W        W96214   7.237  13.112   5.689
32656W        W96215   4.210  43.802  12.476
32657W        W96216  38.532  34.903   3.334
32658W        W96217   4.314   7.685  10.518
32659W        W96218  13.127  12.815  10.889
32660W        W96219  15.209  28.575   1.857
32661W        W96220  36.874  13.828   4.829
32662W        W96221  25.195  27.678   2.859
32663W        W96222   5.931  17.702   1.268
32664W        W96223  24.052  14.337   1.217
32665W        W96224  19.118  11.237   2.267
32666W        W96225   4.417   5.908   1.806
32667W        W96226   4.839  10.800  12.550
32668W        W96227  32.608  36.967  12.873
32669W        W96228  34.540   5.869  14.879
32670W        W96229  21.680  20.603  14.940
32671W        W96230  28.478  15.139   2.353
32672W        W96231  22.033  31.567  13.353
32673W        W96232   9.318  33.901   4.686
32674W        W96233  41.530   3.909  10.636
32675W        W96234  42.925  13.131   4.601
32676W        W96235  19.179  43.971  11.953
32677W        W96236   7.332   1.808   2.361
32678W        W96237  24.199  38.408  10.632
32679W        W96238  37.949  26.154   0.287
32680W        W96239  17.232  39.320   9.936
32681W        W96240   7.328  23.013   1.803
32682W        W96241  14.336  19.658  11.101
32683W        W96242  23.011  36.055   4.264
32684W        W96243  26.090  24.101  14.921
32685W        W96244  37.982  23.088  12.534
32686W        W96245  39.028  16.612  13.503
32687W        W96246  27.158  24.093   9.456
32688W        W96247   3.891  19.728  14.296
32689W        W96248  30.972  17.072  12.561
32690W        W96249  15.232  36.976  10.518
32691W        W96250  25.597   8.865  14.397
32692W        W96251   6.320  33.079  13.471
32693W        W96252  31.984   1.871  12.906
32694W        W96253  12.268  13.301  12.942
32695W        W96254  11.705  24.062  10.639
32696W        W96255  31.940  44.861  14.914
32697W        W96256   3.802  40.915   0.284
32698W        W96257  29.983   6.339  11.024
32699W        W96258  39.425   3.866   4.646
32700W        W96259  44.434  32.444  13.478
32701W        W96260  26.042  40.314   1.288
32702W        W96261   6.342  44.498   4.116
32703W        W96262  28.082  19.147  14.802
32704W        W96263  16.798  33.591   1.211
32705W        W96264  19.129   0.248  11.408
32706W        W96265  43.409  26.100   4.686
32707W        W96266  27.989  30.983   1.859
32708W        W96267  28.518  34.076   1.419
32709W        W96268  29.924  22.562  12.402
32710W        W96269  41.393   6.374  14.486
32711W        W96270  33.418  22.648   4.261
32712W        W96271  39.915  21.757   4.660
32713W        W96272   8.195   0.970  13.976
32714W        W96273  41.882  25.181   1.214
32715W        W96274   0.833   2.374  11.093
32716W        W96275  16.139  22.508   3.218
32717W        W96276  28.538  35.932  12.086
32718W        W96277  38.981  38.075   2.320
32719W        W96278   9.886  19.200  10.462
32720W        W96279  18.160   2.306  13.503
32721W        W96280  12.293   8.180   1.378
32722W        W96281  22.067   7.775   2.271
32723W        W96282  18.209  38.551  14.953
32724W        W96283  16.200   7.842  10.568
32725W        W96284  36.910  11.316   9.992
32726W        W96285   2.880   2.310  12.405
32727W        W96286  29.107  44.850   4.260
32728W        W96287  24.601  21.155  12.943
32729W        W96288   8.186  42.995  12.473
32730W        W96289  23.098  16.610  13.335
32731W        W96290  41.340  25.706   2.269
32732W        W96291  18.770  31.036  11.908
32733W        W96292   9.802  11.181   5.263
32734W        W96293  27.107  18.214   1.223
32735W        W96294  44.811  24.663  12.535
32736W        W96295  23.095  44.807   1.891
32737W        W96296  24.201  19.044   2.723
32738W        W96297   9.840  24.010   0.288
32739W        W96298   6.414  41.829  13.492
32740W        W96299  31.132  10.228   3.360
32741W        W96300  24.587  31.505  11.863
32742W        W96301  40.866  26.014  14.506
32743W        W96302   2.254  27.611   0.825
32744W        W96303   5.758  32.097  12.857
32745W        W96304   6.768  44.350   2.234
32746W        W96305  36.482  17.678   0.965
32747W        W96306   8.387  33.063  11.423
32748W        W96307  40.522  25.064  12.400
32749W        W96308  33.995  27.526   1.717
32750W        W96309  31.965  12.656  13.403
32751W        W96310  17.685  23.984   3.767
32752W        W96311  36.467  12.621   4.602
32753W        W96312  23.233  13.811  10.525
32754W        W96313  22.048  28.083   2.665
32755W        W96314   3.259  12.300  12.939
32756W        W96315  12.299  36.575   4.341
32757W        W96316  23.005  31.559  13.344
32758W        W96317  17.723  43.449   3.766
32759W        W96318  43.942  36.040   1.858
32760W        W96319  43.371  15.273  12.017
32761W        W96320   0.839   0.829   3.181
32762W        W96321  27.087  24.112   1.280
32763W        W96322   3.845  21.149  13.409
32764W        W96323  15.797  29.075  14.329
32765W        W96324  19.608  31.951  12.829
32766W        W96325  25.974  31.474  13.495
32767W        W96326  11.693  32.516   2.866
32768W        W96327  14.697  13.237   3.253
32769W        W96328  28.946  44.981   2.847
32770W        W96329  36.523  21.233   3.340
32771W        W96330  42.361  25.011  11.555
32772W        W96331   1.971  14.157  11.472
32773W        W96332  23.694  38.067  14.505
32774W        W96333  16.671  14.110  10.998
32775W        W96334   3.331  26.151  13.353
32776W        W96335  16.174  23.031   3.850
32777W        W96336  35.016  35.360   3.338
32778W        W96337  41.852  31.039   2.189
32779W        W96338  30.624  37.368   4.712
32780W        W96339  17.187  27.953   3.801
32781W        W96340  24.148   9.774   4.740
32782W        W96341  17.207   9.310   9.955
32783W        W96342  32.575  11.789   0.278
32784W        W96343  41.977  28.594   4.662
32785W        W96344  29.966  12.708  13.324
32786W        W96345  36.492   1.891  14.890
32787W        W96346  29.967  13.732   3.746
32788W        W96347  44.836  43.892  11.929
32789W        W96348  40.848  30.569   0.965
32790W        W96349  16.123   4.236  13.026
32791W        W96350  44.474  39.062  12.901
32792W        W96351  22.231  17.717  14.346
32793W        W96352   3.319  20.094   0.454
32794W        W96353  15.751  19.046   2.214
32795W        W96354   0.363  34.866   0.352
32796W        W96355  29.175  25.155   4.821
32797W        W96356  11.757  23.599   4.321
32798W        W96357  19.069  26.009  10.636
32799W        W96358  18.551  32.059   3.813
32800W        W96359  36.981  24.706   1.240
32801W        W96360  10.659   1.433   2.399
32802W        W96361   6.316  43.480   0.373
32803W        W96362   0.307   8.226   3.196
32804W        W96363  30.115  42.029   3.805
32805W        W96364   5.293  34.897   1.425
32806W        W96365  40.500  13.797   3.708
32807W        W96366  21.116   4.401  14.970
32808W        W96367   2.393  25.070   3.297
32809W        W96368  28.586   1.896  13.481
32810W        W96369   8.213  15.723   2.695
32811W        W96370   8.366  16.758   4.259
32812W        W96371  27.093  39.925  13.365
32813W        W96372  42.899  19.708  11.413
32814W        W96373   3.773  14.160  13.310
32815W        W96374  30.058  33.091  12.028
32816W        W96375  42.817  38.950   4.113
32817W        W96376  32.104  32.962  11.955
32818W        W96377   2.465  15.295   1.808
32819W        W96378  16.239  19.681   0.252
32820W        W96379  23.022  28.004  12.511
32821W        W96380  40.323  41.424  13.468
32822W        W96381  34.431  44.863   0.446
32823W        W96382  21.534  18.697  12.054
32824W        W96383   5.755  13.611  11.887
32825W        W96384   2.934  11.174  13.983
32826W        W96385  22.672   4.328   4.601
32827W        W96386   2.809  16.104  14.340
32828W        W96387  43.508  36.064   4.290
32829W        W96388  14.327  32.518  10.419
32830W        W96389  39.320   5.276  11.077
32831W        W96390   0.787  36.516   2.897
32832W        W96391   3.277   5.881   9.971
32833W        W96392  27.106  25.493   1.292
32834W        W96393  31.527  13.733   1.270
32835W        W96394  16.135  37.363   4.304
32836W        W96395  42.389  21.717  10.492
32837W        W96396  27.136  39.434  13.046
32838W        W96397  31.022   3.314   3.270
32839W        W96398  29.968  43.885  13.935
32840W        W96399  12.211  15.646  12.853
32841W        W96400  34.045  20.076   3.632
32842W        W96401  21.755   8.784   2.191
32843W        W96402  15.813  39.863   0.846
32844W        W96403  19.690  10.283   1.829
32845W        W96404  34.929  29.995  14.321
32846W        W96405   8.241  41.338  12.003
32847W        W96406  34.496   2.943   4.226
32848W        W96407  15.703  31.480  13.975
32849W        W96408  37.060  25.968  13.881
32850W        W96409   6.881  42.845  11.460
32851W        W96410   9.797  38.873  10.926
32852W        W96411   1.443   7.229  10.908
32853W        W96412   7.405  30.909  12.570
32854W        W96413  27.598  41.424   4.113
32855W        W96414  35.479  20.063  12.038
32856W        W96415  31.960  34.375   1.235
32857W        W96416   5.792  14.190   2.868
32858W        W96417  41.821  17.206  13.484
32859W        W96418  27.463  24.016  12.557
32860W        W96419  10.230  30.476   2.694
32861W        W96420  26.544   0.940  13.820
32862W        W96421  42.867  43.366   4.705
32863W        W96422  12.194  38.979   2.881
32864W        W96423  13.127  11.321  12.839
32865W        W96424   4.435   0.262  11.609
32866W        W96425  33.097   4.391   2.679
32867W        W96426   6.285   7.745   9.947
32868W        W96427  18.092  39.386  10.526
32869W        W96428   4.921   6.307  13.057
32870W        W96429  35.468  34.460  11.561
32871W        W96430   1.882  35.499  12.446
32872W        W96431  15.319  23.633  12.402
32873W        W96432  15.775  16.775  11.093
32874W        W96433  40.363  38.403  12.004
32875W        W96434  22.059   1.450  12.384
32876W        W96435  37.909   4.276  12.352
32877W        W96436  40.532  21.593   3.812
32878W        W96437  43.795  37.491   0.336
32879W        W96438   3.751  24.481  14.471
32880W        W96439   1.775   2.782   2.692
32881W        W96440   3.328  42.476   1.250
32882W        W96441  21.227  13.122   3.711
32883W        W96442  41.887  14.634   2.823
32884W        W96443  28.176   7.277   5.160
32885W        W96444  24.162  31.098   2.727
32886W        W96445   2.792  16.222   2.405
32887W        W96446  19.188   2.417  14.279
32888W        W96447  24.682  21.529   5.222
32889W        W96448  11.326  37.866  13.030
32890W        W96449   2.903  39.868  10.572
32891W        W96450  22.716   7.805   2.191
32892W        W96451   6.193  40.417  12.445
32893W        W96452   6.316   8.692   1.781
32894W        W96453  39.467   9.782  10.494
32895W        W96454  13.141  24.707  14.964
32896W        W96455   4.314  25.117   3.198
32897W        W96456  12.709  26.985   0.274
32898W        W96457   1.308  29.532   1.338
32899W        W96458  31.505   3.910   0.951
32900W        W96459  17.643  26.041   0.813
32901W        W96460  23.017  18.283  10.600
32902W        W96461  17.186  38.065   3.717
32903W        W96462  37.024  29.489  12.084
32904W        W96463  26.621  16.184   0.862
32905W        W96464  15.227   1.942   3.262
32906W        W96465   4.283  12.277  11.935
32907W        W96466   3.433  43.897  10.493
32908W        W96467   1.918  32.541   4.689
32909W        W96468  41.348   1.295  10.895
32910W        W96469  23.492  17.161   1.771
32911W        W96470  20.726   8.188   1.730
32912W        W96471  29.092   3.391  12.982
32913W        W96472  32.995  15.183  11.013
32914W        W96473  33.399   4.878  13.340
32915W        W96474  32.509  21.255   1.436
32916W        W96475  23.598  29.170  10.973
32917W        W96476  13.248  42.031  12.495
32918W        W96477  18.679   1.791  10.981
32919W        W96478  18.261   8.284   4.270
32920W        W96479  43.388  20.207  13.339
32921W        W96480   5.351  13.752  11.083
32922W        W96481   2.959  14.155  12.405
32923W        W96482  22.717   4.353   2.269
32924W        W96483   4.753  17.257  12.084
32925W        W96484  43.342  36.971   1.325
32926W        W96485   1.933   1.385   3.178
32927W        W96486  39.542  19.224   4.329
32928W        W96487  22.504  43.424  11.560
32929W        W96488  34.495  31.152   1.802
32930W        W96489  20.114  14.762   0.850
32931W        W96490  29.451   0.293  10.606
32932W        W96491  40.325  17.208  10.457
32933W        W96492  32.400  29.529   4.770
32934W        W96493  15.669   8.787   0.477
32935W        W96494  16.168  18.774   3.649
32936W        W96495  31.408  26.518   4.693
32937W        W96496  31.958  37.901  10.041
32938W        W96497  14.229  25.602   3.661
32939W        W96498  35.087   2.396  12.021
32940W        W96499  17.603  28.638   2.778
32941W        W96500  28.070   9.165  10.014
32942W        W96501  27.492  12.774   3.196
32943W        W96502   2.777   4.875   4.147
32944W        W96503  42.332  40.311  12.393
32945W        W96504  25.109  12.348  13.363
32946W        W96505  41.802  14.634  14.849
32947W        W96506  35.453  36.001   2.281
32948W        W96507  43.436  40.959   2.870
32949W        W96508  35.999  15.209  13.834
32950W        W96509  28.656  14.247  13.016
32951W        W96510  43.016  12.741   1.379
32952W        W96511  34.581  36.371   2.366
32953W        W96512  36.080  35.595  13.000
32954W        W96513  24.132  36.408   3.862
32955W        W96514   0.452   9.740   1.450
32956W        W96515  36.566  35.078   1.875
32957W        W96516  31.565  30.484   0.737
32958W        W96517  36.076  33.458  13.544
32959W        W96518  34.024  25.986  13.994
32960W        W96519   0.371  16.113   0.389
32961W        W96520  36.048   5.803   1.791
32962W        W96521  33.126  38.364   5.149
32963W        W96522  24.625  37.457   4.778
32964W        W96523   5.333  11.254  12.528
32965W        W96524  34.883  12.849  11.431
32966W        W96525  14.198  22.547  14.476
32967W        W96526  12.287  18.758   3.352
32968W        W96527  28.115  10.318  11.475
32969W        W96528  26.030  19.552  10.490
32970W        W96529  16.273  18.178  13.878
32971W        W96530   6.197   1.443  12.433
32972W        W96531   0.904   1.252  11.120
32973W        W96532   1.414  17.772  10.632
32974W        W96533  20.706  11.792  10.603
32975W        W96534  36.415   6.376   3.267
32976W        W96535  36.506  23.719   4.680
32977W        W96536  15.784  33.102   1.767
32978W        W96537  39.547   4.880  13.408
32979W        W96538  42.906  21.753  13.324
32980W        W96539  19.740  35.029   2.740
32981W        W96540  31.980  36.552   4.743
32982W        W96541  25.518  37.974  14.906
32983W        W96542   2.931  44.497   1.923
32984W        W96543  24.681  43.378  11.035
32985W        W96544  19.245  20.761  12.091
32986W        W96545  33.473   9.863   0.289
32987W        W96546  28.630   9.376   3.385
32988W        W96547  42.289  26.148   0.836
32989W        W96548  21.527  33.577  12.925
32990W        W96549  21.216  27.464  11.901
32991W        W96550  31.629  32.125   9.967
32992W        W96551  31.546  34.061   1.405
32993W        W96552  40.442  40.928  12.836
32994W        W96553  43.990  16.631   2.254
32995W        W96554  40.343  43.371  14.340
32996W        W96555  40.310  26.027   4.637
32997W        W96556  36.966  23.677  13.398
32998W        W96557  35.396   2.917   1.304
32999W        W96558  44.299   4.349   0.888
33000W        W96559  36.359  28.029   0.963
33001W        W96560  28.583   0.824  10.962
33002W        W96561  41.848  23.205   2.874
33003W        W96562  20.695  39.414   1.730
33004W        W96563   3.834   4.822  12.482
33005W        W96564   1.445  21.559  14.413
33006W        W96565  42.318  26.063   2.803
33007W        W96566  26.079  14.723   2.205
33008W        W96567  11.198  44.377  13.825
33009W        W96568  28.046   2.372   2.235
33010W        W96569  21.118  14.784   1.759
33011W        W96570   2.849  38.380   4.753
33012W        W96571   4.447  17.752   2.185
33013W        W96572  34.428  28.622   1.424
33014W        W96573  34.444   5.772  11.405
33015W        W96574  32.932  40.019  14.001
33016W        W96575  19.115  31.636  13.352
33017W        W96576  33.115  23.696  10.629
33018W        W96577  23.629  43.766  12.556
33019W        W96578  37.853  24.035   0.343
33020W        W96579   5.360  12.649   0.347
33021W        W96580   9.341  32.119  14.950
33022W        W96581  28.553   6.195   3.797
33023W        W96582   7.270   9.724  11.563
33024W        W96583  39.993  11.177   1.913
33025W        W96584  31.439   0.441  11.482
33026W        W96585  22.701  30.033   3.835
33027W        W96586  29.593  35.493   3.757
33028W        W96587  13.295  40.925  13.028
33029W        W96588  42.886  42.926   1.903
33030W        W96589  24.163  11.158   3.205
33031W        W96590  14.660  22.729  12.530
33032W        W96591  38.882  44.266  10.033
33033W        W96592   0.271  28.623   2.795
33034W        W96593  19.595   5.325   2.226
33035W        W96594  34.080  15.281   2.212
33036W        W96595  39.869  28.947  13.821
33037W        W96596  16.281  36.003   1.873
33038W        W96597   5.216  42.888   4.136
33039W        W96598   5.900  41.793  14.900
33040W        W96599  43.786   4.897   1.861
33041W        W96600  25.001  15.151  11.010
33042W        W96601   1.382  21.251   1.807
33043W        W96602  38.439  10.177   1.843
33044W        W96603  41.969  32.592  12.420
33045W        W96604  16.295  10.663  11.412
33046W        W96605  38.853   7.684   1.417
33047W        W96606  34.545  44.348   3.693
33048W        W96607   4.842   9.381   0.919
33049W        W96608  19.650  22.540   0.906
33050W        W96609   2.317  15.320   2.408
33051W        W96610  32.993   2.790  12.853
33052W        W96611   6.339  35.958   1.297
33053W        W96612  26.656  35.914   4.609
33054W        W96613  27.197   6.331   3.280
33055W        W96614  36.564   6.829   4.305
33056W        W96615  34.467  14.312  11.604
33057W        W96616  19.171  42.961  13.802
33058W        W96617  24.224  34.880  10.543
33059W        W96618   5.348  34.512  12.549
33060W        W96619  11.788  26.585   0.734
33061W        W96620  14.614  13.723   0.478
33062W        W96621   5.350   2.388   2.839
33063W        W96622  42.892   8.796  14.912
33064W        W96623  17.097  28.162   1.279
33065W        W96624  44.802  18.640  10.915
33066W        W96625  32.395  15.150  14.923
33067W        W96626  36.982  12.728  14.438
33068W        W96627   3.913  35.599   1.892
33069W        W96628  38.044   5.746  12.051
33070W        W96629   6.679   8.343   1.806
33071W        W96630  10.641  35.069   0.392
33072W        W96631  42.341  35.097  11.516
33073W        W96632  25.536  44.829  11.450
33074W        W96633  14.721  11.340  14.809
33075W        W96634  12.683   5.305   3.671
33076W        W96635  28.049  21.610   3.369
33077W        W96636   4.698   4.839   4.213
33078W        W96637  22.079   9.705   4.319
33079W        W96638  32.960   8.849   4.826
33080W        W96639  40.828   5.433  13.480
33081W        W96640   3.389  19.564   1.281
33082W        W96641   9.883  18.198   0.891
33083W        W96642  10.846   6.695  14.939
33084W        W96643  11.194   4.735   1.330
33085W        W96644  11.350  22.014  13.338
33086W        W96645  11.205  37.577  10.960
33087W        W96646  14.750  20.136   1.913
33088W        W96647  37.060  28.468  11.010
33089W        W96648  17.077  24.542   2.209
33090W        W96649   0.934  33.541   1.695
33091W        W96650   5.226   9.682  11.378
33092W        W96651   7.669  41.322   1.284
33093W        W96652   0.267   4.216  10.987
33094W        W96653  28.071  42.003   0.272
33095W        W96654  36.893   5.422   2.793
33096W        W96655  42.823   3.767   4.295
33097W        W96656  31.900  19.723   0.780
33098W        W96657  18.577  30.484   3.253
33099W        W96658  44.485   5.690  10.499
33100W        W96659  25.087  26.118   2.354
33101W        W96660  35.885  31.615  10.434
33102W        W96661  18.788  27.689   3.172
33103W        W96662   7.807   8.753  12.912
33104W        W96663  21.221  11.274   5.239
33105W        W96664  10.267   3.932   0.469
33106W        W96665  33.382  24.508   3.235
33107W        W96666  41.040  32.555  13.043
33108W        W96667   1.296  20.131  14.878
33109W        W96668  37.062   2.794   4.830
33110W        W96669   5.203   8.720  10.474
33111W        W96670  28.642  28.649   0.315
33112W        W96671  12.706   3.310   3.306
33113W        W96672  19.193  18.151   1.749
33114W        W96673  38.823  19.044   1.338
33115W        W96674  12.760  29.500   2.201
33116W        W96675  43.511   7.665  12.406
33117W        W96676  18.693  40.034  13.971
33118W        W96677   0.357   4.799  14.433
33119W        W96678  31.941  20.057  12.528
33120W        W96679  38.401  14.240   0.330
33121W        W96680  13.673  39.934  13.841
33122W        W96681  40.367  31.545  13.791
33123W        W96682  44.916   2.257   4.319
33124W        W96683  25.205   6.183  13.989
33125W        W96684   6.835  37.023   1.780
33126W        W96685   5.809   1.751  14.762
33127W        W96686  22.251  24.020  13.460
33128W        W96687  29.939  25.502  11.520
33129W        W96688  28.088  21.717  11.862
33130W        W96689  15.649  12.637  11.555
33131W        W96690   9.681  42.356  12.893
33132W        W96691  32.993  39.417   3.816
33133W        W96692   6.847  13.603  12.030
33134W        W96693  40.448  32.418   3.860
33135W        W96694   5.913   1.444   0.793
33136W        W96695  12.617  13.681   2.870
33137W        W96696  35.520  25.616  11.606
33138W        W96697  15.817   0.358  14.820
33139W        W96698   1.453  29.950   2.735
33140W        W96699  36.554  18.692   0.295
33141W        W96700  36.409   4.428  14.368
33142W        W96701  24.160  34.441   2.818
33143W        W96702  15.219  20.165   3.246
33144W        W96703   4.938  17.087  14.804
33145W        W96704  13.139  38.386  13.903
33146W        W96705  10.150  40.986   0.370
33147W        W96706  13.682  21.146  12.482
33148W        W96707   2.386  38.550   0.967
33149W        W96708   7.315  36.986  11.105
33150W        W96709  24.566  35.499  13.916
33151W        W96710   8.331  14.694   4.345
33152W        W96711  22.560   8.809  14.907
33153W        W96712  20.220  38.032  13.886
33154W        W96713  26.666   9.337  10.959
33155W        W96714  32.966  25.104  10.494
33156W        W96715  32.593  38.060  14.783
33157W        W96716  34.988  11.353  13.950
33158W        W96717  38.871   9.857  10.939
33159W        W96718   2.780   3.905   3.221
33160W        W96719  16.719  25.546   3.734
33161W        W96720   4.700  44.380   4.253
33162W        W96721  33.403  35.052  10.637
33163W        W96722  33.095  36.539   0.798
33164W        W96723  42.997  36.375  13.390
33165W        W96724  18.668  39.364   2.273
33166W        W96725  23.181  17.303   0.252
33167W        W96726  29.651  13.786   4.185
33168W        W96727  16.613  15.256   1.330
33169W        W96728  39.450  22.520  14.484
33170W        W96729  35.928   8.845   9.660
33171W        W96730   2.852  27.492   4.654
33172W        W96731  35.384   7.839  10.986
33173W        W96732   3.912  19.670  12.071
33174W        W96733  17.171   7.827  13.992
33175W        W96734  24.589  30.041   0.477
33176W        W96735   1.291   4.699   2.264
33177W        W96736  14.679  25.076  11.897
33178W        W96737  12.116   8.390  14.360
33179W        W96738  43.902  32.449  14.473
33180W        W96739  11.298  33.910  14.994
33181W        W96740  19.091  16.265   1.761
33182W        W96741   4.263  27.159   2.295
33183W        W96742  27.112   9.312  12.913
33184W        W96743  27.968  34.091   2.303
33185W        W96744  26.034  10.661  11.049
33186W        W96745  39.958  11.627   3.246
33187W        W96746  26.997  29.521  11.468
33188W        W96747   8.758  34.974  11.414
33189W        W96748   9.817  22.179   1.381
33190W        W96749  40.859   9.889   1.334
33191W        W96750  14.227  26.044   1.298
33192W        W96751  34.588   3.858  13.401
33193W        W96752   4.241  23.593   0.848
33194W        W96753  20.192  11.188  11.905
33195W        W96754  42.966   3.835  14.504
33196W        W96755  41.000   9.200  12.996
33197W        W96756  33.093  31.017   0.417
33198W        W96757  44.773  35.382   1.862
33199W        W96758   1.895   0.965  10.537
33200W        W96759  44.489  38.890  10.115
33201W        W96760   9.387  10.351   0.883
33202W        W96761   7.847   8.795  14.290
33203W        W96762  40.865   8.178  14.766
33204W        W96763  24.713  30.072  14.375
33205W        W96764  17.214  29.978   9.942
33206W        W96765  25.571  37.548   5.135
33207W        W96766  12.345  28.552  12.385
33208W        W96767   4.408  15.730   3.151
33209W        W96768  37.367  19.695  14.871
33210W        W96769  34.876   3.354   3.666
33211W        W96770  28.111   2.898   0.796
33212W        W96771  43.794  25.139   3.298
33213W        W96772  39.840   6.356  10.406
33214W        W96773  21.052   3.302   1.832
33215W        W96774  16.605  15.777  14.310
33216W        W96775  21.080  41.491   2.301
33217W        W96776  36.021  38.069   2.384
33218W        W96777  26.646   8.899   1.882
33219W        W96778   4.410  22.184  11.013
33220W        W96779  14.184  17.154   3.364
33221W        W96780  15.164   3.920   1.272
33222W        W96781  17.588  26.186  14.875
33223W        W96782  27.610  12.250  11.379
33224W        W96783  11.806  38.896  10.498
33225W        W96784  18.099  43.332   2.227
33226W        W96785  32.394  33.401   2.701
33227W        W96786   8.273   2.318  14.458
33228W        W96787  25.674  29.171  10.601
33229W        W96788  32.604  35.854  14.486
33230W        W96789  39.825  26.152  12.051
33231W        W96790  43.881  20.027   1.928
33232W        W96791   1.346   2.745  12.944
33233W        W96792  38.928  26.957  11.521
33234W        W96793  22.598  20.225  10.504
33235W        W96794  29.101   5.934  12.906
33236W        W96795  23.229   8.307  14.873
33237W        W96796  26.496  11.634  10.990
33238W        W96797   7.764  36.447  11.102
33239W        W96798  38.543  36.532   2.874
33240W        W96799   0.312   7.378   3.279
33241W        W96800  14.278   8.383   4.201
33242W        W96801   4.768   7.788   4.277
33243W        W96802  37.897  15.256  14.366
33244W        W96803  24.632  39.882  10.473
33245W        W96804  34.967  43.836  11.397
33246W        W96805  12.318  25.592   3.778
33247W        W96806  39.375  43.875  13.931
33248W        W96807  39.053  25.972   3.696
33249W        W96808  35.102  31.644  14.309
33250W        W96809  20.066  12.230  10.487
33251W        W96810  26.508  10.168  14.857
33252W        W96811   1.887  30.413  13.004
33253W        W96812  18.649  14.191   1.299
33254W        W96813  24.129   6.422   2.310
33255W        W96814  43.798  35.975   1.213
33256W        W96815  32.009   9.884   0.471
33257W        W96816  39.951  36.346  13.869
33258W        W96817   1.448  17.637  11.957
33259W        W96818  16.284  30.925  11.939
33260W        W96819  39.400  14.803  14.311
33261W        W96820   4.759  38.868  12.522
33262W        W96821  28.982  14.778   1.703
33263W        W96822  44.790   2.809   0.248
33264W        W96823  37.922  20.589   3.384
33265W        W96824  10.750  35.900  10.448
33266W        W96825  17.571   2.456   3.852
33267W        W96826   9.161  11.750  12.520
33268W        W96827  44.905  24.139   4.652
33269W        W96828  36.559  44.835  10.531
33270W        W96829   9.365  10.218  10.048
33271W        W96830  12.820  21.550   3.692
33272W        W96831  14.725  31.576  10.642
33273W        W96832  12.342  25.015   2.868
33274W        W96833  34.550  33.615   4.776
33275W        W96834  28.078  31.061  10.910
33276W        W96835  24.559  36.551   4.672
33277W        W96836  43.935  10.778   0.963
33278W        W96837  28.615   6.392  14.005
33279W        W96838  17.173  19.760  14.009
33280W        W96839  22.743  24.599  14.821
33281W        W96840  23.195  37.474   2.417
33282W        W96841   1.828   3.440  10.611
33283W        W96842   1.971  24.510  14.971
33284W        W96843  18.265   2.817  12.884
33285W        W96844  18.201   9.838   3.640
33286W        W96845  21.702  43.017   1.211
33287W        W96846  14.818  16.206  14.458
33288W        W96847  32.910  30.149  12.471
33289W        W96848  32.124   0.921  12.855
33290W        W96849  24.594   9.378   2.403
33291W        W96850  35.461  29.455   1.315
33292W        W96851  17.130  37.002  10.484
33293W        W96852  40.311  11.682   0.408
33294W        W96853  38.067  42.954   2.191
33295W        W96854  25.669  41.408  14.854
33296W        W96855   3.224  35.968  13.923
33297W        W96856  38.963  32.507   3.841
33298W        W96857  43.021   0.285   3.699
33299W        W96858  24.179  16.189  12.362
33300W        W96859  11.734  18.734   4.768
33301W        W96860  25.602  30.453  10.455
33302W        W96861  15.298  43.348  11.517
33303W        W96862  43.913  16.688  11.568
33304W        W96863  33.562  40.825   0.296
33305W        W96864  25.685   9.326  13.900
33306W        W96865   3.855  10.227   2.797
33307W        W96866  38.478   6.349  10.435
33308W        W96867  38.396  36.414  10.148
33309W        W96868  29.475   9.745   3.668
33310W        W96869  29.071   8.789   3.212
33311W        W96870   8.170  11.703  10.410
33312W        W96871  19.721  13.183   1.315
33313W        W96872   7.286  24.638  10.938
33314W        W96873  30.645   9.654   0.838
33315W        W96874  23.704   3.325   4.161
33316W        W96875  40.832  44.424  13.024
33317W        W96876  44.950   6.745  12.999
33318W        W96877   8.666  24.599   3.814
33319W        W96878  43.994   2.470   2.810
33320W        W96879  16.107  29.468   0.325
33321W        W96880   2.420  43.272  11.422
33322W        W96881  41.892  32.600  11.382
33323W        W96882  32.485  26.966   3.630
33324W        W96883   1.245   3.353  11.419
33325W        W96884   8.223  18.290  12.495
33326W        W96885  12.851  19.142  13.916
33327W        W96886  43.477  32.933  13.914
33328W        W96887  16.244  14.718   2.674
33329W        W96888  30.421  26.671   2.335
33330W        W96889  30.542  26.037   0.917
33331W        W96890  42.983   9.872   1.850
33332W        W96891  27.651  33.537  13.965
33333W        W96892  36.464  11.629   2.758
33334W        W96893  33.455   7.802   1.386
33335W        W96894  41.823   4.784  13.345
33336W        W96895  19.731  44.381  13.978
33337W        W96896   6.746  31.413   0.762
33338W        W96897  40.050  42.343  10.989
33339W        W96898   3.262   2.798   3.856
33340W        W96899  30.004  23.198   0.325
33341W        W96900   7.396  10.674   0.842
33342W        W96901  17.590  11.184  12.873
33343W        W96902  41.809  19.698  13.419
33344W        W96903  25.039  18.779  11.082
33345W        W96904  27.597  27.106  14.887
33346W        W96905  10.213  31.958  13.308
33347W        W96906   2.917  44.263   0.474
33348W        W96907  39.055   9.169   1.709
33349W        W96908  19.186   0.892  12.858
33350W        W96909  26.107  39.347   1.304
33351W        W96910   7.754  28.162   2.672
33352W        W96911  19.606  39.511   3.761
33353W        W96912  42.904  38.478  11.020
33354W        W96913   9.785   8.882  11.121
33355W        W96914  16.652  28.061   1.703
33356W        W96915  27.497  26.629  14.856
33357W        W96916  40.351  21.558  11.927
33358W        W96917   0.328  19.091  14.008
33359W        W96918  20.730  17.119   1.216
33360W        W96919  13.747  26.951   5.174
33361W        W96920  13.185   0.412   0.377
33362W        W96921  31.083  13.826  14.432
33363W        W96922  39.834  37.428   4.803
33364W        W96923   1.477   2.350   2.798
33365W        W96924  18.697  42.467  13.379
33366W        W96925  21.048  42.349   3.364
33367W        W96926  21.721  32.390  10.454
33368W        W96927  19.678  31.102  11.431
33369W        W96928  17.092  32.079  12.929
33370W        W96929   7.241  27.567  11.104
33371W        W96930  42.365  15.769   0.855
33372W        W96931  15.743  33.516  14.789
33373W        W96932  42.936  14.807   4.213
33374W        W96933  37.000  10.731   2.901
33375W        W96934  32.898  15.610   4.736
33376W        W96935  43.870  39.906  11.957
33377W        W96936  30.042  42.874   9.996
33378W        W96937  18.588  29.078  13.377
33379W        W96938  36.992  43.354  12.012
33380W        W96939  16.289  35.520  14.424
33381W        W96940  17.652   2.397  12.953
33382W        W96941  34.994  31.492  10.928
33383W        W96942  43.516  38.998  14.392
33384W        W96943  29.435  32.093  11.585
33385W        W96944  14.832  34.516  11.050
33386W        W96945  15.624  11.792   2.322
33387W        W96946   1.293  41.327  12.941
33388W        W96947  37.405  27.653  11.036
33389W        W96948  38.569  30.930  12.491
33390W        W96949   8.812  20.714   3.750
33391W        W96950  28.933  14.734   2.340
33392W        W96951   0.411   0.962   0.388
33393W        W96952  14.203  39.477  14.339
33394W        W96953  26.580  10.688  11.484
33395W        W96954   1.416  38.064  12.919
33396W        W96955  44.967  19.233   0.397
33397W        W96956   3.381  21.208   0.455
33398W        W96957  21.583   1.811  11.437
33399W        W96958  17.712   7.286  12.473
33400W        W96959  27.562   4.345  14.000
33401W        W96960  35.055  15.605   1.868
33402W        W96961  16.172  29.664  14.411
33403W        W96962  38.326   5.432  14.383
33404W        W96963   9.731  31.068   2.332
33405W        W96964  10.370  39.528  11.507
33406W        W96965  13.737  16.231  13.837
33407W        W96966   5.245  11.809   3.686
33408W        W96967  34.461  15.675   1.392
33409W        W96968  13.246   1.956   0.323
33410W        W96969  17.082  14.193  12.882
33411W        W96970  31.426   5.298  11.409
33412W        W96971  23.156  12.622  11.040
33413W        W96972   6.909  30.971  13.444
33414W        W96973  32.887  20.246  14.863
33415W        W96974  16.238  12.801  11.926
33416W        W96975  34.554  30.007  13.510
33417W        W96976  38.011  21.706   0.248
33418W        W96977  22.710  32.439   2.689
33419W        W96978  36.547  28.611   0.389
33420W        W96979  26.691   4.286  10.538
33421W        W96980   8.758  16.683   0.726
33422W        W96981  34.076  41.979   9.673
33423W        W96982  17.270  25.694   1.349
33424W        W96983  23.604  35.069   2.831
33425W        W96984  36.856   6.840   0.965
33426W        W96985  34.067  19.678  12.912
33427W        W96986   2.412  16.184   0.898
33428W        W96987  27.135  34.925  11.442
33429W        W96988  17.596  38.564   3.319
33430W        W96989  28.103   0.935   4.258
33431W        W96990  41.901  17.220  14.400
33432W        W96991  14.718  16.143  14.835
33433W        W96992  28.452  13.278  12.079
33434W        W96993  30.414  35.543  14.794
33435W        W96994  44.384  44.461  11.439
33436W        W96995  21.035  21.743  14.410
33437W        W96996  44.292  19.562   1.447
33438W        W96997  36.076  24.143   2.670
33439W        W96998  10.138  36.912   1.922
33440W        W96999   3.222  32.394   4.820
33441W        W97000  11.179  19.236  14.020
33442W        W97001  20.625  23.152   2.259
33443W        W97002  32.942  38.999  12.828
33444W        W97003   0.922  35.572   4.732
33445W        W97004  28.029  38.899  13.448
33446W        W97005  37.473  39.052  11.906
33447W        W97006  12.784   6.208   4.177
33448W        W97007   3.430  23.707   3.633
33449W        W97008  35.416  13.211  13.972
33450W        W97009   5.767  19.183   4.180
33451W        W97010   9.248  29.155  13.855
33452W        W97011  17.755   4.915  12.564
33453W        W97012  11.216  40.869   2.702
33454W        W97013  25.114  21.545   4.165
33455W        W97014  20.092  13.299  12.032
33456W        W97015  10.211  25.587  14.388
33457W        W97016  34.412   7.224  14.993
33458W        W97017  34.553  29.425   4.125
33459W        W97018   4.292  34.899   1.751
33460W        W97019   1.859  19.084  13.943
33461W        W97020  27.450  15.118  11.925
33462W        W97021  36.058  22.674   3.288
33463W        W97022  29.139   2.268   3.650
33464W        W97023  32.989  18.563  10.560
33465W        W97024  44.425  44.986   4.751
33466W        W97025  20.134   7.369  10.437
33467W        W97026  37.444   1.303  10.469
33468W        W97027  41.359   3.879   4.250
33469W        W97028  28.045  37.548   4.288
33470W        W97029  20.726   8.872   4.774
33471W        W97030  13.219  38.984  12.875
33472W        W97031   2.344  15.318  14.284
33473W        W97032  15.766  28.469   4.816
33474W        W97033  41.009   4.441  13.414
33475W        W97034  35.969   6.815   1.226
33476W        W97035  43.947  17.751   3.356
33477W        W97036  43.862  13.608  14.344
33478W        W97037  25.550  17.591   1.395
33479W        W97038  18.127   0.748   1.326
33480W        W97039  28.102   7.824   2.728
33481W        W97040  35.520  20.236  14.898
33482W        W97041  43.846   4.292   1.804
33483W        W97042  15.236   3.426   1.886
33484W        W97043  17.187   8.711   2.291
33485W        W97044  14.141  26.067   2.702
33486W        W97045  43.990  21.024  12.501
33487W        W97046  18.248  44.373   1.769
33488W        W97047  42.817  42.319   3.151
33489W        W97048  35.996  31.514   4.778
33490W        W97049  25.152  20.086  11.575
33491W        W97050  21.125  23.543   4.186
33492W        W97051   6.403  44.442   0.398
33493W        W97052  17.716   4.714  14.834
33494W        W97053  24.695   8.716   0.925
33495W        W97054  34.112   8.233  12.089
33496W        W97055  16.072  35.415  13.855
33497W        W97056  35.441  34.111   1.420
33498W        W97057  33.911  32.951  13.342
33499W        W97058  31.602  25.171  11.399
33500W        W97059  21.218  17.798  12.877
33501W        W97060  38.909   6.802   2.331
33502W        W97061  12.667  41.498  12.984
33503W        W97062  25.627  26.165  14.883
33504W        W97063  30.127  17.610  14.340
33505W        W97064  26.662  36.917  12.449
33506W        W97065  25.701  22.038  11.010
33507W        W97066  33.922  12.140   0.433
33508W        W97067  29.428  36.470   4.162
33509W        W97068   4.869   4.775   2.253
33510W        W97069  21.605  38.520  10.551
33511W        W97070  11.127  30.565  11.057
33512W        W97071   5.373  35.595  11.447
33513W        W97072  37.349  14.695  10.546
33514W        W97073   5.318  18.746  14.404
33515W        W97074  32.615  26.032  12.918
33516W        W97075  11.316  23.052   5.581
33517W        W97076  24.577  12.314   0.832
33518W        W97077  29.516  37.516   3.740
33519W        W97078  29.927  12.707  12.047
33520W        W97079   4.302  41.970  11.040
33521W        W97080  36.429  10.633  10.634
33522W        W97081  32.555  11.703  14.505
33523W        W97082   9.708   9.334  13.322
33524W        W97083  27.109   3.865   3.316
33525W        W97084  34.477  14.622  10.923
33526W        W97085  25.044  21.701   2.705
33527W        W97086  36.425   9.336   9.641
33528W        W97087  22.584  41.995  13.877
33529W        W97088   6.335  18.713  13.349
33530W        W97089  38.922  29.495  11.381
33531W        W97090  13.729  15.813  13.000
33532W        W97091   2.444  42.498  11.534
33533W        W97092  19.044  25.553  12.983
33534W        W97093  28.516  15.661  12.519
33535W        W97094   8.785  38.357   2.878
33536W        W97095  40.333  11.808   0.840
33537W        W97096  19.141  22.507  12.926
33538W        W97097  31.494  22.998   2.263
33539W        W97098  14.295  40.924  12.865
33540W        W97099  35.568  32.602  11.391
33541W        W97100  42.448  14.784  12.407
33542W        W97101  16.638   0.877  11.402
33543W        W97102  38.067  25.162  13.420
33544W        W97103  21.535  10.169  11.930
33545W        W97104  30.521  39.921  12.832
33546W        W97105  21.532   8.280   3.179
33547W        W97106  14.152  22.607  14.945
33548W        W97107  39.011   2.438  14.974
33549W        W97108  10.633  22.222   1.922
33550W        W97109  41.819  34.069  12.828
33551W        W97110  18.744   5.229  12.394
33552W        W97111  41.525  31.904   4.715
33553W        W97112  44.433  21.171   2.259
33554W        W97113  19.075  28.002   2.849
33555W        W97114  31.011  13.603   0.736
33556W        W97115  22.517  34.115  12.880
33557W        W97116  16.614  43.794   2.331
33558W        W97117   1.756  27.186   4.692
33559W        W97118   8.326  29.039   0.284
33560W        W97119  14.207  30.575  10.561
33561W        W97120   6.840   4.843  13.053
33562W        W97121   9.276  33.975   3.347
33563W        W97122  27.999  20.725   1.926
33564W        W97123  22.206  13.150   3.236
33565W        W97124  40.408  27.456   4.612
33566W        W97125  34.913   7.738  14.014
33567W        W97126  31.044  37.571  11.386
33568W        W97127  20.694  44.410   2.699
33569W        W97128  30.469  19.272   2.415
33570W        W97129  40.537  31.025  14.407
33571W        W97130  13.266   7.870   1.827
33572W        W97131   0.766  32.569  11.497
33573W        W97132   4.754   1.806   0.291
33574W        W97133  17.064  34.016  11.102
33575W        W97134  29.435  14.747  13.847
33576W        W97135  27.133  22.567  14.005
33577W        W97136  37.580  23.173   1.913
33578W        W97137  36.054  38.014   0.804
33579W        W97138  38.373  13.651  14.820
33580W        W97139  17.759  30.118   4.729
33581W        W97140  25.530   5.820   1.300
33582W        W97141  12.225  37.574  13.410
33583W        W97142   7.756  40.438  12.460
33584W        W97143  26.589  27.593   3.362
33585W        W97144   0.265   7.903  13.524
33586W        W97145  26.186   8.852  13.490
33587W        W97146  31.017  28.996  14.902
33588W        W97147  31.153  15.213   2.840
33589W        W97148  10.794  30.015  13.977
33590W        W97149  39.029  12.667   0.436
33591W        W97150   3.278  37.446  10.482
33592W        W97151  35.457  19.177  11.400
33593W        W97152  32.983  37.449   0.297
33594W        W97153  27.971  40.530  10.897
33595W        W97154  41.469  22.162  13.326
33596W        W97155  32.117  14.799  11.915
33597W        W97156  12.777  22.081  11.035
33598W        W97157  35.510  20.622  13.876
33599W        W97158  16.757   7.389  11.439
33600W        W97159  29.012   9.388   2.286
33601W        W97160  24.645   3.418  10.634
33602W        W97161   2.332  24.707   0.939
33603W        W97162  19.768  15.815   2.307
33604W        W97163   0.318  28.048  10.981
33605W        W97164  33.442   3.851   0.472
33606W        W97165  19.227  43.303  13.430
33607W        W97166  21.147  24.165   0.364
33608W        W97167  34.931  26.964   0.932
33609W        W97168   6.324   3.900   4.761
33610W        W97169  39.862   1.417  14.416
33611W        W97170  19.058  17.598   3.357
33612W        W97171  20.093   0.352   1.412
33613W        W97172  39.493   5.891  13.994
33614W        W97173  26.554  31.990   1.709
33615W        W97174  31.562  43.009   0.944
33616W        W97175   9.150  22.595  14.377
33617W        W97176   0.937  36.891  13.937
33618W        W97177  36.402  10.803  13.376
33619W        W97178  36.393  40.371   5.117
33620W        W97179  29.918  41.825  14.336
33621W        W97180  32.415  13.640  14.977
33622W        W97181  30.997  34.527  14.952
33623W        W97182   6.804  24.713  13.373
33624W        W97183  31.630   7.765  10.618
33625W        W97184  35.891   2.870  11.957
33626W        W97185  44.316   3.873  12.969
33627W        W97186  25.499   2.274  12.061
33628W        W97187  44.262   6.726   1.404
33629W        W97188  37.503  18.148   4.284
33630W        W97189  28.003   4.309  12.079
33631W        W97190   8.405   3.830  10.455
33632W        W97191  36.589   0.836   1.854
33633W        W97192  33.580  26.504   0.895
33634W        W97193   1.755  14.242  10.611
33635W        W97194  29.971  19.075   3.337
33636W        W97195   1.347  11.795  13.503
33637W        W97196  33.080  16.629   3.166
33638W        W97197  25.105  21.679   4.664
33639W        W97198  16.316   0.300  12.472
33640W        W97199   2.303  32.433   3.184
33641W        W97200  11.764  11.795  12.906
33642W        W97201  42.938  32.504   1.390
33643W        W97202  14.220  23.577   0.472
33644W        W97203  34.987   2.304   2.317
33645W        W97204  31.917  34.579  13.520
33646W        W97205   8.778  25.660  14.513
33647W        W97206   0.976  33.940   2.325
33648W        W97207   4.242   3.249  14.984
33649W        W97208  14.795  40.536  12.088
33650W        W97209  29.632  27.016   3.215
33651W        W97210  26.129  33.461   2.827
33652W        W97211  27.964  32.921   0.278
33653W        W97212  34.936  36.426   0.383
33654W        W97213   2.388  21.222   0.301
33655W        W97214  38.957  23.062   3.308
33656W        W97215   8.359  38.908   4.788
33657W        W97216  14.749  29.979   1.284
33658W        W97217   7.221  37.837   1.419
33659W        W97218  24.523  12.245  11.513
33660W        W97219   0.385   3.440  14.477
33661W        W97220  22.720   2.336   4.173
33662W        W97221  23.722  37.925  11.464
33663W        W97222  14.692  41.350  13.337
33664W        W97223  38.443  41.003   0.920
33665W        W97224   9.297  31.020   3.346
33666W        W97225  39.859  41.926  14.453
33667W        W97226  12.722  29.546  11.449
33668W        W97227  21.108  17.690   2.250
33669W        W97228  33.402   9.862   2.224
33670W        W97229  37.410  43.333   1.439
33671W        W97230  28.480   6.407  10.606
33672W        W97231  19.550  26.524   1.334
33673W        W97232  10.373  22.682   0.476
33674W        W97233  39.403   4.814   4.743
33675W        W97234  11.769  23.075  14.344
33676W        W97235  25.203  17.723   4.726
33677W        W97236  11.642  31.494   4.776
33678W        W97237   0.375  18.296  10.522
33679W        W97238  44.832  15.790   2.305
33680W        W97239  10.165  24.014  10.945
33681W        W97240  16.803  28.623  11.033
33682W        W97241  22.732   2.830  14.307
33683W        W97242  37.461  17.068  10.904
33684W        W97243  42.991  28.027   3.696
33685W        W97244  27.606  34.999   0.442
33686W        W97245  34.517   0.945  11.965
33687W        W97246  13.599   9.734   4.213
33688W        W97247  39.326   2.414  12.953
33689W        W97248  30.956  26.653  12.402
33690W        W97249  14.286   5.830  12.090
33691W        W97250  30.146  19.221  14.030
33692W        W97251  31.597  14.692  13.034
33693W        W97252  34.494  39.434   0.336
33694W        W97253  31.093   4.940   5.302
33695W        W97254  43.403  23.127  11.597
33696W        W97255  29.000  42.995   4.176
33697W        W97256  21.727  30.041   2.316
33698W        W97257  18.768  23.634  10.969
33699W        W97258   0.796  11.674  12.561
33700W        W97259  23.704  21.690   2.362
33701W        W97260  36.503  19.540  11.055
33702W        W97261  17.777  38.050  10.459
33703W        W97262  39.410   5.228   2.762
33704W        W97263  37.878  41.311  11.067
33705W        W97264  17.655   3.952   1.258
33706W        W97265  28.999  39.826   3.159
33707W        W97266  28.534   5.917  12.826
33708W        W97267  23.570  11.158  13.382
33709W        W97268   2.332   4.699  13.808
33710W        W97269  11.318  15.756   4.164
33711W        W97270  27.173  32.887  13.996
33712W        W97271   6.297   1.911  14.317
33713W        W97272   0.852   5.712   0.244
33714W        W97273  12.232  20.237  14.927
33715W        W97274  31.967  20.143  11.022
33716W        W97275  14.319  20.099  11.908
33717W        W97276  23.138   0.982   3.696
33718W        W97277  44.006  36.371   0.807
33719W        W97278   8.212   7.180  14.844
33720W        W97279  18.252  33.010  10.564
33721W        W97280  34.975  11.239   4.291
33722W        W97281  31.070   8.273  12.958
33723W        W97282  34.066  27.548  11.375
33724W        W97283   5.313  32.983  10.570
33725W        W97284   5.907  21.554  10.617
33726W        W97285  39.423   5.287   4.647
33727W        W97286  29.923  35.857   3.690
33728W        W97287  19.624  36.870  13.054
33729W        W97288  13.836  10.633  10.570
33730W        W97289  40.450  40.423   5.113
33731W        W97290  12.338  20.191   4.181
33732W        W97291   8.268  43.307  12.474
33733W        W97292   6.187   7.774  10.913
33734W        W97293  42.926  35.937   2.805
33735W        W97294  32.512  36.085   0.445
33736W        W97295   3.833  41.029  10.620
33737W        W97296  41.994  22.144  11.931
33738W        W97297  25.559  33.890  13.376
33739W        W97298  11.825  28.059   3.670
33740W        W97299  25.501   0.332  14.445
33741W        W97300   8.715  18.658   2.362
33742W        W97301  32.467  44.339   0.281
33743W        W97302   1.397  29.661  13.006
33744W        W97303  22.672  14.617  13.918
33745W        W97304  40.460  35.935   0.395
33746W        W97305  14.725   4.698  10.511
33747W        W97306  33.569   2.323  14.355
33748W        W97307  41.018  13.757   1.337
33749W        W97308  20.602  25.609  10.602
33750W        W97309  19.746  17.294   3.769
33751W        W97310  28.153  21.110   1.377
33752W        W97311  13.745  31.513  10.455
33753W        W97312  43.510  13.213   0.460
33754W        W97313  22.629  16.173   0.320
33755W        W97314  44.266  34.069  13.314
33756W        W97315  36.021  35.532  10.431
33757W        W97316  33.027  33.079   4.715
33758W        W97317   3.895  31.545  13.052
33759W        W97318  14.139   3.315  14.984
33760W        W97319  19.227  22.077   2.260
33761W        W97320  11.684  23.498   0.742
33762W        W97321  27.960  22.060  11.398
33763W        W97322   4.391   8.754   3.171
33764W        W97323  20.690  12.755   1.212
33765W        W97324  42.926  18.071   0.889
33766W        W97325  40.987   6.716   4.265
33767W        W97326  17.156  14.821   0.447
33768W        W97327   3.433  15.823   1.351
33769W        W97328  24.634   4.765   3.309
33770W        W97329  38.914  14.738  12.966
33771W        W97330  44.358  35.470   1.253
33772W        W97331  30.589  24.979   3.764
33773W        W97332  34.912   7.184  10.989
33774W        W97333  42.905  16.580  12.413
33775W        W97334   7.859  18.563   0.954
33776W        W97335  36.362   2.361  14.987
33777W        W97336   6.357  25.089  14.479
33778W        W97337  18.108  23.712  13.940
33779W        W97338   0.808  22.039  12.550
33780W        W97339  40.499  39.390   2.723
33781W        W97340   8.881  44.354   3.347
33782W        W97341   9.746  29.168   0.942
33783W        W97342  12.753  10.139  14.872
33784W        W97343  30.001  42.288   3.288
33785W        W97344  35.508  26.038  10.889
33786W        W97345  37.529  20.233  12.395
33787W        W97346  27.652  20.755  10.155
33788W        W97347   4.275  38.480   4.606
33789W        W97348   5.386  31.100  11.447
33790W        W97349  43.806  24.719  11.094
33791W        W97350  16.762  13.342  13.980
33792W        W97351  34.028   3.892   1.798
33793W        W97352  17.658  24.540   4.639
33794W        W97353  22.124  13.630  13.951
33795W        W97354  35.456  17.158  14.432
33796W        W97355  31.900  11.682   4.141
33797W        W97356  31.038   1.482  13.938
33798W        W97357  26.557  21.064   2.896
33799W        W97358  13.112  37.013  12.974
33800W        W97359  37.387  35.984  14.818
33801W        W97360  32.457  14.659  13.420
33802W        W97361   3.724  24.146  14.496
33803W        W97362   3.214  26.114  11.485
33804W        W97363   5.334  10.233  10.423
33805W        W97364   1.385  18.144   2.826
33806W        W97365   2.796  12.686   4.831
33807W        W97366   8.397  33.952   4.242
33808W        W97367  20.222  16.201  10.636
33809W        W97368   5.736   9.177  14.951
33810W        W97369  26.082  33.084   1.236
33811W        W97370  23.085   5.338   1.839
33812W        W97371   1.396  18.731   0.736
33813W        W97372  37.833  11.208   1.243
33814W        W97373   7.686   3.381   2.809
33815W        W97374  19.284  44.293   1.303
33816W        W97375  14.341  32.105  11.892
33817W        W97376   3.387   3.945  11.610
33818W        W97377   8.278  13.203   0.886
33819W        W97378  11.649  38.555   3.641
33820W        W97379  11.191  31.976   1.256
33821W        W97380  38.336  39.060   1.698
33822W        W97381   0.359  18.645   3.864
33823W        W97382   7.898   7.873   3.265
33824W        W97383  31.134   7.793  14.768
33825W        W97384  11.355  42.519  12.382
33826W        W97385   2.337  32.065   2.344
33827W        W97386   0.441   5.291  14.877
33828W        W97387  25.605  43.770  13.849
33829W        W97388   2.302  16.111   4.214
33830W        W97389  28.071  43.948  14.319
33831W        W97390   7.219  18.626   4.683
33832W        W97391   4.833   3.361   4.765
33833W        W97392  44.881  21.127   0.291
33834W        W97393  23.565  34.476  11.490
33835W        W97394  28.486  21.665  12.835
33836W        W97395  29.591  37.512  11.043
33837W        W97396  39.852  20.639   0.742
33838W        W97397  13.612  25.003  14.348
33839W        W97398  40.376  32.092  10.101
33840W        W97399  33.491  19.190   2.808
33841W        W97400  10.251  20.162   1.847
33842W        W97401  44.374   5.339   0.311
33843W        W97402   8.679  16.173   4.143
33844W        W97403  40.940  10.208  10.621
33845W        W97404  32.548  27.646   1.419
33846W        W97405  26.666  37.025  12.886
33847W        W97406   5.240  19.726   1.751
33848W        W97407  28.046  44.472   0.431
33849W        W97408   5.238   2.782   2.826
33850W        W97409  43.447  36.021  12.461
33851W        W97410  38.420   1.810   1.723
33852W        W97411  19.687   7.259   2.900
33853W        W97412  37.473  25.524   2.308
33854W        W97413  44.951  35.529  12.043
33855W        W97414   6.838  39.961   4.602
33856W        W97415  10.370  39.512  13.810
33857W        W97416  40.034   8.266   2.365
33858W        W97417  41.015  10.179  12.949
33859W        W97418  35.877  21.249   4.718
33860W        W97419  43.368  10.743  14.857
33861W        W97420  44.436   2.806   1.736
33862W        W97421  11.719  13.292  11.945
33863W        W97422  18.695  41.458   4.236
33864W        W97423  10.780  12.718   3.325
33865W        W97424  23.705  32.018  11.899
33866W        W97425  22.145  14.204   5.102
33867W        W97426  16.169   1.358  11.559
33868W        W97427   0.415  25.027  14.912
33869W        W97428  28.966  24.141   0.310
33870W        W97429   5.825  37.394   0.367
33871W        W97430   2.326  17.125  13.019
33872W        W97431  10.679  42.364   3.189
33873W        W97432  27.579  39.856   4.836
33874W        W97433  12.757  37.855   3.343
33875W        W97434  32.452  42.378   2.699
33876W        W97435  19.680  23.226  12.918
33877W        W97436  35.091  26.029   2.665
33878W        W97437   7.756  28.147  12.422
33879W        W97438  12.744  26.598   2.365
33880W        W97439  42.304  42.436   1.418
33881W        W97440  15.165   1.785  11.528
33882W        W97441  19.146  16.195  12.360
33883W        W97442  33.012  21.732   2.824
33884W        W97443  16.657  29.529   3.844
33885W        W97444  40.982   9.358  12.479
33886W        W97445  19.612  17.706  13.545
33887W        W97446  43.364  24.659  13.442
33888W        W97447  36.023  25.544  11.999
33889W        W97448  11.349   8.277   0.305
33890W        W97449  39.822  38.421   3.756
33891W        W97450  25.531  18.259  14.426
33892W        W97451  15.221   5.837  11.963
33893W        W97452  35.099  16.791  12.510
33894W        W97453  12.768   1.855  10.515
33895W        W97454  33.421  26.982   2.688
33896W        W97455  17.648  31.946   4.179
33897W        W97456  10.705  38.935  11.973
33898W        W97457  33.061   4.413   2.253
33899W        W97458  37.549   9.646   4.715
33900W        W97459   8.728  35.907   4.316
33901W        W97460  35.007  12.753  12.546
33902W        W97461   7.393  31.154   4.294
33903W        W97462  19.100  22.191   2.817
33904W        W97463  35.105  13.202   1.310
33905W        W97464  13.257  35.596  10.511
33906W        W97465  20.189  40.844   3.809
33907W        W97466   0.359  14.725  13.907
33908W        W97467   8.294   1.421  13.974
33909W        W97468   5.886  37.361  14.774
33910W        W97469  36.994   8.684   2.779
33911W        W97470  16.105  30.429  12.863
33912W        W97471  40.401   4.279  11.562
33913W        W97472   0.292   7.717   4.622
33914W        W97473   2.321   9.733   1.738
33915W        W97474  10.336  23.047  10.905
33916W        W97475  33.025  13.726  14.849
33917W        W97476  37.495  24.601   4.300
33918W        W97477  35.910   0.881   4.228
33919W        W97478  33.393  21.222   5.111
33920W        W97479  23.212  21.732  12.938
33921W        W97480  34.965  10.248  11.987
33922W        W97481  34.607  10.352  11.914
33923W        W97482  28.154  41.968  10.523
33924W        W97483  32.500  36.397   4.752
33925W        W97484  16.122  22.140   3.775
33926W        W97485   9.306   1.308  13.012
33927W        W97486  15.251  13.806  10.961
33928W        W97487  16.283  41.419  12.345
33929W        W97488  31.047  26.045   0.448
33930W        W97489   5.236  37.467  14.304
33931W        W97490  36.970  11.685   3.669
33932W        W97491  34.964  16.239  12.055
33933W        W97492  44.332  14.189  14.407
33934W        W97493  27.500  44.919   3.642
33935W        W97494   5.288  42.489   3.790
33936W        W97495  17.591  12.724  14.398
33937W        W97496  21.042  24.611   0.425
33938W        W97497   9.233   7.382   1.241
33939W        W97498  35.478  12.299   2.897
33940W        W97499  20.727   7.699  13.801
33941W        W97500  24.704  44.302   1.862
33942W        W97501  19.676  26.634  11.432
33943W        W97502  31.998   5.381   2.755
33944W        W97503  20.605  41.816   2.265
33945W        W97504  32.088  38.360   5.133
33946W        W97505  13.601   9.185   3.714
33947W        W97506   7.339  27.029  11.484
33948W        W97507  30.517  29.997  12.550
33949W        W97508  14.806  12.752  11.516
33950W        W97509  31.543  42.464  10.513
33951W        W97510  13.216  26.127  13.056
33952W        W97511  34.393  17.793  10.576
33953W        W97512   1.820  24.028   0.960
33954W        W97513   0.415  31.048   0.432
33955W        W97514  34.397  30.462  11.979
33956W        W97515  30.421  41.944   1.334
33957W        W97516  32.896  29.563   0.363
33958W        W97517  41.405  14.604   2.739
33959W        W97518  43.891  39.517   2.211
33960W        W97519  22.080  26.468   0.936
33961W        W97520  39.025  30.555  11.433
33962W        W97521  25.115  36.460  12.429
33963W        W97522   6.274  11.158   1.238
33964W        W97523   2.293   2.835  14.341
33965W        W97524   3.341  22.181  12.899
33966W        W97525  20.692  38.973   0.900
33967W        W97526  17.704  42.508  10.457
33968W        W97527  31.544  16.803   0.404
33969W        W97528  19.562  18.272  11.891
33970W        W97529  35.963   0.790   3.640
33971W        W97530  36.481   6.311  11.008
33972W        W97531  38.378  44.796   3.661
33973W        W97532  39.436  21.117  12.869
33974W        W97533  40.934   7.293   1.253
33975W        W97534   7.208   8.274  12.036
33976W        W97535   8.221  13.272   1.281
33977W        W97536   0.926  28.036   4.131
33978W        W97537   2.889  27.996  14.427
33979W        W97538  42.312  13.336   4.304
33980W        W97539  28.651   2.869   2.786
33981W        W97540  28.495  37.519   1.794
33982W        W97541   3.314  32.089  14.933
33983W        W97542  44.500   3.933   0.778
33984W        W97543  25.567  15.816   0.920
33985W        W97544  40.831   9.371   2.717
33986W        W97545  25.980   2.359   1.292
33987W        W97546  35.109  11.301  11.537
33988W        W97547  30.941  43.387   3.646
33989W        W97548   4.292  44.973   1.366
33990W        W97549  27.022  43.505   0.372
33991W        W97550   4.297  28.581  14.421
33992W        W97551  26.066  40.474  12.487
33993W        W97552  16.746  27.036  13.810
33994W        W97553  13.264  21.108   5.292
33995W        W97554  35.437  25.078  14.275
33996W        W97555  22.587   1.814   2.881
33997W        W97556   0.459  43.837  14.389
33998W        W97557  28.135   2.329   4.723
33999W        W97558  36.491  43.362  14.968
34000W        W97559  25.592   2.731  12.401
34001W        W97560  41.790   2.767  11.887
34002W        W97561   2.378  17.626   1.238
34003W        W97562   3.762  31.644  12.497
34004W        W97563  20.243  31.579  13.891
34005W        W97564  21.698  10.651   2.744
34006W        W97565  37.025  36.928   0.280
34007W        W97566  23.166  24.114   3.327
34008W        W97567  26.606  26.126   3.829
34009W        W97568   4.700  22.057  14.493
34010W        W97569   0.880   2.370   1.899
34011W        W97570  22.147   1.299  11.594
34012W        W97571  31.147   2.410  10.443
34013W        W97572  20.037  12.304  13.362
34014W        W97573  40.812  21.593  14.287
34015W        W97574   5.223   9.654   3.773
34016W        W97575   0.874  43.006  14.379
34017W        W97576  33.614  30.958   9.944
34018W        W97577  16.574  23.708   3.713
34019W        W97578  10.332  30.564  14.847
34020W        W97579  14.649  10.359  12.423
34021W        W97580  12.188  12.742   2.879
34022W        W97581  26.460   2.792   1.410
34023W        W97582  36.352  39.058  10.145
34024W        W97583  22.238  23.636   4.826
34025W        W97584  17.301  44.275   3.195
34026W        W97585   1.315  42.986   0.778
34027W        W97586   5.205  36.459  10.603
34028W        W97587  10.837  35.518   0.857
34029W        W97588   9.782   3.315  10.468
34030W        W97589   4.235  10.193  11.574
34031W        W97590  36.071  22.668  12.887
34032W        W97591  15.650  31.568   3.685
34033W        W97592  44.764  11.339   1.806
34034W        W97593  38.012  39.923  11.973
34035W        W97594  31.511   5.728   2.747
34036W        W97595  20.264  15.122  12.005
34037W        W97596   0.984  24.544  14.379
34038W        W97597  39.420  20.163  12.558
34039W        W97598   8.312  12.196  13.019
34040W        W97599  35.504   7.222  10.980
34041W        W97600  16.205   1.353   3.179
34042W        W97601  14.328  31.058  14.470
34043W        W97602  20.268  26.049  12.487
34044W        W97603  16.793  12.829   1.268
34045W        W97604  22.566  42.488   0.258
34046W        W97605  23.083  20.648   4.672
34047W        W97606  14.725   3.374   2.376
34048W        W97607  41.402   0.812   0.388
34049W        W97608  10.147  30.064   1.753
34050W        W97609   3.413  16.205  12.344
34051W        W97610  16.104   7.309  13.334
34052W        W97611  26.554  43.312  13.019
34053W        W97612   6.702  27.574  12.890
34054W        W97613   8.224   9.336  13.823
34055W        W97614  42.840  38.517   2.393
34056W        W97615   2.406  32.506  14.979
34057W        W97616   7.753   5.930   1.880
34058W        W97617  14.796  24.487   2.703
34059W        W97618  41.018  37.007   0.264
34060W        W97619   1.357  23.081  10.979
34061W        W97620  15.704  10.160   1.806
34062W        W97621  31.983  30.643   0.475
34063W        W97622   3.805  39.809   0.308
34064W        W97623   6.863  30.466   3.762
34065W        W97624  12.293  40.955  12.838
34066W        W97625  35.529   2.378   1.935
34067W        W97626   6.266  24.166  14.514
34068W        W97627   1.436   5.785  11.929
34069W        W97628  37.416  16.221  14.473
34070W        W97629  27.111   5.420  12.479
34071W        W97630  36.509  13.236  11.887
34072W        W97631  32.605  31.625  12.084
34073W        W97632  33.590  21.061  14.827
34074W        W97633  32.526   4.829   2.902
34075W        W97634  12.279  39.007  12.950
34076W        W97635  33.967   0.332   1.429
34077W        W97636  22.068  27.090   3.147
34078W        W97637  43.897  19.168   2.338
34079W        W97638  16.707  16.150   2.705
34080W        W97639  21.534  40.838  11.916
34081W        W97640  35.965  42.516  11.946
34082W        W97641  21.651  15.646  14.404
34083W        W97642  42.282   8.292   2.758
34084W        W97643   5.821  18.703  13.903
34085W        W97644  36.091   6.313   3.799
34086W        W97645   0.908  35.380   3.728
34087W        W97646  14.688  28.946   2.270
34088W        W97647  37.977   0.913   2.356
34089W        W97648  11.344  18.756   3.805
34090W        W97649  10.318  14.283  11.883
34091W        W97650  13.655  34.378   3.362
34092W        W97651   3.931  34.507  10.639
34093W        W97652   9.289  39.822  12.896
34094W        W97653  16.159   2.296   0.405
34095W        W97654  15.750  36.921  10.507
34096W        W97655  12.144   0.825   1.395
34097W        W97656  41.971   5.693  12.351
34098W        W97657  19.058  32.475   4.685
34099W        W97658  40.511  12.661  11.996
34100W        W97659  42.403  13.803  10.587
34101W        W97660  43.822  28.033   3.765
34102W        W97661  15.229  14.166  10.551
34103W        W97662  41.492  24.030  14.983
34104W        W97663   6.261  31.122  13.974
34105W        W97664  24.585   3.911  14.422
34106W        W97665   0.287  24.696   2.823
34107W        W97666  31.117  40.884  14.379
34108W        W97667  25.123  26.650  12.051
34109W        W97668   5.886  18.253   3.837
34110W        W97669  15.782   4.740  11.914
34111W        W97670  35.518  34.885   2.259
34112W        W97671  10.635  22.544   2.178
34113W        W97672  24.686  39.316  10.630
34114W        W97673  40.871   0.962  10.594
34115W        W97674  11.180   6.328   3.346
34116W        W97675  10.789  35.028  12.834
34117W        W97676   4.903  40.476  12.566
34118W        W97677  13.292   0.885   4.336
34119W        W97678  35.533  24.191  13.309
34120W        W97679  32.909  12.192  13.907
34121W        W97680  41.863  11.156   4.776
34122W        W97681   2.868  43.922  12.930
34123W        W97682  42.919  17.587   0.828
34124W        W97683  18.789  15.805   0.457
34125W        W97684  35.387  33.617  12.449
34126W        W97685  14.264   3.752  12.859
34127W        W97686  35.404   2.891  11.438
34128W        W97687  19.255  11.275   0.334
34129W        W97688  26.176   8.858   0.750
34130W        W97689  32.899   1.265   2.232
34131W        W97690  15.628  35.403   4.713
34132W        W97691  18.702  40.441  13.046
34133W        W97692  35.568  19.712  10.916
34134W        W97693  17.208  26.598   0.932
34135W        W97694   4.424  10.221   9.925
34136W        W97695  28.470  31.450   2.825
34137W        W97696  36.485   2.405   4.756
34138W        W97697  22.712  15.318   4.692
34139W        W97698  16.166  28.134  11.909
34140W        W97699  39.017  14.717  14.413
34141W        W97700  39.526   8.376   3.863
34142W        W97701  21.159  16.308   1.890
34143W        W97702  37.962   6.832  12.342
34144W        W97703  43.796  37.457  13.857
34145W        W97704  20.102  28.078   1.213
34146W        W97705  34.946  29.136  11.998
34147W        W97706   6.330  34.914  10.948
34148W        W97707  19.608  16.103  14.025
34149W        W97708  13.197   8.280   3.338
34150W        W97709   8.288   7.296  13.331
34151W        W97710  19.241  11.264  13.461
34152W        W97711  18.699  18.168  10.003
34153W        W97712   1.340  44.963  12.931
34154W        W97713  33.411  26.659   2.688
34155W        W97714   6.345   7.269  11.590
34156W        W97715  10.702  16.577  10.036
34157W        W97716  33.054   5.846  11.976
34158W        W97717  40.473  14.278  11.990
34159W        W97718  23.677  43.813  13.997
34160W        W97719  28.071  21.676  14.981
34161W        W97720  23.161  35.483  12.881
34162W        W97721  18.270   4.241  13.941
34163W        W97722  13.757  38.373   1.724
34164W        W97723  39.464  25.191  14.762
34165W        W97724  28.165  34.865  13.905
34166W        W97725  30.484  41.872   0.249
34167W        W97726  22.616  33.121  13.847
34168W        W97727  16.708  35.057   0.729
34169W        W97728   1.779   2.940  12.359
34170W        W97729  12.793  30.999   0.909
34171W        W97730  30.573  41.903   3.664
34172W        W97731  25.072  17.622   4.261
34173W        W97732  40.859   1.245  14.448
34174W        W97733  34.037  38.911  12.512
34175W        W97734  34.506   7.859   4.192
34176W        W97735  27.040  28.986   2.880
34177W        W97736  26.040  23.154   0.949
34178W        W97737  35.374  37.957   1.720
34179W        W97738  29.607  44.909  12.024
34180W        W97739  31.088   3.775  14.002
34181W        W97740  27.150  39.453   3.832
34182W        W97741   4.749   9.824  14.426
34183W        W97742  42.827  23.534  11.468
34184W        W97743  37.910   5.357  12.378
34185W        W97744  42.353   7.868   4.632
34186W        W97745   1.303  12.699  13.341
34187W        W97746  10.733  42.435   4.200
34188W        W97747  35.991   2.874   3.318
34189W        W97748   5.265   5.845   2.415
34190W        W97749  25.485  13.179   0.461
34191W        W97750  26.045   1.971   4.211
34192W        W97751   5.767  42.914  11.591
34193W        W97752  20.580  30.467  11.908
34194W        W97753  18.261   6.338  13.941
34195W        W97754   0.335  37.542   2.762
34196W        W97755  24.048   4.417   1.891
34197W        W97756  14.664  40.489   0.934
34198W        W97757  24.544  10.281  14.780
34199W        W97758  34.494   1.762   2.201
34200W        W97759   3.352  30.016  11.559
34201W        W97760  17.604   9.647   4.731
34202W        W97761  28.595  18.732  11.892
34203W        W97762   8.900  33.995  11.043
34204W        W97763  39.334  28.608  11.463
34205W        W97764  10.839   3.758  12.956
34206W        W97765  12.697  16.788   1.916
34207W        W97766  17.069   6.845   2.897
34208W        W97767   5.278  30.073   1.216
34209W        W97768  40.843  24.050   3.790
34210W        W97769  13.665  10.764   5.585
34211W        W97770  27.523  43.330  10.586
34212W        W97771  27.073  20.567   9.973
34213W        W97772  14.271   7.766   2.739
34214W        W97773   7.801   5.843  12.843
34215W        W97774  14.729  40.514   3.695
34216W        W97775  38.076   2.966   2.896
34217W        W97776  34.428  17.764   0.324
34218W        W97777  41.800  12.761  10.145
34219W        W97778   3.752  22.104  13.816
34220W        W97779  11.148  25.513   4.816
34221W        W97780  41.792   8.683   4.185
34222W        W97781  15.753  39.824   5.249
34223W        W97782  34.471  39.420  13.424
34224W        W97783  13.181  22.722   2.290
34225W        W97784   4.725   9.741  13.377
34226W        W97785  35.419  38.903  10.509
34227W        W97786  40.871  16.199  11.385
34228W        W97787  42.408   9.855  11.428
34229W        W97788  43.858  39.954  10.595
34230W        W97789  17.564  28.630   4.718
34231W        W97790   3.913  30.082   0.883
34232W        W97791  43.971  30.975   2.869
34233W        W97792  27.117  31.925   2.742
34234W        W97793  10.273  40.500  11.004
34235W        W97794  22.044  15.262   0.391
34236W        W97795  18.207  37.402   1.909
34237W        W97796  21.048  10.291   2.892
34238W        W97797  34.402  15.322  11.420
34239W        W97798  39.858   3.916  13.948
34240W        W97799  27.658   2.874  11.375
34241W        W97800  18.055  38.047  13.498
34242W        W97801  39.404  11.699  13.901
34243W        W97802  35.028  18.135   1.394
34244W        W97803  23.162  27.484  10.968
34245W        W97804  15.785  42.822  11.516
34246W        W97805  35.035   2.823  12.433
34247W        W97806   4.308   2.956  14.297
34248W        W97807   7.361  23.022   3.683
34249W        W97808  33.380  15.791  10.945
34250W        W97809  25.066  11.297  12.555
34251W        W97810   2.727  42.350   3.213
34252W        W97811  40.540   6.297   5.107
34253W        W97812  11.139   3.861  14.465
34254W        W97813   1.878  39.525  12.432
34255W        W97814  41.299   5.925   3.179
34256W        W97815   1.244  14.151   4.327
34257W        W97816  11.133  11.774  13.016
34258W        W97817  26.055  25.074   0.252
34259W        W97818   4.928  23.555  14.894
34260W        W97819  40.914  33.493   4.350
34261W        W97820  32.121  13.745  11.068
34262W        W97821  14.783  10.182   3.814
34263W        W97822  18.182   5.809   0.387
34264W        W97823  31.548  43.388   3.299
34265W        W97824  39.975  27.512   0.459
34266W        W97825  24.096  13.796  11.028
34267W        W97826  24.644  25.970  12.825
34268W        W97827  26.610  38.831  14.332
34269W        W97828   8.253  34.555   3.377
34270W        W97829  42.284  28.131   1.897
34271W        W97830  31.141  19.082  10.607
34272W        W97831  28.037  31.927   0.938
34273W        W97832  29.170   2.254  12.882
34274W        W97833   1.458  20.198  13.308
34275W        W97834  17.731  31.065   3.205
34276W        W97835   9.839   6.188   3.637
34277W        W97836   5.262  10.715  11.436
34278W        W97837  32.142  42.384  11.097
34279W        W97838   2.388  42.808   5.232
34280W        W97839  36.994   1.906  13.500
34281W        W97840  43.790  21.226   2.300
34282W        W97841  28.028  31.006   3.222
34283W        W97842  33.039   8.244   3.690
34284W        W97843  37.021   0.787  11.597
34285W        W97844  23.587  29.135   0.268
34286W        W97845  22.185   6.778  14.924
34287W        W97846  12.250  20.740  13.959
34288W        W97847  41.299   4.937  13.991
34289W        W97848  29.440  17.232  14.322
34290W        W97849  27.965  16.597  10.070
34291W        W97850  36.991   9.681   5.607
34292W        W97851   9.862   0.964   3.716
34293W        W97852  43.856   0.393   4.812
34294W        W97853   7.182  35.567   2.374
34295W        W97854  17.264   2.297   3.850
34296W        W97855   8.790  28.615   4.348
34297W        W97856  14.595  34.928  12.488
34298W        W97857  18.553   9.697  10.914
34299W        W97858   6.406  28.460  14.842
34300W        W97859  26.504  38.345   0.778
34301W        W97860  12.268  19.095   2.888
34302W        W97861  20.056  14.290   4.784
34303W        W97862  14.787  11.779   4.320
34304W        W97863   2.330  42.293   0.468
34305W        W97864  39.424  11.137  12.962
34306W        W97865   1.936  37.350   3.816
34307W        W97866   1.863  39.345   3.806
34308W        W97867  33.546  32.610   5.173
34309W        W97868   7.706  44.351   3.260
34310W        W97869  23.199   8.771  14.301
34311W        W97870  14.227  29.550   2.203
34312W        W97871   3.257   4.807  11.490
34313W        W97872  44.894  17.728  13.861
34314W        W97873  11.863  42.858  11.991
34315W        W97874   4.808  43.985   4.686
34316W        W97875  37.077  19.108   1.866
34317W        W97876  34.532  33.607  13.887
34318W        W97877  20.262  29.976   3.242
34319W        W97878  13.613  15.089   3.364
34320W        W97879  29.060  15.169   1.401
34321W        W97880  32.970   5.727  14.928
34322W        W97881  28.657  30.079  12.067
34323W        W97882  44.780  17.090   3.726
34324W        W97883  23.733  31.580  13.328
34325W        W97884  30.584   3.719   1.289
34326W        W97885  21.151  26.045  10.891
34327W        W97886  31.112  16.186  14.331
34328W        W97887  39.481  41.340   0.752
34329W        W97888  43.002  40.388  12.905
34330W        W97889   6.235  35.033   3.867
34331W        W97890  43.925   6.827  14.323
34332W        W97891  11.833   8.871   3.632
34333W        W97892   9.852  24.067   2.222
34334W        W97893  34.896  27.550   4.682
34335W        W97894  10.337  20.647  13.838
34336W        W97895  12.728   9.659   3.302
34337W        W97896   5.318   4.254   0.746
34338W        W97897  39.958   1.376  14.952
34339W        W97898   7.787  32.889   4.742
34340W        W97899   1.750  40.382  12.013
34341W        W97900  40.362   3.371   1.738
34342W        W97901  14.739   4.898   0.746
34343W        W97902  28.489  25.045  13.882
34344W        W97903  34.474   7.416  12.434
34345W        W97904  10.641  41.524  14.966
34346W        W97905  28.984   5.351   3.292
34347W        W97906  11.165   8.362  10.893
34348W        W97907   6.842  38.048  11.536
34349W        W97908  40.889  42.986  11.974
34350W        W97909  11.340  17.106   2.844
34351W        W97910  21.639  11.357  14.877
34352W        W97911  29.134  27.196   0.384
34353W        W97912  36.967  43.433   3.736
34354W        W97913  34.889  13.628   3.265
34355W        W97914  26.566  12.267  12.404
34356W        W97915  22.046  22.668  11.400
34357W        W97916   3.306   4.817  12.511
34358W        W97917  28.154  17.239  13.421
34359W        W97918   6.788  42.934   4.782
34360W        W97919  36.011  16.267   2.665
34361W        W97920  19.092  19.558   4.835
34362W        W97921  35.369  24.503   0.378
34363W        W97922  25.177  26.537   2.186
34364W        W97923  34.437  21.026  14.951
34365W        W97924  11.695   1.280   1.402
34366W        W97925  24.671  35.025  12.497
34367W        W97926  27.945  32.940  11.450
34368W        W97927   6.741   0.325  14.999
34369W        W97928  42.349  35.457   4.282
34370W        W97929  14.105   3.239  11.908
34371W        W97930  12.335  27.124   0.474
34372W        W97931  14.802  30.999   1.735
34373W        W97932  11.700  24.536   1.852
34374W        W97933  40.542  28.563   4.657
34375W        W97934  39.818  23.603   1.890
34376W        W97935  11.712  44.339   0.341
34377W        W97936  36.978   5.712   2.887
34378W        W97937  36.092  30.498   1.421
34379W        W97938  21.068  36.988   4.197
34380W        W97939  38.519   8.216  14.367
34381W        W97940  22.230   7.846   3.861
34382W        W97941  39.031  10.193   2.184
34383W        W97942  13.705  27.622   4.193
34384W        W97943  14.280  39.423   0.940
34385W        W97944  19.664  42.933  13.315
34386W        W97945  32.014  44.932   4.283
34387W        W97946  23.050  26.060   4.600
34388W        W97947  12.813  39.431   1.353
34389W        W97948  44.934   2.436   2.842
34390W        W97949   2.265   5.706   2.318
34391W        W97950   0.298   6.189  11.936
34392W        W97951  21.655  37.990   3.299
34393W        W97952  20.529  38.048  12.426
34394W        W97953  34.370  38.019  11.953
34395W        W97954  43.862  18.761   0.897
34396W        W97955  27.945  19.146  12.073
34397W        W97956  30.018   4.250  12.393
34398W        W97957   3.317   5.227   1.759
34399W        W97958  22.160  14.828  11.931
34400W        W97959  21.596  35.099   3.196
34401W        W97960   7.847  43.799   2.301
34402W        W97961   5.410  25.147   2.776
34403W        W97962   8.193  35.509  13.410
34404W        W97963  20.564   5.332  13.370
34405W        W97964  41.399   3.739   1.733
34406W        W97965  14.269   2.239  11.495
34407W        W97966  38.497  25.003   4.812
34408W        W97967  11.148  17.781   0.320
34409W        W97968  19.251  22.688  14.912
34410W        W97969  20.561  21.650   0.867
34411W        W97970  33.405  10.684  14.322
34412W        W97971  44.989  41.361  12.831
34413W        W97972   3.249   4.285  14.879
34414W        W97973  37.378  15.730  12.993
34415W        W97974  16.130  14.796   0.909
34416W        W97975  30.431  40.403  14.474
34417W        W97976  41.964  20.713  11.376
34418W        W97977  10.790   9.843  13.487
34419W        W97978   8.670  20.137  10.567
34420W        W97979  13.158  14.625   4.255
34421W        W97980   2.306  34.490   0.428
34422W        W97981   3.239  25.637  10.638
34423W        W97982  33.603  28.553  12.874
34424W        W97983  35.466   9.321   4.225
34425W        W97984  24.680  40.047   1.924
34426W        W97985  16.101  22.557  14.359
34427W        W97986  23.584  22.084  13.330
34428W        W97987  34.111   4.327  14.878
34429W        W97988   8.792   1.841  11.073
34430W        W97989  21.734   6.412   1.813
34431W        W97990   1.841  31.016  13.038
34432W        W97991  18.665   1.408   2.773
34433W        W97992  21.204  15.244   3.733
34434W        W97993  17.267  15.711   1.254
34435W        W97994  44.797  12.302   4.675
34436W        W97995   3.749  18.680   1.319
34437W        W97996  12.279  36.008  11.997
34438W        W97997  25.618   6.852   3.163
34439W        W97998  22.072  11.684  14.339
34440W        W97999   5.368  32.531   3.835
34441W        W98000  15.660  37.570  11.497
34442W        W98001  13.150   4.262  10.524
34443W        W98002  40.344  12.670   3.776
34444W        W98003  17.778  36.994   2.338
34445W        W98004   5.734  33.547  11.460
34446W        W98005  37.385   4.219  12.933
34447W        W98006  28.999  28.492   1.835
34448W        W98007  40.438  22.596   3.353
34449W        W98008   0.478  28.471  12.438
34450W        W98009  30.046  15.264  14.938
34451W        W98010  32.010  20.614   2.394
34452W        W98011  36.950  19.712   1.309
34453W        W98012  17.560   7.226   2.672
34454W        W98013  24.975  18.257  14.902
34455W        W98014   0.287  27.160   4.243
34456W        W98015  11.246  20.575  11.900
34457W        W98016  36.926  41.475   3.202
34458W        W98017  41.389   5.855   0.857
34459W        W98018  37.837  39.424  11.888
34460W        W98019   5.267  15.289   1.862
34461W        W98020   5.239   0.975   4.604
34462W        W98021  27.663  21.245  12.934
34463W        W98022  13.618   9.208   1.699
34464W        W98023  27.037  35.593  11.518
34465W        W98024  19.123  18.287  12.460
34466W        W98025   0.803  21.107  11.874
34467W        W98026  33.386   3.912   1.858
34468W        W98027  28.003  36.010   0.309
34469W        W98028  33.121  34.111  13.541
34470W        W98029  22.545   3.802  12.550
34471W        W98030   5.845  29.926  11.444
34472W        W98031  39.018  10.139   4.655
34473W        W98032  15.132  36.992   0.418
34474W        W98033  41.424  42.025  12.454
34475W        W98034  40.368   3.930  11.540
34476W        W98035  26.517  13.813  10.973
34477W        W98036  35.894   3.822   4.670
34478W        W98037   7.867  38.828  13.063
34479W        W98038  18.624  16.731  10.963
34480W        W98039  40.498   7.838   3.343
34481W        W98040  27.147  23.083   4.197
34482W        W98041  10.338  16.132  12.835
34483W        W98042  44.503  22.505   4.155
34484W        W98043   4.383  35.475  12.346
34485W        W98044   0.306  20.729  14.770
34486W        W98045  22.239  11.280   3.638
34487W        W98046  28.967  21.168   2.727
34488W        W98047  18.108  30.012   1.333
34489W        W98048   4.737  36.912  10.403
34490W        W98049  43.318   4.441   2.369
34491W        W98050  28.000  31.510   4.142
34492W        W98051  26.622  43.800  12.406
34493W        W98052  12.301  18.071   2.899
34494W        W98053  38.890  34.509  13.890
34495W        W98054  36.983  19.551  11.445
34496W        W98055  37.052  28.169   4.613
34497W        W98056   9.315  32.991  14.497
34498W        W98057  30.005   6.823  14.823
34499W        W98058   2.823  40.545  12.945
34500W        W98059  31.615  29.604   3.218
34501W        W98060  29.025   8.744   4.621
34502W        W98061   7.183  43.980   0.771
34503W        W98062  13.608  14.793  14.765
34504W        W98063  11.778  41.302  11.017
34505W        W98064  33.077  43.468   3.218
34506W        W98065  44.780  22.539   3.355
34507W        W98066  30.416  13.833   0.734
34508W        W98067  26.093  22.697  12.457
34509W        W98068  30.413  23.011  10.444
34510W        W98069  41.995  31.537  14.461
34511W        W98070   7.264  27.971   0.421
34512W        W98071  16.105  30.547   4.330
34513W        W98072   8.885  38.395  13.963
34514W        W98073  28.644  20.601  12.465
34515W        W98074   5.284  25.089  13.801
34516W        W98075  27.180   2.237  14.359
34517W        W98076   0.341  25.483   3.725
34518W        W98077  42.441  13.737  11.948
34519W        W98078  38.919  15.268   0.853
34520W        W98079   3.922  40.401  14.874
34521W        W98080  36.574   4.722   1.447
34522W        W98081   2.311  12.326   2.694
34523W        W98082  17.143   9.727  12.462
34524W        W98083  28.436  21.170   0.354
34525W        W98084   7.844  36.963  10.455
34526W        W98085   1.371  31.930  12.349
34527W        W98086  21.666  10.212   2.235
34528W        W98087  11.814   2.742  13.458
34529W        W98088  34.456   2.307   0.449
34530W        W98089  40.801  13.811  10.957
34531W        W98090  24.225  19.543   2.737
34532W        W98091  31.477  19.042  12.847
34533W        W98092   0.829  34.490  13.966
34534W        W98093  21.263   6.844  11.457
34535W        W98094   5.299  16.086  10.947
34536W        W98095  44.850  16.776  11.391
34537W        W98096  26.615  25.023   3.245
34538W        W98097   7.365   8.855   0.369
34539W        W98098  32.422  35.580   3.747
34540W        W98099  10.835   9.340  14.968
34541W        W98100  31.020  29.015  14.516
34542W        W98101   9.695  25.074   3.666
34543W        W98102  23.061   8.256   1.910
34544W        W98103   4.824   4.320   1.352
34545W        W98104   6.338  44.799  12.914
34546W        W98105  27.992  14.103   0.795
34547W        W98106  21.259  28.562   3.209
34548W        W98107  14.630  24.525   3.773
34549W        W98108  27.532  44.463   2.291
34550W        W98109   5.216   8.857   4.310
34551W        W98110   6.249  34.379  14.808
34552W        W98111   2.433  18.053  10.474
34553W        W98112  10.370  14.610  11.584
34554W        W98113  43.844  33.588   1.404
34555W        W98114  27.137  10.785  10.922
34556W        W98115  21.217  24.498  11.527
34557W        W98116  32.434  13.332   3.163
34558W        W98117  41.036  41.026  11.008
34559W        W98118  10.796   6.808   1.780
34560W        W98119   8.765  12.128  12.074
34561W        W98120   1.927  42.489   1.796
34562W        W98121  25.966   7.892  11.373
34563W        W98122  17.168  11.349  11.984
34564W        W98123  26.101  31.151   4.647
34565W        W98124  30.509  20.700  10.631
34566W        W98125  12.305  23.716   0.286
34567W        W98126  32.631  19.540   3.682
34568W        W98127  20.074  20.136   2.353
34569W        W98128  13.690   4.812  13.014
34570W        W98129  18.216   5.316  11.100
34571W        W98130  35.453  36.453   3.754
34572W        W98131  10.857  15.632   2.882
34573W        W98132  20.110  42.935   5.294
34574W        W98133  14.766  13.178  13.467
34575W        W98134  20.571  36.378   2.180
34576W        W98135  33.471   1.935   9.998
34577W        W98136  33.110  20.739   0.936
34578W        W98137  10.825  20.161  10.494
34579W        W98138  39.055  15.823  14.797
34580W        W98139  40.989   9.194   3.749
34581W        W98140   7.837  19.172  14.366
34582W        W98141  38.521  11.175  11.443
34583W        W98142  18.146  37.491  11.376
34584W        W98143  34.424   1.799   2.810
34585W        W98144  13.817   2.780  12.478
34586W        W98145   5.861  18.095  14.491
34587W        W98146   4.756  39.035   0.270
34588W        W98147  14.762  42.361  11.547
34589W        W98148   3.249  35.421  14.443
34590W        W98149  14.236  25.103   5.225
34591W        W98150  11.322  31.478  11.385
34592W        W98151  30.135  10.353  12.524
34593W        W98152  42.793   5.842  14.846
34594W        W98153  21.604  42.379   1.264
34595W        W98154  14.223  31.555   0.843
34596W        W98155  22.736   0.866  13.541
34597W        W98156   3.363   4.353   3.200
34598W        W98157  12.778  25.170   1.355
34599W        W98158  30.039  14.683   2.700
34600W        W98159  36.588  35.563  12.378
34601W        W98160  13.708  31.992  12.434
34602W        W98161  38.338  23.089  11.929
34603W        W98162   4.437  14.672  12.417
34604W        W98163  38.546  14.225   3.229
34605W        W98164  31.517  13.314   0.780
34606W        W98165  27.102  43.340  13.057
34607W        W98166  37.872  31.005  10.135
34608W        W98167  23.499  32.010   2.211
34609W        W98168  21.024  25.970   1.243
34610W        W98169  27.092  27.028  13.328
34611W        W98170  25.121   3.399  14.796
34612W        W98171  44.496  40.887   2.844
34613W        W98172  31.909   2.804   3.181
34614W        W98173  34.864  20.069  12.396
34615W        W98174  21.605   5.331   0.726
34616W        W98175  27.613   0.398  10.910
34617W        W98176  27.987  39.891  14.942
34618W        W98177  44.323  43.858   2.719
34619W        W98178  21.616  38.932  14.277
34620W        W98179   1.346  22.098  12.965
34621W        W98180  39.380   5.384  10.594
34622W        W98181  21.593  42.916  13.371
34623W        W98182   3.401   6.681  14.492
34624W        W98183  24.665  30.931  13.949
34625W        W98184   1.366  13.118  11.871
34626W        W98185  37.045  39.919   3.854
34627W        W98186  14.133  43.382  14.373
34628W        W98187  32.952  39.352   2.802
34629W        W98188   2.403  37.556  11.958
34630W        W98189   9.749  37.047   2.347
34631W        W98190  13.138  30.143  14.986
34632W        W98191  25.064  41.316  13.534
34633W        W98192  13.760   6.210  11.528
34634W        W98193  34.419  31.481   0.809
34635W        W98194   8.342  33.545  13.976
34636W        W98195   3.802  44.938  13.534
34637W        W98196   9.734  23.734   3.216
34638W        W98197  35.048  34.584  14.886
34639W        W98198  26.555  20.596   2.324
34640W        W98199  36.365  10.672  12.986
34641W        W98200   1.774  27.978  10.985
34642W        W98201  44.305  43.999   0.298
34643W        W98202  12.245  14.228  14.396
34644W        W98203  15.093  42.331   3.803
34645W        W98204  42.963  44.992   4.123
34646W        W98205  42.366  22.115   4.311
34647W        W98206  11.642  25.135  11.506
34648W        W98207  30.596  16.270  12.895
34649W        W98208  31.424   3.729   4.725
34650W        W98209  32.005  29.429   0.870
34651W        W98210  26.512  10.155  10.497
34652W        W98211  31.988  16.224  11.585
34653W        W98212  17.703  39.498   1.244
34654W        W98213  33.534  16.793  14.463
34655W        W98214  40.896  35.568  13.891
34656W        W98215  15.640   1.859  12.545
34657W        W98216  39.030  27.573   3.229
34658W        W98217   8.239  16.130  10.549
34659W        W98218  21.038  26.124  13.522
34660W        W98219  19.587  13.158  13.835
34661W        W98220  10.864  40.862   0.847
34662W        W98221  43.885  28.666  13.032
34663W        W98222  34.540  38.909   2.259
34664W        W98223  32.111   1.469  10.420
34665W        W98224  19.078  24.062  12.854
34666W        W98225  30.438  29.090  11.045
34667W        W98226   8.399  30.456  11.960
34668W        W98227  27.038  34.516   4.308
34669W        W98228  32.945  40.380  12.948
34670W        W98229  43.897   0.453  13.425
34671W        W98230  42.948  20.675  12.444
34672W        W98231  44.373  26.008   0.273
34673W        W98232  21.113  32.597   1.857
34674W        W98233   4.781  31.490   4.136
34675W        W98234  37.875  24.690   2.201
34676W        W98235   8.317  27.093   3.859
34677W        W98236   2.867  22.028  14.986
34678W        W98237  30.417   7.299   0.757
34679W        W98238  39.353   2.908  12.946
34680W        W98239   2.332  38.858  10.592
34681W        W98240  19.696  11.218   0.264
34682W        W98241   8.689  25.515  13.525
34683W        W98242  42.345  29.626  12.369
34684W        W98243  17.633  17.236   4.289
34685W        W98244   9.172  29.663   1.701
34686W        W98245   5.758  32.583  10.617
34687W        W98246  19.779  42.886   5.240
34688W        W98247   1.750  18.684  10.614
34689W        W98248  32.564  37.005   1.799
34690W        W98249  23.649  28.122  10.405
34691W        W98250  39.904  14.740   4.154
34692W        W98251  25.663  16.151   2.216
34693W        W98252  24.168  10.701  10.973
34694W        W98253  24.975  28.670  14.022
34695W        W98254  14.597  37.057   3.738
34696W        W98255  16.270  40.393  13.841
34697W        W98256   7.852  28.580   2.389
34698W        W98257  12.252  25.471  10.989
34699W        W98258  42.893  27.193   2.249
34700W        W98259  43.512  33.900   1.775
34701W        W98260  29.024  44.268   1.281
34702W        W98261  12.623  11.262  11.481
34703W        W98262   9.735  41.011  12.073
34704W        W98263  23.566   1.961  14.888
34705W        W98264  31.079  36.367  13.533
34706W        W98265  33.444  12.123   0.484
34707W        W98266  37.461  36.919  14.780
34708W        W98267  37.513  43.865   1.321
34709W        W98268  24.677  24.135   3.674
34710W        W98269   2.741  39.992  12.008
34711W        W98270   4.814  42.898  14.794
34712W        W98271   1.940  36.593  12.418
34713W        W98272  41.908  44.493   2.337
34714W        W98273  24.701  41.508  13.504
34715W        W98274  26.072  15.580  11.470
34716W        W98275   6.882  31.624  14.820
34717W        W98276  36.383  42.308   3.792
34718W        W98277  23.124  11.802   2.292
34719W        W98278  17.720   9.856   4.291
34720W        W98279  32.034  40.497   5.273
34721W        W98280   2.390  35.449   2.314
34722W        W98281  11.206  34.078  14.004
34723W        W98282  17.147  39.881   3.774
34724W        W98283  42.444  29.948  13.318
34725W        W98284   0.303  11.292   3.675
34726W        W98285  32.498  17.779  13.063
34727W        W98286  21.697  40.970   0.910
34728W        W98287  36.375  43.505  14.343
34729W        W98288  33.017  28.531   0.414
34730W        W98289  11.758  12.618   4.800
34731W        W98290  21.700  16.303   1.740
34732W        W98291  36.079  39.489   0.823
34733W        W98292  23.664  10.278  13.959
34734W        W98293   2.780   4.882  10.974
34735W        W98294   7.727  12.714  11.103
34736W        W98295  10.208   4.906  14.505
34737W        W98296  22.024   9.262  14.019
34738W        W98297  41.969   3.766  14.390
34739W        W98298  14.178  31.151  13.947
34740W        W98299  43.290  20.153   4.237
34741W        W98300  18.680   9.358   0.816
34742W        W98301  38.489   3.229  11.521
34743W        W98302  43.515  24.976   3.347
34744W        W98303   4.898  17.608   1.286
34745W        W98304  26.972  19.560   4.780
34746W        W98305  41.960  40.887   4.204
34747W        W98306  43.835  18.157  14.431
34748W        W98307   8.821  15.165  12.943
34749W        W98308  20.058  21.553  13.336
34750W        W98309  10.323  36.920   1.321
34751W        W98310  36.915   2.846  12.407
34752W        W98311  40.391  20.712  13.058
34753W        W98312  15.749   3.358   2.812
34754W        W98313  24.139   1.237  11.582
34755W        W98314  23.721  14.223   2.664
34756W        W98315  32.511  14.273  11.097
34757W        W98316  21.241  15.149   4.324
34758W        W98317  25.080  32.925  11.585
34759W        W98318  15.265   1.849   0.779
34760W        W98319  17.562   9.797  11.374
34761W        W98320  18.146   8.890   1.825
34762W        W98321  22.688   8.804  13.894
34763W        W98322   2.338   1.742  12.840
34764W        W98323   7.734   8.895  11.438
34765W        W98324  41.961  43.321   3.229
34766W        W98325  10.261  28.453   0.797
34767W        W98326  13.347  37.365   4.800
34768W        W98327  43.372   1.819  13.412
34769W        W98328  13.666  15.129  11.068
34770W        W98329  39.027  20.555  11.472
34771W        W98330   7.826   9.848   3.161
34772W        W98331  19.176  37.003   2.762
34773W        W98332  30.473  37.429   0.929
34774W        W98333  14.114   9.786   5.230
34775W        W98334  30.439  18.635  11.105
34776W        W98335  30.968  26.140  14.028
34777W        W98336  33.978   0.440  10.891
34778W        W98337  43.506   6.912  11.967
34779W        W98338  41.979  43.813   1.409
34780W        W98339  32.448   3.945   2.901
34781W        W98340  43.966  16.644  10.990
34782W        W98341   1.854  33.440   1.906
34783W        W98342  30.057  31.563   1.858
34784W        W98343   1.262  36.983  12.924
34785W        W98344  40.549   2.370   1.831
34786W        W98345  13.621  29.939  14.311
34787W        W98346   3.839  30.551   1.268
34788W        W98347  14.286   0.466   4.212
34789W        W98348   8.342  40.543   3.743
34790W        W98349  13.703  16.605   1.383
34791W        W98350  44.376  27.615  12.089
34792W        W98351  10.158  33.990  13.362
34793W        W98352   4.218  12.253   0.918
34794W        W98353  28.446  22.102  14.364
34795W        W98354  34.868  27.196   4.755
34796W        W98355  16.265   1.739   0.869
34797W        W98356  21.060   2.449  13.543
34798W        W98357  29.982  39.442  14.979
34799W        W98358  18.647  12.812   3.870
34800W        W98359  10.878  32.896  14.915
34801W        W98360   8.169  16.742   0.760
34802W        W98361   4.256  37.980  11.425
34803W        W98362  25.155  10.758   4.282
34804W        W98363  41.325   9.252   0.738
34805W        W98364  22.222  21.535  13.539
34806W        W98365  18.160  22.236   0.829
34807W        W98366  13.260  21.582   5.595
34808W        W98367  23.585  12.266   1.264
34809W        W98368   4.933   5.753   1.287
34810W        W98369  44.476  17.142  14.459
34811W        W98370  11.157  44.780   1.860
34812W        W98371  23.715  44.808   0.396
34813W        W98372  32.559  25.704  12.022
34814W        W98373  31.097   1.243  11.453
34815W        W98374  27.570  27.546  12.855
34816W        W98375   0.856  29.584   0.752
34817W        W98376  14.120   7.873  11.382
34818W        W98377   4.243  39.545   0.904
34819W        W98378   0.851  29.442   0.387
34820W        W98379  17.296  20.232   2.707
34821W        W98380  18.250  24.709  14.502
34822W        W98381  38.549   2.902   0.752
34823W        W98382  23.528  27.503  13.900
34824W        W98383  22.017  15.790  14.944
34825W        W98384  40.811  26.102   3.633
34826W        W98385   6.326  10.255  13.979
34827W        W98386  15.711  26.668  11.605
34828W        W98387  21.561  27.159  10.621
34829W        W98388  34.565   4.273   2.818
34830W        W98389  17.781   3.326  14.355
34831W        W98390  33.958  18.286   2.326
34832W        W98391  10.375  27.670  10.888
34833W        W98392  23.580  12.612   1.787
34834W        W98393  44.332  41.313  14.408
34835W        W98394  43.492  10.300   3.281
34836W        W98395  18.241  43.896  14.849
34837W        W98396  13.201  21.232   1.768
34838W        W98397   2.925  26.694   4.307
34839W        W98398  44.274   5.755  12.073
34840W        W98399  27.009  30.655  12.970
34841W        W98400  37.869   4.803   1.389
34842W        W98401  22.217   0.301   0.949
34843W        W98402  37.522   1.733  13.489
34844W        W98403  20.537  10.857  11.100
34845W        W98404  33.418   4.378  11.121
34846W        W98405  23.574  12.129   4.305
34847W        W98406  25.995   0.781   3.356
34848W        W98407  17.255  32.902  11.583
34849W        W98408  34.095   2.352  10.552
34850W        W98409   0.789  40.046  12.861
34851W        W98410  32.050  43.766   1.376
34852W        W98411  14.241   1.361   3.753
34853W        W98412  30.093  28.061  13.435
34854W        W98413  16.721  35.476   0.369
34855W        W98414  38.444  26.487   1.713
34856W        W98415  34.590  34.941   0.821
34857W        W98416  29.497   3.329   1.820
34858W        W98417  30.620  26.151   2.369
34859W        W98418  39.534  12.710  14.940
34860W        W98419  36.876  40.053   1.869
34861W        W98420  11.283   8.697  13.878
34862W        W98421  38.554   6.901  14.025
34863W        W98422   7.768  20.623   1.336
34864W        W98423  23.103   0.484   2.249
34865W        W98424  30.462  13.683   2.694
34866W        W98425  18.568  31.073   4.690
34867W        W98426  34.481  38.856  12.888
34868W        W98427  34.559   4.857   0.263
34869W        W98428  43.779  30.616   2.683
34870W        W98429  26.523  38.430  10.022
34871W        W98430  29.134  18.728  11.952
34872W        W98431  13.342   8.767  11.014
34873W        W98432   6.858   1.458  14.321
34874W        W98433   3.894   1.841   3.869
34875W        W98434  37.943  34.554  13.025
34876W        W98435  39.061  26.068   3.266
34877W        W98436  24.205  40.830   1.315
34878W        W98437  24.112  19.277  12.507
34879W        W98438  13.191   9.841  13.364
34880W        W98439  16.697   6.840   0.275
34881W        W98440   0.457   0.303   3.180
34882W        W98441  24.548  33.532   3.187
34883W        W98442   5.324  42.965  14.863
34884W        W98443   1.955  28.143   0.925
34885W        W98444  33.038   2.860  10.562
34886W        W98445   4.705  21.606   2.250
34887W        W98446  40.828  19.663   2.247
34888W        W98447  36.521   5.849   4.144
34889W        W98448  24.983   9.731   2.709
34890W        W98449  23.698  20.138  13.957
34891W        W98450  41.800  21.721   1.823
34892W        W98451  37.975  13.212   0.333
34893W        W98452  38.024  28.994  14.806
34894W        W98453  36.499  27.474  11.506
34895W        W98454  43.009  33.068  13.917
34896W        W98455  23.668  24.518   1.435
34897W        W98456  31.067  35.945  14.363
34898W        W98457  43.372  32.040   3.351
34899W        W98458  37.380  27.457  10.404
34900W        W98459  12.845   0.865  13.887
34901W        W98460  31.634  13.711  11.895
34902W        W98461  40.906  13.341   4.349
34903W        W98462  21.155  29.091   2.294
34904W        W98463  36.866  34.476  13.832
34905W        W98464   3.354   6.386   3.214
34906W        W98465  43.927  29.065  13.982
34907W        W98466   5.326  34.610  13.867
34908W        W98467  13.602  33.093  13.373
34909W        W98468  30.470  11.773   0.967
34910W        W98469  23.554  10.148   0.757
34911W        W98470  10.291  26.677  10.105
34912W        W98471  37.955  25.194  14.459
34913W        W98472  21.577  44.458   4.804
34914W        W98473  18.061  20.234   2.838
34915W        W98474  42.308  25.666  12.495
34916W        W98475  13.307  24.705   0.370
34917W        W98476  39.020  31.019   0.729
34918W        W98477  18.115  34.895  12.537
34919W        W98478  22.702   0.900  12.945
34920W        W98479  25.640  39.541   3.164
34921W        W98480  25.038  23.727  13.860
34922W        W98481   8.181   3.279  14.356
34923W        W98482  13.145  39.897  11.977
34924W        W98483  12.702  12.641  13.503
34925W        W98484  21.589  40.945   1.340
34926W        W98485  27.451  29.614   0.959
34927W        W98486  29.474  40.810  11.007
34928W        W98487  23.719  32.426  10.963
34929W        W98488  41.329  17.770  12.824
34930W        W98489   1.380  32.606  11.951
34931W        W98490   3.793   0.943   0.484
34932W        W98491  18.118   6.740  12.484
34933W        W98492  37.471   5.918  14.333
34934W        W98493  10.796  42.907  12.383
34935W        W98494  25.201   6.839  11.513
34936W        W98495  39.327  34.541  13.981
34937W        W98496  29.648   5.231  10.409
34938W        W98497  36.085  29.457  13.971
34939W        W98498  39.832  18.654  14.373
34940W        W98499  35.910  44.890   3.325
34941W        W98500  44.408  41.918  12.950
34942W        W98501   2.804  10.659   3.728
34943W        W98502  39.989  38.860  11.975
34944W        W98503  12.845   4.868   2.806
34945W        W98504  33.565  12.741   2.887
34946W        W98505  44.975  27.967   2.815
34947W        W98506  24.704  34.892  13.939
34948W        W98507  34.016  42.481   4.818
34949W        W98508  16.636   9.202  10.544
34950W        W98509  30.518   4.936  14.978
34951W        W98510  44.262  25.643   4.808
34952W        W98511  35.460   7.389   3.855
34953W        W98512  37.852  33.613   1.721
34954W        W98513  36.550   5.885  10.611
34955W        W98514  40.859  25.697  12.851
34956W        W98515  20.577  39.484  13.469
34957W        W98516  24.628  10.776  14.510
34958W        W98517  22.576  44.339  12.399
34959W        W98518   1.459  41.993  14.963
34960W        W98519  17.675  12.235  14.964
34961W        W98520  15.588  14.724  11.957
34962W        W98521   3.383  11.306   3.704
34963W        W98522  11.236   2.464   1.806
34964W        W98523  34.027  43.412   2.250
34965W        W98524  30.996  34.931   3.228
34966W        W98525   6.359  16.609  13.851
34967W        W98526   9.741  25.469   0.820
34968W        W98527  43.398  21.176  13.012
34969W        W98528  16.777   2.763  11.985
34970W        W98529  31.060  19.557  10.093
34971W        W98530  10.768  27.618  10.571
34972W        W98531  44.377   2.319  11.016
34973W        W98532   5.783  34.496   4.768
34974W        W98533  36.546  30.433   1.247
34975W        W98534  26.970  23.208   3.709
34976W        W98535  29.623  27.958   4.271
34977W        W98536  38.517  32.445  14.321
34978W        W98537  21.609  27.102  11.857
34979W        W98538  19.134  29.497  11.039
34980W        W98539  29.497  16.591   1.783
34981W        W98540  30.563  14.121  11.872
34982W        W98541   9.764  38.833   0.264
34983W        W98542   7.783   4.935   3.322
34984W        W98543   9.813  21.521  11.398
34985W        W98544  21.240   2.784   1.242
34986W        W98545  32.404  14.303   3.221
34987W        W98546  36.877  35.557  13.973
34988W        W98547  37.075  44.973   2.847
34989W        W98548  43.338   6.692  12.359
34990W        W98549  31.118  31.409  11.453
34991W        W98550  18.120  26.148   2.309
34992W        W98551  21.090  20.035   0.320
34993W        W98552  24.003  14.832   3.723
34994W        W98553   2.934  24.700   4.160
34995W        W98554  43.984   3.927   4.279
34996W        W98555  43.372  39.973   1.770
34997W        W98556  44.975   0.967   2.393
34998W        W98557  27.597  40.806  12.824
34999W        W98558  11.141  36.485   4.676
35000W        W98559  17.692  19.071   4.664
35001W        W98560  21.584  41.942  14.859
35002W        W98561  11.337  28.536  12.938
35003W        W98562  18.199  42.323  14.921
35004W        W98563  28.669  24.712  10.529
35005W        W98564   7.175  38.053  11.571
35006W        W98565  41.932  15.821  13.381
35007W        W98566  14.229  12.850  10.528
35008W        W98567  13.729  34.501  13.332
35009W        W98568   0.275  22.008   0.950
35010W        W98569  29.475   9.190  11.414
35011W        W98570  14.597  22.725  10.927
35012W        W98571  12.822  12.717  11.922
35013W        W98572  28.469   2.386  10.640
35014W        W98573  12.696  21.622   2.382
35015W        W98574  11.748  36.556   2.208
35016W        W98575  13.671  35.398  14.023
35017W        W98576  16.645  44.497   0.763
35018W        W98577  24.522   6.707   4.214
35019W        W98578  36.572  13.317  14.433
35020W        W98579  17.582  28.966   0.406
35021W        W98580  10.787   0.849   1.922
35022W        W98581  29.923  18.267   4.786
35023W        W98582  34.570  24.679  13.062
35024W        W98583   6.736   9.780  10.491
35025W        W98584  23.703  16.109  12.855
35026W        W98585  23.630  12.136   0.837
35027W        W98586  14.179  20.608   2.676
35028W        W98587  10.189  24.667  10.934
35029W        W98588  11.270  22.190  10.443
35030W        W98589  12.116  29.096   3.868
35031W        W98590  14.136  23.654  11.585
35032W        W98591  13.114  29.059  13.986
35033W        W98592  43.922  24.120   2.243
35034W        W98593  34.098   3.892  11.491
35035W        W98594  36.872  37.889   3.801
35036W        W98595  12.232  33.887  11.402
35037W        W98596  30.563  30.529  11.489
35038W        W98597  17.578  17.072  11.867
35039W        W98598  15.620   0.823   2.772
35040W        W98599   9.228  26.952   3.339
35041W        W98600  26.136   7.288  11.962
35042W        W98601   8.179   6.210   3.844
35043W        W98602  37.350  19.572   3.642
35044W        W98603  22.127  32.572  12.832
35045W        W98604  26.664  36.029  14.382
35046W        W98605  39.364  20.176  12.907
35047W        W98606   8.857  17.236  14.314
35048W        W98607  30.034  28.531   1.799
35049W        W98608  23.235  15.638  14.773
35050W        W98609  44.263  21.108  12.853
35051W        W98610  12.162  23.071   2.243
35052W        W98611  13.289  22.718  13.820
35053W        W98612  22.236  40.311   4.703
35054W        W98613  13.330  27.641  14.505
35055W        W98614  16.671  13.348   2.323
35056W        W98615  20.674  31.065   5.301
35057W        W98616  32.429  33.092  13.547
35058W        W98617   1.802  35.866  13.913
35059W        W98618  23.534   3.716  13.848
35060W        W98619   0.363  23.994   3.655
35061W        W98620  33.553  35.085   2.241
35062W        W98621  28.653   4.358   0.887
35063W        W98622  13.742  32.911   4.623
35064W        W98623  35.962  28.134   1.722
35065W        W98624  39.997  16.172   0.923
35066W        W98625   0.825  30.414   5.097
35067W        W98626  21.618  43.016  11.480
35068W        W98627  39.554   1.946  11.435
35069W        W98628  42.810  31.061  14.848
35070W        W98629  28.479  13.215   3.249
35071W        W98630   5.224  33.507  14.418
35072W        W98631  13.289  22.562   4.304
35073W        W98632  42.878  10.840   0.341
35074W        W98633  14.783  22.168   1.338
35075W        W98634  25.608   9.264  13.461
35076W        W98635  23.585   9.230  10.625
35077W        W98636  30.640  27.637  12.479
35078W        W98637   1.798  24.647   3.639
35079W        W98638  14.210  25.004  14.489
35080W        W98639  36.974  21.537  14.786
35081W        W98640  42.406  41.409  12.468
35082W        W98641  32.975   5.204  14.296
35083W        W98642  26.958  21.128  12.055
35084W        W98643  17.700  12.345  13.508
35085W        W98644  38.431  24.132   0.816
35086W        W98645  21.711  28.130  13.499
35087W        W98646  16.687  17.136  12.354
35088W        W98647  28.586  43.294  14.778
35089W        W98648  13.747   7.383  14.361
35090W        W98649   4.252  36.955  12.507
35091W        W98650  16.615  42.981  11.385
35092W        W98651  20.140  18.669  12.344
35093W        W98652   5.351   0.917   2.336
35094W        W98653  36.930  30.597  14.331
35095W        W98654   7.373  41.022  13.423
35096W        W98655  18.058  31.114   4.330
35097W        W98656  11.332   7.280   1.833
35098W        W98657   9.291  24.682  11.398
35099W        W98658   7.873   4.931  10.966
35100W        W98659  11.313  28.080  11.611
35101W        W98660  22.053  38.453   3.791
35102W        W98661  44.814  34.069  10.990
35103W        W98662  19.064   9.803  12.018
35104W        W98663  10.269  38.343   0.283
35105W        W98664  37.973  27.691   1.934
35106W        W98665  40.900   6.315   2.724
35107W        W98666  10.746  13.230   3.801
35108W        W98667  28.057   9.686   1.379
35109W        W98668  29.660  32.610  14.283
35110W        W98669  12.169   7.809  12.856
35111W        W98670  17.676  33.955  14.001
35112W        W98671  43.873   3.347  14.957
35113W        W98672  23.699  15.260   4.828
35114W        W98673  15.794  41.362  13.896
35115W        W98674   2.735  28.023   2.739
35116W        W98675  22.175   9.217  12.846
35117W        W98676   5.415  11.293   0.960
35118W        W98677  35.416  41.977   1.402
35119W        W98678  14.223  15.281   0.471
35120W        W98679  29.665  40.926  10.467
35121W        W98680  24.718  17.145  10.644
35122W        W98681  32.464   2.228   0.282
35123W        W98682  26.601  25.606  11.012
35124W        W98683   1.350  12.781   1.710
35125W        W98684  21.641  21.722  13.401
35126W        W98685  35.921  26.515  12.020
35127W        W98686  15.611  22.712   4.331
35128W        W98687  11.825  39.453  13.000
35129W        W98688  14.661  22.577  14.845
35130W        W98689  22.080  37.077   1.333
35131W        W98690  40.871  33.874  12.080
35132W        W98691  35.386  27.667  10.604
35133W        W98692  18.760   1.413   4.135
35134W        W98693  33.489   3.361  13.438
35135W        W98694  27.120  21.599   0.365
35136W        W98695  13.723  42.922   3.841
35137W        W98696  32.045  21.245  12.067
35138W        W98697  16.610  23.735   3.273
35139W        W98698  27.065  18.114  12.361
35140W        W98699  24.112  33.081   1.930
35141W        W98700  39.973  31.519  14.426
35142W        W98701  41.925   3.827  10.952
35143W        W98702  22.113  32.057   1.767
35144W        W98703  38.040  15.603  10.613
35145W        W98704  42.452  17.305   1.252
35146W        W98705   6.269   1.285  12.823
35147W        W98706  12.216   1.329   3.860
35148W        W98707   6.862   8.665  12.468
35149W        W98708  14.162  13.130  14.474
35150W        W98709  43.441  35.941  11.422
35151W        W98710  23.593  12.358   4.758
35152W        W98711  21.735  17.749  10.939
35153W        W98712  22.574  31.000   3.652
35154W        W98713  42.800   7.847  12.095
35155W        W98714  34.599   8.190   0.277
35156W        W98715   4.874  16.608  12.549
35157W        W98716  29.935  10.359  13.989
35158W        W98717  43.512  34.970  13.355
35159W        W98718  41.986  35.558  12.017
35160W        W98719   0.945  37.959  12.987
35161W        W98720  44.439  32.110  10.030
35162W        W98721  16.797  11.330  13.842
35163W        W98722  12.698  33.607   3.750
35164W        W98723   1.911  44.915   2.800
35165W        W98724  42.785   5.272  12.972
35166W        W98725  34.391  29.071   3.374
35167W        W98726   3.392  44.842   0.263
35168W        W98727  42.339  13.680  14.842
35169W        W98728   0.355  26.154  11.554
35170W        W98729  37.006   8.866   1.907
35171W        W98730  43.334  12.131  12.541
35172W        W98731  39.037  27.647  14.764
35173W        W98732  37.905  16.308   3.651
35174W        W98733  16.275  32.407  11.947
35175W        W98734   6.324  16.142   1.428
35176W        W98735   9.188  40.382   4.743
35177W        W98736  31.053  31.409  11.046
35178W        W98737   8.216   6.297  11.393
35179W        W98738   9.700  23.025  11.105
35180W        W98739  25.537  13.219  11.035
35181W        W98740   7.269   6.350  14.004
35182W        W98741   7.238  35.371  12.848
35183W        W98742   0.279  42.359  12.942
35184W        W98743  41.969  30.469  13.313
35185W        W98744  18.294   5.736   3.777
35186W        W98745   4.903  29.978   2.178
35187W        W98746  33.124  26.547   2.249
35188W        W98747  12.279  34.534  12.422
35189W        W98748  30.050  42.963   1.874
35190W        W98749  27.081  28.470  11.030
35191W        W98750  12.234  37.385   9.602
35192W        W98751   5.915  25.085  10.943
35193W        W98752   2.778  32.117   0.401
35194W        W98753  22.193  40.927   4.227
35195W        W98754  19.085  10.721   0.340
35196W        W98755  37.985  12.647  11.461
35197W        W98756  30.419  42.412   4.695
35198W        W98757  24.563  37.381  11.413
35199W        W98758  29.074  33.027   2.716
35200W        W98759  26.631  32.432  13.998
35201W        W98760   4.831   9.203   3.313
35202W        W98761   4.432  26.967   1.770
35203W        W98762  41.485  24.151  14.336
35204W        W98763   0.828   6.216  11.068
35205W        W98764  11.809  29.968  13.481
35206W        W98765  16.697  20.728   0.285
35207W        W98766  13.212  14.606  11.884
35208W        W98767  34.950  29.465   0.355
35209W        W98768  32.906   2.785  11.479
35210W        W98769  38.870  18.262  12.526
35211W        W98770  41.843  25.496   2.841
35212W        W98771   5.803  42.782   3.291
35213W        W98772  27.184  15.674   1.751
35214W        W98773  20.230  39.380  11.445
35215W        W98774  22.134  12.347  13.843
35216W        W98775  41.041  39.898   4.749
35217W        W98776  44.905  39.319   4.656
35218W        W98777  22.704  11.665  11.395
35219W        W98778  13.257  13.229   0.390
35220W        W98779  38.018  21.512  11.025
35221W        W98780  23.110   6.208  14.324
35222W        W98781  11.824   9.183  13.979
35223W        W98782   5.912  30.954  13.968
35224W        W98783  20.556   7.755  14.896
35225W        W98784  40.335  31.911  11.525
35226W        W98785  11.740  40.467   4.287
35227W        W98786   6.749  15.720  12.544
35228W        W98787  15.199  40.921  14.781
35229W        W98788  18.120  12.775  13.846
35230W        W98789  38.350  15.708   9.925
35231W        W98790  31.029   7.314  12.397
35232W        W98791   8.799  10.772   1.304
35233W        W98792  30.590  35.902  10.524
35234W        W98793  14.731  36.418   3.662
35235W        W98794  22.995  12.185   3.256
35236W        W98795  44.318  16.208   2.792
35237W        W98796   9.725  17.096  14.018
35238W        W98797   0.337  33.925   0.476
35239W        W98798  19.179   6.351  10.560
35240W        W98799  25.680  23.623   2.207
35241W        W98800  19.161  22.637  10.461
35242W        W98801   1.808  41.945  11.449
35243W        W98802   2.832  36.549  14.430
35244W        W98803  17.616  14.721   0.797
35245W        W98804  27.505  29.923   2.729
35246W        W98805  10.854  40.500  13.429
35247W        W98806  29.593  43.833   4.151
35248W        W98807  33.949  18.603  10.639
35249W        W98808  22.078  10.676  13.928
35250W        W98809  37.411  34.920  12.070
35251W        W98810  12.133  16.615   3.832
35252W        W98811  40.877   5.333   4.619
35253W        W98812  44.284  33.450  14.850
35254W        W98813   2.384  11.859  14.455
35255W        W98814  39.864   6.239   0.426
35256W        W98815  30.460  11.631  12.569
35257W        W98816  11.283  41.440   4.268
35258W        W98817  32.936   3.874  11.868
35259W        W98818  36.361  21.213  12.836
35260W        W98819  14.719  39.955  14.482
35261W        W98820  40.352  33.503  10.089
35262W        W98821  44.840  42.830   1.354
35263W        W98822  13.774  27.616  11.444
35264W        W98823  19.745  32.084   3.691
35265W        W98824   6.374  11.842   1.302
35266W        W98825  37.879  29.490  13.993
35267W        W98826  18.135   4.924  14.317
35268W        W98827  20.034  32.068   0.762
35269W        W98828  30.910  22.110   4.240
35270W        W98829  10.715  30.108   2.839
35271W        W98830  26.608  24.158  12.905
35272W        W98831  30.985  31.113  12.003
35273W        W98832   2.939  44.501  13.437
35274W        W98833  16.217   5.264  10.599
35275W        W98834  41.395   4.375  10.908
35276W        W98835  14.670  26.154   1.914
35277W        W98836  37.860  29.031   0.884
35278W        W98837  29.063   6.374   2.865
35279W        W98838  23.165  35.058   4.699
35280W        W98839  14.286  16.604  11.461
35281W        W98840  22.163  31.119  13.393
35282W        W98841  30.945  33.472   0.961
35283W        W98842  28.558  32.077   3.658
35284W        W98843   2.792   8.211   2.766
35285W        W98844  36.884   8.823   5.139
35286W        W98845  16.145  35.547  14.900
35287W        W98846  39.911   0.413   0.934
35288W        W98847  30.563  22.157   4.787
35289W        W98848  32.399  43.764  14.373
35290W        W98849  11.367   5.280   1.383
35291W        W98850  10.351  30.971  10.072
35292W        W98851  29.553   4.330   3.167
35293W        W98852  41.007  29.996  13.436
35294W        W98853   7.693  44.900   1.366
35295W        W98854  16.093  30.572  12.087
35296W        W98855  42.327  28.614   2.794
35297W        W98856  31.641   7.736   2.840
35298W        W98857   1.790  35.371  11.379
35299W        W98858  33.993  21.729  10.931
35300W        W98859  44.798  10.733   3.728
35301W        W98860   6.765   4.237  13.325
35302W        W98861  20.069  28.564   1.446
35303W        W98862   4.283  43.838  13.323
35304W        W98863   0.825  40.425   1.403
35305W        W98864  34.526  28.488  12.456
35306W        W98865  35.035  15.154   0.441
35307W        W98866  33.545  31.435  11.864
35308W        W98867  30.964  12.750  13.947
35309W        W98868  44.285  19.537  10.461
35310W        W98869  10.694   0.819  11.491
35311W        W98870  30.986  44.011  13.341
35312W        W98871  25.620   0.848  13.436
35313W        W98872  29.553  26.500   3.756
35314W        W98873  11.632  24.175   1.932
35315W        W98874  35.973  29.960  12.030
35316W        W98875   3.718  20.655  12.391
35317W        W98876  27.177  26.175   0.474
35318W        W98877   6.908  17.150   0.251
35319W        W98878  17.209  38.399  12.917
35320W        W98879  32.619  43.416  13.866
35321W        W98880  11.336  17.638   3.349
35322W        W98881  24.573  23.525   2.725
35323W        W98882  13.111  25.022   4.124
35324W        W98883  26.015  15.681  10.052
35325W        W98884  27.007  21.066  13.047
35326W        W98885   6.801   3.320  10.914
35327W        W98886   3.410  31.981  14.354
35328W        W98887  38.428  20.553  11.026
35329W        W98888  15.695   7.827  12.825
35330W        W98889  18.631  29.534  10.042
35331W        W98890  25.076  13.196  14.975
35332W        W98891   5.692  24.011   1.372
35333W        W98892   5.771  41.337  12.931
35334W        W98893  18.606   5.833   2.852
35335W        W98894  39.974   0.764  14.849
35336W        W98895   7.316  16.205  11.516
35337W        W98896  44.837   0.381  11.000
35338W        W98897   9.274  36.500  11.983
35339W        W98898  15.206  42.921  14.960
35340W        W98899  15.608  14.262   3.315
35341W        W98900  36.979   2.383   4.698
35342W        W98901   3.218  26.142  12.522
35343W        W98902   6.192  38.542  11.397
35344W        W98903  19.577  42.341   4.322
35345W        W98904   0.917  41.423   1.795
35346W        W98905  21.163  26.140   2.820
35347W        W98906  41.486  38.403   1.868
35348W        W98907   6.304  21.697  10.488
35349W        W98908   7.864  36.879   0.917
35350W        W98909   5.292  40.941   4.815
35351W        W98910   1.272  27.098  14.944
35352W        W98911  24.541  29.052  14.921
35353W        W98912   3.945  20.259  11.013
35354W        W98913  36.932  19.126  12.543
35355W        W98914  44.874  13.719  14.310
35356W        W98915  40.983  13.600   0.387
35357W        W98916  43.985  40.965   2.197
35358W        W98917  26.461  21.181  11.056
35359W        W98918   4.381   7.391   1.368
35360W        W98919  42.973  42.867   3.789
35361W        W98920  20.610  27.657  12.378
35362W        W98921  28.554  15.602   1.720
35363W        W98922  20.218  39.405  13.357
35364W        W98923  17.801  31.556   4.250
35365W        W98924   2.377  29.593  13.901
35366W        W98925  41.395  16.183  12.343
35367W        W98926  23.194   9.725   1.733
35368W        W98927  38.854  42.779   1.790
35369W        W98928  34.064   6.207   2.842
35370W        W98929  11.179  35.578  10.544
35371W        W98930   9.846  31.074  13.021
35372W        W98931   8.400  30.148  14.771
35373W        W98932  35.543  17.115   0.475
35374W        W98933  24.554   4.908  14.786
35375W        W98934  10.793  13.115  12.396
35376W        W98935  17.306  13.758   3.299
35377W        W98936   5.765   9.244   3.221
35378W        W98937  14.117  28.631   4.150
35379W        W98938  42.785  44.401  13.459
35380W        W98939  22.159  23.702  10.446
35381W        W98940  38.351  33.042  11.494
35382W        W98941  14.173   0.298  13.530
35383W        W98942  33.530  12.242   4.615
35384W        W98943  17.646  10.291  14.890
35385W        W98944  34.456  27.115   2.387
35386W        W98945  14.604  44.927   0.853
35387W        W98946  34.960  32.509  14.900
35388W        W98947  18.665  33.602  11.973
35389W        W98948  11.758  38.999   3.686
35390W        W98949  31.013   7.670   2.672
35391W        W98950   0.845  31.117  14.312
35392W        W98951   1.253  38.449  11.874
35393W        W98952   4.401  43.336  11.102
35394W        W98953  42.300  20.205   1.922
35395W        W98954  29.457  30.932   3.831
35396W        W98955  27.527  24.973   0.365
35397W        W98956  37.889  40.009  11.490
35398W        W98957   0.919   7.679   2.883
35399W        W98958  22.230  29.571  13.886
35400W        W98959  11.371  29.448   1.402
35401W        W98960   9.887   7.296  13.384
35402W        W98961  29.568  39.379  11.123
35403W        W98962   3.323  36.014   4.625
35404W        W98963  28.638  10.245  14.436
35405W        W98964  20.602  24.605  14.825
35406W        W98965   0.866  40.816  11.485
35407W        W98966  35.500  33.060  12.067
35408W        W98967  44.991   0.420   4.605
35409W        W98968  10.742  10.245   3.706
35410W        W98969  41.840  22.565  14.393
35411W        W98970  44.866  19.219   0.916
35412W        W98971  14.296  28.184  11.537
35413W        W98972  11.152  13.647   3.172
35414W        W98973  16.205   9.372   2.669
35415W        W98974  44.304  32.439   2.852
35416W        W98975   2.894  24.650   0.285
35417W        W98976  33.556  33.005   1.436
35418W        W98977  31.149  19.272   4.213
35419W        W98978   6.309   8.888  12.935
35420W        W98979  20.697   7.252   0.856
35421W        W98980   9.180  37.924  11.524
35422W        W98981  41.421   4.246  11.988
35423W        W98982  21.715  38.897   4.706
35424W        W98983  13.805  33.546  10.155
35425W        W98984  21.033  38.412  14.950
35426W        W98985  33.118   4.434   3.804
35427W        W98986  16.222   1.292   3.631
35428W        W98987  33.403  32.460  10.971
35429W        W98988  19.076   5.861   0.347
35430W        W98989   1.893   2.771  11.083
35431W        W98990   0.343  43.880   1.911
35432W        W98991  41.392  15.141  13.854
35433W        W98992  31.625   6.880  14.825
35434W        W98993  32.481   4.366   4.620
35435W        W98994  14.204  35.573  10.954
35436W        W98995  15.765  27.573  13.529
35437W        W98996  15.770  29.051  10.082
35438W        W98997  40.050  33.076   3.846
35439W        W98998  14.703   0.343   3.783
35440W        W98999  24.611  27.469  12.572
35441W        W99000   5.402  23.557   2.211
35442W        W99001  40.978  22.999   0.788
35443W        W99002  29.430  23.099   0.749
35444W        W99003   5.381  22.664  11.557
35445W        W99004  44.402   9.646  12.905
35446W        W99005  16.121  42.924  14.822
35447W        W99006   7.380   6.240  12.976
35448W        W99007  40.806  12.302   4.691
35449W        W99008  34.979  35.468   4.769
35450W        W99009  29.009  28.636  13.940
35451W        W99010  29.517   9.293  10.938
35452W        W99011  42.303   2.417   0.937
35453W        W99012  13.618  40.856  12.084
35454W        W99013  24.137  26.079  11.083
35455W        W99014  15.753  41.403  13.040
35456W        W99015  43.928  18.581   1.311
35457W        W99016  14.715   5.332  10.557
35458W        W99017  26.133  12.677   0.934
35459W        W99018  28.674   9.850  14.030
35460W        W99019  34.901  28.163  14.875
35461W        W99020   3.902   9.239  11.384
35462W        W99021  34.077  41.010   0.785
35463W        W99022   8.743  18.598  13.857
35464W        W99023   0.319   9.224  11.454
35465W        W99024  18.652   6.353  13.800
35466W        W99025  39.399  36.526  12.498
35467W        W99026  35.024   9.689  13.447
35468W        W99027  40.347  24.998  12.828
35469W        W99028  42.901  23.678  10.538
35470W        W99029  22.538  37.915   2.715
35471W        W99030  20.530  42.419   2.721
35472W        W99031   8.402  35.891  12.074
35473W        W99032   6.356  11.267   4.257
35474W        W99033  32.506  41.970  10.411
35475W        W99034  37.951   6.238  11.379
35476W        W99035  26.556   1.764   3.369
35477W        W99036  13.278  35.573  11.550
35478W        W99037  16.126  27.947  13.312
35479W        W99038  31.027   0.492  13.923
35480W        W99039  36.926   0.894   2.220
35481W        W99040  41.993  11.824  13.799
35482W        W99041  11.747  25.993   1.846
35483W        W99042  10.313   7.403   2.903
35484W        W99043   7.803  38.500   4.209
35485W        W99044  17.247  20.696  13.496
35486W        W99045  36.878   9.710   2.873
35487W        W99046   5.332  44.830  13.822
35488W        W99047  23.034  43.383   2.901
35489W        W99048  18.174   4.726   0.278
35490W        W99049  27.622   7.820  11.905
35491W        W99050  12.181  42.436  13.852
35492W        W99051  18.063   9.698   4.710
35493W        W99052  14.719   4.309  11.891
35494W        W99053  36.923  32.575  11.435
35495W        W99054   3.939  25.684  13.358
35496W        W99055  14.322  37.934  11.072
35497W        W99056   3.453  39.022  10.562
35498W        W99057  42.865  35.081   0.917
35499W        W99058  18.624  10.249   2.902
35500W        W99059  37.068  33.963   1.252
35501W        W99060  12.832  22.995  13.958
35502W        W99061  39.361  10.768  14.805
35503W        W99062  13.348  16.077  14.849
35504W        W99063  43.980  20.666   2.213
35505W        W99064  32.418  31.544  11.020
35506W        W99065   1.425  41.972  14.016
35507W        W99066   2.893  15.271  14.437
35508W        W99067  19.149  37.578   0.815
35509W        W99068   2.411  31.099   0.282
35510W        W99069  31.567  17.789  11.415
35511W        W99070  27.045   7.175  11.544
35512W        W99071   3.748  26.200  11.613
35513W        W99072  37.937  19.211   2.804
35514W        W99073  11.167  33.400   1.295
35515W        W99074   7.329  12.225   4.792
35516W        W99075  35.979  37.933   3.632
35517W        W99076  18.224   7.200   1.407
35518W        W99077  30.418  20.037   4.627
35519W        W99078   3.332  17.266   5.084
35520W        W99079  43.269  38.931   4.771
35521W        W99080  27.966  15.218  11.475
35522W        W99081  14.728   1.887  11.898
35523W        W99082   3.453  18.238  10.905
35524W        W99083  18.680  25.475  12.353
35525W        W99084  39.028  22.721   1.720
35526W        W99085   4.327  39.481   1.409
35527W        W99086   0.322   1.446   0.910
35528W        W99087  32.588  33.025   0.936
35529W        W99088   5.302  31.564  12.917
35530W        W99089  17.700  25.631   2.235
35531W        W99090  15.710  43.330   3.857
35532W        W99091  12.783  41.962   0.817
35533W        W99092   9.664  12.852   9.985
35534W        W99093  39.346   5.426   0.729
35535W        W99094  24.230  13.799  14.365
35536W        W99095  16.662  25.518  13.000
35537W        W99096  12.338  23.698   2.858
35538W        W99097  36.591  36.457   2.860
35539W        W99098  43.405  14.216  11.554
35540W        W99099   6.281  21.059   1.380
35541W        W99100  30.085  36.420   3.726
35542W        W99101  31.995  20.240   0.333
35543W        W99102  12.721   1.438  13.914
35544W        W99103  21.035  13.221  10.939
35545W        W99104  33.392  35.070  13.800
35546W        W99105  40.964   7.404   0.879
35547W        W99106   7.311  21.198   2.248
35548W        W99107   7.714  34.059   3.684
35549W        W99108   5.261  33.912  10.497
35550W        W99109  30.644  37.898   4.824
35551W        W99110  17.223  27.476  14.998
35552W        W99111  11.344  33.060   4.138
35553W        W99112  11.250  39.437  12.919
35554W        W99113  38.342  23.176   4.605
35555W        W99114  15.681  12.260  11.385
35556W        W99115   5.735   2.829  14.464
35557W        W99116   1.825  27.110  11.929
35558W        W99117  18.229  13.680  12.828
35559W        W99118   4.228  31.921  10.966
35560W        W99119   5.221  43.454   4.182
35561W        W99120  18.693   8.819  11.906
35562W        W99121   2.421  19.768  13.853
35563W        W99122  32.120  16.731  10.644
35564W        W99123   0.930  43.968  11.507
35565W        W99124   0.874  17.216  10.948
35566W        W99125  22.029  13.741   2.298
35567W        W99126  35.080   1.975   0.939
35568W        W99127  42.893   8.221  13.918
35569W        W99128  26.521   4.267   1.237
35570W        W99129  12.678   7.404   1.285
35571W        W99130  11.231  29.998  11.389
35572W        W99131  12.776  44.290  14.369
35573W        W99132  43.830  42.830   1.416
35574W        W99133  27.640  23.124   2.309
35575W        W99134  20.044  43.974   1.334
35576W        W99135  11.750   4.272  12.485
35577W        W99136  27.057   2.266   0.298
35578W        W99137   3.294  36.448  12.886
35579W        W99138   3.399  41.971   1.827
35580W        W99139  19.062   6.413  13.535
35581W        W99140  14.782  19.679   5.316
35582W        W99141  19.253  35.549   1.759
35583W        W99142  29.045   1.299  14.476
35584W        W99143  12.849  21.134  12.079
35585W        W99144   9.813  42.281   0.841
35586W        W99145  41.934  25.556  11.885
35587W        W99146  25.646  43.439   2.352
35588W        W99147  31.036  20.649   4.170
35589W        W99148  44.005  29.964   0.963
35590W        W99149   3.868   2.774   3.371
35591W        W99150   0.453   6.877  11.480
35592W        W99151  42.386  22.571  13.044
35593W        W99152   7.747  16.092   4.817
35594W        W99153   7.860  25.543  14.503
35595W        W99154  41.933  44.911  14.379
35596W        W99155  10.185  19.205   2.844
35597W        W99156  41.486   0.750  13.452
35598W        W99157  32.964  25.592   3.245
35599W        W99158  20.122   7.220   3.665
35600W        W99159  43.875   5.749   1.782
35601W        W99160   3.383  20.155   5.165
35602W        W99161  37.028  40.531  14.914
35603W        W99162  40.411  33.615  10.544
35604W        W99163   2.901   2.834   2.727
35605W        W99164  29.960   5.825   0.273
35606W        W99165  22.609  35.890   3.866
35607W        W99166  35.077  21.675  13.432
35608W        W99167  44.433  22.669   3.816
35609W        W99168  40.840  14.244   3.775
35610W        W99169  16.590  24.578   1.736
35611W        W99170  44.445  28.056  12.857
35612W        W99171  44.477  23.185  11.857
35613W        W99172  34.956   6.801   2.319
35614W        W99173  19.223  12.651   4.162
35615W        W99174  29.661  30.079   3.706
35616W        W99175  15.209  44.898   1.341
35617W        W99176   9.700   6.209   3.264
35618W        W99177  34.982   6.732  14.882
35619W        W99178  31.488  20.095  14.829
35620W        W99179  16.579  10.818  11.587
35621W        W99180  11.767  21.082  14.295
35622W        W99181  44.275  34.929   4.248
35623W        W99182  32.074  17.797  11.092
35624W        W99183  21.191   6.229  13.367
35625W        W99184   0.321   2.440   2.379
35626W        W99185   4.855  20.750   1.309
35627W        W99186   9.750   4.328  13.922
35628W        W99187   3.720   6.351  12.844
35629W        W99188  26.136  13.743  11.456
35630W        W99189  16.777  13.712   4.329
35631W        W99190  14.321  17.629  14.921
35632W        W99191  33.494  14.262   5.214
35633W        W99192  44.886   6.704  11.571
35634W        W99193  26.600  44.341   2.838
35635W        W99194  15.129  44.391  14.940
35636W        W99195  19.242  20.047  11.962
35637W        W99196  19.237  24.170   2.371
35638W        W99197  10.220  29.936  14.975
35639W        W99198   5.725  40.526  12.523
35640W        W99199  38.938  33.986   3.732
35641W        W99200   0.339  38.437  10.621
35642W        W99201  35.516   1.276  14.935
35643W        W99202  16.647   8.379   2.211
35644W        W99203  26.031  41.458  10.441
35645W        W99204   3.233  16.116  10.438
35646W        W99205  14.750  21.166   5.316
35647W        W99206  14.622  12.137   4.214
35648W        W99207  42.938  18.550  14.777
35649W        W99208  39.436  20.763   2.682
35650W        W99209  26.618  32.906   0.864
35651W        W99210   2.267  17.142   2.664
35652W        W99211  38.440  25.624  11.585
35653W        W99212  27.150  28.101   0.792
35654W        W99213  38.041   7.721   0.878
35655W        W99214   5.212  22.117  13.533
35656W        W99215  36.363  11.637  12.406
35657W        W99216   6.300  31.075   2.668
35658W        W99217   5.369  27.052  14.982
35659W        W99218  34.865  33.433  11.448
35660W        W99219  36.851  13.638   1.769
35661W        W99220  40.982   1.238  12.972
35662W        W99221   3.714   5.439  14.842
35663W        W99222  12.661  25.202  13.918
35664W        W99223  33.487  11.797   1.426
35665W        W99224  17.132   2.388   0.791
35666W        W99225   9.803  34.454   1.811
35667W        W99226  41.349  32.998  13.863
35668W        W99227  10.819  32.889   5.112
35669W        W99228  35.015  26.977   4.282
35670W        W99229  12.212  23.597   1.869
35671W        W99230  10.633  25.990  14.809
35672W        W99231  30.006  43.899   4.817
35673W        W99232  18.727  24.013   1.883
35674W        W99233  24.130  26.682   0.967
35675W        W99234  32.890  44.876  14.955
35676W        W99235  26.499  32.538   2.849
35677W        W99236  29.469  30.968  13.501
35678W        W99237  24.711  41.468  13.039
35679W        W99238  17.759  28.936   1.866
35680W        W99239  29.629  21.202  14.816
35681W        W99240  16.260  40.350  14.809
35682W        W99241   8.759  37.907  13.831
35683W        W99242   5.370  36.043  10.900
35684W        W99243  29.455  23.641  13.442
35685W        W99244  26.695  12.803  13.828
35686W        W99245  28.610  32.121  10.552
35687W        W99246  44.933  44.794  13.327
35688W        W99247  32.901  39.475   0.324
35689W        W99248  18.665  21.614   1.760
35690W        W99249  37.519   3.868   2.243
35691W        W99250  35.455  42.402   1.440
35692W        W99251  29.145  32.040  11.459
35693W        W99252  33.560  17.169   3.304
35694W        W99253  16.118  27.541  12.841
35695W        W99254  35.049  23.543  12.954
35696W        W99255  36.919   8.253  10.523
35697W        W99256   4.713  42.333  13.817
35698W        W99257  27.625   2.729  12.864
35699W        W99258  27.006  36.844  12.443
35700W        W99259  42.463   3.429  14.483
35701W        W99260  41.393  22.195   3.307
35702W        W99261  32.532  10.705   5.300
35703W        W99262  10.691   3.435   3.730
35704W        W99263  14.771  40.993   0.818
35705W        W99264  17.072   8.321   2.801
35706W        W99265  40.039  19.662   0.910
35707W        W99266  28.969   7.415   0.783
35708W        W99267  26.555   0.431  10.002
35709W        W99268   6.266  19.281   4.352
35710W        W99269  10.732  21.685  14.032
35711W        W99270   0.424  44.474   4.336
35712W        W99271  28.046   7.340  14.966
35713W        W99272  20.133   3.897   0.436
35714W        W99273  42.884  14.670   1.876
35715W        W99274  20.760  27.077  14.466
35716W        W99275  40.025  14.210  12.577
35717W        W99276  18.140  11.164  12.079
35718W        W99277  30.659  19.610  12.048
35719W        W99278   5.697   5.245   3.266
35720W        W99279  42.923  13.600  13.813
35721W        W99280  26.628  22.721  13.425
35722W        W99281   4.875  22.129   4.177
35723W        W99282  44.975  35.907  11.579
35724W        W99283  37.414   3.877  13.982
35725W        W99284   8.279  40.977   0.927
35726W        W99285  24.119  29.651  11.380
35727W        W99286  11.802  38.354  13.489
35728W        W99287  13.782  35.108  13.919
35729W        W99288   2.414  38.974  11.579
35730W        W99289  18.645  16.274   1.234
35731W        W99290  33.624   1.402   3.777
35732W        W99291  22.243  30.972  14.354
35733W        W99292  18.127  18.276  13.846
35734W        W99293  29.957   2.270   0.828
35735W        W99294  33.079   3.340   0.381
35736W        W99295  44.405  23.676  10.469
35737W        W99296  23.564  29.452   0.912
35738W        W99297  43.386  30.531  14.791
35739W        W99298   3.315  42.958   5.285
35740W        W99299  14.754  41.882  14.326
35741W        W99300  42.903  27.663   4.800
35742W        W99301  14.625  28.150   1.333
35743W        W99302  20.059  40.363   3.324
35744W        W99303  16.760   9.799  10.595
35745W        W99304  39.904  18.764  11.580
35746W        W99305  13.803   7.795   1.893
35747W        W99306  16.154  21.067   4.349
35748W        W99307  12.291  41.886   2.884
35749W        W99308  17.750  35.440  10.586
35750W        W99309  26.003  41.385   2.785
35751W        W99310  35.526  11.708   9.649
35752W        W99311  40.987  39.836  14.863
35753W        W99312  21.220   0.843  10.560
35754W        W99313  39.383  29.170  13.822
35755W        W99314  33.984  42.919   2.203
35756W        W99315  22.684  25.006   3.182
35757W        W99316  38.450  15.294   4.214
35758W        W99317   7.284  44.341   2.881
35759W        W99318  40.542  36.959   4.826
35760W        W99319  16.135  10.873  13.006
35761W        W99320  39.327   6.767  14.313
35762W        W99321  14.718  38.837  11.015
35763W        W99322  43.449  13.619   3.286
35764W        W99323  34.866  20.715  10.930
35765W        W99324  23.068  40.040  12.862
35766W        W99325  30.476  12.271   0.898
35767W        W99326  18.075  39.545   2.824
35768W        W99327  42.314  35.852   0.296
35769W        W99328  25.602  33.898   1.297
35770W        W99329  29.080   8.235   1.751
35771W        W99330  10.205  15.748  10.979
35772W        W99331  30.939  39.520  12.920
35773W        W99332  38.022   2.862  12.891
35774W        W99333   7.260  14.146  11.888
35775W        W99334  29.173  19.055  14.967
35776W        W99335  19.146   1.324  11.857
35777W        W99336  12.771  12.754  13.005
35778W        W99337  11.846  22.602   3.313
35779W        W99338   6.879  24.616  14.929
35780W        W99339  23.039  24.105   2.762
35781W        W99340  17.168  39.552  12.966
35782W        W99341   5.707  23.537  10.972
35783W        W99342  44.894  37.420   1.803
35784W        W99343  38.042  27.659  13.026
35785W        W99344  26.063  38.380  12.925
35786W        W99345   1.962  23.620   2.774
35787W        W99346  20.164  23.655   4.151
35788W        W99347  44.820  17.618   1.257
35789W        W99348  22.048  33.463   3.785
35790W        W99349   1.325  42.367   0.268
35791W        W99350  31.631  40.527  14.445
35792W        W99351  37.355  10.694  11.503
35793W        W99352  38.870   7.240   3.749
35794W        W99353  14.231  22.101   1.277
35795W        W99354  42.802  12.651   1.752
35796W        W99355  26.560  17.733  11.039
35797W        W99356  37.496  19.247   4.726
35798W        W99357   2.366  38.965  10.972
35799W        W99358  26.026  41.018  11.530
35800W        W99359  41.494   4.908   4.236
35801W        W99360  44.905  17.748   4.619
35802W        W99361  43.465  36.062   3.370
35803W        W99362  42.973  24.115   3.735
35804W        W99363   2.354  23.171  14.898
35805W        W99364   9.244   7.860  10.622
35806W        W99365  30.614   4.703  13.321
35807W        W99366  39.060  27.170  12.371
35808W        W99367  31.942  19.634  14.481
35809W        W99368  44.333  16.735  13.342
35810W        W99369  28.564  16.165   2.823
35811W        W99370  25.968   0.935  11.575
35812W        W99371  43.902   7.270  10.574
35813W        W99372   2.419   0.777  13.538
35814W        W99373   9.235  30.654   3.265
35815W        W99374  21.236  22.523   3.349
35816W        W99375  19.063   8.299   1.708
35817W        W99376  30.047  34.484  12.489
35818W        W99377  35.401  25.570  14.898
35819W        W99378  33.562  14.132   1.718
35820W        W99379  43.852  37.974  11.594
35821W        W99380  40.979  17.784  10.486
35822W        W99381   1.436  44.352  11.926
35823W        W99382  31.066  42.794  14.443
35824W        W99383   8.669  16.566  10.557
35825W        W99384   5.767  27.105  12.347
35826W        W99385  18.061  27.018  11.561
35827W        W99386  15.267  26.061   0.366
35828W        W99387  38.550   4.396  13.815
35829W        W99388  21.087   0.268  12.467
35830W        W99389   8.242  11.245  13.031
35831W        W99390  17.634  16.605  11.568
35832W        W99391  39.558  27.010  12.968
35833W        W99392   2.447   1.460  13.026
35834W        W99393  44.863  31.604  12.419
35835W        W99394  15.288  11.636   0.797
35836W        W99395   6.795  40.477  14.441
35837W        W99396  33.941  34.372   4.252
35838W        W99397  17.116  36.421  14.299
35839W        W99398  41.437  30.150   4.797
35840W        W99399  15.248  14.235  11.595
35841W        W99400   9.744  31.450  11.481
35842W        W99401   6.793  17.557  14.784
35843W        W99402  37.451  21.692   0.330
35844W        W99403   3.457  29.459  12.877
35845W        W99404  42.912  17.603  11.871
35846W        W99405  38.834  28.129  11.859
35847W        W99406  15.172  14.202  14.816
35848W        W99407  30.052  39.822   5.620
35849W        W99408  42.899   5.268  11.995
35850W        W99409  27.958  27.510  10.942
35851W        W99410  18.571   2.793  11.446
35852W        W99411  19.049  37.535  10.406
35853W        W99412  27.995  42.795   4.784
35854W        W99413  39.934   9.275   4.759
35855W        W99414  41.440  25.138   2.746
35856W        W99415  29.096  36.974  13.510
35857W        W99416  43.360  12.823  12.011
35858W        W99417   5.352  41.839   0.435
35859W        W99418  14.592  39.483  14.464
35860W        W99419  38.340  31.967  13.856
35861W        W99420   7.240  44.270   0.882
35862W        W99421   7.276  42.798   1.716
35863W        W99422  15.267  28.589   4.606
35864W        W99423   4.788  17.075   4.826
35865W        W99424   8.230  15.181   1.806
35866W        W99425   7.836  38.479  12.083
35867W        W99426  31.911  12.706  10.441
35868W        W99427  24.614  36.864  13.370
35869W        W99428  41.379  20.256  12.859
35870W        W99429  11.630  27.945   2.667
35871W        W99430  18.653   6.390  11.568
35872W        W99431  44.437  37.016  12.959
35873W        W99432  20.698  20.167   1.783
35874W        W99433  31.579  43.809   0.857
35875W        W99434  16.618  31.896  12.989
35876W        W99435   9.346  13.252   3.147
35877W        W99436  40.312  19.164   4.675
35878W        W99437  20.557  33.468  12.882
35879W        W99438  22.598  13.247  13.907
35880W        W99439  15.726   3.290  12.922
35881W        W99440  33.875   4.267   1.845
35882W        W99441  27.157  39.912   2.366
35883W        W99442  32.623  10.278  12.562
35884W        W99443  36.528  32.530   1.280
35885W        W99444   9.290  20.151  11.425
35886W        W99445  12.286  30.917   0.408
35887W        W99446  16.652  14.327   3.690
35888W        W99447   7.881  44.999   0.889
35889W        W99448  25.084   9.755   1.341
35890W        W99449  37.387  13.147   2.849
35891W        W99450  21.653  22.518   3.762
35892W        W99451  22.016   1.334  10.632
35893W        W99452   4.724  31.900   0.875
35894W        W99453  28.041  20.045   4.700
35895W        W99454  16.277  43.893  13.526
35896W        W99455   1.362   4.316   0.335
35897W        W99456  23.992  32.623  10.499
35898W        W99457  43.868   5.435   2.699
35899W        W99458  43.832  22.071   0.940
35900W        W99459  20.099  23.052   3.654
35901W        W99460  17.189  27.502   4.744
35902W        W99461  20.685  26.681  13.908
35903W        W99462  32.124  23.542   3.337
35904W        W99463  44.943  10.363  13.359
35905W        W99464  23.090  23.169  12.447
35906W        W99465  42.326  13.687  12.972
35907W        W99466  11.244  30.163   3.659
35908W        W99467   5.406  16.275  12.475
35909W        W99468  24.181  43.933  14.465
35910W        W99469  12.294   7.892   4.246
35911W        W99470  34.871   5.915  14.907
35912W        W99471  21.681   0.915   1.272
35913W        W99472  12.723  40.849   0.251
35914W        W99473   6.402  38.566   2.350
35915W        W99474   3.790  11.751  14.842
35916W        W99475  41.867  25.180   1.723
35917W        W99476  15.666  43.501   1.728
35918W        W99477   0.784  33.440   1.330
35919W        W99478  28.514   7.905  12.472
35920W        W99479  23.565  44.331  12.901
35921W        W99480   9.313  17.748   1.825
35922W        W99481  15.086   8.729  13.828
35923W        W99482  41.455  11.785   2.359
35924W        W99483  11.736  27.173  14.990
35925W        W99484  23.626  30.955   0.779
35926W        W99485  32.016  41.029  13.443
35927W        W99486  24.515   5.760   4.709
35928W        W99487   1.832  12.661  11.478
35929W        W99488   1.733  34.492  13.971
35930W        W99489  31.523  40.929  12.390
35931W        W99490  34.444   5.417  14.031
35932W        W99491   7.391  27.060  14.451
35933W        W99492  11.821  40.842   4.801
35934W        W99493  43.322  22.199  10.632
35935W        W99494  38.342  15.625  14.975
35936W        W99495  36.477   7.400   4.153
35937W        W99496  37.435   7.205  10.035
35938W        W99497   7.300  17.559  11.579
35939W        W99498  19.576  17.209   2.792
35940W        W99499  14.280  17.064  13.375
35941W        W99500   4.298  44.396   2.757
35942W        W99501  25.051   7.729  14.850
35943W        W99502  34.903   5.710   1.925
35944W        W99503  17.765  33.443  14.834
35945W        W99504  31.009  21.203  10.924
35946W        W99505  30.979  14.267   5.192
35947W        W99506  31.517  31.612  12.573
35948W        W99507  25.542  27.518   1.328
35949W        W99508   5.915  39.545   1.876
35950W        W99509  38.945  36.973   3.302
35951W        W99510  15.182  37.049  12.456
35952W        W99511   8.160  16.253  13.372
35953W        W99512  42.367  27.175   0.886
35954W        W99513   6.336   4.844  10.017
35955W        W99514  33.938  37.438  14.322
35956W        W99515  11.847   5.743   3.796
35957W        W99516  11.621   6.690  10.499
35958W        W99517  17.669  24.112  13.438
35959W        W99518  44.406  34.417   3.760
35960W        W99519  39.550   9.278  13.955
35961W        W99520  43.477  28.968   1.850
35962W        W99521  14.734  27.151  13.058
35963W        W99522  27.491  18.655  10.526
35964W        W99523  32.545  35.594  10.894
35965W        W99524  13.229   3.892  10.461
35966W        W99525  17.120   3.734  11.083
35967W        W99526  34.021  34.937   3.295
35968W        W99527  16.316  22.595  13.502
35969W        W99528  10.344   4.250  11.613
35970W        W99529   4.756  17.065   1.852
35971W        W99530  42.911  17.126   5.088
35972W        W99531  43.481  15.117   3.258
35973W        W99532  42.003  41.524  12.960
35974W        W99533  17.190   0.487   2.302
35975W        W99534  33.110   5.748   2.842
35976W        W99535   5.896  28.547  12.981
35977W        W99536  21.083  43.348  13.369
35978W        W99537   2.796  19.677   2.282
35979W        W99538  43.404  37.878  10.906
35980W        W99539  18.115   9.385  14.922
35981W        W99540  27.999  34.380  11.124
35982W        W99541   6.191  41.843   0.757
35983W        W99542  14.653  33.421   3.679
35984W        W99543  16.671  32.103   1.867
35985W        W99544   4.334   0.326  14.773
35986W        W99545  44.473  30.977  13.040
35987W        W99546  30.927  33.964   3.242
35988W        W99547  17.289   0.748   4.221
35989W        W99548  31.498  31.627   3.346
35990W        W99549   7.359  43.868  11.951
35991W        W99550   1.462  21.163   2.238
35992W        W99551  28.451   1.375   0.870
35993W        W99552  14.815  36.475   1.701
35994W        W99553  32.599  14.258   1.904
35995W        W99554   4.805   3.807   4.617
35996W        W99555  13.223  32.560   4.827
35997W        W99556  33.879  10.875  10.411
35998W        W99557  38.905  34.112  11.459
35999W        W99558   9.221  11.662  12.824
36000W        W99559  28.518  27.507  13.886
36001W        W99560  11.749  20.737  11.916
36002W        W99561   3.371  23.054  11.501
36003W        W99562  21.122  13.826  14.305
36004W        W99563   3.834  12.117  14.868
36005W        W99564  43.285   9.150   1.838
36006W        W99565  40.900   5.740   3.791
36007W        W99566  38.558  40.906   4.336
36008W        W99567  37.581   4.288   2.830
36009W        W99568  31.109  24.202  13.870
36010W        W99569   8.772  37.005   3.162
36011W        W99570  13.756  43.810  12.974
36012W        W99571  13.650  31.145  11.387
36013W        W99572  25.485  29.515  11.375
36014W        W99573  39.405  13.337  11.594
36015W        W99574  33.601  32.142  14.970
36016W        W99575  42.325  38.022  12.888
36017W        W99576   1.946  35.022   2.400
36018W        W99577  35.913  44.862  10.599
36019W        W99578  27.607  30.517  13.056
36020W        W99579   2.832  15.638  14.275
36021W        W99580  43.325  36.978  11.372
36022W        W99581  30.106  28.068  12.017
36023W        W99582  22.048  32.998   9.480
36024W        W99583  12.662  20.069  11.108
36025W        W99584  10.832  39.966  14.472
36026W        W99585   1.410  15.164  13.906
36027W        W99586  35.385  25.965  12.375
36028W        W99587  21.731  27.102  11.447
36029W        W99588   1.740  21.061   1.334
36030W        W99589   6.411  13.694  10.130
36031W        W99590  27.099  43.344   1.389
36032W        W99591  16.095  13.296   4.782
36033W        W99592  11.234  40.827   0.749
36034W        W99593  29.122  29.954  12.892
36035W        W99594  16.732  27.957  12.892
36036W        W99595  44.463  37.403   1.303
36037W        W99596   5.751  19.114  13.936
36038W        W99597  13.170  36.469  13.910
36039W        W99598  39.047  16.570   0.382
36040W        W99599   4.781  11.264   3.661
36041W        W99600  21.093   4.375  14.372
36042W        W99601  28.006  27.053  11.398
36043W        W99602  16.226  23.122   9.582
36044W        W99603  22.634  27.179   9.958
36045W        W99604  15.809  40.962   2.776
36046W        W99605  38.953  34.562  14.392
36047W        W99606  29.532  38.044   0.250
36048W        W99607  18.619  29.474   5.289
36049W        W99608  31.055  36.956  14.889
36050W        W99609   6.342  23.234  14.312
36051W        W99610   2.848  38.984  12.944
36052W        W99611  26.089  44.319  12.039
36053W        W99612  11.264  29.088  14.278
36054W        W99613  44.476  20.680   0.812
36055W        W99614  31.568   6.805  10.967
36056W        W99615  37.492  34.866  14.833
36057W        W99616   8.782  24.685   4.827
36058W        W99617  29.993  14.277  10.904
36059W        W99618   3.259  23.541  14.487
36060W        W99619  13.627  27.962  11.093
36061W        W99620   3.896   4.249  12.045
36062W        W99621  17.074  16.112  11.425
36063W        W99622  44.466  15.181   1.263
36064W        W99623  43.981  30.015   1.865
36065W        W99624  28.598  22.182  11.381
36066W        W99625  36.084  14.222   2.339
36067W        W99626   2.820  42.430   1.728
36068W        W99627  28.166  13.154   0.876
36069W        W99628  29.614   7.226   4.621
36070W        W99629   6.906  29.038  12.354
36071W        W99630   9.255   8.735  12.074
36072W        W99631  26.204  23.714  12.547
36073W        W99632  30.072  25.192   4.690
36074W        W99633   6.829  34.377   1.272
36075W        W99634  40.386  42.029   1.915
36076W        W99635  32.504  13.339  10.444
36077W        W99636  27.996  40.937   1.332
36078W        W99637  32.571   3.860  13.812
36079W        W99638  12.281  16.631  14.783
36080W        W99639  22.716  23.185   3.168
36081W        W99640  41.367   1.812  14.329
36082W        W99641  30.136  16.796   4.758
36083W        W99642  43.324  23.607  11.123
36084W        W99643  17.102   3.714  11.964
36085W        W99644  28.442  30.492  10.541
36086W        W99645  44.446  18.713   0.957
36087W        W99646  42.326   2.262   1.886
36088W        W99647  25.036  15.191   3.688
36089W        W99648   9.297  14.141  12.006
36090W        W99649  16.279  39.984   2.237
36091W        W99650  28.487  13.341   2.410
36092W        W99651  25.622  28.493  14.515
36093W        W99652  29.584  40.998   3.286
36094W        W99653   9.805  28.624   2.244
36095W        W99654  42.324  34.948   4.690
36096W        W99655  15.112  44.901  12.455
36097W        W99656   5.380   9.840  12.433
36098W        W99657  30.540   8.235  13.039
36099W        W99658  20.571  38.362  12.899
36100W        W99659  15.264  38.348  11.561
36101W        W99660  43.384  31.473   0.384
36102W        W99661  13.113  17.181  10.639
36103W        W99662  38.985   4.245   4.196
36104W        W99663  34.411  40.329   1.759
36105W        W99664  24.724  43.315  13.453
36106W        W99665  42.823  34.482   1.378
36107W        W99666  22.061   8.831  14.022
36108W        W99667  17.063   3.746   0.790
36109W        W99668   6.918  33.503   3.701
36110W        W99669  24.011  31.637   1.754
36111W        W99670   8.871  23.518   1.351
36112W        W99671  32.041   3.923   2.398
36113W        W99672  20.038  42.311   1.402
36114W        W99673  35.494  44.920  11.427
36115W        W99674  40.441  27.564  13.369
36116W        W99675   8.728  39.814  12.062
36117W        W99676   7.691   6.394   1.415
36118W        W99677   8.329  42.917   3.328
36119W        W99678  33.438  13.713  13.392
36120W        W99679  13.250  25.184   3.321
36121W        W99680  23.173  41.953  13.351
36122W        W99681  43.972  19.545  11.065
36123W        W99682  25.683  15.139   1.930
36124W        W99683  11.684  44.328  14.854
36125W        W99684  22.217  28.646   0.900
36126W        W99685   8.703  28.446  12.832
36127W        W99686   9.842  18.680   3.793
36128W        W99687  44.359  21.079  12.429
36129W        W99688  35.503  33.579   0.735
36130W        W99689  29.600  43.778   4.654
36131W        W99690  37.955  12.160   4.145
36132W        W99691  14.321  28.571  10.903
36133W        W99692  41.460   9.705   3.808
36134W        W99693  23.602  21.216   4.700
36135W        W99694   2.797  26.560   3.671
36136W        W99695  36.439  26.993  11.474
36137W        W99696  41.937   1.943   0.886
36138W        W99697  28.585  34.936  12.023
36139W        W99698  37.962  39.037   3.729
36140W        W99699   2.460  40.940   3.373
36141W        W99700  43.839  40.374  10.488
36142W        W99701  37.372  32.429   1.840
36143W        W99702  21.060  27.161   1.362
36144W        W99703  41.417   5.283  13.917
36145W        W99704   7.885  41.023  13.914
36146W        W99705  31.948  44.467  10.919
36147W        W99706   1.950  32.133   0.287
36148W        W99707   9.344  25.579   0.281
36149W        W99708  38.542  11.170   0.407
36150W        W99709   1.377   2.851  13.920
36151W        W99710  18.255  14.145  13.986
36152W        W99711  28.020  26.522   4.198
36153W        W99712  12.628  29.948   2.315
36154W        W99713  24.012  22.222  11.522
36155W        W99714   7.208  12.180  14.400
36156W        W99715  38.563  20.037   4.829
36157W        W99716  34.536  22.579  13.993
36158W        W99717  22.084  34.046   1.422
36159W        W99718  37.873  30.067  10.496
36160W        W99719  20.271  18.761   3.847
36161W        W99720  19.726  10.193  12.904
36162W        W99721  36.548   8.388   4.139
36163W        W99722  24.160  11.285   2.792
36164W        W99723  28.008  28.164  14.013
36165W        W99724   4.877  42.873  13.464
36166W        W99725  24.978  13.312  11.570
36167W        W99726  40.867   2.904   3.168
36168W        W99727   4.384  21.189  10.562
36169W        W99728   6.340  40.323   2.681
36170W        W99729   0.274  20.532  13.823
36171W        W99730   8.321  21.086   0.758
36172W        W99731  37.940  10.249   2.688
36173W        W99732  18.732  25.704  13.340
36174W        W99733   9.229  32.117  13.841
36175W        W99734   4.833  27.469   4.800
36176W        W99735  14.252  41.809   2.408
36177W        W99736  39.437  39.967   2.805
36178W        W99737  38.068  36.981  11.566
36179W        W99738  29.109  20.540   3.275
36180W        W99739  37.076  15.304  13.430
36181W        W99740   7.384  29.515   0.461
36182W        W99741  29.009   1.916  14.287
36183W        W99742  36.431  38.519  13.381
36184W        W99743  16.774  36.953  14.962
36185W        W99744  20.274   0.872  11.943
36186W        W99745  16.592  17.603   1.882
36187W        W99746  28.115  33.536   4.143
36188W        W99747  14.738  33.419  10.450
36189W        W99748  19.682   2.399  13.018
36190W        W99749   0.283  18.760  11.542
36191W        W99750  42.955   2.953  14.838
36192W        W99751  29.967  15.294  11.023
36193W        W99752  17.578  36.590  12.909
36194W        W99753  38.884  33.409  11.546
36195W        W99754  35.083  20.209   1.804
36196W        W99755  16.227   5.304  13.033
36197W        W99756  16.199  39.368  10.538
36198W        W99757  22.175  16.812  11.031
36199W        W99758   5.339  42.785   1.742
36200W        W99759  34.557   8.398   1.318
36201W        W99760  13.173  32.543   5.084
36202W        W99761  17.739  44.282   4.291
36203W        W99762   7.409  13.657   1.724
36204W        W99763  28.528  43.900  14.016
36205W        W99764  12.309  14.124  11.876
36206W        W99765  12.639  11.643  12.931
36207W        W99766  23.073  10.203  12.498
36208W        W99767   2.362   1.874  13.463
36209W        W99768   7.307  33.388   0.392
36210W        W99769  14.685  42.003  12.094
36211W        W99770  28.442  23.038  10.459
36212W        W99771  41.407  18.779  13.963
36213W        W99772  31.102  41.999  13.033
36214W        W99773  34.963   9.838   1.755
36215W        W99774   7.909   1.757  14.837
36216W        W99775   6.803   0.753   0.938
36217W        W99776   9.671  43.346  11.046
36218W        W99777   6.286   4.444   3.151
36219W        W99778  11.153  10.342  11.570
36220W        W99779   3.242  34.585   2.843
36221W        W99780  44.754  30.162  10.985
36222W        W99781  24.677  44.454   2.727
36223W        W99782  33.616  38.404  11.481
36224W        W99783   1.958  11.621  14.291
36225W        W99784   1.285   7.328   2.363
36226W        W99785  13.652  30.163  11.414
36227W        W99786  30.609   0.277   3.243
36228W        W99787  29.536  13.613   1.749
36229W        W99788  36.366   1.881  13.909
36230W        W99789  11.751   2.304  11.419
36231W        W99790  30.933   3.323  14.395
36232W        W99791   6.293  13.172  10.556
36233W        W99792  41.531  24.490  14.978
36234W        W99793  39.403  27.116   4.297
36235W        W99794  34.020   0.936  12.403
36236W        W99795  34.538   6.779   2.740
36237W        W99796  39.065   2.925   2.691
36238W        W99797   9.789  44.332  14.383
36239W        W99798  28.519  40.932   4.819
36240W        W99799   9.748  16.755  13.431
36241W        W99800   8.260  29.123  13.802
36242W        W99801   8.854  10.841   4.617
36243W        W99802  11.360  21.633   0.294
36244W        W99803  38.503  44.824  13.379
36245W        W99804  17.677  32.056   2.300
36246W        W99805  15.817  33.580  13.457
36247W        W99806  16.776  14.671  13.858
36248W        W99807  33.894   4.767   4.257
36249W        W99808   8.743  34.876  13.395
36250W        W99809  10.166  25.141  11.399
36251W        W99810   9.658  33.093  13.860
36252W        W99811  31.958  37.559   4.293
36253W        W99812  41.888  19.242  12.495
36254W        W99813  12.167  33.118   1.915
36255W        W99814  43.849   6.410  11.511
36256W        W99815  41.867  25.545  11.550
36257W        W99816  11.690  17.771   1.750
36258W        W99817   6.227  16.302  13.362
36259W        W99818  36.530  41.460  14.316
36260W        W99819  17.139  37.385  12.049
36261W        W99820   7.907   5.799   3.823
36262W        W99821   0.816   8.183  12.002
36263W        W99822  35.553   0.344  14.833
36264W        W99823  32.907  10.259   0.323
36265W        W99824  24.684  33.956   0.418
36266W        W99825  32.538   6.694   0.951
36267W        W99826  30.028  32.896  13.401
36268W        W99827  15.114  27.508  13.484
36269W        W99828  32.933  32.003  12.567
36270W        W99829  42.900  30.065   3.814
36271W        W99830   0.853  12.687   2.224
36272W        W99831   3.891  31.137   0.259
36273W        W99832  19.715  43.317   0.396
36274W        W99833  30.065   9.890   2.853
36275W        W99834  11.353  38.936   2.875
36276W        W99835  36.984  44.806   0.880
36277W        W99836  24.094  13.279  10.449
36278W        W99837  13.784   7.774  13.524
36279W        W99838   1.891  17.579  11.461
36280W        W99839   7.270   6.287  11.381
36281W        W99840  27.461  40.442  13.325
36282W        W99841   1.432   3.821  10.462
36283W        W99842  23.162  31.097  13.979
36284W        W99843  34.090  29.976  10.992
36285W        W99844   8.355  13.621   3.639
36286W        W99845  14.251  41.459   3.721
36287W        W99846   7.897  25.679  14.957
36288W        W99847   7.766  38.921   2.365
36289W        W99848   1.450  23.151   2.901
36290W        W99849  41.821  31.415   0.917
36291W        W99850  10.254  24.192  13.502
36292W        W99851   3.813  11.632   0.444
36293W        W99852  33.557  30.587  11.486
36294W        W99853  22.704  27.195   3.752
36295W        W99854  19.769  17.712  14.328
36296W        W99855  17.682  13.666   2.286
36297W        W99856   8.297   8.211   4.254
36298W        W99857  10.287   0.764   2.300
36299W        W99858  34.379   9.263   4.610
36300W        W99859  20.187  40.809   0.790
36301W        W99860  35.103  15.758  12.537
36302W        W99861  44.333  12.706  11.445
36303W        W99862  44.003  25.492   0.815
36304W        W99863  15.740  39.402   4.342
36305W        W99864   8.899  26.025   2.378
36306W        W99865  28.569  32.393   3.812
36307W        W99866  15.824  20.256  13.436
36308W        W99867  31.419  43.281   4.270
36309W        W99868  18.609  12.779   2.386
36310W        W99869   1.932  29.032   4.692
36311W        W99870  38.010  39.403  14.783
36312W        W99871  34.595  24.540  13.389
36313W        W99872  26.629  43.464  12.421
36314W        W99873  12.193  35.398   3.377
36315W        W99874  20.559  10.644  14.461
36316W        W99875  43.338  38.434  14.490
36317W        W99876  36.545  30.085  12.967
36318W        W99877  12.654  16.685  11.921
36319W        W99878  17.219  20.199  14.884
36320W        W99879  27.607  42.326   0.826
36321W        W99880  44.937   4.352   4.339
36322W        W99881  16.722  28.647  14.416
36323W        W99882  39.524  35.509  14.903
36324W        W99883  33.546   7.356  11.601
36325W        W99884  16.075  40.352  14.288
36326W        W99885  40.324  19.218  11.983
36327W        W99886  11.333  19.555   0.733
36328W        W99887  29.005  14.274  12.862
36329W        W99888  26.546  34.104  11.125
36330W        W99889  31.537   0.390  14.372
36331W        W99890  38.525   8.367  11.373
36332W        W99891  42.382   4.366  12.355
36333W        W99892   8.212  18.614   0.775
36334W        W99893   2.428  30.427  12.489
36335W        W99894  44.502  30.591  13.029
36336W        W99895   2.318   0.479   1.402
36337W        W99896  20.099  39.876  12.897
36338W        W99897  19.600  24.995  12.516
36339W        W99898  43.794  26.628  10.935
36340W        W99899   2.240  16.742  12.061
36341W        W99900  44.349  27.044   1.273
36342W        W99901  38.458   4.245  12.919
36343W        W99902  14.213  29.939   0.783
36344W        W99903  22.537  22.572  14.466
36345W        W99904   8.857  26.001  11.982
36346W        W99905  40.373  10.373   5.153
36347W        W99906  42.349   7.417  12.445
36348W        W99907  19.639  29.041   3.783
36349W        W99908   8.369  39.897   0.345
36350W        W99909  35.550  42.513  14.884
36351W        W99910  35.539  14.826   4.223
36352W        W99911  14.765  34.958   3.841
36353W        W99912   0.300  42.403  14.468
36354W        W99913   3.452  12.151   2.228
36355W        W99914  10.191  34.103  14.975
36356W        W99915   1.912  21.662   3.701
36357W        W99916   5.402   3.370  14.488
36358W        W99917  42.401  41.847  11.381
36359W        W99918  14.107  35.590  12.834
36360W        W99919  10.165  43.281  14.379
36361W        W99920  30.025   5.723  12.908
36362W        W99921  17.273  32.066  13.390
36363W        W99922  17.223  31.407  11.517
36364W        W99923  39.859  33.035  14.361
36365W        W99924  10.669  40.469   1.747
36366W        W99925  42.502  28.069   4.622
36367W        W99926  23.665   2.401  11.400
36368W        W99927  22.046  40.318  13.049
36369W        W99928  18.757  22.043   3.710
36370W        W99929  29.534  21.262  11.019
36371W        W99930   2.730  31.446   2.228
36372W        W99931  30.416  19.750   0.287
36373W        W99932  14.708  41.036  11.110
36374W        W99933  29.573  29.075  11.874
36375W        W99934  25.043  20.610   4.792
36376W        W99935   5.212   1.947  14.780
36377W        W99936  33.392  32.421   1.232
36378W        W99937  34.982   5.884   1.297
36379W        W99938  40.408  35.885   5.253
36380W        W99939  35.459   6.226   1.213
36381W        W99940  20.227  24.090   1.755
36382W        W99941  16.665  21.113   2.723
36383W        W99942   9.788  41.313   0.370
36384W        W99943  19.051  34.579  11.070
36385W        W99944   4.381  17.668   0.285
36386W        W99945  34.106  27.558   4.765
36387W        W99946   2.382  28.522   4.618
36388W        W99947   8.892  29.109   2.397
36389W        W99948  39.011  12.185  13.370
36390W        W99949   9.691  35.867  12.016
36391W        W99950   3.955  34.866  11.924
36392W        W99951  26.542  20.603   9.495
36393W        W99952  29.928  29.431   4.283
36394W        W99953   4.717  15.801   5.190
36395W        W99954  18.072  11.661   1.883
36396W        W99955   7.253  27.602   2.775
36397W        W99956  28.969  14.155   2.858
36398W        W99957   2.962   4.365  14.803
36399W        W99958  25.973  38.365   0.793
36400W        W99959  32.577  32.951   4.229
36401W        W99960  41.490  11.148  13.902
36402W        W99961   9.801  37.932  12.876
36403W        W99962  30.928  28.121   9.989
36404W        W99963  25.674  35.590   0.765
36405W        W99964  23.733  33.610   4.833
36406W        W99965  37.976  35.587  11.039
36407W        W99966  31.448  34.372  12.429
36408W        W99967  33.489  16.214  10.462
36409W        W99968  26.095  37.057  12.540
36410W        W99969   2.721  34.523  11.597
36411W        W99970  22.248  41.482  13.948
36412W        W99971   2.761   0.871   1.791
36413W        W99972  25.560   1.252   1.358
36414W        W99973  24.159   6.339   0.367
36415W        W99974  12.356  18.680   0.368
36416W        W99975   0.848   1.768  12.513
36417W        W99976   2.796  41.315  11.911
36418W        W99977  36.947  41.872  13.381
36419W        W99978  27.944  28.121   2.727
36420W        W99979  44.276  36.580   2.867
36421W        W99980  16.118   8.888  14.292
36422W        W99981  30.516  38.426  13.935
36423W        W99982   4.905  44.794  12.556
36424W        W99983  17.750   1.346   3.764
36425W        W99984   6.426  42.355  13.975
36426W        W99985  11.720  32.109   3.312
36427W        W99986  12.330  22.229   4.672
36428W        W99987  36.556  10.372   2.230
36429W        W99988   6.859   2.801   2.246
36430W        W99989   6.266  28.665   0.269
36431W        W99990  27.523  15.814  14.406
36432W        W99991  41.789  10.378  12.870
36433W        W99992  22.048   6.730   1.312
36434W        W99993  38.874  42.324  13.890
36435W        W99994   3.924  23.105   0.289
36436W        W99995   3.781  43.313   4.669
36437W        W99996  20.664  20.738   0.812
36438W        W99997  10.760  14.604   2.415
36439W        W99998   9.283   8.160   4.605
36440W        W99999   5.786  20.561  14.978
36441W        W    0   8.324  28.038  11.527
36442W        W    1  26.203  20.585   1.373
36443W        W    2  29.946  15.226  12.499
36444W        W    3  34.074  17.062   3.712
36445W        W    4  26.010  16.273  11.555
36446W        W    5  13.685  33.619   2.696
36447W        W    6  24.498  27.682  14.981
36448W        W    7   5.383  40.486  13.045
36449W        W    8  16.152  25.521  10.005
36450W        W    9  28.079   8.817   0.306
36451W        W   10  34.417  12.344  14.512
36452W        W   11   5.713  40.929   0.439
36453W        W   12  36.546   5.202  11.104
36454W        W   13  29.082  37.946  10.427
36455W        W   14  34.404  36.429  13.062
36456W        W   15   9.278  29.561  14.320
36457W        W   16  22.667  44.318   1.244
36458W        W   17  29.166   0.475   4.334
36459W        W   18  22.061  28.550   3.857
36460W        W   19  36.574  16.302   0.323
36461W        W   20  37.928  40.996   1.284
36462W        W   21  19.763  19.547   2.289
36463W        W   22   5.798   8.682  11.530
36464W        W   23  37.902   1.806   0.913
36465W        W   24  17.759  28.950  10.990
36466W        W   25  17.230   8.358  10.420
36467W        W   26   5.921   7.289  12.486
36468W        W   27  42.028  17.630  11.974
36469W        W   28  27.504  41.485   2.663
36470W        W   29  15.176   3.362  13.314
36471W        W   30  44.496  40.435  12.951
36472W        W   31  27.604  12.289   4.354
36473W        W   32  39.382   4.943  10.949
36474W        W   33  24.540  11.764   2.388
36475W        W   34  36.503  35.985  14.279
36476W        W   35  17.634  14.821   4.749
36477W        W   36   4.288  39.916   4.198
36478W        W   37  16.669  14.219   1.856
36479W        W   38  11.653   0.259  13.487
36480W        W   39  32.936  34.557   4.761
36481W        W   40  41.799  26.158  13.324
36482W        W   41  37.486  15.801   3.684
36483W        W   42   8.701  20.250   4.256
36484W        W   43  40.354  23.238   1.853
36485W        W   44   4.238  38.854   0.903
36486W        W   45   4.394  27.196   2.830
36487W        W   46  29.932  17.635   2.341
36488W        W   47  30.154  32.081  11.933
36489W        W   48  13.662  40.931   4.802
36490W        W   49  17.164  37.577   0.736
36491W        W   50   1.889  19.634  13.042
36492W        W   51  18.545   5.270   0.381
36493W        W   52  35.012  27.605  13.813
36494W        W   53  20.623  34.055   4.159
36495W        W   54  42.906   8.165   3.669
36496W        W   55  28.177  31.531  14.931
36497W        W   56  22.164  41.807  14.503
36498W        W   57  18.218  43.343  14.880
36499W        W   58  22.675  11.293  13.020
36500W        W   59  29.058  13.733   4.693
36501W        W   60  18.746   1.398  10.985
36502W        W   61  40.383  25.106  11.485
36503W        W   62   0.903  13.126   2.293
36504W        W   63  14.200  13.759  12.526
36505W        W   64  17.168  10.792  13.542
36506W        W   65  43.964  40.831  14.922
36507W        W   66  18.203   9.714   0.481
36508W        W   67  35.987   5.728   0.265
36509W        W   68  41.530  16.653   2.845
36510W        W   69  34.567  13.323  14.480
36511W        W   70  36.093  37.506   4.353
36512W        W   71  26.593  33.590   0.736
36513W        W   72  39.836  36.427   3.146
36514W        W   73   6.183  14.278   9.931
36515W        W   74  24.644  21.212   4.678
36516W        W   75  28.534  16.804   3.787
36517W        W   76  13.105  24.618  13.368
36518W        W   77  24.479  30.040  13.375
36519W        W   78  19.728  10.657   0.804
36520W        W   79  11.845  27.492   2.361
36521W        W   80  16.596   7.331  13.389
36522W        W   81  17.729  20.581   4.135
36523W        W   82  42.491   5.828  13.455
36524W        W   83  26.167  14.175   3.323
36525W        W   84  42.901  36.562  12.547
36526W        W   85  25.701  19.163  11.119
36527W        W   86  21.206  23.104  12.548
36528W        W   87  31.464  19.149   1.866
36529W        W   88  23.133   7.322  11.881
36530W        W   89  36.473  40.886   0.301
36531W        W   90  42.026  19.108  10.561
36532W        W   91  33.049  35.854  13.971
36533W        W   92  23.117  33.877   3.241
36534W        W   93  29.569  17.194  14.795
36535W        W   94   6.275  33.392  10.046
36536W        W   95  18.671   3.773  11.880
36537W        W   96  43.333  28.989  14.814
36538W        W   97  25.195  32.078  10.923
36539W        W   98  10.761  13.779   0.449
36540W        W   99  18.605  30.921   0.277
36541W        W  100  37.946  11.651  11.990
36542W        W  101   1.853  18.232  10.939
36543W        W  102  38.038  18.746   3.382
36544W        W  103  42.813   2.936   1.866
36545W        W  104   3.712  37.396   1.416
36546W        W  105  20.198  44.006   0.751
36547W        W  106  40.395   2.781  11.988
36548W        W  107   9.870  21.028  11.021
36549W        W  108   5.346  12.733  13.872
36550W        W  109   4.276   7.371  12.411
36551W        W  110  20.614  12.344   4.645
36552W        W  111   3.227  44.952   1.351
36553W        W  112  40.459  16.275   4.336
36554W        W  113  38.568  13.784   4.659
36555W        W  114  36.071  43.954  10.596
36556W        W  115  23.710  34.867   0.842
36557W        W  116   0.800  38.934   2.361
36558W        W  117  25.174  36.352   0.283
36559W        W  118  42.960  29.444  10.626
36560W        W  119  33.394   1.852   4.177
36561W        W  120  20.759  38.563  13.416
36562W        W  121   2.849   1.417  11.391
36563W        W  122  11.159  34.052   3.150
36564W        W  123  33.075  14.622  12.838
36565W        W  124  24.511  17.681   1.242
36566W        W  125  17.278  22.561   4.289
36567W        W  126  37.527  16.761  12.888
36568W        W  127  27.550   4.926  13.363
36569W        W  128  41.485  27.111   4.739
36570W        W  129   8.262  13.245   3.273
36571W        W  130  21.661  37.425   1.347
36572W        W  131  38.904  24.517  13.374
36573W        W  132  27.472  24.561   1.326
36574W        W  133   0.759  11.860   1.367
36575W        W  134  30.526  16.586  14.838
36576W        W  135  38.018   7.855  12.928
36577W        W  136  34.412  36.019   1.260
36578W        W  137  35.942  38.073   2.755
36579W        W  138   9.168  34.613   1.349
36580W        W  139  23.653   1.785   2.384
36581W        W  140  22.202  21.687  11.608
36582W        W  141  40.544  41.312   0.324
36583W        W  142  37.004  40.879   3.804
36584W        W  143  16.714  17.153  13.810
36585W        W  144  43.010  17.196  12.545
36586W        W  145  20.103  36.011  10.638
36587W        W  146  43.329  37.438   2.901
36588W        W  147  44.405   7.197  14.461
36589W        W  148  42.369   6.375  11.413
36590W        W  149   4.805  19.577   5.196
36591W        W  150  20.068  26.522  12.927
36592W        W  151  26.501  15.772  14.426
36593W        W  152  31.601  30.055  11.976
36594W        W  153  39.403  17.746  13.422
36595W        W  154   6.750  42.368   0.780
36596W        W  155  17.103  19.754  11.000
36597W        W  156  20.619  20.199   2.241
36598W        W  157  24.600   8.686   2.838
36599W        W  158  38.459  24.076  13.978
36600W        W  159  29.997   0.319  13.830
36601W        W  160   8.706  44.823  12.456
36602W        W  161  18.278  25.054   3.871
36603W        W  162  10.828  38.820   4.320
36604W        W  163   4.816  10.188   3.844
36605W        W  164  12.224  12.295   4.698
36606W        W  165  38.833  19.284   2.712
36607W        W  166  35.998   2.847   4.809
36608W        W  167  25.173   9.684   3.811
36609W        W  168  41.347   3.229   5.128
36610W        W  169  39.918   2.412   1.247
36611W        W  170  14.297  33.942   9.580
36612W        W  171  32.495   9.149   0.339
36613W        W  172  24.503  29.133  11.512
36614W        W  173  20.632  24.988   3.789
36615W        W  174  21.525  40.048  14.504
36616W        W  175  35.937  36.902  14.433
36617W        W  176   4.800  16.612   0.383
36618W        W  177   6.389  22.634  11.997
36619W        W  178  32.458  23.085  11.375
36620W        W  179   7.292  23.697   4.285
36621W        W  180  18.228  21.154  14.341
36622W        W  181  20.266  43.899  12.078
36623W        W  182  30.637  14.290  10.947
36624W        W  183  25.190  42.002   4.267
36625W        W  184   9.253  36.534  14.919
36626W        W  185  33.004  10.650   2.752
36627W        W  186   5.425   3.778   2.300
36628W        W  187   2.250  10.333   1.379
36629W        W  188  37.008  13.842   0.835
36630W        W  189   4.733  32.033  14.011
36631W        W  190  14.132   6.194  10.617
36632W        W  191  13.709  38.851  13.390
36633W        W  192  38.471  10.859  13.517
36634W        W  193  40.443  20.600   1.391
36635W        W  194  38.045  19.647  10.948
36636W        W  195  38.465  41.304  11.541
36637W        W  196  29.050   6.872   3.342
36638W        W  197  10.157  14.259   1.427
36639W        W  198   4.846  17.715   0.934
36640W        W  199  26.594  18.083  13.466
36641W        W  200  16.721  17.141  11.590
36642W        W  201  22.099  14.238  11.410
36643W        W  202  19.118   7.710   4.291
36644W        W  203  31.909  12.613  12.849
36645W        W  204   4.832  23.067   0.481
36646W        W  205  28.521  30.630   4.769
36647W        W  206   9.385  21.528   2.187
36648W        W  207  35.404  26.120  12.847
36649W        W  208  36.046  36.461   0.335
36650W        W  209  29.110  12.327   0.776
36651W        W  210  40.824  42.913  12.872
36652W        W  211  26.973  41.367  10.970
36653W        W  212  26.051  13.748  14.400
36654W        W  213  11.343  27.628  14.321
36655W        W  214  41.905  38.518  13.456
36656W        W  215  18.610   5.387   3.717
36657W        W  216   4.847   1.769   2.292
36658W        W  217  13.240  43.328   0.821
36659W        W  218   9.783  11.838  14.973
36660W        W  219  20.118  24.986  13.049
36661W        W  220  33.024  20.543   2.705
36662W        W  221   6.397  42.006   1.694
36663W        W  222  43.875   8.355  10.457
36664W        W  223  20.106  32.040  13.514
36665W        W  224  27.573  26.481   2.273
36666W        W  225  39.341   3.788  10.423
36667W        W  226  41.809   8.823  14.394
36668W        W  227   8.364  27.154   2.259
36669W        W  228  38.417  41.819  11.024
36670W        W  229  25.125   5.803   4.195
36671W        W  230   3.276  38.013  12.989
36672W        W  231  41.820  29.991   0.914
36673W        W  232  33.411   9.717  13.988
36674W        W  233   3.853  33.119   3.809
36675W        W  234  39.508  20.672  12.486
36676W        W  235  37.865  30.584  11.065
36677W        W  236   7.193  10.261   0.942
36678W        W  237  25.136  28.930  12.979
36679W        W  238  22.168   6.414  14.018
36680W        W  239  38.435  23.168   0.257
36681W        W  240  40.916  10.781  11.392
36682W        W  241  36.382  20.188   2.749
36683W        W  242  43.804  37.546  11.072
36684W        W  243  29.977  15.150   3.223
36685W        W  244  30.479   3.769  13.015
36686W        W  245  33.918  19.199   0.850
36687W        W  246  42.503  36.434  14.986
36688W        W  247   0.391  20.181   1.775
36689W        W  248  19.104   6.829  10.479
36690W        W  249  27.052  43.966   3.285
36691W        W  250  31.085  38.071   1.397
36692W        W  251   2.748  43.510   2.822
36693W        W  252  40.474  38.865   0.404
36694W        W  253  10.256   6.873  11.409
36695W        W  254  43.978  32.917   3.214
36696W        W  255   3.864  15.786   2.391
36697W        W  256  13.768  44.990   3.776
36698W        W  257   6.208  33.524  14.806
36699W        W  258   3.765  27.976  10.980
36700W        W  259   7.841   4.896  12.892
36701W        W  260  19.204  20.264   0.864
36702W        W  261  31.590  31.084   2.372
36703W        W  262  28.948  18.083   3.190
36704W        W  263   7.327  30.971   1.450
36705W        W  264  25.614  36.484   0.274
36706W        W  265   1.774  24.589  12.037
36707W        W  266  24.223   2.901  13.538
36708W        W  267   5.706  21.171   1.385
36709W        W  268  36.377  23.085  11.595
36710W        W  269  32.912   8.399  14.485
36711W        W  270  21.741   9.303  12.461
36712W        W  271  14.173   1.270  11.448
36713W        W  272  43.790  19.276   4.352
36714W        W  273   1.479  36.420  10.644
36715W        W  274  41.043  20.537  13.420
36716W        W  275  19.248  31.105   1.895
36717W        W  276   6.917  14.795   3.342
36718W        W  277  22.099  42.506   2.383
36719W        W  278  17.284   4.864  10.156
36720W        W  279   7.211   5.215   1.821
36721W        W  280  40.946  17.239   0.314
36722W        W  281  22.515  41.837  11.128
36723W        W  282  10.166  43.468   0.394
36724W        W  283  19.222  39.374   4.709
36725W        W  284  42.480   1.864  12.365
36726W        W  285  25.662  21.557  14.026
36727W        W  286  37.066   7.733  11.094
36728W        W  287  44.471  39.411  11.942
36729W        W  288  12.313  38.037  12.461
36730W        W  289  18.132  18.197  13.047
36731W        W  290   7.396  42.839  10.993
36732W        W  291  40.846  23.215  11.928
36733W        W  292  19.559  32.943   3.662
36734W        W  293   1.439  43.010   4.625
36735W        W  294  15.668  35.360  12.896
36736W        W  295  25.557  28.106   3.309
36737W        W  296  40.358   7.215   4.262
36738W        W  297  37.853  23.226   1.398
36739W        W  298   2.822  42.981   0.399
36740W        W  299  42.002  33.432   5.237
36741W        W  300  16.293  29.513   4.647
36742W        W  301  17.303  30.621  10.066
36743W        W  302  29.147  23.631   1.729
36744W        W  303  19.041   8.894  13.318
36745W        W  304   0.317  27.104   0.396
36746W        W  305  17.738  12.667  12.894
36747W        W  306  28.638   9.692   3.647
36748W        W  307   4.264  22.568   0.460
36749W        W  308  41.468  32.098  12.988
36750W        W  309   5.290  29.484  14.374
36751W        W  310  10.642  27.514  14.018
36752W        W  311  25.209   9.770   5.296
36753W        W  312  34.607  25.516   2.859
36754W        W  313  24.021  41.389  13.942
36755W        W  314  37.911   4.849  12.846
36756W        W  315   8.228  13.831   2.401
36757W        W  316  12.184   1.800   3.848
36758W        W  317   6.346  21.158  13.419
36759W        W  318  26.972  31.138  10.407
36760W        W  319   6.783  43.460   1.901
36761W        W  320  33.442  13.810   4.645
36762W        W  321  34.407  32.451  13.926
36763W        W  322   9.694  36.441   4.209
36764W        W  323  43.932  17.766   1.346
36765W        W  324  10.719  33.402   1.905
36766W        W  325   4.400  20.206  11.958
36767W        W  326  24.490  43.448   0.786
36768W        W  327  10.657  18.238   2.700
36769W        W  328   0.436  13.156  14.984
36770W        W  329   3.942  37.002   4.648
36771W        W  330  24.605  42.447  14.346
36772W        W  331  31.113   1.945   5.280
36773W        W  332  24.565   6.397  11.481
36774W        W  333  14.130  27.174   3.864
36775W        W  334  21.213  35.584  12.955
36776W        W  335  18.738  41.014  11.038
36777W        W  336  19.618  35.586  11.598
36778W        W  337   0.976  25.481   1.221
36779W        W  338  11.717  37.959  14.305
36780W        W  339  11.739  38.887  11.991
36781W        W  340  24.081  34.540   4.730
36782W        W  341  44.278  12.252   0.786
36783W        W  342  34.386  10.360   2.810
36784W        W  343  20.048  29.628  11.905
36785W        W  344   7.318  39.863  11.556
36786W        W  345  23.683   8.730   1.365
36787W        W  346  22.187  42.909  13.488
36788W        W  347  23.709  15.710   2.203
36789W        W  348  31.012   0.758  14.280
36790W        W  349  10.324  33.389   3.156
36791W        W  350   1.812  36.437   4.811
36792W        W  351   9.366  29.125  13.383
36793W        W  352  40.838  44.008   0.267
36794W        W  353  29.165  37.443  12.471
36795W        W  354   7.237  21.540  12.865
36796W        W  355   6.688  31.567  10.608
36797W        W  356  36.400  24.586  12.930
36798W        W  357  42.391  30.113   2.833
36799W        W  358  22.059  32.414  14.944
36800W        W  359  42.486  43.321  12.013
36801W        W  360  18.681  17.097  10.495
36802W        W  361   7.267  44.007  14.986
36803W        W  362  40.023  18.055   1.331
36804W        W  363  28.654  26.508  14.994
36805W        W  364  13.302  24.165   2.671
36806W        W  365  24.702  11.842   4.269
36807W        W  366  22.717  25.546  10.976
36808W        W  367  37.945   9.207   0.246
36809W        W  368   0.850  27.586  14.030
36810W        W  369  14.786  32.418   3.739
36811W        W  370  22.580  18.179   4.144
36812W        W  371  35.931  11.817  11.571
36813W        W  372   8.392  41.515   0.877
36814W        W  373  19.241  28.127  13.800
36815W        W  374  18.243  17.249   3.307
36816W        W  375  23.101  22.242   0.936
36817W        W  376   7.905   1.351   2.246
36818W        W  377  23.128   9.803   3.724
36819W        W  378   7.261  32.540  14.289
36820W        W  379  14.197  40.893  12.047
36821W        W  380  22.026  36.877   0.836
36822W        W  381  40.418  41.363  14.884
36823W        W  382  34.053  44.776   2.280
36824W        W  383  29.513  32.623   4.824
36825W        W  384  26.465   4.348  13.887
36826W        W  385   4.809   3.401   3.311
36827W        W  386  12.348  35.882   5.194
36828W        W  387  24.132  34.054   0.743
36829W        W  388  14.808  43.865  12.533
36830W        W  389  28.441  35.389  11.869
36831W        W  390   8.356  18.791  10.912
36832W        W  391  26.477  16.693   2.297
36833W        W  392  14.693  25.630  14.479
36834W        W  393  38.876   3.912   1.220
36835W        W  394  24.627  20.085  14.867
36836W        W  395   5.837   3.223  12.568
36837W        W  396   9.881  38.482   4.821
36838W        W  397  33.952  12.856  10.579
36839W        W  398  18.144  44.353  14.306
36840W        W  399  41.309  31.029  13.945
36841W        W  400  43.322  17.081  13.372
36842W        W  401  21.174  32.588   4.123
36843W        W  402  17.760   9.272   4.665
36844W        W  403   8.844  42.959  12.378
36845W        W  404  40.986  24.506  11.075
36846W        W  405   0.794   7.795   3.642
36847W        W  406  37.380   8.673   1.341
36848W        W  407  13.275  36.860   3.310
36849W        W  408  13.800  32.043   3.630
36850W        W  409  38.452   8.821  13.906
36851W        W  410  43.440  21.588  14.457
36852W        W  411  19.702   5.412   3.291
36853W        W  412  13.637  35.526   3.760
36854W        W  413   3.857   6.401  13.826
36855W        W  414  15.610   7.667  14.455
36856W        W  415  11.823  17.721  14.978
36857W        W  416   1.418   6.191   3.844
36858W        W  417   3.905  25.699  14.809
36859W        W  418   6.414  28.931   0.729
36860W        W  419  36.446  37.065   4.797
36861W        W  420   0.848   1.948  10.530
36862W        W  421   2.937   1.336  12.900
36863W        W  422  25.983  20.182   5.192
36864W        W  423  32.067  12.845  11.045
36865W        W  424   0.862  11.218   3.238
36866W        W  425  27.050  34.437   1.287
36867W        W  426   7.877  21.732   4.268
36868W        W  427   6.350  37.831   4.716
36869W        W  428   6.214  38.423  11.991
36870W        W  429  25.552  36.895  11.896
36871W        W  430  44.474  22.657  13.004
36872W        W  431  27.093  32.429   3.310
36873W        W  432   4.833  29.568  10.570
36874W        W  433   4.871  36.510  10.435
36875W        W  434  12.200   4.432   1.441
36876W        W  435  21.213   0.479  12.995
36877W        W  436  44.283  33.500   0.264
36878W        W  437   4.236   6.323   1.318
36879W        W  438  31.930  13.289   2.831
36880W        W  439  23.221  35.589   1.849
36881W        W  440  11.193  28.037   0.459
36882W        W  441  29.985  28.105   3.296
36883W        W  442  21.235  23.571   3.359
36884W        W  443  41.887  33.029   3.734
36885W        W  444  27.445  28.498  12.381
36886W        W  445  42.392  12.660   3.863
36887W        W  446  34.560  19.091  12.847
36888W        W  447   7.799  41.842   2.384
36889W        W  448   4.329   7.182   3.273
36890W        W  449   6.795   5.316   1.303
36891W        W  450  35.087  33.045   3.746
36892W        W  451  29.990  32.095   0.380
36893W        W  452  11.696  11.260   3.635
36894W        W  453  33.436   9.352   2.820
36895W        W  454   6.246  24.131  13.421
36896W        W  455  15.330  20.658   2.813
36897W        W  456  14.182  42.884  13.947
36898W        W  457  23.035   2.429   0.367
36899W        W  458  42.350  24.049  11.570
36900W        W  459  25.093  23.206   4.747
36901W        W  460  29.015  31.402   3.782
36902W        W  461   2.327  15.722   4.699
36903W        W  462   4.403  16.274  11.419
36904W        W  463  12.789  40.962  11.942
36905W        W  464  17.659   8.872   2.723
36906W        W  465   2.421  35.905   0.300
36907W        W  466  30.132  36.865  11.537
36908W        W  467   1.797  19.604   1.428
36909W        W  468  12.803  29.649   4.646
36910W        W  469   0.840  30.424  14.479
36911W        W  470  16.257  44.462  11.128
36912W        W  471  12.828  38.526  13.820
36913W        W  472  21.110  22.714  10.894
36914W        W  473   8.311   9.708   3.710
36915W        W  474  23.572  21.724   2.847
36916W        W  475  35.461  11.312   3.336
36917W        W  476  11.296  34.872   4.251
36918W        W  477  17.715  20.202   3.379
36919W        W  478   2.422  24.534   4.285
36920W        W  479  31.604  22.152  13.969
36921W        W  480  31.064  38.865  14.861
36922W        W  481  29.960  19.655  14.916
36923W        W  482  35.874  38.840  11.482
36924W        W  483  24.531  13.336   3.755
36925W        W  484  20.208  35.591   3.797
36926W        W  485  35.430  28.475   2.289
36927W        W  486  17.790  20.674   0.951
36928W        W  487  31.465  41.518  13.359
36929W        W  488  24.570  38.533   3.274
36930W        W  489  31.102  25.005  11.377
36931W        W  490  12.160   7.897  13.971
36932W        W  491  40.839  10.836   2.812
36933W        W  492  41.482  44.321   0.353
36934W        W  493  28.446  27.975  13.000
36935W        W  494  42.927  33.965  13.511
36936W        W  495  32.966  19.719   3.763
36937W        W  496  30.159  40.341  13.038
36938W        W  497  21.579  36.051   1.414
36939W        W  498  35.568  42.445   0.763
36940W        W  499  11.361  17.608   4.185
36941W        W  500   2.727  20.135  10.921
36942W        W  501  34.450   9.842  14.810
36943W        W  502  16.804  28.036  10.636
36944W        W  503  19.670   8.389  12.453
36945W        W  504  20.144  43.775  14.866
36946W        W  505  19.606  21.596   3.332
36947W        W  506  22.178   8.742  14.321
36948W        W  507  39.840  10.745   1.889
36949W        W  508   0.751  28.592  12.351
36950W        W  509  38.837   5.716   3.265
36951W        W  510  27.484  43.872   1.294
36952W        W  511  25.500  27.450  13.523
36953W        W  512  43.840  16.711   4.696
36954W        W  513  10.843  10.323  14.964
36955W        W  514   6.249  13.603   0.736
36956W        W  515  34.036   1.289   3.332
36957W        W  516   6.215  41.960  11.996
36958W        W  517   9.718   8.349   1.867
36959W        W  518  29.648  10.261   0.815
36960W        W  519  21.053  16.147   1.283
36961W        W  520  40.849  41.419   0.477
36962W        W  521  21.720  24.578   3.796
36963W        W  522  14.707  28.121   2.819
36964W        W  523  35.929  40.890   3.280
36965W        W  524  41.442  32.606   2.378
36966W        W  525  42.341  34.889  12.916
36967W        W  526  13.720   8.263  11.466
36968W        W  527  35.599   4.804   1.335
36969W        W  528  29.508  39.537   5.577
36970W        W  529  28.485   8.742   1.709
36971W        W  530  42.381   3.251   2.724
36972W        W  531   3.217  23.207   0.925
36973W        W  532  40.970   1.474   2.417
36974W        W  533  34.468  26.019  13.318
36975W        W  534  32.427  40.505   1.813
36976W        W  535  44.863  31.602   0.304
36977W        W  536  43.360   4.300   4.798
36978W        W  537  36.881  41.326   2.707
36979W        W  538  17.791  36.542   1.277
36980W        W  539  10.846  29.168  13.466
36981W        W  540  20.118  39.889   3.248
36982W        W  541  22.535   5.194  13.972
36983W        W  542  36.445   9.395   3.226
36984W        W  543  22.998  24.184  10.501
36985W        W  544  44.482  38.455  11.887
36986W        W  545  15.088  30.095  12.578
36987W        W  546  20.712   2.254  13.894
36988W        W  547  43.941   6.409  14.291
36989W        W  548  12.342   0.416   0.368
36990W        W  549  22.710  33.901  10.639
36991W        W  550  39.832  38.423   3.192
36992W        W  551  25.648  29.628   4.194
36993W        W  552   4.791  36.493  14.401
36994W        W  553  33.874  25.097  13.912
36995W        W  554   5.423  34.531   3.692
36996W        W  555  21.653   3.780  12.050
36997W        W  556   3.890  25.586   0.268
36998W        W  557  38.487  20.165  11.884
36999W        W  558  17.205   4.352   0.362
37000W        W  559  37.570  37.914   3.845
37001W        W  560  38.859  39.326  14.888
37002W        W  561   4.421  41.995   4.217
37003W        W  562  15.748  14.144  14.918
37004W        W  563   9.875  36.877   0.282
37005W        W  564  12.769  30.565  11.104
37006W        W  565  16.177   1.284  10.927
37007W        W  566  32.510  31.491  14.860
37008W        W  567  37.550  37.503   1.284
37009W        W  568  26.046  21.213  14.404
37010W        W  569  36.554   7.728  10.892
37011W        W  570  35.901  34.100  10.085
37012W        W  571   1.737  40.031   4.598
37013W        W  572  14.812   2.432  12.549
37014W        W  573   4.345   5.795   4.671
37015W        W  574  33.032  14.727   1.233
37016W        W  575  42.340   7.879  12.953
37017W        W  576  10.755  15.317  11.387
37018W        W  577  26.954   6.334   1.259
37019W        W  578  37.832  41.822   1.358
37020W        W  579  18.095  24.062   2.330
37021W        W  580  13.220  31.136   1.212
37022W        W  581  12.815  25.566  12.346
37023W        W  582  29.536  22.578  12.366
37024W        W  583  40.357   8.276   1.351
37025W        W  584  34.905  12.195  13.401
37026W        W  585   0.813   0.776   5.219
37027W        W  586  41.874   6.807   2.795
37028W        W  587  40.350  33.532  11.451
37029W        W  588  26.144  38.358  14.767
37030W        W  589  10.870  16.741  11.913
37031W        W  590  16.197  43.981   1.846
37032W        W  591   5.337  37.929  14.767
37033W        W  592   6.747  21.726  11.091
37034W        W  593  16.140  21.183   2.257
37035W        W  594  14.172  21.684  11.499
37036W        W  595   8.744  23.028  14.934
37037W        W  596  38.029  44.414   3.336
37038W        W  597  14.779  32.061   0.782
37039W        W  598   4.288  42.947   1.304
37040W        W  599  15.690  12.752  13.911
37041W        W  600  18.050  29.558   1.405
37042W        W  601  11.755  19.155  10.517
37043W        W  602  27.477  44.281  10.630
37044W        W  603  37.839  28.659   3.153
37045W        W  604   0.810   9.888   4.221
37046W        W  605  29.172   8.660  11.589
37047W        W  606  10.799  17.787  11.453
37048W        W  607   9.321   7.822  12.917
37049W        W  608  42.499  27.108  13.350
37050W        W  609  17.701  31.067  14.319
37051W        W  610  30.130  42.353  10.635
37052W        W  611   4.270  28.501   0.326
37053W        W  612   7.384  15.267   1.395
37054W        W  613  27.025   5.727   1.394
37055W        W  614  40.012  17.103   0.886
37056W        W  615  21.710  22.200   0.344
37057W        W  616  24.980   0.771  14.986
37058W        W  617  36.926  11.336   0.963
37059W        W  618   3.784  16.200   4.316
37060W        W  619  42.449  38.916  12.006
37061W        W  620  19.672  39.516   3.174
37062W        W  621   6.705  25.587  11.069
37063W        W  622  29.174  38.902  14.854
37064W        W  623  23.115  25.993   3.347
37065W        W  624  15.709  23.223   5.295
37066W        W  625   0.744  13.685   0.309
37067W        W  626  18.050  10.383  12.532
37068W        W  627  25.631   0.441  13.005
37069W        W  628  36.404  15.271  13.486
37070W        W  629  39.488  43.006  11.894
37071W        W  630  42.882  35.867  13.018
37072W        W  631  40.991  24.981  12.426
37073W        W  632  43.843  37.922  12.095
37074W        W  633   0.820  44.397   2.314
37075W        W  634  16.760  35.431   4.324
37076W        W  635  41.463  34.995  14.012
37077W        W  636  18.690  37.405   3.815
37078W        W  637   9.195   2.724  13.996
37079W        W  638  26.629   3.225  14.336
37080W        W  639  15.577  24.989   4.210
37081W        W  640   5.913  29.155   0.845
37082W        W  641  44.413  27.996  14.370
37083W        W  642   8.717  42.518  13.348
37084W        W  643  27.494  24.099   4.227
37085W        W  644   1.812   7.861  14.502
37086W        W  645  41.799  39.334  14.970
37087W        W  646   0.983  11.157   2.840
37088W        W  647   6.827   3.239  14.307
37089W        W  648  30.067  24.698  14.343
37090W        W  649  14.133  20.208  10.900
37091W        W  650  41.406  16.135  10.897
37092W        W  651   4.731  33.567   1.757
37093W        W  652  25.086  33.595  14.358
37094W        W  653   7.858  11.849  12.920
37095W        W  654   8.398  11.811  12.570
37096W        W  655   0.339  22.738  11.594
37097W        W  656  18.144  36.882  10.447
37098W        W  657  32.614  29.594  12.468
37099W        W  658   2.230  18.294   3.834
37100W        W  659  13.162  18.070   3.282
37101W        W  660  42.005  28.676  11.437
37102W        W  661  12.137  14.591   3.205
37103W        W  662   4.856  28.637   4.761
37104W        W  663  24.724  34.369   4.609
37105W        W  664  11.680   8.681   4.302
37106W        W  665  33.440  26.568   5.116
37107W        W  666  35.898  10.726  12.000
37108W        W  667  44.867  33.978   4.808
37109W        W  668   4.304  44.965  13.441
37110W        W  669  22.599   4.308   2.760
37111W        W  670  12.644  38.959  15.000
37112W        W  671  16.114   4.794  10.063
37113W        W  672  34.898  24.580  11.992
37114W        W  673  35.448  17.190   4.321
37115W        W  674  26.188  18.601  14.765
37116W        W  675  10.746   2.942  12.994
37117W        W  676   3.215   7.811   0.851
37118W        W  677  20.200  16.567   1.909
37119W        W  678  43.496  33.523   1.377
37120W        W  679  29.644   0.392   3.700
37121W        W  680  26.685   5.423  11.073
37122W        W  681  27.968  41.841  12.539
37123W        W  682   9.213  18.613   0.448
37124W        W  683  20.574  42.788   2.326
37125W        W  684  42.783  25.499   2.345
37126W        W  685   5.895  23.659   1.416
37127W        W  686  21.036  23.154  11.958
37128W        W  687  19.049  14.110   0.912
37129W        W  688  24.569  18.779   4.766
37130W        W  689   6.231  43.875   2.408
37131W        W  690  20.677  20.091  11.516
37132W        W  691  10.291  15.696  14.417
37133W        W  692  39.027  20.060  11.535
37134W        W  693  38.836  24.107   0.292
37135W        W  694  14.608   3.273  14.295
37136W        W  695  26.093  23.523  12.998
37137W        W  696  26.692  34.940   4.711
37138W        W  697  39.012  38.506  14.445
37139W        W  698  31.068   5.328  12.000
37140W        W  699  38.820   4.710  10.145
37141W        W  700  41.455   4.206   4.806
37142W        W  701  10.686  29.114  12.422
37143W        W  702  36.441  31.646  14.758
37144W        W  703  41.524  27.588  13.389
37145W        W  704  27.580  27.509   0.945
37146W        W  705  42.458  11.345   0.897
37147W        W  706  37.938   7.762  13.359
37148W        W  707  19.095  36.893  10.992
37149W        W  708  28.978   1.377  14.778
37150W        W  709   5.774   1.275  14.891
37151W        W  710   2.242   1.781   4.205
37152W        W  711  19.773  28.500   3.701
37153W        W  712  36.368  39.856   1.886
37154W        W  713  17.304  23.159  11.398
37155W        W  714  41.363   1.380   2.380
37156W        W  715  13.122  39.545  14.860
37157W        W  716  30.482  21.646  13.409
37158W        W  717  15.240  21.071   0.463
37159W        W  718   5.265  43.953   2.179
37160W        W  719  24.558  11.193   3.754
37161W        W  720  13.277  17.225   5.136
37162W        W  721  15.264  38.967   0.738
37163W        W  722  35.550   0.269  10.426
37164W        W  723  12.119  25.033   0.322
37165W        W  724   3.756   2.830   1.286
37166W        W  725  35.982  19.686  10.427
37167W        W  726  13.150  27.536  12.986
37168W        W  727   8.278  44.397   3.196
37169W        W  728  12.652  27.657   0.267
37170W        W  729  34.550  22.010   2.848
37171W        W  730   4.939  12.855   4.241
37172W        W  731   7.668  16.284   2.371
37173W        W  732  29.075  15.119   2.798
37174W        W  733  35.590   7.239  14.986
37175W        W  734  22.191  27.470  14.288
37176W        W  735  25.705  41.381  12.456
37177W        W  736  31.904  18.769   4.180
37178W        W  737  18.700  28.494  12.021
37179W        W  738  35.407  25.624  10.459
37180W        W  739  18.546  38.452   1.854
37181W        W  740  20.040  31.970  11.980
37182W        W  741  15.593  12.316  12.562
37183W        W  742  36.379  40.539   1.815
37184W        W  743  34.995  28.133  11.502
37185W        W  744  36.442  26.491   3.292
37186W        W  745  34.525  23.214  12.557
37187W        W  746  32.464  28.614  14.009
37188W        W  747  30.497  42.843   3.211
37189W        W  748   8.268  17.246   4.187
37190W        W  749  42.471  37.043   3.277
37191W        W  750  41.400  16.682  13.850
37192W        W  751   8.266   4.358   2.670
37193W        W  752  10.291  35.076   1.891
37194W        W  753  27.000   2.300  11.575
37195W        W  754  15.268  11.279  14.438
37196W        W  755   9.718   7.716  12.543
37197W        W  756   9.229  17.136   2.265
37198W        W  757  43.943  14.327   2.821
37199W        W  758  30.532  13.335   4.750
37200W        W  759  32.605   4.313   1.815
37201W        W  760  26.620  24.587   2.391
37202W        W  761  44.819  40.498   3.843
37203W        W  762  14.828  29.051  11.070
37204W        W  763  32.956   8.797  13.885
37205W        W  764   4.301   2.339  11.915
37206W        W  765  39.941  22.505  12.939
37207W        W  766  21.024  38.442  12.427
37208W        W  767   8.768  16.202   1.244
37209W        W  768  41.033  44.942  10.924
37210W        W  769   1.277  19.773  13.975
37211W        W  770  23.217  22.636   0.358
37212W        W  771  13.624   7.269   1.927
37213W        W  772  42.020   4.899   3.248
37214W        W  773  31.622  37.553   1.777
37215W        W  774   4.789  37.414   4.786
37216W        W  775   8.736  40.055   2.722
37217W        W  776   8.732  19.108   4.703
37218W        W  777  18.614  35.978  13.818
37219W        W  778  25.000  37.509   2.712
37220W        W  779   7.383   2.805  12.365
37221W        W  780  37.458   2.323   5.304
37222W        W  781  44.322   1.778   2.664
37223W        W  782   2.772  39.530   1.250
37224W        W  783  12.238  23.638  12.082
37225W        W  784  12.788  17.181   3.648
37226W        W  785  39.379  36.021  10.468
37227W        W  786  42.523  26.064  11.089
37228W        W  787  18.131  11.666   3.789
37229W        W  788  26.544  33.017   4.690
37230W        W  789  29.437  22.707  10.567
37231W        W  790  41.796  21.034   4.235
37232W        W  791  25.044  36.436   2.193
37233W        W  792   6.395  30.563  11.415
37234W        W  793  32.570  41.030   2.688
37235W        W  794  31.001  15.115   4.141
37236W        W  795  41.890  31.596  12.042
37237W        W  796  12.197  17.780  13.493
37238W        W  797  12.742  35.938   1.903
37239W        W  798  12.770  26.101  10.413
37240W        W  799  22.224   0.335  13.921
37241W        W  800  43.401   2.779  12.027
37242W        W  801  33.421  30.932   1.276
37243W        W  802  14.303  13.706   4.805
37244W        W  803  34.370  44.925  10.597
37245W        W  804  31.476  19.220   2.387
37246W        W  805  40.437  38.370  10.945
37247W        W  806  23.558  27.040  10.922
37248W        W  807   5.741   4.382   4.616
37249W        W  808  23.030  22.139  13.044
37250W        W  809  18.118  32.105   2.311
37251W        W  810  19.190   0.384  13.357
37252W        W  811  31.515  44.279   0.763
37253W        W  812  33.911  30.593  11.006
37254W        W  813  24.012  43.493  10.975
37255W        W  814  17.592  22.087  12.021
37256W        W  815  23.084   4.284   2.891
37257W        W  816  39.004  10.273   3.272
37258W        W  817  15.663  15.308   3.851
37259W        W  818  34.602  39.998   9.981
37260W        W  819   0.290  28.986  10.611
37261W        W  820  44.968  14.820  12.380
37262W        W  821  36.438  39.959   3.272
37263W        W  822   0.797  16.780   3.780
37264W        W  823  15.593  32.569   4.210
37265W        W  824  39.909  16.219   3.750
37266W        W  825  10.168  44.332   0.754
37267W        W  826   6.721   5.721   3.196
37268W        W  827  26.650  30.955   4.142
37269W        W  828  29.100  30.479   2.836
37270W        W  829  35.950  19.098  14.792
37271W        W  830   4.327  24.160  10.551
37272W        W  831   9.650   1.805  12.537
37273W        W  832   1.377  38.540  14.441
37274W        W  833  33.417  19.710  10.102
37275W        W  834   2.381  22.087   4.673
37276W        W  835   9.728  39.944  13.957
37277W        W  836   3.716  33.091   1.864
37278W        W  837  26.967   8.717   0.782
37279W        W  838  24.619  41.486   2.269
37280W        W  839  25.545  34.107   4.775
37281W        W  840  11.861  43.835  13.416
37282W        W  841  20.682  33.520   5.162
37283W        W  842  20.272  22.082  11.505
37284W        W  843  27.117  36.895   1.924
37285W        W  844  30.988  37.843   5.625
37286W        W  845   6.682   2.724  10.956
37287W        W  846  11.690  10.810   0.891
37288W        W  847  18.659  29.963  12.947
37289W        W  848  40.470   6.884  13.498
37290W        W  849   2.252   1.271   2.320
37291W        W  850  11.817  18.650  11.994
37292W        W  851  39.324  23.078  14.427
37293W        W  852  26.652   7.698  14.911
37294W        W  853  24.094  16.689  12.572
37295W        W  854   1.918  44.320   1.817
37296W        W  855  36.550  11.861  14.431
37297W        W  856  16.096  42.832   0.314
37298W        W  857  17.279  15.213   0.389
37299W        W  858   3.932  20.540  11.472
37300W        W  859  13.770  11.770   4.727
37301W        W  860  23.026   7.199  14.995
37302W        W  861  33.023   5.424   4.306
37303W        W  862   6.705  44.436  11.606
37304W        W  863  39.044  28.561   3.241
37305W        W  864  25.580  31.510  11.932
37306W        W  865  42.471   6.362   3.222
37307W        W  866  11.658  12.251   3.267
37308W        W  867  32.614  44.322   1.831
37309W        W  868   3.299   3.454   2.903
37310W        W  869  21.731  20.622  11.023
37311W        W  870  15.260  12.346  12.870
37312W        W  871  17.269   7.734   3.225
37313W        W  872  21.149   0.424  13.934
37314W        W  873  19.206  24.171   2.860
37315W        W  874   8.227  40.864  10.606
37316W        W  875  35.910  20.070   1.413
37317W        W  876  27.460  25.574   2.834
37318W        W  877   2.283  33.406  14.970
37319W        W  878   7.210   0.445   0.363
37320W        W  879  13.651  19.608   0.399
37321W        W  880   3.832   3.360   0.875
37322W        W  881  24.217  39.898  14.006
37323W        W  882  19.136  24.671   1.694
37324W        W  883  16.575  17.173   1.859
37325W        W  884  43.878  12.699   4.649
37326W        W  885  32.913  26.546  10.957
37327W        W  886   1.434   9.660   3.178
37328W        W  887  35.433  40.318  12.951
37329W        W  888   1.281  16.783   4.154
37330W        W  889  13.308  28.122   3.749
37331W        W  890   3.285   7.847  11.569
37332W        W  891  31.589  44.962   0.366
37333W        W  892  10.185  22.685   1.319
37334W        W  893   4.322  27.650  14.921
37335W        W  894  14.167  30.636   4.258
37336W        W  895  32.885   7.720  13.803
37337W        W  896  15.610  31.475   1.744
37338W        W  897  43.782   4.413  10.904
37339W        W  898  38.900  34.450  10.518
37340W        W  899  33.919  11.206  14.960
37341W        W  900  21.550   0.988  13.841
37342W        W  901  26.652  42.020   3.842
37343W        W  902  18.284  25.471   1.756
37344W        W  903  36.565   9.698   0.273
37345W        W  904  18.177  37.561  10.626
37346W        W  905   1.383  20.201  13.810
37347W        W  906   8.286  18.647  13.339
37348W        W  907  16.115   3.736  10.497
37349W        W  908  23.584  25.535   3.381
37350W        W  909  10.780   9.867  12.348
37351W        W  910   6.202  31.968  13.816
37352W        W  911   0.358  36.487   3.259
37353W        W  912  23.493  34.971  14.401
37354W        W  913  23.494   0.759   4.703
37355W        W  914  16.601   7.187  14.973
37356W        W  915  13.717  22.587  10.599
37357W        W  916   2.226  29.667   0.782
37358W        W  917  42.459  30.137   3.351
37359W        W  918   3.903   3.860  13.893
37360W        W  919  42.332  20.741   3.266
37361W        W  920  43.010  36.023   4.611
37362W        W  921   3.426  29.042  11.606
37363W        W  922  25.516   7.799   5.245
37364W        W  923  19.055   8.261  12.344
37365W        W  924   1.260  42.794  14.450
37366W        W  925  14.801  12.641  13.396
37367W        W  926  15.101  39.403  10.589
37368W        W  927  33.463  44.755  14.848
37369W        W  928  31.117  30.601   1.922
37370W        W  929  29.445  34.541   3.222
37371W        W  930  31.096  21.652  11.016
37372W        W  931  20.755  30.937   0.435
37373W        W  932   3.312  20.138   1.324
37374W        W  933  32.527  22.995  10.990
37375W        W  934   1.904  43.286   4.265
37376W        W  935  35.089  43.938   0.964
37377W        W  936  11.858   1.763   5.106
37378W        W  937  41.811   3.721  13.847
37379W        W  938  23.174  35.597  12.403
37380W        W  939   0.950  42.824   4.256
37381W        W  940  24.656  19.257   0.966
37382W        W  941   2.752  14.112  12.891
37383W        W  942  28.987  34.914  13.870
37384W        W  943  40.838  36.452  12.085
37385W        W  944  36.403  15.655   9.981
37386W        W  945   4.307   3.729   2.709
37387W        W  946  10.253  43.456  13.448
37388W        W  947  40.311  23.168   3.691
37389W        W  948  12.839   8.810  11.086
37390W        W  949   6.689   1.302  13.800
37391W        W  950  40.549   7.880   2.206
37392W        W  951  40.900   5.924  11.570
37393W        W  952  34.075  16.305  13.933
37394W        W  953  37.575   4.289  11.036
37395W        W  954  22.554  42.832   2.203
37396W        W  955   9.293  29.070   0.413
37397W        W  956  27.999  10.210   0.892
37398W        W  957  19.040  39.515   3.676
37399W        W  958  35.030   8.319  14.280
37400W        W  959  20.227  31.487   2.196
37401W        W  960   2.833  24.593  14.336
37402W        W  961  27.578   8.191  13.954
37403W        W  962  25.056  36.395  11.004
37404W        W  963  15.230  21.568  12.038
37405W        W  964  12.327   3.312  11.885
37406W        W  965  41.954  16.291   0.880
37407W        W  966  25.023   6.361   4.305
37408W        W  967   4.368  17.674   1.317
37409W        W  968  38.413  17.559   0.886
37410W        W  969  42.461  20.086  14.844
37411W        W  970  21.231  44.836  13.371
37412W        W  971   4.283  26.181   4.228
37413W        W  972  21.020  16.710   3.151
37414W        W  973  10.298   7.843  13.311
37415W        W  974   9.806  32.595   4.631
37416W        W  975  31.053   4.858   0.386
37417W        W  976  14.607  37.985   4.337
37418W        W  977  42.372   1.262  11.529
37419W        W  978  15.600  16.100   0.882
37420W        W  979  17.739  43.873  11.395
37421W        W  980   6.285  29.116  10.491
37422W        W  981  38.913  23.548  11.553
37423W        W  982  32.605  13.335  14.877
37424W        W  983  23.715   8.883  11.522
37425W        W  984  34.970  21.574  12.847
37426W        W  985  21.096   9.362  12.959
37427W        W  986  15.776  12.235   4.256
37428W        W  987  12.198   9.859   2.794
37429W        W  988  28.444   5.368   2.340
37430W        W  989  25.033  35.504   3.862
37431W        W  990  12.727  15.808  14.439
37432W        W  991   2.347   3.410   9.971
37433W        W  992   5.357  43.964  13.330
37434W        W  993  16.785  12.698  13.380
37435W        W  994  18.789  15.651   4.231
37436W        W  995  30.516   5.323   0.780
37437W        W  996   4.939  29.164  10.454
37438W        W  997  18.180   1.243  12.938
37439W        W  998  10.663  24.979   3.772
37440W        W  999  27.176  15.206   0.782
37441W        W 1000  33.582   1.348   0.475
37442W        W 1001  25.046   8.278   4.197
37443W        W 1002  42.914  40.051   0.853
37444W        W 1003  18.696  12.181   4.716
37445W        W 1004   1.755   5.798   2.803
37446W        W 1005  31.563   6.291   1.778
37447W        W 1006  22.723  10.668  13.367
37448W        W 1007  12.180  43.339  12.075
37449W        W 1008  41.941  26.700   3.349
37450W        W 1009  26.999  10.821   2.398
37451W        W 1010  12.731  27.004   1.894
37452W        W 1011  28.437  26.120   1.390
37453W        W 1012   1.921  11.791  12.944
37454W        W 1013  13.149  37.060  12.456
37455W        W 1014  43.277  19.683   0.353
37456W        W 1015   5.427   1.377  10.408
37457W        W 1016  40.804   8.853   4.787
37458W        W 1017  42.991  24.590   1.825
37459W        W 1018  43.295   8.163  12.854
37460W        W 1019  31.939   5.273   2.402
37461W        W 1020  37.018  10.221  14.992
37462W        W 1021   4.350   6.813   4.692
37463W        W 1022  17.250  19.175  14.515
37464W        W 1023  21.242  42.926   3.278
37465W        W 1024   8.359  44.768  11.577
37466W        W 1025  42.462  37.904   4.661
37467W        W 1026  29.438  19.636  14.856
37468W        W 1027   0.371  23.596  13.823
37469W        W 1028  33.875   6.416   1.923
37470W        W 1029  20.712  25.660  11.596
37471W        W 1030  26.043  18.747   2.383
37472W        W 1031  11.343  32.594  14.847
37473W        W 1032  20.217  31.419   3.337
37474W        W 1033   9.888  24.111   4.192
37475W        W 1034   6.298  19.631  13.379
37476W        W 1035  25.202  33.914   2.345
37477W        W 1036  16.567  36.390  12.556
37478W        W 1037  31.412  10.144   2.685
37479W        W 1038  35.852  27.032   3.288
37480W        W 1039  38.957  22.574   2.811
37481W        W 1040  39.862  35.878   1.303
37482W        W 1041  14.793  25.126  12.479
37483W        W 1042  14.100  22.236   2.254
37484W        W 1043  18.693  35.475   0.947
37485W        W 1044  24.089  27.620   2.853
37486W        W 1045  20.158  30.493  12.988
37487W        W 1046  18.557   2.256   1.242
37488W        W 1047  42.349  38.947  12.975
37489W        W 1048   9.748   5.853  13.869
37490W        W 1049   7.905  42.988  14.996
37491W        W 1050  41.455  39.016  11.453
37492W        W 1051  29.171   1.420   1.808
37493W        W 1052  35.436  27.169  12.361
37494W        W 1053  24.485  10.322  11.546
37495W        W 1054   8.898  42.310  14.325
37496W        W 1055  38.422  40.801  14.849
37497W        W 1056  16.210  43.458  10.453
37498W        W 1057  15.309  43.989  13.506
37499W        W 1058  21.567   5.411  13.497
37500W        W 1059  30.968  38.402  14.282
37501W        W 1060   2.837  22.150   4.673
37502W        W 1061  38.070  17.296  13.840
37503W        W 1062  29.503  31.104  14.958
37504W        W 1063   2.892  37.043   3.305
37505W        W 1064  42.911   0.890   1.248
37506W        W 1065  40.968   1.813   2.246
37507W        W 1066  26.062  42.841   1.890
37508W        W 1067  43.361  36.003  12.052
37509W        W 1068  12.614   5.243   0.439
37510W        W 1069  44.351  32.054  14.350
37511W        W 1070  12.121  44.350  13.510
37512W        W 1071  43.017  26.175   3.657
37513W        W 1072   6.876  26.678  11.968
37514W        W 1073  34.413  13.761  13.548
37515W        W 1074  15.188  29.513   2.855
37516W        W 1075  24.630  18.218   1.864
37517W        W 1076  32.088   3.264   4.625
37518W        W 1077  39.922  36.078  11.920
37519W        W 1078   1.438  39.395  13.474
37520W        W 1079  34.028  42.350   4.341
37521W        W 1080  39.966  11.261  14.319
37522W        W 1081  31.032   3.411   0.307
37523W        W 1082   8.185  40.053   4.815
37524W        W 1083  26.673  43.946   0.348
37525W        W 1084  44.322  18.142   2.820
37526W        W 1085  23.602   5.213  13.868
37527W        W 1086  33.528  11.648  10.639
37528W        W 1087   5.818  38.977   2.364
37529W        W 1088  23.047  29.052   0.397
37530W        W 1089  40.992  39.364  12.564
37531W        W 1090  29.509   8.223   4.282
37532W        W 1091  36.464   3.319  14.859
37533W        W 1092  39.440  10.849   3.801
37534W        W 1093  37.866  32.021  13.421
37535W        W 1094  32.035   7.810  13.384
37536W        W 1095  16.673  38.357  13.326
37537W        W 1096  29.425  36.021   4.188
37538W        W 1097  32.557   9.206   4.255
37539W        W 1098  38.060  20.654  13.479
37540W        W 1099  29.442  25.476   2.326
37541W        W 1100  33.981  14.306  14.844
37542W        W 1101  27.663  28.950   0.465
37543W        W 1102  27.054  31.563   2.903
37544W        W 1103  40.513  36.538   0.260
37545W        W 1104  17.261  13.663   0.427
37546W        W 1105   5.841  16.222   0.284
37547W        W 1106   3.840   9.281   2.858
37548W        W 1107  29.099  44.945   1.867
37549W        W 1108  33.625   2.260   4.271
37550W        W 1109  43.400  41.916  12.445
37551W        W 1110   2.304  37.559  13.524
37552W        W 1111  33.893  10.714  11.513
37553W        W 1112  21.231  19.224  12.442
37554W        W 1113  26.059  16.587  10.436
37555W        W 1114  23.673  10.172  11.509
37556W        W 1115  18.078  12.687   2.246
37557W        W 1116  38.498  20.047   0.735
37558W        W 1117  43.020  38.056  14.309
37559W        W 1118  13.623  29.122  11.125
37560W        W 1119  40.922  42.942  11.110
37561W        W 1120  25.697  18.704   4.312
37562W        W 1121  10.168  21.604  11.076
37563W        W 1122   5.250  23.595   2.875
37564W        W 1123  18.765  29.656  10.969
37565W        W 1124   6.303  34.392   0.416
37566W        W 1125   3.279  23.090   4.241
37567W        W 1126  43.976   0.393  10.908
37568W        W 1127  24.495  23.652   4.281
37569W        W 1128   7.798  31.420   1.704
37570W        W 1129  35.450  28.940   2.266
37571W        W 1130  28.667  27.150   3.285
37572W        W 1131  13.304   0.464   4.818
37573W        W 1132  28.041  43.823  11.068
37574W        W 1133  33.093  19.569   2.785
37575W        W 1134  28.520  10.679  14.289
37576W        W 1135  11.821  16.233   1.215
37577W        W 1136   5.798  21.630   2.217
37578W        W 1137  36.960  28.097   4.249
37579W        W 1138  22.072  20.274  11.535
37580W        W 1139  14.338  36.898  12.851
37581W        W 1140  37.032  33.619  14.321
37582W        W 1141  19.224  14.188   1.419
37583W        W 1142  43.827   6.897  12.998
37584W        W 1143  23.521  15.762  11.002
37585W        W 1144   4.891  42.851  13.004
37586W        W 1145  25.998  28.626   0.382
37587W        W 1146  15.581  37.483   3.212
37588W        W 1147  20.588  28.953   2.214
37589W        W 1148  31.122  31.530   3.206
37590W        W 1149  26.103   2.345  14.032
37591W        W 1150  42.456  16.123   3.332
37592W        W 1151   2.776  13.840   3.162
37593W        W 1152  19.238  24.578   1.235
37594W        W 1153  31.481  33.518  12.016
37595W        W 1154  25.541  23.640  12.560
37596W        W 1155  20.746  21.697   2.274
37597W        W 1156  24.214  12.785   2.214
37598W        W 1157   7.206   9.273  11.534
37599W        W 1158  38.912  20.593  14.841
37600W        W 1159   4.894   3.436   9.996
37601W        W 1160  29.114  33.880   2.858
37602W        W 1161  14.289  10.856   1.725
37603W        W 1162  42.318  28.984   3.685
37604W        W 1163  35.059  41.313   1.866
37605W        W 1164  13.719  18.204   2.797
37606W        W 1165  10.803   1.757  13.442
37607W        W 1166   0.776  24.992   3.786
37608W        W 1167  26.177  18.574  10.909
37609W        W 1168  34.418   7.894   1.375
37610W        W 1169  33.896   5.798  10.974
37611W        W 1170   8.773  10.874   5.195
37612W        W 1171  18.622  36.538  14.936
37613W        W 1172   8.291  23.211  11.485
37614W        W 1173  11.724  27.115  10.606
37615W        W 1174   8.353  24.501   4.663
37616W        W 1175   2.407  29.961  14.510
37617W        W 1176  17.735   6.298  12.398
37618W        W 1177  10.249  21.637  11.488
37619W        W 1178  21.558   6.332  14.873
37620W        W 1179  11.255  22.076  14.415
37621W        W 1180  39.980  39.421   2.727
37622W        W 1181  16.289   7.904   4.694
37623W        W 1182  34.958   2.403  14.994
37624W        W 1183  12.329  19.731  14.291
37625W        W 1184   9.801  30.654   2.681
37626W        W 1185   2.319  19.696   5.118
37627W        W 1186  38.552   1.243   4.833
37628W        W 1187  43.820  28.971  12.502
37629W        W 1188   2.371   7.678   2.381
37630W        W 1189  34.542  25.153  11.013
37631W        W 1190  39.929  30.038  14.781
37632W        W 1191  34.970   2.855  14.839
37633W        W 1192   5.839  26.166  12.002
37634W        W 1193  30.607  17.791   0.372
37635W        W 1194  19.534  25.706  14.882
37636W        W 1195  31.585  37.920   0.892
37637W        W 1196  35.571  12.688   9.536
37638W        W 1197  35.913   0.947  14.016
37639W        W 1198  40.542  36.521   1.830
37640W        W 1199  34.953  39.432   0.359
37641W        W 1200   1.371  25.144  11.948
37642W        W 1201  29.638  43.923   1.808
37643W        W 1202  37.505   1.471   1.424
37644W        W 1203  10.345  13.725   3.765
37645W        W 1204  33.876  41.879  10.120
37646W        W 1205   0.842  34.939  10.634
37647W        W 1206  12.195  29.502  13.389
37648W        W 1207  10.873  13.829  12.953
37649W        W 1208  40.319  41.537  14.408
37650W        W 1209  34.899  40.430   5.246
37651W        W 1210  32.497  44.343  13.327
37652W        W 1211  24.998  14.142   1.720
37653W        W 1212  13.650  21.511   3.864
37654W        W 1213  39.863  24.002   0.251
37655W        W 1214  16.092  37.550  11.960
37656W        W 1215  37.472  10.368  10.637
37657W        W 1216  42.845  36.865  14.332
37658W        W 1217  25.024  12.362   4.802
37659W        W 1218  36.557  30.551  11.914
37660W        W 1219  17.200  29.042   4.157
37661W        W 1220  31.034  17.121   0.759
37662W        W 1221   0.425   5.302  12.990
37663W        W 1222  24.694   6.384   2.252
37664W        W 1223  34.101  13.760  13.968
37665W        W 1224  20.542  35.429  12.890
37666W        W 1225  22.662  13.805   0.767
37667W        W 1226  11.164  10.352  12.949
37668W        W 1227  24.180  40.928  11.518
37669W        W 1228  23.735  25.127   4.600
37670W        W 1229   8.213  39.341   0.325
37671W        W 1230  30.937   2.721   3.769
37672W        W 1231  20.087   2.851  11.897
37673W        W 1232  40.018   1.266  11.434
37674W        W 1233  32.011  25.550   3.776
37675W        W 1234  20.552  43.296  10.919
37676W        W 1235  17.686  18.141   1.262
37677W        W 1236  32.964   3.904   4.706
37678W        W 1237   9.223  42.941   3.368
37679W        W 1238   3.943  31.593  11.383
37680W        W 1239  32.043  21.688  12.091
37681W        W 1240  13.125  41.450  14.335
37682W        W 1241  32.922  15.174  11.894
37683W        W 1242  39.472  19.611   2.361
37684W        W 1243  15.129  39.438  12.089
37685W        W 1244  43.853   2.292  10.945
37686W        W 1245  12.759   3.336  13.955
37687W        W 1246  41.538   2.958  10.628
37688W        W 1247  16.755  32.134  14.327
37689W        W 1248  15.801  10.188   2.695
37690W        W 1249   8.175   6.333   0.320
37691W        W 1250  22.118   3.814  14.492
37692W        W 1251  23.587  32.897   3.788
37693W        W 1252  15.808  12.193   1.241
37694W        W 1253  34.389  40.914  12.886
37695W        W 1254  43.952   2.238  12.442
37696W        W 1255  27.152  28.145   0.351
37697W        W 1256  27.154  39.872   4.679
37698W        W 1257  17.668  14.759  11.914
37699W        W 1258   6.850   7.859   2.812
37700W        W 1259  28.573  26.145  12.550
37701W        W 1260   3.411  41.849  10.563
37702W        W 1261  22.694  19.176  13.529
37703W        W 1262  30.508  19.101  14.462
37704W        W 1263   2.303  28.978  13.443
37705W        W 1264  24.065  10.744  11.528
37706W        W 1265  32.628   4.411   0.256
37707W        W 1266   7.754  18.060   0.902
37708W        W 1267  28.534  37.066   3.286
37709W        W 1268  25.630  30.029   4.736
37710W        W 1269  33.084   8.772   3.650
37711W        W 1270  40.428  36.533  11.010
37712W        W 1271   1.292  20.215   3.654
37713W        W 1272   0.950  10.320  11.868
37714W        W 1273  35.997  11.719  13.438
37715W        W 1274  27.055  39.972  12.530
37716W        W 1275  32.488  21.219   4.315
37717W        W 1276  28.516  20.154   0.884
37718W        W 1277  36.944  30.075  10.887
37719W        W 1278  30.505  31.029  14.414
37720W        W 1279  19.581   2.891   3.187
37721W        W 1280  27.643  41.896  11.378
37722W        W 1281  23.035  40.882  10.521
37723W        W 1282  19.054  43.906  13.890
37724W        W 1283   0.967  42.454  11.937
37725W        W 1284  18.775  18.208   5.228
37726W        W 1285   3.892  29.443  10.111
37727W        W 1286   5.254  19.268  13.882
37728W        W 1287   2.363   5.351  12.516
37729W        W 1288  44.373  21.052  12.082
37730W        W 1289  16.774  28.960  11.601
37731W        W 1290   3.338  21.529   0.284
37732W        W 1291  38.964  10.742  11.432
37733W        W 1292  37.909  10.666   5.124
37734W        W 1293  32.010  44.969  14.390
37735W        W 1294  43.320  37.861  11.472
37736W        W 1295  22.684  28.118  14.900
37737W        W 1296  16.600  42.474   3.239
37738W        W 1297  13.303   5.407  12.076
37739W        W 1298  24.674  15.707  11.452
37740W        W 1299  44.958  38.938   0.477
37741W        W 1300  26.039   6.915   1.893
37742W        W 1301  11.822  25.574   4.146
37743W        W 1302  17.793  31.130   0.330
37744W        W 1303   7.170  40.038   3.659
37745W        W 1304  34.886  30.606   1.405
37746W        W 1305   8.759  35.465   2.830
37747W        W 1306   0.389  26.122   0.880
37748W        W 1307  27.175  25.571   3.315
37749W        W 1308  35.563  25.545   2.886
37750W        W 1309  21.739   0.410   2.403
37751W        W 1310  16.743   5.372  10.978
37752W        W 1311  44.453  34.398  11.124
37753W        W 1312  34.021  33.961   3.868
37754W        W 1313  35.480  19.151   1.433
37755W        W 1314   6.677  16.141  11.929
37756W        W 1315  30.922  23.084  11.933
37757W        W 1316  21.582  33.880  13.325
37758W        W 1317   3.268  17.251  11.419
37759W        W 1318  42.436  41.004   4.164
37760W        W 1319  28.140   1.951   2.414
37761W        W 1320  43.391   6.292   0.824
37762W        W 1321  18.297  23.551  13.499
37763W        W 1322  35.499  18.550  14.008
37764W        W 1323  13.825  40.821   2.717
37765W        W 1324  43.320  12.116  13.401
37766W        W 1325  27.024  27.512  13.400
37767W        W 1326  39.013   8.280   0.795
37768W        W 1327  35.072  38.328   1.891
37769W        W 1328   1.869   6.403   1.252
37770W        W 1329  35.948  41.018  10.404
37771W        W 1330   0.418  36.420   2.741
37772W        W 1331  24.217  14.315  14.416
37773W        W 1332  37.355   7.201   4.316
37774W        W 1333  22.709   5.745   4.605
37775W        W 1334  36.880  40.487   0.250
37776W        W 1335  35.536  42.805  12.914
37777W        W 1336  20.534   3.352  14.501
37778W        W 1337  40.332  15.585   0.751
37779W        W 1338   2.341  18.250   1.351
37780W        W 1339  20.619  23.494   1.434
37781W        W 1340  36.856   0.798   0.404
37782W        W 1341  27.030  19.627  14.787
37783W        W 1342  21.692   9.696  12.369
37784W        W 1343   6.373   7.220  12.024
37785W        W 1344  27.543  28.587  14.278
37786W        W 1345  10.365   0.918   4.789
37787W        W 1346  17.588  32.917   0.259
37788W        W 1347   7.394   1.876  10.641
37789W        W 1348  12.821  30.929   2.199
37790W        W 1349  14.704   4.858  10.911
37791W        W 1350  40.964  21.678  14.949
37792W        W 1351  20.536  43.980   2.335
37793W        W 1352  24.164  29.496  12.832
37794W        W 1353  13.676  38.473  14.808
37795W        W 1354  43.797  30.081  13.454
37796W        W 1355  32.940  32.929  11.946
37797W        W 1356  26.475  44.300  11.486
37798W        W 1357  39.445  16.073   3.252
37799W        W 1358  42.438  19.561  12.494
37800W        W 1359  33.087   7.798  11.081
37801W        W 1360  30.055  17.209   2.295
37802W        W 1361   8.370  11.149  11.433
37803W        W 1362  35.466   1.241   1.211
37804W        W 1363   0.940  24.976  14.917
37805W        W 1364   0.821   3.220   3.375
37806W        W 1365  29.650  40.029   4.814
37807W        W 1366  19.268  14.233   4.620
37808W        W 1367  40.975  16.290  14.487
37809W        W 1368  17.607  17.666  14.906
37810W        W 1369  37.353   9.179  11.393
37811W        W 1370  13.731  39.056  12.855
37812W        W 1371   7.887   8.815  14.923
37813W        W 1372   4.309  35.569  10.637
37814W        W 1373   3.716   9.666  14.801
37815W        W 1374  14.817  22.593  13.431
37816W        W 1375  16.225  23.636   3.197
37817W        W 1376   5.270  23.997  12.363
37818W        W 1377   9.708  36.864   9.629
37819W        W 1378  33.592  37.451   4.802
37820W        W 1379  38.385   4.913   4.769
37821W        W 1380  17.252  21.087  14.326
37822W        W 1381  43.986  33.575   0.858
37823W        W 1382  40.466  14.783   4.266
37824W        W 1383  36.373   4.724   2.411
37825W        W 1384  21.635  30.556   3.366
37826W        W 1385  39.934   7.712  13.452
37827W        W 1386  43.450  28.468  10.602
37828W        W 1387  38.950   7.270   3.366
37829W        W 1388  19.247  31.560   2.198
37830W        W 1389  30.496  11.843  11.027
37831W        W 1390  42.513  37.044  13.393
37832W        W 1391  15.686  41.916  12.838
37833W        W 1392   1.339  18.597  13.931
37834W        W 1393   3.405  25.111  11.509
37835W        W 1394   0.920  27.197   3.375
37836W        W 1395  34.374  33.896  14.364
37837W        W 1396  23.601  26.172  10.432
37838W        W 1397  36.547   0.968   3.668
37839W        W 1398  39.982  31.411   0.255
37840W        W 1399  10.633  31.040  13.852
37841W        W 1400  40.493  43.782   2.226
37842W        W 1401   0.887  32.081   0.480
37843W        W 1402  42.334  26.165  12.370
37844W        W 1403   6.740  34.069  10.642
37845W        W 1404  35.561   9.754  13.497
37846W        W 1405   8.890  11.712  14.405
37847W        W 1406   6.318  44.483  10.992
37848W        W 1407  33.124  40.801  10.511
37849W        W 1408  37.969  44.793  14.386
37850W        W 1409  37.358  11.714   0.797
37851W        W 1410  27.504  15.157   4.303
37852W        W 1411   5.920   9.690   4.684
37853W        W 1412  18.635  36.349   3.283
37854W        W 1413   5.882  21.259   0.951
37855W        W 1414  31.631  26.643  13.862
37856W        W 1415  30.152  42.328  12.562
37857W        W 1416  11.352   1.949   1.701
37858W        W 1417   4.752   6.373  12.561
37859W        W 1418   3.310  10.652  14.903
37860W        W 1419  22.124  35.442  10.507
37861W        W 1420  36.444   2.413   1.915
37862W        W 1421  40.001  42.857  12.454
37863W        W 1422  23.641  17.769  12.052
37864W        W 1423   7.888  37.435  14.864
37865W        W 1424  26.147  13.213   1.715
37866W        W 1425  22.237   8.232   1.384
37867W        W 1426  28.463  17.674  14.505
37868W        W 1427   0.749  34.069   0.968
37869W        W 1428  31.958  29.554   2.765
37870W        W 1429  29.045  17.110  13.353
37871W        W 1430   1.958  11.255   2.387
37872W        W 1431  15.750   9.210   2.378
37873W        W 1432   0.270   9.251   1.778
37874W        W 1433  41.948  20.733  14.370
37875W        W 1434  29.633  25.079  11.116
37876W        W 1435  26.671  36.874   1.396
37877W        W 1436  15.675   0.358   2.675
37878W        W 1437  38.871  37.539   0.948
37879W        W 1438  38.426  11.654   4.626
37880W        W 1439  36.449  29.144  10.936
37881W        W 1440  10.150   3.928  12.014
37882W        W 1441  36.035  13.649  10.521
37883W        W 1442  28.031  33.941   4.226
37884W        W 1443  17.115  36.568  10.524
37885W        W 1444   6.897  15.260  11.051
37886W        W 1445  42.908   2.442   4.810
37887W        W 1446  25.164  20.207  14.311
37888W        W 1447  13.146  10.340  12.443
37889W        W 1448   2.304  39.000   3.362
37890W        W 1449  31.413  38.058  14.829
37891W        W 1450  28.170   8.658  14.915
37892W        W 1451  42.922  28.048  13.353
37893W        W 1452   4.314   7.340   3.805
37894W        W 1453  16.282  43.515   2.189
37895W        W 1454  18.595   2.390   2.849
37896W        W 1455  15.092  21.074  12.079
37897W        W 1456  31.912  30.980   3.721
37898W        W 1457  43.864  32.037   1.420
37899W        W 1458  35.517  13.247   3.844
37900W        W 1459  17.069  21.561  13.398
37901W        W 1460  42.345  30.052   0.439
37902W        W 1461  28.095  41.309  12.462
37903W        W 1462  26.176   3.240  14.404
37904W        W 1463  33.547  13.263  14.467
37905W        W 1464  22.167   2.229  13.994
37906W        W 1465   8.844  29.665   1.251
37907W        W 1466  31.142  18.174   4.198
37908W        W 1467  14.282  44.388  10.902
37909W        W 1468  25.679  25.038   0.787
37910W        W 1469   0.848   6.849   2.709
37911W        W 1470   5.245  36.493  11.031
37912W        W 1471  35.890  32.116  12.017
37913W        W 1472  12.218   1.321   4.642
37914W        W 1473  24.716  21.644   2.663
37915W        W 1474   5.814  44.297  12.918
37916W        W 1475  31.034  18.581  12.065
37917W        W 1476  28.150  19.233  11.110
37918W        W 1477  22.218  16.665   0.958
37919W        W 1478  16.769  40.982   2.714
37920W        W 1479   3.822  18.775   0.827
37921W        W 1480  19.109  16.306  11.556
37922W        W 1481  28.183  12.251  13.945
37923W        W 1482  42.965  37.354   1.328
37924W        W 1483  33.384  41.343   5.137
37925W        W 1484  36.068   9.177   2.772
37926W        W 1485  40.991  15.600   1.711
37927W        W 1486  42.911  42.025   1.830
37928W        W 1487  38.960   2.958  14.774
37929W        W 1488  39.557   0.965  12.551
37930W        W 1489  19.221  31.915  13.446
37931W        W 1490  11.770  31.920   3.640
37932W        W 1491   8.773  36.397   9.921
37933W        W 1492  24.217  19.762   3.721
37934W        W 1493  27.459   0.922  14.411
37935W        W 1494  40.498  32.587   9.473
37936W        W 1495  24.566   7.269   4.114
37937W        W 1496  23.562   3.361   0.438
37938W        W 1497  26.602  12.843   3.372
37939W        W 1498   0.437  20.229   2.721
37940W        W 1499  11.351  33.057   1.325
37941W        W 1500  15.802  26.952   4.788
37942W        W 1501  31.596  24.514  10.602
37943W        W 1502  35.491  24.120  11.909
37944W        W 1503  28.073  33.099   2.278
37945W        W 1504  26.627  38.403   4.314
37946W        W 1505  44.298  18.107   9.956
37947W        W 1506   4.794   5.194   1.738
37948W        W 1507  28.529  25.059   0.939
37949W        W 1508   8.401  24.621   3.631
37950W        W 1509   7.771  14.143  13.415
37951W        W 1510  41.897  25.487   0.942
37952W        W 1511  17.132   1.939   4.348
37953W        W 1512   7.796  27.010  13.912
37954W        W 1513  39.893  18.169   3.255
37955W        W 1514  14.796  23.724  14.322
37956W        W 1515  32.128  18.717   1.841
37957W        W 1516  20.571  25.487  11.058
37958W        W 1517  15.774  10.756  11.497
37959W        W 1518  10.279  11.774   5.114
37960W        W 1519  34.510  37.561  12.836
37961W        W 1520  27.488   8.850   0.924
37962W        W 1521  31.431  31.519  13.041
37963W        W 1522   1.371   0.270   4.628
37964W        W 1523  22.684  34.396   4.675
37965W        W 1524   5.256   4.790   0.946
37966W        W 1525  37.976  24.650  12.431
37967W        W 1526  34.447  39.006   1.390
37968W        W 1527  28.067  29.428  14.303
37969W        W 1528   1.406  21.707   4.192
37970W        W 1529  22.252   2.461  13.323
37971W        W 1530  16.595  23.990  11.076
37972W        W 1531  37.918   7.714   2.190
37973W        W 1532  17.742  42.988   1.426
37974W        W 1533   2.239  14.300  13.036
37975W        W 1534  26.998  41.848   3.642
37976W        W 1535  38.391   3.807  11.103
37977W        W 1536  38.854  41.330   0.877
37978W        W 1537   6.229  25.118  12.020
37979W        W 1538   4.827  36.070  12.580
37980W        W 1539  43.837  29.611   3.747
37981W        W 1540   5.884  41.902  12.447
37982W        W 1541  23.010  32.441  11.563
37983W        W 1542  42.859   7.905  12.859
37984W        W 1543  44.300   1.459  12.993
37985W        W 1544   4.712   2.263   2.852
37986W        W 1545  35.483   8.780  14.431
37987W        W 1546  11.823  27.648  13.521
37988W        W 1547  11.323  38.017  11.601
37989W        W 1548   0.485  11.329  12.417
37990W        W 1549  28.087  42.471   4.255
37991W        W 1550  34.493  42.923   2.273
37992W        W 1551  37.997  25.172   0.796
37993W        W 1552  23.172  28.176   3.278
37994W        W 1553  13.678   1.410   3.254
37995W        W 1554  22.695  19.706  14.026
37996W        W 1555   8.379   2.371  11.092
37997W        W 1556   6.239  29.009  11.468
37998W        W 1557  26.091  20.675   0.935
37999W        W 1558  39.866  29.557  11.899
38000W        W 1559  19.649   1.786  12.421
38001W        W 1560  39.065  36.425   4.692
38002W        W 1561  42.438  35.914   1.385
38003W        W 1562  40.477  26.171   4.338
38004W        W 1563  16.288  30.498  11.377
38005W        W 1564  18.128  37.028  13.870
38006W        W 1565  38.455  44.312  14.997
38007W        W 1566  20.767  44.421  12.990
38008W        W 1567   5.293  15.094  12.996
38009W        W 1568   9.673  31.477  13.791
38010W        W 1569  43.292  37.906   4.270
38011W        W 1570  16.266  42.372   0.806
38012W        W 1571  41.837   0.786   2.683
38013W        W 1572  42.021  27.617  14.951
38014W        W 1573  16.309   9.335  11.934
38015W        W 1574  20.603  20.079  13.036
38016W        W 1575   8.169  29.132  14.856
38017W        W 1576  26.171  37.578  14.014
38018W        W 1577   8.401  32.142   2.369
38019W        W 1578  17.668  42.844  14.341
38020W        W 1579  22.181   1.956   4.208
38021W        W 1580  38.872  28.992   1.910
38022W        W 1581  22.633   0.484  13.951
38023W        W 1582   2.743  30.506  14.411
38024W        W 1583  11.653  18.668  14.442
38025W        W 1584  26.198  32.528   1.883
38026W        W 1585  37.940   0.756   4.616
38027W        W 1586  13.774  38.365  12.382
38028W        W 1587  17.798  16.073   0.387
38029W        W 1588  10.164  18.552   2.258
38030W        W 1589  21.568   2.913  13.793
38031W        W 1590   2.318  23.726   0.856
38032W        W 1591  25.614   5.906  13.393
38033W        W 1592  13.667  26.466  12.476
38034W        W 1593  11.708  16.135   4.205
38035W        W 1594   7.678   8.222   2.399
38036W        W 1595   1.439  29.447  12.340
38037W        W 1596  13.658  16.153   1.841
38038W        W 1597   9.253  18.596  11.100
38039W        W 1598  43.826  35.527  12.924
38040W        W 1599  16.598  24.085  14.992
38041W        W 1600  10.170  10.641   0.378
38042W        W 1601   7.295  40.397   4.655
38043W        W 1602  39.418   6.406   3.871
38044W        W 1603  20.246  10.154  14.920
38045W        W 1604  43.315   2.729   1.346
38046W        W 1605  21.238  15.162  11.065
38047W        W 1606  18.168  17.690   2.786
38048W        W 1607   9.344  38.442   1.817
38049W        W 1608  44.880  33.402   4.173
38050W        W 1609  36.024  23.511  10.574
38051W        W 1610  39.995  41.862  13.454
38052W        W 1611  40.338  27.999   2.389
38053W        W 1612  13.798  21.675   0.916
38054W        W 1613  41.847  29.105   3.871
38055W        W 1614   9.173  42.450   4.636
38056W        W 1615  41.982  21.613   4.116
38057W        W 1616  17.198  37.941   3.231
38058W        W 1617  42.389  44.305   4.161
38059W        W 1618  12.643  29.610   1.826
38060W        W 1619  42.522  30.510   2.885
38061W        W 1620  26.627  37.071  13.340
38062W        W 1621  21.758  18.062  13.963
38063W        W 1622   8.834  16.597  13.400
38064W        W 1623   3.774  42.027  13.409
38065W        W 1624  24.108  36.451  11.114
38066W        W 1625  28.157  39.927  12.061
38067W        W 1626   5.815   1.332   2.298
38068W        W 1627  41.039  20.532   1.867
38069W        W 1628   9.855   1.412  11.473
38070W        W 1629  31.542  30.033   1.416
38071W        W 1630  43.514  36.498  14.926
38072W        W 1631  12.295  33.479   5.301
38073W        W 1632   8.738   4.922  14.408
38074W        W 1633  17.789  21.228  13.484
38075W        W 1634  40.427  39.022   3.344
38076W        W 1635  14.683  34.898   4.665
38077W        W 1636   1.331  42.509  14.908
38078W        W 1637  43.430  40.411  10.483
38079W        W 1638  15.804  41.300   5.249
38080W        W 1639  24.011  41.833  11.415
38081W        W 1640   6.388  17.602  14.032
38082W        W 1641   3.457   6.420  12.935
38083W        W 1642  37.027   4.437  12.385
38084W        W 1643  23.167  24.550   3.662
38085W        W 1644  37.945  36.489   5.571
38086W        W 1645  30.598  37.527  13.329
38087W        W 1646  24.505  35.495  11.601
38088W        W 1647  18.773   4.430   0.433
38089W        W 1648  12.149  38.984  13.478
38090W        W 1649   2.403  24.691   1.232
38091W        W 1650  15.816  29.172  13.951
38092W        W 1651  19.613  40.820  11.941
38093W        W 1652   1.955  11.241  11.554
38094W        W 1653  35.067   3.792   3.834
38095W        W 1654  26.108  30.988  11.431
38096W        W 1655  19.573  40.526  11.866
38097W        W 1656   1.363  30.477   2.781
38098W        W 1657  44.845   6.241  11.537
38099W        W 1658  33.093  22.501   3.668
38100W        W 1659  24.098  39.357  12.392
38101W        W 1660  41.821  43.403   1.278
38102W        W 1661  44.968  43.303   4.808
38103W        W 1662  20.570  25.978   4.738
38104W        W 1663  29.500  25.694   3.705
38105W        W 1664  15.163  19.578   2.220
38106W        W 1665  27.987  41.825   3.669
38107W        W 1666  22.519   6.826  11.447
38108W        W 1667  32.900  29.560   3.741
38109W        W 1668   1.366  35.532   3.813
38110W        W 1669   5.711  29.625   2.704
38111W        W 1670  34.015  20.215  10.934
38112W        W 1671  18.088   9.313   2.243
38113W        W 1672  32.136  29.619  12.962
38114W        W 1673  27.618  14.705   1.697
38115W        W 1674   6.692  33.592  11.858
38116W        W 1675  29.533  26.602   0.324
38117W        W 1676  28.447  38.030   1.383
38118W        W 1677  35.502   8.395   1.256
38119W        W 1678   7.882   2.357   2.257
38120W        W 1679  22.043  25.059  14.342
38121W        W 1680  37.873  37.353   3.254
38122W        W 1681  16.801  11.739   0.880
38123W        W 1682  30.128  19.145   4.194
38124W        W 1683  12.696   8.362   1.729
38125W        W 1684  41.352   4.881   3.708
38126W        W 1685  34.880  19.713   0.944
38127W        W 1686  28.666   1.885   1.232
38128W        W 1687   2.903  19.082  11.518
38129W        W 1688   3.866  33.623   1.835
38130W        W 1689  44.768  14.814   0.326
38131W        W 1690  38.008  27.143   0.966
38132W        W 1691  16.785   6.344   1.916
38133W        W 1692  10.323  18.136   1.400
38134W        W 1693  18.591   4.313  13.806
38135W        W 1694  31.644  29.541  11.523
38136W        W 1695  24.127  21.053  10.020
38137W        W 1696  34.949   6.242  12.885
38138W        W 1697  44.957   6.779  12.462
38139W        W 1698   2.886  34.522   4.609
38140W        W 1699  33.919  11.798  11.025
38141W        W 1700   8.332  39.486  10.477
38142W        W 1701  35.494  29.427  11.871
38143W        W 1702  21.592  41.378   1.808
38144W        W 1703  21.698  18.198  12.431
38145W        W 1704  16.772  21.686  14.295
38146W        W 1705   9.745  24.099   0.807
38147W        W 1706  33.939  12.347  13.031
38148W        W 1707  29.604   7.821  12.841
38149W        W 1708  23.505  31.147  10.988
38150W        W 1709   8.716  24.980   2.240
38151W        W 1710  39.948  25.497  14.822
38152W        W 1711   7.191  25.973   3.304
38153W        W 1712   4.701  16.313   4.168
38154W        W 1713  23.027   8.262   2.742
38155W        W 1714  13.608  32.922   5.136
38156W        W 1715  21.183   5.379   3.281
38157W        W 1716  11.801  11.808   2.696
38158W        W 1717  39.935  23.217  10.633
38159W        W 1718  30.998  24.523   4.350
38160W        W 1719   0.980  22.113  11.396
38161W        W 1720  32.611  30.161  13.334
38162W        W 1721   1.310  28.166   3.698
38163W        W 1722  21.048   0.466  11.397
38164W        W 1723  14.627  41.448   5.253
38165W        W 1724  19.766  32.554   0.932
38166W        W 1725   2.730   6.868  13.820
38167W        W 1726  43.001  35.041  11.930
38168W        W 1727  15.287  38.933  12.964
38169W        W 1728  34.969   2.752  13.967
38170W        W 1729   5.253  40.435   0.416
38171W        W 1730  33.527  13.297  13.913
38172W        W 1731   9.654  15.669   3.747
38173W        W 1732  37.002  20.140  13.521
38174W        W 1733  43.286  17.177  11.868
38175W        W 1734  42.417  19.779  14.475
38176W        W 1735  37.869  31.514   0.450
38177W        W 1736   7.385  35.093   4.737
38178W        W 1737  25.135  32.461  10.437
38179W        W 1738  11.650   7.404   2.388
38180W        W 1739  12.230  34.909   0.838
38181W        W 1740  28.656   5.785  13.898
38182W        W 1741  42.379   4.872  14.453
38183W        W 1742  41.362  39.846   0.913
38184W        W 1743   3.364  20.617   4.642
38185W        W 1744  24.072  38.064  12.832
38186W        W 1745  15.579  40.485  10.944
38187W        W 1746  37.368  34.538  11.018
38188W        W 1747  24.127  16.302   2.265
38189W        W 1748  41.538  28.129   1.331
38190W        W 1749  25.181   9.806  13.018
38191W        W 1750  44.418  35.366   0.955
38192W        W 1751   3.420  38.537  12.917
38193W        W 1752  18.124  41.829   4.247
38194W        W 1753  28.003   9.747  13.463
38195W        W 1754  13.785  25.526  13.490
38196W        W 1755  34.467   1.817  13.909
38197W        W 1756  27.536  30.439   0.370
38198W        W 1757  36.956  43.955   2.247
38199W        W 1758  32.429  29.598   3.261
38200W        W 1759  33.023  17.698   0.350
38201W        W 1760  28.541  32.993   2.276
38202W        W 1761  11.128  28.654  10.440
38203W        W 1762  39.896   1.434   2.230
38204W        W 1763  21.214  25.105   0.296
38205W        W 1764  39.335  25.572   0.900
38206W        W 1765  15.711  44.454  12.052
38207W        W 1766  10.681  16.800  14.304
38208W        W 1767  23.653  25.471  13.024
38209W        W 1768  39.006   8.722  11.109
38210W        W 1769  15.637  38.343   3.667
38211W        W 1770  16.674   6.832  14.896
38212W        W 1771  15.187  40.478  11.995
38213W        W 1772   8.741  14.251  10.895
38214W        W 1773  41.521  41.507   2.853
38215W        W 1774  24.578  33.073   3.749
38216W        W 1775  37.002  40.920   1.293
38217W        W 1776  25.664  41.040  10.576
38218W        W 1777  34.562  26.555   4.700
38219W        W 1778   0.936  38.891   4.783
38220W        W 1779   9.373  10.698   5.130
38221W        W 1780  35.072  16.640   4.813
38222W        W 1781   2.881  27.176  14.355
38223W        W 1782  38.075  18.284   4.744
38224W        W 1783   6.747  30.626  12.961
38225W        W 1784  30.936   1.845  13.857
38226W        W 1785  11.755  12.264  14.327
38227W        W 1786  27.577  41.365   3.761
38228W        W 1787  28.632  37.400  11.608
38229W        W 1788   0.948  17.736  10.930
38230W        W 1789  24.048  14.621   2.361
38231W        W 1790  33.576  12.194  13.519
38232W        W 1791  43.486  42.382  11.481
38233W        W 1792  15.643  20.037   4.243
38234W        W 1793  18.755  42.371  12.478
38235W        W 1794   0.827  22.249  12.017
38236W        W 1795  43.012  42.523   4.687
38237W        W 1796  26.625   1.312  14.993
38238W        W 1797   8.858  13.147  14.024
38239W        W 1798  29.109   2.852   4.713
38240W        W 1799  38.470   2.427  12.923
38241W        W 1800  44.397  26.170   1.297
38242W        W 1801  12.671  40.022  13.372
38243W        W 1802  24.717  30.139   4.827
38244W        W 1803  19.542  36.511  11.443
38245W        W 1804   9.647  27.534   1.232
38246W        W 1805  14.796   4.401  10.486
38247W        W 1806  30.165   1.393   3.772
38248W        W 1807  11.708   0.924   0.948
38249W        W 1808  39.926  29.648  14.332
38250W        W 1809  10.280  41.301  11.541
38251W        W 1810  26.185  15.809   2.268
38252W        W 1811  34.425  19.086   3.779
38253W        W 1812  29.950   6.289  14.374
38254W        W 1813   8.826  42.963  14.437
38255W        W 1814   9.716   1.284   4.318
38256W        W 1815  24.227  11.642   1.229
38257W        W 1816   2.894  37.005   2.311
38258W        W 1817  15.745  24.485   2.785
38259W        W 1818  32.406  24.545  11.870
38260W        W 1819   5.405  15.151  13.514
38261W        W 1820  42.426   0.431   4.321
38262W        W 1821  22.573  15.261   2.205
38263W        W 1822  11.372  15.730   3.683
38264W        W 1823   6.703  37.855   0.772
38265W        W 1824  24.543  38.023  12.894
38266W        W 1825  13.277  38.055   1.795
38267W        W 1826  17.069  31.036  12.833
38268W        W 1827  39.549  41.302   2.694
38269W        W 1828  14.141   8.775   4.171
38270W        W 1829  23.146  21.617   0.945
38271W        W 1830  13.613  23.008  12.830
38272W        W 1831  12.346  40.443  10.633
38273W        W 1832  38.048  13.215  10.485
38274W        W 1833  18.213   7.738   1.211
38275W        W 1834  30.429  42.800   4.744
38276W        W 1835  26.038  12.318   4.222
38277W        W 1836   3.289  21.753   1.280
38278W        W 1837  29.439  36.517  12.423
38279W        W 1838  41.328  28.069  11.558
38280W        W 1839  44.943  12.281  12.942
38281W        W 1840  19.727  16.667   0.928
38282W        W 1841  23.079  39.449   0.430
38283W        W 1842  32.585  18.590  12.570
38284W        W 1843  30.577  44.852   1.395
38285W        W 1844  15.698   6.402   1.904
38286W        W 1845  36.078  41.792  12.507
38287W        W 1846  11.787  14.694   3.339
38288W        W 1847  36.843  41.981  11.909
38289W        W 1848  37.336  27.137   1.251
38290W        W 1849  41.369  32.100   2.372
38291W        W 1850  43.970  38.898  13.349
38292W        W 1851  28.662  24.149   1.379
38293W        W 1852   7.688  31.934   2.260
38294W        W 1853  22.650  20.767  12.000
38295W        W 1854  44.398  21.709   1.873
38296W        W 1855  22.572  23.698   3.761
38297W        W 1856  12.171  29.649  13.943
38298W        W 1857  13.754  42.969   4.609
38299W        W 1858   5.693  16.281  13.458
38300W        W 1859  11.843   8.719  12.929
38301W        W 1860  25.558  36.396  13.827
38302W        W 1861   1.443  43.863  14.458
38303W        W 1862   9.663  12.163  14.288
38304W        W 1863   6.882  12.339   2.231
38305W        W 1864  17.570  25.509  13.881
38306W        W 1865  31.052  25.125   2.358
38307W        W 1866  44.846   2.918  11.892
38308W        W 1867  11.754  44.926   1.222
38309W        W 1868  33.393  42.012   0.876
38310W        W 1869  13.299  10.351  12.938
38311W        W 1870  13.660  25.150   3.182
38312W        W 1871  16.717  31.503  14.447
38313W        W 1872  17.212  20.157  13.825
38314W        W 1873  41.339  35.479   3.275
38315W        W 1874  29.168  15.740   0.823
38316W        W 1875   7.177  42.791   1.407
38317W        W 1876  27.179  34.609  13.812
38318W        W 1877  22.635  25.623   3.170
38319W        W 1878  23.553  29.923   4.789
38320W        W 1879  26.184  20.529   2.875
38321W        W 1880  19.228  24.055  10.408
38322W        W 1881  43.870  24.018  12.379
38323W        W 1882  15.136  36.971   3.697
38324W        W 1883  32.502  33.894  13.343
38325W        W 1884  11.174  17.685  13.356
38326W        W 1885  23.998   8.385   2.287
38327W        W 1886  14.166  29.438   0.782
38328W        W 1887   2.785  31.007  11.448
38329W        W 1888   7.208  25.510  11.124
38330W        W 1889  13.327  14.316   5.147
38331W        W 1890  25.024   1.863  10.926
38332W        W 1891  39.410  35.533  12.511
38333W        W 1892  28.538  34.942   1.270
38334W        W 1893   8.677  34.536   0.458
38335W        W 1894   5.294  20.656   0.799
38336W        W 1895  10.289  39.350  12.049
38337W        W 1896  11.248  38.430  13.504
38338W        W 1897  29.518   4.440   4.190
38339W        W 1898  15.613  11.272   3.230
38340W        W 1899   0.876   4.434   0.776
38341W        W 1900  15.717  21.560   0.374
38342W        W 1901  38.541  21.045   3.207
38343W        W 1902  27.634   7.405   3.687
38344W        W 1903  40.994   5.688  14.837
38345W        W 1904  35.512   7.202  13.420
38346W        W 1905  14.177  13.714   3.798
38347W        W 1906   2.435  43.436  13.483
38348W        W 1907  32.499  35.552  13.508
38349W        W 1908  30.957  44.843  11.466
38350W        W 1909  44.313  19.132   3.653
38351W        W 1910   8.352   8.753   2.378
38352W        W 1911  32.004  41.955   1.257
38353W        W 1912  15.805  23.627   2.318
38354W        W 1913  32.603  14.719  11.457
38355W        W 1914  23.643  19.267  12.443
38356W        W 1915  20.695  15.819   1.349
38357W        W 1916  17.087  40.525   1.386
38358W        W 1917  37.475  31.022   3.860
38359W        W 1918   1.287  30.963   2.348
38360W        W 1919   1.442   6.682  14.997
38361W        W 1920  41.018  22.170  11.959
38362W        W 1921  19.138  28.053   2.271
38363W        W 1922  37.543   9.795  10.992
38364W        W 1923  23.736  41.797   4.258
38365W        W 1924   4.355  38.342  11.391
38366W        W 1925   4.772  36.844   3.219
38367W        W 1926  32.593  35.880  12.975
38368W        W 1927  36.520  27.171  10.899
38369W        W 1928  14.685   0.947  11.904
38370W        W 1929  37.012   2.870  12.014
38371W        W 1930  17.574  30.072  12.935
38372W        W 1931  23.646   6.895  14.868
38373W        W 1932  42.297  18.062  13.364
38374W        W 1933  24.092  17.215   3.305
38375W        W 1934  23.602  15.681   1.352
38376W        W 1935  12.236  24.050   0.381
38377W        W 1936  29.131   4.708  12.889
38378W        W 1937  22.517   0.938  10.404
38379W        W 1938  14.246  43.430   3.240
38380W        W 1939  27.991  37.054   0.892
38381W        W 1940  30.053  15.737   2.183
38382W        W 1941  39.384  20.194  14.853
38383W        W 1942  39.902  36.406   4.822
38384W        W 1943  29.452   0.884  13.329
38385W        W 1944   1.735  22.615  10.581
38386W        W 1945  44.416  24.029  14.784
38387W        W 1946   6.777  14.182   0.464
38388W        W 1947  15.654  32.508   3.272
38389W        W 1948  34.563  42.365   1.415
38390W        W 1949  12.812  36.411   4.282
38391W        W 1950  38.854   2.757  11.861
38392W        W 1951  13.332  29.469   5.156
38393W        W 1952   6.815  24.098   4.800
38394W        W 1953   6.713  38.975   0.341
38395W        W 1954  22.545  14.285   2.374
38396W        W 1955  29.456  35.991   0.832
38397W        W 1956  27.152  10.208   5.585
38398W        W 1957  27.569  42.012   3.721
38399W        W 1958  35.969  10.689   1.274
38400W        W 1959  26.118  15.135   3.343
38401W        W 1960   7.314  34.051   3.372
38402W        W 1961  36.410  34.878   1.353
38403W        W 1962  22.139  20.681   3.367
38404W        W 1963  28.045  11.846  12.992
38405W        W 1964   3.320  19.543  12.077
38406W        W 1965  12.727  29.015  12.436
38407W        W 1966  36.015  44.801   4.309
38408W        W 1967  34.997  40.870  11.532
38409W        W 1968  31.089  23.491   1.905
38410W        W 1969   7.395  44.914   1.283
38411W        W 1970  43.465  11.684   3.818
38412W        W 1971  29.034   5.374   1.431
38413W        W 1972  34.098  17.591   2.814
38414W        W 1973   6.398  13.625   4.765
38415W        W 1974  38.439  17.653  13.414
38416W        W 1975  35.499   3.945   3.345
38417W        W 1976  12.257  19.720  11.541
38418W        W 1977  36.968  42.372   1.349
38419W        W 1978  29.052  19.684  14.491
38420W        W 1979  42.951  35.043   3.375
38421W        W 1980  37.354  17.647  11.060
38422W        W 1981   5.920  31.438   0.379
38423W        W 1982  11.661  17.281  14.843
38424W        W 1983   4.793  36.962  14.811
38425W        W 1984  27.524  29.125   0.955
38426W        W 1985   9.775  35.555  14.501
38427W        W 1986  18.200   4.442   2.800
38428W        W 1987  14.739  42.943   5.181
38429W        W 1988  20.192  41.451   5.288
38430W        W 1989  18.638  30.445   5.099
38431W        W 1990  15.814  32.512   1.832
38432W        W 1991   5.807  30.036   4.125
38433W        W 1992  24.151  29.450  10.512
38434W        W 1993  29.060  18.757   4.695
38435W        W 1994  36.888  39.968  13.401
38436W        W 1995  28.521   4.385  14.279
38437W        W 1996  44.907  25.213   0.872
38438W        W 1997  35.377  25.153  12.556
38439W        W 1998  44.883  17.216  10.972
38440W        W 1999  24.118  18.547  13.979
38441W        W 2000  24.495  28.062   1.743
38442W        W 2001  35.974   1.840   0.813
38443W        W 2002   8.882  40.466   0.915
38444W        W 2003  31.010   0.317  14.366
38445W        W 2004  38.991   6.408   3.235
38446W        W 2005  36.860  37.050   0.935
38447W        W 2006  44.753  25.127  12.489
38448W        W 2007  34.485  20.237   0.456
38449W        W 2008   8.809   8.211   0.306
38450W        W 2009   5.720  14.759  14.311
38451W        W 2010  43.459  35.388  14.366
38452W        W 2011  19.069  28.633  12.440
38453W        W 2012  40.847  43.389   4.656
38454W        W 2013  15.241  41.885   1.801
38455W        W 2014  42.843   6.295  12.018
38456W        W 2015   8.782  29.133   4.150
38457W        W 2016  38.462  34.596  14.499
38458W        W 2017  31.598  44.978  11.548
38459W        W 2018  36.468  18.092   0.845
38460W        W 2019  44.494  23.053   4.605
38461W        W 2020  24.678  21.164   4.175
38462W        W 2021  39.951  11.718  14.768
38463W        W 2022  39.865   5.717  12.399
38464W        W 2023  22.010  36.479  11.460
38465W        W 2024  29.558  21.168  14.506
38466W        W 2025  12.774  12.235  14.938
38467W        W 2026  25.549  18.750  14.793
38468W        W 2027  39.867  15.736  14.501
38469W        W 2028  23.646  37.959  13.337
38470W        W 2029  20.074  13.123   2.668
38471W        W 2030  41.973  41.901   4.646
38472W        W 2031  25.179  24.603  14.331
38473W        W 2032  12.772   7.764   3.685
38474W        W 2033  11.296  25.026   3.325
38475W        W 2034  15.174  14.142   0.954
38476W        W 2035  35.109   5.253  13.527
38477W        W 2036  26.652  10.753  13.930
38478W        W 2037  17.757  25.527   1.217
38479W        W 2038  40.353  32.611  13.475
38480W        W 2039  28.019  44.994  12.570
38481W        W 2040  27.130  34.882   4.737
38482W        W 2041  39.835  33.405   4.182
38483W        W 2042   8.377  27.654   2.698
38484W        W 2043   6.768  25.125  11.469
38485W        W 2044  20.706  30.449  12.969
38486W        W 2045  20.527  39.979  12.404
38487W        W 2046  14.195  41.873  14.498
38488W        W 2047  43.901  35.985   3.683
38489W        W 2048  40.333  15.298  14.969
38490W        W 2049  29.029  39.482   1.415
38491W        W 2050  20.569  21.214   3.218
38492W        W 2051   1.459   5.386  14.931
38493W        W 2052  37.453  20.724  13.930
38494W        W 2053   8.196  31.133   0.827
38495W        W 2054  18.697  30.537   9.921
38496W        W 2055  43.300  16.186   2.227
38497W        W 2056   8.856  27.653  14.795
38498W        W 2057  23.500  13.770   4.261
38499W        W 2058  21.746  37.867   4.220
38500W        W 2059  21.231  35.082   3.322
38501W        W 2060   6.256  21.259   2.201
38502W        W 2061  32.392   1.264   1.703
38503W        W 2062  24.714  14.261   4.257
38504W        W 2063  13.336  24.989   4.808
38505W        W 2064  44.469   0.477  10.146
38506W        W 2065   3.308  15.149   1.715
38507W        W 2066  29.071   1.872  12.531
38508W        W 2067  25.971   1.244   2.747
38509W        W 2068  35.951  44.792   2.321
38510W        W 2069  31.480  23.011   0.276
38511W        W 2070  33.090   0.795  12.053
38512W        W 2071  10.275  22.120   3.341
38513W        W 2072   7.324   8.767  12.825
38514W        W 2073  29.587  43.909   2.713
38515W        W 2074  38.937  29.156   3.373
38516W        W 2075  13.311   2.230  11.030
38517W        W 2076  34.979  23.157  11.425
38518W        W 2077   2.415  22.109  13.418
38519W        W 2078  39.539   1.331   1.235
38520W        W 2079  13.145  38.026  12.043
38521W        W 2080   0.884  44.303   5.247
38522W        W 2081  36.531  33.615   2.203
38523W        W 2082  29.126  24.675   0.844
38524W        W 2083  26.600  16.115   4.684
38525W        W 2084  32.504  37.494   5.093
38526W        W 2085  42.023  37.343   3.691
38527W        W 2086  32.016   8.174   1.721
38528W        W 2087  24.003   7.212   1.300
38529W        W 2088  20.138  28.976   1.813
38530W        W 2089   1.809   9.274  13.859
38531W        W 2090  37.007  37.469   0.802
38532W        W 2091  36.904  21.696   0.414
38533W        W 2092  33.531  13.603  12.995
38534W        W 2093   5.332  25.684  11.004
38535W        W 2094  20.581  22.529   1.276
38536W        W 2095  36.538   4.864  12.067
38537W        W 2096  29.549  28.643  11.898
38538W        W 2097  36.845  40.450  12.548
38539W        W 2098  29.126  15.805  12.021
38540W        W 2099   3.272  35.101   2.307
38541W        W 2100  12.159  18.261  11.519
38542W        W 2101  41.412   0.874   3.290
38543W        W 2102  32.623  35.372  11.511
38544W        W 2103  24.185  30.588  14.427
38545W        W 2104  43.402  30.152   1.734
38546W        W 2105  17.204  38.870  13.313
38547W        W 2106  16.675  28.064   0.796
38548W        W 2107  20.161   2.458  11.923
38549W        W 2108  13.613   2.471  12.035
38550W        W 2109  39.371  14.608  11.983
38551W        W 2110  16.737   1.328  14.778
38552W        W 2111   9.882  33.950   1.857
38553W        W 2112  32.985  38.374   3.643
38554W        W 2113   4.261  12.156   4.264
38555W        W 2114  13.142  37.040   2.673
38556W        W 2115  43.881   3.362   4.740
38557W        W 2116  24.187   3.249   5.304
38558W        W 2117  26.703   2.260   2.682
38559W        W 2118  37.981  28.072   0.850
38560W        W 2119  33.614   8.739  14.815
38561W        W 2120  36.944  24.587   0.348
38562W        W 2121   3.324  18.648   2.323
38563W        W 2122  26.185  38.472  13.527
38564W        W 2123  35.402  11.208   4.610
38565W        W 2124  32.039   3.372  12.491
38566W        W 2125  16.171   7.279  10.561
38567W        W 2126  22.099  40.028  14.469
38568W        W 2127  39.848  22.069   1.300
38569W        W 2128  15.679  10.139  12.541
38570W        W 2129   6.737  27.553   0.831
38571W        W 2130  40.934  15.731  14.419
38572W        W 2131  33.118   3.312  13.430
38573W        W 2132  44.486  10.367   0.482
38574W        W 2133  26.485  30.586   5.209
38575W        W 2134  41.465  17.769  12.510
38576W        W 2135   5.212  35.532   3.334
38577W        W 2136  43.363  37.901  11.903
38578W        W 2137  39.929  15.108  14.032
38579W        W 2138  27.488  26.655   5.106
38580W        W 2139  29.588  32.075  12.070
38581W        W 2140  15.737  43.485  13.332
38582W        W 2141  25.647  29.629   3.264
38583W        W 2142   4.328  12.777   4.809
38584W        W 2143  42.287   0.376  10.561
38585W        W 2144  10.372  12.687  11.584
38586W        W 2145   2.779  12.319   0.453
38587W        W 2146  33.404  41.337  14.444
38588W        W 2147  42.923  18.124  11.972
38589W        W 2148   7.805  35.013   0.319
38590W        W 2149  43.349  12.613  13.873
38591W        W 2150  13.821  26.502   1.752
38592W        W 2151  37.054  23.500  10.936
38593W        W 2152   8.243  32.629  10.929
38594W        W 2153  36.907  10.273   3.642
38595W        W 2154  13.599   8.241   3.200
38596W        W 2155  24.088   0.371  10.619
38597W        W 2156  35.449   9.734  12.976
38598W        W 2157  35.395  14.701   0.478
38599W        W 2158  35.595  25.093  14.770
38600W        W 2159  24.508   4.752   0.789
38601W        W 2160  15.667  33.411   2.328
38602W        W 2161  12.127   9.335  13.915
38603W        W 2162   3.760  44.929   3.174
38604W        W 2163  15.107  30.573   1.739
38605W        W 2164   7.363  37.523  12.394
38606W        W 2165  24.685  23.104   2.698
38607W        W 2166  18.106  24.586   3.257
38608W        W 2167  35.014  30.945  12.947
38609W        W 2168  41.527  32.036   2.761
38610W        W 2169  29.150  33.088   4.219
38611W        W 2170  36.999  13.330   4.826
38612W        W 2171  12.681  42.495  12.563
38613W        W 2172  32.584  12.622   3.275
38614W        W 2173  19.552   3.846  10.554
38615W        W 2174  38.424  33.104   3.852
38616W        W 2175  40.483  32.524  12.446
38617W        W 2176  31.964  29.994  14.953
38618W        W 2177  26.111  27.507  12.580
38619W        W 2178  29.159   3.240   0.966
38620W        W 2179  44.399  31.097  10.984
38621W        W 2180  38.541  11.220   3.152
38622W        W 2181  21.707  38.378  12.014
38623W        W 2182  16.221  29.551   3.782
38624W        W 2183  24.123  17.650  14.375
38625W        W 2184  29.448   0.785  14.806
38626W        W 2185  28.532   1.352  13.338
38627W        W 2186  17.787  29.132  14.421
38628W        W 2187   6.765  23.103  12.519
38629W        W 2188  31.984  29.165   2.711
38630W        W 2189  18.599  21.577   2.894
38631W        W 2190  27.536   4.820  12.013
38632W        W 2191  13.790  44.973  12.968
38633W        W 2192  12.357  11.813  11.510
38634W        W 2193  44.464  42.482   1.910
38635W        W 2194  42.963  43.811   0.340
38636W        W 2195  22.718  24.145   4.210
38637W        W 2196   7.401   0.390  10.594
38638W        W 2197   1.477  16.240   0.271
38639W        W 2198   4.934  17.570   3.276
38640W        W 2199  16.242  16.772  13.314
38641W        W 2200   7.403  26.146  13.348
38642W        W 2201  29.008  20.093   0.740
38643W        W 2202  36.517  20.176   0.807
38644W        W 2203  10.354  25.669  11.584
38645W        W 2204  14.231  15.190   0.956
38646W        W 2205   4.925  11.694  10.949
38647W        W 2206  14.207   2.453   3.365
38648W        W 2207   5.719  30.605   0.420
38649W        W 2208   3.368  37.397   4.164
38650W        W 2209  43.802   8.669  13.922
38651W        W 2210   7.328  11.864  13.941
38652W        W 2211  29.081  24.085   4.795
38653W        W 2212   2.245  16.287  13.006
38654W        W 2213  30.007  33.498  12.992
38655W        W 2214  10.377   6.803   3.740
38656W        W 2215   6.790  36.372  13.913
38657W        W 2216  19.244  33.011   2.414
38658W        W 2217  20.268   8.868   2.409
38659W        W 2218  18.070  14.317   4.260
38660W        W 2219   9.176  21.629   3.780
38661W        W 2220  17.798  30.422  14.397
38662W        W 2221  20.046  23.055   3.200
38663W        W 2222  37.887  20.221  13.957
38664W        W 2223  35.479  25.680  10.997
38665W        W 2224  13.615  26.677  10.570
38666W        W 2225   5.332  35.370  10.613
38667W        W 2226  29.583  17.744   1.736
38668W        W 2227   6.826  22.698   1.825
38669W        W 2228   8.234  39.907  13.450
38670W        W 2229  15.600  31.031   3.158
38671W        W 2230  11.204   9.759  12.515
38672W        W 2231  10.801  29.140   4.269
38673W        W 2232  12.205  21.216   0.274
38674W        W 2233  18.671  28.952   1.809
38675W        W 2234  35.493  42.931   4.182
38676W        W 2235   0.893  23.716   1.748
38677W        W 2236  13.648  25.994   5.092
38678W        W 2237  22.561  27.951   4.274
38679W        W 2238  25.138  10.300  13.846
38680W        W 2239  28.159  44.978   3.718
38681W        W 2240  15.757  17.754   1.367
38682W        W 2241  30.012  27.073   2.689
38683W        W 2242   8.772  13.305   3.666
38684W        W 2243   8.332  21.608   0.803
38685W        W 2244  26.629  43.394   3.183
38686W        W 2245   2.286  23.662   2.189
38687W        W 2246  26.519  36.004   2.818
38688W        W 2247  37.078  36.012   2.711
38689W        W 2248  41.492  27.665  13.832
38690W        W 2249  10.875  43.324   3.150
38691W        W 2250   9.291  30.121   4.302
38692W        W 2251   2.401  19.124   1.721
38693W        W 2252   2.356  22.155  13.978
38694W        W 2253  36.099  33.497   3.831
38695W        W 2254  24.017  18.691  14.929
38696W        W 2255  20.233  12.232  11.981
38697W        W 2256   9.278  43.783   2.679
38698W        W 2257  19.236  39.821   1.860
38699W        W 2258   0.307  20.734   0.793
38700W        W 2259   1.963  31.435  14.462
38701W        W 2260  39.885  25.549  12.052
38702W        W 2261  34.542   5.323   3.811
38703W        W 2262  33.595   8.659   0.326
38704W        W 2263   7.390  12.220  13.448
38705W        W 2264  31.969   0.923   3.201
38706W        W 2265  24.575  26.022   1.212
38707W        W 2266   3.306  26.002   3.651
38708W        W 2267  16.611  14.713   3.165
38709W        W 2268  15.183  43.793  14.349
38710W        W 2269  23.683   8.266   4.127
38711W        W 2270  13.281  30.921   4.771
38712W        W 2271  19.105  35.867   1.246
38713W        W 2272   0.815   8.664   2.690
38714W        W 2273  15.791  29.565  13.454
38715W        W 2274  39.006  20.107   3.185
38716W        W 2275  33.423  39.841   3.222
38717W        W 2276  16.169  34.103  13.845
38718W        W 2277  41.337  37.371   0.749
38719W        W 2278   0.304   2.758   2.302
38720W        W 2279  31.513  18.068   4.194
38721W        W 2280  16.696  21.229  10.600
38722W        W 2281  23.173   6.382  12.053
38723W        W 2282  40.946  43.402  10.504
38724W        W 2283   2.228  27.960  12.842
38725W        W 2284  24.161  38.877   3.805
38726W        W 2285   4.380  16.282   4.674
38727W        W 2286  31.621  18.231   3.268
38728W        W 2287  25.609  43.483   3.671
38729W        W 2288  29.554  13.793  14.955
38730W        W 2289  25.049  37.535  14.808
38731W        W 2290   3.291  21.553  10.521
38732W        W 2291  32.462  23.200  11.946
38733W        W 2292   8.331  20.114  11.553
38734W        W 2293  20.700  33.463   2.698
38735W        W 2294   3.291  19.085  12.419
38736W        W 2295  31.422   5.361   1.903
38737W        W 2296  39.012  40.508  13.494
38738W        W 2297  21.595  42.871  13.916
38739W        W 2298  12.664   3.296  11.123
38740W        W 2299  36.368  25.580  12.445
38741W        W 2300  31.080  32.932  11.601
38742W        W 2301  33.879  38.329   2.358
38743W        W 2302  35.098   8.356   9.974
38744W        W 2303   9.161  25.527  12.482
38745W        W 2304   3.824  19.636   0.458
38746W        W 2305   3.361  13.249   0.738
38747W        W 2306  37.912  37.870  13.021
38748W        W 2307   7.392   7.819  13.347
38749W        W 2308  10.363  14.676  13.887
38750W        W 2309  20.169  11.640  10.583
38751W        W 2310  13.717  24.569  11.979
38752W        W 2311  43.945  16.294   2.832
38753W        W 2312  22.054   4.395  11.073
38754W        W 2313  35.003  23.061   0.373
38755W        W 2314  31.129   5.232  14.493
38756W        W 2315   9.208  42.310  11.038
38757W        W 2316  43.309  42.486  10.571
38758W        W 2317  12.795  36.040   3.192
38759W        W 2318  32.399  18.159   2.291
38760W        W 2319  16.690  39.881  10.602
38761W        W 2320   9.275  16.715  12.341
38762W        W 2321  32.496  43.294  14.813
38763W        W 2322  15.322  33.388  11.378
38764W        W 2323  16.284  32.039   0.944
38765W        W 2324  15.130  44.266   1.762
38766W        W 2325   0.784  18.143   3.832
38767W        W 2326  38.461  18.546  13.855
38768W        W 2327  23.600  38.899  12.473
38769W        W 2328  16.196  23.148   4.617
38770W        W 2329  24.993   6.888   0.965
38771W        W 2330  27.007  25.040  14.789
38772W        W 2331  25.601  44.821   4.213
38773W        W 2332  37.946  44.282   4.734
38774W        W 2333  31.451  40.407  10.508
38775W        W 2334  31.637   2.856   3.334
38776W        W 2335  41.383   7.184   2.873
38777W        W 2336   9.772  43.316  13.415
38778W        W 2337  18.218  15.283   1.885
38779W        W 2338  29.011  17.072  11.464
38780W        W 2339  42.916  15.246   3.263
38781W        W 2340  13.832  20.099   3.713
38782W        W 2341   6.875  35.553  13.432
38783W        W 2342  33.954   9.651  12.979
38784W        W 2343  23.554   7.869  12.034
38785W        W 2344   1.910  44.399   4.791
38786W        W 2345  11.794  20.763   1.378
38787W        W 2346   8.891  30.965   2.350
38788W        W 2347   3.865  21.204  12.497
38789W        W 2348  26.972  34.884   3.718
38790W        W 2349  30.430  29.517  10.894
38791W        W 2350  33.556   3.308  11.932
38792W        W 2351  34.092  30.973   1.823
38793W        W 2352  35.415   9.721  11.489
38794W        W 2353  26.607   6.371  10.622
38795W        W 2354   1.895  39.828  10.983
38796W        W 2355  22.610   3.218   0.825
38797W        W 2356  30.628  16.754  10.540
38798W        W 2357  22.995   2.421  14.467
38799W        W 2358  12.813  26.993  13.463
38800W        W 2359  14.817  27.002  10.972
38801W        W 2360  19.046   6.843   4.649
38802W        W 2361  41.446  12.674  13.040
38803W        W 2362  30.154  25.191   0.381
38804W        W 2363  12.665   3.902  13.830
38805W        W 2364  26.643   3.851  12.505
38806W        W 2365   6.897  41.508  12.867
38807W        W 2366   6.884   7.328  12.093
38808W        W 2367  32.446  33.118   2.799
38809W        W 2368  33.606  16.214   1.353
38810W        W 2369  14.656  16.742  12.492
38811W        W 2370  13.633  16.807  13.467
38812W        W 2371  12.704  30.032  13.851
38813W        W 2372  37.969   3.361  12.045
38814W        W 2373  19.579  10.790   4.341
38815W        W 2374  26.138  35.465  13.047
38816W        W 2375  25.711  19.074  14.364
38817W        W 2376  38.897  39.558  11.988
38818W        W 2377  17.625  26.194   1.696
38819W        W 2378  37.052  27.142  11.073
38820W        W 2379  21.077  20.166  14.318
38821W        W 2380  30.062  31.511  12.028
38822W        W 2381   8.867  27.540  13.044
38823W        W 2382  30.982   0.287  10.465
38824W        W 2383  19.253   8.406   1.436
38825W        W 2384  40.422  15.146   4.159
38826W        W 2385   1.374  37.922   2.187
38827W        W 2386  18.595  43.288   4.604
38828W        W 2387  10.798  34.015  14.840
38829W        W 2388   0.385  42.515   3.693
38830W        W 2389   4.426  25.087   4.818
38831W        W 2390  28.593  35.991   2.254
38832W        W 2391   7.700   3.411   4.685
38833W        W 2392  31.460   0.884  13.847
38834W        W 2393  29.951  11.715  10.614
38835W        W 2394   8.372  34.534   2.291
38836W        W 2395  39.449  37.427  10.890
38837W        W 2396  19.184  44.274  14.285
38838W        W 2397  30.105  18.261   3.646
38839W        W 2398  24.655   8.200  14.822
38840W        W 2399   6.212  36.395   3.365
38841W        W 2400  41.483  10.744   2.819
38842W        W 2401   1.850   6.210   5.202
38843W        W 2402   1.291   2.270  14.359
38844W        W 2403  37.878   3.332   4.178
38845W        W 2404  36.426   2.381  10.525
38846W        W 2405  35.572  33.091  12.400
38847W        W 2406   9.821  10.264  12.368
38848W        W 2407  36.036  28.136  12.877
38849W        W 2408  36.019  15.753  11.083
38850W        W 2409   2.316  25.192   9.986
38851W        W 2410  31.586  15.654   2.375
38852W        W 2411  30.498  41.348   4.649
38853W        W 2412  33.914  28.465   3.748
38854W        W 2413  43.783  10.174  11.496
38855W        W 2414  33.538  42.354  10.921
38856W        W 2415  14.340  33.049  12.081
38857W        W 2416  21.139  24.062  14.394
38858W        W 2417  36.581  14.723  12.469
38859W        W 2418  26.498  31.141   2.892
38860W        W 2419  11.656   5.692   0.376
38861W        W 2420  26.967  10.715   1.836
38862W        W 2421  39.386  36.569   4.310
38863W        W 2422  14.655  21.757   0.871
38864W        W 2423   3.344  10.657  10.572
38865W        W 2424   8.366  15.767  13.492
38866W        W 2425  43.438   6.399   3.661
38867W        W 2426  38.534   2.252   2.832
38868W        W 2427  26.024  34.874  12.876
38869W        W 2428   0.779  26.190   4.643
38870W        W 2429   0.257  27.678   4.803
38871W        W 2430  25.488  43.934   4.835
38872W        W 2431   9.718   8.886   3.798
38873W        W 2432  23.660  44.980  14.380
38874W        W 2433   4.400  33.592   4.343
38875W        W 2434  15.249  22.224   1.886
38876W        W 2435   8.781  24.561  14.014
38877W        W 2436  39.319  27.996  11.946
38878W        W 2437  44.925  31.577  11.894
38879W        W 2438  13.767  15.131   2.355
38880W        W 2439  16.793  19.538   4.142
38881W        W 2440  27.471  21.086   5.157
38882W        W 2441   8.322   8.302  10.598
38883W        W 2442  34.098  38.949  11.411
38884W        W 2443  35.534  26.634  12.993
38885W        W 2444  18.219  12.657   3.276
38886W        W 2445  21.530  10.764  12.515
38887W        W 2446   7.763  17.075   0.868
38888W        W 2447  23.145  20.597  10.900
38889W        W 2448  17.265  29.645   4.630
38890W        W 2449  19.244   5.346  11.497
38891W        W 2450  10.796  33.609   9.660
38892W        W 2451  15.178  17.095  12.345
38893W        W 2452   7.357  19.719  13.473
38894W        W 2453  16.659  16.654  12.907
38895W        W 2454   1.805  11.358  10.613
38896W        W 2455   9.230  22.604   1.224
38897W        W 2456  39.501  23.533   3.839
38898W        W 2457  33.973   4.827   1.845
38899W        W 2458  39.466  41.026   2.714
38900W        W 2459  15.239  16.689   4.233
38901W        W 2460  42.392   6.676  11.467
38902W        W 2461  34.047   3.808   1.433
38903W        W 2462  26.204  38.484   2.694
38904W        W 2463  38.343   0.842  14.004
38905W        W 2464  13.808   0.324   1.385
38906W        W 2465   7.859  22.252  11.950
38907W        W 2466  31.000   1.419   4.256
38908W        W 2467  38.826   9.863  13.366
38909W        W 2468  14.827  17.268  13.522
38910W        W 2469  27.036   5.776   4.275
38911W        W 2470   1.458   4.259  13.869
38912W        W 2471  37.860   0.262  11.962
38913W        W 2472  24.653  36.077   0.924
38914W        W 2473  39.932  34.011  11.595
38915W        W 2474   3.799  17.095   0.853
38916W        W 2475  39.951  13.624  10.441
38917W        W 2476  43.995  41.979   1.825
38918W        W 2477  28.998  43.493   4.744
38919W        W 2478  34.969  23.496  10.440
38920W        W 2479  37.070  37.573   0.258
38921W        W 2480  39.381   1.260  14.478
38922W        W 2481   8.657  27.660  10.030
38923W        W 2482  42.471   7.374  13.348
38924W        W 2483  11.319  42.888   4.347
38925W        W 2484  14.193  31.645  11.118
38926W        W 2485  30.438  29.596  12.000
38927W        W 2486  15.217  12.831   2.314
38928W        W 2487   7.781   6.915   1.807
38929W        W 2488  19.100  37.557  12.984
38930W        W 2489  25.142   5.764   2.896
38931W        W 2490  28.174   5.331  13.324
38932W        W 2491  34.381  40.468   2.767
38933W        W 2492  37.859  25.529  10.457
38934W        W 2493  12.620  44.868   3.782
38935W        W 2494  13.143  42.364   3.677
38936W        W 2495   1.796  20.238  10.508
38937W        W 2496  36.044  10.326   9.495
38938W        W 2497  41.013  36.876   4.177
38939W        W 2498   3.441   0.371  14.341
38940W        W 2499  26.090  41.837  13.890
38941W        W 2500  43.434  16.811   3.363
38942W        W 2501  23.535   3.297  11.039
38943W        W 2502   3.720  26.011   0.777
38944W        W 2503  20.621  17.609  11.445
38945W        W 2504   7.305  37.430   1.425
38946W        W 2505  17.232  39.473   1.257
38947W        W 2506   2.364  44.767  13.372
38948W        W 2507  10.648  26.059   0.789
38949W        W 2508  15.160   5.849   0.430
38950W        W 2509  26.074  30.945  12.003
38951W        W 2510  18.287  38.042   3.731
38952W        W 2511  23.729  28.075   0.907
38953W        W 2512  22.151  34.993   1.880
38954W        W 2513  12.829  40.422  10.550
38955W        W 2514  11.318  34.380  14.345
38956W        W 2515  24.013  21.622  10.920
38957W        W 2516   9.256  36.021   3.673
38958W        W 2517  38.531  19.627  14.844
38959W        W 2518  36.076  44.992  13.791
38960W        W 2519  35.102  24.191   2.362
38961W        W 2520  12.304   5.274  13.805
38962W        W 2521  29.601  16.078  14.000
38963W        W 2522  23.631  40.492   0.883
38964W        W 2523  29.164  13.703  14.888
38965W        W 2524  10.290  32.622   1.784
38966W        W 2525  40.307  15.766   1.302
38967W        W 2526  12.190  20.631  12.079
38968W        W 2527  17.195  34.971  14.787
38969W        W 2528   9.693   7.174  10.466
38970W        W 2529   4.351  43.971  11.576
38971W        W 2530  42.964  12.761   4.331
38972W        W 2531  35.585  23.627   4.206
38973W        W 2532  31.489   9.747  14.803
38974W        W 2533  27.024  38.933   1.373
38975W        W 2534  13.620   5.790   3.214
38976W        W 2535  23.036   7.212   1.223
38977W        W 2536  42.884  40.444  12.569
38978W        W 2537  37.456  28.669  12.343
38979W        W 2538   3.412  22.555  13.507
38980W        W 2539  38.017  16.764  13.981
38981W        W 2540  31.947  21.116   3.648
38982W        W 2541  30.920  33.536   4.810
38983W        W 2542  37.436  32.586   3.273
38984W        W 2543   6.772   2.842  11.427
38985W        W 2544   1.752  32.076   3.675
38986W        W 2545  32.490  14.730  14.497
38987W        W 2546   1.952  28.437  10.902
38988W        W 2547  10.853  39.962  11.438
38989W        W 2548  14.272  37.969   1.823
38990W        W 2549  34.605   0.985  14.783
38991W        W 2550  36.069  33.428  12.854
38992W        W 2551  17.791  28.610  12.989
38993W        W 2552  22.570  40.330   4.338
38994W        W 2553   9.831   2.796   4.806
38995W        W 2554   0.840  32.629   1.841
38996W        W 2555  18.561   4.248  11.421
38997W        W 2556  18.657  35.575   4.270
38998W        W 2557  13.173  25.066  12.512
38999W        W 2558   0.451  36.907   3.219
39000W        W 2559   4.864  17.163  12.422
39001W        W 2560  14.110  21.544   0.338
39002W        W 2561   5.431  33.078   4.643
39003W        W 2562   9.886  43.808  10.554
39004W        W 2563  24.211  31.913  13.320
39005W        W 2564  12.632  13.654   3.328
39006W        W 2565  35.091  16.763   3.224
39007W        W 2566  36.968  40.391   4.729
39008W        W 2567  37.523   3.354  13.437
39009W        W 2568  40.889  16.311   4.698
39010W        W 2569   4.292  42.025   0.832
39011W        W 2570  20.724  37.558   4.270
39012W        W 2571  10.837  17.073   4.655
39013W        W 2572  36.543  16.630  12.545
39014W        W 2573   5.233  27.594   1.252
39015W        W 2574   9.775  32.974   1.917
39016W        W 2575  37.956  38.472  12.491
39017W        W 2576  20.634  14.242  10.897
39018W        W 2577  14.190  20.710  11.921
39019W        W 2578   2.892  10.635   0.454
39020W        W 2579  33.381  36.960   4.627
39021W        W 2580  19.231   9.860  10.911
39022W        W 2581   8.384  35.359   1.414
39023W        W 2582  22.091  15.786  10.586
39024W        W 2583  13.195  34.416   1.281
39025W        W 2584  37.404  28.519   0.305
39026W        W 2585  40.514  30.950   2.387
39027W        W 2586   1.278  14.162   2.210
39028W        W 2587  35.466  28.670   1.391
39029W        W 2588  30.005   7.311   1.807
39030W        W 2589  35.451   4.296  10.514
39031W        W 2590  26.191  17.189  13.844
39032W        W 2591  34.001  32.046  14.369
39033W        W 2592  43.443  34.946   1.853
39034W        W 2593  43.872   3.795  11.404
39035W        W 2594  35.441  16.637   2.788
39036W        W 2595  27.504  30.492   0.885
39037W        W 2596   6.365  36.091  14.996
39038W        W 2597   6.741  38.531   1.719
39039W        W 2598  32.573   9.373  14.778
39040W        W 2599   7.718  30.641  14.987
39041W        W 2600  34.061  22.604   4.761
39042W        W 2601   3.217  39.412   1.786
39043W        W 2602  15.706  43.858  10.026
39044W        W 2603   8.702  12.242   3.649
39045W        W 2604  16.189  41.415   2.240
39046W        W 2605   2.329   5.205  10.963
39047W        W 2606  31.978  26.966  14.315
39048W        W 2607  19.569  19.089   1.293
39049W        W 2608  11.729  20.758   0.252
39050W        W 2609  25.005  33.400  12.057
39051W        W 2610  26.645  39.453  14.325
39052W        W 2611  25.083  40.941  12.854
39053W        W 2612  26.600  24.629  10.911
39054W        W 2613  25.481  20.660  12.371
39055W        W 2614  31.121  20.625   4.708
39056W        W 2615  41.893  43.992  10.475
39057W        W 2616  39.547  17.135  13.043
39058W        W 2617   3.953  20.231  12.413
39059W        W 2618  33.975  23.169   2.758
39060W        W 2619  18.090  24.978  13.307
39061W        W 2620   2.277  22.563  12.399
39062W        W 2621  15.087  24.501   0.410
39063W        W 2622  30.983   8.265   3.740
39064W        W 2623  43.764  21.550  11.522
39065W        W 2624  23.604  15.665   4.752
39066W        W 2625  29.561  15.135  12.910
39067W        W 2626  26.146   6.397  12.935
39068W        W 2627  32.618  37.505  13.795
39069W        W 2628   7.383   6.737   1.704
39070W        W 2629   6.416  17.132   2.287
39071W        W 2630   8.270  25.612   0.857
39072W        W 2631  29.646   3.816  14.372
39073W        W 2632  31.553  35.464   3.168
39074W        W 2633  44.888  41.425   0.374
39075W        W 2634  24.108  31.944   3.301
39076W        W 2635  22.640  13.304   0.374
39077W        W 2636  15.242   9.810   2.318
39078W        W 2637   0.852  14.827  13.349
39079W        W 2638  32.478  29.932  12.995
39080W        W 2639  19.206  18.565   1.791
39081W        W 2640  26.015  18.138   3.183
39082W        W 2641  23.014  20.084   2.765
39083W        W 2642   6.342  40.515  13.999
39084W        W 2643  25.634  11.213  12.055
39085W        W 2644  11.830  36.843  12.544
39086W        W 2645  43.300  21.185  13.476
39087W        W 2646  38.509   6.302   3.244
39088W        W 2647   4.821  32.634   4.118
39089W        W 2648  14.781  12.193   2.692
39090W        W 2649  38.005  44.426   0.412
39091W        W 2650  37.894  43.442  11.899
39092W        W 2651  39.552  33.991  10.591
39093W        W 2652  44.414  39.865  14.995
39094W        W 2653  22.541  44.353   3.372
39095W        W 2654  25.697  18.610   4.668
39096W        W 2655  42.394  23.631   1.304
39097W        W 2656   5.267   7.390  14.987
39098W        W 2657  26.023   1.425  14.371
39099W        W 2658   8.402  43.370  13.850
39100W        W 2659  25.051  20.549   4.238
39101W        W 2660   3.794  32.409   1.448
39102W        W 2661  11.696  39.998   0.424
39103W        W 2662  19.055  21.097  13.061
39104W        W 2663  37.505  34.081   3.236
39105W        W 2664   4.388   9.798   1.738
39106W        W 2665   4.854   0.271  10.936
39107W        W 2666  25.497  17.576   3.269
39108W        W 2667  23.529  31.466  11.015
39109W        W 2668  35.966  12.612   4.613
39110W        W 2669  10.200  23.640   3.644
39111W        W 2670  43.775  25.649   4.642
39112W        W 2671  39.458  29.022   0.923
39113W        W 2672  35.451  17.161  12.870
39114W        W 2673  34.004  34.538  13.908
39115W        W 2674  17.671  21.542  12.060
39116W        W 2675  39.501  38.898  11.084
39117W        W 2676  12.210   5.303   4.784
39118W        W 2677  32.474  35.361   1.836
39119W        W 2678  28.026  42.317   3.713
39120W        W 2679  26.016  13.711  10.438
39121W        W 2680  14.229   1.262   2.409
39122W        W 2681   5.343  27.654   0.787
39123W        W 2682  23.716   9.807  12.092
39124W        W 2683  38.826   0.755  13.968
39125W        W 2684  12.220  13.825  12.044
39126W        W 2685  14.767   1.944  13.434
39127W        W 2686  31.055  34.905   2.356
39128W        W 2687  17.129   8.702   9.947
39129W        W 2688  40.983  25.045  12.928
39130W        W 2689  34.392  18.082   1.931
39131W        W 2690  35.893  31.956  12.452
39132W        W 2691  41.854   9.881  12.384
39133W        W 2692  13.630   1.832  10.424
39134W        W 2693  41.524  36.393  11.902
39135W        W 2694  14.226  35.388   4.788
39136W        W 2695   1.823  38.862  14.802
39137W        W 2696  26.636   0.440   2.287
39138W        W 2697  43.470   1.288  11.910
39139W        W 2698  10.863   0.451  10.583
39140W        W 2699  43.778  38.542  13.445
39141W        W 2700  18.790  34.870  12.007
39142W        W 2701  42.462  29.443  13.992
39143W        W 2702  14.745  37.413   4.205
39144W        W 2703  21.626  15.149  14.498
39145W        W 2704  17.255   0.909   9.978
39146W        W 2705   3.709   6.853  11.024
39147W        W 2706  19.683  31.018   2.380
39148W        W 2707   9.860  13.204  13.965
39149W        W 2708  13.150  25.493  14.016
39150W        W 2709  11.229  20.630   0.754
39151W        W 2710  21.159  38.949  11.969
39152W        W 2711  15.279  12.695   3.789
39153W        W 2712  38.525  32.895  12.075
39154W        W 2713   4.310  41.473   2.773
39155W        W 2714  29.954   7.831   1.840
39156W        W 2715  23.572  29.501  12.091
39157W        W 2716  24.674  33.530   1.714
39158W        W 2717  30.966  36.547   1.334
39159W        W 2718  28.004  41.949  12.891
39160W        W 2719  24.016   5.403  10.589
39161W        W 2720   6.298  27.667   2.255
39162W        W 2721   0.869  43.010   4.732
39163W        W 2722  40.955  24.128   2.295
39164W        W 2723   3.323   8.330  12.388
39165W        W 2724  40.549  37.407  13.849
39166W        W 2725  19.153  15.252   2.348
39167W        W 2726  39.525  40.346  11.121
39168W        W 2727  17.061  18.743  13.966
39169W        W 2728  27.039  15.249   2.401
39170W        W 2729  18.572  14.687  13.915
39171W        W 2730  23.578  16.629   2.673
39172W        W 2731  34.542   4.208  10.608
39173W        W 2732  44.961  44.387   3.744
39174W        W 2733  22.687   4.226  12.407
39175W        W 2734  38.874  22.665   4.306
39176W        W 2735   8.756  15.179  11.118
39177W        W 2736  17.100  42.031  13.852
39178W        W 2737  10.244  15.784  13.403
39179W        W 2738  17.789   4.927   1.292
39180W        W 2739  22.192   8.721  11.863
39181W        W 2740  37.379   8.763  11.458
39182W        W 2741  40.928  16.212  12.974
39183W        W 2742  28.656   4.400  11.539
39184W        W 2743  26.670  41.294  11.128
39185W        W 2744  13.707  19.046   0.898
39186W        W 2745  32.040  12.791  11.409
39187W        W 2746  36.846  24.017   0.832
39188W        W 2747  38.881  34.955  14.770
39189W        W 2748  41.922  34.406  10.551
39190W        W 2749  18.058  40.914  10.511
39191W        W 2750   3.814  23.071   3.331
39192W        W 2751   3.869  44.391   1.919
39193W        W 2752  26.480  10.299   9.506
39194W        W 2753  30.970  42.854   9.988
39195W        W 2754  32.012  20.698   3.830
39196W        W 2755   5.737   1.858  11.982
39197W        W 2756   5.740  15.778  11.430
39198W        W 2757  38.333  27.501  12.844
39199W        W 2758  31.424  41.343   2.887
39200W        W 2759  28.125  20.693   2.808
39201W        W 2760  44.891   9.799   2.392
39202W        W 2761   8.821  12.649   0.425
39203W        W 2762  25.702  30.006   1.861
39204W        W 2763  39.056  35.913  11.013
39205W        W 2764  21.618  44.977  13.371
39206W        W 2765  16.193  14.774  14.022
39207W        W 2766  23.020  15.708   2.285
39208W        W 2767  24.102  21.591  13.987
39209W        W 2768  27.612  20.098  12.463
39210W        W 2769  13.107  44.817   4.252
39211W        W 2770  25.966  22.194  13.543
39212W        W 2771  40.799   1.362   1.897
39213W        W 2772  17.187  35.898  12.993
39214W        W 2773  26.958   9.825  11.917
39215W        W 2774  11.630  16.653   1.330
39216W        W 2775  12.746  35.864   2.339
39217W        W 2776  30.619  15.821   4.766
39218W        W 2777  44.795  26.206   3.791
39219W        W 2778  40.403  41.886  11.889
39220W        W 2779   4.914  20.685  13.838
39221W        W 2780  23.619   7.405   2.345
39222W        W 2781  26.556   2.778  11.003
39223W        W 2782  12.301  37.005  13.956
39224W        W 2783   0.296  12.338   2.831
39225W        W 2784   8.662   3.846   4.306
39226W        W 2785  44.910  18.653   4.302
39227W        W 2786   9.159  32.071   2.849
39228W        W 2787  11.627  36.059  14.513
39229W        W 2788   5.411  34.087   0.924
39230W        W 2789  35.893   1.831  14.375
39231W        W 2790   8.765   5.884   4.137
39232W        W 2791  20.546  28.483   5.711
39233W        W 2792  40.914  28.559   1.807
39234W        W 2793   6.898  40.415  11.092
39235W        W 2794  41.528  15.296  10.986
39236W        W 2795   5.772   1.952   3.651
39237W        W 2796  41.400  15.772   1.355
39238W        W 2797  17.303  35.381   0.305
39239W        W 2798  28.676  24.672  12.962
39240W        W 2799  11.367  15.808   0.367
39241W        W 2800  19.071  19.599  13.960
39242W        W 2801   5.847  23.569  11.428
39243W        W 2802  34.031  26.995   0.807
39244W        W 2803  35.968   7.787  12.087
39245W        W 2804  12.726  28.956  10.944
39246W        W 2805   4.322   1.897  11.503
39247W        W 2806  28.995  35.569   1.723
39248W        W 2807  14.808  23.567  14.000
39249W        W 2808  43.860  23.522   0.474
39250W        W 2809  32.480  21.043  12.457
39251W        W 2810   4.356  40.974  12.826
39252W        W 2811   2.855  13.346  11.856
39253W        W 2812   9.676  12.683   4.665
39254W        W 2813  24.216  33.588  11.551
39255W        W 2814  26.577  29.648  10.474
39256W        W 2815   9.837  13.324   1.719
39257W        W 2816  26.682  37.507   1.254
39258W        W 2817  12.243  35.867   2.305
39259W        W 2818  41.340   5.694   1.274
39260W        W 2819  32.601  30.972   3.828
39261W        W 2820  22.050  37.391  13.435
39262W        W 2821   5.279  13.611   3.271
39263W        W 2822  23.693  14.254   1.363
39264W        W 2823  33.472  19.704  11.543
39265W        W 2824  42.304  10.249  12.339
39266W        W 2825  20.766  24.204   2.827
39267W        W 2826   1.969  15.664   2.209
39268W        W 2827  40.306  28.071  11.909
39269W        W 2828   4.799  22.106   1.778
39270W        W 2829  30.005  20.050   3.758
39271W        W 2830  22.132   2.881   3.860
39272W        W 2831   6.756   1.477   0.840
39273W        W 2832  38.041  42.335   0.385
39274W        W 2833  28.021  24.158   3.768
39275W        W 2834   3.829   8.873  14.503
39276W        W 2835  11.654  36.913  11.569
39277W        W 2836  14.608  43.870   3.734
39278W        W 2837  26.109  40.369   3.681
39279W        W 2838  28.175  26.094   4.642
39280W        W 2839  41.452  33.608  10.928
39281W        W 2840  41.950  24.196   0.318
39282W        W 2841  36.360  18.286   3.806
39283W        W 2842  32.942  11.149  12.825
39284W        W 2843  31.644  10.690  12.886
39285W        W 2844   4.817  14.340   1.802
39286W        W 2845  24.110  43.919  10.631
39287W        W 2846  33.003  19.207   0.422
39288W        W 2847  31.089  16.676  12.406
39289W        W 2848  35.919  21.095  10.986
39290W        W 2849  33.964   8.715   2.410
39291W        W 2850  35.474  10.377  12.929
39292W        W 2851  27.965  30.545  10.063
39293W        W 2852  25.514   2.914   3.281
39294W        W 2853  24.517  16.764   3.836
39295W        W 2854  22.646  26.478   4.649
39296W        W 2855  12.728  34.117   0.276
39297W        W 2856   2.878  11.362   1.723
39298W        W 2857  33.614  18.264   1.359
39299W        W 2858  44.368  25.125  13.515
39300W        W 2859   9.766  16.638  11.576
39301W        W 2860  11.708  27.555  10.615
39302W        W 2861   7.230  13.336   1.309
39303W        W 2862  20.226  27.158   4.292
39304W        W 2863  27.689   0.488   2.838
39305W        W 2864   6.741  32.959  10.912
39306W        W 2865  24.159  13.257  12.085
39307W        W 2866   8.374  37.964   4.799
39308W        W 2867  12.670  24.018  13.807
39309W        W 2868  15.241  39.322  13.878
39310W        W 2869  39.031  35.945  13.321
39311W        W 2870  29.137  37.908   2.245
39312W        W 2871   0.295  19.253   1.749
39313W        W 2872  13.269  12.713   1.713
39314W        W 2873   2.449  12.670  13.883
39315W        W 2874   4.733  10.268  10.984
39316W        W 2875  11.199  14.717   3.815
39317W        W 2876  27.090  28.490   1.876
39318W        W 2877   7.766  39.481   1.696
39319W        W 2878  36.452  40.517   0.272
39320W        W 2879  30.941  24.620   0.771
39321W        W 2880  34.410  40.450  13.949
39322W        W 2881   8.337  36.441   4.134
39323W        W 2882  18.261  43.835   1.745
39324W        W 2883  26.101  26.596  11.420
39325W        W 2884  18.092  21.189  13.528
39326W        W 2885  28.563  34.493   0.840
39327W        W 2886  29.541  42.798   1.695
39328W        W 2887  22.108   8.247   2.293
39329W        W 2888   3.364   7.266  13.996
39330W        W 2889   9.724  39.407   1.276
39331W        W 2890   7.728  35.434  10.558
39332W        W 2891  26.489  32.094   3.311
39333W        W 2892  10.255  41.336  12.370
39334W        W 2893  12.267  27.585   0.783
39335W        W 2894  31.152  20.211   2.881
39336W        W 2895   0.320   7.357   4.180
39337W        W 2896  31.147   9.750  13.503
39338W        W 2897  38.410  21.577  14.906
39339W        W 2898  13.632  37.077  12.037
39340W        W 2899  10.329  24.686   3.305
39341W        W 2900   0.851  42.989  11.460
39342W        W 2901  39.863   1.276  10.898
39343W        W 2902   0.366   5.267  11.971
39344W        W 2903  33.096  32.139   0.366
39345W        W 2904   8.875  11.778   0.287
39346W        W 2905   7.877  42.365   4.822
39347W        W 2906   0.831   8.876  14.408
39348W        W 2907  28.462  43.439  12.074
39349W        W 2908   3.772  37.942  11.449
39350W        W 2909   9.261  40.335  13.325
39351W        W 2910   3.350   9.189   0.935
39352W        W 2911  19.149  21.077  13.951
39353W        W 2912  36.568  27.599   2.745
39354W        W 2913   7.710   7.392  14.341
39355W        W 2914  29.630  35.090   2.265
39356W        W 2915  18.573  32.483   0.302
39357W        W 2916   3.853  22.551   1.921
39358W        W 2917  15.595   3.394  10.983
39359W        W 2918   6.258  29.524  13.360
39360W        W 2919  14.278  10.182  11.073
39361W        W 2920  32.488  14.799   2.389
39362W        W 2921  30.461  28.954  14.807
39363W        W 2922  42.851  40.487  10.542
39364W        W 2923  28.149  19.771  13.804
39365W        W 2924  14.185  18.591   2.272
39366W        W 2925  41.906  25.121  10.993
39367W        W 2926  42.993  11.753  11.091
39368W        W 2927   4.852   1.341  11.454
39369W        W 2928  31.579  23.628   1.851
39370W        W 2929  25.615  24.198   1.886
39371W        W 2930   4.708  39.874   0.387
39372W        W 2931  36.516   0.911   1.305
39373W        W 2932  32.459  43.818   0.821
39374W        W 2933  30.647  35.043  13.515
39375W        W 2934   8.288   0.960   4.838
39376W        W 2935   3.274   6.395  11.887
39377W        W 2936   4.797  15.780  14.336
39378W        W 2937  19.223  25.139  12.991
39379W        W 2938  29.127  25.708   0.779
39380W        W 2939  16.212  24.136  13.329
39381W        W 2940  29.019  30.142  11.486
39382W        W 2941  28.679  40.958  10.090
39383W        W 2942  40.932  13.630   3.213
39384W        W 2943  26.572  23.638  10.889
39385W        W 2944  15.131  16.203  15.000
39386W        W 2945   8.279  15.728   3.155
39387W        W 2946  15.278   0.851  12.893
39388W        W 2947  22.654  24.655   4.318
39389W        W 2948  33.592  35.537   0.867
39390W        W 2949  22.579  42.323   2.358
39391W        W 2950  30.936  31.593   1.415
39392W        W 2951  43.355  18.128   0.450
39393W        W 2952  22.560  25.104  11.997
39394W        W 2953  24.202  34.450   5.171
39395W        W 2954  23.641   4.937  11.070
39396W        W 2955  42.817  43.981   3.365
39397W        W 2956  26.101  20.738  14.919
39398W        W 2957   2.743  33.592  13.471
39399W        W 2958  37.493  24.120   0.284
39400W        W 2959  34.992   4.865   1.725
39401W        W 2960   5.757  36.868  11.099
39402W        W 2961  26.002  19.544   1.737
39403W        W 2962  17.656  21.757  11.011
39404W        W 2963   5.234  36.929   4.629
39405W        W 2964  31.485  25.037  13.403
39406W        W 2965   6.378  10.143   2.398
39407W        W 2966  37.009   0.279  14.885
39408W        W 2967  17.647  22.218   4.212
39409W        W 2968   7.305   1.775   3.853
39410W        W 2969  21.158   4.800   2.272
39411W        W 2970  39.988  21.732   1.750
39412W        W 2971  43.436  43.816  10.950
39413W        W 2972  29.522  28.455   0.298
39414W        W 2973  38.434  28.540  11.896
39415W        W 2974   6.847  13.150  10.500
39416W        W 2975  25.150   1.953  13.946
39417W        W 2976  41.438  26.474  11.543
39418W        W 2977  38.875  21.250   3.756
39419W        W 2978  10.298  17.689  14.860
39420W        W 2979  17.089  19.266  12.074
39421W        W 2980  23.663  24.142  12.963
39422W        W 2981  11.171  41.025  13.536
39423W        W 2982   5.694   6.335  13.348
39424W        W 2983  11.315   3.398   0.897
39425W        W 2984   2.441  36.907   3.678
39426W        W 2985  19.146  15.277  13.036
39427W        W 2986  17.179  30.559   2.213
39428W        W 2987  26.044  44.874   0.920
39429W        W 2988  36.375  14.236   0.478
39430W        W 2989   3.846  13.271  14.391
39431W        W 2990   6.192   8.836  11.572
39432W        W 2991   5.418  38.452  11.548
39433W        W 2992  24.064  32.420  12.011
39434W        W 2993  10.300  27.468   3.644
39435W        W 2994  30.082  28.151   3.660
39436W        W 2995   1.364   7.262  13.886
39437W        W 2996   9.706  25.586  14.795
39438W        W 2997  28.097  16.689  10.443
39439W        W 2998  29.983  14.752   4.206
39440W        W 2999  39.348  32.994   1.253
39441W        W 3000   0.916  34.011   1.301
39442W        W 3001  33.591  14.313   3.753
39443W        W 3002  10.680  15.293  14.007
39444W        W 3003  37.965  15.294   2.873
39445W        W 3004   7.297  20.685  12.379
39446W        W 3005  29.945   6.715  14.321
39447W        W 3006  36.090  25.216   1.843
39448W        W 3007  36.931   8.367  14.840
39449W        W 3008  31.573  18.704   1.870
39450W        W 3009   4.294  41.820  12.904
39451W        W 3010   0.314  27.552  11.955
39452W        W 3011   7.750  24.697  10.426
39453W        W 3012  44.786  28.653  12.494
39454W        W 3013  19.168  40.934  11.015
39455W        W 3014  21.100  26.631   4.642
39456W        W 3015  35.916  38.524   4.660
39457W        W 3016  14.703  27.071  14.950
39458W        W 3017   7.805  24.000   4.118
39459W        W 3018  11.796  34.987   2.195
39460W        W 3019   6.189  15.184  11.596
39461W        W 3020   9.729  17.112   3.303
39462W        W 3021  10.725  15.157  12.956
39463W        W 3022  15.298  24.037  12.462
39464W        W 3023  29.644   1.879   3.693
39465W        W 3024  18.607  18.694  12.574
39466W        W 3025  23.185  27.495  10.040
39467W        W 3026  20.207  22.736   1.287
39468W        W 3027  38.404  26.461  12.373
39469W        W 3028  23.008  18.751  11.024
39470W        W 3029  31.645   1.892   3.304
39471W        W 3030   8.248  36.583  11.861
39472W        W 3031  28.115   0.920   3.232
39473W        W 3032  40.983  12.778  11.867
39474W        W 3033  23.013  36.519   3.809
39475W        W 3034  23.665   7.208   0.341
39476W        W 3035  28.063   2.373   1.358
39477W        W 3036  11.286   1.810  12.957
39478W        W 3037  43.491  10.378  10.557
39479W        W 3038  36.541  32.020  13.907
39480W        W 3039   5.358  15.640   3.170
39481W        W 3040  43.018  37.833   1.922
39482W        W 3041  22.212  14.242  12.986
39483W        W 3042  21.083  25.995   1.806
39484W        W 3043  16.262   6.809   1.213
39485W        W 3044  10.749  42.492  11.030
39486W        W 3045  27.528  29.632   2.402
39487W        W 3046  43.001   4.714  11.594
39488W        W 3047  13.628  19.141  14.850
39489W        W 3048  27.518  42.882   2.195
39490W        W 3049  25.063   4.342   1.354
39491W        W 3050  21.209  16.089  14.817
39492W        W 3051  38.536   1.476  14.968
39493W        W 3052   5.376  14.758  13.408
39494W        W 3053  21.745  32.585  13.541
39495W        W 3054  32.921  44.309   1.224
39496W        W 3055   1.978   2.765  13.033
39497W        W 3056  32.549  34.425  12.830
39498W        W 3057  36.472  27.056   4.800
39499W        W 3058   1.465  40.442   1.793
39500W        W 3059  12.839   5.891  12.836
39501W        W 3060  28.654  42.401  11.381
39502W        W 3061  30.656  31.419  14.941
39503W        W 3062  36.501  39.886   0.915
39504W        W 3063  37.037   8.859  10.910
39505W        W 3064  25.603  31.065   2.691
39506W        W 3065  31.115  18.594  12.867
39507W        W 3066  33.608  12.696   3.771
39508W        W 3067  16.672  35.470  11.483
39509W        W 3068  18.591  40.387   5.162
39510W        W 3069  28.620  44.826  14.419
39511W        W 3070  10.814  32.110   2.399
39512W        W 3071  37.847  42.842   5.137
39513W        W 3072  36.854   9.731   1.733
39514W        W 3073   7.876  28.038  14.341
39515W        W 3074  41.969  16.198  13.313
39516W        W 3075   9.395  35.987   4.837
39517W        W 3076  34.466  40.984   4.354
39518W        W 3077  25.580   2.947  13.899
39519W        W 3078  34.479  26.987   2.766
39520W        W 3079  15.812  29.169   2.711
39521W        W 3080  32.102   5.745  11.550
39522W        W 3081  41.028  26.565  14.427
39523W        W 3082  41.794  24.576   0.403
39524W        W 3083  16.676  15.610  13.507
39525W        W 3084  26.585   4.846   2.793
39526W        W 3085  27.614  31.941   3.707
39527W        W 3086  19.251   9.668  13.926
39528W        W 3087   5.393  24.112  11.128
39529W        W 3088   8.813  22.166   3.669
39530W        W 3089  40.047  42.849  11.859
39531W        W 3090  42.454  27.130  13.026
39532W        W 3091  35.976   0.411   0.933
39533W        W 3092   5.852  28.075   4.203
39534W        W 3093  39.972  43.353  10.908
39535W        W 3094   8.242   9.291  14.450
39536W        W 3095  34.885  30.578  13.464
39537W        W 3096   3.822   3.929  12.986
39538W        W 3097  13.292  35.462   2.792
39539W        W 3098   3.241  20.590  11.085
39540W        W 3099  42.483   1.391   1.391
39541W        W 3100  23.500  41.824  14.802
39542W        W 3101  40.495  22.160   4.802
39543W        W 3102  14.658  12.338  12.826
39544W        W 3103  22.132   0.888  10.527
39545W        W 3104  21.560  11.763  14.458
39546W        W 3105  35.861  31.026   3.790
39547W        W 3106  16.238  25.975  14.949
39548W        W 3107  36.898   3.347   0.289
39549W        W 3108  13.137  11.332   2.741
39550W        W 3109  23.227  13.302   5.082
39551W        W 3110  38.015  21.162  13.366
39552W        W 3111   3.329  29.174   1.930
39553W        W 3112  22.554  33.616  14.855
39554W        W 3113  18.780  30.984   3.764
39555W        W 3114  21.066  44.852  10.638
39556W        W 3115  37.925  36.364  10.916
39557W        W 3116  35.095  41.017  10.502
39558W        W 3117  16.602  16.679  14.020
39559W        W 3118  34.592   9.193  14.440
39560W        W 3119  22.549   6.787  14.842
39561W        W 3120  21.217  31.602   0.829
39562W        W 3121  38.871   0.413  10.914
39563W        W 3122  28.976  29.616   2.718
39564W        W 3123  26.694  44.503   3.788
39565W        W 3124  43.516  10.660  13.944
39566W        W 3125  43.449  24.486  11.521
39567W        W 3126  39.558   9.360  12.069
39568W        W 3127  13.282  19.599  13.036
39569W        W 3128   9.873  22.542   2.801
39570W        W 3129  17.642  40.998  10.490
39571W        W 3130  12.333  30.564   3.160
39572W        W 3131  15.706  13.220   2.226
39573W        W 3132  13.748   3.378  13.011
39574W        W 3133  36.968  14.259   3.762
39575W        W 3134  17.175  30.936   4.736
39576W        W 3135  39.890  25.511   4.183
39577W        W 3136  22.679  22.573   2.730
39578W        W 3137   2.917   1.799   2.892
39579W        W 3138  20.109   1.932   0.285
39580W        W 3139  26.622   2.372   3.320
39581W        W 3140  42.864  11.835   4.684
39582W        W 3141  37.994  44.906  11.993
39583W        W 3142  26.663  40.349   3.348
39584W        W 3143  42.358   1.820  12.059
39585W        W 3144  30.097  19.759   4.295
39586W        W 3145  26.551  38.919  12.010
39587W        W 3146  22.131  19.542  10.637
39588W        W 3147  21.080   1.785  11.960
39589W        W 3148  38.070   5.331   0.906
39590W        W 3149  11.273  26.685  14.828
39591W        W 3150  17.290  26.521   2.881
39592W        W 3151  31.916   9.263   0.303
39593W        W 3152  42.843   7.390  13.024
39594W        W 3153  16.083  24.176  11.425
39595W        W 3154  27.674   5.862   0.905
39596W        W 3155   1.940  27.163   4.220
39597W        W 3156  33.398  16.803  13.339
39598W        W 3157  33.418   9.779  12.419
39599W        W 3158  11.337  23.000   2.685
39600W        W 3159   9.250  32.618  14.457
39601W        W 3160  37.871  26.022  14.512
39602W        W 3161  28.964  33.885   0.778
39603W        W 3162  17.202  30.028  13.011
39604W        W 3163   0.889  16.146   2.863
39605W        W 3164   9.809  23.136   3.857
39606W        W 3165  30.421   8.356  14.393
39607W        W 3166  32.518  44.816  14.422
39608W        W 3167  19.254  33.596   3.714
39609W        W 3168   6.703   8.836   3.333
39610W        W 3169   4.885   3.402   2.410
39611W        W 3170  10.164  31.417   2.308
39612W        W 3171  27.469  11.844   2.738
39613W        W 3172   8.313  31.057   0.286
39614W        W 3173   5.735  11.129  11.101
39615W        W 3174  31.543  35.377   2.340
39616W        W 3175  31.124  41.422   2.344
39617W        W 3176   9.688  43.819  11.393
39618W        W 3177   2.304   1.820  11.085
39619W        W 3178  39.014  11.738   1.304
39620W        W 3179  15.745  18.752   1.444
39621W        W 3180   3.377  11.627   1.383
39622W        W 3181  11.148  15.802  12.407
39623W        W 3182  21.207  12.775  14.308
39624W        W 3183   6.223  31.045   3.169
39625W        W 3184  18.583  41.319  12.912
39626W        W 3185  21.624   0.759   3.670
39627W        W 3186  39.432   0.464  14.993
39628W        W 3187   6.348  25.710   3.175
39629W        W 3188  33.501  14.751  12.914
39630W        W 3189  15.085  32.451  11.894
39631W        W 3190  34.450  29.956  13.837
39632W        W 3191  27.998  38.535   3.373
39633W        W 3192  40.034  40.451   3.203
39634W        W 3193  35.953  35.396   9.924
39635W        W 3194  27.074  42.971  10.018
39636W        W 3195   9.227  38.540   4.128
39637W        W 3196  16.617  29.553  10.415
39638W        W 3197  16.314  21.263  14.764
39639W        W 3198  28.627  10.249   0.282
39640W        W 3199  29.087  29.542  13.858
39641W        W 3200  23.548  38.942   2.264
39642W        W 3201  23.512  14.288  12.909
39643W        W 3202  35.093  20.714   0.284
39644W        W 3203  41.489  17.227   4.769
39645W        W 3204  26.016  44.349   0.807
39646W        W 3205  25.636  35.579   0.282
39647W        W 3206  24.604   8.257  12.031
39648W        W 3207  23.633  39.034  14.372
39649W        W 3208   6.235   0.797  13.384
39650W        W 3209  10.723  38.506   0.266
39651W        W 3210   8.355  29.090  13.341
39652W        W 3211  24.606  12.230   2.861
39653W        W 3212  21.714  28.500   4.150
39654W        W 3213  36.009  36.984   1.858
39655W        W 3214  36.531  34.106   1.345
39656W        W 3215  34.518  39.967   4.152
39657W        W 3216  15.606   6.719   2.763
39658W        W 3217  26.673  30.074   4.837
39659W        W 3218   0.757  37.441  11.397
39660W        W 3219   5.383  21.086   0.333
39661W        W 3220  32.502  42.781  12.496
39662W        W 3221  27.666  35.990   0.769
39663W        W 3222  28.947  31.435  12.424
39664W        W 3223  38.049  18.059  13.939
39665W        W 3224  41.473  42.879   1.239
39666W        W 3225  12.642   3.954   3.162
39667W        W 3226   8.856  22.009   9.983
39668W        W 3227  11.266  21.669   2.794
39669W        W 3228  35.551  31.476   2.307
39670W        W 3229  29.597  17.232   3.157
39671W        W 3230   1.909   0.857  12.552
39672W        W 3231   8.753   9.380   5.314
39673W        W 3232  43.296  44.311  12.343
39674W        W 3233  20.655  17.094  11.052
39675W        W 3234   7.218  21.548  13.393
39676W        W 3235  17.635  27.598   4.189
39677W        W 3236  23.222  12.782  10.644
39678W        W 3237   4.789   5.778   1.836
39679W        W 3238  36.082  29.455   2.368
39680W        W 3239  10.777  32.579   2.688
39681W        W 3240  43.880  23.207   3.839
39682W        W 3241  35.056  22.020   3.307
39683W        W 3242  23.564  42.968  10.479
39684W        W 3243  10.760   7.188   2.851
39685W        W 3244  33.491  35.396   1.768
39686W        W 3245  11.726  18.561   1.437
39687W        W 3246   8.199  19.115   2.262
39688W        W 3247   4.735   7.397   3.380
39689W        W 3248  34.885  16.719  10.975
39690W        W 3249  34.998   9.879  12.470
39691W        W 3250  44.348  17.590  12.367
39692W        W 3251  32.992  38.960  14.317
39693W        W 3252  20.697   3.246  13.818
39694W        W 3253  22.141  43.802   4.792
39695W        W 3254  20.566  39.916   2.299
39696W        W 3255  24.486  22.527   4.730
39697W        W 3256   7.828  11.760  14.972
39698W        W 3257  29.529   1.459   0.837
39699W        W 3258  10.809  20.141  12.893
39700W        W 3259   9.688   0.449   2.694
39701W        W 3260  43.927  34.896   2.857
39702W        W 3261  16.603  18.556   2.323
39703W        W 3262  18.751  16.584   1.911
39704W        W 3263   9.290  17.737  11.050
39705W        W 3264  35.554   8.398   3.302
39706W        W 3265  34.107  16.285  13.381
39707W        W 3266   8.199  24.175   2.250
39708W        W 3267  19.743  14.332  14.453
39709W        W 3268  19.206   2.369   3.199
39710W        W 3269  29.042  36.045  11.456
39711W        W 3270   9.375  29.057  11.091
39712W        W 3271  13.765  29.919  11.127
39713W        W 3272   6.806   6.376  10.621
39714W        W 3273  24.549   0.350   1.847
39715W        W 3274  20.214   2.825   0.266
39716W        W 3275   3.721   7.719   3.299
39717W        W 3276  10.218  43.422  12.943
39718W        W 3277   6.831  41.514   4.641
39719W        W 3278  36.467   9.250  13.375
39720W        W 3279  16.735  37.569  12.552
39721W        W 3280  11.643  44.904  14.766
39722W        W 3281  43.335  39.010   0.444
39723W        W 3282  24.010  22.094  13.487
39724W        W 3283   9.725  13.661  14.974
39725W        W 3284  12.361  41.847   3.234
39726W        W 3285  39.555  39.489  10.644
39727W        W 3286   1.477  30.094  12.035
39728W        W 3287  16.128  13.624   4.827
39729W        W 3288  42.463  12.343   2.776
39730W        W 3289  24.641  29.163   4.749
39731W        W 3290  13.820   8.232   2.338
39732W        W 3291  39.034   1.330   2.782
39733W        W 3292  11.340  39.338   0.855
39734W        W 3293  40.035  27.133  13.432
39735W        W 3294  42.940  31.582   0.399
39736W        W 3295  30.440  29.613   4.179
39737W        W 3296   6.825  38.846  11.005
39738W        W 3297  27.673  38.875   2.826
39739W        W 3298  30.563  31.584   3.663
39740W        W 3299   5.322   6.918   1.919
39741W        W 3300  33.478  19.723   4.639
39742W        W 3301  27.170   0.869   4.274
39743W        W 3302  21.054  43.438  14.318
39744W        W 3303  12.675  13.320   0.420
39745W        W 3304  11.803  39.845   3.347
39746W        W 3305  35.916   9.203  10.974
39747W        W 3306   2.951  33.874   0.326
39748W        W 3307  43.473  16.749  10.976
39749W        W 3308  31.556  21.071   4.129
39750W        W 3309  28.591  13.210  14.914
39751W        W 3310  37.973  29.669   0.920
39752W        W 3311  37.335  17.066   1.236
39753W        W 3312  42.942  30.987   3.711
39754W        W 3313  26.978  18.781   0.766
39755W        W 3314   1.962  33.124  13.491
39756W        W 3315  34.479  37.017   2.694
39757W        W 3316  19.094  10.210  14.939
39758W        W 3317  18.665  21.651   0.330
39759W        W 3318  11.235  15.761  11.911
39760W        W 3319  35.011  14.709  14.479
39761W        W 3320   6.225  14.801   0.960
39762W        W 3321   0.754   8.766  13.339
39763W        W 3322  40.411  41.377   1.773
39764W        W 3323   4.883  31.481  13.951
39765W        W 3324   6.870  20.716   4.803
39766W        W 3325  19.714  44.498   2.227
39767W        W 3326  16.254   7.850   0.915
39768W        W 3327   3.735  30.953   2.845
39769W        W 3328  13.746  33.441  11.104
39770W        W 3329  31.583  19.575   3.340
39771W        W 3330  40.032  43.857  12.848
39772W        W 3331  37.426  19.046  14.936
39773W        W 3332  16.083  28.485   2.265
39774W        W 3333  13.234  28.445   4.277
39775W        W 3334   8.746  31.564  12.365
39776W        W 3335  43.470  19.695  13.366
39777W        W 3336  32.118  22.185   1.921
39778W        W 3337  35.932  43.462   2.773
39779W        W 3338   8.753  17.181   4.197
39780W        W 3339   0.949  17.198  13.402
39781W        W 3340  31.907  42.515   0.401
39782W        W 3341  23.224  29.439   9.465
39783W        W 3342   8.770   6.727   2.863
39784W        W 3343  15.155   8.790  10.038
39785W        W 3344  44.799   6.185   3.384
39786W        W 3345  27.987   4.858  10.115
39787W        W 3346  19.753   8.261  11.111
39788W        W 3347   5.876  33.919   2.821
39789W        W 3348   0.375  35.463  13.351
39790W        W 3349  29.141  17.782   4.805
39791W        W 3350  40.813   8.686   0.849
39792W        W 3351  16.579  26.564   3.371
39793W        W 3352   6.297  22.502  13.836
39794W        W 3353  33.434  31.431   3.643
39795W        W 3354  36.457  27.027   2.671
39796W        W 3355  18.210  20.603  14.843
39797W        W 3356  25.010  37.486   2.240
39798W        W 3357  20.674  14.246   4.793
39799W        W 3358  34.519  12.620   4.838
39800W        W 3359  32.096  41.305   0.914
39801W        W 3360  18.633   8.687   3.363
39802W        W 3361  20.185  14.314  11.960
39803W        W 3362  20.141  40.799   4.691
39804W        W 3363  33.463  40.961  14.412
39805W        W 3364  41.924  10.179   3.263
39806W        W 3365  17.280  15.814  11.890
39807W        W 3366   7.400   4.776  10.969
39808W        W 3367  21.573   8.814  10.155
39809W        W 3368  11.164  26.155   3.763
39810W        W 3369  15.288  18.289  14.855
39811W        W 3370  20.643  30.972   4.761
39812W        W 3371   9.861  43.489   3.293
39813W        W 3372  22.012  44.798   1.823
39814W        W 3373  18.618  42.981   1.898
39815W        W 3374  28.456   5.257   1.880
39816W        W 3375  31.967  24.184   1.915
39817W        W 3376  21.181  24.027   4.755
39818W        W 3377  20.596  32.545  14.340
39819W        W 3378   5.227  38.878   0.458
39820W        W 3379   2.452  33.048   1.397
39821W        W 3380   9.181  37.972  13.871
39822W        W 3381  36.932  10.211  11.450
39823W        W 3382  23.545  36.491   1.423
39824W        W 3383  25.703  34.956  11.038
39825W        W 3384  12.627  40.382   1.858
39826W        W 3385  15.773  43.972  13.460
39827W        W 3386  41.868   7.306  10.141
39828W        W 3387  11.319   5.724  11.553
39829W        W 3388  31.897  20.584   1.355
39830W        W 3389   1.831  32.395   4.272
39831W        W 3390  30.570  35.483   4.256
39832W        W 3391   4.371  32.133  12.827
39833W        W 3392  33.078  21.049  14.321
39834W        W 3393  43.310  23.091   0.786
39835W        W 3394  20.076  10.773  14.353
39836W        W 3395  27.454   5.254  13.491
39837W        W 3396   1.974  25.669  12.989
39838W        W 3397   1.437  13.716   0.340
39839W        W 3398  12.333  35.532   2.241
39840W        W 3399  31.644  19.138  14.431
39841W        W 3400  43.778   3.806  14.759
39842W        W 3401  18.712  27.148  11.050
39843W        W 3402  26.200   4.210   0.773
39844W        W 3403  43.921  24.996  10.587
39845W        W 3404  15.165  18.069   3.744
39846W        W 3405   2.771   5.688   1.814
39847W        W 3406  33.538  19.073   4.325
39848W        W 3407  14.761  40.972   3.274
39849W        W 3408   5.381  31.415  12.500
39850W        W 3409  37.834  15.770   3.167
39851W        W 3410  23.554  16.645   3.338
39852W        W 3411  17.678  27.623   1.810
39853W        W 3412  31.921  16.741   4.195
39854W        W 3413  35.010  30.941   1.884
39855W        W 3414  32.532  13.186  12.438
39856W        W 3415   2.849  31.052  13.509
39857W        W 3416   8.858  27.165  12.068
39858W        W 3417  17.786  44.499  12.511
39859W        W 3418  12.670  21.710  14.845
39860W        W 3419  36.993   9.779   3.356
39861W        W 3420  38.974  37.486  14.452
39862W        W 3421  16.115  21.519  13.486
39863W        W 3422  11.197  34.551  12.059
39864W        W 3423  39.443  26.964   1.894
39865W        W 3424  33.534  35.581   0.305
39866W        W 3425   3.866  21.683  13.447
39867W        W 3426  31.633  21.036   3.807
39868W        W 3427  25.128   2.243  10.489
39869W        W 3428   6.255  19.198  11.557
39870W        W 3429   9.770   4.229   2.370
39871W        W 3430  32.954  33.522   2.877
39872W        W 3431  36.958  26.959  11.980
39873W        W 3432   8.169  40.424  12.888
39874W        W 3433  41.369   1.900  13.942
39875W        W 3434  18.744  22.128  12.445
39876W        W 3435   9.821   3.940   3.643
39877W        W 3436  31.052  21.581  13.951
39878W        W 3437   6.725  12.777   4.114
39879W        W 3438   5.708   0.483   1.220
39880W        W 3439  11.730  36.859   1.910
39881W        W 3440  40.864   9.695   2.713
39882W        W 3441  26.171   1.360   2.204
39883W        W 3442  38.546   1.238  10.917
39884W        W 3443  21.615  17.777   1.224
39885W        W 3444  27.597  44.955  11.396
39886W        W 3445  11.699   7.808   2.802
39887W        W 3446   4.813   3.905  13.853
39888W        W 3447  23.216   3.857  14.851
39889W        W 3448  33.413  42.464   4.599
39890W        W 3449  12.738  18.123   2.833
39891W        W 3450  16.624  39.407  11.596
39892W        W 3451  13.710  20.749  10.919
39893W        W 3452  12.302  35.943   1.445
39894W        W 3453  27.116  22.590   1.774
39895W        W 3454  33.044  38.454  10.918
39896W        W 3455  43.501  34.403  12.838
39897W        W 3456  16.262   4.265   4.344
39898W        W 3457  13.305   5.750  11.480
39899W        W 3458  35.060  29.970  11.375
39900W        W 3459  44.454   2.954   3.331
39901W        W 3460  42.943  44.299  14.792
39902W        W 3461  23.566  43.925   1.869
39903W        W 3462  36.503   3.263   1.830
39904W        W 3463  36.460  19.202  12.996
39905W        W 3464  26.206   4.702   1.875
39906W        W 3465   0.284  18.142   2.903
39907W        W 3466   1.346  24.988  14.338
39908W        W 3467  19.751   2.837   1.798
39909W        W 3468   1.465  40.471   2.305
39910W        W 3469  35.547  23.228  13.324
39911W        W 3470  31.578  44.919  10.455
39912W        W 3471  28.596   7.408   4.798
39913W        W 3472   0.253  10.290   0.864
39914W        W 3473   8.900   3.893   0.400
39915W        W 3474  43.794  21.148   3.168
39916W        W 3475  41.389   1.947   3.296
39917W        W 3476  24.149   6.224  10.987
39918W        W 3477  18.066  43.309  12.546
39919W        W 3478   5.841  34.612  12.059
39920W        W 3479  31.631  26.513   0.747
39921W        W 3480  15.606  21.614  10.001
39922W        W 3481  21.611  32.538   5.153
39923W        W 3482   1.739  18.556   4.299
39924W        W 3483  37.451  16.596  14.475
39925W        W 3484  12.263  29.055  11.493
39926W        W 3485  20.166  41.358  10.497
39927W        W 3486  13.337   5.688  10.578
39928W        W 3487  31.615  21.691   1.372
39929W        W 3488   0.891  10.644   2.292
39930W        W 3489  28.668   8.202   0.797
39931W        W 3490  10.870  30.005  11.043
39932W        W 3491  21.599  36.360  10.533
39933W        W 3492  27.482  44.319  14.356
39934W        W 3493  12.257   2.794  14.829
39935W        W 3494  19.569   9.153   3.639
39936W        W 3495  19.663  19.680  12.348
39937W        W 3496  38.982  30.054  12.544
39938W        W 3497  32.457  29.085  11.537
39939W        W 3498  38.899  37.395   1.764
39940W        W 3499  19.096   1.901  13.493
39941W        W 3500  32.128  42.329  13.521
39942W        W 3501   7.329  29.000  11.889
39943W        W 3502   9.393  25.126   0.925
39944W        W 3503  14.620   7.732  10.895
39945W        W 3504  24.053  16.571  14.821
39946W        W 3505  44.395  38.842   3.157
39947W        W 3506  10.660  16.690  14.985
39948W        W 3507  22.737  36.014   1.246
39949W        W 3508  42.913  10.683  14.439
39950W        W 3509  33.917  12.641   0.949
39951W        W 3510  18.731   7.790  14.476
39952W        W 3511  18.729  18.704   4.742
39953W        W 3512  11.315  25.645   4.297
39954W        W 3513  38.340  38.419   2.712
39955W        W 3514  20.568   3.310  13.398
39956W        W 3515  35.075  33.125  14.474
39957W        W 3516  33.066  23.993  14.002
39958W        W 3517  25.183  35.442   2.342
39959W        W 3518  26.612  31.072  13.373
39960W        W 3519  29.038  42.793  13.809
39961W        W 3520  21.683  14.288  14.304
39962W        W 3521  31.611  33.430   1.817
39963W        W 3522  20.672  31.635   1.343
39964W        W 3523  15.673  41.530   4.719
39965W        W 3524  12.763   0.760   1.322
39966W        W 3525   4.728  41.897   0.393
39967W        W 3526  39.428   9.223   4.735
39968W        W 3527  20.123   5.837  11.066
39969W        W 3528  19.107  27.639  12.840
39970W        W 3529  41.457  34.496  13.485
39971W        W 3530  43.849  27.957  10.917
39972W        W 3531   8.750  32.949   1.813
39973W        W 3532  26.533  34.605  13.528
39974W        W 3533  14.640  25.701   4.320
39975W        W 3534  29.494  20.624   4.628
39976W        W 3535  35.426  43.291  11.894
39977W        W 3536  35.079   1.246  13.511
39978W        W 3537  37.441  39.897   4.833
39979W        W 3538  41.388  44.989   4.320
39980W        W 3539  26.028   1.910  12.348
39981W        W 3540  11.794  27.497  12.951
39982W        W 3541  43.408   9.248  14.008
39983W        W 3542   4.773  37.580  12.553
39984W        W 3543   6.871  41.986   0.412
39985W        W 3544   8.712  33.580  13.994
39986W        W 3545  20.570  30.614  14.458
39987W        W 3546  34.877  30.069   0.370
39988W        W 3547  14.785  23.711   1.859
39989W        W 3548  30.451  17.283  14.834
39990W        W 3549  38.941  15.281   2.759
39991W        W 3550  40.051   9.709   0.405
39992W        W 3551  21.199   1.881   2.749
39993W        W 3552  33.053   0.428   2.709
39994W        W 3553  28.154  41.463   2.375
39995W        W 3554  15.794  33.481  12.931
39996W        W 3555  14.253  13.198  11.399
39997W        W 3556   2.828   6.763   4.130
39998W        W 3557  41.299  38.829   2.396
39999W        W 3558  35.479  31.150  14.764
40000W        W 3559  40.959  39.358  10.511
40001W        W 3560  25.066  26.489   1.247
40002W        W 3561  20.057  22.550  13.057
40003W        W 3562  26.535  24.505   4.660
40004W        W 3563  21.029  42.853   4.282
40005W        W 3564  37.006  15.129   1.274
40006W        W 3565  24.602  20.740   3.199
40007W        W 3566  25.164  17.738   3.306
40008W        W 3567  36.570  22.565  14.785
40009W        W 3568  17.214   5.241   2.826
40010W        W 3569  44.351  16.733   2.257
40011W        W 3570  41.787  24.511  12.050
40012W        W 3571   9.702  42.913  10.496
40013W        W 3572  40.319  32.430   0.343
40014W        W 3573  12.249   7.820   3.719
40015W        W 3574  14.726  36.039   0.888
40016W        W 3575  41.355  38.402   4.600
40017W        W 3576  19.185   2.926  11.506
40018W        W 3577  28.555  23.176   2.181
40019W        W 3578  17.285  23.176   3.190
40020W        W 3579  35.901  20.738   2.901
40021W        W 3580   0.453  31.937  11.069
40022W        W 3581  16.160  30.989  10.569
40023W        W 3582   3.715   3.411  11.000
40024W        W 3583  26.537  42.996  13.344
40025W        W 3584  30.913  10.232   4.743
40026W        W 3585   5.700  40.000  13.947
40027W        W 3586  12.634   4.436  12.958
40028W        W 3587   2.396  14.176   2.286
40029W        W 3588   3.324  40.351  13.494
40030W        W 3589  37.004  21.200   0.775
40031W        W 3590  31.573   6.313   4.262
40032W        W 3591  34.590  18.778   4.341
40033W        W 3592  41.009  43.790   3.313
40034W        W 3593  34.598  17.076   0.312
40035W        W 3594   9.744  12.202   1.810
40036W        W 3595  29.978   9.725  14.287
40037W        W 3596  37.849  20.564  11.985
40038W        W 3597   0.847  27.129  10.951
40039W        W 3598  35.003   6.262   0.251
40040W        W 3599  11.729  23.064  11.070
40041W        W 3600  20.249   8.305  13.345
40042W        W 3601   8.691  35.582   4.733
40043W        W 3602  13.308  11.644   4.285
40044W        W 3603  14.768   2.921   2.231
40045W        W 3604  44.897   9.380   2.734
40046W        W 3605  40.818  23.509  13.943
40047W        W 3606  27.593  24.118   3.743
40048W        W 3607  27.610   3.828   0.921
40049W        W 3608  11.696  37.973   0.775
40050W        W 3609  10.718  16.208  11.531
40051W        W 3610  42.365  29.052   4.809
40052W        W 3611  13.270  33.389  10.410
40053W        W 3612  41.436  10.687  11.881
40054W        W 3613  31.434  16.105  12.463
40055W        W 3614  33.963  27.010   1.388
40056W        W 3615  10.799  40.038   0.876
40057W        W 3616   9.346  32.429  10.416
40058W        W 3617  32.118  19.048  11.011
40059W        W 3618  23.055  21.178  14.834
40060W        W 3619  44.427  23.565  13.915
40061W        W 3620  31.616   8.827   4.136
40062W        W 3621  31.543  30.982   2.813
40063W        W 3622  40.934  17.270   2.903
40064W        W 3623  20.083  20.645   1.902
40065W        W 3624  43.309  43.315  13.807
40066W        W 3625  25.109  14.617  11.476
40067W        W 3626  19.653  11.319  10.445
40068W        W 3627  25.570   7.690   2.324
40069W        W 3628   0.256  39.373   2.366
40070W        W 3629  37.502   0.914   2.872
40071W        W 3630   9.384  43.986  13.313
40072W        W 3631   3.726  23.210  14.313
40073W        W 3632   3.763  44.934   3.694
40074W        W 3633  38.340   9.707   0.284
40075W        W 3634  35.416  28.078  13.462
40076W        W 3635  32.392  32.560  12.431
40077W        W 3636   0.853  35.415   2.252
40078W        W 3637  33.002  34.965   3.780
40079W        W 3638  22.047  24.592  11.433
40080W        W 3639  38.943  18.649   1.334
40081W        W 3640   8.795   3.791   2.784
40082W        W 3641   9.752   1.939   0.898
40083W        W 3642  32.584  22.016  11.064
40084W        W 3643  42.400  24.974  10.981
40085W        W 3644  13.346   3.715   2.263
40086W        W 3645  33.625  10.729   1.354
40087W        W 3646  33.556   2.832   4.687
40088W        W 3647  20.216  11.773  11.472
40089W        W 3648  38.349   8.710  13.397
40090W        W 3649  13.147  30.607   2.713
40091W        W 3650  32.976  19.585  12.943
40092W        W 3651   4.292  16.202   3.750
40093W        W 3652   0.914  20.265  13.383
40094W        W 3653  36.914   8.267   1.898
40095W        W 3654  21.540   4.345  14.941
40096W        W 3655  26.992  44.333   2.197
40097W        W 3656  23.592  41.956  12.977
40098W        W 3657  32.054  12.769   0.939
40099W        W 3658  25.670  12.827  14.404
40100W        W 3659  17.599  10.272  11.010
40101W        W 3660  38.561   9.332   0.481
40102W        W 3661   5.759  31.501   3.823
40103W        W 3662  13.304  29.024  14.435
40104W        W 3663   6.358  10.277   1.918
40105W        W 3664   6.304  40.477  10.062
40106W        W 3665   2.855   8.786  14.771
40107W        W 3666   6.790  28.660   3.363
40108W        W 3667  42.428  14.740   4.724
40109W        W 3668   4.915   6.873   0.360
40110W        W 3669  18.633   1.970   4.614
40111W        W 3670  17.284  42.353   4.615
40112W        W 3671   6.756  29.144  10.921
40113W        W 3672  33.918  16.783   1.716
40114W        W 3673  32.929  44.838  14.302
40115W        W 3674  33.610  32.921  12.918
40116W        W 3675   5.918  10.179   3.169
40117W        W 3676   7.354  30.430  14.869
40118W        W 3677  44.868  15.661   4.338
40119W        W 3678  43.337   2.401   1.881
40120W        W 3679  40.471  41.410  13.827
40121W        W 3680   7.898  14.259  10.027
40122W        W 3681  12.660  16.584  13.325
40123W        W 3682  19.671  38.528   2.198
40124W        W 3683  34.915  27.579   0.295
40125W        W 3684  10.243   6.408  10.434
40126W        W 3685  39.554  33.416   1.309
40127W        W 3686  14.213  31.065  11.959
40128W        W 3687  37.336  22.519  14.390
40129W        W 3688  19.233   3.811   3.242
40130W        W 3689   8.737  13.192   1.399
40131W        W 3690  44.409  36.017  14.932
40132W        W 3691  18.255   6.741   0.457
40133W        W 3692  21.186  43.952  11.399
40134W        W 3693  38.439  12.148   2.272
40135W        W 3694  39.441  32.095  10.930
40136W        W 3695  25.691  14.771  12.453
40137W        W 3696  16.147  18.229   3.727
40138W        W 3697  28.449  36.359  11.078
40139W        W 3698   3.422   3.387  11.497
40140W        W 3699  28.463  16.622  14.447
40141W        W 3700  32.623   2.877  11.944
40142W        W 3701  33.389  20.706   2.178
40143W        W 3702  14.275  20.695  12.457
40144W        W 3703  26.497  17.092   1.404
40145W        W 3704  41.984  43.915   4.129
40146W        W 3705  24.025  13.134  10.913
40147W        W 3706  30.617  18.088  14.345
40148W        W 3707  17.714  32.592  10.485
40149W        W 3708   3.845   2.415  13.945
40150W        W 3709  42.479   4.245   3.211
40151W        W 3710  19.722   3.277  13.990
40152W        W 3711  32.527  24.515   4.315
40153W        W 3712  19.679  34.091  14.963
40154W        W 3713  44.770  11.654   4.710
40155W        W 3714   1.840   6.385   4.154
40156W        W 3715  24.056  37.916   0.457
40157W        W 3716   1.778  19.739  13.912
40158W        W 3717   0.338  24.152  11.528
40159W        W 3718  38.822  33.050   4.176
40160W        W 3719   0.327  15.218   3.630
40161W        W 3720  28.048   7.749  13.527
40162W        W 3721  41.909   8.214   4.205
40163W        W 3722  32.084  15.684  14.892
40164W        W 3723   0.804   6.872   0.434
40165W        W 3724  40.415  39.492   3.355
40166W        W 3725  34.577  44.978  13.322
40167W        W 3726  28.458  18.684  13.999
40168W        W 3727  15.698  39.328   2.187
40169W        W 3728  38.922  26.501  10.534
40170W        W 3729  39.908  13.633   4.647
40171W        W 3730  30.070  31.015   0.822
40172W        W 3731  11.713  20.157  13.859
40173W        W 3732  20.539  32.044   2.285
40174W        W 3733  11.753   8.164   2.335
40175W        W 3734  43.856  21.543   1.917
40176W        W 3735  13.202  15.687   5.185
40177W        W 3736   9.647  12.229   1.234
40178W        W 3737  17.606  33.550   4.652
40179W        W 3738  36.511  25.014   0.481
40180W        W 3739  25.517  18.215  10.900
40181W        W 3740  10.228   7.739   3.850
40182W        W 3741  34.965  15.792  11.577
40183W        W 3742   2.341  34.923   2.242
40184W        W 3743  25.094   2.741  13.992
40185W        W 3744  21.663   8.854  12.405
40186W        W 3745  34.113  17.215   2.281
40187W        W 3746  37.565   8.234   2.676
40188W        W 3747  16.280   5.334  14.379
40189W        W 3748  27.036   0.745  11.895
40190W        W 3749  19.672   0.473  10.476
40191W        W 3750  29.501  30.163  10.486
40192W        W 3751  40.498  36.461  11.992
40193W        W 3752  41.961   7.737   2.297
40194W        W 3753  21.597  27.531   5.799
40195W        W 3754  26.026   6.406  12.523
40196W        W 3755   9.253  29.501  14.817
40197W        W 3756   0.827  20.605  10.056
40198W        W 3757  32.625  10.822  10.569
40199W        W 3758  11.733  37.036   1.356
40200W        W 3759  15.744  37.053  10.124
40201W        W 3760   0.905  10.241   0.441
40202W        W 3761   0.416   9.325   4.344
40203W        W 3762  15.122  20.115  14.881
40204W        W 3763  37.514  31.904   4.287
40205W        W 3764   5.790  44.783  12.552
40206W        W 3765  25.975   1.844   1.857
40207W        W 3766  39.948   1.825   1.329
40208W        W 3767  20.158  11.657  14.926
40209W        W 3768  44.920   1.793  12.963
40210W        W 3769  23.204  20.043   1.734
40211W        W 3770   1.322  10.728  14.439
40212W        W 3771   3.799  38.933   4.807
40213W        W 3772  33.975  26.587  13.040
40214W        W 3773  40.874  12.226  13.463
40215W        W 3774  29.662  35.481   1.392
40216W        W 3775  42.825   6.291   4.131
40217W        W 3776  43.795  30.548   1.397
40218W        W 3777  35.926   0.934   0.307
40219W        W 3778  31.112  39.413   1.901
40220W        W 3779  24.136  38.991   1.210
40221W        W 3780   3.216  31.592  14.331
40222W        W 3781  19.193  39.842   4.260
40223W        W 3782  20.211  14.335   4.203
40224W        W 3783  21.154  24.014   2.180
40225W        W 3784  21.583  26.514  10.484
40226W        W 3785  10.749  20.094   3.719
40227W        W 3786  21.683  17.703  13.063
40228W        W 3787  27.177  40.927  11.574
40229W        W 3788  40.932  19.180  11.916
40230W        W 3789  29.434  20.082  14.926
40231W        W 3790  19.731  40.025  10.915
40232W        W 3791   5.709  42.910   4.717
40233W        W 3792   2.431  40.405   4.179
40234W        W 3793  30.044   2.923  13.410
40235W        W 3794  20.763  42.522   1.881
40236W        W 3795   0.747  37.373   3.353
40237W        W 3796   2.293  29.477  11.959
40238W        W 3797  23.554  38.055  10.416
40239W        W 3798  21.122  25.702  12.020
40240W        W 3799   9.794   4.369   2.775
40241W        W 3800  33.071  12.273  12.528
40242W        W 3801  16.605  37.836  12.848
40243W        W 3802  42.526   2.338  13.395
40244W        W 3803  17.758   2.251  13.443
40245W        W 3804   6.350  37.044  11.126
40246W        W 3805  21.075   8.782   0.821
40247W        W 3806  13.785  28.005  14.953
40248W        W 3807   2.798  22.530  13.876
40249W        W 3808  43.913   0.936   1.893
40250W        W 3809  21.172  42.345  13.857
40251W        W 3810  27.115  13.777  14.290
40252W        W 3811  31.552  10.166  12.921
40253W        W 3812  14.819   9.362   5.252
40254W        W 3813   3.757  14.326  11.093
40255W        W 3814  39.033  14.722   1.932
40256W        W 3815  17.063  24.705  11.028
40257W        W 3816  10.157  20.719   0.258
40258W        W 3817  22.162  19.671   2.820
40259W        W 3818  32.037  27.037  14.950
40260W        W 3819   9.213  41.335   4.150
40261W        W 3820  29.077  35.023   2.774
40262W        W 3821   6.718  43.900  13.472
40263W        W 3822  19.635  39.467  11.996
40264W        W 3823  21.717  33.127   3.714
40265W        W 3824  17.130  22.568   9.971
40266W        W 3825   9.366  14.796   4.116
40267W        W 3826  10.339  27.575   1.318
40268W        W 3827   2.855  41.037  14.851
40269W        W 3828  34.094  41.037   4.806
40270W        W 3829  19.772  11.361  13.942
40271W        W 3830  14.673  29.046  13.834
40272W        W 3831  26.677  35.090  14.486
40273W        W 3832  19.227  17.290  10.967
40274W        W 3833  11.284  24.601  14.985
40275W        W 3834  14.256   9.159   9.659
40276W        W 3835   8.888   1.765  11.427
40277W        W 3836   8.172  14.175   3.848
40278W        W 3837   5.282  30.162   2.240
40279W        W 3838  23.601  28.575  10.428
40280W        W 3839   2.359  21.132   0.765
40281W        W 3840  39.041  13.605  11.471
40282W        W 3841   9.742   1.331   3.634
40283W        W 3842  37.988   4.841  11.120
40284W        W 3843  36.030  44.377   4.708
40285W        W 3844  26.206  17.774  13.386
40286W        W 3845  16.778   3.295   4.219
40287W        W 3846   7.689  40.312   0.763
40288W        W 3847  32.128   4.309  12.863
40289W        W 3848   4.797   9.150   4.252
40290W        W 3849  20.524  40.860   4.336
40291W        W 3850  36.978  24.642  12.419
40292W        W 3851  18.647  29.986  13.380
40293W        W 3852   6.794  33.972   2.191
40294W        W 3853   6.239   4.846   5.251
40295W        W 3854  41.847  14.318  13.859
40296W        W 3855  39.498  36.885  14.337
40297W        W 3856  13.279   7.714  14.373
40298W        W 3857  44.909   0.754  10.507
40299W        W 3858  10.334   8.264   2.822
40300W        W 3859  19.778  27.967   3.383
40301W        W 3860  35.040  31.937  13.537
40302W        W 3861  33.086   2.870  10.904
40303W        W 3862  36.089   7.173  12.836
40304W        W 3863  24.592  35.564   1.935
40305W        W 3864   4.927  40.911  14.016
40306W        W 3865  44.480  28.467  14.849
40307W        W 3866   1.338  29.986  12.572
40308W        W 3867  17.249   8.693   0.763
40309W        W 3868  34.035   2.833   1.776
40310W        W 3869  24.510  30.436  13.324
40311W        W 3870  26.005  37.458  13.037
40312W        W 3871   1.937  24.506   2.806
40313W        W 3872  37.871  40.470   0.948
40314W        W 3873  43.882  33.462   3.327
40315W        W 3874  31.429   9.176  13.799
40316W        W 3875  15.180  13.760   2.237
40317W        W 3876  35.494  27.175   0.827
40318W        W 3877  41.486  29.056   3.295
40319W        W 3878   2.430   9.795  11.917
40320W        W 3879   4.714  11.628  10.494
40321W        W 3880  16.202  25.559  12.553
40322W        W 3881  11.859  22.584  13.023
40323W        W 3882  14.734  20.254  10.952
40324W        W 3883  26.157  30.656  12.066
40325W        W 3884   3.880  38.003   0.370
40326W        W 3885  13.343  39.023   2.858
40327W        W 3886  40.834   5.721  11.063
40328W        W 3887  24.186  35.910   4.274
40329W        W 3888  35.051   1.280  13.976
40330W        W 3889   7.297  19.265  10.968
40331W        W 3890  41.867  30.021   3.261
40332W        W 3891   3.232  21.140   4.741
40333W        W 3892  21.227  30.592  12.933
40334W        W 3893  40.800  25.010   1.873
40335W        W 3894   1.300  26.581  13.341
40336W        W 3895  44.753  36.498  14.901
40337W        W 3896  12.274  13.652   9.994
40338W        W 3897  13.185  29.560   4.700
40339W        W 3898  18.192  39.906   0.460
40340W        W 3899  23.514  36.965   4.170
40341W        W 3900  16.659   7.415   2.742
40342W        W 3901  40.460  19.669   4.252
40343W        W 3902   1.351  30.004  13.056
40344W        W 3903  14.223  25.472   2.740
40345W        W 3904  18.266  34.614  11.384
40346W        W 3905  33.115   0.911   4.692
40347W        W 3906   4.928  30.921   0.818
40348W        W 3907  16.309  25.634   5.578
40349W        W 3908  20.068   9.809   2.400
40350W        W 3909  32.601  36.026  11.481
40351W        W 3910  17.198  37.365   3.319
40352W        W 3911  18.109   8.818  11.114
40353W        W 3912  25.653  34.903  14.456
40354W        W 3913   8.886  24.116  10.937
40355W        W 3914  25.537  20.040  11.104
40356W        W 3915   7.341  39.538   1.279
40357W        W 3916  23.157  11.210  14.989
40358W        W 3917   1.940  30.532  10.570
40359W        W 3918   8.881  21.738  11.931
40360W        W 3919  23.119  14.730  12.841
40361W        W 3920  15.111  15.813  14.316
40362W        W 3921   0.901  39.010  11.428
40363W        W 3922  23.632  13.667  12.031
40364W        W 3923  19.651  37.434   0.857
40365W        W 3924  42.487  10.804  11.550
40366W        W 3925  10.284  43.796  14.898
40367W        W 3926  39.491  44.439   4.269
40368W        W 3927  21.704  38.565   2.817
40369W        W 3928  19.105  24.671   0.331
40370W        W 3929  10.826   1.481  11.046
40371W        W 3930  15.655   7.367   0.914
40372W        W 3931  34.992   6.299  10.637
40373W        W 3932  10.144  37.897   1.726
40374W        W 3933  42.383   5.923  14.858
40375W        W 3934  14.276  28.102   0.475
40376W        W 3935   7.270  33.053  11.380
40377W        W 3936   6.857  35.993   4.140
40378W        W 3937   2.283  35.880   1.406
40379W        W 3938  32.891  16.237   1.810
40380W        W 3939  20.534  24.511  12.522
40381W        W 3940  44.753  38.517   1.346
40382W        W 3941   8.266  38.050  11.587
40383W        W 3942  31.550  20.653  13.530
40384W        W 3943  22.065  27.083   3.663
40385W        W 3944  44.456  44.874  13.508
40386W        W 3945  33.421  19.277  10.624
40387W        W 3946   5.278  10.145  13.974
40388W        W 3947  24.169   4.351   3.199
40389W        W 3948  30.501  43.387   2.256
40390W        W 3949   6.811   1.310  10.506
40391W        W 3950  29.460  13.642  10.930
40392W        W 3951  31.539  42.802  11.529
40393W        W 3952  31.093   3.436   1.286
40394W        W 3953  34.955  40.483   3.820
40395W        W 3954  40.382  28.512   2.900
40396W        W 3955  35.082  32.075  13.866
40397W        W 3956   0.482  34.547   2.862
40398W        W 3957  22.044  12.170   3.753
40399W        W 3958  29.119  16.188  12.512
40400W        W 3959   2.340   0.986  12.851
40401W        W 3960  34.887  18.163  12.569
40402W        W 3961  38.850  14.832  11.093
40403W        W 3962  32.595  17.073  12.999
40404W        W 3963  31.522  39.036  11.856
40405W        W 3964   9.725   6.898  12.579
40406W        W 3965  18.701  36.526   0.851
40407W        W 3966  20.212  40.326   4.220
40408W        W 3967  13.629  17.297  12.561
40409W        W 3968  43.479  35.934   0.291
40410W        W 3969  27.649  31.905  10.543
40411W        W 3970  29.075  29.055   4.202
40412W        W 3971  35.488  39.333  14.935
40413W        W 3972  40.433  20.760  12.050
40414W        W 3973   7.748  12.276   0.898
40415W        W 3974  32.937  24.008  12.902
40416W        W 3975  13.834   1.374   2.669
40417W        W 3976  39.911  32.036  10.118
40418W        W 3977  16.273   3.217   5.180
40419W        W 3978   0.943  39.409   4.635
40420W        W 3979  17.205  41.334  14.357
40421W        W 3980  43.390   7.397  13.888
40422W        W 3981  13.743  31.429  13.421
40423W        W 3982  29.558  11.305  11.910
40424W        W 3983  38.883  13.729   2.343
40425W        W 3984  23.130   4.835   4.647
40426W        W 3985  40.940  10.285  14.841
40427W        W 3986   9.295   1.792   3.775
40428W        W 3987  29.112  27.645  12.542
40429W        W 3988  39.044  22.063   4.208
40430W        W 3989   0.287  18.085  14.769
40431W        W 3990   4.271  28.119   4.230
40432W        W 3991   8.406   1.246   4.699
40433W        W 3992  25.584   7.908   1.933
40434W        W 3993  27.007  23.129  12.013
40435W        W 3994  10.634   0.426   0.929
40436W        W 3995  28.059  41.938  12.057
40437W        W 3996  21.704   1.836  14.988
40438W        W 3997   2.398  28.026   3.348
40439W        W 3998   2.926  27.137   0.728
40440W        W 3999  26.062  13.819  13.460
40441W        W 4000  43.435  37.552   2.257
40442W        W 4001  30.033  43.491   4.160
40443W        W 4002  40.967   4.450   1.245
40444W        W 4003  31.132  37.878   4.672
40445W        W 4004  22.134   9.372  11.857
40446W        W 4005  20.190  10.308  12.537
40447W        W 4006  39.826   8.718   0.391
40448W        W 4007  30.020  35.963   1.705
40449W        W 4008  34.390  23.008   4.278
40450W        W 4009   5.740   8.767   4.321
40451W        W 4010  39.859  11.305   0.388
40452W        W 4011  29.149  33.580   3.764
40453W        W 4012  10.732  20.195   2.263
40454W        W 4013  30.590  19.538  12.362
40455W        W 4014   6.409  23.492   1.327
40456W        W 4015   3.220  34.426  12.950
40457W        W 4016  31.071  38.499   9.455
40458W        W 4017  34.095   6.695   2.895
40459W        W 4018  35.385  26.054  14.837
40460W        W 4019  33.999  10.372   2.341
40461W        W 4020   0.249  39.399  14.304
40462W        W 4021   0.316  29.551  10.600
40463W        W 4022   5.244  32.996  14.017
40464W        W 4023  19.225   4.213   3.802
40465W        W 4024   9.820  33.944  13.862
40466W        W 4025  35.453  23.669   3.320
40467W        W 4026  41.324  20.709  14.847
40468W        W 4027  17.120  10.185  12.969
40469W        W 4028  39.878  11.825   4.303
40470W        W 4029   5.703  29.005  14.950
40471W        W 4030  18.180   3.370   2.854
40472W        W 4031  30.953  35.590  11.893
40473W        W 4032  24.134  42.816   9.989
40474W        W 4033  26.512  26.579   1.754
40475W        W 4034  24.057  41.294   2.355
40476W        W 4035  17.689   8.819   4.125
40477W        W 4036   3.938  38.060  10.591
40478W        W 4037  30.126   5.897  11.988
40479W        W 4038  11.842  43.273  11.478
40480W        W 4039  27.150  19.044  12.011
40481W        W 4040  17.291  15.756   2.287
40482W        W 4041  15.298  13.233  12.017
40483W        W 4042  36.392  12.781  11.897
40484W        W 4043   7.245  34.071   1.406
40485W        W 4044  13.845   8.170   4.263
40486W        W 4045   6.693  41.842  14.400
40487W        W 4046   9.269  42.824  11.957
40488W        W 4047  39.995  12.774  10.547
40489W        W 4048  39.931  27.597   1.899
40490W        W 4049  44.347   8.388   0.853
40491W        W 4050  19.261  41.467  10.544
40492W        W 4051  17.246   1.905  10.143
40493W        W 4052  16.223  38.007  13.527
40494W        W 4053  14.260  28.491  13.860
40495W        W 4054  16.672  26.165   4.175
40496W        W 4055  35.867  17.184   1.427
40497W        W 4056  36.586  24.514  11.581
40498W        W 4057  17.086  30.918  14.410
40499W        W 4058  36.956   0.382  10.576
40500W        W 4059  36.863  32.619   0.914
40501W        W 4060  40.430  30.656   3.644
40502W        W 4061  40.901  20.649  13.895
40503W        W 4062  19.559   1.338  11.126
40504W        W 4063  19.239   6.305  14.334
40505W        W 4064   4.257  25.565  11.504
40506W        W 4065  31.424   3.859   0.399
40507W        W 4066  10.665  15.171  12.391
40508W        W 4067  41.521  40.311   4.794
40509W        W 4068  33.494  29.099   2.261
40510W        W 4069   8.899  10.238  11.583
40511W        W 4070  27.473   6.725   0.836
40512W        W 4071  37.026   3.888   1.711
40513W        W 4072  22.052  34.512   3.752
40514W        W 4073  36.011   6.740  11.509
40515W        W 4074  36.088  22.707   4.613
40516W        W 4075  31.111  10.747   2.782
40517W        W 4076  28.568  37.072   4.179
40518W        W 4077  41.932  35.597  12.453
40519W        W 4078  38.049   2.292   0.395
40520W        W 4079   9.812  37.528  12.537
40521W        W 4080   6.182  24.027  14.896
40522W        W 4081  38.922  21.646   2.404
40523W        W 4082  16.730   1.407   1.776
40524W        W 4083  26.169  13.760   4.219
40525W        W 4084  29.084   9.241  13.874
40526W        W 4085  22.041  41.495   4.758
40527W        W 4086  19.213  42.425   3.790
40528W        W 4087  31.127   8.258   1.915
40529W        W 4088  27.555   5.843  14.282
40530W        W 4089  24.523  19.216   0.274
40531W        W 4090   5.883  17.607  10.592
40532W        W 4091  38.987  22.525  11.553
40533W        W 4092  17.300  22.062   2.812
40534W        W 4093  34.601  35.852  13.538
40535W        W 4094  44.880  23.544   2.850
40536W        W 4095  21.141  22.709   1.701
40537W        W 4096  21.186  31.519   0.409
40538W        W 4097  44.829  33.002  12.565
40539W        W 4098  26.644  14.185  13.536
40540W        W 4099  43.446   3.416  13.987
40541W        W 4100  37.573   1.804  11.878
40542W        W 4101  24.121  30.416  14.887
40543W        W 4102  32.479  21.032   2.194
40544W        W 4103  35.076   7.207   5.122
40545W        W 4104  34.882  20.544   2.818
40546W        W 4105  41.298  12.319  13.911
40547W        W 4106  10.749  10.839  12.077
40548W        W 4107  32.106  37.531   2.279
40549W        W 4108  33.552  39.010   1.374
40550W        W 4109  22.074  27.655  11.052
40551W        W 4110   9.302   7.864  14.988
40552W        W 4111   1.362  27.591   1.760
40553W        W 4112   3.462  16.134   4.197
40554W        W 4113  41.942  38.421   1.257
40555W        W 4114  14.821  36.951   0.959
40556W        W 4115  29.574  30.503   1.399
40557W        W 4116  12.646  32.629  13.061
40558W        W 4117  22.706   0.385   3.867
40559W        W 4118  44.782  30.633  13.457
40560W        W 4119  10.201   0.418   1.369
40561W        W 4120  31.601  20.727  12.831
40562W        W 4121  40.881  34.922  13.449
40563W        W 4122  22.016   7.220   0.416
40564W        W 4123  33.405  44.909   4.265
40565W        W 4124   4.712  44.835  11.015
40566W        W 4125  37.085   7.192   1.410
40567W        W 4126  23.093   6.375   1.340
40568W        W 4127  43.463  38.544  12.374
40569W        W 4128   4.314  11.158   0.897
40570W        W 4129  28.060  29.501   3.680
40571W        W 4130  11.651  33.584  13.428
40572W        W 4131  33.444  32.126   1.710
40573W        W 4132  38.051  20.122   4.652
40574W        W 4133   9.690  39.519   4.235
40575W        W 4134  23.141  18.249   1.725
40576W        W 4135  34.043  39.816   1.335
40577W        W 4136  22.039   5.873   0.870
40578W        W 4137  29.942  39.455  11.894
40579W        W 4138  44.439   5.238  10.412
40580W        W 4139  42.456  27.592   1.233
40581W        W 4140  34.392  40.849   1.933
40582W        W 4141  35.047  17.800   1.728
40583W        W 4142   1.889  36.526  14.940
40584W        W 4143  42.393  23.695   0.729
40585W        W 4144  41.976  42.995  12.885
40586W        W 4145  10.764  36.586  12.529
40587W        W 4146  39.545   7.890  12.442
40588W        W 4147   5.411  19.213   0.244
40589W        W 4148  36.987   3.371  13.361
40590W        W 4149  36.023  30.093  14.316
40591W        W 4150  24.675   8.655   3.682
40592W        W 4151  44.859  10.843   2.794
40593W        W 4152   8.888  37.944  12.927
40594W        W 4153  18.635  11.280   4.783
40595W        W 4154  44.343  25.188  12.436
40596W        W 4155  19.165  25.494   2.313
40597W        W 4156   8.327  43.960   1.875
40598W        W 4157   1.456  41.996   1.916
40599W        W 4158  13.195  30.545  11.498
40600W        W 4159  24.097  29.161   0.955
40601W        W 4160   6.377  12.679  12.568
40602W        W 4161  18.141  16.136  13.848
40603W        W 4162  23.189  34.088  14.343
40604W        W 4163  27.974  29.942   0.755
40605W        W 4164  26.159  18.668  12.450
40606W        W 4165  31.896  11.632  14.867
40607W        W 4166  13.641  25.588  10.478
40608W        W 4167  42.946  36.353   1.254
40609W        W 4168  41.411  16.293   0.402
40610W        W 4169  23.640  19.581   1.425
40611W        W 4170  25.593  28.017  13.479
40612W        W 4171  23.229  13.695   3.764
40613W        W 4172   5.267  26.470  11.028
40614W        W 4173  33.965   7.783   0.727
40615W        W 4174  38.870  11.254   3.145
40616W        W 4175  40.021  40.325   1.313
40617W        W 4176   2.338  33.012   3.239
40618W        W 4177  11.284   0.820   1.790
40619W        W 4178  44.340   9.173  14.786
40620W        W 4179  12.126  27.125   0.957
40621W        W 4180  17.778  40.998  10.945
40622W        W 4181  18.166  44.440   4.763
40623W        W 4182  42.967   4.389  12.976
40624W        W 4183   6.731  18.250  11.480
40625W        W 4184   1.470  24.165  11.045
40626W        W 4185   3.749  38.351   2.392
40627W        W 4186  30.446   4.359  11.540
40628W        W 4187  20.733  33.384   1.807
40629W        W 4188  44.476   9.730  11.482
40630W        W 4189   7.380   9.830   3.319
40631W        W 4190   8.791  39.358  11.935
40632W        W 4191  14.287  44.338   1.864
40633W        W 4192  21.134   4.373   2.242
40634W        W 4193  10.172  12.179   0.761
40635W        W 4194  15.723  38.935   3.828
40636W        W 4195  12.804  18.783   2.755
40637W        W 4196  19.142  40.545  10.454
40638W        W 4197  14.701  29.998  13.322
40639W        W 4198  11.348  24.220  11.961
40640W        W 4199   3.301  36.491  10.917
40641W        W 4200   6.897  34.974   0.947
40642W        W 4201   1.353  41.420   4.635
40643W        W 4202  18.058   2.462   4.133
40644W        W 4203  14.777  16.172   3.717
40645W        W 4204  22.048  11.277  12.446
40646W        W 4205  41.456   9.681   1.747
40647W        W 4206  22.016  35.867   3.827
40648W        W 4207  37.390  35.536   2.265
40649W        W 4208  21.749  43.413  11.886
40650W        W 4209  32.595  22.251  11.502
40651W        W 4210   4.866  31.075  12.896
40652W        W 4211  27.547   3.320   2.214
40653W        W 4212  43.508  19.758   1.411
40654W        W 4213  44.403  44.455  14.946
40655W        W 4214  30.003  12.724   3.157
40656W        W 4215  40.817  18.780   3.771
40657W        W 4216  43.878  13.647  12.092
40658W        W 4217  32.603   1.896  13.308
40659W        W 4218   3.404  27.181   5.277
40660W        W 4219  30.100  15.101   4.305
40661W        W 4220  31.103  37.013   5.143
40662W        W 4221  12.691  14.334  11.556
40663W        W 4222  35.919  16.203  12.459
40664W        W 4223  38.388  32.087   4.765
40665W        W 4224  38.426  15.211  12.090
40666W        W 4225   2.406  18.620  10.476
40667W        W 4226  21.693  11.813  13.944
40668W        W 4227   2.789  13.157  13.792
40669W        W 4228  12.651   9.375  14.349
40670W        W 4229   9.178   8.866  11.411
40671W        W 4230  42.351  15.650   4.306
40672W        W 4231  35.918  24.595   4.823
40673W        W 4232  42.406  14.785  14.953
40674W        W 4233  41.994  29.038   2.408
40675W        W 4234  23.562  32.934   4.714
40676W        W 4235   3.375   2.840   1.706
40677W        W 4236  39.375   5.845   0.462
40678W        W 4237  12.731  25.982  11.475
40679W        W 4238   2.301  31.953  13.437
40680W        W 4239  33.118  17.152   0.783
40681W        W 4240  38.368  17.175  10.435
40682W        W 4241   1.835  22.012   1.802
40683W        W 4242  23.135  25.559  11.586
40684W        W 4243  21.110  12.272   4.598
40685W        W 4244  44.469  33.516  10.956
40686W        W 4245  28.443  33.495   4.141
40687W        W 4246  14.330  37.368  13.904
40688W        W 4247  19.563  28.611  14.421
40689W        W 4248  38.487  42.418   2.779
40690W        W 4249  17.186   5.392   4.327
40691W        W 4250  20.660  41.406  13.475
40692W        W 4251  16.079  24.026   3.702
40693W        W 4252   8.389  17.639   1.853
40694W        W 4253  37.340  14.690   2.762
40695W        W 4254   3.840  16.649  12.849
40696W        W 4255   7.284  26.199   2.814
40697W        W 4256  24.059  41.852   3.375
40698W        W 4257  13.144  36.862  14.825
40699W        W 4258  44.490   8.230  12.387
40700W        W 4259  17.789  38.839   1.840
40701W        W 4260   6.256  33.043  14.388
40702W        W 4261  42.314  29.926  10.564
40703W        W 4262  23.005  27.569  14.817
40704W        W 4263   0.891   8.828   4.782
40705W        W 4264  12.709  36.576   4.643
40706W        W 4265   9.696  12.292   3.264
40707W        W 4266  40.020  32.632   2.296
40708W        W 4267   4.326  26.958   0.446
40709W        W 4268  18.598  17.249   0.285
40710W        W 4269  42.824  29.023  11.009
40711W        W 4270  36.375  24.499   0.271
40712W        W 4271  24.623   3.401  12.447
40713W        W 4272  15.118  12.684  14.383
40714W        W 4273  10.699  41.886   1.275
40715W        W 4274  19.562  28.129  14.996
40716W        W 4275  22.596  20.123   3.162
40717W        W 4276  33.049   4.889   0.400
40718W        W 4277  11.209  15.771  10.424
40719W        W 4278  28.936  33.018  13.981
40720W        W 4279  12.815  20.686  13.815
40721W        W 4280  37.894  24.702   0.399
40722W        W 4281  33.047  24.153   0.306
40723W        W 4282   4.271  21.552   1.845
40724W        W 4283  18.249  43.805   0.863
40725W        W 4284  24.611   8.222   1.761
40726W        W 4285   1.348   5.245  14.353
40727W        W 4286  31.517  19.170  11.075
40728W        W 4287  15.085   1.401  10.930
40729W        W 4288  44.935   2.414   1.323
40730W        W 4289  10.335  23.548  12.981
40731W        W 4290   5.779   1.914   2.268
40732W        W 4291  34.048  21.692  12.017
40733W        W 4292  16.227  37.897  13.933
40734W        W 4293  41.892  31.460  13.022
40735W        W 4294  29.088  36.448   4.201
40736W        W 4295   0.953  25.631  13.803
40737W        W 4296  20.769  39.450   1.302
40738W        W 4297  39.354  34.462   1.787
40739W        W 4298  12.851  23.589   0.282
40740W        W 4299   6.228  16.603  11.476
40741W        W 4300  21.644   7.743   3.827
40742W        W 4301   1.477  25.675   1.697
40743W        W 4302  24.191   8.160  14.805
40744W        W 4303  13.195  20.677   0.911
40745W        W 4304  37.471  34.521  13.997
40746W        W 4305  18.683  37.999   3.154
40747W        W 4306  40.500  34.407   2.897
40748W        W 4307  39.001  22.135   1.308
40749W        W 4308  31.633  12.739   1.799
40750W        W 4309   3.807  39.424   3.831
40751W        W 4310  44.895  22.542   0.458
40752W        W 4311   6.386  27.979  12.961
40753W        W 4312  37.483   0.913  14.417
40754W        W 4313  12.233  10.315   3.858
40755W        W 4314  29.560  21.593   9.486
40756W        W 4315  25.533  30.470  12.369
40757W        W 4316  33.531  35.366   4.759
40758W        W 4317  21.060  44.491  13.835
40759W        W 4318  32.929  33.125   0.407
40760W        W 4319  35.961  24.056   0.893
40761W        W 4320  40.994  19.123  13.350
40762W        W 4321  40.027  31.566   5.095
40763W        W 4322  10.289  18.567  11.105
40764W        W 4323  25.180  28.624  12.926
40765W        W 4324  32.969  28.058   3.288
40766W        W 4325   8.168  10.372  12.956
40767W        W 4326  18.657  20.251   1.836
40768W        W 4327  21.226  13.124  12.017
40769W        W 4328  16.758  14.725   4.144
40770W        W 4329  26.116  32.973   3.278
40771W        W 4330   6.900   7.248  12.492
40772W        W 4331   6.311  10.343   2.858
40773W        W 4332  31.494  31.076  13.799
40774W        W 4333  31.457  43.397  11.432
40775W        W 4334  11.717   8.372   1.210
40776W        W 4335  26.061   3.758  12.579
40777W        W 4336  26.546  21.577   1.819
40778W        W 4337   9.852  12.852   4.346
40779W        W 4338   1.732  17.656  10.488
40780W        W 4339  15.139  38.484   2.745
40781W        W 4340  20.715  29.986   4.152
40782W        W 4341   4.857  11.312  12.977
40783W        W 4342  33.441  22.702  13.339
40784W        W 4343  42.032   8.177  13.488
40785W        W 4344  32.628  31.058   1.248
40786W        W 4345  40.974   6.901   1.816
40787W        W 4346  18.789   7.855  13.449
40788W        W 4347  37.006  44.433  14.993
40789W        W 4348  43.799  20.268   3.718
40790W        W 4349   5.379  43.007  13.847
40791W        W 4350  40.394  14.315   2.218
40792W        W 4351  32.034   0.756  11.499
40793W        W 4352  14.242  20.135   4.649
40794W        W 4353  17.259  24.558   3.282
40795W        W 4354  33.877  23.126   1.740
40796W        W 4355  39.835   1.911  10.903
40797W        W 4356   2.789  44.841   3.176
40798W        W 4357  16.577  35.594  13.966
40799W        W 4358  32.952  11.634  11.017
40800W        W 4359  20.684  40.549  13.876
40801W        W 4360   6.335  19.170   1.809
40802W        W 4361  21.593  44.428   1.709
40803W        W 4362   5.426  40.875  13.507
40804W        W 4363  42.429   8.328  13.374
40805W        W 4364  27.649  36.887   4.183
40806W        W 4365   3.436  42.397   2.885
40807W        W 4366  43.459  10.821   2.194
40808W        W 4367  37.536   2.838  13.401
40809W        W 4368  25.132  33.600   4.177
40810W        W 4369  19.726  11.634  12.888
40811W        W 4370   7.317  15.195   2.239
40812W        W 4371   7.373  25.484   0.266
40813W        W 4372   4.887   7.732  14.832
40814W        W 4373  20.202   0.861  13.494
40815W        W 4374  27.991  37.468   5.270
40816W        W 4375  27.621  18.595  11.023
40817W        W 4376  16.725  10.739  12.496
40818W        W 4377   7.912  20.684  10.446
40819W        W 4378   4.789  28.653  10.893
40820W        W 4379  42.460  34.435  11.883
40821W        W 4380  44.274   0.815  10.033
40822W        W 4381  26.649  28.971   2.341
40823W        W 4382  39.404  40.337  14.493
40824W        W 4383  20.682  31.135  13.952
40825W        W 4384  25.055   1.480  12.946
40826W        W 4385  14.241  41.435   1.369
40827W        W 4386  18.766  42.393   3.287
40828W        W 4387  19.681  34.868  13.533
40829W        W 4388  25.515  39.838  14.303
40830W        W 4389  30.424  25.173  13.989
40831W        W 4390  32.570  12.303  10.631
40832W        W 4391  11.715   5.430  13.860
40833W        W 4392  29.983  42.793  12.034
40834W        W 4393   9.747  12.807  11.462
40835W        W 4394  30.589  12.230   3.713
40836W        W 4395  23.999  12.644  10.485
40837W        W 4396  17.242  30.050  14.768
40838W        W 4397  36.400   7.271  12.529
40839W        W 4398   4.783  12.674   2.251
40840W        W 4399  32.014  15.745   2.357
40841W        W 4400  32.464  44.432  12.930
40842W        W 4401   9.831  13.663  12.945
40843W        W 4402  20.156  30.930  13.389
40844W        W 4403  16.782  34.968  14.393
40845W        W 4404  25.577   1.785  15.000
40846W        W 4405  42.951  17.258  11.435
40847W        W 4406   9.746  30.470  13.361
40848W        W 4407  31.145  42.339  12.833
40849W        W 4408  31.424  26.089  12.958
40850W        W 4409  36.546  28.649  13.999
40851W        W 4410  13.721  19.132   4.645
40852W        W 4411  42.461   0.897  13.057
40853W        W 4412  17.787  12.664   2.293
40854W        W 4413  37.427  28.008  13.870
40855W        W 4414  10.801  16.173  10.502
40856W        W 4415  42.028  20.077   1.770
40857W        W 4416  43.785   1.830  14.948
40858W        W 4417  31.508   0.284   1.787
40859W        W 4418  37.932   2.366  13.931
40860W        W 4419   9.763   8.384  12.888
40861W        W 4420   6.782  36.391  14.793
40862W        W 4421  40.453  11.621   1.364
40863W        W 4422  43.881  11.167  11.531
40864W        W 4423  37.001   8.235   4.259
40865W        W 4424  22.211  11.260  10.987
40866W        W 4425  43.950  12.643   2.711
40867W        W 4426  32.403   2.818   1.302
40868W        W 4427  33.890  22.231  14.296
40869W        W 4428  33.386   1.870  13.852
40870W        W 4429   6.394  36.966  11.907
40871W        W 4430   3.870  21.104   9.959
40872W        W 4431   9.810  16.663  13.049
40873W        W 4432  25.573  13.608   3.306
40874W        W 4433  31.128  36.093   2.230
40875W        W 4434  14.652  34.078  11.454
40876W        W 4435   3.894   2.874  11.031
40877W        W 4436  39.313  17.101   2.686
40878W        W 4437   7.751  30.637  13.373
40879W        W 4438  25.202  23.597   1.872
40880W        W 4439  36.091  24.113  10.527
40881W        W 4440  44.897   5.374  10.505
40882W        W 4441  11.359  12.676  10.414
40883W        W 4442   1.759   8.686  11.905
40884W        W 4443  27.045   0.798   1.705
40885W        W 4444  25.522  34.529  11.385
40886W        W 4445  20.185  33.388   1.831
40887W        W 4446  36.401  10.289   2.864
40888W        W 4447  28.539   4.905   9.949
40889W        W 4448  31.100  40.450   5.303
40890W        W 4449  15.143  38.845  13.430
40891W        W 4450  10.159   8.238  13.873
40892W        W 4451  33.622  41.820  10.157
40893W        W 4452  11.756  41.406  11.977
40894W        W 4453   0.979  10.829   4.611
40895W        W 4454  14.199  40.944   3.361
40896W        W 4455  31.048  39.508   1.255
40897W        W 4456  27.496  18.760   3.819
40898W        W 4457  12.666  20.694  12.454
40899W        W 4458  23.088   3.342  13.427
40900W        W 4459  31.452  42.316  13.977
40901W        W 4460  13.231  38.038  10.902
40902W        W 4461  42.014   8.674  11.876
40903W        W 4462   6.290  29.482  11.400
40904W        W 4463  16.200   4.858  11.446
40905W        W 4464  38.457  22.515   0.801
40906W        W 4465  15.613  43.297   1.450
40907W        W 4466  41.370   1.922   4.834
40908W        W 4467  35.900  35.896  11.550
40909W        W 4468  25.045   8.371   1.907
40910W        W 4469  17.589  32.129  14.802
40911W        W 4470  21.037  35.956  14.011
40912W        W 4471  34.603  40.956   2.725
40913W        W 4472  40.896  10.283  14.475
40914W        W 4473  42.918  17.220   0.255
40915W        W 4474  38.068  43.279   4.631
40916W        W 4475  33.052  16.235   0.818
40917W        W 4476  28.456  43.285  11.382
40918W        W 4477  12.806   2.768  10.949
40919W        W 4478  41.856  26.686   9.952
40920W        W 4479  11.749  19.746  12.513
40921W        W 4480  18.559  38.357   4.682
40922W        W 4481  11.205  41.952  12.996
40923W        W 4482  22.167   9.773   0.455
40924W        W 4483  15.105  33.101   0.319
40925W        W 4484  42.418  31.435   4.263
40926W        W 4485  15.118  44.795  14.852
40927W        W 4486  42.847  19.542   0.366
40928W        W 4487  24.632  39.373  12.481
40929W        W 4488  23.554  30.464  13.806
40930W        W 4489  18.053  35.539  12.005
40931W        W 4490  29.602  29.091   3.703
40932W        W 4491  32.630  32.413  11.117
40933W        W 4492  27.653  26.196  11.425
40934W        W 4493  35.965  39.944   4.318
40935W        W 4494  10.365  17.300   4.294
40936W        W 4495   9.673  19.078  12.351
40937W        W 4496  34.536   0.846  10.458
40938W        W 4497  11.261  16.212  14.428
40939W        W 4498   9.684  35.906   0.863
40940W        W 4499  13.310  37.398  10.497
40941W        W 4500  40.429  11.214  10.511
40942W        W 4501   5.870   8.706  13.413
40943W        W 4502  30.113  30.946  11.056
40944W        W 4503  28.097  19.617  10.036
40945W        W 4504  15.214  10.165   3.373
40946W        W 4505   1.770   0.817   3.219
40947W        W 4506   3.834   4.835   2.291
40948W        W 4507  30.424   7.689  11.468
40949W        W 4508   3.822   8.679   4.174
40950W        W 4509  28.446   1.966  14.955
40951W        W 4510  36.352   7.278   2.203
40952W        W 4511  26.626  37.841   4.649
40953W        W 4512  41.426  30.123  11.965
40954W        W 4513   1.748  31.645   3.214
40955W        W 4514   2.831  38.974  12.066
40956W        W 4515  27.036  40.491   1.450
40957W        W 4516  21.113  19.121  10.520
40958W        W 4517  25.566  44.897  12.536
40959W        W 4518   9.685   7.373   1.436
40960W        W 4519   5.222  24.723  13.807
40961W        W 4520  34.957  19.687   1.722
40962W        W 4521  27.972  43.362   3.849
40963W        W 4522  15.183  13.271  14.381
40964W        W 4523  34.112  11.171  13.843
40965W        W 4524  34.489  15.182  10.513
40966W        W 4525   1.348  14.666  13.519
40967W        W 4526  34.609   2.906  12.061
40968W        W 4527   5.230  31.465  13.537
40969W        W 4528  24.138   1.449   3.639
40970W        W 4529  38.874   4.878  11.529
40971W        W 4530  42.358  37.015  12.486
40972W        W 4531  37.001  21.641  12.954
40973W        W 4532   7.321  13.123  10.599
40974W        W 4533  32.419  37.984   0.867
40975W        W 4534  35.511  33.592  10.050
40976W        W 4535  12.339   4.918  13.962
40977W        W 4536  25.665  37.962   1.289
40978W        W 4537  43.495  29.439   0.827
40979W        W 4538  24.638  27.520  11.025
40980W        W 4539  15.111  32.897  11.413
40981W        W 4540  27.982  24.575   3.223
40982W        W 4541  27.029  23.527   3.343
40983W        W 4542   0.444  34.383   1.813
40984W        W 4543  30.614  22.038  12.953
40985W        W 4544  26.518  15.655  13.532
40986W        W 4545  38.893  28.991  10.523
40987W        W 4546  21.217  31.026   3.733
40988W        W 4547   3.312  15.150  14.966
40989W        W 4548  28.487   3.743   0.956
40990W        W 4549  37.903   8.815   3.855
40991W        W 4550  34.458  38.864   0.729
40992W        W 4551  32.420   5.309   3.146
40993W        W 4552   3.303  23.524  10.989
40994W        W 4553  12.353  15.281   2.188
40995W        W 4554  18.210   2.419   1.421
40996W        W 4555  32.994   4.335   1.215
40997W        W 4556  36.372  38.913  13.526
40998W        W 4557  34.517  26.070  12.049
40999W        W 4558  44.810  33.384  12.900
41000W        W 4559  31.541  32.940   0.962
41001W        W 4560  38.512  10.669   0.308
41002W        W 4561  21.669  12.317   2.369
41003W        W 4562   5.363  35.388  14.963
41004W        W 4563  25.643   1.314  13.384
41005W        W 4564  39.477  26.694  11.127
41006W        W 4565   2.388  28.186   5.202
41007W        W 4566  16.279  43.270   1.303
41008W        W 4567  14.597  43.426   3.805
41009W        W 4568  25.702  39.354  14.515
41010W        W 4569   1.241  24.129  10.565
41011W        W 4570  11.861   1.922  12.445
41012W        W 4571  15.254  24.170  11.950
41013W        W 4572  28.570   8.306   0.303
41014W        W 4573  28.958  17.800   0.277
41015W        W 4574  21.201  31.588   5.089
41016W        W 4575  32.904  14.327  11.088
41017W        W 4576  25.705  21.537   1.319
41018W        W 4577  37.872  26.187   3.332
41019W        W 4578  21.533  28.540  13.895
41020W        W 4579  33.583  21.648  10.500
41021W        W 4580  35.442   3.922   1.838
41022W        W 4581   2.874  24.997  13.798
41023W        W 4582  38.023  38.939   0.314
41024W        W 4583  36.369   3.242   2.879
41025W        W 4584  13.290  12.246  14.422
41026W        W 4585  28.060  40.895   0.813
41027W        W 4586  43.397  26.609  12.018
41028W        W 4587  43.000  10.261   5.144
41029W        W 4588  22.143  16.791   2.207
41030W        W 4589  29.582  31.061   4.337
41031W        W 4590   1.324  27.653   0.818
41032W        W 4591  29.160  18.204   1.442
41033W        W 4592  17.094  40.394  13.476
41034W        W 4593   6.411  28.501   1.775
41035W        W 4594  21.040  14.290   1.323
41036W        W 4595  40.804  32.631   5.085
41037W        W 4596   1.821  26.679   1.771
41038W        W 4597  18.634  11.666  10.554
41039W        W 4598   4.308  18.088  10.887
41040W        W 4599   7.812  35.041  12.950
41041W        W 4600   1.953  40.940  14.992
41042W        W 4601  39.871  12.234   2.784
41043W        W 4602  16.797  14.792  13.008
41044W        W 4603  38.918  13.157   1.772
41045W        W 4604  28.504   9.778   4.199
41046W        W 4605  11.203  29.063  10.532
41047W        W 4606   4.407  31.562   0.782
41048W        W 4607  13.649  18.071  12.912
41049W        W 4608  40.326  41.534   3.358
41050W        W 4609  39.972  30.471   4.196
41051W        W 4610  28.095   6.418  13.059
41052W        W 4611  39.963  25.681  10.597
41053W        W 4612  30.512  31.435  12.901
41054W        W 4613  37.554  18.119  10.416
41055W        W 4614   1.326  29.126   2.744
41056W        W 4615   4.810  26.488  14.353
41057W        W 4616  42.514  19.537  11.492
41058W        W 4617   2.444  31.424  14.924
41059W        W 4618  24.567   1.899   3.632
41060W        W 4619  12.188  34.613   4.313
41061W        W 4620  42.367   4.444  13.429
41062W        W 4621  36.384  39.473   2.302
41063W        W 4622   7.260  10.349   1.819
41064W        W 4623   4.365  37.547   4.732
41065W        W 4624   9.770  29.047  12.527
41066W        W 4625   1.390   6.686   0.462
41067W        W 4626  15.145  41.431   1.821
41068W        W 4627  13.668  24.614  10.955
41069W        W 4628  35.433  43.771   3.267
41070W        W 4629  18.664   5.867   4.813
41071W        W 4630  42.286   0.886  10.895
41072W        W 4631  36.431  32.495  10.969
41073W        W 4632  19.661  13.139  13.365
41074W        W 4633  42.911   9.174  11.518
41075W        W 4634  41.414   3.849   3.721
41076W        W 4635  37.376   3.232   1.299
41077W        W 4636  20.158   1.921   3.779
41078W        W 4637  38.488  28.489   1.844
41079W        W 4638   9.259  35.384   9.505
41080W        W 4639  35.951  26.481  10.621
41081W        W 4640   9.821  37.840  14.476
41082W        W 4641  43.387  38.463  11.998
41083W        W 4642  14.702  10.862  12.409
41084W        W 4643   5.694  43.773  11.379
41085W        W 4644  39.985  35.374   0.905
41086W        W 4645  29.103  21.141   4.328
41087W        W 4646  37.343   2.456   3.345
41088W        W 4647  29.066  31.027   3.703
41089W        W 4648  16.803  41.320  12.851
41090W        W 4649  11.710   0.921  12.463
41091W        W 4650  27.136  29.927  11.523
41092W        W 4651  30.023   3.886  13.389
41093W        W 4652  27.107  18.565   1.388
41094W        W 4653  20.260   4.925   2.231
41095W        W 4654  44.452  22.518  14.364
41096W        W 4655  41.905  23.545  10.502
41097W        W 4656  16.721  24.636  14.894
41098W        W 4657  33.531  12.135  14.504
41099W        W 4658   8.330  34.895   0.248
41100W        W 4659  36.967  25.200  13.795
41101W        W 4660  32.540  15.656  13.007
41102W        W 4661  34.479  14.707  11.603
41103W        W 4662   7.694  31.136   1.447
41104W        W 4663  31.036  31.602   3.711
41105W        W 4664  12.645  13.168  14.896
41106W        W 4665  30.977  17.269   1.933
41107W        W 4666  39.967  42.001  10.530
41108W        W 4667   7.313  34.949  12.910
41109W        W 4668  32.089  26.649  12.367
41110W        W 4669   9.334  34.049  13.546
41111W        W 4670   5.746  40.806  12.060
41112W        W 4671  27.681  21.043  11.072
41113W        W 4672   3.430  38.898  12.411
41114W        W 4673   9.798  15.245   5.295
41115W        W 4674  43.785  28.597  12.078
41116W        W 4675  41.879  23.489  11.540
41117W        W 4676  29.003   2.391  14.313
41118W        W 4677   7.784  14.697   4.116
41119W        W 4678  42.329  41.497  11.545
41120W        W 4679   5.315   2.276  10.945
41121W        W 4680  34.096  36.521   0.843
41122W        W 4681   3.366  26.963   2.880
41123W        W 4682   3.927  30.460  12.054
41124W        W 4683   7.407   9.738   0.358
41125W        W 4684  33.060  30.967  13.385
41126W        W 4685  37.059  30.936  10.077
41127W        W 4686  10.859  24.033   2.847
41128W        W 4687  32.554  27.175   0.457
41129W        W 4688  15.607  28.639  13.861
41130W        W 4689  22.637  20.103  12.380
41131W        W 4690   1.786  33.535   3.730
41132W        W 4691  31.028  36.048   4.614
41133W        W 4692  26.700  26.133  10.485
41134W        W 4693   4.367  10.793  14.883
41135W        W 4694  28.935  43.997   0.449
41136W        W 4695  12.359  29.949  10.610
41137W        W 4696  22.132  25.530  12.505
41138W        W 4697   5.797  29.461  11.599
41139W        W 4698  31.971  41.532   5.746
41140W        W 4699   9.180  10.877   0.793
41141W        W 4700   6.356  24.095  12.463
41142W        W 4701  32.397  42.014   2.740
41143W        W 4702  42.777  37.400  11.123
41144W        W 4703  11.286   4.917   2.740
41145W        W 4704  18.688  38.378   2.401
41146W        W 4705  36.978   9.848   4.115
41147W        W 4706  35.032   9.287  14.394
41148W        W 4707  36.999  13.813  13.926
41149W        W 4708  32.962  43.884  11.589
41150W        W 4709   9.289  27.059   0.922
41151W        W 4710  17.112   0.829  12.934
41152W        W 4711  31.126  41.449   1.777
41153W        W 4712  28.123  36.579   4.647
41154W        W 4713   8.324   2.239  14.851
41155W        W 4714  36.969  36.455  14.312
41156W        W 4715   1.422   7.348   0.879
41157W        W 4716  21.756  11.196   3.296
41158W        W 4717  12.276  25.507   2.853
41159W        W 4718   3.841  10.287  13.018
41160W        W 4719   5.384  26.655  11.533
41161W        W 4720  25.559  32.087   2.241
41162W        W 4721  35.008  18.284  13.543
41163W        W 4722  40.991  11.246   0.829
41164W        W 4723  35.404  34.534   1.750
41165W        W 4724  12.626  25.490   0.412
41166W        W 4725  17.162  41.410  13.432
41167W        W 4726  44.473  39.422   0.742
41168W        W 4727   3.437   7.202  14.402
41169W        W 4728   8.798  11.165   2.692
41170W        W 4729  40.986  27.491   0.446
41171W        W 4730  40.434  25.177   0.391
41172W        W 4731  12.696   6.379   0.479
41173W        W 4732  27.523  15.137   1.447
41174W        W 4733  26.185  29.110   0.298
41175W        W 4734  30.045  33.064   4.734
41176W        W 4735  21.617  19.153  11.869
41177W        W 4736  41.894  14.808   0.952
41178W        W 4737  25.686  44.326  14.802
41179W        W 4738  40.362   6.356   3.291
41180W        W 4739  25.165  43.825  11.393
41181W        W 4740  24.176   2.796  12.346
41182W        W 4741  23.192  17.594  11.395
41183W        W 4742  38.061  43.909   4.157
41184W        W 4743  33.094  14.748   3.853
41185W        W 4744   8.895  22.507  13.974
41186W        W 4745  33.450  37.576  14.875
41187W        W 4746   9.334  10.649  13.395
41188W        W 4747  41.376  21.085  13.491
41189W        W 4748  31.552  18.093   1.301
41190W        W 4749  36.439  28.107   1.853
41191W        W 4750  23.734   1.838   1.752
41192W        W 4751  30.522  20.692   2.397
41193W        W 4752  20.551  15.240   4.736
41194W        W 4753  13.338  38.424  10.623
41195W        W 4754   8.811  11.309  14.277
41196W        W 4755   4.926   3.384  12.084
41197W        W 4756  25.119  38.961   4.348
41198W        W 4757  17.160  34.039  12.909
41199W        W 4758  35.467  30.436   0.936
41200W        W 4759   6.874  33.879   0.463
41201W        W 4760   9.189   5.756   2.326
41202W        W 4761  33.503  19.275  10.948
41203W        W 4762  43.452   3.220   0.751
41204W        W 4763   3.783  26.572   0.424
41205W        W 4764  42.344  27.050   4.816
41206W        W 4765   6.915  31.964  14.824
41207W        W 4766   5.213  14.288   2.360
41208W        W 4767   0.904  40.446  14.914
41209W        W 4768  15.645  36.064  10.024
41210W        W 4769  26.966  26.986   1.356
41211W        W 4770  19.747   3.942  11.871
41212W        W 4771   3.912  44.428  12.454
41213W        W 4772   4.863  27.992   1.419
41214W        W 4773  22.051  13.116   1.416
41215W        W 4774  31.586  32.565  12.496
41216W        W 4775  30.557   6.852   0.429
41217W        W 4776  34.471  18.652  13.431
41218W        W 4777   3.399  14.176  10.499
41219W        W 4778  38.423  39.018  12.414
41220W        W 4779  12.731   6.851  12.868
41221W        W 4780   7.676   2.826   1.759
41222W        W 4781  17.228  11.653   0.842
41223W        W 4782  37.965  22.251   0.405
41224W        W 4783  27.006   0.799   0.760
41225W        W 4784  14.338  27.549  12.859
41226W        W 4785  10.702  24.182   2.325
41227W        W 4786  30.527  39.425   0.962
41228W        W 4787  39.927  41.416  10.981
41229W        W 4788  18.751  30.481   0.742
41230W        W 4789  39.933  22.111  14.318
41231W        W 4790  43.429  25.185   1.842
41232W        W 4791   8.331  19.136   3.782
41233W        W 4792  38.963  36.349  12.370
41234W        W 4793  14.783  19.268   3.736
41235W        W 4794  32.976   1.302   2.699
41236W        W 4795   7.833  42.008   2.698
41237W        W 4796  23.550   2.240  14.439
41238W        W 4797   3.414   1.749  10.944
41239W        W 4798   4.370  11.802  11.457
41240W        W 4799   9.190  12.652   3.384
41241W        W 4800  11.699  28.505   0.967
41242W        W 4801  37.379  24.609  11.887
41243W        W 4802  44.285   2.309  14.310
41244W        W 4803  35.491  35.900  11.925
41245W        W 4804  44.352  34.025   1.918
41246W        W 4805  43.327  44.923   1.782
41247W        W 4806  42.940  28.659   3.272
41248W        W 4807  15.178  41.412  12.551
41249W        W 4808   6.244  20.744  11.400
41250W        W 4809  22.050  34.470   0.855
41251W        W 4810  26.092  31.628   4.640
41252W        W 4811  36.914  14.230   4.216
41253W        W 4812  28.039  43.481  14.797
41254W        W 4813  23.605  39.877   1.751
41255W        W 4814  29.976  28.635  13.442
41256W        W 4815  23.239  31.112   1.435
41257W        W 4816  12.134  32.948  14.874
41258W        W 4817  31.589  44.342  11.002
41259W        W 4818  24.219  30.976  14.468
41260W        W 4819   1.770  22.205   4.827
41261W        W 4820   1.315  29.516   4.616
41262W        W 4821  35.971  39.846   0.776
41263W        W 4822   6.269  37.041   1.906
41264W        W 4823  40.326  26.511  12.934
41265W        W 4824  44.434  25.086  10.641
41266W        W 4825  22.055  15.600  13.441
41267W        W 4826   6.218   8.181   3.344
41268W        W 4827   0.474  11.816  11.019
41269W        W 4828  43.953  28.484   1.745
41270W        W 4829  32.020   8.762  14.380
41271W        W 4830  31.052  37.398   1.221
41272W        W 4831  23.052  27.616  12.034
41273W        W 4832   1.415  18.209  12.919
41274W        W 4833  35.942  40.850   0.375
41275W        W 4834  24.534   8.168   2.800
41276W        W 4835  17.741   0.403  13.005
41277W        W 4836  24.179  10.826  14.777
41278W        W 4837  33.381  36.033   5.245
41279W        W 4838   7.250  20.114  13.438
41280W        W 4839  17.568  30.001  13.963
41281W        W 4840  14.143  38.518   2.830
41282W        W 4841  29.964  38.832   2.879
41283W        W 4842   0.843  21.698  14.922
41284W        W 4843  37.455  15.606   2.300
41285W        W 4844  11.729  36.524  12.374
41286W        W 4845  20.623  11.237  12.386
41287W        W 4846   6.422  23.073   3.207
41288W        W 4847   8.671  16.229  10.461
41289W        W 4848   1.827  37.514   4.734
41290W        W 4849  24.659  18.700  11.035
41291W        W 4850  31.914  21.643   4.794
41292W        W 4851  22.661   1.795   1.787
41293W        W 4852  29.524  41.339  12.827
41294W        W 4853  42.518  30.631   0.935
41295W        W 4854   5.789  27.482   2.825
41296W        W 4855  21.094  17.757   2.747
41297W        W 4856   8.850  11.830   9.987
41298W        W 4857  21.522  23.579  11.527
41299W        W 4858  11.798  28.451   2.876
41300W        W 4859  28.676  11.861   4.824
41301W        W 4860   6.349  22.036   2.395
41302W        W 4861  21.619  43.784   0.762
41303W        W 4862  24.012  11.787  11.542
41304W        W 4863   9.256  37.347  10.626
41305W        W 4864  34.540  27.592  13.515
41306W        W 4865   3.887  42.866  12.082
41307W        W 4866  36.387  35.481  14.480
41308W        W 4867  15.813  18.237   1.420
41309W        W 4868  31.564   1.394   2.279
41310W        W 4869  24.218  34.577  13.063
41311W        W 4870  28.962   7.197  13.866
41312W        W 4871  11.220  29.464   4.706
41313W        W 4872  16.651  34.045  12.992
41314W        W 4873  15.808  22.622   2.336
41315W        W 4874  19.756  15.313  12.064
41316W        W 4875  43.833  43.778  14.998
41317W        W 4876   0.259  40.344  11.588
41318W        W 4877  11.156   0.831   0.465
41319W        W 4878  17.180  10.640   4.700
41320W        W 4879   0.861  12.260   3.157
41321W        W 4880  27.023  29.105   2.304
41322W        W 4881   6.904  11.781  14.468
41323W        W 4882  19.667  19.219   1.890
41324W        W 4883  26.674   3.424  10.420
41325W        W 4884  27.561   2.965   4.345
41326W        W 4885  42.417  37.339  12.528
41327W        W 4886   6.427  19.186   9.960
41328W        W 4887   3.840  19.185   3.370
41329W        W 4888   8.722  41.008  13.826
41330W        W 4889  22.214  34.030   3.342
41331W        W 4890   8.185  10.196   3.778
41332W        W 4891  17.619  21.710   3.836
41333W        W 4892  31.918  28.038   1.908
41334W        W 4893   4.754  17.702  10.985
41335W        W 4894  14.171   7.220  12.082
41336W        W 4895  32.110  17.628  12.871
41337W        W 4896  30.031  20.767   1.843
41338W        W 4897  17.139   0.358  13.478
41339W        W 4898  33.384  27.565   2.295
41340W        W 4899  18.641  17.580   2.393
41341W        W 4900  36.970  26.025  11.911
41342W        W 4901   0.385   6.339  13.902
41343W        W 4902   1.758  23.530  13.403
41344W        W 4903  23.511  44.266  11.449
41345W        W 4904  15.714  42.320   4.658
41346W        W 4905  16.671  39.944  11.506
41347W        W 4906  37.076  19.719  14.828
41348W        W 4907   0.963  19.070   0.321
41349W        W 4908  27.110  19.237   4.827
41350W        W 4909   9.367  24.704   3.343
41351W        W 4910  18.552  40.345  11.903
41352W        W 4911  29.059  41.408   1.812
41353W        W 4912   1.265  12.136  11.003
41354W        W 4913  44.000  24.479   3.693
41355W        W 4914   0.840  14.207  14.371
41356W        W 4915  28.168  37.419   0.939
41357W        W 4916   0.824  38.413   1.415
41358W        W 4917  39.939  33.017   1.726
41359W        W 4918  26.191  16.282  13.052
41360W        W 4919   2.930  13.612  11.569
41361W        W 4920  38.347  14.248  14.927
41362W        W 4921  26.176  26.028  13.540
41363W        W 4922  21.225  20.119   3.210
41364W        W 4923  35.455  32.895   0.288
41365W        W 4924  23.092  23.026  10.934
41366W        W 4925  39.416  44.972  13.964
41367W        W 4926   5.327  21.747  13.392
41368W        W 4927  34.994   4.733   3.215
41369W        W 4928  25.684  43.382  14.769
41370W        W 4929   7.900  40.995  12.051
41371W        W 4930  22.079   2.431  12.343
41372W        W 4931   1.447  19.615  13.465
41373W        W 4932  14.712   2.379   1.446
41374W        W 4933  38.008  10.362  14.774
41375W        W 4934   7.194  30.999   1.770
41376W        W 4935  37.937  36.981   0.282
41377W        W 4936   2.291  26.596   0.735
41378W        W 4937  34.113   5.431   0.732
41379W        W 4938  23.695  41.021  11.114
41380W        W 4939   4.436  37.516  10.538
41381W        W 4940   9.257  24.504   2.385
41382W        W 4941   0.858  25.693   4.738
41383W        W 4942  39.521  23.072   3.658
41384W        W 4943  14.237  18.722  10.635
41385W        W 4944   3.730   3.893  10.544
41386W        W 4945  21.083  14.664   0.895
41387W        W 4946  25.576  30.647   3.322
41388W        W 4947  31.014   8.370   0.755
41389W        W 4948  16.751  43.456   0.467
41390W        W 4949  41.007   4.410  14.767
41391W        W 4950   9.318   3.893  10.410
41392W        W 4951  29.075  39.530  10.953
41393W        W 4952   9.388  13.706   0.851
41394W        W 4953   4.842  24.669  14.412
41395W        W 4954  23.497  19.062  14.396
41396W        W 4955  28.530  28.664  10.573
41397W        W 4956   1.911  14.170  12.390
41398W        W 4957  10.781  36.576  11.609
41399W        W 4958  23.520   1.749  12.449
41400W        W 4959  34.089  29.647  12.485
41401W        W 4960  29.597  44.797   4.768
41402W        W 4961   9.257  29.598   2.792
41403W        W 4962  26.556  11.819  13.340
41404W        W 4963   8.776  37.978   4.142
41405W        W 4964  17.672  19.171  11.007
41406W        W 4965  15.280  24.179  13.060
41407W        W 4966  28.132  34.877  11.550
41408W        W 4967  26.135  16.674   2.204
41409W        W 4968  14.108  16.167   1.727
41410W        W 4969  13.785   8.359   2.706
41411W        W 4970  14.119  20.238   1.931
41412W        W 4971  34.387  21.515  11.521
41413W        W 4972  19.138  16.204  10.442
41414W        W 4973   5.200   9.847  14.818
41415W        W 4974  43.315  32.938  12.579
41416W        W 4975  24.075  34.944   4.674
41417W        W 4976  11.802  44.416   0.904
41418W        W 4977  33.010  30.036  10.487
41419W        W 4978  32.573  22.593  12.994
41420W        W 4979  41.361   5.773  12.422
41421W        W 4980  35.581   8.345  14.887
41422W        W 4981  31.455   4.778  14.967
41423W        W 4982   6.195  26.163   3.787
41424W        W 4983  20.080  20.151  13.356
41425W        W 4984  40.943  34.990  12.562
41426W        W 4985  34.437  38.822  10.470
41427W        W 4986   0.453  32.566  12.031
41428W        W 4987  17.206  19.064   3.697
41429W        W 4988  22.242  28.458  13.048
41430W        W 4989  37.931  36.072   2.672
41431W        W 4990  12.287  43.328   2.898
41432W        W 4991  29.588  36.028  11.525
41433W        W 4992   0.761  30.550   3.803
41434W        W 4993   9.659  43.839   4.750
41435W        W 4994  37.075  12.255   2.667
41436W        W 4995  38.879   1.299   1.318
41437W        W 4996   6.332   3.767  12.551
41438W        W 4997  22.674  34.027  13.927
41439W        W 4998  26.485  35.003  11.602
41440W        W 4999  24.611  13.208  14.938
41441W        W 5000  44.799  23.172  13.823
41442W        W 5001   3.407   2.301  11.584
41443W        W 5002  41.830  12.805   2.382
41444W        W 5003  35.369  37.381  14.986
41445W        W 5004   7.725  36.932   3.326
41446W        W 5005   1.773   8.885  10.512
41447W        W 5006   3.415  39.010   2.403
41448W        W 5007  33.979  27.020  14.433
41449W        W 5008  34.444  11.140  13.993
41450W        W 5009  26.554  24.542  12.517
41451W        W 5010  24.542  16.596  11.966
41452W        W 5011  37.550   1.472   1.769
41453W        W 5012  20.111  11.772  12.442
41454W        W 5013  10.696  30.991   0.335
41455W        W 5014   0.810  33.552   3.226
41456W        W 5015  28.671  18.781   1.306
41457W        W 5016  34.439  39.928   5.766
41458W        W 5017  33.456  29.634  11.950
41459W        W 5018  37.004  29.609   2.676
41460W        W 5019  43.428  41.292  14.373
41461W        W 5020   1.324  17.299  13.465
41462W        W 5021  22.018   3.357  10.584
41463W        W 5022  33.415  22.687   3.794
41464W        W 5023  39.404  43.818  12.053
41465W        W 5024  32.972  39.435  11.560
41466W        W 5025   7.836  31.114   1.796
41467W        W 5026   6.397  42.328  13.454
41468W        W 5027  11.178  17.702   3.783
41469W        W 5028  40.432   7.804   4.177
41470W        W 5029  35.421  31.077  11.579
41471W        W 5030  10.642  40.342  11.869
41472W        W 5031  34.422  34.544   1.838
41473W        W 5032  20.653  36.382   0.299
41474W        W 5033  38.405  29.962  10.644
41475W        W 5034  22.996  44.449   3.370
41476W        W 5035  20.632   4.727  14.408
41477W        W 5036  33.599  36.063  13.426
41478W        W 5037  25.109  16.764   2.310
41479W        W 5038  22.066  27.547  12.873
41480W        W 5039  14.305  20.133  11.520
41481W        W 5040  13.106  19.151  10.894
41482W        W 5041  15.277  30.959   1.817
41483W        W 5042  38.042   9.658   4.206
41484W        W 5043  23.059  26.597   3.839
41485W        W 5044   2.413  44.996  12.889
41486W        W 5045  21.052  21.676  12.411
41487W        W 5046  35.476  25.622   2.304
41488W        W 5047   6.232  14.655   4.188
41489W        W 5048  43.975  25.700  14.334
41490W        W 5049  39.362  16.126   1.930
41491W        W 5050   9.682  44.416   1.411
41492W        W 5051  39.908  41.411  11.953
41493W        W 5052  44.498  37.904  12.958
41494W        W 5053  22.560  16.800  11.933
41495W        W 5054   8.688  33.122   2.780
41496W        W 5055  17.123  11.199  12.407
41497W        W 5056  40.530   4.715   2.730
41498W        W 5057  41.994  13.645   4.838
41499W        W 5058  16.631  26.057  12.580
41500W        W 5059  31.953  21.549  13.346
41501W        W 5060  42.326  20.722   2.243
41502W        W 5061  28.186  35.901  13.325
41503W        W 5062  30.116   3.854  12.991
41504W        W 5063  18.572  10.329   4.139
41505W        W 5064  14.240  11.218   2.721
41506W        W 5065  18.163  23.198  14.485
41507W        W 5066  29.602  24.000   2.878
41508W        W 5067   3.233  19.714  12.904
41509W        W 5068  35.922  23.676   2.322
41510W        W 5069  38.924   6.334   0.827
41511W        W 5070  39.877  31.609   3.302
41512W        W 5071  38.076  18.123  14.427
41513W        W 5072  28.556  15.697   3.247
41514W        W 5073  28.039  10.687  13.032
41515W        W 5074  24.193  23.127   2.394
41516W        W 5075  33.981  35.875  13.416
41517W        W 5076  26.099  27.471   1.314
41518W        W 5077   6.380  22.621   5.315
41519W        W 5078  13.657   0.411   0.328
41520W        W 5079  44.982  11.271  14.392
41521W        W 5080  10.211  25.165  12.047
41522W        W 5081   0.468  39.525  11.862
41523W        W 5082  39.832  14.194   0.810
41524W        W 5083  14.689  32.480  13.027
41525W        W 5084  39.560  17.177   4.781
41526W        W 5085  43.437  10.143  11.979
41527W        W 5086  40.443  36.486   0.954
41528W        W 5087  27.121  17.729   4.643
41529W        W 5088  21.566  24.145  10.438
41530W        W 5089  38.472   9.784   4.710
41531W        W 5090  15.698  34.968   2.728
41532W        W 5091  22.702  29.480   4.164
41533W        W 5092   8.262  13.800  14.504
41534W        W 5093  20.040   4.903  13.889
41535W        W 5094   3.295  23.148   3.715
41536W        W 5095  17.282  20.223   4.758
41537W        W 5096  17.065  18.076  11.523
41538W        W 5097  30.088  15.160  11.911
41539W        W 5098  21.203  40.028   9.947
41540W        W 5099  11.207  27.539   4.800
41541W        W 5100  40.372  39.850  12.490
41542W        W 5101   2.816  38.859   0.286
41543W        W 5102  33.080  35.557   4.744
41544W        W 5103  29.652   2.773  10.602
41545W        W 5104  13.676  42.000   4.626
41546W        W 5105   8.239   6.694  14.825
41547W        W 5106   1.946   3.745  10.575
41548W        W 5107   6.194  22.666   4.181
41549W        W 5108  44.488  24.000   0.482
41550W        W 5109  15.736  26.498  11.889
41551W        W 5110  44.819  32.409   4.178
41552W        W 5111  22.014  36.910  11.390
41553W        W 5112  44.004  34.497   2.710
41554W        W 5113  17.606  32.887   4.224
41555W        W 5114  12.730  18.618  11.472
41556W        W 5115   2.776  43.931  11.094
41557W        W 5116   9.666   8.718   3.359
41558W        W 5117  31.447  22.045   0.857
41559W        W 5118  41.994  38.391   0.384
41560W        W 5119  22.678   0.424   2.789
41561W        W 5120  16.285  41.452   1.289
41562W        W 5121  31.513  31.961   1.426
41563W        W 5122   5.343  14.326   0.784
41564W        W 5123   1.261   5.323  13.947
41565W        W 5124  22.252   3.329   0.431
41566W        W 5125  38.528  17.568   3.768
41567W        W 5126  37.463  18.657  10.458
41568W        W 5127  25.124  17.576   2.677
41569W        W 5128  37.908  21.091   3.774
41570W        W 5129  33.074   8.274   0.906
41571W        W 5130  39.408  31.026  12.529
41572W        W 5131  31.564  21.123  13.413
41573W        W 5132   0.762   2.367   2.864
41574W        W 5133  20.737  22.093   3.300
41575W        W 5134  20.719  32.429  11.930
41576W        W 5135  42.423  42.895  12.540
41577W        W 5136  23.146  26.161   2.876
41578W        W 5137  42.897  14.759   0.967
41579W        W 5138  30.416  38.347   3.167
41580W        W 5139  36.006  43.827  11.861
41581W        W 5140   5.816  10.732  11.878
41582W        W 5141  26.005  18.652   1.912
41583W        W 5142   1.910  37.040   1.307
41584W        W 5143  16.144   5.431   3.763
41585W        W 5144  27.060  24.060  14.461
41586W        W 5145   3.885   4.808  11.085
41587W        W 5146  22.102  31.994  14.286
41588W        W 5147   4.252  11.722   1.863
41589W        W 5148  39.368  13.628  13.063
41590W        W 5149  31.473   7.733  14.982
41591W        W 5150   9.383  13.121  12.854
41592W        W 5151   2.353  29.125   4.354
41593W        W 5152  44.362  10.263  14.941
41594W        W 5153  28.508   0.475  11.063
41595W        W 5154  14.833  23.582  13.392
41596W        W 5155  38.385   5.267   3.267
41597W        W 5156  33.023  14.606  14.286
41598W        W 5157   6.305  21.736   2.347
41599W        W 5158   2.848   7.206   0.353
41600W        W 5159  37.898  30.422  13.920
41601W        W 5160  43.834  36.450   3.845
41602W        W 5161  44.338  11.688  13.501
41603W        W 5162  37.941  29.553   0.448
41604W        W 5163  32.966  19.144  10.914
41605W        W 5164  19.734  37.857   3.643
41606W        W 5165  26.700  11.250   3.260
41607W        W 5166  16.116   2.753  14.364
41608W        W 5167  25.643   3.760  10.481
41609W        W 5168   4.867  28.095   3.640
41610W        W 5169  13.807   1.300  13.017
41611W        W 5170  10.305  42.424  12.353
41612W        W 5171  32.098  32.121  10.524
41613W        W 5172   3.863  29.040  11.522
41614W        W 5173   3.797  41.536   0.436
41615W        W 5174   5.250  21.622   1.934
41616W        W 5175  33.998  37.975   0.381
41617W        W 5176  42.917  39.434  14.815
41618W        W 5177  32.097  29.667   5.140
41619W        W 5178  13.323  10.209   3.761
41620W        W 5179  31.500   0.785   4.756
41621W        W 5180  36.442  28.948   4.726
41622W        W 5181  36.996  11.317   2.337
41623W        W 5182  22.097  39.999   4.296
41624W        W 5183  39.442  44.984   4.602
41625W        W 5184  21.058  34.486  10.143
41626W        W 5185  30.016  11.699   2.341
41627W        W 5186  14.227  36.592  11.979
41628W        W 5187   8.857  38.067   0.893
41629W        W 5188  15.088   4.702   3.293
41630W        W 5189  18.081  42.989   3.287
41631W        W 5190  26.010  36.418  12.874
41632W        W 5191  44.863  34.115   2.230
41633W        W 5192  29.970  23.556  10.930
41634W        W 5193   9.317  22.516   3.268
41635W        W 5194  28.182   6.844   0.860
41636W        W 5195  11.248  22.106   2.786
41637W        W 5196  27.959  25.583  12.575
41638W        W 5197   8.839  14.191  13.847
41639W        W 5198  25.998  40.934   3.301
41640W        W 5199  17.276  20.061  11.038
41641W        W 5200  22.012  41.023   0.734
41642W        W 5201  11.334  36.931  11.581
41643W        W 5202   2.838  19.126   3.269
41644W        W 5203  28.665  11.741   3.361
41645W        W 5204  25.041  25.976  10.540
41646W        W 5205  38.355  28.647  14.970
41647W        W 5206  25.189  17.729  14.383
41648W        W 5207  21.623  26.600   0.329
41649W        W 5208   8.160   2.792   0.443
41650W        W 5209  26.122  37.997  13.435
41651W        W 5210  25.108  23.065   0.760
41652W        W 5211   3.413  15.760  13.402
41653W        W 5212  35.973  34.094   0.282
41654W        W 5213  11.355  30.984  12.496
41655W        W 5214  20.614   0.472  13.376
41656W        W 5215  18.166  34.548  11.946
41657W        W 5216  34.473  13.713  12.924
41658W        W 5217   3.876   7.264   2.824
41659W        W 5218  13.639  26.203  10.414
41660W        W 5219   2.826  18.118  12.869
41661W        W 5220   5.213  27.973   0.448
41662W        W 5221   6.384  43.389  11.513
41663W        W 5222  23.512   6.920  11.944
41664W        W 5223  11.730  36.095   4.727
41665W        W 5224  41.017  11.374   2.317
41666W        W 5225  30.107   5.411  12.827
41667W        W 5226  25.578  40.457  11.958
41668W        W 5227   1.896  29.544   4.353
41669W        W 5228   3.272  22.633  14.029
41670W        W 5229  26.611  16.629  10.410
41671W        W 5230   3.307  40.982  14.984
41672W        W 5231   2.941  30.507  12.866
41673W        W 5232   1.280  11.222   1.253
41674W        W 5233  22.568  11.345  13.544
41675W        W 5234  41.885   0.745  13.860
41676W        W 5235  31.450  38.021  11.594
41677W        W 5236  19.768  25.095   1.434
41678W        W 5237  32.923  15.266   1.318
41679W        W 5238  21.544  23.551  13.437
41680W        W 5239  11.792  12.718   3.650
41681W        W 5240   9.232  11.262  12.387
41682W        W 5241   2.323   4.334  12.857
41683W        W 5242  11.788  21.552  11.924
41684W        W 5243  18.619   2.442   2.281
41685W        W 5244  16.231  44.369   1.813
41686W        W 5245  38.867  24.012  14.853
41687W        W 5246  24.091  28.557  13.516
41688W        W 5247  30.995  21.261   5.140
41689W        W 5248  10.176  20.708   2.759
41690W        W 5249  10.736  41.325  14.495
41691W        W 5250  31.914   0.474  12.945
41692W        W 5251  12.712   2.849   3.768
41693W        W 5252  11.210   8.720  10.496
41694W        W 5253  25.986  33.964   3.260
41695W        W 5254  26.986  15.683   3.284
41696W        W 5255  13.732  11.626  13.445
41697W        W 5256   1.274  23.067  11.416
41698W        W 5257   4.224  16.795  13.007
41699W        W 5258  14.714  15.239   1.816
41700W        W 5259  23.565   1.850   2.850
41701W        W 5260  24.007  24.623  12.578
41702W        W 5261  24.176  26.181   4.732
41703W        W 5262   0.813  42.952   3.660
41704W        W 5263  42.407  14.682   3.185
41705W        W 5264  18.686  31.982  11.541
41706W        W 5265  34.908  41.831  13.462
41707W        W 5266  12.359  15.221  11.938
41708W        W 5267  31.078  26.047   4.758
41709W        W 5268  10.170  10.646   0.928
41710W        W 5269  16.812  18.555  11.977
41711W        W 5270  23.624  13.178  12.040
41712W        W 5271  28.949  19.624  14.895
41713W        W 5272  28.629  43.361   2.333
41714W        W 5273  10.323  12.741  14.474
41715W        W 5274   6.226  27.587   3.168
41716W        W 5275   8.812   8.718  12.860
41717W        W 5276  34.072  23.115   2.323
41718W        W 5277  10.703  41.405   1.700
41719W        W 5278   4.868  36.540   4.790
41720W        W 5279  37.429  40.427  14.834
41721W        W 5280   2.869  29.112   0.466
41722W        W 5281  28.123   2.280   0.830
41723W        W 5282  33.932  35.876  14.829
41724W        W 5283   2.381   6.753   4.681
41725W        W 5284  23.575  11.283  14.405
41726W        W 5285  41.458  10.819   1.801
41727W        W 5286  24.695  42.490  11.061
41728W        W 5287  44.424  25.690   5.234
41729W        W 5288  15.730   4.441  14.414
41730W        W 5289  38.394  37.881  13.849
41731W        W 5290  21.547  13.843   1.357
41732W        W 5291  16.251  35.079   1.418
41733W        W 5292   0.272  34.427   1.418
41734W        W 5293  39.812  16.161   0.320
41735W        W 5294  11.298  24.666  10.543
41736W        W 5295  37.958  36.409   2.882
41737W        W 5296  34.387  38.978  11.118
41738W        W 5297  16.641  33.903   1.384
41739W        W 5298  18.273  39.004  12.418
41740W        W 5299   3.275  44.395  14.999
41741W        W 5300   4.851  15.272   1.820
41742W        W 5301   1.360   6.919   1.430
41743W        W 5302  36.588  21.147   2.867
41744W        W 5303  29.457  32.610  11.886
41745W        W 5304  33.626  37.458  12.917
41746W        W 5305  29.943  21.702   2.889
41747W        W 5306  32.126  22.177   4.232
41748W        W 5307  36.432  11.198   4.659
41749W        W 5308   9.227   8.165  13.836
41750W        W 5309   1.251  44.976   3.650
41751W        W 5310  32.022  20.613  14.015
41752W        W 5311   4.918  22.681   4.661
41753W        W 5312  28.516  14.146   4.775
41754W        W 5313  15.187  19.177   0.831
41755W        W 5314  39.810  26.164  14.022
41756W        W 5315  23.229   6.760   1.820
41757W        W 5316   9.816  40.376   3.377
41758W        W 5317  18.181  23.042   2.717
41759W        W 5318   8.818   5.411  13.412
41760W        W 5319  16.614  11.827  14.846
41761W        W 5320   7.808  29.530  13.348
41762W        W 5321  12.628  31.944  11.110
41763W        W 5322  37.571  14.676   4.202
41764W        W 5323  21.612  17.116  12.839
41765W        W 5324   4.919  31.997  11.376
41766W        W 5325  36.371  43.808  11.419
41767W        W 5326  42.482   0.317  11.058
41768W        W 5327  35.390  27.094   1.233
41769W        W 5328  39.439   8.381  12.453
41770W        W 5329  39.526  32.019   4.319
41771W        W 5330  30.531  23.604  10.974
41772W        W 5331  14.751   8.192   3.166
41773W        W 5332  39.380  32.472  10.426
41774W        W 5333  32.562  15.788   2.712
41775W        W 5334  19.685  26.037  14.777
41776W        W 5335  25.993   6.851   1.354
41777W        W 5336  25.986   7.743  11.986
41778W        W 5337  23.708  41.491   1.872
41779W        W 5338   0.260  42.309   2.711
41780W        W 5339  14.106  34.611   3.235
41781W        W 5340  25.186  14.775   0.813
41782W        W 5341  37.422  39.316  14.286
41783W        W 5342  20.168  20.708  13.317
41784W        W 5343  37.361   5.232   2.192
41785W        W 5344   9.798  42.991  11.956
41786W        W 5345   0.433  13.323   0.269
41787W        W 5346   9.794  35.102   4.279
41788W        W 5347   3.390  31.640   1.739
41789W        W 5348  44.332  21.525  10.923
41790W        W 5349   1.745   4.205  11.417
41791W        W 5350  31.038  29.070   1.863
41792W        W 5351  19.273  25.022   2.701
41793W        W 5352  44.778   3.341  13.402
41794W        W 5353   8.251  29.583   1.778
41795W        W 5354   6.263  40.370  14.471
41796W        W 5355  32.589   6.718   4.775
41797W        W 5356  42.780   4.869  12.898
41798W        W 5357  36.969  33.914   2.379
41799W        W 5358  18.702  25.698  11.996
41800W        W 5359  19.101  37.912   1.699
41801W        W 5360  39.861  13.205  11.432
41802W        W 5361   8.166   5.224   3.784
41803W        W 5362  26.590   7.361   4.124
41804W        W 5363  25.196   6.798  10.961
41805W        W 5364   4.359  39.035  13.401
41806W        W 5365  29.102   0.788   1.398
41807W        W 5366  27.975   3.935  11.100
41808W        W 5367  34.058  37.475   4.312
41809W        W 5368   9.753   1.780  11.487
41810W        W 5369  10.750  22.676  11.078
41811W        W 5370   4.437  10.211   2.840
41812W        W 5371   7.199  27.683   3.735
41813W        W 5372  22.525   6.215   4.257
41814W        W 5373  27.516  17.597  13.856
41815W        W 5374  32.451  13.702   3.374
41816W        W 5375  38.015  40.369   0.384
41817W        W 5376  32.099  34.957  11.394
41818W        W 5377  12.134  10.358  13.027
41819W        W 5378  41.483  43.275   0.912
41820W        W 5379   4.298   6.421  14.943
41821W        W 5380  40.828  16.639   0.423
41822W        W 5381  39.914   9.277   4.141
41823W        W 5382  15.585  13.715  14.793
41824W        W 5383  25.497  41.833  12.483
41825W        W 5384  25.220  42.286   2.317
41826W        W 5385  10.721  22.038   4.734
41827W        W 5386  10.302  32.636   3.860
41828W        W 5387  25.685  43.988   4.301
41829W        W 5388   2.265  29.670   2.355
41830W        W 5389  41.806   2.344   0.458
41831W        W 5390  13.724  34.510   2.403
41832W        W 5391  15.680   9.189   1.714
41833W        W 5392  42.512  12.153   1.718
41834W        W 5393   5.909  17.107   4.781
41835W        W 5394  41.003  22.110  13.837
41836W        W 5395  28.678  12.162   2.231
41837W        W 5396  18.585  29.047  11.038
41838W        W 5397  44.896  38.023   1.416
41839W        W 5398  35.937  44.924   4.618
41840W        W 5399  10.380  43.386  11.907
41841W        W 5400  33.560  16.277  14.970
41842W        W 5401  32.909  24.084  10.631
41843W        W 5402   4.722   5.824   2.803
41844W        W 5403  20.685  10.672  13.327
41845W        W 5404  29.107  35.598   3.793
41846W        W 5405  44.435  41.872   2.795
41847W        W 5406   4.800   3.254  12.394
41848W        W 5407  33.993  11.167   2.199
41849W        W 5408   2.259  36.935   3.373
41850W        W 5409   0.938   7.289  13.547
41851W        W 5410  23.174  16.186  14.508
41852W        W 5411  40.976  22.717   4.208
41853W        W 5412  11.783  10.705   3.368
41854W        W 5413   0.877   5.726  12.851
41855W        W 5414  37.046   5.729   4.177
41856W        W 5415   4.779   4.749  12.007
41857W        W 5416   7.857  25.488  13.803
41858W        W 5417  31.488  18.569  13.396
41859W        W 5418  26.952  40.388   2.694
41860W        W 5419  17.560   4.300  11.528
41861W        W 5420   6.278  23.653   2.376
41862W        W 5421  29.433  40.963   4.672
41863W        W 5422   5.769  28.548  14.887
41864W        W 5423  28.134  33.980  12.468
41865W        W 5424  19.161  28.464  14.831
41866W        W 5425  13.723  41.442  11.897
41867W        W 5426  29.496  23.065   2.737
41868W        W 5427   3.938  15.694   3.683
41869W        W 5428  34.875  24.218   2.772
41870W        W 5429  32.582  33.043  12.536
41871W        W 5430  17.658   9.843  13.021
41872W        W 5431  12.645   1.479   3.692
41873W        W 5432  44.802  38.856   3.285
41874W        W 5433   2.897  29.066   3.198
41875W        W 5434  27.107  24.019   4.828
41876W        W 5435   1.391  31.918   2.373
41877W        W 5436  11.860  43.826   0.933
41878W        W 5437  23.185  34.500   0.862
41879W        W 5438  41.442  39.025  11.923
41880W        W 5439  19.622  29.065   0.866
41881W        W 5440  34.429  27.676   1.408
41882W        W 5441   8.341  26.503  11.600
41883W        W 5442   3.226   3.461   1.421
41884W        W 5443  35.582  41.952  14.871
41885W        W 5444   6.782   9.772  12.878
41886W        W 5445  20.141  15.605  10.524
41887W        W 5446  31.119   5.253  11.401
41888W        W 5447  14.321  40.344   4.172
41889W        W 5448  42.318  27.499   0.813
41890W        W 5449  23.672   6.733   2.386
41891W        W 5450  24.063  32.058   5.234
41892W        W 5451  10.182  13.262   3.757
41893W        W 5452   1.251  24.657  12.477
41894W        W 5453   9.858  34.394   0.855
41895W        W 5454  31.552  32.904  14.456
41896W        W 5455  12.748  26.634   0.434
41897W        W 5456  12.835  12.223   4.248
41898W        W 5457  42.449  16.665  10.444
41899W        W 5458  28.671  39.386  11.476
41900W        W 5459  28.185  16.606  14.313
41901W        W 5460   3.218  30.907  14.937
41902W        W 5461   6.323  44.886  12.520
41903W        W 5462  23.721   6.728   2.900
41904W        W 5463  10.158  42.928  12.902
41905W        W 5464  14.180  34.602  13.497
41906W        W 5465  34.528   9.235  12.560
41907W        W 5466  11.646  10.810  14.917
41908W        W 5467  39.893  44.830   1.413
41909W        W 5468   2.727  16.750   4.789
41910W        W 5469  13.672   3.280   5.275
41911W        W 5470   1.745   3.801   3.147
41912W        W 5471  29.536  24.133  11.578
41913W        W 5472  34.055   3.895   4.643
41914W        W 5473   6.345   4.380  13.910
41915W        W 5474   9.245  15.210   1.291
41916W        W 5475  35.368  42.921  13.430
41917W        W 5476  24.186   9.677   1.891
41918W        W 5477   4.211  27.117  12.454
41919W        W 5478  22.548  18.757  13.877
41920W        W 5479  29.598  44.928   0.764
41921W        W 5480  16.274   7.848  12.069
41922W        W 5481  20.717  27.947   3.177
41923W        W 5482  22.577   6.265   3.771
41924W        W 5483  34.905  34.101  12.835
41925W        W 5484  38.459  25.161   1.910
41926W        W 5485  32.928  17.563  14.967
41927W        W 5486  41.791  42.505  13.854
41928W        W 5487  38.019  35.519   2.854
41929W        W 5488  17.290  38.843   0.420
41930W        W 5489  25.164  44.814   1.832
41931W        W 5490  30.978  12.820   0.816
41932W        W 5491  10.359  18.565   2.687
41933W        W 5492  21.694  42.925  10.635
41934W        W 5493  18.289  30.079   0.947
41935W        W 5494  33.487  43.965   3.764
41936W        W 5495   0.376  27.954   3.346
41937W        W 5496   7.693  36.389   1.830
41938W        W 5497  23.715  44.452   4.338
41939W        W 5498  26.616   4.263  14.890
41940W        W 5499  17.285   6.312   3.781
41941W        W 5500  26.560  21.105  11.924
41942W        W 5501  44.304   2.435   0.782
41943W        W 5502  43.786  33.059   4.228
41944W        W 5503  13.681  17.130  11.856
41945W        W 5504  33.511  11.684  11.953
41946W        W 5505   0.333  16.707   1.429
41947W        W 5506   3.388  40.484   0.367
41948W        W 5507  35.990  12.837  10.949
41949W        W 5508   5.851  32.580  12.951
41950W        W 5509  30.046  42.803  12.968
41951W        W 5510  26.699  21.262   3.707
41952W        W 5511  22.554  36.373   0.441
41953W        W 5512  43.480   9.775   4.600
41954W        W 5513  43.513  12.622   1.357
41955W        W 5514  24.574  29.647  11.869
41956W        W 5515  39.851   1.905  13.974
41957W        W 5516  40.856  33.449   0.816
41958W        W 5517   3.255  14.226  10.100
41959W        W 5518  23.618   5.753   3.157
41960W        W 5519  17.566  38.074  14.847
41961W        W 5520  24.099  40.899   1.915
41962W        W 5521  15.140  24.071   2.889
41963W        W 5522  14.741  29.496   3.156
41964W        W 5523  12.186  42.507   0.784
41965W        W 5524  25.505  29.042   1.918
41966W        W 5525  10.859  28.151  14.446
41967W        W 5526  28.478   3.826   1.743
41968W        W 5527  31.984  30.639  13.849
41969W        W 5528   8.373   5.876  12.883
41970W        W 5529  30.919   5.868  12.959
41971W        W 5530  20.601  21.077  12.396
41972W        W 5531  25.528  29.984   2.800
41973W        W 5532  23.593  22.030  10.427
41974W        W 5533  43.388  22.249   0.355
41975W        W 5534   1.277  28.567   3.736
41976W        W 5535  30.923  44.462  12.455
41977W        W 5536  37.546  32.553  14.897
41978W        W 5537  19.642  36.006   4.766
41979W        W 5538  30.032  14.154  12.961
41980W        W 5539  22.612  28.052   0.251
41981W        W 5540  31.996  27.679  12.531
41982W        W 5541  17.075   8.373  12.567
41983W        W 5542   2.366  11.692   2.879
41984W        W 5543  17.185  38.001  11.861
41985W        W 5544  40.315  25.594  11.892
41986W        W 5545  12.358   1.955  14.992
41987W        W 5546  12.750   7.738   1.701
41988W        W 5547  26.998  33.076  14.917
41989W        W 5548  25.525  25.541   1.733
41990W        W 5549   0.822  18.629  13.054
41991W        W 5550  41.421  19.073   0.900
41992W        W 5551  29.130   4.327  11.954
41993W        W 5552  22.660   4.334   1.445
41994W        W 5553  35.884  31.530   2.747
41995W        W 5554   9.201  18.738   1.344
41996W        W 5555  25.180  12.219   9.622
41997W        W 5556  11.623  14.623   2.289
41998W        W 5557   7.320  34.382  13.024
41999W        W 5558  38.007  31.016  13.912
42000W        W 5559  38.416  37.416  14.411
42001W        W 5560   0.481  32.509  10.896
42002W        W 5561   0.972   0.447   1.383
42003W        W 5562  44.823  20.105   1.871
42004W        W 5563   6.734  23.499  10.893
42005W        W 5564  14.624  10.370   5.210
42006W        W 5565   1.885  21.075  11.450
42007W        W 5566  31.425   7.224  10.419
42008W        W 5567  19.657  35.091  13.952
42009W        W 5568  25.574  18.711  11.538
42010W        W 5569  17.200  44.275   3.826
42011W        W 5570  21.133  36.356  12.838
42012W        W 5571  42.920  24.718   4.730
42013W        W 5572  13.798  43.277   1.284
42014W        W 5573  22.659  34.061  11.906
42015W        W 5574   4.821   2.246   4.753
42016W        W 5575  13.634  22.996   5.180
42017W        W 5576  17.706  15.578  10.571
42018W        W 5577  30.138   8.353   0.964
42019W        W 5578  18.251  17.216   3.730
42020W        W 5579  31.955  27.004   4.599
42021W        W 5580  44.376  30.098   0.806
42022W        W 5581  16.643  16.234  12.952
42023W        W 5582  11.157  35.896   5.128
42024W        W 5583  38.955  30.602  14.927
42025W        W 5584   9.185  31.953  14.509
42026W        W 5585  38.867  35.501   2.799
42027W        W 5586   7.739  19.254   0.915
42028W        W 5587   1.380  44.994   2.310
42029W        W 5588  14.673  14.738  13.508
42030W        W 5589  13.301  26.487   2.190
42031W        W 5590  17.655  21.752  14.370
42032W        W 5591  35.421   9.169   1.918
42033W        W 5592  38.991  10.747   1.235
42034W        W 5593  26.109  29.634   1.392
42035W        W 5594   0.275  43.885  10.568
42036W        W 5595  11.633  41.806  11.599
42037W        W 5596  18.114  31.516   3.666
42038W        W 5597  28.562   6.713  11.045
42039W        W 5598   0.272  18.270  13.416
42040W        W 5599  26.698   5.909  13.922
42041W        W 5600  25.155  30.075  11.007
42042W        W 5601  33.452   3.811   4.199
42043W        W 5602  21.232  32.471   5.138
42044W        W 5603  28.603  21.564   1.798
42045W        W 5604  44.358  40.485  14.373
42046W        W 5605  19.169  41.893  10.957
42047W        W 5606  33.451  38.528   2.345
42048W        W 5607   3.746   7.338  10.585
42049W        W 5608  12.616  34.958   3.821
42050W        W 5609  39.933  23.606  10.616
42051W        W 5610  39.316   5.207  12.379
42052W        W 5611  15.107  32.143   0.431
42053W        W 5612  44.347  44.902  11.888
42054W        W 5613  39.544   1.872   4.762
42055W        W 5614  43.952  38.371  14.279
42056W        W 5615  22.054  17.735   2.890
42057W        W 5616  18.771  35.055   0.398
42058W        W 5617  23.153   6.395   0.961
42059W        W 5618   8.768  34.478  11.070
42060W        W 5619  40.474  40.435   1.825
42061W        W 5620  11.680  40.860   0.918
42062W        W 5621  16.208  33.937   4.248
42063W        W 5622  34.965  37.001   2.231
42064W        W 5623   6.419   2.965   3.816
42065W        W 5624  40.371  40.460   1.296
42066W        W 5625  21.110  43.270   3.194
42067W        W 5626   4.230  32.977   2.214
42068W        W 5627  23.636  43.413  10.921
42069W        W 5628  44.467   8.173  14.427
42070W        W 5629  17.126  27.654  12.832
42071W        W 5630  33.559   1.917  11.531
42072W        W 5631  39.350  29.497   0.303
42073W        W 5632  40.051   6.863  13.910
42074W        W 5633  35.883   6.800   1.731
42075W        W 5634  36.512   3.382   3.314
42076W        W 5635  12.821  15.639   1.431
42077W        W 5636  28.589  33.417  11.494
42078W        W 5637  29.919  19.086  12.859
42079W        W 5638  37.874  24.009  14.772
42080W        W 5639  23.015   0.316  13.315
42081W        W 5640   5.927  26.204  11.582
42082W        W 5641  27.005  32.889  12.016
42083W        W 5642  17.730  17.699   4.185
42084W        W 5643  43.384  17.645  11.031
42085W        W 5644   4.719  23.605   2.245
42086W        W 5645  32.629  42.856  11.909
42087W        W 5646  18.723   6.334   5.300
42088W        W 5647   9.716  17.738  12.508
42089W        W 5648  20.745  33.589   0.905
42090W        W 5649  27.596   9.289   4.680
42091W        W 5650  25.199  38.377  12.829
42092W        W 5651  19.100  34.486  13.052
42093W        W 5652  23.499  12.640   0.388
42094W        W 5653  21.731  31.019  12.343
42095W        W 5654  34.912  44.417  11.986
42096W        W 5655  42.410  27.195  13.935
42097W        W 5656  30.623  33.580   2.691
42098W        W 5657  14.323  32.393   0.267
42099W        W 5658   4.362   4.776  13.995
42100W        W 5659  40.895   5.353   2.349
42101W        W 5660  24.083  37.555   3.805
42102W        W 5661  16.724   0.834   1.319
42103W        W 5662  11.783  30.458  14.924
42104W        W 5663  35.570  20.038   3.322
42105W        W 5664  31.427   9.292   5.628
42106W        W 5665   4.902  41.022   3.757
42107W        W 5666   1.435  23.998   1.855
42108W        W 5667   9.193   1.818   3.361
42109W        W 5668  23.077   0.835   3.210
42110W        W 5669  23.002  31.431  12.475
42111W        W 5670   5.427  36.457  12.830
42112W        W 5671  20.192  21.534  12.993
42113W        W 5672  22.615  43.403   0.311
42114W        W 5673  25.579  32.633   4.272
42115W        W 5674   9.384  36.070  12.390
42116W        W 5675  31.966   2.954   1.359
42117W        W 5676  36.962  21.598  13.938
42118W        W 5677  11.136  21.120   3.717
42119W        W 5678  36.472   9.246   3.810
42120W        W 5679  18.131  37.000   0.309
42121W        W 5680  21.617  23.155  11.118
42122W        W 5681  23.655  33.051  14.279
42123W        W 5682   7.841   9.261   3.780
42124W        W 5683  35.933  43.282  10.489
42125W        W 5684   7.700  15.121   1.730
42126W        W 5685  39.830  17.731  12.343
42127W        W 5686   1.369  31.405  13.917
42128W        W 5687  38.955   8.667  10.014
42129W        W 5688  15.291  19.645  13.862
42130W        W 5689  20.750   6.857   4.318
42131W        W 5690  29.638  10.772   2.327
42132W        W 5691  21.754  21.079  11.451
42133W        W 5692   5.808  33.056   0.892
42134W        W 5693  10.358  31.092   1.864
42135W        W 5694   1.345  13.833   4.150
42136W        W 5695  27.126  25.641   4.113
42137W        W 5696  14.129   2.801  13.792
42138W        W 5697   5.694   7.815  13.934
42139W        W 5698  40.009   0.325  11.591
42140W        W 5699  13.185  14.236  11.439
42141W        W 5700  29.526  37.387   4.158
42142W        W 5701  32.990  12.843   2.701
42143W        W 5702  15.580   0.901  11.467
42144W        W 5703  40.897   3.745  14.892
42145W        W 5704   7.832  22.216  12.996
42146W        W 5705  17.084  31.111  11.031
42147W        W 5706  38.427  24.635  14.814
42148W        W 5707  32.958  36.092   4.310
42149W        W 5708   0.771  19.266   4.278
42150W        W 5709   2.373  37.035   4.833
42151W        W 5710  29.615  40.959   0.875
42152W        W 5711   5.905   9.694   2.235
42153W        W 5712  13.184  40.321  14.394
42154W        W 5713  37.481  36.541   4.697
42155W        W 5714  15.621  40.955  14.865
42156W        W 5715  24.087  16.703   2.895
42157W        W 5716  26.963   9.675   9.936
42158W        W 5717  32.113  25.215  11.907
42159W        W 5718  32.566  12.125   2.732
42160W        W 5719  10.289  15.169   1.911
42161W        W 5720  38.479  12.841  11.883
42162W        W 5721  24.605  15.158  12.078
42163W        W 5722  14.796  10.825  14.507
42164W        W 5723  10.814  19.569  12.566
42165W        W 5724   2.955  31.986  10.617
42166W        W 5725   7.722  42.426  14.813
42167W        W 5726  43.992  30.550   3.370
42168W        W 5727  13.662  11.797   2.732
42169W        W 5728  13.636   3.715  14.941
42170W        W 5729  25.692   5.279  11.427
42171W        W 5730   4.326  42.343  11.404
42172W        W 5731  25.473  14.150  11.497
42173W        W 5732  27.955  23.173  12.063
42174W        W 5733  31.086  40.516   3.690
42175W        W 5734  26.158  39.980  10.579
42176W        W 5735  21.655  20.530   4.221
42177W        W 5736  36.981  32.572  13.536
42178W        W 5737  22.550  22.243  10.568
42179W        W 5738  36.529  40.473   3.189
42180W        W 5739  11.327  19.055   1.297
42181W        W 5740   4.857  29.605   3.237
42182W        W 5741   0.793   0.432  13.928
42183W        W 5742  17.765  40.034  14.457
42184W        W 5743  26.015   0.310   0.248
42185W        W 5744  36.490   5.879   0.834
42186W        W 5745   8.680  16.727  14.805
42187W        W 5746  43.870   5.416  12.388
42188W        W 5747  24.980  35.863   1.731
42189W        W 5748  35.599  21.224   0.381
42190W        W 5749   6.788  31.577   2.662
42191W        W 5750  10.841  39.544   4.693
42192W        W 5751  34.516  16.791   0.395
42193W        W 5752   9.731  29.927  12.845
42194W        W 5753  35.562   1.332   3.224
42195W        W 5754  14.094  20.643   0.965
42196W        W 5755   2.907   6.884   3.641
42197W        W 5756  37.039  24.068   2.330
42198W        W 5757  21.728  17.219  12.351
42199W        W 5758  24.692  38.045  12.551
42200W        W 5759  25.125  23.036   4.321
42201W        W 5760  22.022  24.655   1.395
42202W        W 5761  42.928  30.011   4.632
42203W        W 5762  40.885  31.940   3.683
42204W        W 5763  15.287   7.412   2.300
42205W        W 5764  21.606   9.797   1.842
42206W        W 5765  20.653  11.326  14.999
42207W        W 5766  27.142  10.755   0.474
42208W        W 5767  33.071  11.765   1.375
42209W        W 5768  24.713  42.492   2.419
42210W        W 5769  44.490  18.250   1.930
42211W        W 5770  15.754  33.528   1.857
42212W        W 5771   8.724  32.626  13.033
42213W        W 5772  33.380  28.667  10.912
42214W        W 5773  22.212   5.409  10.551
42215W        W 5774  41.293  37.465  14.923
42216W        W 5775  25.142  41.835  13.909
42217W        W 5776  17.183  44.001   2.765
42218W        W 5777  27.186  25.536   4.661
42219W        W 5778   5.228  34.955   2.283
42220W        W 5779   5.275  22.211  12.826
42221W        W 5780  10.715  19.074   1.880
42222W        W 5781   8.211   7.667   4.723
42223W        W 5782  28.522  43.855  14.928
42224W        W 5783   9.222  17.121   3.180
42225W        W 5784  31.571  44.767  11.001
42226W        W 5785  10.165   3.250   1.801
42227W        W 5786  27.135  10.269  11.928
42228W        W 5787  23.148  18.168  11.541
42229W        W 5788  29.087  28.554  11.973
42230W        W 5789  38.877  19.758   3.781
42231W        W 5790  43.440   4.868  13.333
42232W        W 5791  35.085  19.235   3.770
42233W        W 5792   8.826  30.570   2.344
42234W        W 5793  29.951  36.076  13.411
42235W        W 5794   7.234  28.972   4.184
42236W        W 5795  25.711  41.384   9.985
42237W        W 5796  31.537  40.337   1.900
42238W        W 5797   8.176   1.882  11.875
42239W        W 5798  33.061   5.266  12.860
42240W        W 5799   4.742  32.565   0.860
42241W        W 5800  32.398  26.009   0.362
42242W        W 5801  40.878  30.590  14.880
42243W        W 5802  40.512  39.391   4.637
42244W        W 5803   6.232  10.276   0.829
42245W        W 5804  35.862  26.618   3.851
42246W        W 5805   5.196   2.791  14.852
42247W        W 5806  25.661  35.072   3.724
42248W        W 5807  34.121  29.495   1.403
42249W        W 5808  28.117   3.313   0.894
42250W        W 5809   1.287   0.456   0.963
42251W        W 5810  16.268  33.541  14.902
42252W        W 5811  34.080  44.798   4.309
42253W        W 5812  43.960  32.007  12.470
42254W        W 5813  33.987  10.808   2.393
42255W        W 5814  21.741   0.793   4.288
42256W        W 5815  18.094  25.508   0.805
42257W        W 5816   6.883  10.741   2.333
42258W        W 5817   9.288  34.875   0.294
42259W        W 5818  34.398   7.703  11.534
42260W        W 5819  18.557  24.202   4.217
42261W        W 5820  21.114  34.615   3.203
42262W        W 5821   4.440  15.131  14.412
42263W        W 5822   7.240  35.854  10.902
42264W        W 5823  29.502  41.866  10.910
42265W        W 5824  37.967   9.720  14.413
42266W        W 5825  19.070  31.012   2.279
42267W        W 5826  41.342  15.656   0.300
42268W        W 5827  22.207   0.983   0.806
42269W        W 5828  35.009   7.697   0.730
42270W        W 5829  44.449   0.871   0.841
42271W        W 5830  21.554  14.680   3.696
42272W        W 5831  14.786  41.956  13.364
42273W        W 5832  19.628  25.989   1.892
42274W        W 5833  33.929  37.047  12.469
42275W        W 5834  27.974  21.599   4.258
42276W        W 5835   9.307  40.334  13.978
42277W        W 5836  28.142  41.312  10.129
42278W        W 5837   6.882  44.502  12.527
42279W        W 5838   2.337  37.915  11.015
42280W        W 5839   2.424  42.905  12.060
42281W        W 5840  18.612  41.828   4.827
42282W        W 5841  25.963  22.679   2.899
42283W        W 5842  40.884   1.873  11.021
42284W        W 5843  41.366  37.469  13.315
42285W        W 5844  13.836  23.113   1.395
42286W        W 5845  32.463  13.123  12.012
42287W        W 5846  32.491   6.300   1.911
42288W        W 5847  27.497  11.263  10.911
42289W        W 5848  36.094  10.305   9.997
42290W        W 5849  26.634  20.596  11.909
42291W        W 5850  17.292  44.380  10.635
42292W        W 5851  44.292  37.431  14.342
42293W        W 5852  26.543   7.270   0.731
42294W        W 5853  24.139  18.671  11.423
42295W        W 5854  22.046  17.630   2.241
42296W        W 5855   8.840  37.070   2.722
42297W        W 5856  26.964  40.411   3.718
42298W        W 5857   0.475  43.769   0.740
42299W        W 5858  26.996  39.367   1.830
42300W        W 5859   9.155  34.560   4.685
42301W        W 5860   1.779   3.899   1.251
42302W        W 5861   9.732  26.553  11.460
42303W        W 5862  17.162  12.766   0.384
42304W        W 5863   1.454   2.244  14.950
42305W        W 5864  37.481  19.740   3.270
42306W        W 5865  25.610   4.720  13.026
42307W        W 5866  19.732  10.249   1.436
42308W        W 5867  30.598  26.525  14.515
42309W        W 5868   3.265  37.480  12.452
42310W        W 5869  23.101  21.081  13.392
42311W        W 5870   4.220  24.506   2.758
42312W        W 5871  13.739  26.959  12.503
42313W        W 5872  38.551  38.435   0.770
42314W        W 5873  12.165  34.510   2.829
42315W        W 5874  35.043  22.547   0.784
42316W        W 5875  42.445  35.892  14.911
42317W        W 5876   2.816  27.557  14.337
42318W        W 5877   0.427  38.338   3.703
42319W        W 5878  22.599  44.483  11.593
42320W        W 5879  14.797  43.903  13.984
42321W        W 5880  12.809  15.104  10.972
42322W        W 5881  13.334   1.427   4.735
42323W        W 5882  34.866  28.609  14.444
42324W        W 5883  42.286   0.282   3.849
42325W        W 5884  26.126  18.662  13.517
42326W        W 5885  27.646  44.336   0.470
42327W        W 5886   6.775   4.820  13.446
42328W        W 5887   9.176  33.081  10.082
42329W        W 5888  43.879  44.915   0.918
42330W        W 5889  13.174  44.396   9.990
42331W        W 5890  42.796  21.673  11.957
42332W        W 5891  27.581  13.156  12.985
42333W        W 5892  40.532  22.046  11.523
42334W        W 5893  33.588  30.425  10.610
42335W        W 5894  30.632   7.710  10.521
42336W        W 5895  13.690  28.474  14.925
42337W        W 5896  18.067  20.215  14.454
42338W        W 5897  35.951  15.714   0.345
42339W        W 5898  13.802   8.677  10.535
42340W        W 5899  29.470  25.582   3.169
42341W        W 5900  19.585   0.934  12.055
42342W        W 5901  28.616  34.601  10.512
42343W        W 5902  41.915   4.393   0.805
42344W        W 5903   7.290  16.785  10.902
42345W        W 5904  20.150  40.305  12.352
42346W        W 5905   3.236   3.373   3.242
42347W        W 5906  26.565  28.940   3.319
42348W        W 5907  25.068  41.348   0.440
42349W        W 5908   3.809  31.471   1.764
42350W        W 5909  35.105  37.935  10.406
42351W        W 5910   0.854   6.759  12.832
42352W        W 5911   3.866  32.041   3.717
42353W        W 5912  41.991  44.948   3.721
42354W        W 5913  37.549  32.467  12.078
42355W        W 5914  16.729  18.147   4.254
42356W        W 5915  13.704  35.496   0.900
42357W        W 5916  23.666  41.538  10.484
42358W        W 5917  25.608  15.596  13.800
42359W        W 5918  34.942  22.704   5.103
42360W        W 5919   4.703  43.985   2.738
42361W        W 5920  27.047   3.457  11.613
42362W        W 5921  21.156  15.259   0.756
42363W        W 5922  19.700   4.247   4.291
42364W        W 5923  22.640   4.306   0.737
42365W        W 5924  28.128   1.973  12.022
42366W        W 5925   3.740  17.122   2.240
42367W        W 5926  23.196  19.704  13.981
42368W        W 5927  16.788  10.850   4.230
42369W        W 5928  22.065  15.167   4.743
42370W        W 5929   7.869  24.978  13.978
42371W        W 5930  34.521  12.162   3.705
42372W        W 5931  28.610  17.194  11.571
42373W        W 5932  36.846  17.078   4.261
42374W        W 5933  40.881   1.479   2.672
42375W        W 5934   3.909  17.747   4.710
42376W        W 5935  26.006  28.032  11.376
42377W        W 5936   4.248  25.698  14.325
42378W        W 5937  12.126   5.841  12.381
42379W        W 5938   5.321   2.967  12.053
42380W        W 5939   3.379  24.166   4.736
42381W        W 5940  27.468  39.373  13.981
42382W        W 5941  44.423  39.052   0.413
42383W        W 5942  33.914  23.038  14.840
42384W        W 5943  29.086   8.277  11.059
42385W        W 5944   9.861  38.881  11.983
42386W        W 5945  10.692  15.322   4.606
42387W        W 5946  11.280  43.883  13.483
42388W        W 5947   9.192  21.253   3.830
42389W        W 5948  29.451  33.386   5.302
42390W        W 5949  36.009   5.696  12.880
42391W        W 5950  20.689  39.950   3.364
42392W        W 5951  34.914   2.328  13.540
42393W        W 5952  12.350  24.650  13.832
42394W        W 5953  32.470  42.965   4.821
42395W        W 5954  13.205  34.439   2.310
42396W        W 5955  27.071   4.761  12.536
42397W        W 5956   8.655   0.853  14.780
42398W        W 5957  24.212  10.239   1.318
42399W        W 5958  29.594   9.656  12.095
42400W        W 5959  19.153  31.569  11.071
42401W        W 5960  44.434  42.934  11.094
42402W        W 5961  14.617   6.315  14.990
42403W        W 5962  26.700  26.023  13.328
42404W        W 5963   7.269  11.298  13.513
42405W        W 5964   0.391  17.725   4.706
42406W        W 5965  25.660  36.380   4.678
42407W        W 5966  39.883  27.548   3.168
42408W        W 5967  31.975  26.179  12.879
42409W        W 5968  11.785  29.085  13.442
42410W        W 5969  10.377   7.296  10.477
42411W        W 5970   9.281  20.089   4.191
42412W        W 5971  13.673  37.533   3.286
42413W        W 5972   1.878  19.762  12.493
42414W        W 5973  25.022  12.771  14.838
42415W        W 5974   3.400  11.792  12.854
42416W        W 5975   5.434  13.625  14.302
42417W        W 5976   0.295   2.390  14.475
42418W        W 5977   6.715  29.962  11.060
42419W        W 5978   5.825  26.100  11.092
42420W        W 5979  10.764   5.244   2.349
42421W        W 5980   2.288  32.028  12.540
42422W        W 5981   3.760   3.865   0.377
42423W        W 5982  40.344  33.613  13.901
42424W        W 5983  36.456  37.847  11.567
42425W        W 5984  23.641  13.825  11.071
42426W        W 5985  23.722  23.170  11.375
42427W        W 5986   9.203  33.903   2.790
42428W        W 5987  20.734  38.496  13.892
42429W        W 5988   1.422   1.957   4.722
42430W        W 5989  10.789   3.824  10.641
42431W        W 5990  31.449  25.207  13.796
42432W        W 5991  17.158  11.647  11.069
42433W        W 5992  26.498  28.044  11.398
42434W        W 5993  26.625  19.088   2.735
42435W        W 5994  20.191  11.141   2.316
42436W        W 5995  26.484   1.374   3.693
42437W        W 5996  38.021   7.349   1.285
42438W        W 5997  30.150  25.079   3.277
42439W        W 5998   9.256  39.508   2.271
42440W        W 5999  44.989  32.435  12.907
42441W        W 6000  21.646   0.350   4.244
42442W        W 6001  37.897  26.467  13.433
42443W        W 6002  32.513   4.721   4.753
42444W        W 6003   5.794   4.871  10.533
42445W        W 6004  39.989  10.798   0.277
42446W        W 6005  31.413   8.397   2.266
42447W        W 6006  39.467  27.963  13.834
42448W        W 6007   6.754  44.983  10.410
42449W        W 6008  38.392  34.996  12.513
42450W        W 6009   7.210  25.477   0.839
42451W        W 6010  13.728  12.638   2.886
42452W        W 6011   3.834  16.785  11.552
42453W        W 6012  25.983  39.056  12.985
42454W        W 6013  30.546  39.839  14.498
42455W        W 6014  29.572  17.154  13.933
42456W        W 6015  17.165  35.467   2.791
42457W        W 6016  34.514  20.729   2.338
42458W        W 6017  44.465  10.362   3.653
42459W        W 6018  29.076  21.088   3.726
42460W        W 6019   9.746   3.727   4.694
42461W        W 6020   6.893  24.712   0.420
42462W        W 6021  15.170  24.218   2.268
42463W        W 6022  19.083  28.580   3.312
42464W        W 6023  22.034   7.669   0.940
42465W        W 6024  42.523  24.174  13.924
42466W        W 6025  16.804  33.421  11.997
42467W        W 6026  23.207  32.078  10.074
42468W        W 6027  29.029   8.891  13.006
42469W        W 6028  41.002   2.448  11.431
42470W        W 6029  26.092  23.238  13.007
42471W        W 6030   3.313  30.092  12.916
42472W        W 6031   1.863  20.735  14.374
42473W        W 6032  43.411  23.665   1.743
42474W        W 6033  36.504  44.993   2.684
42475W        W 6034  28.979  34.932  11.899
42476W        W 6035   3.806   8.196   3.666
42477W        W 6036  34.978  30.414   0.800
42478W        W 6037  38.449  39.424  12.077
42479W        W 6038  13.326  15.281  14.842
42480W        W 6039  22.712   0.395   1.875
42481W        W 6040  38.943  32.479  14.013
42482W        W 6041  19.096  19.239  14.492
42483W        W 6042   0.290  43.491  12.916
42484W        W 6043  32.435  31.412  11.578
42485W        W 6044  22.118  21.579   4.607
42486W        W 6045   7.357   9.341  12.970
42487W        W 6046  34.966   7.867  14.916
42488W        W 6047  30.545   8.174  10.936
42489W        W 6048  23.560   5.365   4.188
42490W        W 6049   2.746   1.442   3.810
42491W        W 6050  41.405   0.962  10.938
42492W        W 6051  29.448   6.370   3.677
42493W        W 6052  41.819  12.209   1.214
42494W        W 6053  22.597  37.867  11.527
42495W        W 6054  14.687  31.589  12.363
42496W        W 6055   8.255  34.032   4.802
42497W        W 6056  19.250  19.229  10.957
42498W        W 6057  15.210   5.932  10.570
42499W        W 6058  43.347  19.547  11.071
42500W        W 6059  37.494  15.133   1.226
42501W        W 6060   1.326   7.776   4.254
42502W        W 6061  41.487  25.988   1.383
42503W        W 6062   6.325   2.384  11.584
42504W        W 6063   8.710  12.738  13.509
42505W        W 6064  31.019  34.881  14.472
42506W        W 6065   2.853  21.082  12.844
42507W        W 6066  29.577  33.487   2.216
42508W        W 6067  40.497  38.524  14.437
42509W        W 6068  20.578  11.741   1.907
42510W        W 6069  20.755  34.991  14.437
42511W        W 6070   6.742  29.130   2.727
42512W        W 6071   6.420  16.179   2.836
42513W        W 6072  22.203  16.287  13.804
42514W        W 6073  27.079  31.124   3.380
42515W        W 6074   8.223  20.169   2.317
42516W        W 6075   2.245  26.630   3.329
42517W        W 6076  22.115  16.121  11.405
42518W        W 6077  28.666  21.685  13.314
42519W        W 6078  29.432   2.229   0.860
42520W        W 6079   6.303  13.132   4.317
42521W        W 6080   2.757  18.112   1.226
42522W        W 6081  41.925  27.187  13.793
42523W        W 6082  38.020  24.027   1.249
42524W        W 6083   5.868  11.791  13.798
42525W        W 6084  16.233   9.751   3.742
42526W        W 6085  30.606  34.966  10.485
42527W        W 6086  24.562  39.000  14.970
42528W        W 6087  39.830  13.207   0.754
42529W        W 6088  29.460   8.372   2.814
42530W        W 6089  24.145   4.915   2.300
42531W        W 6090  22.102  15.824   0.425
42532W        W 6091   2.397  25.133  11.917
42533W        W 6092  40.398  12.240   3.265
42534W        W 6093  31.508  23.716   4.338
42535W        W 6094  26.647  17.598   0.949
42536W        W 6095  31.507   1.353  13.890
42537W        W 6096  13.815   9.871   4.818
42538W        W 6097  39.408  15.669   1.220
42539W        W 6098  42.866  21.743  12.904
42540W        W 6099  11.846  42.825  13.873
42541W        W 6100  17.154  34.507  11.471
42542W        W 6101  18.626   5.371  10.910
42543W        W 6102  36.541  14.635  13.859
42544W        W 6103   2.857   1.946   1.288
42545W        W 6104   8.378  43.938  13.541
42546W        W 6105  44.964  19.705   4.691
42547W        W 6106   4.942  22.188  10.450
42548W        W 6107  38.901  11.137  10.570
42549W        W 6108   1.762  28.009  12.936
42550W        W 6109  27.979  32.457   1.852
42551W        W 6110   2.424  10.649  14.770
42552W        W 6111  26.493  13.111  10.604
42553W        W 6112  31.088  24.211  14.908
42554W        W 6113   3.384  19.252   3.729
42555W        W 6114   0.909  25.546  13.020
42556W        W 6115  12.362   3.887   4.287
42557W        W 6116   5.418  23.194  11.477
42558W        W 6117  29.038   9.749   3.756
42559W        W 6118   4.312  24.655  12.484
42560W        W 6119  28.522  24.009   0.848
42561W        W 6120  12.802  24.500   3.311
42562W        W 6121  29.447   8.320  14.436
42563W        W 6122  24.686  19.717  12.469
42564W        W 6123  42.351   7.720  11.569
42565W        W 6124   7.875  31.109  10.640
42566W        W 6125  37.935  38.433  11.024
42567W        W 6126  16.680  30.536  14.023
42568W        W 6127  20.623  22.666  12.408
42569W        W 6128  29.919  10.360   3.779
42570W        W 6129   2.889  22.150   2.791
42571W        W 6130  13.745   8.845   3.242
42572W        W 6131  25.977  38.827  14.869
42573W        W 6132  21.587  24.209   3.252
42574W        W 6133  15.802  41.407  11.868
42575W        W 6134  10.262  12.121  14.439
42576W        W 6135  32.967  20.607  12.478
42577W        W 6136  41.009   7.867  13.827
42578W        W 6137  37.500  35.968   3.168
42579W        W 6138  34.982   8.172  12.380
42580W        W 6139  10.194  13.741  12.361
42581W        W 6140  28.030  39.406  11.398
42582W        W 6141  24.586  22.567  11.593
42583W        W 6142  23.520  28.083  11.996
42584W        W 6143  15.782  19.598   4.140
42585W        W 6144  30.449  15.810   2.331
42586W        W 6145  15.650   3.418   2.410
42587W        W 6146  15.266  19.599   3.209
42588W        W 6147  20.190  24.987   5.297
42589W        W 6148  32.929  27.988   1.930
42590W        W 6149  42.980  13.257   2.857
42591W        W 6150  20.646  39.437  14.865
42592W        W 6151  15.622  13.668   3.730
42593W        W 6152   1.821  25.002  10.610
42594W        W 6153  26.535   2.749  11.598
42595W        W 6154  34.991  23.161  14.281
42596W        W 6155  15.755  24.123  10.975
42597W        W 6156  10.828  41.830  12.579
42598W        W 6157  44.831  23.054   3.293
42599W        W 6158  35.598   3.847  14.500
42600W        W 6159  40.856   8.337  13.514
42601W        W 6160  28.481   5.282   1.350
42602W        W 6161  23.568   4.827   2.837
42603W        W 6162  41.874  35.509  14.443
42604W        W 6163  30.476  40.842   3.326
42605W        W 6164  34.416  14.153   4.783
42606W        W 6165  26.614  30.056  14.357
42607W        W 6166   2.309  34.080   4.793
42608W        W 6167  36.085  21.664   0.244
42609W        W 6168  41.400  43.390  12.071
42610W        W 6169  21.207  25.496  14.315
42611W        W 6170  39.975  21.708  11.422
42612W        W 6171  42.893  35.461  14.313
42613W        W 6172  30.146  14.668  11.585
42614W        W 6173   8.202  34.012  10.109
42615W        W 6174  12.241   4.705  11.907
42616W        W 6175   3.949  44.935  12.565
42617W        W 6176  13.299   5.890   0.441
42618W        W 6177  17.587  32.514   0.414
42619W        W 6178  38.073  28.630  11.860
42620W        W 6179  20.703   9.385   1.290
42621W        W 6180  25.218  30.453   2.817
42622W        W 6181   8.171  24.163  12.885
42623W        W 6182  41.026  13.599   2.276
42624W        W 6183  19.607  26.486  14.015
42625W        W 6184   3.455  38.016   3.253
42626W        W 6185   3.223   2.234   0.408
42627W        W 6186  16.802  42.806  12.927
42628W        W 6187  23.515  43.876   3.290
42629W        W 6188  11.234  23.506  10.980
42630W        W 6189   9.183   6.849   1.352
42631W        W 6190  33.545   0.338  11.522
42632W        W 6191  42.525  27.652  12.973
42633W        W 6192   4.283   4.779  14.396
42634W        W 6193  19.771  27.481   1.811
42635W        W 6194  34.109  10.377  13.358
42636W        W 6195  21.720   7.252  14.410
42637W        W 6196  22.553  30.486   0.748
42638W        W 6197  38.030   2.324  14.455
42639W        W 6198  21.620   0.973  13.322
42640W        W 6199  40.005  15.737  12.365
42641W        W 6200  40.362  42.890   3.327
42642W        W 6201   3.915  30.590   5.214
42643W        W 6202   3.389  26.107   2.364
42644W        W 6203  28.154  37.849   2.297
42645W        W 6204  24.577  44.496   0.898
42646W        W 6205  39.018  19.658  11.565
42647W        W 6206  29.559  39.033  14.829
42648W        W 6207  20.572  20.210   3.704
42649W        W 6208  18.779  40.797   4.624
42650W        W 6209   5.335  32.412  14.275
42651W        W 6210  12.663  13.192  13.511
42652W        W 6211  16.701   2.304   3.152
42653W        W 6212  43.443  17.176   2.395
42654W        W 6213  18.099  34.373   2.783
42655W        W 6214  25.970  28.081   2.882
42656W        W 6215   4.224  38.858  12.383
42657W        W 6216  13.607  44.899   2.394
42658W        W 6217   0.357  36.011   2.865
42659W        W 6218  19.582   4.840   1.900
42660W        W 6219  28.168  29.650  11.576
42661W        W 6220  26.050  26.122   1.358
42662W        W 6221   4.250  36.995  10.509
42663W        W 6222  30.514  23.700   0.253
42664W        W 6223   7.669  43.946   1.751
42665W        W 6224  11.172  13.599  13.977
42666W        W 6225   6.287  42.901   5.214
42667W        W 6226  23.209  29.142   1.236
42668W        W 6227  32.133   8.187  10.524
42669W        W 6228   5.382  28.615  13.375
42670W        W 6229  28.648  38.547   1.293
42671W        W 6230  23.721  23.235   1.329
42672W        W 6231   3.921  43.275   3.323
42673W        W 6232  11.355   1.796  11.395
42674W        W 6233  38.031  35.060  12.915
42675W        W 6234  20.695  29.461  13.388
42676W        W 6235   2.962  28.582   1.781
42677W        W 6236   7.890  12.182   0.288
42678W        W 6237  11.181  35.407  14.404
42679W        W 6238  38.387  17.218   1.860
42680W        W 6239   1.841  39.900  11.873
42681W        W 6240  42.962   2.854  13.961
42682W        W 6241  28.097  13.791   1.876
42683W        W 6242  16.644  33.418  12.846
42684W        W 6243  34.063   5.856   0.460
42685W        W 6244   3.272  33.937   2.754
42686W        W 6245   0.886  42.962  10.068
42687W        W 6246  40.036  20.601  12.841
42688W        W 6247  28.511  12.693  12.561
42689W        W 6248  10.801  16.203   3.746
42690W        W 6249  33.618  41.042   0.873
42691W        W 6250  44.335  27.154   0.424
42692W        W 6251  42.308  20.620   3.696
42693W        W 6252  20.152  19.255  14.897
42694W        W 6253  30.498  29.455  10.536
42695W        W 6254   3.245   4.785  14.308
42696W        W 6255  13.727  24.574   3.789
42697W        W 6256  34.406  39.970   0.266
42698W        W 6257  43.455   6.764  10.506
42699W        W 6258  25.047  16.685   1.790
42700W        W 6259   5.394  15.772   4.153
42701W        W 6260  29.927  13.791  13.540
42702W        W 6261   9.343  19.623  10.495
42703W        W 6262   5.815   7.680   0.361
42704W        W 6263  29.967   2.834   4.262
42705W        W 6264  36.355   1.340  12.389
42706W        W 6265  10.253  30.581  13.853
42707W        W 6266  44.814  41.366  13.440
42708W        W 6267  38.527  33.458   1.445
42709W        W 6268   9.876  32.551   0.858
42710W        W 6269   7.733  41.347  12.558
42711W        W 6270  16.759   9.766   2.327
42712W        W 6271  10.806  22.041  11.905
42713W        W 6272  42.951  44.390  14.476
42714W        W 6273   9.151  37.360   2.206
42715W        W 6274  30.001  36.506   3.178
42716W        W 6275  22.210  30.505  12.448
42717W        W 6276  43.820   3.358  13.345
42718W        W 6277  30.164  10.785   4.644
42719W        W 6278  17.240  29.993  10.988
42720W        W 6279  40.528   3.344  14.336
42721W        W 6280  41.995  18.784   0.467
42722W        W 6281  26.460  41.344  14.008
42723W        W 6282  13.607  10.763   3.358
42724W        W 6283  16.699  21.186  13.462
42725W        W 6284  31.089  27.152  14.953
42726W        W 6285  26.163   9.765  13.002
42727W        W 6286   5.847  11.826   2.719
42728W        W 6287  19.673   3.940   4.710
42729W        W 6288  33.391  26.687   1.836
42730W        W 6289  22.238  11.693  10.911
42731W        W 6290   0.913  40.813  14.995
42732W        W 6291  43.363  10.188   0.386
42733W        W 6292  10.748  34.056   1.408
42734W        W 6293   1.308  14.627  11.564
42735W        W 6294  13.819   4.901   2.888
42736W        W 6295   4.278   0.890   4.226
42737W        W 6296  42.818  32.548  14.882
42738W        W 6297  38.911  10.795   0.478
42739W        W 6298   8.167   4.738   3.653
42740W        W 6299  10.271  26.555   4.771
42741W        W 6300  12.664  17.115   2.743
42742W        W 6301  31.950  26.004   2.772
42743W        W 6302  14.796  26.157   4.791
42744W        W 6303   8.175  11.737   2.228
42745W        W 6304  22.127  28.621   3.376
42746W        W 6305  13.706   2.341   3.781
42747W        W 6306  32.496  42.804   2.419
42748W        W 6307   2.774  35.524  13.455
42749W        W 6308  36.580  31.596   4.310
42750W        W 6309  36.558   0.483   0.403
42751W        W 6310  10.246   2.372  13.393
42752W        W 6311  24.699   4.360   2.352
42753W        W 6312   4.389   1.962   0.245
42754W        W 6313  32.035   7.368  11.007
42755W        W 6314  38.002  26.060   1.411
42756W        W 6315  42.415  27.165  11.876
42757W        W 6316  38.538   0.963  11.001
42758W        W 6317  10.300  12.611   0.953
42759W        W 6318  15.648  17.294   5.182
42760W        W 6319  30.595  13.140  13.961
42761W        W 6320  31.969  24.632   3.845
42762W        W 6321  33.012  32.444  14.466
42763W        W 6322  12.133   9.390  11.494
42764W        W 6323  17.149  35.531   4.126
42765W        W 6324  44.776  37.857   1.931
42766W        W 6325  26.623   1.922  11.600
42767W        W 6326  30.071  42.973  10.595
42768W        W 6327  34.878  41.468   0.867
42769W        W 6328   3.386  27.490   1.295
42770W        W 6329  43.891  40.379   1.299
42771W        W 6330   8.728  28.533   3.168
42772W        W 6331  27.671   9.670   2.767
42773W        W 6332  19.739   5.737   2.882
42774W        W 6333  11.217  36.448  11.420
42775W        W 6334  43.307  31.066   4.658
42776W        W 6335  13.138  33.431  12.578
42777W        W 6336  41.361   6.235   3.800
42778W        W 6337  23.605  17.198  13.044
42779W        W 6338  24.609  23.042   1.398
42780W        W 6339   6.423  11.337   0.775
42781W        W 6340  18.766   4.891   5.173
42782W        W 6341  11.848  18.750   9.924
42783W        W 6342  37.858  34.514  13.852
42784W        W 6343  31.555  42.506  14.808
42785W        W 6344  23.188  36.424   3.376
42786W        W 6345  37.962  31.135  11.091
42787W        W 6346  37.036  15.675   1.224
42788W        W 6347  25.982   2.420   4.665
42789W        W 6348  32.486  12.804   4.813
42790W        W 6349   7.674  34.555  10.477
42791W        W 6350   0.472  30.534   0.805
42792W        W 6351  29.659  39.826   3.686
42793W        W 6352   8.333  33.074   2.283
42794W        W 6353  15.725  18.684   3.682
42795W        W 6354  21.588  11.710   3.375
42796W        W 6355  31.961  41.901  12.064
42797W        W 6356  11.753   1.735   2.356
42798W        W 6357  25.603  12.205  10.912
42799W        W 6358  19.551   9.796   2.771
42800W        W 6359  13.718  23.586  10.016
42801W        W 6360  34.501   4.298  11.095
42802W        W 6361  44.807  36.914  14.816
42803W        W 6362  43.514  10.364  14.375
42804W        W 6363  21.103  14.693   2.405
42805W        W 6364  38.853  25.001   3.685
42806W        W 6365  19.574   1.443  14.999
42807W        W 6366  16.800  42.519  11.085
42808W        W 6367  10.222   4.221   3.162
42809W        W 6368  10.161  33.563  12.435
42810W        W 6369   7.219  13.307  14.918
42811W        W 6370  24.596  36.504   3.229
42812W        W 6371  38.922  36.540  11.099
42813W        W 6372  13.171  17.249   4.325
42814W        W 6373  29.542  36.004  14.354
42815W        W 6374  33.993  23.073   0.880
42816W        W 6375  37.557  44.877  12.466
42817W        W 6376  38.935  38.989  12.036
42818W        W 6377   2.808   9.357  13.333
42819W        W 6378  14.762   8.383   1.366
42820W        W 6379  41.384  13.637  13.482
42821W        W 6380  25.626  35.573  10.497
42822W        W 6381  12.696  35.954   4.664
42823W        W 6382  19.641  31.955  10.432
42824W        W 6383  34.500  33.909   2.271
42825W        W 6384  32.055  15.638   2.663
42826W        W 6385  44.317  36.494   0.961
42827W        W 6386  20.579  13.278   3.213
42828W        W 6387  36.948  14.335  13.015
42829W        W 6388  29.965  29.061   2.844
42830W        W 6389   9.815  19.731  12.458
42831W        W 6390  36.349  29.492   0.326
42832W        W 6391  34.457   7.860   9.475
42833W        W 6392  34.981  33.944  11.879
42834W        W 6393   6.820  27.149  13.980
42835W        W 6394  38.357  19.702   2.728
42836W        W 6395  35.423  41.926  13.910
42837W        W 6396  15.101  18.246  10.562
42838W        W 6397   2.793   2.802  11.507
42839W        W 6398  17.268  19.638  13.342
42840W        W 6399  32.920   7.866   1.886
42841W        W 6400  41.913  35.862  12.388
42842W        W 6401  15.090  33.895   0.897
42843W        W 6402   2.794  21.691   0.388
42844W        W 6403  20.617  17.234  14.300
42845W        W 6404  30.948   7.724  12.074
42846W        W 6405  36.963  10.743   1.421
42847W        W 6406   4.888  29.640  11.546
42848W        W 6407  35.457  15.306  14.934
42849W        W 6408  22.693  22.110  13.887
42850W        W 6409  11.724  12.266   1.737
42851W        W 6410  42.459  41.448   2.327
42852W        W 6411  43.906  17.156   1.834
42853W        W 6412   2.291  42.843  12.960
42854W        W 6413  17.798   6.865  10.895
42855W        W 6414  43.981  22.505   1.767
42856W        W 6415   3.369   3.868  13.850
42857W        W 6416  21.107  16.709   4.610
42858W        W 6417  16.238  22.538   2.823
42859W        W 6418  12.178  14.172  10.467
42860W        W 6419   1.942  11.704   2.671
42861W        W 6420  14.688  23.117   2.722
42862W        W 6421  14.814  38.896   0.346
42863W        W 6422  25.689  43.402  12.054
42864W        W 6423  26.120  25.609  12.343
42865W        W 6424   3.215  44.004   2.418
42866W        W 6425  41.814   1.365  10.632
42867W        W 6426  17.069  16.573  14.909
42868W        W 6427  39.505  39.399  14.854
42869W        W 6428  20.702  19.116  11.070
42870W        W 6429  41.845  41.337   0.805
42871W        W 6430  31.460  37.892  10.607
42872W        W 6431  17.735   6.792  14.318
42873W        W 6432   3.929  34.025  10.576
42874W        W 6433  27.175  22.037  14.827
42875W        W 6434  17.784  23.235  13.823
42876W        W 6435  14.146  26.617   3.861
42877W        W 6436  16.714  21.695  11.941
42878W        W 6437  25.041  19.536   4.274
42879W        W 6438  38.498   1.751  14.967
42880W        W 6439  27.013  29.037   5.106
42881W        W 6440  20.661  27.107  12.549
42882W        W 6441  14.318   5.859   4.308
42883W        W 6442  27.599  18.141  11.012
42884W        W 6443  15.751  25.025  11.034
42885W        W 6444  23.109  25.546   0.286
42886W        W 6445  20.760  15.266   1.887
42887W        W 6446   0.400  19.635   3.321
42888W        W 6447  29.943  30.534  14.315
42889W        W 6448  41.998  20.758   4.247
42890W        W 6449  34.594  32.140   3.304
42891W        W 6450  21.072  43.818  12.351
42892W        W 6451  41.798  28.970   4.619
42893W        W 6452  33.911   8.183  14.978
42894W        W 6453  33.563  37.516  14.312
42895W        W 6454  31.964  24.506   2.256
42896W        W 6455  34.058  40.875   5.184
42897W        W 6456  25.543  27.524   0.254
42898W        W 6457  13.600  19.727  14.003
42899W        W 6458  40.052   5.785  14.876
42900W        W 6459  28.022  26.646   3.783
42901W        W 6460  38.375   5.319   2.725
42902W        W 6461  17.730   3.939   1.802
42903W        W 6462   8.702  12.788   3.294
42904W        W 6463  28.480  15.251   4.684
42905W        W 6464   6.761  31.994   1.387
42906W        W 6465  21.691   5.392   1.447
42907W        W 6466  42.294   6.840   1.808
42908W        W 6467  22.645   3.807   2.325
42909W        W 6468  28.166   7.265   4.147
42910W        W 6469   7.809  44.316   5.270
42911W        W 6470  35.910  40.911  13.538
42912W        W 6471  30.529   3.755  14.945
42913W        W 6472  12.157   3.936  12.048
42914W        W 6473  22.710   0.471  14.792
42915W        W 6474  24.018  19.146  14.393
42916W        W 6475  19.095  36.367  12.019
42917W        W 6476  30.531  15.782   4.138
42918W        W 6477   9.671   6.382   2.348
42919W        W 6478   0.455  30.526  14.381
42920W        W 6479  32.566  16.597  11.372
42921W        W 6480   2.722  40.922  13.848
42922W        W 6481  41.530  44.284  13.819
42923W        W 6482  21.592  21.252  13.881
42924W        W 6483  12.132  36.970  12.510
42925W        W 6484  30.631  24.544   4.144
42926W        W 6485  20.262  12.315   2.256
42927W        W 6486  29.659  18.579   1.857
42928W        W 6487  21.192  30.142   4.629
42929W        W 6488  42.455   5.272  11.495
42930W        W 6489  43.834  30.994   0.949
42931W        W 6490   7.225  11.724   0.931
42932W        W 6491  39.371  35.866  14.448
42933W        W 6492  25.131  26.201  14.887
42934W        W 6493  17.595  38.959   4.613
42935W        W 6494  17.616  21.629  13.925
42936W        W 6495  43.808   7.282  11.006
42937W        W 6496  22.697   2.261  11.548
42938W        W 6497  30.078  19.564  14.481
42939W        W 6498   6.354   4.797   3.279
42940W        W 6499  31.944  37.551   4.784
42941W        W 6500  16.118   7.733   0.369
42942W        W 6501  13.351  27.609   4.598
42943W        W 6502  35.447  18.566   0.767
42944W        W 6503  40.800   5.780  12.895
42945W        W 6504   1.248  43.952   3.261
42946W        W 6505  36.985  27.576   3.766
42947W        W 6506   3.836  23.713   4.664
42948W        W 6507   0.910  43.936   1.351
42949W        W 6508  22.633   8.714  12.350
42950W        W 6509  15.612  22.069   0.459
42951W        W 6510  39.495  35.916   2.249
42952W        W 6511  11.857  34.023   0.352
42953W        W 6512  42.307  41.902   4.140
42954W        W 6513   1.410  27.552   1.213
42955W        W 6514  41.385  18.717   2.810
42956W        W 6515  33.488   1.889  14.981
42957W        W 6516  29.000  37.935  12.442
42958W        W 6517  19.229  19.551   1.926
42959W        W 6518  39.455   6.894  10.516
42960W        W 6519  32.408  39.833   3.864
42961W        W 6520  25.120  29.572  11.092
42962W        W 6521  38.438  21.154  12.409
42963W        W 6522  36.428   0.826  11.941
42964W        W 6523  30.935  34.879  10.616
42965W        W 6524  28.634  25.596   4.247
42966W        W 6525  18.690  34.863   3.201
42967W        W 6526  19.269  34.973   3.819
42968W        W 6527  38.499  21.017  14.930
42969W        W 6528  41.366  37.869  11.471
42970W        W 6529  27.658  15.698   0.894
42971W        W 6530  12.262  44.433   3.827
42972W        W 6531  29.458  29.641  10.968
42973W        W 6532  44.944   0.284  14.429
42974W        W 6533   1.479  28.154   4.346
42975W        W 6534  44.319  34.932  10.407
42976W        W 6535  11.276   4.213  10.981
42977W        W 6536  27.551  11.248   9.473
42978W        W 6537   5.774  28.531  10.993
42979W        W 6538   5.259  14.162   2.869
42980W        W 6539  21.040   1.888  10.891
42981W        W 6540  44.920   3.283   0.914
42982W        W 6541  13.794   2.371  10.430
42983W        W 6542   0.278  35.479   1.377
42984W        W 6543  44.987  42.357  11.078
42985W        W 6544  27.502  19.736  11.029
42986W        W 6545  32.028   0.322  10.028
42987W        W 6546  17.131  32.999   0.362
42988W        W 6547  14.151  22.107  10.443
42989W        W 6548  28.142  41.826   1.290
42990W        W 6549  17.772  17.083  14.481
42991W        W 6550  40.984  32.974   3.835
42992W        W 6551  39.957  17.649   3.370
42993W        W 6552   1.851  10.849  14.957
42994W        W 6553  37.525  23.102   0.758
42995W        W 6554  23.129  15.242  10.527
42996W        W 6555  28.133  31.448  13.800
42997W        W 6556   8.224  17.801  14.417
42998W        W 6557  40.488  21.075  10.146
42999W        W 6558   4.379  15.097   1.705
43000W        W 6559  10.188  30.452  11.468
43001W        W 6560  18.236  15.120  11.864
43002W        W 6561  44.325  43.494  13.029
43003W        W 6562  12.201  28.663   1.274
43004W        W 6563  43.767  25.170   3.783
43005W        W 6564  35.558   7.192   1.271
43006W        W 6565  36.423  31.067   4.186
43007W        W 6566  38.036  15.658   2.678
43008W        W 6567  25.070  31.007  11.048
43009W        W 6568   8.199  17.247  13.327
43010W        W 6569  44.004  35.981  13.469
43011W        W 6570  39.855   8.402  14.834
43012W        W 6571  27.188   0.742  12.377
43013W        W 6572  25.671  23.529   3.839
43014W        W 6573  24.522  41.309   4.294
43015W        W 6574  36.534   5.319  11.442
43016W        W 6575   8.762  43.968  11.540
43017W        W 6576  19.124  39.014  13.889
43018W        W 6577  15.271   1.852  13.547
43019W        W 6578  15.605   3.310   4.705
43020W        W 6579  19.087  35.458   4.615
43021W        W 6580  28.037  31.505   1.332
43022W        W 6581  33.977  16.255   2.901
43023W        W 6582   2.469  27.945   0.827
43024W        W 6583  35.924   8.777   0.299
43025W        W 6584  15.135  14.771   1.260
43026W        W 6585  24.206  14.160  14.956
43027W        W 6586  16.778   8.333  11.377
43028W        W 6587  19.198  43.381   3.258
43029W        W 6588   1.787  42.828   1.400
43030W        W 6589  40.834   6.302   1.291
43031W        W 6590  29.532  31.427   1.253
43032W        W 6591  36.412  10.853   2.831
43033W        W 6592  32.539  29.577  11.970
43034W        W 6593   8.718  26.021   4.266
43035W        W 6594  28.145  36.351  11.059
43036W        W 6595  31.481  43.020  14.483
43037W        W 6596  30.008   0.789   0.812
43038W        W 6597  29.156  21.554  12.934
43039W        W 6598  33.473  18.750   2.198
43040W        W 6599  39.318  16.189  14.296
43041W        W 6600  19.282  25.048   4.296
43042W        W 6601  33.562  28.524   0.393
43043W        W 6602   1.293  12.641   3.784
43044W        W 6603  40.950  15.770  14.763
43045W        W 6604   3.322  29.953   0.256
43046W        W 6605  34.486  35.547  13.383
43047W        W 6606   5.880  39.315   4.310
43048W        W 6607  25.552  16.262   3.357
43049W        W 6608   0.843  29.007  11.028
43050W        W 6609  19.762  31.408   2.840
43051W        W 6610  24.221  36.924  13.961
43052W        W 6611  32.467  32.037   2.188
43053W        W 6612  25.684  38.480   4.142
43054W        W 6613   1.880  28.486   2.798
43055W        W 6614  43.396  13.660   0.950
43056W        W 6615  31.062   2.814   2.315
43057W        W 6616   6.875  10.245  14.354
43058W        W 6617  32.957   0.308   3.385
43059W        W 6618  35.909   9.206  14.777
43060W        W 6619  13.651  10.171  13.411
43061W        W 6620  20.712  43.844  12.403
43062W        W 6621  10.158  10.174  11.908
43063W        W 6622  25.613  27.497   3.175
43064W        W 6623  19.260  27.548  10.101
43065W        W 6624  30.469  44.345  13.500
43066W        W 6625  22.244  23.706  13.884
43067W        W 6626  42.290  42.482   4.656
43068W        W 6627   5.699  42.030  13.037
43069W        W 6628  21.025   6.776   4.125
43070W        W 6629  37.924  41.983  12.826
43071W        W 6630  26.534  32.943   9.951
43072W        W 6631   7.404   7.867   3.786
43073W        W 6632  24.672  32.604  12.970
43074W        W 6633  40.303  11.139   3.850
43075W        W 6634  22.123  33.614  12.982
43076W        W 6635  21.555  44.321   2.706
43077W        W 6636  27.590   4.856   2.720
43078W        W 6637   3.403   4.711   3.751
43079W        W 6638   7.900  16.785  14.372
43080W        W 6639   8.277  22.558  13.894
43081W        W 6640  33.515  35.557  10.555
43082W        W 6641  35.449  31.979  12.367
43083W        W 6642  12.151  12.690  12.049
43084W        W 6643   7.907  13.636   0.263
43085W        W 6644   0.418   9.731  14.480
43086W        W 6645  11.277   4.289   0.352
43087W        W 6646   7.377   2.860   4.267
43088W        W 6647  10.262   9.876  10.645
43089W        W 6648  20.710  25.520  13.506
43090W        W 6649  41.813  29.112  12.488
43091W        W 6650  32.107  32.573   1.316
43092W        W 6651   5.747  25.999  12.393
43093W        W 6652   8.268  17.657   3.297
43094W        W 6653  20.228   3.272   4.318
43095W        W 6654  16.772  31.910   2.220
43096W        W 6655  28.019  20.262   2.376
43097W        W 6656   0.924  41.817  10.538
43098W        W 6657  10.286  44.420   5.217
43099W        W 6658   3.296   5.829   2.249
43100W        W 6659   7.738   3.246  10.140
43101W        W 6660   9.865   0.490   2.201
43102W        W 6661  22.047  41.824  14.778
43103W        W 6662  12.277  23.083   3.272
43104W        W 6663  16.187  25.468   0.270
43105W        W 6664  21.155   0.789  14.947
43106W        W 6665  24.042  21.112  13.983
43107W        W 6666  26.010  16.623   0.852
43108W        W 6667  42.004   9.853   1.403
43109W        W 6668   3.258  29.062   2.181
43110W        W 6669   9.345  27.670  14.996
43111W        W 6670   2.785  19.589  12.426
43112W        W 6671  11.190   5.433  14.786
43113W        W 6672  25.605  34.527   0.867
43114W        W 6673  28.452  23.550   3.853
43115W        W 6674  39.515   2.467   1.420
43116W        W 6675  40.529  27.575  12.439
43117W        W 6676  18.744  32.600  10.480
43118W        W 6677  35.586   9.185   0.966
43119W        W 6678  28.182   4.720   4.777
43120W        W 6679   9.821   3.217   3.356
43121W        W 6680  29.641   1.783  11.381
43122W        W 6681   2.348  27.676  12.498
43123W        W 6682   6.779  30.137  10.480
43124W        W 6683  34.429   9.889  14.361
43125W        W 6684  31.028  27.186   1.815
43126W        W 6685  24.621  42.909  11.098
43127W        W 6686  11.825  33.498  14.938
43128W        W 6687   6.810  11.333   4.789
43129W        W 6688  44.840  44.466   1.763
43130W        W 6689  24.581   1.899   1.354
43131W        W 6690  36.877  43.952   3.679
43132W        W 6691  11.865   2.336  13.810
43133W        W 6692   6.713  19.181   0.909
43134W        W 6693  16.580  11.305  10.938
43135W        W 6694  35.912   2.370   1.259
43136W        W 6695  28.006  30.156   2.763
43137W        W 6696   1.365  20.111   4.786
43138W        W 6697  14.110   1.910   0.863
43139W        W 6698  19.039   4.225  13.064
43140W        W 6699   3.935  44.872  12.058
43141W        W 6700  28.138  41.497   4.284
43142W        W 6701  27.523   9.836  10.132
43143W        W 6702  29.619  23.058   2.384
43144W        W 6703  18.105  44.973   3.809
43145W        W 6704   1.422  28.482   1.222
43146W        W 6705  23.651   5.252   3.677
43147W        W 6706  23.556   1.839   3.703
43148W        W 6707  16.156  27.176   4.757
43149W        W 6708  24.610   9.857   1.872
43150W        W 6709  36.874   6.306  11.989
43151W        W 6710   9.366  10.774  14.957
43152W        W 6711  29.546  24.197   2.338
43153W        W 6712   7.251  10.814  10.518
43154W        W 6713   0.748  26.032   0.338
43155W        W 6714   7.855  23.498  14.816
43156W        W 6715   8.338   1.811   3.709
43157W        W 6716  32.057  40.419  14.969
43158W        W 6717  36.080   6.857   2.902
43159W        W 6718  16.648  21.035   4.631
43160W        W 6719   9.843  22.210   1.695
43161W        W 6720  29.050  18.710  12.974
43162W        W 6721  28.497  40.971   1.916
43163W        W 6722   1.759   8.748   0.782
43164W        W 6723  21.174  22.608   3.693
43165W        W 6724  31.631  33.468  14.424
43166W        W 6725  12.258  43.308   1.903
43167W        W 6726  13.112  29.585  12.883
43168W        W 6727  43.357  16.736   0.919
43169W        W 6728  24.013  28.091   1.217
43170W        W 6729  38.964   7.235   1.929
43171W        W 6730   7.225  11.648  14.781
43172W        W 6731  11.225  42.363  14.890
43173W        W 6732  43.388  19.721  12.547
43174W        W 6733  20.526   7.361  12.870
43175W        W 6734   6.399  23.534  14.453
43176W        W 6735  28.668  41.310  11.523
43177W        W 6736  27.099  30.076  10.594
43178W        W 6737  38.537  21.243  14.391
43179W        W 6738  35.594  23.510  10.541
43180W        W 6739  30.555  22.009   0.399
43181W        W 6740  20.196  42.492  11.983
43182W        W 6741  23.547   9.819  11.446
43183W        W 6742  23.236  17.292  13.355
43184W        W 6743  44.937  11.777   1.385
43185W        W 6744  28.102  30.611   0.437
43186W        W 6745   6.861   9.366   4.635
43187W        W 6746  16.313  32.139  12.393
43188W        W 6747  25.087  23.598   0.477
43189W        W 6748  39.859  43.348   3.696
43190W        W 6749  36.570  30.605  12.454
43191W        W 6750   3.810  38.480   0.368
43192W        W 6751   9.283  14.112  13.863
43193W        W 6752  43.875  23.674   4.672
43194W        W 6753  41.867   5.328   2.852
43195W        W 6754  39.319  37.469  12.397
43196W        W 6755  40.406  33.455   3.280
43197W        W 6756  29.016  14.337  10.461
43198W        W 6757   4.370  21.039   1.349
43199W        W 6758  28.176   4.266   1.244
43200W        W 6759  27.546  31.447   1.773
43201W        W 6760  24.055  27.109  11.996
43202W        W 6761  35.027  22.697   2.238
43203W        W 6762  26.512  12.230  10.561
43204W        W 6763   2.278   6.242   3.350
43205W        W 6764  11.169  27.615  11.864
43206W        W 6765  42.891  37.524   4.829
43207W        W 6766  30.940  36.900  10.418
43208W        W 6767  27.987  19.189  14.502
43209W        W 6768  19.569  39.435  12.907
43210W        W 6769  24.598  27.480   4.775
43211W        W 6770   2.340  39.915  14.995
43212W        W 6771  37.836  27.642  12.465
43213W        W 6772  23.556   0.836  10.592
43214W        W 6773  11.659  27.663   4.131
43215W        W 6774  28.971  13.606  11.569
43216W        W 6775   0.787   4.719  12.360
43217W        W 6776   6.196  20.244  13.833
43218W        W 6777  22.588  21.090  10.961
43219W        W 6778  22.509  21.680   0.467
43220W        W 6779  33.606  31.525   4.647
43221W        W 6780  14.244  21.068   5.288
43222W        W 6781  11.148  43.370  11.936
43223W        W 6782  26.565  19.235   2.341
43224W        W 6783  23.196  26.470   0.877
43225W        W 6784  37.540  43.332   4.604
43226W        W 6785  26.112  22.689  13.936
43227W        W 6786  14.191  14.127  12.908
43228W        W 6787   5.858  29.428   2.192
43229W        W 6788  36.405  30.557   2.833
43230W        W 6789  14.264  11.139  11.482
43231W        W 6790   2.242   5.758   1.882
43232W        W 6791  21.107  29.123  13.972
43233W        W 6792  18.241  32.416   1.805
43234W        W 6793  44.954  28.170  11.010
43235W        W 6794  27.121  32.603   3.689
43236W        W 6795  15.217  19.254  12.406
43237W        W 6796  37.076  39.063   3.799
43238W        W 6797  37.946  21.253   4.761
43239W        W 6798   5.217  16.746   4.318
43240W        W 6799   9.326  35.478   3.150
43241W        W 6800  33.433  44.990  10.446
43242W        W 6801  41.533  22.611   3.363
43243W        W 6802  12.168  26.460   1.225
43244W        W 6803  18.238  18.284   0.267
43245W        W 6804  39.808  26.024   3.634
43246W        W 6805  33.913  24.520  13.939
43247W        W 6806  25.108  43.908  13.061
43248W        W 6807  42.317  13.768   4.803
43249W        W 6808  34.056  28.173  14.760
43250W        W 6809  38.869  41.412   4.328
43251W        W 6810  16.149  10.734   1.290
43252W        W 6811  43.884  42.390   4.329
43253W        W 6812  40.852  31.574   0.482
43254W        W 6813  22.693   9.670   4.330
43255W        W 6814  43.437  17.560   0.951
43256W        W 6815  44.971  10.796   0.361
43257W        W 6816   2.960   3.779   2.803
43258W        W 6817  18.738  11.781  14.336
43259W        W 6818  19.173  37.494   2.378
43260W        W 6819  26.958   5.704   4.780
43261W        W 6820   0.426  33.499  13.835
43262W        W 6821  30.473  38.498   4.324
43263W        W 6822  16.282  12.788  13.820
43264W        W 6823  21.724  41.843   0.858
43265W        W 6824  42.026  34.522   3.265
43266W        W 6825  17.724  23.111   3.274
43267W        W 6826  23.059  37.421  14.358
43268W        W 6827   8.174  29.566  14.908
43269W        W 6828  36.958  32.086   5.223
43270W        W 6829  39.429  26.078  11.477
43271W        W 6830   4.942  14.098  11.017
43272W        W 6831  22.022   0.414   3.363
43273W        W 6832  32.429  30.928   2.801
43274W        W 6833  26.043   3.779  12.939
43275W        W 6834  35.589  18.152  11.914
43276W        W 6835  19.544   7.244  11.595
43277W        W 6836   7.884  22.650  10.904
43278W        W 6837  14.107   2.460   2.801
43279W        W 6838   4.727   2.950   2.404
43280W        W 6839  43.370   3.278   1.299
43281W        W 6840  28.640  12.210  13.307
43282W        W 6841  35.553  32.083  13.364
43283W        W 6842  34.864   4.409   1.895
43284W        W 6843  13.621  35.010   4.168
43285W        W 6844   7.904   5.229   1.881
43286W        W 6845  30.908  28.651  10.532
43287W        W 6846  30.607  24.565   0.923
43288W        W 6847  17.098  41.856  11.077
43289W        W 6848  29.667  41.338  11.090
43290W        W 6849  27.491   5.308   2.747
43291W        W 6850  26.183   0.474  13.049
43292W        W 6851   5.735  38.401   3.198
43293W        W 6852  19.143  39.921   4.745
43294W        W 6853  33.890   7.724   3.786
43295W        W 6854  12.238  25.670   1.915
43296W        W 6855  34.927   4.746  14.997
43297W        W 6856  23.052  10.658  12.086
43298W        W 6857   7.757  24.198   2.187
43299W        W 6858  21.589  37.040  10.550
43300W        W 6859  20.712  42.942   1.351
43301W        W 6860  32.887   1.887   1.320
43302W        W 6861  24.128  27.104   4.235
43303W        W 6862   3.350  33.433   2.355
43304W        W 6863  42.456  14.643   2.895
43305W        W 6864   1.472  37.987   1.695
43306W        W 6865  13.601  43.825  12.057
43307W        W 6866   5.246  14.318  13.012
43308W        W 6867  40.494   6.688   4.772
43309W        W 6868  33.130  16.125  12.089
43310W        W 6869   4.226  33.959   0.753
43311W        W 6870  23.499   3.915  13.547
43312W        W 6871  43.463  25.683  12.467
43313W        W 6872   2.463  10.637  11.580
43314W        W 6873  10.176  15.237  12.476
43315W        W 6874  30.628  34.913  14.289
43316W        W 6875   7.789  22.500  13.359
43317W        W 6876   9.874  25.965   4.131
43318W        W 6877   1.967  10.161  13.796
43319W        W 6878  30.037  41.481   1.258
43320W        W 6879  29.011  34.482   2.265
43321W        W 6880  28.444  44.290  13.453
43322W        W 6881   8.821  29.489  11.416
43323W        W 6882   6.311  26.690  13.887
43324W        W 6883  15.211   6.683   2.377
43325W        W 6884  33.617  36.072  11.042
43326W        W 6885  12.680  41.796  14.489
43327W        W 6886   9.649  39.407   3.312
43328W        W 6887  28.142  28.152  13.392
43329W        W 6888  29.135  44.318  13.507
43330W        W 6889  37.059  36.954   1.444
43331W        W 6890  27.992  28.618  10.608
43332W        W 6891   0.370  35.968   0.839
43333W        W 6892  17.211  24.572  11.413
43334W        W 6893   6.405  39.977   1.338
43335W        W 6894   8.175  43.794   3.685
43336W        W 6895  16.738  24.529   0.297
43337W        W 6896  24.078  37.952  10.931
43338W        W 6897  23.711   9.361  14.361
43339W        W 6898  18.134  33.443   4.302
43340W        W 6899   7.776  12.742  13.496
43341W        W 6900   1.237  29.016  13.019
43342W        W 6901  38.842  31.949   4.620
43343W        W 6902   4.845  39.394   3.384
43344W        W 6903  14.330  27.132   5.304
43345W        W 6904  29.623   2.742   0.777
43346W        W 6905  39.328   8.874  10.531
43347W        W 6906   3.858  15.652  13.514
43348W        W 6907  18.255  10.220   3.864
43349W        W 6908  44.963   9.223  13.050
43350W        W 6909   1.473   1.467  13.425
43351W        W 6910  42.962  30.623   1.725
43352W        W 6911  32.946  17.138   1.409
43353W        W 6912   1.314   7.892  12.348
43354W        W 6913  28.009  31.921  11.555
43355W        W 6914  18.659  28.999  12.381
43356W        W 6915   0.790  41.938   1.434
43357W        W 6916  17.730   7.891  14.778
43358W        W 6917  11.791  21.546  11.383
43359W        W 6918  12.738   1.958   3.797
43360W        W 6919  11.715  34.095  13.321
43361W        W 6920  13.259  22.564  13.369
43362W        W 6921  44.412  23.236   3.787
43363W        W 6922  11.240   2.440  12.934
43364W        W 6923  17.694   4.701  14.313
43365W        W 6924  14.192  22.552  10.520
43366W        W 6925  31.494   3.934  13.436
43367W        W 6926  34.528  44.420   2.811
43368W        W 6927  29.610  10.738  12.394
43369W        W 6928  13.755  21.128  12.934
43370W        W 6929  29.967  29.023  12.538
43371W        W 6930   0.367  14.143   3.163
43372W        W 6931  17.652  22.551   4.700
43373W        W 6932  17.773  20.562   1.713
43374W        W 6933  32.107  32.116  13.887
43375W        W 6934  42.508  13.341   0.967
43376W        W 6935   2.782  14.737  12.456
43377W        W 6936  31.909  34.937   2.403
43378W        W 6937  39.481  24.977  14.031
43379W        W 6938  28.511  13.707   2.256
43380W        W 6939  19.744  37.941   0.866
43381W        W 6940  37.033  29.450  12.950
43382W        W 6941  34.478  43.018  14.802
43383W        W 6942   3.266  19.047  14.885
43384W        W 6943  40.341  38.044   0.425
43385W        W 6944  35.579  44.784   3.190
43386W        W 6945  39.342   9.363  10.424
43387W        W 6946   0.404  42.430   4.255
43388W        W 6947  27.973  22.231   0.399
43389W        W 6948  39.348  25.636  10.453
43390W        W 6949  16.703  39.916  13.396
43391W        W 6950  24.492   5.880  11.932
43392W        W 6951   9.761  41.523  12.932
43393W        W 6952  10.145  28.139   4.163
43394W        W 6953  23.059  43.275  14.019
43395W        W 6954  13.739  27.062  14.953
43396W        W 6955  10.713  44.264   1.906
43397W        W 6956  13.157  15.786  13.887
43398W        W 6957  30.424  28.661   0.263
43399W        W 6958  39.376   1.243   3.750
43400W        W 6959  10.877  29.154  10.592
43401W        W 6960  32.940   8.196   3.169
43402W        W 6961  43.311  36.408   4.317
43403W        W 6962   0.941  28.634  12.950
43404W        W 6963  36.380  19.730  11.587
43405W        W 6964   1.896  15.177   4.303
43406W        W 6965  25.005  20.667   1.429
43407W        W 6966  44.868  22.014   4.270
43408W        W 6967  35.039  24.082   1.433
43409W        W 6968   8.403  11.833   2.705
43410W        W 6969  10.259  26.618   0.371
43411W        W 6970   9.220   6.230  11.927
43412W        W 6971  13.800  41.886   1.445
43413W        W 6972  42.298  20.148  14.456
43414W        W 6973  25.498  28.546  10.985
43415W        W 6974  11.786  42.523   3.797
43416W        W 6975  40.968  15.607  11.873
43417W        W 6976  29.642  40.923   3.685
43418W        W 6977  10.852  14.285   0.381
43419W        W 6978  28.104  13.245  12.391
43420W        W 6979   0.755   3.953   2.898
43421W        W 6980   8.712  27.077   2.702
43422W        W 6981   9.281  20.537  14.900
43423W        W 6982  15.204   8.726   2.755
43424W        W 6983   7.717  10.750   4.601
43425W        W 6984  22.551  32.568   4.179
43426W        W 6985  14.593  10.771   4.196
43427W        W 6986  20.540   6.824  10.564
43428W        W 6987  12.161  19.194  14.958
43429W        W 6988  28.634  29.098   0.810
43430W        W 6989  42.371  37.984  14.515
43431W        W 6990  25.094  31.142   0.313
43432W        W 6991  20.632  40.961   2.376
43433W        W 6992  29.156  21.197  11.477
43434W        W 6993  14.102  26.004  13.999
43435W        W 6994  34.610  44.377  13.425
43436W        W 6995  12.206  20.732  10.491
43437W        W 6996  40.363  10.642  11.982
43438W        W 6997  40.898  16.276   4.208
43439W        W 6998   9.739  14.293  10.961
43440W        W 6999   6.883  40.414  12.940
43441W        W 7000  43.801  22.595   0.424
43442W        W 7001  41.329   7.734   3.827
43443W        W 7002   8.216  27.098  13.445
43444W        W 7003  42.030  33.613  14.785
43445W        W 7004  22.595  18.132   0.387
43446W        W 7005  25.621  10.168   2.350
43447W        W 7006  10.776  32.423   2.181
43448W        W 7007  43.454  33.470   3.693
43449W        W 7008  19.668  10.301   0.756
43450W        W 7009  11.246  24.068   4.623
43451W        W 7010   0.370  23.208   0.758
43452W        W 7011  11.256  34.396  12.553
43453W        W 7012  30.978  17.129  14.956
43454W        W 7013  42.855  23.202  12.569
43455W        W 7014  25.501  15.088   3.263
43456W        W 7015  35.010   6.271   1.240
43457W        W 7016  11.622  14.164   2.859
43458W        W 7017  44.879  10.810   4.116
43459W        W 7018  14.802   6.234  12.078
43460W        W 7019  13.268   0.338  12.519
43461W        W 7020  34.391  18.292  10.521
43462W        W 7021  10.276   0.764  10.470
43463W        W 7022  26.609   2.727  13.830
43464W        W 7023  17.705   6.316   0.847
43465W        W 7024  25.538   8.669  11.947
43466W        W 7025  23.684  12.765   4.752
43467W        W 7026  20.714  28.988   3.313
43468W        W 7027  20.619   3.769  13.936
43469W        W 7028  19.068  42.388  12.343
43470W        W 7029  21.216  34.979   0.806
43471W        W 7030   1.898  19.086  12.924
43472W        W 7031   9.312  20.618  11.907
43473W        W 7032   3.713   9.872  11.050
43474W        W 7033  38.833  19.776  14.411
43475W        W 7034  30.137  24.624   3.760
43476W        W 7035  19.207  20.088  10.961
43477W        W 7036  37.441  37.542   3.644
43478W        W 7037   3.440   8.802   0.335
43479W        W 7038  39.026   8.659   3.841
43480W        W 7039  30.128  14.162  11.993
43481W        W 7040   7.807  22.219   1.731
43482W        W 7041  39.898  32.031   3.680
43483W        W 7042  16.143  39.967   3.720
43484W        W 7043  38.932  20.584  10.455
43485W        W 7044  32.027  17.226   4.831
43486W        W 7045  30.606  22.121  10.950
43487W        W 7046  41.944  43.821  12.939
43488W        W 7047  39.424  23.673  12.006
43489W        W 7048  44.447  25.054  14.861
43490W        W 7049   6.423  43.386   1.834
43491W        W 7050  37.420  44.864   3.178
43492W        W 7051   7.719  17.291  14.514
43493W        W 7052   7.710  22.583  13.963
43494W        W 7053  41.489   8.875  14.013
43495W        W 7054   3.382  39.908  14.849
43496W        W 7055  12.325  28.940  14.824
43497W        W 7056  44.796  31.954   2.268
43498W        W 7057  10.343  12.299   0.340
43499W        W 7058  34.079  28.123  11.464
43500W        W 7059  13.151  21.629  13.937
43501W        W 7060  29.096  25.697   2.816
43502W        W 7061  44.484  34.013   2.677
43503W        W 7062  18.678   6.336  11.065
43504W        W 7063  11.865  41.410  11.434
43505W        W 7064  17.099  19.694   1.805
43506W        W 7065  44.322  26.042   3.856
43507W        W 7066   0.332   8.183   0.835
43508W        W 7067  21.595  15.126  12.486
43509W        W 7068   2.361  29.050  10.582
43510W        W 7069  35.463  21.032   3.676
43511W        W 7070   7.270  36.459  14.842
43512W        W 7071  27.021  25.023  13.443
43513W        W 7072  25.706  25.157  13.909
43514W        W 7073  37.470  24.103  14.882
43515W        W 7074   9.272   4.252   1.823
43516W        W 7075   7.358  25.134   1.857
43517W        W 7076  30.109  28.069   1.295
43518W        W 7077  28.656  39.940  12.406
43519W        W 7078  23.148  32.484  10.554
43520W        W 7079   8.225   3.410  14.005
43521W        W 7080   8.826  43.855  14.356
43522W        W 7081  23.562   6.401   0.394
43523W        W 7082  40.896  35.026  14.996
43524W        W 7083   3.924   0.375  10.566
43525W        W 7084  10.178   9.764   2.393
43526W        W 7085   2.277  34.462   0.835
43527W        W 7086  17.091  14.213  10.575
43528W        W 7087   1.846  11.760   1.869
43529W        W 7088  11.211  41.400  11.891
43530W        W 7089   2.283   0.458   0.729
43531W        W 7090  30.963  10.230   0.338
43532W        W 7091  24.204  25.998   0.852
43533W        W 7092  18.790  44.753   3.177
43534W        W 7093   4.291   4.392  14.330
43535W        W 7094  41.489  23.549  12.070
43536W        W 7095  44.939  17.294  14.303
43537W        W 7096  16.207  35.485   4.238
43538W        W 7097   4.775  29.438   2.369
43539W        W 7098  16.309   2.352  10.506
43540W        W 7099  36.492  23.116   2.776
43541W        W 7100  18.733  27.460   2.222
43542W        W 7101  19.250  23.077  13.012
43543W        W 7102  25.605   0.850   1.756
43544W        W 7103   9.334  40.915   2.811
43545W        W 7104  23.079  21.062   4.163
43546W        W 7105  15.286  33.571  10.406
43547W        W 7106  37.995  18.658   0.472
43548W        W 7107  23.192  39.947   2.664
43549W        W 7108  44.417  20.694   5.136
43550W        W 7109   7.404   2.467   0.784
43551W        W 7110   3.315  43.295  14.824
43552W        W 7111  30.996  22.628  14.366
43553W        W 7112  22.149  23.110  12.945
43554W        W 7113  33.082  24.692  12.347
43555W        W 7114  39.343   1.380   4.805
43556W        W 7115  16.090  18.189  10.559
43557W        W 7116  16.789  22.704  13.886
43558W        W 7117  30.627  25.507  14.021
43559W        W 7118  18.663  26.603   1.285
43560W        W 7119  38.948  31.563  11.407
43561W        W 7120  26.118  14.189  10.891
43562W        W 7121  34.047  32.534  11.971
43563W        W 7122  31.140  30.459   0.284
43564W        W 7123  40.538  35.969  14.409
43565W        W 7124  40.867  26.524   3.249
43566W        W 7125  18.141  10.312  13.064
43567W        W 7126  36.426  39.503  12.857
43568W        W 7127  39.393  42.367   0.432
43569W        W 7128  25.193  20.583   1.843
43570W        W 7129   6.393  24.566   4.621
43571W        W 7130   6.346  35.485  11.976
43572W        W 7131  20.755  28.084  13.530
43573W        W 7132  43.869  20.249   2.324
43574W        W 7133  41.895  24.038  11.537
43575W        W 7134  14.263  40.393   3.741
43576W        W 7135  15.758   2.306   4.783
43577W        W 7136  20.029   6.256  14.935
43578W        W 7137  43.286  41.460  12.399
43579W        W 7138  17.241  22.567   5.227
43580W        W 7139   8.790  36.079  11.960
43581W        W 7140  35.029   7.874   5.205
43582W        W 7141  33.550   1.766   2.244
43583W        W 7142  11.783   6.298  11.438
43584W        W 7143  11.231  10.211   0.458
43585W        W 7144  23.650   5.754  10.463
43586W        W 7145   2.814  17.666  13.312
43587W        W 7146  12.631  20.730   1.376
43588W        W 7147  33.962  32.448   4.330
43589W        W 7148  22.634   0.807   1.449
43590W        W 7149  32.130  25.644   4.205
43591W        W 7150   7.388  11.769  11.437
43592W        W 7151  15.230  24.713   4.153
43593W        W 7152  16.169  34.375   2.381
43594W        W 7153  36.880  18.578   2.227
43595W        W 7154  41.456  26.999   3.280
43596W        W 7155  21.081  30.978   0.451
43597W        W 7156  34.969  19.144  14.276
43598W        W 7157  17.202  41.988   3.765
43599W        W 7158  15.170   2.907   3.219
43600W        W 7159  42.016  11.696   3.787
43601W        W 7160   6.867  22.688   3.252
43602W        W 7161  16.621   8.808   4.648
43603W        W 7162  39.822  10.328  10.474
43604W        W 7163  16.672  13.272   2.803
43605W        W 7164  42.921   1.382  10.628
43606W        W 7165  25.138  24.042  11.960
43607W        W 7166   3.324  13.223  14.841
43608W        W 7167  30.145  41.309  13.333
43609W        W 7168  12.672  23.163   1.782
43610W        W 7169  34.112  35.009  10.603
43611W        W 7170  22.565  42.890  13.827
43612W        W 7171  17.227  23.002   4.340
43613W        W 7172  13.216  23.708   3.695
43614W        W 7173  30.548  29.454  12.364
43615W        W 7174   3.800  17.718   1.802
43616W        W 7175  24.133  10.211   0.445
43617W        W 7176  41.857  19.618   2.683
43618W        W 7177   1.739  13.832  12.933
43619W        W 7178  11.195  20.763  10.462
43620W        W 7179  34.040   1.852   2.820
43621W        W 7180  32.951  17.723   3.776
43622W        W 7181  21.240  40.939   2.217
43623W        W 7182  29.991  41.014   1.366
43624W        W 7183  37.008  14.207   3.379
43625W        W 7184  39.519   3.875  14.513
43626W        W 7185  39.531  13.321   3.670
43627W        W 7186  27.588  37.926   0.432
43628W        W 7187  19.592   1.892  12.909
43629W        W 7188  33.463  44.371   5.125
43630W        W 7189  11.724  32.570  12.567
43631W        W 7190  24.002  29.077  12.985
43632W        W 7191  30.928  14.273  10.007
43633W        W 7192   8.267  23.185   1.370
43634W        W 7193  25.188  16.696  11.487
43635W        W 7194   2.313   8.209   2.361
43636W        W 7195  13.263  24.034   3.246
43637W        W 7196  12.779  10.843  12.980
43638W        W 7197  20.217  22.604   4.218
43639W        W 7198  22.096  20.119  14.499
43640W        W 7199  30.531  28.108  13.343
43641W        W 7200   2.746  26.634  10.631
43642W        W 7201  19.062  38.392  13.532
43643W        W 7202  22.101  29.425  11.376
43644W        W 7203   8.681  13.135  14.391
43645W        W 7204  14.784  32.084  12.997
43646W        W 7205  36.485  35.010   0.309
43647W        W 7206  27.129  38.394  12.412
43648W        W 7207  11.709  11.643  10.484
43649W        W 7208  28.575  12.675  10.966
43650W        W 7209   0.800  15.773  14.335
43651W        W 7210  44.322  27.063  11.996
43652W        W 7211  26.001  44.867   0.276
43653W        W 7212  40.531  28.005   3.701
43654W        W 7213  20.746   4.271   4.678
43655W        W 7214  20.656   2.758   3.684
43656W        W 7215  35.498  22.731  12.390
43657W        W 7216   0.771  24.572   0.425
43658W        W 7217  28.967  10.368   4.143
43659W        W 7218  25.587  25.055   4.828
43660W        W 7219  15.153  34.396  11.465
43661W        W 7220  21.142  31.409  13.995
43662W        W 7221  15.720  37.530   1.814
43663W        W 7222  23.529  40.318   3.770
43664W        W 7223  14.656   0.903   3.266
43665W        W 7224   5.297  13.188   4.696
43666W        W 7225  22.652  16.176   2.744
43667W        W 7226  43.375  41.475   1.865
43668W        W 7227  32.057  23.025  14.941
43669W        W 7228   1.884   3.354   2.305
43670W        W 7229  31.502  25.039   4.654
43671W        W 7230  18.711  25.130   1.868
43672W        W 7231  36.393   9.183  14.800
43673W        W 7232  38.884   3.335   0.831
43674W        W 7233  42.934  28.930   3.815
43675W        W 7234  13.731   3.905  10.589
43676W        W 7235  13.626  20.266  14.469
43677W        W 7236  26.510   1.879  13.862
43678W        W 7237  41.404   2.341  12.577
43679W        W 7238  27.010  29.096   4.602
43680W        W 7239  15.700  28.489  11.486
43681W        W 7240  17.706  30.945   1.892
43682W        W 7241   6.341  28.017   2.802
43683W        W 7242  41.352   0.364   2.320
43684W        W 7243   5.202  35.460   0.817
43685W        W 7244   6.718  13.125  12.411
43686W        W 7245  12.164  30.100  12.939
43687W        W 7246  40.376  23.647  10.154
43688W        W 7247  24.021  42.841   5.303
43689W        W 7248   8.844   1.374  14.498
43690W        W 7249  42.445  19.100  11.013
43691W        W 7250  43.324   1.400   3.723
43692W        W 7251  28.678  11.777   0.374
43693W        W 7252  25.169  29.509   3.748
43694W        W 7253  44.438   4.413   4.264
43695W        W 7254  36.590  24.119  13.834
43696W        W 7255  37.891  30.579   2.842
43697W        W 7256   9.181  44.426  14.767
43698W        W 7257  22.628  38.870  12.357
43699W        W 7258  40.377  17.190  12.530
43700W        W 7259   4.795  14.783  11.580
43701W        W 7260  21.667  39.038   0.335
43702W        W 7261   9.652  13.776   3.824
43703W        W 7262  33.106  16.572  12.913
43704W        W 7263  41.791  44.785  12.972
43705W        W 7264  23.527  30.089   3.268
43706W        W 7265  39.477  23.085  12.992
43707W        W 7266  42.492   7.390  13.927
43708W        W 7267  34.383  39.556  12.962
43709W        W 7268   3.894  19.100  11.108
43710W        W 7269  35.563   8.721  14.871
43711W        W 7270  10.794  12.199  12.432
43712W        W 7271  39.505  44.917  12.380
43713W        W 7272  24.151  22.695  12.390
43714W        W 7273  40.517  36.928   2.813
43715W        W 7274  27.009   9.731   1.790
43716W        W 7275  16.295  33.917   1.319
43717W        W 7276  21.754  30.461   4.278
43718W        W 7277  38.985   2.376   4.263
43719W        W 7278   1.818   6.739   2.234
43720W        W 7279  39.914  12.676  12.955
43721W        W 7280  32.397  34.864   2.808
43722W        W 7281  43.884  13.627  10.455
43723W        W 7282  24.544   9.647  11.510
43724W        W 7283   5.318  15.112  14.503
43725W        W 7284  14.590  31.645   0.745
43726W        W 7285  23.141  34.105   2.783
43727W        W 7286   5.702  38.993  11.548
43728W        W 7287   8.761  16.665   2.196
43729W        W 7288  18.092  12.686  12.525
43730W        W 7289   9.301  43.387  12.045
43731W        W 7290  27.993   6.760  13.014
43732W        W 7291  10.312  17.284   5.661
43733W        W 7292  16.642   5.749   4.790
43734W        W 7293  18.161   7.201  14.487
43735W        W 7294  37.908   6.338  14.403
43736W        W 7295  20.119  13.344   3.232
43737W        W 7296  14.316  36.080   4.657
43738W        W 7297  44.308  23.140   1.892
43739W        W 7298  15.692   2.386   2.705
43740W        W 7299  44.457  42.316  12.936
43741W        W 7300  19.738  17.232  11.550
43742W        W 7301  22.559  28.947  14.906
43743W        W 7302  11.715  27.130   4.723
43744W        W 7303  20.030  37.959  14.326
43745W        W 7304  14.223  10.761  13.850
43746W        W 7305  25.964  18.211  11.962
43747W        W 7306  29.627   6.280   2.315
43748W        W 7307  33.448  28.651  11.950
43749W        W 7308   4.345  30.496   4.723
43750W        W 7309  43.376   7.837  11.518
43751W        W 7310   1.933  40.398  11.478
43752W        W 7311  29.492  37.895   2.206
43753W        W 7312  31.535  34.524  14.414
43754W        W 7313  26.588  16.778   4.234
43755W        W 7314  23.108  14.658   2.761
43756W        W 7315   2.331   6.228   1.442
43757W        W 7316  31.960  38.339  12.454
43758W        W 7317  40.961  11.792   2.304
43759W        W 7318   6.677  39.366   3.201
43760W        W 7319  22.569  34.053  14.470
43761W        W 7320  37.477   2.430  14.909
43762W        W 7321  34.072   8.404  13.523
43763W        W 7322  30.071  25.127  11.577
43764W        W 7323  35.541   7.393   2.789
43765W        W 7324  34.962  28.604  12.519
43766W        W 7325  28.567  36.037   0.459
43767W        W 7326  18.083   2.310   0.344
43768W        W 7327   1.323  23.070   1.729
43769W        W 7328  30.123   1.886  13.485
43770W        W 7329  18.253   3.250   2.184
43771W        W 7330  26.694  10.789   2.226
43772W        W 7331   3.399  30.612  13.957
43773W        W 7332  15.592  37.390  13.528
43774W        W 7333  16.606  30.517   1.819
43775W        W 7334  39.973  26.625   1.439
43776W        W 7335   9.275   1.763  12.437
43777W        W 7336  24.207  14.138  11.493
43778W        W 7337  15.148  26.201  14.876
43779W        W 7338  39.542  34.994  14.899
43780W        W 7339   2.258  35.431  12.849
43781W        W 7340  18.237   6.689   1.378
43782W        W 7341  37.985  10.794   9.498
43783W        W 7342  39.007  27.020  13.838
43784W        W 7343  34.871  12.739  12.916
43785W        W 7344  33.476  35.398  14.947
43786W        W 7345  31.980   2.448   4.321
43787W        W 7346   6.887   0.262   0.359
43788W        W 7347  13.797  29.976  10.518
43789W        W 7348  19.099   7.316   3.331
43790W        W 7349  39.439   6.291   0.929
43791W        W 7350  40.033  27.659  11.584
43792W        W 7351  21.743   3.844  13.961
43793W        W 7352  41.458   9.726   4.825
43794W        W 7353  40.849  31.616   1.366
43795W        W 7354  23.107  39.930  10.525
43796W        W 7355  22.243  21.174  11.037
43797W        W 7356  36.864  12.732  13.805
43798W        W 7357  21.518  20.603   0.917
43799W        W 7358  10.277   7.382   2.353
43800W        W 7359  40.411  34.041  10.139
43801W        W 7360  26.592   5.364  11.960
43802W        W 7361  21.155  35.879   2.840
43803W        W 7362  25.688  13.602  14.816
43804W        W 7363  27.557  42.381  12.072
43805W        W 7364  31.133  27.045  13.964
43806W        W 7365  13.817  38.938   0.449
43807W        W 7366   0.781  40.461  13.530
43808W        W 7367   6.367  40.471   1.760
43809W        W 7368  22.526  28.953  11.974
43810W        W 7369   7.731  40.511   2.801
43811W        W 7370  31.572   7.309   4.682
43812W        W 7371   5.748   0.961   3.363
43813W        W 7372   4.322   5.835  11.400
43814W        W 7373  31.583  16.717   4.621
43815W        W 7374   8.806  36.958   0.735
43816W        W 7375  40.016   6.243  11.387
43817W        W 7376  15.304   9.339   4.809
43818W        W 7377   0.448  36.503  13.334
43819W        W 7378  12.819  33.959   3.275
43820W        W 7379  43.942  24.590  12.426
43821W        W 7380  23.557  23.019  11.036
43822W        W 7381  10.327  23.218  11.579
43823W        W 7382  21.599  18.239   1.734
43824W        W 7383   4.371  33.964   1.410
43825W        W 7384  14.643   9.861  12.020
43826W        W 7385  38.964  39.441   2.772
43827W        W 7386   7.759  31.899  11.011
43828W        W 7387  20.259  16.792   0.310
43829W        W 7388  10.819  10.789   0.824
43830W        W 7389  34.014  26.187   2.257
43831W        W 7390  18.205  40.931   2.844
43832W        W 7391  15.294  42.352  12.450
43833W        W 7392  26.639  44.270  11.866
43834W        W 7393  30.918  17.145   4.745
43835W        W 7394  12.801  37.480   4.823
43836W        W 7395  10.865  18.556   0.821
43837W        W 7396  32.961  40.470   4.770
43838W        W 7397   1.305  35.491   2.757
43839W        W 7398  24.063  11.156  13.416
43840W        W 7399  17.231  37.428  14.794
43841W        W 7400  38.947  17.303  12.444
43842W        W 7401   2.812  15.672  11.577
43843W        W 7402  36.915  12.665  10.636
43844W        W 7403   7.331  24.672  13.503
43845W        W 7404  32.956  37.573  14.356
43846W        W 7405  20.758  36.849  12.866
43847W        W 7406  32.444  22.211   2.183
43848W        W 7407  36.578   5.791   3.780
43849W        W 7408   0.383  11.173   3.316
43850W        W 7409  39.459  29.085   1.364
43851W        W 7410  21.145   7.763   1.232
43852W        W 7411  29.143   2.439   0.412
43853W        W 7412  15.605   3.940  11.587
43854W        W 7413  27.584  22.071   4.288
43855W        W 7414  39.327   6.911   4.693
43856W        W 7415  13.262  26.160   3.757
43857W        W 7416  25.024   2.392   2.664
43858W        W 7417  21.533   5.280  13.807
43859W        W 7418  30.948  34.490  12.831
43860W        W 7419   9.344  38.860   3.687
43861W        W 7420   4.850  26.985  11.882
43862W        W 7421   2.391  40.043   3.798
43863W        W 7422   4.717   6.879  10.488
43864W        W 7423  24.631  29.173  10.600
43865W        W 7424  33.505  40.341  13.452
43866W        W 7425  19.585   8.841  13.864
43867W        W 7426  18.090   0.769   3.780
43868W        W 7427  12.199  20.703   3.693
43869W        W 7428  16.318  43.940   1.348
43870W        W 7429  24.182  19.767   3.247
43871W        W 7430  43.775   1.836  13.310
43872W        W 7431  29.145  32.096   3.786
43873W        W 7432  34.370  16.150   4.349
43874W        W 7433  25.214  10.753   2.198
43875W        W 7434  36.437  21.194  14.458
43876W        W 7435  43.432  43.392   1.759
43877W        W 7436  39.356   0.961   0.884
43878W        W 7437  38.948  28.012  13.033
43879W        W 7438  35.507  18.295   4.206
43880W        W 7439  32.058  15.664  12.096
43881W        W 7440  39.491  21.742  14.975
43882W        W 7441  41.962   2.442   4.795
43883W        W 7442  38.851   2.866  14.361
43884W        W 7443  35.596  43.457  11.039
43885W        W 7444   7.747   5.209  13.998
43886W        W 7445   0.270  13.204   1.791
43887W        W 7446  36.429   7.745   2.286
43888W        W 7447   1.904  28.441   2.243
43889W        W 7448  14.791  17.110  11.866
43890W        W 7449  24.103  37.392   0.314
43891W        W 7450   1.887  10.184   4.113
43892W        W 7451  11.225  35.525   2.401
43893W        W 7452  38.068  41.000  12.402
43894W        W 7453   0.424  38.054  14.017
43895W        W 7454  10.796  21.176   1.351
43896W        W 7455  16.293  13.156  14.777
43897W        W 7456  11.753  33.124  14.017
43898W        W 7457  28.674  28.673  10.961
43899W        W 7458   1.247  35.898   1.383
43900W        W 7459  24.185  26.171   0.410
43901W        W 7460  40.427  28.940  10.642
43902W        W 7461  30.987   7.189   2.184
43903W        W 7462  13.646  26.514   4.203
43904W        W 7463   1.949   3.932  13.483
43905W        W 7464  41.983  24.143  12.384
43906W        W 7465  12.811  32.535  10.578
43907W        W 7466  38.043   4.787   4.603
43908W        W 7467   4.345   7.766   4.282
43909W        W 7468  19.628  16.704   0.372
43910W        W 7469  10.691  10.754  14.889
43911W        W 7470  12.283  26.546   4.292
43912W        W 7471  23.665  13.641  14.805
43913W        W 7472  40.873  14.654  14.829
43914W        W 7473  17.151  19.659   1.216
43915W        W 7474  36.090  10.211  14.996
43916W        W 7475  17.124  30.506  13.921
43917W        W 7476  39.551   1.365  10.467
43918W        W 7477  36.058  40.806   1.836
43919W        W 7478   0.289  22.617   1.716
43920W        W 7479  19.162  44.008   0.936
43921W        W 7480  25.192   0.855   0.883
43922W        W 7481   0.816  18.225  12.344
43923W        W 7482  23.545  28.994   3.385
43924W        W 7483   2.300  10.279   9.966
43925W        W 7484  23.603   0.854   2.765
43926W        W 7485  18.565  10.138  10.638
43927W        W 7486  31.955   2.413   0.908
43928W        W 7487  17.732  43.296   4.236
43929W        W 7488  20.572  26.977   0.873
43930W        W 7489  18.627  16.295  11.954
43931W        W 7490   9.819   6.290  12.946
43932W        W 7491  22.557   7.307  12.554
43933W        W 7492  35.927  40.407   3.162
43934W        W 7493  43.345  21.750   1.220
43935W        W 7494  11.800   8.895   0.806
43936W        W 7495  42.900  36.459   5.200
43937W        W 7496  13.649   5.786  10.412
43938W        W 7497  28.983  13.184   3.197
43939W        W 7498  37.068  40.855  13.348
43940W        W 7499   2.371  11.807  11.023
43941W        W 7500  35.949  25.577  10.553
43942W        W 7501  23.203  41.334  11.928
43943W        W 7502  22.226  35.081  12.921
43944W        W 7503   7.180   3.332   1.355
43945W        W 7504  36.467  37.057  12.392
43946W        W 7505  41.482  17.569  14.868
43947W        W 7506   2.414  12.613  14.437
43948W        W 7507  17.093  15.129   3.257
43949W        W 7508  20.171  34.103   0.943
43950W        W 7509   3.401  30.617   2.214
43951W        W 7510   0.834  37.011   1.865
43952W        W 7511  25.027  38.851  14.400
43953W        W 7512  24.120  41.538   3.798
43954W        W 7513  44.958   0.441  14.962
43955W        W 7514   9.650   9.824   2.812
43956W        W 7515  20.542  14.635   1.315
43957W        W 7516   2.454   7.321  13.953
43958W        W 7517  44.840  39.434  11.044
43959W        W 7518  28.670   8.876  13.846
43960W        W 7519  13.804   6.322   3.724
43961W        W 7520  18.597  36.538  14.004
43962W        W 7521  34.404  14.306  11.857
43963W        W 7522  27.453  26.063   3.344
43964W        W 7523  26.558  42.510  12.414
43965W        W 7524   2.232   1.950   4.682
43966W        W 7525  16.806   9.852  13.869
43967W        W 7526  21.629  40.999   3.809
43968W        W 7527  35.458   7.685  12.517
43969W        W 7528  30.481  30.119   4.631
43970W        W 7529  21.175  24.206  11.581
43971W        W 7530  28.642  37.396  10.560
43972W        W 7531  11.226  25.148  13.821
43973W        W 7532  29.527  40.011   2.246
43974W        W 7533  33.051   4.716  13.895
43975W        W 7534  38.404   6.823  12.944
43976W        W 7535  38.985  22.082  14.764
43977W        W 7536   7.393  29.572  10.914
43978W        W 7537  12.817   1.814  14.514
43979W        W 7538  43.350  20.690   0.312
43980W        W 7539   3.807  40.954   3.667
43981W        W 7540   7.886  26.185  12.425
43982W        W 7541  29.645   6.701  13.529
43983W        W 7542   5.897  43.902   3.230
43984W        W 7543  24.480  31.932  10.612
43985W        W 7544  30.607   1.444   1.391
43986W        W 7545  26.105  20.538  10.461
43987W        W 7546  27.016   3.341   2.217
43988W        W 7547  31.089  37.910   0.814
43989W        W 7548  13.694   7.378  14.900
43990W        W 7549  11.182  14.720  12.914
43991W        W 7550   4.780   2.429   1.695
43992W        W 7551  22.576   1.433   4.801
43993W        W 7552   4.399  41.406   1.272
43994W        W 7553  43.000  38.384  14.008
43995W        W 7554  18.063  17.638  14.783
43996W        W 7555  30.443   0.252  10.988
43997W        W 7556   5.283  16.658  13.490
43998W        W 7557  41.520   8.723  12.359
43999W        W 7558  11.795   6.709   1.422
44000W        W 7559   5.409  25.163   3.859
44001W        W 7560   2.952  10.641  11.589
44002W        W 7561  40.011   4.407   2.195
44003W        W 7562  37.955  44.406  14.289
44004W        W 7563   2.823   6.714   1.723
44005W        W 7564  18.621  40.450   1.699
44006W        W 7565  37.513  36.953  13.383
44007W        W 7566  24.649  42.801  13.487
44008W        W 7567   2.955  17.686  11.498
44009W        W 7568  39.901  39.518  10.445
44010W        W 7569  10.333  37.904  12.374
44011W        W 7570   8.819   5.368  10.986
44012W        W 7571  37.414  37.500   0.829
44013W        W 7572  16.122  10.817   0.456
44014W        W 7573  10.734  20.586   3.237
44015W        W 7574  34.023  15.766   2.375
44016W        W 7575  28.120  24.163  10.959
44017W        W 7576  35.035  17.616   2.345
44018W        W 7577  20.125  18.786  11.495
44019W        W 7578  15.271  23.173  12.506
44020W        W 7579  39.925   7.378   3.324
44021W        W 7580  42.856  13.306  14.803
44022W        W 7581  42.795  14.302   4.614
44023W        W 7582   3.312  25.216   2.313
44024W        W 7583  13.209  32.491   3.847
44025W        W 7584  31.577  41.355  14.897
44026W        W 7585   2.939   9.683   0.888
44027W        W 7586  18.678   9.231   4.245
44028W        W 7587   7.856  35.038  13.801
44029W        W 7588  17.232   7.339   0.400
44030W        W 7589  43.862   6.837  14.800
44031W        W 7590  12.251  19.054   4.629
44032W        W 7591  42.802  39.901   2.418
44033W        W 7592  26.539  16.614  14.844
44034W        W 7593  16.743  17.613  12.470
44035W        W 7594  28.172  26.027   1.888
44036W        W 7595   9.322   2.269   4.804
44037W        W 7596  17.245   8.797  10.622
44038W        W 7597  10.315  27.458  13.456
44039W        W 7598  32.106  39.994  14.444
44040W        W 7599   5.286   6.330   2.245
44041W        W 7600  39.480   6.774   1.441
44042W        W 7601   0.458  37.459   0.890
44043W        W 7602   7.250  14.762  13.460
44044W        W 7603  26.166   0.855  11.856
44045W        W 7604   5.897  28.122   0.802
44046W        W 7605  19.651  26.112   2.732
44047W        W 7606   8.698  13.599   2.858
44048W        W 7607  33.495  23.173  12.540
44049W        W 7608  33.619  16.207   2.379
44050W        W 7609  25.005  23.182  13.476
44051W        W 7610  14.128  30.038  13.962
44052W        W 7611  33.053  23.210   0.420
44053W        W 7612  36.968  34.460   0.873
44054W        W 7613  11.626  34.457  14.831
44055W        W 7614  18.085  24.514  10.633
44056W        W 7615   7.368   4.851  12.368
44057W        W 7616  41.441  38.819   2.815
44058W        W 7617  13.336  12.310  11.505
44059W        W 7618  10.187  32.459   2.858
44060W        W 7619  11.689   7.184  11.950
44061W        W 7620  30.950   3.860   4.728
44062W        W 7621  42.324  33.935  14.976
44063W        W 7622  18.559  29.582  12.891
44064W        W 7623  42.914   7.254   3.836
44065W        W 7624  43.461  20.052  12.482
44066W        W 7625  38.831  19.055   0.322
44067W        W 7626  41.042  13.827   0.785
44068W        W 7627  36.059  25.033  13.809
44069W        W 7628  21.194  31.963   1.254
44070W        W 7629  10.684   2.940   4.717
44071W        W 7630  24.097  35.967  10.935
44072W        W 7631   1.748  31.013   2.324
44073W        W 7632  42.523  38.902  11.411
44074W        W 7633  29.085  18.680   4.260
44075W        W 7634  36.514  38.422   1.424
44076W        W 7635  18.689  22.619  12.902
44077W        W 7636  39.847  10.231   0.869
44078W        W 7637  38.337  44.305  12.069
44079W        W 7638  14.163  39.940  14.826
44080W        W 7639  26.055  11.352   0.940
44081W        W 7640  22.219  14.696  13.473
44082W        W 7641  23.725  43.955  14.793
44083W        W 7642  31.514   2.901   0.909
44084W        W 7643   0.813  18.288   9.999
44085W        W 7644  32.549   4.314  11.989
44086W        W 7645  30.151   4.890   3.329
44087W        W 7646  27.134  42.855   0.760
44088W        W 7647  25.587  29.505  12.932
44089W        W 7648  27.162  16.121   0.793
44090W        W 7649  39.011  30.080  14.906
44091W        W 7650  15.722  18.101   0.274
44092W        W 7651   7.892  28.078  13.972
44093W        W 7652  29.546  25.504  10.423
44094W        W 7653  11.334  38.835   0.935
44095W        W 7654  26.681   3.345   2.873
44096W        W 7655  23.003   6.846   4.602
44097W        W 7656  19.048   7.351   4.664
44098W        W 7657   8.785  10.784  13.859
44099W        W 7658  41.990   8.693  10.955
44100W        W 7659   7.771   9.862   0.452
44101W        W 7660  22.526  17.568   2.727
44102W        W 7661   3.739  21.735  14.409
44103W        W 7662  26.197  14.282   0.305
44104W        W 7663  41.922  14.210   0.458
44105W        W 7664  18.715  17.148  13.934
44106W        W 7665  13.780  11.735   3.858
44107W        W 7666  36.396  15.778  14.418
44108W        W 7667  33.460   7.675  14.383
44109W        W 7668  34.081  32.055   0.415
44110W        W 7669   5.761   9.861   1.927
44111W        W 7670  34.054  34.109  10.462
44112W        W 7671   5.930  24.611   2.873
44113W        W 7672   9.367  12.668  11.975
44114W        W 7673  21.053  13.605  14.854
44115W        W 7674  19.629   2.758   3.824
44116W        W 7675   6.253   8.293   1.796
44117W        W 7676   3.271  42.960   0.302
44118W        W 7677  28.455   3.798   3.283
44119W        W 7678  34.590  22.139  12.344
44120W        W 7679  43.381  42.394  14.306
44121W        W 7680  42.963  44.860  14.349
44122W        W 7681  15.696  42.941  10.542
44123W        W 7682  27.024  37.449  11.519
44124W        W 7683  33.994  33.041   4.288
44125W        W 7684  23.568  34.543   3.328
44126W        W 7685   1.952  29.992   1.788
44127W        W 7686   2.847  29.589   0.891
44128W        W 7687  14.623  31.584   4.181
44129W        W 7688  23.136  14.695   4.199
44130W        W 7689  29.112  13.753  13.324
44131W        W 7690   0.271  41.385  10.543
44132W        W 7691  37.933  29.057   3.861
44133W        W 7692  36.432  29.621  10.148
44134W        W 7693  29.943  20.125  11.604
44135W        W 7694  40.897   1.769   3.367
44136W        W 7695   7.757  38.399   0.934
44137W        W 7696  41.831  40.025   0.809
44138W        W 7697   0.788   7.910  11.929
44139W        W 7698  27.485  37.914   3.681
44140W        W 7699  37.532  31.051  11.469
44141W        W 7700   0.948  31.015  10.588
44142W        W 7701  38.969  38.422  10.426
44143W        W 7702  34.580  22.013   2.410
44144W        W 7703  29.027  23.161   0.967
44145W        W 7704  41.042  33.489   3.777
44146W        W 7705  38.335  28.099   3.206
44147W        W 7706  35.401  43.964  13.474
44148W        W 7707  20.705  38.508  11.998
44149W        W 7708  10.370  16.258  14.280
44150W        W 7709  12.224  30.161   0.319
44151W        W 7710   8.872  31.900  13.923
44152W        W 7711  44.930   5.289   4.187
44153W        W 7712  14.254  27.491   4.161
44154W        W 7713  23.616   8.662   0.390
44155W        W 7714   2.394   5.768  14.447
44156W        W 7715   4.394  25.561  10.421
44157W        W 7716  38.506  10.362  11.515
44158W        W 7717  35.534  12.723   1.891
44159W        W 7718  39.380   5.383   2.412
44160W        W 7719  44.375   0.300   2.824
44161W        W 7720  13.813  23.211   2.753
44162W        W 7721  31.562   2.920   2.241
44163W        W 7722  23.193  25.549   3.654
44164W        W 7723  35.904  33.905   4.755
44165W        W 7724  37.041   9.757  12.010
44166W        W 7725  28.988  42.913   5.095
44167W        W 7726   7.232  36.382   2.246
44168W        W 7727  40.000   7.229  12.969
44169W        W 7728  21.593  31.987  10.069
44170W        W 7729  44.479  28.145  10.441
44171W        W 7730   4.412  32.461   2.687
44172W        W 7731  32.937  16.636  11.940
44173W        W 7732  39.898   3.819   4.788
44174W        W 7733   3.333  34.615   0.410
44175W        W 7734  12.782  14.105   4.196
44176W        W 7735  26.497   0.318  12.399
44177W        W 7736  24.224   9.713  10.122
44178W        W 7737  12.686  32.052   1.300
44179W        W 7738   0.263   1.836   2.359
44180W        W 7739  43.022  19.216   2.775
44181W        W 7740  14.757   8.395  12.953
44182W        W 7741  18.590  20.586  10.961
44183W        W 7742  14.613  44.936  14.868
44184W        W 7743  38.493  15.816  14.313
44185W        W 7744  43.932   3.801  11.907
44186W        W 7745   1.827  43.873  14.509
44187W        W 7746  33.045  29.152  13.429
44188W        W 7747  24.532  40.042  14.027
44189W        W 7748  26.207  31.613  10.995
44190W        W 7749  26.128  18.657   2.864
44191W        W 7750  42.526  31.027  10.946
44192W        W 7751  43.878  38.077   0.343
44193W        W 7752  39.836  16.665  14.446
44194W        W 7753  40.050  19.072  10.520
44195W        W 7754   9.212  28.022  10.577
44196W        W 7755  34.077   9.337  13.880
44197W        W 7756  37.042  30.925   9.500
44198W        W 7757  34.999   5.311  10.606
44199W        W 7758  32.554   1.402  11.046
44200W        W 7759  36.032   5.381   2.887
44201W        W 7760  12.190  32.536  10.606
44202W        W 7761  36.072  42.787  13.874
44203W        W 7762  30.157  22.158  12.395
44204W        W 7763  18.092  31.465   2.773
44205W        W 7764  28.955  10.816  14.299
44206W        W 7765  39.924  31.033   0.954
44207W        W 7766  10.380   1.428   2.267
44208W        W 7767  32.973  33.889  10.904
44209W        W 7768  38.839  43.785  10.491
44210W        W 7769  29.631  10.153  11.445
44211W        W 7770  21.180   9.755   3.181
44212W        W 7771  11.624  39.016  13.873
44213W        W 7772  25.673   5.923  11.504
44214W        W 7773  42.514  33.599  14.433
44215W        W 7774   3.747  17.759   3.333
44216W        W 7775  43.764  17.248   1.241
44217W        W 7776  29.633  15.223   0.372
44218W        W 7777  30.160   2.275   3.725
44219W        W 7778   2.918  26.177  12.360
44220W        W 7779  18.270  23.716  14.978
44221W        W 7780   9.363  21.734   1.888
44222W        W 7781   3.924  23.697  11.057
44223W        W 7782  14.233  32.076  12.345
44224W        W 7783  16.298  12.306   0.939
44225W        W 7784  31.140  39.055  11.515
44226W        W 7785  21.539  31.452  13.498
44227W        W 7786  31.634   8.694  11.978
44228W        W 7787  35.860  38.481  10.463
44229W        W 7788  14.727  30.446  14.822
44230W        W 7789  27.162  18.631  12.043
44231W        W 7790  33.877  12.249  14.887
44232W        W 7791  30.076  41.887   0.261
44233W        W 7792  22.515  42.855  11.030
44234W        W 7793   5.368   5.429   0.765
44235W        W 7794  22.723  18.101  13.475
44236W        W 7795  31.152  22.648   2.307
44237W        W 7796   2.821  22.501   0.328
44238W        W 7797  35.004  18.716  13.836
44239W        W 7798  20.654   0.418   2.356
44240W        W 7799  41.016  38.387  10.962
44241W        W 7800  19.630  21.038   2.709
44242W        W 7801  10.746  28.030  12.091
44243W        W 7802   5.702  34.864  14.904
44244W        W 7803   6.861  27.509   3.637
44245W        W 7804  16.176  11.689  11.554
44246W        W 7805  17.555   1.940  13.415
44247W        W 7806   6.229   7.302   0.826
44248W        W 7807  23.026  12.281   4.321
44249W        W 7808   0.959  32.620  12.423
44250W        W 7809  35.016   4.448   3.690
44251W        W 7810  18.672   5.754   3.286
44252W        W 7811  24.601  18.236  13.529
44253W        W 7812   0.880  39.898  13.469
44254W        W 7813  21.193  26.602   4.145
44255W        W 7814  11.835  18.095  14.973
44256W        W 7815  23.045   7.285  13.917
44257W        W 7816  24.696   3.841  11.379
44258W        W 7817  44.828  21.261  11.080
44259W        W 7818  17.223  32.529  14.920
44260W        W 7819   8.811   8.687   2.263
44261W        W 7820  10.240  19.628   1.328
44262W        W 7821  27.550  34.118   2.369
44263W        W 7822  32.035  27.673  10.031
44264W        W 7823   1.884  29.532  13.370
44265W        W 7824  39.315  41.841  14.882
44266W        W 7825  29.668  13.677  12.928
44267W        W 7826  26.634   5.871   2.666
44268W        W 7827  16.575  36.430   2.293
44269W        W 7828  24.151   1.751  12.834
44270W        W 7829  40.005  25.705   1.739
44271W        W 7830  15.674  11.796  13.458
44272W        W 7831  34.881   7.207   2.696
44273W        W 7832  39.373   5.395  11.965
44274W        W 7833  42.453   8.256  13.059
44275W        W 7834  16.219  27.510   2.833
44276W        W 7835  33.470  32.910  11.427
44277W        W 7836  16.628  19.734  11.561
44278W        W 7837  26.623  40.546  11.489
44279W        W 7838   7.700   9.704   1.782
44280W        W 7839  31.641   2.329  10.419
44281W        W 7840  16.314  44.260   1.263
44282W        W 7841   6.793  21.689  13.802
44283W        W 7842  23.083   8.369   3.864
44284W        W 7843  20.242  32.068  10.578
44285W        W 7844  31.970  32.554   4.796
44286W        W 7845  17.070  25.633   4.735
44287W        W 7846  23.594  31.048  12.020
44288W        W 7847   3.785  24.539  13.007
44289W        W 7848  32.511  10.150  13.314
44290W        W 7849   3.282  21.713  14.840
44291W        W 7850   1.470  40.369  11.877
44292W        W 7851  14.200  17.656   3.217
44293W        W 7852  27.153  33.978   4.217
44294W        W 7853  31.468   2.406   3.862
44295W        W 7854  15.258  28.498   3.197
44296W        W 7855  38.958  36.032  13.951
44297W        W 7856   6.827  14.752  14.770
44298W        W 7857  41.410  28.011   3.798
44299W        W 7858  17.558  29.038   3.640
44300W        W 7859  33.031  12.748   1.375
44301W        W 7860  28.029  38.413   1.333
44302W        W 7861  31.492  39.971   1.902
44303W        W 7862  25.998  36.053  11.455
44304W        W 7863   5.390  44.470  14.792
44305W        W 7864  12.273  10.834   2.183
44306W        W 7865  41.336  18.773   3.853
44307W        W 7866  40.884  37.032  12.527
44308W        W 7867   6.809  18.183   1.300
44309W        W 7868  10.293   1.883  12.950
44310W        W 7869  17.669  44.434   2.674
44311W        W 7870  26.582  25.996   1.891
44312W        W 7871  21.237   2.919   3.203
44313W        W 7872   1.780  22.026  11.103
44314W        W 7873  41.513  17.273  14.433
44315W        W 7874  14.175  22.088   0.899
44316W        W 7875  17.772  31.519  13.931
44317W        W 7876  36.906   1.883   4.205
44318W        W 7877  31.430  11.718  13.856
44319W        W 7878  29.094  13.324  10.915
44320W        W 7879   8.160   5.766   1.792
44321W        W 7880   0.920  28.031   0.358
44322W        W 7881   8.270  22.610   1.916
44323W        W 7882  10.378  17.759   4.287
44324W        W 7883  44.351  42.416  13.522
44325W        W 7884  27.494  33.018  10.434
44326W        W 7885  38.381   7.292  13.469
44327W        W 7886  25.014  19.214   2.188
44328W        W 7887   6.723   9.235  11.883
44329W        W 7888  21.070  21.045   3.824
44330W        W 7889  38.851   1.867  10.578
44331W        W 7890   2.375   4.764   3.343
44332W        W 7891  22.663  23.707   1.376
44333W        W 7892  26.144  26.703  14.998
44334W        W 7893  15.198   5.850  13.429
44335W        W 7894  14.299  36.087  10.906
44336W        W 7895   5.758   8.219  13.481
44337W        W 7896   5.883  23.149   1.900
44338W        W 7897   3.815  28.033   0.328
44339W        W 7898  30.029  44.456   9.984
44340W        W 7899   1.316  39.065   0.356
44341W        W 7900  29.167  33.499  10.553
44342W        W 7901  34.458  34.487   1.273
44343W        W 7902  26.701  25.010   3.668
44344W        W 7903  40.868   9.279  13.810
44345W        W 7904  32.964   3.237  12.465
44346W        W 7905  12.650  16.144  12.417
44347W        W 7906  14.217  33.533   1.841
44348W        W 7907  17.075  32.078   2.751
44349W        W 7908  15.692  18.232  13.455
44350W        W 7909   2.929  38.043  12.008
44351W        W 7910   1.900  28.653  13.416
44352W        W 7911  13.221  19.716  12.532
44353W        W 7912  16.719  43.879  13.851
44354W        W 7913  28.474  32.985   3.255
44355W        W 7914   6.923   6.362  13.485
44356W        W 7915  12.319  29.501   2.348
44357W        W 7916  30.973  26.553   0.941
44358W        W 7917  36.437  43.925   0.483
44359W        W 7918  29.637  37.548   4.660
44360W        W 7919  37.049  22.693   2.349
44361W        W 7920  43.320  34.392   2.695
44362W        W 7921  21.231  15.593  12.913
44363W        W 7922  33.398  36.984   3.318
44364W        W 7923   4.238  43.301   3.199
44365W        W 7924  20.525  26.027   3.380
44366W        W 7925  30.922   3.353   2.850
44367W        W 7926  28.068   1.840   1.358
44368W        W 7927   2.300  37.999  12.486
44369W        W 7928  11.853  33.461   1.446
44370W        W 7929   8.340  26.614  13.372
44371W        W 7930  12.227  24.642  11.481
44372W        W 7931   0.366  42.852  12.566
44373W        W 7932  35.878   7.173   4.723
44374W        W 7933   8.858  23.691  14.344
44375W        W 7934  33.489  22.539  14.889
44376W        W 7935  44.763  12.785   0.727
44377W        W 7936   8.771  13.251  12.371
44378W        W 7937  44.275   0.878   2.802
44379W        W 7938  37.514  36.460  13.361
44380W        W 7939  36.552   0.467  11.551
44381W        W 7940  14.686   3.285  10.888
44382W        W 7941  40.337  17.063   2.858
44383W        W 7942  22.108  40.859  12.507
44384W        W 7943   6.716  31.641  11.101
44385W        W 7944  21.084  32.036   2.790
44386W        W 7945  31.621  11.795   0.384
44387W        W 7946  30.138  15.162   2.230
44388W        W 7947  25.166   8.800  10.080
44389W        W 7948  33.978  38.923   2.776
44390W        W 7949  41.326  38.331  13.354
44391W        W 7950  19.745  14.205   1.772
44392W        W 7951   8.738   9.355  12.013
44393W        W 7952  34.578  12.853   3.241
44394W        W 7953   9.185  36.496  12.506
44395W        W 7954  34.535  32.037   0.898
44396W        W 7955  42.893  27.557   2.245
44397W        W 7956   1.331  33.055  10.603
44398W        W 7957  44.780  44.294  12.499
44399W        W 7958  32.998   6.395  12.847
44400W        W 7959  14.657  18.089   2.762
44401W        W 7960  24.195   0.333   1.213
44402W        W 7961  24.206  28.555   4.200
44403W        W 7962   7.347   5.727   1.341
44404W        W 7963  22.248   8.340  12.430
44405W        W 7964  29.652   5.381  10.984
44406W        W 7965   4.802  13.809  14.302
44407W        W 7966  35.109  13.796  12.578
44408W        W 7967  37.336   9.366   4.335
44409W        W 7968  18.189  42.002   2.222
44410W        W 7969  41.890   3.940   1.700
44411W        W 7970  12.662  22.533  13.485
44412W        W 7971   3.267   4.224  10.609
44413W        W 7972   2.301  30.030  14.837
44414W        W 7973  10.811  36.880  11.915
44415W        W 7974  15.752  23.020   4.142
44416W        W 7975  43.292  14.305  14.481
44417W        W 7976   1.263   3.449  14.898
44418W        W 7977  32.045   7.738   2.189
44419W        W 7978  38.911  17.650   1.279
44420W        W 7979  17.763  13.301  12.854
44421W        W 7980   6.706  12.741  11.410
44422W        W 7981  17.161  27.984  10.149
44423W        W 7982  33.509  11.739  10.914
44424W        W 7983  21.632  20.636  12.024
44425W        W 7984  16.660  27.540   2.806
44426W        W 7985  22.546  21.038  11.908
44427W        W 7986  27.985  42.476   1.879
44428W        W 7987  31.444  10.172  12.481
44429W        W 7988  16.748  43.304  12.889
44430W        W 7989  27.098  40.867   2.411
44431W        W 7990  26.183   7.836  13.394
44432W        W 7991  27.492  30.122  13.340
44433W        W 7992  14.114   6.916   3.649
44434W        W 7993  27.106  35.015   1.214
44435W        W 7994  37.369  25.212  11.885
44436W        W 7995  27.173  13.777  14.846
44437W        W 7996  42.385  10.705  13.972
44438W        W 7997   2.348  23.558  13.385
44439W        W 7998  15.139   5.698  11.607
44440W        W 7999  40.437  35.946   4.229
44441W        W 8000  31.482  17.160   2.334
44442W        W 8001  29.615  41.447   3.369
44443W        W 8002  35.387  37.529  12.348
44444W        W 8003  33.079  21.085   2.679
44445W        W 8004  29.105  27.581   3.646
44446W        W 8005  41.033  42.356   4.335
44447W        W 8006  42.512   7.177  12.877
44448W        W 8007  14.779   9.176  11.940
44449W        W 8008  37.489  39.054   0.729
44450W        W 8009  16.236   7.296   0.356
44451W        W 8010  29.929   2.739   3.764
44452W        W 8011  41.385   0.449   2.669
44453W        W 8012  27.012  40.331  12.943
44454W        W 8013  40.915  31.029  10.485
44455W        W 8014   5.409  37.908  12.457
44456W        W 8015  34.521  18.123   1.403
44457W        W 8016   1.479  21.723  13.990
44458W        W 8017   3.302  41.353   0.868
44459W        W 8018   6.903  36.870  13.845
44460W        W 8019  43.984   8.241  11.539
44461W        W 8020  17.198  14.821  13.834
44462W        W 8021  20.225  35.041   1.701
44463W        W 8022   7.274   4.877  13.003
44464W        W 8023  36.846  27.568  12.374
44465W        W 8024   5.249   5.846   3.760
44466W        W 8025  28.008   2.229  12.383
44467W        W 8026  13.778  11.254  10.936
44468W        W 8027   2.858  33.397   1.345
44469W        W 8028  36.420  34.413   0.751
44470W        W 8029  12.200  23.692  11.094
44471W        W 8030  28.673  21.236   2.370
44472W        W 8031   0.415   1.841  14.002
44473W        W 8032  36.482  35.603   2.720
44474W        W 8033  11.840  15.276   4.769
44475W        W 8034   3.424  16.655  14.904
44476W        W 8035  26.152  41.435   4.733
44477W        W 8036   4.426  18.718   1.229
44478W        W 8037  27.026  26.518  14.892
44479W        W 8038  11.272  41.357   1.409
44480W        W 8039  18.777  18.740  11.588
44481W        W 8040   1.267  36.938   3.382
44482W        W 8041  24.087  33.585   1.437
44483W        W 8042  35.974   7.302  13.795
44484W        W 8043  35.915  34.006  12.854
44485W        W 8044  33.888   6.296  14.991
44486W        W 8045  19.596   0.806   4.167
44487W        W 8046   6.304  32.454   4.198
44488W        W 8047  36.880  40.521  13.335
44489W        W 8048  43.019  22.600   5.169
44490W        W 8049  36.494  18.706  12.396
44491W        W 8050  26.480   8.323  12.445
44492W        W 8051  43.881  20.140   4.709
44493W        W 8052  12.844  23.522   4.329
44494W        W 8053  16.094  35.067  14.278
44495W        W 8054  16.175  41.986  11.923
44496W        W 8055  33.058  30.018   0.255
44497W        W 8056  22.022  13.287  12.530
44498W        W 8057  31.551  19.105  12.505
44499W        W 8058  41.294  41.454  12.952
44500W        W 8059  34.987  30.573  12.092
44501W        W 8060  27.507   9.259   2.810
44502W        W 8061  38.453  34.380  12.399
44503W        W 8062   7.348   5.230  13.327
44504W        W 8063   1.738  11.696   2.296
44505W        W 8064   3.368   3.332  10.570
44506W        W 8065  42.775   8.774  11.511
44507W        W 8066  23.530   0.490  10.440
44508W        W 8067  22.238  21.573  14.901
44509W        W 8068  29.517  13.803  11.436
44510W        W 8069  13.334  18.684   3.674
44511W        W 8070  29.060  41.321   4.302
44512W        W 8071  24.481  27.043   2.815
44513W        W 8072   2.336  43.805  14.888
44514W        W 8073  34.879  34.431   1.728
44515W        W 8074   0.280  10.234   2.679
44516W        W 8075  37.459  21.535   1.290
44517W        W 8076  44.892  30.459  12.962
44518W        W 8077  32.922  38.062   0.262
44519W        W 8078   0.975  12.242  13.498
44520W        W 8079  22.227   5.418  12.420
44521W        W 8080   0.315  38.872  14.887
44522W        W 8081  16.108  26.458   0.428
44523W        W 8082  40.857  40.015  12.339
44524W        W 8083   3.752  16.593   0.757
44525W        W 8084  39.943  15.602   4.333
44526W        W 8085  29.500  40.375   3.769
44527W        W 8086  42.291  22.632   2.753
44528W        W 8087  29.960   9.218  10.930
44529W        W 8088  39.541  10.859   2.241
44530W        W 8089  20.701  39.492   0.351
44531W        W 8090   8.385  30.467  11.036
44532W        W 8091  11.229   2.456   4.714
44533W        W 8092  16.123  11.324   2.359
44534W        W 8093  10.840  20.528  13.062
44535W        W 8094  37.384   8.704   3.272
44536W        W 8095  14.668  14.762  11.473
44537W        W 8096  26.489  23.690   5.254
44538W        W 8097  12.753  42.910   3.832
44539W        W 8098   4.428   5.302   1.289
44540W        W 8099   8.282  20.534  13.315
44541W        W 8100  40.911  28.592  13.946
44542W        W 8101  10.370   7.754  10.963
44543W        W 8102  28.544   8.354  12.577
44544W        W 8103  25.157  11.288   0.392
44545W        W 8104   0.494  20.636   4.758
44546W        W 8105  22.545  21.095  13.332
44547W        W 8106  24.088  39.382   3.214
44548W        W 8107  40.809  14.817  12.034
44549W        W 8108   7.232  22.565   3.651
44550W        W 8109  24.599  27.554  11.473
44551W        W 8110  17.297  10.677   2.204
44552W        W 8111  39.376   3.439  14.501
44553W        W 8112   8.333  34.556  11.003
44554W        W 8113  15.578   8.347  10.125
44555W        W 8114  31.630   4.917   4.250
44556W        W 8115  17.757  11.804   0.335
44557W        W 8116  21.653  31.917   2.313
44558W        W 8117  18.746  30.125   1.732
44559W        W 8118  22.729  40.436   3.251
44560W        W 8119  37.868  19.620  14.387
44561W        W 8120   2.943  23.731   4.352
44562W        W 8121  13.727  39.987   3.243
44563W        W 8122  28.507  32.139   0.348
44564W        W 8123  38.942  15.215  11.037
44565W        W 8124  37.840   2.801   2.267
44566W        W 8125  36.008   0.864  10.554
44567W        W 8126   7.285  42.488  10.938
44568W        W 8127   6.274   2.301  13.064
44569W        W 8128  17.083  19.602   2.364
44570W        W 8129  15.786  22.027   5.264
44571W        W 8130  42.834  21.135   4.114
44572W        W 8131  14.214  21.081  11.473
44573W        W 8132  26.170  40.857   3.859
44574W        W 8133   9.874  26.022   0.813
44575W        W 8134   4.906  19.241  12.917
44576W        W 8135  37.402   6.209  14.427
44577W        W 8136  19.057  10.160  13.898
44578W        W 8137  39.980  21.049  13.889
44579W        W 8138  12.759  35.038   0.841
44580W        W 8139   3.883  38.325   3.749
44581W        W 8140  26.047  34.502   4.352
44582W        W 8141  13.778   1.439   4.224
44583W        W 8142  34.601  16.740   0.853
44584W        W 8143   8.829  40.489   3.630
44585W        W 8144  42.425   2.888   0.360
44586W        W 8145  32.926  32.057   3.713
44587W        W 8146   2.941  18.101   3.294
44588W        W 8147   1.950  16.275  14.319
44589W        W 8148  32.063  41.970  12.514
44590W        W 8149  33.519  29.924   4.607
44591W        W 8150  36.504   7.800  12.543
44592W        W 8151  31.066  27.496   0.252
44593W        W 8152  17.578  10.844   2.389
44594W        W 8153  36.495  38.561  14.889
44595W        W 8154   7.857  29.051  13.982
44596W        W 8155  40.862  25.499   3.827
44597W        W 8156  28.654  42.970  10.459
44598W        W 8157  40.001   6.406  12.943
44599W        W 8158   0.284   3.804  11.447
44600W        W 8159  12.628  24.169  12.039
44601W        W 8160  39.938  20.602   3.664
44602W        W 8161  30.076  27.578  12.922
44603W        W 8162  12.737  43.983   0.284
44604W        W 8163  11.300  24.181  10.557
44605W        W 8164  12.852  13.760  14.852
44606W        W 8165  40.399  30.027   2.360
44607W        W 8166  40.530   0.913  10.938
44608W        W 8167  34.508  42.973  13.369
44609W        W 8168   3.382   5.716  11.388
44610W        W 8169   0.936  26.481  12.021
44611W        W 8170  26.492   6.702  11.504
44612W        W 8171  37.352   7.272   2.797
44613W        W 8172  43.851  25.076   1.708
44614W        W 8173  35.871  36.990   4.288
44615W        W 8174  42.840  24.101  14.325
44616W        W 8175  41.438  25.077   3.703
44617W        W 8176  33.119  13.301   2.354
44618W        W 8177  37.353  33.093  13.361
44619W        W 8178   2.298  11.228  10.555
44620W        W 8179  21.633  37.990   0.401
44621W        W 8180  17.613  36.365  10.931
44622W        W 8181  25.561  43.988   2.178
44623W        W 8182  12.166  14.808  13.416
44624W        W 8183  29.435  42.986   2.278
44625W        W 8184  40.920  36.071  13.824
44626W        W 8185  19.600  17.177  10.488
44627W        W 8186  28.123   8.669   4.710
44628W        W 8187   9.683   8.396   4.126
44629W        W 8188   0.415  37.839  12.465
44630W        W 8189  35.996  44.894  11.592
44631W        W 8190   3.419  26.969   2.221
44632W        W 8191   5.890  37.345   1.815
44633W        W 8192  38.485  36.935  11.028
44634W        W 8193  29.605  39.467   1.372
44635W        W 8194  37.083  30.154   0.810
44636W        W 8195   4.829  15.329   3.839
44637W        W 8196  37.457  20.146  14.355
44638W        W 8197  24.159  29.007  13.353
44639W        W 8198  31.929  17.072  12.901
44640W        W 8199  37.859   2.327   4.302
44641W        W 8200  23.529   8.847  14.008
44642W        W 8201  36.863  44.841   1.343
44643W        W 8202  38.901  44.293  12.843
44644W        W 8203   7.691  37.412  11.897
44645W        W 8204  14.260  27.110   9.590
44646W        W 8205  10.843  29.500   3.150
44647W        W 8206  14.713  33.918  10.495
44648W        W 8207   4.330  29.532   2.347
44649W        W 8208  43.500  22.046  11.865
44650W        W 8209  13.658   5.243   0.965
44651W        W 8210  33.531  22.507  13.951
44652W        W 8211  43.317  23.659  13.971
44653W        W 8212   1.813   9.823   4.766
44654W        W 8213  36.997   1.852   3.846
44655W        W 8214  31.028  37.880  11.862
44656W        W 8215  36.413  32.498  14.472
44657W        W 8216  20.643  44.372   0.341
44658W        W 8217  42.357  32.085   3.861
44659W        W 8218  11.289  15.180  12.391
44660W        W 8219   3.321  27.131   0.913
44661W        W 8220  34.549   5.298   4.270
44662W        W 8221  15.115   2.880   2.699
44663W        W 8222  42.293  35.512   4.671
44664W        W 8223  31.044   6.238  14.453
44665W        W 8224  12.156  25.037   1.880
44666W        W 8225  28.018  33.954  10.949
44667W        W 8226   6.857   5.387  10.623
44668W        W 8227   9.229  36.084   1.327
44669W        W 8228  30.499  14.264  12.975
44670W        W 8229  19.253  17.659  11.522
44671W        W 8230  20.636  23.681   0.437
44672W        W 8231  39.051   2.411  13.849
44673W        W 8232  37.923  26.114   0.947
44674W        W 8233  10.261  29.143   3.233
44675W        W 8234   7.383  28.622  13.019
44676W        W 8235  28.983  25.627   3.174
44677W        W 8236  26.975  10.193   4.662
44678W        W 8237  15.157  34.000   1.350
44679W        W 8238  18.119  35.491   3.248
44680W        W 8239  40.463   9.778  14.327
44681W        W 8240   9.847   3.215   2.743
44682W        W 8241  31.637  28.122   4.217
44683W        W 8242   7.192  38.958   2.781
44684W        W 8243  20.154  20.548  12.428
44685W        W 8244  36.872  27.086   3.860
44686W        W 8245  39.528   6.381   1.362
44687W        W 8246   6.741   9.284   2.271
44688W        W 8247  10.808   3.304   4.296
44689W        W 8248  25.635  21.634   3.325
44690W        W 8249  36.554  34.517  14.814
44691W        W 8250  38.415  27.691  10.958
44692W        W 8251  11.848  30.629  11.923
44693W        W 8252  24.543  38.456  12.503
44694W        W 8253  14.219  21.611  10.641
44695W        W 8254   7.278   2.799  14.961
44696W        W 8255  17.667   1.408  11.608
44697W        W 8256   0.370   2.854   2.667
44698W        W 8257  37.450   5.212  14.285
44699W        W 8258  39.522  38.897  13.063
44700W        W 8259  38.506   0.396  14.894
44701W        W 8260  11.808   6.368  13.854
44702W        W 8261   5.329  38.500   0.869
44703W        W 8262  10.271  16.217   3.197
44704W        W 8263   8.716  34.012   3.330
44705W        W 8264  26.514  39.558  12.383
44706W        W 8265   1.281  33.078   2.857
44707W        W 8266  26.661  10.821  12.545
44708W        W 8267  20.753   6.855   0.850
44709W        W 8268  31.555  38.379   9.606
44710W        W 8269  13.637  31.106  12.012
44711W        W 8270  41.517   7.287   3.175
44712W        W 8271  20.062  44.863   3.232
44713W        W 8272  12.776  33.908   5.208
44714W        W 8273  32.511  34.054   1.407
44715W        W 8274  20.631   9.258   1.865
44716W        W 8275   6.215  18.184  11.495
44717W        W 8276   0.856   0.766  11.869
44718W        W 8277   6.686   5.827   4.620
44719W        W 8278  14.607  43.776  10.904
44720W        W 8279  15.318   0.374  14.881
44721W        W 8280  19.058  38.868   0.848
44722W        W 8281  27.960   1.342  10.586
44723W        W 8282  29.482   6.350  11.908
44724W        W 8283  20.147  29.520   3.342
44725W        W 8284  41.989  24.101  13.946
44726W        W 8285  19.609  24.128  14.461
44727W        W 8286  36.902   4.779  12.910
44728W        W 8287  34.944  27.682   4.216
44729W        W 8288  22.647  10.217   3.297
44730W        W 8289  19.551   3.306   4.204
44731W        W 8290  23.082   2.395   1.439
44732W        W 8291  27.955  27.181  10.626
44733W        W 8292  24.994  37.069   2.827
44734W        W 8293  39.403  42.001   1.399
44735W        W 8294  38.832  41.302  11.009
44736W        W 8295  10.795  20.595  13.936
44737W        W 8296  41.326   4.722   3.206
44738W        W 8297   4.886   2.958  14.985
44739W        W 8298   8.273  28.515  13.500
44740W        W 8299  35.100   7.847   9.947
44741W        W 8300   9.885  30.108   3.750
44742W        W 8301  29.439   3.263  12.889
44743W        W 8302  17.093  15.595  13.837
44744W        W 8303  12.136   6.221  13.023
44745W        W 8304  22.611  37.494   4.656
44746W        W 8305  18.733  28.588  11.604
44747W        W 8306   1.247  36.907  10.562
44748W        W 8307  10.805  34.608   4.187
44749W        W 8308  11.767  36.087  13.308
44750W        W 8309  38.485  40.532   3.274
44751W        W 8310  44.379   1.796   1.419
44752W        W 8311  28.173  23.105  10.962
44753W        W 8312  38.828  39.003  14.355
44754W        W 8313   2.434   9.737   2.809
44755W        W 8314  27.103  37.879  12.969
44756W        W 8315  11.244  11.735   4.612
44757W        W 8316  23.109   7.331  12.493
44758W        W 8317   2.895  44.827  11.574
44759W        W 8318  32.541  40.865   4.828
44760W        W 8319  39.822  44.393   3.376
44761W        W 8320   9.832  40.914  10.421
44762W        W 8321  18.722  27.037   0.448
44763W        W 8322  33.079  26.566  12.480
44764W        W 8323  22.031  25.571   0.739
44765W        W 8324  30.128   8.707   3.702
44766W        W 8325  18.097  23.687   1.755
44767W        W 8326  36.535  15.325  11.394
44768W        W 8327   0.403  16.663   0.307
44769W        W 8328  29.140   6.416   0.799
44770W        W 8329  32.029  44.324   2.837
44771W        W 8330  20.560  42.815  11.444
44772W        W 8331  16.107  41.885   1.390
44773W        W 8332   2.326  29.167   1.216
44774W        W 8333  16.236  13.330   3.370
44775W        W 8334  29.500   4.443  13.319
44776W        W 8335  24.079  41.514  12.500
44777W        W 8336  20.662  22.628   1.719
44778W        W 8337   9.847  27.022   3.184
44779W        W 8338  42.871  27.033  10.640
44780W        W 8339  24.660   3.720   1.327
44781W        W 8340   4.928  43.950  14.453
44782W        W 8341  39.356   7.371   0.915
44783W        W 8342  41.960  10.854   4.156
44784W        W 8343   9.821  39.015  13.331
44785W        W 8344   4.334   7.669   4.719
44786W        W 8345  33.468  43.880  12.910
44787W        W 8346   1.847  34.944   3.688
44788W        W 8347  22.614  37.553   0.461
44789W        W 8348   4.826  24.206   0.379
44790W        W 8349   2.791  36.957   4.838
44791W        W 8350  41.363   7.293  12.977
44792W        W 8351  32.526  41.328   4.728
44793W        W 8352  23.631   9.656   4.352
44794W        W 8353   3.295  15.085  10.092
44795W        W 8354  37.502  19.241  14.384
44796W        W 8355  40.910  33.510  12.565
44797W        W 8356  11.351  22.024  14.971
44798W        W 8357  37.054   5.905  14.443
44799W        W 8358  20.101  43.343  11.929
44800W        W 8359  22.579  31.940  12.022
44801W        W 8360  23.548  35.402   2.416
44802W        W 8361  28.481  14.642  13.541
44803W        W 8362  41.452   0.788   2.781
44804W        W 8363  43.377  17.797   1.354
44805W        W 8364   6.701  31.495   4.649
44806W        W 8365  28.475  40.456  14.281
44807W        W 8366  12.719   6.255  12.086
44808W        W 8367  42.370  14.308  11.522
44809W        W 8368  33.049   6.880  12.919
44810W        W 8369  39.852  27.574  14.486
44811W        W 8370  23.192  33.564  12.580
44812W        W 8371  35.579  26.098   1.315
44813W        W 8372  11.794  23.710  11.048
44814W        W 8373  26.117   4.421   2.735
44815W        W 8374  30.538  11.821   3.229
44816W        W 8375  26.073  27.058   1.298
44817W        W 8376  43.954  16.787   3.187
44818W        W 8377  10.737  21.226  14.435
44819W        W 8378  39.469   9.739  14.482
44820W        W 8379  21.077  36.403  11.497
44821W        W 8380  14.832  43.335  12.827
44822W        W 8381  21.201  44.383   3.288
44823W        W 8382  14.249  32.621  10.980
44824W        W 8383   2.339  38.980  14.781
44825W        W 8384  35.561   0.765  11.429
44826W        W 8385  31.607   5.292   0.825
44827W        W 8386  24.091  43.923   2.210
44828W        W 8387  20.769   1.357   3.794
44829W        W 8388  24.661  24.059   5.313
44830W        W 8389  31.062  22.139   3.239
44831W        W 8390  24.625  11.193  11.011
44832W        W 8391   1.803  20.199  14.974
44833W        W 8392   8.190   3.380   4.779
44834W        W 8393   0.342  15.598  12.474
44835W        W 8394  23.137  16.649   4.695
44836W        W 8395  44.936  40.888   4.328
44837W        W 8396   1.376  34.485   1.863
44838W        W 8397  31.933  33.050  12.874
44839W        W 8398  24.017  24.172   9.923
44840W        W 8399   5.749  33.584  12.348
44841W        W 8400  19.559  37.362   1.275
44842W        W 8401  44.296  34.611  10.090
44843W        W 8402  24.629   9.293   4.284
44844W        W 8403  16.314  40.010   4.312
44845W        W 8404  11.681  38.031   9.506
44846W        W 8405  30.011  15.226   4.833
44847W        W 8406   2.274  35.473   1.381
44848W        W 8407  29.539  39.021   0.890
44849W        W 8408  10.186  28.029  12.541
44850W        W 8409   5.891   8.802   2.315
44851W        W 8410  24.501  37.428  14.786
44852W        W 8411  31.933  23.088  12.563
44853W        W 8412  23.557  20.663  10.991
44854W        W 8413   6.394  19.536   4.820
44855W        W 8414  37.367  24.551  14.965
44856W        W 8415  22.713  25.488  12.888
44857W        W 8416  25.481  41.864   2.354
44858W        W 8417  39.444  13.338   0.884
44859W        W 8418  17.583  43.382   2.663
44860W        W 8419  10.662  32.120  12.851
44861W        W 8420   6.897  15.259   1.296
44862W        W 8421  25.554   1.362   2.719
44863W        W 8422  26.159  16.130  11.031
44864W        W 8423  22.150  41.010   3.732
44865W        W 8424   4.204  13.228   4.603
44866W        W 8425   0.437  16.094   1.266
44867W        W 8426  27.963  28.628  13.841
44868W        W 8427   8.395  24.526  10.445
44869W        W 8428  37.367  25.999  14.988
44870W        W 8429  29.634  29.587  14.290
44871W        W 8430  21.542   5.202  11.901
44872W        W 8431  28.528  19.212  12.019
44873W        W 8432  23.560   6.887   0.943
44874W        W 8433  29.000  17.671  11.423
44875W        W 8434  43.844  19.104  12.843
44876W        W 8435  30.104   2.447   1.365
44877W        W 8436  27.076   3.383   2.797
44878W        W 8437  41.419  16.146   2.210
44879W        W 8438  20.113  33.130   2.370
44880W        W 8439  32.608  13.829   2.189
44881W        W 8440  43.438   9.156  11.978
44882W        W 8441  12.687  36.015  12.046
44883W        W 8442  40.413  28.605   4.279
44884W        W 8443  34.952  21.258  14.992
44885W        W 8444  33.606   5.822  11.070
44886W        W 8445  39.353  22.219  13.525
44887W        W 8446   9.160  20.111  13.793
44888W        W 8447  32.117  19.634   1.925
44889W        W 8448  20.115  16.213   0.436
44890W        W 8449   3.826  35.108  11.525
44891W        W 8450   3.744  22.033   3.226
44892W        W 8451  22.006  32.894   1.431
44893W        W 8452  26.113  37.434   0.346
44894W        W 8453  27.520   2.255   2.319
44895W        W 8454  12.653   7.243  11.919
44896W        W 8455  30.907   7.721  12.571
44897W        W 8456  38.438  15.589  13.813
44898W        W 8457  21.724  39.464   1.332
44899W        W 8458  37.463  18.189  11.020
44900W        W 8459  19.198  44.287  12.501
44901W        W 8460   2.887   2.932  13.798
44902W        W 8461  22.575  11.664   2.204
44903W        W 8462  17.122  15.198   1.451
44904W        W 8463  19.095  39.868  10.452
44905W        W 8464  31.603  26.204   1.866
44906W        W 8465  27.132  30.450  11.421
44907W        W 8466  25.056  20.763  13.886
44908W        W 8467   4.290   1.423   0.772
44909W        W 8468  32.057   6.220  14.511
44910W        W 8469   2.928  44.815  12.830
44911W        W 8470  35.535  28.048   4.787
44912W        W 8471  20.256  35.366   3.221
44913W        W 8472  40.494  20.681  13.340
44914W        W 8473  25.002  23.580  12.438
44915W        W 8474  17.638   4.852   3.195
44916W        W 8475  12.259  12.681   1.696
44917W        W 8476  15.156   3.384  10.538
44918W        W 8477  35.063  43.383  10.996
44919W        W 8478  31.490  25.708  12.498
44920W        W 8479  22.575  39.511  10.513
44921W        W 8480  42.980  27.122  11.979
44922W        W 8481   2.764  38.072  14.450
44923W        W 8482  14.665  26.521   1.437
44924W        W 8483  36.089  35.917   0.478
44925W        W 8484  19.155   5.313   1.933
44926W        W 8485  18.140  24.503   0.731
44927W        W 8486  23.152  26.505  13.523
44928W        W 8487  37.431  33.890   0.429
44929W        W 8488  26.668  11.859  13.862
44930W        W 8489  29.018   4.755   4.811
44931W        W 8490  25.470  38.549  12.556
44932W        W 8491   2.793  23.734  14.003
44933W        W 8492   4.268   0.849  12.876
44934W        W 8493  29.629  39.493  14.877
44935W        W 8494  16.583  22.078  13.899
44936W        W 8495  18.784  20.740  10.406
44937W        W 8496  25.994  12.207   3.787
44938W        W 8497  41.510   2.961  14.927
44939W        W 8498  34.566   8.700  11.864
44940W        W 8499  39.418  39.004   2.707
44941W        W 8500  19.554  25.063  10.434
44942W        W 8501  30.009  23.204   9.617
44943W        W 8502  17.715  19.562   0.415
44944W        W 8503  29.646  31.933  13.053
44945W        W 8504  35.408  37.407   2.731
44946W        W 8505   0.254  30.975  13.403
44947W        W 8506  21.544  12.639   1.354
44948W        W 8507   9.735  32.581   3.845
44949W        W 8508  37.957  36.409   2.303
44950W        W 8509   0.324  13.743  10.593
44951W        W 8510  23.150  13.113   2.812
44952W        W 8511  42.507  13.132   3.355
44953W        W 8512  31.058  22.632   9.936
44954W        W 8513  18.614  37.549  13.401
44955W        W 8514   8.683  36.465   3.326
44956W        W 8515  10.357  10.847  14.466
44957W        W 8516  20.263  41.830  14.431
44958W        W 8517  16.778  37.456  11.862
44959W        W 8518  10.666  39.457   0.391
44960W        W 8519  16.316  42.894  10.148
44961W        W 8520  13.338   1.820   4.278
44962W        W 8521   7.884   7.837   4.124
44963W        W 8522  39.849  35.412  14.766
44964W        W 8523  35.410   2.905   3.319
44965W        W 8524  22.541  21.723   0.767
44966W        W 8525  41.988  22.024  10.471
44967W        W 8526  27.638  22.072  11.958
44968W        W 8527  13.769   7.685   0.334
44969W        W 8528  30.553  15.767   3.688
44970W        W 8529  29.166  11.846  10.914
44971W        W 8530   0.835  20.058   1.758
44972W        W 8531  36.557  34.492  13.352
44973W        W 8532  17.224  38.933  11.406
44974W        W 8533  38.001   9.732   2.207
44975W        W 8534  20.689  34.984  13.510
44976W        W 8535  32.596  12.775  14.777
44977W        W 8536   4.310  37.077  12.966
44978W        W 8537  37.964  13.764   3.216
44979W        W 8538  26.538  10.226   3.191
44980W        W 8539  37.572  22.502  11.054
44981W        W 8540   6.790  27.032  14.996
44982W        W 8541   6.754  38.959  14.455
44983W        W 8542   0.967  15.265   1.741
44984W        W 8543   2.353  19.689  12.343
44985W        W 8544   3.912   4.385  11.071
44986W        W 8545  21.585  32.030  14.847
44987W        W 8546  12.649  37.073   4.195
44988W        W 8547  39.342  38.399  10.567
44989W        W 8548  39.421  20.091   1.921
44990W        W 8549  12.196   7.694  14.487
44991W        W 8550  29.153  11.856  14.977
44992W        W 8551  39.438   6.921   0.915
44993W        W 8552  34.971  23.523   0.428
44994W        W 8553  18.660  29.462   1.762
44995W        W 8554  44.496   1.371   1.903
44996W        W 8555  36.978  12.135   1.378
44997W        W 8556   8.382  35.390  12.906
44998W        W 8557  10.854   0.461  10.966
44999W        W 8558  23.993  39.542   4.782
45000W        W 8559  27.446   2.766  10.610
45001W        W 8560   3.267  44.979   3.829
45002W        W 8561   8.352   9.378  12.420
45003W        W 8562  37.015   4.889  10.578
45004W        W 8563  12.639  22.606  12.081
45005W        W 8564  44.780  22.646   1.251
45006W        W 8565  15.672  33.885  12.403
45007W        W 8566  24.675  43.516  12.551
45008W        W 8567  37.401  26.612   2.248
45009W        W 8568  13.253  41.975  11.416
45010W        W 8569  24.150  13.784   0.471
45011W        W 8570  28.640   0.263   4.598
45012W        W 8571  15.727   2.461  10.566
45013W        W 8572  23.016  21.245  12.874
45014W        W 8573  22.228  18.209   3.179
45015W        W 8574   9.328  25.016  11.472
45016W        W 8575  28.665   0.456   0.858
45017W        W 8576   0.785  28.627   1.376
45018W        W 8577  25.530  32.887   2.686
45019W        W 8578  16.799  41.002  10.635
45020W        W 8579  31.431   3.778  12.536
45021W        W 8580  14.186   4.870   3.290
45022W        W 8581  42.026  28.553   4.132
45023W        W 8582  11.623  15.718  14.995
45024W        W 8583  39.030  20.229   1.213
45025W        W 8584  20.156  28.979  11.933
45026W        W 8585  29.029   5.930  13.321
45027W        W 8586  42.024  19.616  14.991
45028W        W 8587   2.896  20.609  10.563
45029W        W 8588   9.724  40.540  10.997
45030W        W 8589  11.633  39.521  10.553
45031W        W 8590  22.123  15.629  12.953
45032W        W 8591  14.777  33.610  13.468
45033W        W 8592  16.759   8.374  12.833
45034W        W 8593  16.214   9.350   4.793
45035W        W 8594  42.013  12.335  12.430
45036W        W 8595  30.635  43.433  10.461
45037W        W 8596  44.389  18.280  13.532
45038W        W 8597  44.941   2.329  14.916
45039W        W 8598   0.854  22.640   4.712
45040W        W 8599  34.402  14.289  14.308
45041W        W 8600   2.759   4.354  10.419
45042W        W 8601  20.048  33.012   1.758
45043W        W 8602   1.419   2.956  13.431
45044W        W 8603  43.006  26.992   3.282
45045W        W 8604  19.648  29.606   3.725
45046W        W 8605  42.372  35.854  11.864
45047W        W 8606  38.397  31.608   3.169
45048W        W 8607  20.576   8.752  10.582
45049W        W 8608   9.677  25.182   1.441
45050W        W 8609  17.302  36.433   3.770
45051W        W 8610  14.328  44.919   3.676
45052W        W 8611   2.844  12.742  14.967
45053W        W 8612  27.518  29.056   2.758
45054W        W 8613   6.243  25.014   4.150
45055W        W 8614  19.647  32.603  14.350
45056W        W 8615  24.531   9.727   0.414
45057W        W 8616  16.226  10.777  10.603
45058W        W 8617  38.914   8.339   4.302
45059W        W 8618  32.046   7.839   0.906
45060W        W 8619  35.895  34.501  14.473
45061W        W 8620   5.769  37.971  12.019
45062W        W 8621   8.297  37.985  10.923
45063W        W 8622  29.508  18.673  12.932
45064W        W 8623  28.625  12.187   4.249
45065W        W 8624  29.131  13.744   2.381
45066W        W 8625  31.415   8.834  14.926
45067W        W 8626  13.707   7.781   2.704
45068W        W 8627  21.692  14.170  11.393
45069W        W 8628   0.791  24.039   9.992
45070W        W 8629   8.166  37.996  13.402
45071W        W 8630   0.374   7.837  12.051
45072W        W 8631  25.072  40.533   3.663
45073W        W 8632   9.719   0.396   1.371
45074W        W 8633  24.617  31.068  12.577
45075W        W 8634   2.775   8.852   4.674
45076W        W 8635  39.029  42.783   3.669
45077W        W 8636  18.549  26.660  14.767
45078W        W 8637  16.108  36.865   2.680
45079W        W 8638  38.499  16.265  10.554
45080W        W 8639  14.728   2.921  12.059
45081W        W 8640  27.052   1.931   4.837
45082W        W 8641  27.690   6.825  13.381
45083W        W 8642  11.753  17.658  10.580
45084W        W 8643   0.778  21.021  13.354
45085W        W 8644  22.165  15.233  13.491
45086W        W 8645  15.578  38.054   0.282
45087W        W 8646  40.019  42.797   1.236
45088W        W 8647   3.803  19.118  10.508
45089W        W 8648  40.329   8.709  10.920
45090W        W 8649   9.884  26.579  14.988
45091W        W 8650  32.479  42.911  13.878
45092W        W 8651  43.811   1.929  13.927
45093W        W 8652  16.276   7.368   0.939
45094W        W 8653  20.566  30.079   0.861
45095W        W 8654   2.359  18.709   4.778
45096W        W 8655  32.552  21.075  13.995
45097W        W 8656  23.727  39.537  14.977
45098W        W 8657  42.905   8.404   0.300
45099W        W 8658  33.479  18.731  10.416
45100W        W 8659  22.521  18.684   1.802
45101W        W 8660  39.853  43.943  11.856
45102W        W 8661  29.053  43.292   3.827
45103W        W 8662   7.738   5.925  13.796
45104W        W 8663  10.286  20.061   3.270
45105W        W 8664  11.642  37.069   2.376
45106W        W 8665   3.409   2.403  14.399
45107W        W 8666   5.316   8.758  14.911
45108W        W 8667  11.266  27.003   3.192
45109W        W 8668   6.734   3.358   1.375
45110W        W 8669  23.683   1.917   1.261
45111W        W 8670  25.205  42.004  14.505
45112W        W 8671   2.346  37.548   3.268
45113W        W 8672  28.083  10.209  10.600
45114W        W 8673  26.655  37.057  11.569
45115W        W 8674  31.482  10.318  11.866
45116W        W 8675  24.116  33.525  10.892
45117W        W 8676  39.017  20.066  14.986
45118W        W 8677   5.886   2.281   3.866
45119W        W 8678  31.071  20.036   2.400
45120W        W 8679   4.421  44.437  12.522
45121W        W 8680  35.924  15.256  14.412
45122W        W 8681   0.276   6.740   1.867
45123W        W 8682  41.036  42.964  11.514
45124W        W 8683   7.389  35.420   0.896
45125W        W 8684  36.396   4.424   4.657
45126W        W 8685  35.458  31.928   4.780
45127W        W 8686   8.214  25.489   2.241
45128W        W 8687  19.082   7.881   0.884
45129W        W 8688  19.086  17.117   4.713
45130W        W 8689  43.953  14.825  11.068
45131W        W 8690  31.437  43.012   3.226
45132W        W 8691  30.477   3.952   3.771
45133W        W 8692  11.717  31.637   2.755
45134W        W 8693  44.946  29.053  14.286
45135W        W 8694  44.432   7.721  11.062
45136W        W 8695  39.042  14.289   2.305
45137W        W 8696  38.554  25.583   3.843
45138W        W 8697   9.787  14.686   5.700
45139W        W 8698  30.932  17.276   5.092
45140W        W 8699  15.305  23.517  11.536
45141W        W 8700   4.228   8.340  14.867
45142W        W 8701  41.362  21.663   1.375
45143W        W 8702   6.823   0.396   1.219
45144W        W 8703   8.294  14.264  14.911
45145W        W 8704   6.861  25.512  12.062
45146W        W 8705  41.002  26.519  13.036
45147W        W 8706   9.754   8.824  12.053
45148W        W 8707  29.009  44.802  12.035
45149W        W 8708  29.612  13.217   4.140
45150W        W 8709   0.832  39.836  14.979
45151W        W 8710  20.571  31.103  14.903
45152W        W 8711  32.887   8.761   5.088
45153W        W 8712  11.715  14.817  13.960
45154W        W 8713   7.684  12.646   3.703
45155W        W 8714   3.438   1.922   1.856
45156W        W 8715   2.447  17.252  12.022
45157W        W 8716  21.134   9.323   1.338
45158W        W 8717  37.971   4.207  11.964
45159W        W 8718   6.203  28.985  12.971
45160W        W 8719  10.354  33.949   3.310
45161W        W 8720  41.932   0.886  10.912
45162W        W 8721  18.776  15.123   3.665
45163W        W 8722  44.868   3.806   3.276
45164W        W 8723  26.564  28.594  10.414
45165W        W 8724  12.820  12.264  11.469
45166W        W 8725  37.548  40.414   3.259
45167W        W 8726  33.946   4.346  14.415
45168W        W 8727  36.465  18.712  14.979
45169W        W 8728  22.511   2.882  14.835
45170W        W 8729  23.492   0.378   1.708
45171W        W 8730  42.840  25.672  10.436
45172W        W 8731  14.621  26.166  12.930
45173W        W 8732  33.580  18.254  10.643
45174W        W 8733  35.878  31.565   5.196
45175W        W 8734  14.823  28.049  13.026
45176W        W 8735  38.475  12.283  10.536
45177W        W 8736  23.674   4.856  12.873
45178W        W 8737  39.979   3.850  11.567
45179W        W 8738  36.491  44.344  12.495
45180W        W 8739  33.049  18.674   2.714
45181W        W 8740  37.346   2.963   2.190
45182W        W 8741  21.077  10.254  11.991
45183W        W 8742  39.906  44.384   2.774
45184W        W 8743   9.173  30.139  13.376
45185W        W 8744  33.400   6.352  12.990
45186W        W 8745   3.367  24.563   4.314
45187W        W 8746  32.907   4.733   4.693
45188W        W 8747  34.086  14.150  13.362
45189W        W 8748  16.213  42.454  14.981
45190W        W 8749  24.628  22.531   9.670
45191W        W 8750  38.833  13.616  14.915
45192W        W 8751  29.435  16.140  14.276
45193W        W 8752  10.282  15.794   1.401
45194W        W 8753  33.480  42.503   2.765
45195W        W 8754  18.093  12.173   4.629
45196W        W 8755  11.355  42.781  13.824
45197W        W 8756  37.538  36.926   0.853
45198W        W 8757  20.698  16.666  11.095
45199W        W 8758   8.248  33.384   3.854
45200W        W 8759  27.650   5.439  12.039
45201W        W 8760  35.537  10.200   1.413
45202W        W 8761   4.760  25.567  12.516
45203W        W 8762  31.587  34.991   0.736
45204W        W 8763  15.666   4.920  10.069
45205W        W 8764  26.963  31.488   0.817
45206W        W 8765   3.437  30.946   0.953
45207W        W 8766   7.272  11.128  13.870
45208W        W 8767  42.436  27.093  12.571
45209W        W 8768   7.412  15.088   0.431
45210W        W 8769   5.885   0.970   0.802
45211W        W 8770   2.293  35.980   9.945
45212W        W 8771   1.763  38.420  12.445
45213W        W 8772  18.228   7.805   3.183
45214W        W 8773   9.693  21.671   2.883
45215W        W 8774  27.532   5.417   0.398
45216W        W 8775  42.795  19.232   3.730
45217W        W 8776  15.106  17.716  12.827
45218W        W 8777  36.090  24.683   2.259
45219W        W 8778   3.869  26.512   1.411
45220W        W 8779   1.457  22.652  10.481
45221W        W 8780  25.688  23.495   5.253
45222W        W 8781  32.937  40.504   0.284
45223W        W 8782  30.417  42.367   3.261
45224W        W 8783  41.001  39.313   3.330
45225W        W 8784  38.390  32.908   4.233
45226W        W 8785  29.517  32.610  10.634
45227W        W 8786  37.344  39.062  11.112
45228W        W 8787  35.942  35.509  13.905
45229W        W 8788  39.472  36.914   0.814
45230W        W 8789  30.122  20.245   1.784
45231W        W 8790  17.590   7.679  10.931
45232W        W 8791  21.574  35.017   1.762
45233W        W 8792   0.426  30.627   4.155
45234W        W 8793   6.295   8.175   3.639
45235W        W 8794  19.550   3.322  14.486
45236W        W 8795  42.480  16.228   1.747
45237W        W 8796  26.681  27.545  13.499
45238W        W 8797  22.223  33.008   9.977
45239W        W 8798  19.148  23.199  12.433
45240W        W 8799  23.509   1.259   3.835
45241W        W 8800  11.722  29.159   3.154
45242W        W 8801  35.961  41.360   0.799
45243W        W 8802  42.005   5.391   3.819
45244W        W 8803  33.052  42.524   4.754
45245W        W 8804  30.122  44.348   2.419
45246W        W 8805  22.247  17.652  11.576
45247W        W 8806   4.925  11.218  10.581
45248W        W 8807  38.439   6.328  13.063
45249W        W 8808   3.292  22.603  14.829
45250W        W 8809  23.064  34.023   3.647
45251W        W 8810  26.148  30.106  11.912
45252W        W 8811  11.706  13.662   1.236
45253W        W 8812  10.308  29.127  14.368
45254W        W 8813  39.392  31.062  10.011
45255W        W 8814  34.556  34.477   2.299
45256W        W 8815   8.359  29.583   4.278
45257W        W 8816  10.729  44.363  12.534
45258W        W 8817  15.799  10.827   0.437
45259W        W 8818  30.056   5.351   1.284
45260W        W 8819  17.279   6.353   4.732
45261W        W 8820  13.157   2.965  13.514
45262W        W 8821   7.385   4.709   0.359
45263W        W 8822   3.413  25.476   3.720
45264W        W 8823  18.578  11.179  13.861
45265W        W 8824  19.580  13.811   0.474
45266W        W 8825  18.261   6.187   1.245
45267W        W 8826  10.799  22.736  14.983
45268W        W 8827  34.992   5.725   2.867
45269W        W 8828  24.039  35.548   0.416
45270W        W 8829  37.499  35.995   0.889
45271W        W 8830  20.704  36.855   2.232
45272W        W 8831  31.461  18.658  12.090
45273W        W 8832  40.965  12.325   2.868
45274W        W 8833  37.903  33.618  10.509
45275W        W 8834  11.627  40.516  13.437
45276W        W 8835   6.687  30.014   3.649
45277W        W 8836  36.090   8.778   1.738
45278W        W 8837  42.462  25.035   2.684
45279W        W 8838  11.726   1.443  12.024
45280W        W 8839   2.280  10.232   0.946
45281W        W 8840   7.260  41.463   4.746
45282W        W 8841   1.808  18.236   1.892
45283W        W 8842  40.856   6.205   1.878
45284W        W 8843  19.618  39.461   1.450
45285W        W 8844  10.860  17.242  12.349
45286W        W 8845   0.272   2.409   1.403
45287W        W 8846   8.348   3.815  12.909
45288W        W 8847  41.880  13.180  10.617
45289W        W 8848   2.249   5.912  14.002
45290W        W 8849   1.926  31.593  10.518
45291W        W 8850  17.297  13.743  12.380
45292W        W 8851  26.605  38.503  11.884
45293W        W 8852  23.150  33.969  11.461
45294W        W 8853  18.739  42.929   0.286
45295W        W 8854   0.870   8.835   4.141
45296W        W 8855   8.807  13.606   2.299
45297W        W 8856  44.288  21.630   3.180
45298W        W 8857  30.095   1.391  13.329
45299W        W 8858   1.292  26.014  12.547
45300W        W 8859   3.780  12.125  13.307
45301W        W 8860  29.529  18.105  11.974
45302W        W 8861  31.433  24.203  14.913
45303W        W 8862  13.212  24.591  11.520
45304W        W 8863   8.280  39.349  14.430
45305W        W 8864  17.265  11.151   3.207
45306W        W 8865  26.193   7.831  13.846
45307W        W 8866  21.071  28.166  11.582
45308W        W 8867  28.512  31.634   4.190
45309W        W 8868  35.071  10.806   1.866
45310W        W 8869  42.796   3.328   5.218
45311W        W 8870  38.977  33.573   2.845
45312W        W 8871  25.124   3.381   3.266
45313W        W 8872  11.860  38.850  14.942
45314W        W 8873  11.716  30.631   3.751
45315W        W 8874  11.372   8.332   2.692
45316W        W 8875  16.276  19.538  13.893
45317W        W 8876  15.740  11.709  12.400
45318W        W 8877  16.221   4.915   3.342
45319W        W 8878  42.413  32.576  12.865
45320W        W 8879  15.808  31.905   1.734
45321W        W 8880  13.112  22.540  11.946
45322W        W 8881   9.845  32.627  14.468
45323W        W 8882  32.520  42.444   9.927
45324W        W 8883  28.550   0.942  10.614
45325W        W 8884  21.597  18.604  13.451
45326W        W 8885  11.172  22.506   1.333
45327W        W 8886  13.285  13.311  10.045
45328W        W 8887  18.774  15.273   1.269
45329W        W 8888   8.777  28.680   0.352
45330W        W 8889  23.176  22.686   4.691
45331W        W 8890  37.506  16.253   2.269
45332W        W 8891  38.899  32.550  13.470
45333W        W 8892  33.417   6.205  10.989
45334W        W 8893  29.044  42.892  14.413
45335W        W 8894  16.229   1.310   2.193
45336W        W 8895  31.437   8.358  10.970
45337W        W 8896   7.384  41.022  11.426
45338W        W 8897  19.076  10.280  10.637
45339W        W 8898  32.478  32.492   1.318
45340W        W 8899  27.596  10.848   1.434
45341W        W 8900   5.200  33.065   1.381
45342W        W 8901  20.220  23.060   4.738
45343W        W 8902  21.571  32.600  12.395
45344W        W 8903   9.704  41.018   2.391
45345W        W 8904  11.830  43.288  10.509
45346W        W 8905  28.482  44.351   1.769
45347W        W 8906  22.035   4.231  10.569
45348W        W 8907  40.517  20.655  13.990
45349W        W 8908  11.709  20.587   2.258
45350W        W 8909  41.525   3.846  13.476
45351W        W 8910  42.877   7.714   4.210
45352W        W 8911  38.389  25.703   0.833
45353W        W 8912  36.519  18.146  13.922
45354W        W 8913  37.073   8.297  12.475
45355W        W 8914  12.736  30.034   0.355
45356W        W 8915  19.562  42.336  10.532
45357W        W 8916   3.354  30.608  10.977
45358W        W 8917   7.236  10.675  11.070
45359W        W 8918  31.601  26.627   1.753
45360W        W 8919  33.885  12.349   2.851
45361W        W 8920  36.474   3.941   2.810
45362W        W 8921   7.253  38.881   1.876
45363W        W 8922   1.892  36.021  11.028
45364W        W 8923  36.048   2.355   1.838
45365W        W 8924  20.544  11.857   0.406
45366W        W 8925  40.904  14.756  10.457
45367W        W 8926   2.856  22.139  13.446
45368W        W 8927  40.542  23.587  12.397
45369W        W 8928  14.615   7.386   0.359
45370W        W 8929  43.955  16.135  13.311
45371W        W 8930  13.685  41.840  14.421
45372W        W 8931  41.804   0.943   4.782
45373W        W 8932  32.049   4.870   9.962
45374W        W 8933  43.792  33.006  13.978
45375W        W 8934   8.860  22.591  10.606
45376W        W 8935  30.097  25.155   2.827
45377W        W 8936   5.399   3.388  11.381
45378W        W 8937  15.682  14.219  11.462
45379W        W 8938  35.377  32.552   4.600
45380W        W 8939  42.883   5.403  11.513
45381W        W 8940  10.196  39.846  12.850
45382W        W 8941  28.443  30.530  14.312
45383W        W 8942  16.096   6.744   5.300
45384W        W 8943  12.134  21.064   2.746
45385W        W 8944  37.538  14.151  10.443
45386W        W 8945  44.929  24.225  13.937
45387W        W 8946  27.564  44.806  10.445
45388W        W 8947   0.819  27.484   3.644
45389W        W 8948  44.425   7.865  12.530
45390W        W 8949   5.799  13.175  11.882
45391W        W 8950  11.303  17.743   1.363
45392W        W 8951  44.328  27.505   1.345
45393W        W 8952   1.330   4.737   3.867
45394W        W 8953  11.856  37.435  13.530
45395W        W 8954  43.494  37.838  14.291
45396W        W 8955   5.403  11.839   2.737
45397W        W 8956  41.864   6.800   3.637
45398W        W 8957  30.570  32.005   1.742
45399W        W 8958   9.816  26.206  13.445
45400W        W 8959  18.205  24.633   3.806
45401W        W 8960   6.907  19.042  12.910
45402W        W 8961  21.091  28.660   4.113
45403W        W 8962  32.132   6.860   1.386
45404W        W 8963  18.086  42.348  10.920
45405W        W 8964  10.688  43.785  13.321
45406W        W 8965  21.110  11.288   3.768
45407W        W 8966  18.769   7.272  10.917
45408W        W 8967   9.228  27.525  11.383
45409W        W 8968  40.531   0.383  12.874
45410W        W 8969  32.465   9.308  13.445
45411W        W 8970  11.822  23.172   4.260
45412W        W 8971  15.083   8.868  13.482
45413W        W 8972  15.115  11.817  14.961
45414W        W 8973  26.114  10.189   3.366
45415W        W 8974  14.199   3.377   1.781
45416W        W 8975  10.815  26.467   0.777
45417W        W 8976   0.934  34.080  10.616
45418W        W 8977  31.073   4.718   3.227
45419W        W 8978  41.796  33.463  14.021
45420W        W 8979   2.414   3.727   4.681
45421W        W 8980  36.574  25.567  11.005
45422W        W 8981  33.473  37.088   1.417
45423W        W 8982  15.803   0.391  11.012
45424W        W 8983  40.339   5.299   2.246
45425W        W 8984  10.191  24.111  13.855
45426W        W 8985  18.760  29.015  14.854
45427W        W 8986  25.172  13.312   1.927
45428W        W 8987   0.877  12.691  14.018
45429W        W 8988  40.305  22.093  14.312
45430W        W 8989  41.483  17.088   0.371
45431W        W 8990  15.586  34.563   1.784
45432W        W 8991  27.963  20.210  12.865
45433W        W 8992  44.837  23.497  10.614
45434W        W 8993  11.222  38.979   3.836
45435W        W 8994   0.815  25.003  11.947
45436W        W 8995  32.895  20.600   1.382
45437W        W 8996   3.361  24.562   2.249
45438W        W 8997   6.852   8.189  14.859
45439W        W 8998   2.821  34.516  13.384
45440W        W 8999   9.655  31.074  14.507
45441W        W 9000  34.532   8.281   2.282
45442W        W 9001  42.805  19.076   3.235
45443W        W 9002  27.149  40.007  10.924
45444W        W 9003  30.908   8.731  10.978
45445W        W 9004  17.756  17.582   2.790
45446W        W 9005  40.965  28.139  12.423
45447W        W 9006  17.119  33.026  14.937
45448W        W 9007  28.581  11.160   3.755
45449W        W 9008  12.322  33.543  14.813
45450W        W 9009  31.542   5.868   3.754
45451W        W 9010  22.087  27.460   2.358
45452W        W 9011   2.895  43.388   0.338
45453W        W 9012  34.457   4.738  11.006
45454W        W 9013  35.901  16.616   0.850
45455W        W 9014  28.987   8.337  11.541
45456W        W 9015   2.316  15.808   0.458
45457W        W 9016  39.444   6.794   2.663
45458W        W 9017   5.335  14.670  14.292
45459W        W 9018  11.782   7.801  11.123
45460W        W 9019   8.677  10.325  11.083
45461W        W 9020  40.913   2.429   0.389
45462W        W 9021  13.760  43.346  13.963
45463W        W 9022  31.976  31.475   3.761
45464W        W 9023  30.103  28.020   4.176
45465W        W 9024  39.848  44.494  12.866
45466W        W 9025  31.567   1.750  12.555
45467W        W 9026  36.569  34.424   4.631
45468W        W 9027  28.447  24.045  12.576
45469W        W 9028  19.662  20.661   4.784
45470W        W 9029  33.888  37.338  13.008
45471W        W 9030  41.352  31.608   2.270
45472W        W 9031  30.512  40.003   1.818
45473W        W 9032  35.886  23.666   1.378
45474W        W 9033  24.578  33.414  11.038
45475W        W 9034   8.830  19.719  10.441
45476W        W 9035  21.100  37.419  10.572
45477W        W 9036  10.152   4.732  13.422
45478W        W 9037   4.802  18.678   2.726
45479W        W 9038  10.741  21.610   3.680
45480W        W 9039   1.802  39.374   4.597
45481W        W 9040  44.331   8.333   2.339
45482W        W 9041  23.503  26.014   3.174
45483W        W 9042  25.166  41.026   1.344
45484W        W 9043  38.501  40.855  11.376
45485W        W 9044  23.624  32.510  12.948
45486W        W 9045  15.191  31.913   3.688
45487W        W 9046  10.747   8.807   1.751
45488W        W 9047   3.842  41.835  12.453
45489W        W 9048   8.247  13.292  13.514
45490W        W 9049  13.818  13.620   1.426
45491W        W 9050  17.135   0.837   0.305
45492W        W 9051  17.583  29.599  14.770
45493W        W 9052  30.417  31.561  13.323
45494W        W 9053   4.299  25.674   4.121
45495W        W 9054  10.778   2.256  14.914
45496W        W 9055  44.876  42.824  14.311
45497W        W 9056  13.644   2.301   3.196
45498W        W 9057  30.004  42.376   2.273
45499W        W 9058  15.659   8.314  11.934
45500W        W 9059  25.518  17.694   4.273
45501W        W 9060   6.796   4.817   1.252
45502W        W 9061   8.343   6.732   1.321
45503W        W 9062  41.810  11.221   4.232
45504W        W 9063   2.880  36.372  10.463
45505W        W 9064  19.771  21.581  14.976
45506W        W 9065  32.015  10.794  10.567
45507W        W 9066   2.849  37.973   1.792
45508W        W 9067  40.522  31.575  11.983
45509W        W 9068  41.911   0.325   5.251
45510W        W 9069  29.966  15.751   0.349
45511W        W 9070  21.526  27.609   4.709
45512W        W 9071  15.237  39.320   2.360
45513W        W 9072  21.253   1.901  12.823
45514W        W 9073   1.276  40.975  13.419
45515W        W 9074  10.764  15.667  11.422
45516W        W 9075  14.770   6.219  12.971
45517W        W 9076  18.114  21.155   1.919
45518W        W 9077   5.739  40.808  12.505
45519W        W 9078  43.503  17.165  12.827
45520W        W 9079  15.673   2.334  13.813
45521W        W 9080  44.770  15.234  14.439
45522W        W 9081  24.083   0.260  14.405
45523W        W 9082  20.526  27.690  14.758
45524W        W 9083  27.121  43.953  11.606
45525W        W 9084  44.802   5.268  13.309
45526W        W 9085  10.796  17.062   0.936
45527W        W 9086  31.135  14.698   2.849
45528W        W 9087  23.038  15.628  12.056
45529W        W 9088  40.310  19.133  12.375
45530W        W 9089  25.206  40.535   2.817
45531W        W 9090  31.045  14.128  12.877
45532W        W 9091  15.725  38.479  10.938
45533W        W 9092  18.697  42.782  12.078
45534W        W 9093  30.436  20.726  14.780
45535W        W 9094  21.150   9.389  11.012
45536W        W 9095  36.404  21.690   0.745
45537W        W 9096   6.189  11.368   1.739
45538W        W 9097  40.332   9.341   2.345
45539W        W 9098  29.613   5.730   2.192
45540W        W 9099   1.831  29.605  12.577
45541W        W 9100  17.752  36.349  11.433
45542W        W 9101   2.235  30.161   2.367
45543W        W 9102  33.564  34.394   2.866
45544W        W 9103  19.753  42.791  13.887
45545W        W 9104  18.758  25.689  13.997
45546W        W 9105  19.222   7.912  13.545
45547W        W 9106  33.064  43.920  12.567
45548W        W 9107  38.932   0.870   4.132
45549W        W 9108  21.112  38.991  12.865
45550W        W 9109   3.942   5.311   1.899
45551W        W 9110   0.440  37.841   3.310
45552W        W 9111  10.215   3.800  11.570
45553W        W 9112   0.381   5.359   4.723
45554W        W 9113   1.471  27.038  12.006
45555W        W 9114  18.636   2.268   1.862
45556W        W 9115  10.689  11.654  10.553
45557W        W 9116  42.017   5.281  14.950
45558W        W 9117  16.742  21.586   3.789
45559W        W 9118  35.601  28.596   2.891
45560W        W 9119  23.169  29.940   3.224
45561W        W 9120  22.011  10.203   4.605
45562W        W 9121  22.741   5.415  14.869
45563W        W 9122  43.782  41.874   4.349
45564W        W 9123  16.704  12.274   2.691
45565W        W 9124  37.855  26.977   0.415
45566W        W 9125  38.068  12.148   3.220
45567W        W 9126  12.227  32.418  13.908
45568W        W 9127  14.096  11.774  14.280
45569W        W 9128  15.190  24.630  10.959
45570W        W 9129   1.910  22.647   2.834
45571W        W 9130  19.765  39.924  13.392
45572W        W 9131  35.424   4.733  13.985
45573W        W 9132  28.085  13.119   3.288
45574W        W 9133  16.317  22.704  10.000
45575W        W 9134  38.960  10.830  13.032
45576W        W 9135  23.645  17.157   1.245
45577W        W 9136  11.306  20.052   1.345
45578W        W 9137  22.688  19.148   3.151
45579W        W 9138   7.781  13.703   1.444
45580W        W 9139  18.608   2.398   0.334
45581W        W 9140   2.296  34.985  10.116
45582W        W 9141  26.620  19.671   3.146
45583W        W 9142   8.387   6.687  11.063
45584W        W 9143  31.617  29.449  10.890
45585W        W 9144  11.174   7.705  13.894
45586W        W 9145  42.327  20.269  13.863
45587W        W 9146  13.255   1.913  10.922
45588W        W 9147  11.286  30.557   4.650
45589W        W 9148  13.240   5.833  11.884
45590W        W 9149  33.605  34.062   2.872
45591W        W 9150   5.823   0.424  14.392
45592W        W 9151  40.493  39.545  12.574
45593W        W 9152  15.677  21.046   0.275
45594W        W 9153  23.103  30.491  14.365
45595W        W 9154   6.246  33.416   1.287
45596W        W 9155  12.679  18.130  13.793
45597W        W 9156  20.604  24.014   0.382
45598W        W 9157  10.211  29.451   4.800
45599W        W 9158  23.146  39.869  13.346
45600W        W 9159  33.025  19.069   4.167
45601W        W 9160  12.758  40.970  13.807
45602W        W 9161   0.457  22.727  12.500
45603W        W 9162   3.313  41.001  13.385
45604W        W 9163  21.542  17.707  13.469
45605W        W 9164   2.391   8.201   3.781
45606W        W 9165  16.178  30.919  11.056
45607W        W 9166  27.945   8.682   1.381
45608W        W 9167   0.482  28.604   1.876
45609W        W 9168  16.078   9.879  13.876
45610W        W 9169  20.174  42.842   3.811
45611W        W 9170  34.538  42.413   2.858
45612W        W 9171   5.808  16.154  10.495
45613W        W 9172   4.343   3.296   0.764
45614W        W 9173  42.365  43.324  12.391
45615W        W 9174   2.885   9.699  12.995
45616W        W 9175  20.248  32.423  10.073
45617W        W 9176  18.617  25.580   3.366
45618W        W 9177  25.093  24.617  12.914
45619W        W 9178  21.066  37.963   2.742
45620W        W 9179  12.672  26.197   0.317
45621W        W 9180  25.576  35.028   0.736
45622W        W 9181   0.893  28.134  13.060
45623W        W 9182  30.976  18.718  13.527
45624W        W 9183  19.081  13.112   4.605
45625W        W 9184  33.939  13.608   3.673
45626W        W 9185   9.765  13.686  13.801
45627W        W 9186   5.264   6.681  14.934
45628W        W 9187  31.022  26.650  13.342
45629W        W 9188   5.422  25.138  10.413
45630W        W 9189   3.806   7.719  13.541
45631W        W 9190   4.285  34.451  12.054
45632W        W 9191  31.118  15.583  11.057
45633W        W 9192   4.418  31.614   1.697
45634W        W 9193  14.735  39.836   1.827
45635W        W 9194  21.588  22.171  14.955
45636W        W 9195  14.139   3.435  14.449
45637W        W 9196  44.494  17.567   9.920
45638W        W 9197   6.184  13.194   3.354
45639W        W 9198   8.273  27.191   0.806
45640W        W 9199   3.388  20.141   0.919
45641W        W 9200  22.632  23.172  10.581
45642W        W 9201   3.440  34.079   0.349
45643W        W 9202  44.802  33.534  12.343
45644W        W 9203  33.944   1.801  12.827
45645W        W 9204   6.304  33.429  14.487
45646W        W 9205  21.057  14.620  14.434
45647W        W 9206  40.431  26.469   4.208
45648W        W 9207  31.580  36.442   3.217
45649W        W 9208  19.725  39.832  12.398
45650W        W 9209  12.299  30.013   2.226
45651W        W 9210  18.776  40.000  14.811
45652W        W 9211   2.865  31.584  14.349
45653W        W 9212  28.945  18.784   3.747
45654W        W 9213  22.242  36.552   0.429
45655W        W 9214  33.496   3.713  11.894
45656W        W 9215  42.854  12.305   4.262
45657W        W 9216  13.642  24.538  14.018
45658W        W 9217  13.336   6.214  14.315
45659W        W 9218  33.390  27.137   0.904
45660W        W 9219  36.982  43.005   5.311
45661W        W 9220  36.584  17.570  11.076
45662W        W 9221  42.459   9.190   1.750
45663W        W 9222  30.534   7.262  10.515
45664W        W 9223  24.224  25.555  11.877
45665W        W 9224  18.271  21.539  11.105
45666W        W 9225  11.372  27.128  11.490
45667W        W 9226  13.226  29.485   0.900
45668W        W 9227   5.203  41.331   1.243
45669W        W 9228  10.833  28.512  10.893
45670W        W 9229  34.577  39.938   1.285
45671W        W 9230  35.886  32.064   3.359
45672W        W 9231  21.195  35.028   2.353
45673W        W 9232  44.816   4.705  12.947
45674W        W 9233  24.704  20.091  12.891
45675W        W 9234  21.634  16.289   3.848
45676W        W 9235  24.713  40.337   2.671
45677W        W 9236  44.953   1.295   0.826
45678W        W 9237  29.946  31.552   2.189
45679W        W 9238  22.677  33.130   4.740
45680W        W 9239  39.518  31.494   4.199
45681W        W 9240  27.081   2.437  13.332
45682W        W 9241   2.773   6.182   4.184
45683W        W 9242  12.731   2.358  13.794
45684W        W 9243  35.923   5.244  14.907
45685W        W 9244  13.740   6.882  13.383
45686W        W 9245  30.572   5.359  12.471
45687W        W 9246  20.758  23.237  12.874
45688W        W 9247  28.515   8.856   2.681
45689W        W 9248  35.029   4.886  12.824
45690W        W 9249  35.471  25.016   3.828
45691W        W 9250  29.631   5.410   3.727
45692W        W 9251   9.753  16.763   2.853
45693W        W 9252  20.718   7.771  12.549
45694W        W 9253   2.831  36.566   1.799
45695W        W 9254  42.943   0.341  12.064
45696W        W 9255  42.776  32.514   1.780
45697W        W 9256  28.934  19.758  13.933
45698W        W 9257  38.036  12.293  14.466
45699W        W 9258  39.477  20.029   3.752
45700W        W 9259  24.504  35.893  13.414
45701W        W 9260  16.628  32.530   3.651
45702W        W 9261   1.338  15.285   1.310
45703W        W 9262  39.053  29.518   2.366
45704W        W 9263  41.419  12.246  11.073
45705W        W 9264  13.298  33.998   3.152
45706W        W 9265  11.328  30.092  13.046
45707W        W 9266  11.254  21.663  10.503
45708W        W 9267   8.815  35.929  12.437
45709W        W 9268  24.513   6.371  12.839
45710W        W 9269  13.729   0.305   4.353
45711W        W 9270  18.709  26.461  12.937
45712W        W 9271   4.739   4.258   3.266
45713W        W 9272  33.577  20.547   3.196
45714W        W 9273  28.677  25.173   1.779
45715W        W 9274   3.782  41.528  10.933
45716W        W 9275   9.705  43.001   0.396
45717W        W 9276  11.345  38.526  11.432
45718W        W 9277  12.702  37.842   0.768
45719W        W 9278  22.215  34.007  11.544
45720W        W 9279  12.261  31.959   1.840
45721W        W 9280  11.721   6.795  13.331
45722W        W 9281   7.293  27.966   4.187
45723W        W 9282   6.360  27.027   2.213
45724W        W 9283  44.006   3.393   3.739
45725W        W 9284  22.081  10.878   1.858
45726W        W 9285  15.207  19.656  13.388
45727W        W 9286  20.719   3.762   1.327
45728W        W 9287  14.142  11.235   3.829
45729W        W 9288   6.248  41.393   0.478
45730W        W 9289   3.291  21.253   1.271
45731W        W 9290   0.369  25.610  10.435
45732W        W 9291  28.529  11.331  13.508
45733W        W 9292  12.624   1.919   0.748
45734W        W 9293  28.989  23.589   5.149
45735W        W 9294  40.843   8.805   1.725
45736W        W 9295  34.510   7.669  11.016
45737W        W 9296   4.927   8.663  11.506
45738W        W 9297  33.918  37.912   0.925
45739W        W 9298  20.235   8.263   0.250
45740W        W 9299  36.426  19.579  14.850
45741W        W 9300  29.653  32.091  13.409
45742W        W 9301  11.250  23.032  13.394
45743W        W 9302  38.859  43.285   2.890
45744W        W 9303  20.763   7.866  12.065
45745W        W 9304  16.220  15.740  14.815
45746W        W 9305  11.863  19.766   3.360
45747W        W 9306  20.173  37.581   1.286
45748W        W 9307  19.688  33.454  12.912
45749W        W 9308  15.628   8.198   1.729
45750W        W 9309  30.587  38.968  13.309
45751W        W 9310   5.372  13.609  12.002
45752W        W 9311  35.099  38.961   0.302
45753W        W 9312   4.844   7.222  12.405
45754W        W 9313  15.161  38.903   1.369
45755W        W 9314   9.390  28.454  11.579
45756W        W 9315  20.259  38.546  13.869
45757W        W 9316  38.554  11.741   2.689
45758W        W 9317  26.054  33.512  13.408
45759W        W 9318   7.695  10.375   4.817
45760W        W 9319  11.187  42.788  10.516
45761W        W 9320  41.314   4.824  11.932
45762W        W 9321  30.420  36.389  13.971
45763W        W 9322   8.896  23.229  11.603
45764W        W 9323  16.581  22.664   2.311
45765W        W 9324   0.466  32.928   0.847
45766W        W 9325  19.735  15.700  11.919
45767W        W 9326   1.850  36.033   0.890
45768W        W 9327  22.124  30.151   0.938
45769W        W 9328  36.091  21.080   1.352
45770W        W 9329  23.224  24.162  11.590
45771W        W 9330  44.269  23.700   1.832
45772W        W 9331  27.508  17.609   1.722
45773W        W 9332   7.291  21.653   4.778
45774W        W 9333  29.518   7.739   4.245
45775W        W 9334   2.350  21.050  11.530
45776W        W 9335  18.207   0.262   4.280
45777W        W 9336  17.274  10.266   2.177
45778W        W 9337  20.272  34.012   3.760
45779W        W 9338  22.531  19.240  12.907
45780W        W 9339  13.177  36.517  10.527
45781W        W 9340  13.805  25.963  12.870
45782W        W 9341  35.921  23.047  14.440
45783W        W 9342  44.453  10.182  11.030
45784W        W 9343  43.810   6.402   4.648
45785W        W 9344  42.831  15.200  11.579
45786W        W 9345  11.346  29.967  13.982
45787W        W 9346  32.481  41.292  12.574
45788W        W 9347  26.017  41.526  13.346
45789W        W 9348  17.791  32.498   1.813
45790W        W 9349  26.960  35.379  14.855
45791W        W 9350  26.648  12.325   0.914
45792W        W 9351   8.794  22.054   4.671
45793W        W 9352  26.136  17.586   1.843
45794W        W 9353  31.646  19.770  12.418
45795W        W 9354  34.407  25.065  12.013
45796W        W 9355  44.845   0.883   1.933
45797W        W 9356  42.352  22.553  13.946
45798W        W 9357  24.035  30.957  14.866
45799W        W 9358  35.480  31.914   2.382
45800W        W 9359  35.963  43.850  13.026
45801W        W 9360  27.055  12.183   4.665
45802W        W 9361  43.917  34.581   0.933
45803W        W 9362   7.309  35.420  14.028
45804W        W 9363   0.815  12.713  13.404
45805W        W 9364  25.211  21.072  12.031
45806W        W 9365  19.755  42.780   3.808
45807W        W 9366   1.247   1.392   3.275
45808W        W 9367   3.280   9.330  13.810
45809W        W 9368  36.085  33.038  11.418
45810W        W 9369  24.669   5.872  14.923
45811W        W 9370  10.253   8.707   0.355
45812W        W 9371  40.321  34.452  13.002
45813W        W 9372  17.677  37.062   0.429
45814W        W 9373  30.427  17.081  11.962
45815W        W 9374   1.287  26.962  11.589
45816W        W 9375  13.203  10.798   0.271
45817W        W 9376  40.834  32.460  14.357
45818W        W 9377  40.348   3.328  14.832
45819W        W 9378   5.270   3.783  12.568
45820W        W 9379   3.882  23.159  13.843
45821W        W 9380  19.768  42.517   3.351
45822W        W 9381  32.005  32.951   1.743
45823W        W 9382  33.599  20.247  11.443
45824W        W 9383  41.896   3.296  14.486
45825W        W 9384  39.886  13.231   3.728
45826W        W 9385  35.882  36.927  14.906
45827W        W 9386  26.525  39.398   3.789
45828W        W 9387  42.854  18.631  11.004
45829W        W 9388   7.175  38.032  12.430
45830W        W 9389  19.645  25.083  14.857
45831W        W 9390  40.028  35.061  12.012
45832W        W 9391  28.550   9.768  13.545
45833W        W 9392  32.471  25.572   4.793
45834W        W 9393  15.104  24.717  11.398
45835W        W 9394  43.340   0.852  12.092
45836W        W 9395  29.969  36.399   4.263
45837W        W 9396   2.953  20.552   0.944
45838W        W 9397  11.743  10.706   1.852
45839W        W 9398  16.581  30.018   0.932
45840W        W 9399  29.138   5.223   3.731
45841W        W 9400  19.103  15.143  14.910
45842W        W 9401  15.738  15.694  10.484
45843W        W 9402   0.828  16.760  11.434
45844W        W 9403  26.518  26.039  14.890
45845W        W 9404  17.667   4.376  13.887
45846W        W 9405  39.937  26.967   3.262
45847W        W 9406  37.551  19.647   1.268
45848W        W 9407  43.844  26.986   3.359
45849W        W 9408  36.094  32.406   0.290
45850W        W 9409   9.191  22.562  11.507
45851W        W 9410   2.372  36.025  14.441
45852W        W 9411  35.062  21.748  11.450
45853W        W 9412  28.937  40.946   2.377
45854W        W 9413   7.340   6.910   3.752
45855W        W 9414   3.946   1.313   1.780
45856W        W 9415   4.784   8.340  12.060
45857W        W 9416  17.603  16.230   4.160
45858W        W 9417  11.305  11.824   0.294
45859W        W 9418  29.502   1.307  12.576
45860W        W 9419  25.709  14.235   1.409
45861W        W 9420  38.459   2.938  14.407
45862W        W 9421  24.076  43.881   1.812
45863W        W 9422  35.373  14.328   1.440
45864W        W 9423  32.113   6.739  13.345
45865W        W 9424  22.523  28.610   0.424
45866W        W 9425  29.473  25.152  13.472
45867W        W 9426  40.414   5.359  13.400
45868W        W 9427  10.683  15.750   3.182
45869W        W 9428  24.693  18.234   3.759
45870W        W 9429  11.148  16.728  10.551
45871W        W 9430  32.637  33.483   4.705
45872W        W 9431  16.638  44.351   1.343
45873W        W 9432  42.490  38.452  12.041
45874W        W 9433  29.069   0.956  11.048
45875W        W 9434  12.300  16.242  12.090
45876W        W 9435  33.047  42.515   1.834
45877W        W 9436  37.368  37.969   1.224
45878W        W 9437   5.345  19.197   2.729
45879W        W 9438  23.125  40.430  10.416
45880W        W 9439   7.900  20.636  10.896
45881W        W 9440  16.717   1.451   2.733
45882W        W 9441  13.700   3.872  13.382
45883W        W 9442  32.085  32.437   2.410
45884W        W 9443  10.217  28.074   3.726
45885W        W 9444  11.319  38.393   3.782
45886W        W 9445   3.459  41.956   0.428
45887W        W 9446  35.509  25.471  13.523
45888W        W 9447  38.958  20.087  10.900
45889W        W 9448  35.580  10.275  13.472
45890W        W 9449   1.411  10.246  14.476
45891W        W 9450  44.261  42.284  14.921
45892W        W 9451   4.426  40.416  11.561
45893W        W 9452  33.558  27.964  14.028
45894W        W 9453  29.522  34.594  10.980
45895W        W 9454  42.818  41.350  11.944
45896W        W 9455  24.591  13.298   4.780
45897W        W 9456  29.424   1.787  13.399
45898W        W 9457   4.832  27.482   1.278
45899W        W 9458  15.142  31.020  14.877
45900W        W 9459  11.193  17.081   1.427
45901W        W 9460  20.703  33.546  13.972
45902W        W 9461  36.964  16.775  14.355
45903W        W 9462  21.584  43.282  11.110
45904W        W 9463  27.591  37.429  12.043
45905W        W 9464  31.481  36.493  14.997
45906W        W 9465  26.060  25.611  11.030
45907W        W 9466  31.990  25.661  10.419
45908W        W 9467  22.567   4.810   4.707
45909W        W 9468  13.753  13.605   1.935
45910W        W 9469  30.957  19.649   0.813
45911W        W 9470  11.709  18.126  13.501
45912W        W 9471  11.177  16.605  14.415
45913W        W 9472  36.849   5.426   3.311
45914W        W 9473  31.945  35.415   2.299
45915W        W 9474  28.455  38.996  12.447
45916W        W 9475  14.613  41.527   4.745
45917W        W 9476  18.265  44.462  13.014
45918W        W 9477  22.722  13.200  13.033
45919W        W 9478  39.427  17.207   4.232
45920W        W 9479  11.210  30.508  14.274
45921W        W 9480   7.874  16.592   3.148
45922W        W 9481  25.467   7.754  14.024
45923W        W 9482   2.351  24.572  11.994
45924W        W 9483  14.126   5.901  10.547
45925W        W 9484  23.010  27.948   1.792
45926W        W 9485  18.553  15.761   3.758
45927W        W 9486   1.368   5.274   2.350
45928W        W 9487  31.015   0.307  12.897
45929W        W 9488  37.342  25.990  11.005
45930W        W 9489  21.071  24.071  13.449
45931W        W 9490  11.254   1.294   3.823
45932W        W 9491  29.597  27.993   1.447
45933W        W 9492  23.690  16.719   3.803
45934W        W 9493   1.975  14.728  12.356
45935W        W 9494  32.533  40.884   3.153
45936W        W 9495  41.892   7.332   3.325
45937W        W 9496  32.120  35.077   1.890
45938W        W 9497  37.057  19.675  11.877
45939W        W 9498   5.893  26.150   4.332
45940W        W 9499  42.856  24.086   5.084
45941W        W 9500  38.470  19.767  11.576
45942W        W 9501  42.519  33.955   2.404
45943W        W 9502  24.136  38.455  10.923
45944W        W 9503  31.956  35.899  10.064
45945W        W 9504  18.776  26.110   4.750
45946W        W 9505  29.660  30.554   2.386
45947W        W 9506  38.878  44.328   0.250
45948W        W 9507  28.557   4.840  10.412
45949W        W 9508  25.505  12.664   5.145
45950W        W 9509  35.550   4.798   0.368
45951W        W 9510  24.148  26.646  11.547
45952W        W 9511  39.338  26.955  14.904
45953W        W 9512  10.299   5.354  13.317
45954W        W 9513   6.416  43.443   4.756
45955W        W 9514   7.815  43.355  14.409
45956W        W 9515   7.780  44.353  11.867
45957W        W 9516  14.741  36.080  13.857
45958W        W 9517  16.167  14.170  10.460
45959W        W 9518   9.294  12.351  10.511
45960W        W 9519  20.142  44.974   1.266
45961W        W 9520   9.276  36.524   2.794
45962W        W 9521   3.888  36.537  14.896
45963W        W 9522  10.691  40.454   4.666
45964W        W 9523  24.980  10.183  13.491
45965W        W 9524  31.149  18.604   5.321
45966W        W 9525   0.423  31.072  12.037
45967W        W 9526  42.786  34.012   1.368
45968W        W 9527  11.747  42.804  11.125
45969W        W 9528  16.170  26.615   0.814
45970W        W 9529  11.200  18.572  11.983
45971W        W 9530   0.469   3.858   4.318
45972W        W 9531  24.576  10.838  13.891
45973W        W 9532  22.230  44.798  13.861
45974W        W 9533   1.951  18.594   4.767
45975W        W 9534   9.315  17.146   1.706
45976W        W 9535  26.526  22.625   1.373
45977W        W 9536  36.861  22.251  13.889
45978W        W 9537  31.507  30.610  13.311
45979W        W 9538  19.757   2.437   4.292
45980W        W 9539  34.989  42.313  14.350
45981W        W 9540  17.306  44.350  13.964
45982W        W 9541  44.975  15.604   0.728
45983W        W 9542  22.072  36.056   2.791
45984W        W 9543  17.594  17.061  14.975
45985W        W 9544   0.954  33.392  14.016
45986W        W 9545  38.947  44.376  14.374
45987W        W 9546   3.788  26.127  11.043
45988W        W 9547  41.529  38.069   0.908
45989W        W 9548  10.664  44.455   0.857
45990W        W 9549  30.064  20.048   1.279
45991W        W 9550   1.421  31.442  11.903
45992W        W 9551  10.853   5.873  11.074
45993W        W 9552   5.894  30.022   0.337
45994W        W 9553  44.826  22.589  13.389
45995W        W 9554  25.153  21.102  10.551
45996W        W 9555   8.732   1.931   3.871
45997W        W 9556   7.386  38.556   4.798
45998W        W 9557  31.630  12.271  11.936
45999W        W 9558   3.801   7.847   4.238
46000W        W 9559  37.960  31.102  12.342
46001W        W 9560  10.256  35.471  12.926
46002W        W 9561  38.448  28.525   4.242
46003W        W 9562   5.703  36.045  14.423
46004W        W 9563  15.250  30.422  11.577
46005W        W 9564  26.000  25.092   2.400
46006W        W 9565  33.897  15.647   0.392
46007W        W 9566  14.234   4.410   4.629
46008W        W 9567   0.798  42.404  12.833
46009W        W 9568  21.180  23.553   5.262
46010W        W 9569   3.857   1.924  12.876
46011W        W 9570  20.698  43.022   3.299
46012W        W 9571  20.076  33.554  11.891
46013W        W 9572  32.026  41.432   3.645
46014W        W 9573  35.589  35.432  14.832
46015W        W 9574   3.267  30.658  11.425
46016W        W 9575  36.466  15.157  10.935
46017W        W 9576   3.828  39.010   0.254
46018W        W 9577  31.995  15.663  10.993
46019W        W 9578  43.836  21.651  13.537
46020W        W 9579  20.664  14.131  14.470
46021W        W 9580   3.377   0.381   2.291
46022W        W 9581  19.630  43.820   3.220
46023W        W 9582  12.176  11.738  13.010
46024W        W 9583  30.443  18.715  12.977
46025W        W 9584  42.314   0.434   2.774
46026W        W 9585  21.676  16.112   0.895
46027W        W 9586   4.754  17.304   0.940
46028W        W 9587  36.430  13.127  13.543
46029W        W 9588  37.859  22.633  14.803
46030W        W 9589  36.902  33.448  13.795
46031W        W 9590  28.158  38.900   0.896
46032W        W 9591  32.443  25.636  13.517
46033W        W 9592  33.435  23.162  11.469
46034W        W 9593   5.324  41.368   2.388
46035W        W 9594  33.499  14.738  14.289
46036W        W 9595   0.446  26.017  12.534
46037W        W 9596   1.404  27.061   0.857
46038W        W 9597  27.552   1.954   0.768
46039W        W 9598  23.011  41.535   3.694
46040W        W 9599  28.006  10.708   4.257
46041W        W 9600  27.647  44.954   0.416
46042W        W 9601  32.090  42.778   5.182
46043W        W 9602  40.477  36.455  12.519
46044W        W 9603   8.814  41.822   4.354
46045W        W 9604  34.542  25.054   1.910
46046W        W 9605   0.352  36.359  11.862
46047W        W 9606  38.883  29.433   5.166
46048W        W 9607  35.979   1.259   1.396
46049W        W 9608   6.349  15.812   0.283
46050W        W 9609  16.804  12.124  12.349
46051W        W 9610  20.246  30.943   3.691
46052W        W 9611  24.093  17.681   4.255
46053W        W 9612  12.193  28.169   1.920
46054W        W 9613  22.529  10.288   4.146
46055W        W 9614  12.752   6.832   2.697
46056W        W 9615  36.912  34.422   2.201
46057W        W 9616  36.929  34.468  14.379
46058W        W 9617  15.627   2.398  13.498
46059W        W 9618  38.046  33.105   5.297
46060W        W 9619  37.900  23.661  14.781
46061W        W 9620  23.150   2.437  10.926
46062W        W 9621  15.168  43.859  11.858
46063W        W 9622  25.656   5.368   0.422
46064W        W 9623   7.753  17.736  12.965
46065W        W 9624  18.625  27.679   1.211
46066W        W 9625  21.090   7.267   4.782
46067W        W 9626  41.910  26.462   0.775
46068W        W 9627  11.867  16.081  11.122
46069W        W 9628  38.867  37.026   5.207
46070W        W 9629  42.908  43.495   0.408
46071W        W 9630  30.075  39.506   4.276
46072W        W 9631   0.492   9.265   1.343
46073W        W 9632  34.503  37.463   4.617
46074W        W 9633  11.730   5.276  12.081
46075W        W 9634  30.946  24.490   2.866
46076W        W 9635  18.650  33.605  12.867
46077W        W 9636  37.986  27.121  11.396
46078W        W 9637  22.731  29.530   1.838
46079W        W 9638  27.622  20.745   4.602
46080W        W 9639   6.270  41.421  10.034
46081W        W 9640  39.506  28.088   1.231
46082W        W 9641  25.641  37.409   4.175
46083W        W 9642  41.889  24.709   1.237
46084W        W 9643  35.093  28.064  11.967
46085W        W 9644  10.768  25.507   2.326
46086W        W 9645  36.562  17.590   2.704
46087W        W 9646  39.037  34.088   1.742
46088W        W 9647   1.900  43.888  10.570
46089W        W 9648  11.315   3.852   3.181
46090W        W 9649  43.838  20.113  13.441
46091W        W 9650   4.418   9.844   3.676
46092W        W 9651  30.546  10.219   0.351
46093W        W 9652  41.322   9.261  12.391
46094W        W 9653  40.872   0.466  13.924
46095W        W 9654  29.120   6.861  13.501
46096W        W 9655   2.269   8.773  12.542
46097W        W 9656  20.271  37.048  11.901
46098W        W 9657  43.856  40.526   2.879
46099W        W 9658   5.210   8.339  13.952
46100W        W 9659  12.253   6.795  12.552
46101W        W 9660  20.097  27.562   0.952
46102W        W 9661   6.734  24.175  14.998
46103W        W 9662  11.813   1.477   3.249
46104W        W 9663  25.519  44.493  12.431
46105W        W 9664  17.790  38.468   0.326
46106W        W 9665  12.282  32.567   0.730
46107W        W 9666  14.192  22.604  10.972
46108W        W 9667  13.323  41.850   2.181
46109W        W 9668  29.990  21.217  12.052
46110W        W 9669  37.459   4.754   4.159
46111W        W 9670   5.289  10.794  14.482
46112W        W 9671   4.219  17.555   2.753
46113W        W 9672  13.167   1.389  14.381
46114W        W 9673  33.891  30.919   0.772
46115W        W 9674  20.542  32.533   2.198
46116W        W 9675   4.264  21.665  13.051
46117W        W 9676  24.144   3.298   1.905
46118W        W 9677  24.145  31.981   2.668
46119W        W 9678  15.652   9.380   0.888
46120W        W 9679  41.003  15.646   0.858
46121W        W 9680   7.187  15.684   4.710
46122W        W 9681  30.079  31.962  12.830
46123W        W 9682   8.164  20.649  14.303
46124W        W 9683  20.525   8.174  12.034
46125W        W 9684  24.219  25.107  10.036
46126W        W 9685  44.983   1.976  14.397
46127W        W 9686  30.473   0.469  14.884
46128W        W 9687  41.361  11.129   1.246
46129W        W 9688  25.491   0.941  12.901
46130W        W 9689   3.399  35.562  11.424
46131W        W 9690   2.443   8.880   4.694
46132W        W 9691   9.153  39.446   0.340
46133W        W 9692  44.458  42.381   4.754
46134W        W 9693  40.305  39.948  14.831
46135W        W 9694  26.589   9.158   2.814
46136W        W 9695  15.760  32.621   3.654
46137W        W 9696  35.404  15.621  14.805
46138W        W 9697  29.471  20.093  12.882
46139W        W 9698  12.117  36.448  12.956
46140W        W 9699   0.806   2.320   4.775
46141W        W 9700   2.893  42.861  14.282
46142W        W 9701  31.147  30.128  13.052
46143W        W 9702   1.415  16.160   4.228
46144W        W 9703  38.436  25.189  12.958
46145W        W 9704  31.899  11.216  13.357
46146W        W 9705  13.175  13.648   2.755
46147W        W 9706  17.745  21.733  12.906
46148W        W 9707   3.296  31.036  14.334
46149W        W 9708  44.420  28.937   0.471
46150W        W 9709  27.045   1.977   3.366
46151W        W 9710  31.510  42.424  11.901
46152W        W 9711   8.312  12.209   3.302
46153W        W 9712  34.922  28.610   2.342
46154W        W 9713  20.248  20.626   2.813
46155W        W 9714  37.017   3.859   2.789
46156W        W 9715  42.459   7.327   3.860
46157W        W 9716  36.358  42.415  12.019
46158W        W 9717   3.935  21.704   2.249
46159W        W 9718   3.271  27.520   4.808
46160W        W 9719   3.729   2.780   0.399
46161W        W 9720   4.272  35.475  12.027
46162W        W 9721  38.430  15.767   1.910
46163W        W 9722  24.712  34.541  13.336
46164W        W 9723   1.319  17.212   1.400
46165W        W 9724  21.657  21.164  13.032
46166W        W 9725  33.044  38.029  13.854
46167W        W 9726  25.027  22.653  13.434
46168W        W 9727  18.547  39.481  14.493
46169W        W 9728  27.550  33.975  10.892
46170W        W 9729  25.088   6.225  14.792
46171W        W 9730  25.553  27.040  10.533
46172W        W 9731  35.968  23.676   4.255
46173W        W 9732  28.592   1.818   4.806
46174W        W 9733  16.155  25.965  13.325
46175W        W 9734  30.535  23.049  14.968
46176W        W 9735  36.868  23.689   0.814
46177W        W 9736  34.540  24.618   1.890
46178W        W 9737  42.438  43.456   1.801
46179W        W 9738  15.656   0.457  11.965
46180W        W 9739  16.074  29.646   3.343
46181W        W 9740  37.928  29.941   2.388
46182W        W 9741  42.970  37.418  13.429
46183W        W 9742  39.393  12.758  11.857
46184W        W 9743  36.022  31.079  12.010
46185W        W 9744   1.884   4.755  14.329
46186W        W 9745  44.303  30.626   9.995
46187W        W 9746  23.152   4.221   2.301
46188W        W 9747  38.528  18.762   1.235
46189W        W 9748  43.393  43.823  13.793
46190W        W 9749  39.536  29.530  11.550
46191W        W 9750  36.561  19.715   0.345
46192W        W 9751  29.506  33.899  14.773
46193W        W 9752  40.379  23.721   1.729
46194W        W 9753  11.724  34.440  14.439
46195W        W 9754  17.661  35.504  12.927
46196W        W 9755  10.830  17.686   2.348
46197W        W 9756  32.525  24.696   1.239
46198W        W 9757  14.777   3.827   4.147
46199W        W 9758  10.298   7.394   3.753
46200W        W 9759  43.004  20.028  14.302
46201W        W 9760  27.656  35.001  10.606
46202W        W 9761  36.981  10.765   0.882
46203W        W 9762  31.408   6.411   0.822
46204W        W 9763  21.074  33.538   0.349
46205W        W 9764  25.642  18.179  10.083
46206W        W 9765  10.724  36.973  12.980
46207W        W 9766  34.081  41.025   4.264
46208W        W 9767  43.788  10.194  10.984
46209W        W 9768  25.590  32.982   4.116
46210W        W 9769  26.600  15.292   4.660
46211W        W 9770   4.330   3.850   0.242
46212W        W 9771  32.463  30.932  14.855
46213W        W 9772  16.087  28.044  10.544
46214W        W 9773  24.717  28.554   4.766
46215W        W 9774  12.800  37.481  10.620
46216W        W 9775  38.966  33.057   2.742
46217W        W 9776   3.793  10.731  10.556
46218W        W 9777   3.892  34.421  14.005
46219W        W 9778  10.687   8.272  13.535
46220W        W 9779  43.345   2.401   2.803
46221W        W 9780  43.351  26.545  13.449
46222W        W 9781  35.570  19.679   0.446
46223W        W 9782  43.506  27.158   4.305
46224W        W 9783  15.306  32.904   2.347
46225W        W 9784  43.415  42.493   2.235
46226W        W 9785  20.629  32.478  10.504
46227W        W 9786  10.754   0.892   0.764
46228W        W 9787   2.763   2.327  11.393
46229W        W 9788  27.546  11.812  13.517
46230W        W 9789  16.767  10.727  12.887
46231W        W 9790  10.868  20.034   2.780
46232W        W 9791  31.068  42.803  14.919
46233W        W 9792  35.057  22.015  14.767
46234W        W 9793  37.505  29.430  10.595
46235W        W 9794   6.375  20.123   4.257
46236W        W 9795  20.545  36.864   0.340
46237W        W 9796   7.823  12.707  11.895
46238W        W 9797  12.840  42.979   2.775
46239W        W 9798   0.949  11.293   0.965
46240W        W 9799   9.795  18.243   0.313
46241W        W 9800  20.108   9.360  10.538
46242W        W 9801  40.385  28.943  13.846
46243W        W 9802  27.660  23.217  14.904
46244W        W 9803  32.539  28.953   4.682
46245W        W 9804  43.372  28.099   4.190
46246W        W 9805   8.836  14.834  14.312
46247W        W 9806  32.030  26.999  10.522
46248W        W 9807   9.247  35.423  12.843
46249W        W 9808   5.308   9.654   2.328
46250W        W 9809  21.045  37.363   2.204
46251W        W 9810  13.297   0.316  14.376
46252W        W 9811  18.766  44.999  10.957
46253W        W 9812   3.840   3.423   3.800
46254W        W 9813   4.937   2.848  14.502
46255W        W 9814  37.530  23.002   4.740
46256W        W 9815  10.705  26.997   1.736
46257W        W 9816  35.961   9.730  11.518
46258W        W 9817   9.344   4.269  10.413
46259W        W 9818  26.575  31.568  13.795
46260W        W 9819  14.768  16.742   2.337
46261W        W 9820  15.246   3.828   1.835
46262W        W 9821   3.855  28.518   3.364
46263W        W 9822  35.891  10.659   3.333
46264W        W 9823  38.450  17.567   3.373
46265W        W 9824  32.539   6.204  12.096
46266W        W 9825   1.481  24.653  10.416
46267W        W 9826  19.706   4.744  12.978
46268W        W 9827  28.930  43.302  10.901
46269W        W 9828  20.681  39.555   0.885
46270W        W 9829  29.967  31.417   4.700
46271W        W 9830  10.178  18.138   0.814
46272W        W 9831  42.323  29.486  10.890
46273W        W 9832  40.908  26.128   2.397
46274W        W 9833  44.416  38.918   4.820
46275W        W 9834  42.367   7.789   0.781
46276W        W 9835   6.885   3.347  10.500
46277W        W 9836  17.107  16.723   4.650
46278W        W 9837  21.104  38.000  12.366
46279W        W 9838  39.940  10.807  10.941
46280W        W 9839  20.035  41.383   4.763
46281W        W 9840   6.367  17.254  12.852
46282W        W 9841   4.801  37.883   3.379
46283W        W 9842  18.162  18.720  11.961
46284W        W 9843   6.680  43.309   0.749
46285W        W 9844  17.157  44.381   1.408
46286W        W 9845   9.242   8.230   1.387
46287W        W 9846  21.685  18.273   4.170
46288W        W 9847  41.499  10.174  13.814
46289W        W 9848  21.746  19.063   0.454
46290W        W 9849  32.631  25.068  11.067
46291W        W 9850  12.155  37.520  12.051
46292W        W 9851  13.745   8.363   1.311
46293W        W 9852   5.755  44.267   0.439
46294W        W 9853   0.929  33.938  13.934
46295W        W 9854  16.582   2.815   3.176
46296W        W 9855  37.058  25.993   0.948
46297W        W 9856  14.590  17.212   4.240
46298W        W 9857  13.245   9.884   3.638
46299W        W 9858  43.341  41.006   0.754
46300W        W 9859  40.344  15.283  12.395
46301W        W 9860   3.897  13.636  11.943
46302W        W 9861  15.750  29.550  12.921
46303W        W 9862   3.275  31.148   2.862
46304W        W 9863  24.626  36.983   1.845
46305W        W 9864   9.690  29.460   0.940
46306W        W 9865  20.747  32.935   3.866
46307W        W 9866  30.453   3.841   5.085
46308W        W 9867   0.840  37.496   4.350
46309W        W 9868  13.108  25.567  14.460
46310W        W 9869  40.874  24.593  13.411
46311W        W 9870   3.821   2.830  11.424
46312W        W 9871  16.663  17.233   2.224
46313W        W 9872  42.510  19.108   1.256
46314W        W 9873  21.713   9.305   0.954
46315W        W 9874   8.862  10.731   1.851
46316W        W 9875  29.058  20.161  14.344
46317W        W 9876  28.594   1.274   3.736
46318W        W 9877  43.939  27.179   4.616
46319W        W 9878  19.731  44.007   0.897
46320W        W 9879  15.658  15.626   1.256
46321W        W 9880  19.129  29.657  13.518
46322W        W 9881  42.333  36.037   2.882
46323W        W 9882  11.241   1.318  13.539
46324W        W 9883  41.336  20.062  10.522
46325W        W 9884  21.161  27.480  12.510
46326W        W 9885  42.892   8.198  10.549
46327W        W 9886  21.699   4.795  13.336
46328W        W 9887  32.470  40.848   0.858
46329W        W 9888  24.653  42.781  11.970
46330W        W 9889  40.452  21.041   5.250
46331W        W 9890  35.581  40.511   2.724
46332W        W 9891  19.708  42.877  10.500
46333W        W 9892  25.079  25.519   3.329
46334W        W 9893  43.312   3.742  13.000
46335W        W 9894  15.221  17.716   0.771
46336W        W 9895  21.621  22.503  11.084
46337W        W 9896  17.641  29.445   2.320
46338W        W 9897   1.738  21.080   2.196
46339W        W 9898  27.471  32.591  10.996
46340W        W 9899  21.156  13.737   9.992
46341W        W 9900  13.768   9.204  12.361
46342W        W 9901  39.397   2.344   4.328
46343W        W 9902  16.249  41.447   1.825
46344W        W 9903  44.973  23.563   4.691
46345W        W 9904   3.220   6.705   0.868
46346W        W 9905  18.114  12.162  14.326
46347W        W 9906   5.930  13.291  11.534
46348W        W 9907  10.306  13.277  13.897
46349W        W 9908  37.477  29.162  10.928
46350W        W 9909  13.118  13.187  12.948
46351W        W 9910  13.289  18.136  14.514
46352W        W 9911   7.704  42.864   4.760
46353W        W 9912  32.595  38.435   3.698
46354W        W 9913  36.469  22.081  11.398
46355W        W 9914   2.883  40.308  14.006
46356W        W 9915  39.511  13.263  14.941
46357W        W 9916   2.845  35.542   1.720
46358W        W 9917  36.927  20.713   1.256
46359W        W 9918  36.013  10.790  10.104
46360W        W 9919  23.030   2.750  11.439
46361W        W 9920  30.012  30.516  12.888
46362W        W 9921  30.542   9.846  13.926
46363W        W 9922  43.300  40.549  14.882
46364W        W 9923  33.974  21.641  12.516
46365W        W 9924  10.840  36.038  10.995
46366W        W 9925  37.022   4.842   3.272
46367W        W 9926  23.092  44.450   2.336
46368W        W 9927  18.569   3.359   0.917
46369W        W 9928  15.273  37.839  13.881
46370W        W 9929  23.217  29.544   3.213
46371W        W 9930  15.127  16.255   0.813
46372W        W 9931  29.024  42.781  11.541
46373W        W 9932  26.472  24.649  14.855
46374W        W 9933  25.130  35.461   1.729
46375W        W 9934  28.586  21.188   2.815
46376W        W 9935  12.168   4.823   1.694
46377W        W 9936  37.448  23.241  10.956
46378W        W 9937  19.111   4.815   0.902
46379W        W 9938  11.716  26.059   3.244
46380W        W 9939  44.943  13.753   4.256
46381W        W 9940  42.776   3.365   2.303
46382W        W 9941  37.487  41.960  12.384
46383W        W 9942  21.647   7.231   0.460
46384W        W 9943  19.268  41.027  13.337
46385W        W 9944  28.112  19.169   0.476
46386W        W 9945  11.812  11.342   2.305
46387W        W 9946   6.425  26.953  12.452
46388W        W 9947  20.201  20.527  10.905
46389W        W 9948  43.814  32.895  11.083
46390W        W 9949   8.258  38.512   0.434
46391W        W 9950  20.051  16.680   1.294
46392W        W 9951  36.474  41.986  12.922
46393W        W 9952  23.087  19.747   3.247
46394W        W 9953   5.923  35.093  14.398
46395W        W 9954  14.619   2.347  13.347
46396W        W 9955  34.615  38.390   3.775
46397W        W 9956  25.659   6.247  11.963
46398W        W 9957  11.861  15.815  11.604
46399W        W 9958  22.679  44.341   2.331
46400W        W 9959  31.421  16.791   2.784
46401W        W 9960  22.717  15.134  14.975
46402W        W 9961  13.138  35.047   3.860
46403W        W 9962  23.051  21.560  13.953
46404W        W 9963   2.733   7.777  12.986
46405W        W 9964  38.951   5.806  13.416
46406W        W 9965  41.927   4.705   3.769
46407W        W 9966  21.231  22.113  11.383
46408W        W 9967  27.498  44.004   3.158
46409W        W 9968  24.528  20.657  12.081
46410W        W 9969  15.714  26.173   9.933
46411W        W 9970  17.092  19.595  14.912
46412W        W 9971   0.789  31.039   2.330
46413W        W 9972  12.171  37.001  14.774
46414W        W 9973   9.791  27.670  10.609
46415W        W 9974  43.402  18.114  10.108
46416W        W 9975   6.798  40.903   1.255
46417W        W 9976  27.057  15.319   4.673
46418W        W 9977  24.117  25.120  13.954
46419W        W 9978  28.985  10.707  12.420
46420W        W 9979  16.779  34.442  12.954
46421W        W 9980  10.142  30.958   4.125
46422W        W 9981  22.161  34.399  14.760
46423W        W 9982  14.218  13.783  11.405
46424W        W 9983  12.692   3.777  14.773
46425W        W 9984   7.203  21.120  13.795
46426W        W 9985  30.019  11.650   4.770
46427W        W 9986  30.488  30.430  12.541
46428W        W 9987   9.884  20.088  10.972
46429W        W 9988  39.477  13.261   1.710
46430W        W 9989  19.105  36.403  12.410
46431W        W 9990  40.841  25.149   2.847
46432W        W 9991  10.148  19.649   4.812
46433W        W 9992  40.345   1.797   3.286
46434W        W 9993  37.947  11.293  14.779
46435W        W 9994  31.548  24.060  11.114
46436W        W 9995  22.149  24.570  12.495
46437W        W 9996  41.872  25.085  11.897
46438W        W 9997   6.205  28.674  12.996
46439W        W 9998   1.325  24.671   1.908
46440W        W 9999  11.163  12.249  10.463
46441W        W10000  16.300  18.231   1.213
46442W        W10001  25.114  13.600   5.302
46443W        W10002  29.991  20.148  10.986
46444W        W10003   4.907  33.564  13.431
46445W        W10004  21.026  26.029  13.825
46446W        W10005   6.767   9.302  10.542
46447W        W10006  38.346  41.839   0.891
46448W        W10007  34.601   4.261  14.973
46449W        W10008  35.565  14.144  12.517
46450W        W10009  40.377  11.720   5.283
46451W        W10010  23.144  18.735   4.281
46452W        W10011  13.791  24.546  12.923
46453W        W10012  40.043  19.279  12.908
46454W        W10013  24.135  21.549  14.360
46455W        W10014  34.447  40.995  13.842
46456W        W10015  19.247   2.470   1.903
46457W        W10016  30.110  33.463  11.031
46458W        W10017  43.289  12.740  11.504
46459W        W10018  23.070  39.401  14.761
46460W        W10019   5.840  21.202   2.277
46461W        W10020  42.341   8.805  11.127
46462W        W10021   5.798   3.918  13.527
46463W        W10022  38.905  15.197  14.389
46464W        W10023  15.781  37.431   2.326
46465W        W10024   6.200  20.082  10.427
46466W        W10025  34.463  21.676   1.722
46467W        W10026   7.181  26.205   0.926
46468W        W10027  30.001  39.815   1.787
46469W        W10028  29.133  26.561   1.257
46470W        W10029  34.066  10.790   2.747
46471W        W10030  16.674  15.224   4.781
46472W        W10031  43.994   5.236   3.632
46473W        W10032  19.546  31.910  13.478
46474W        W10033  14.826  33.073  13.825
46475W        W10034   3.835  41.398   3.790
46476W        W10035  33.402   3.398  10.005
46477W        W10036  15.205  12.824   1.830
46478W        W10037  11.202  15.247  11.033
46479W        W10038  32.945  41.535  11.084
46480W        W10039   9.250  16.091  12.965
46481W        W10040  25.182  28.996   1.271
46482W        W10041   4.699  17.283  10.456
46483W        W10042  30.161  18.052   0.809
46484W        W10043   0.907  22.644  12.434
46485W        W10044  28.513  13.178   2.798
46486W        W10045  21.122   4.331  11.400
46487W        W10046  23.059  36.523   4.119
46488W        W10047   8.759  25.053   2.795
46489W        W10048  16.213  38.922  12.479
46490W        W10049  35.417   9.247  11.591
46491W        W10050  19.228  29.038  12.491
46492W        W10051  12.783   0.305  12.842
46493W        W10052   5.857  27.007   4.832
46494W        W10053  10.802   7.909   2.729
46495W        W10054  31.935  14.819   2.859
46496W        W10055  43.329  10.826   1.751
46497W        W10056  23.646  43.326   2.863
46498W        W10057  27.630  12.266   3.280
46499W        W10058  11.359   2.863   3.299
46500W        W10059  25.168  13.192  13.456
46501W        W10060  43.962   5.831  13.899
46502W        W10061  29.991  18.084  11.923
46503W        W10062  26.621  40.945  11.419
46504W        W10063  44.365  42.303  12.442
46505W        W10064  30.160  11.717   1.431
46506W        W10065  10.817  39.022   3.304
46507W        W10066  24.192  11.628  13.528
46508W        W10067   4.824   9.728   1.730
46509W        W10068   7.881   4.832   0.258
46510W        W10069  23.712  25.083   1.854
46511W        W10070  35.499  32.484  14.972
46512W        W10071  35.918  14.300   4.327
46513W        W10072   8.680  25.182   1.871
46514W        W10073  43.990  33.005  14.459
46515W        W10074   6.876  37.410  14.489
46516W        W10075   6.359  38.880   3.170
46517W        W10076  39.827  31.496   2.734
46518W        W10077  24.124   8.677  10.511
46519W        W10078  44.861  27.090   2.680
46520W        W10079  28.176  44.321  10.525
46521W        W10080  35.502  29.064   0.286
46522W        W10081  37.470  27.492   3.732
46523W        W10082  12.275  12.800  14.987
46524W        W10083   8.286   2.401   2.680
46525W        W10084  12.186  36.543   3.305
46526W        W10085   8.870  39.393   0.764
46527W        W10086   5.782   9.855  13.035
46528W        W10087  26.495  33.567   0.418
46529W        W10088   7.322  41.962  13.545
46530W        W10089  35.864   6.325  14.462
46531W        W10090   7.326  35.058  10.439
46532W        W10091  32.076  25.654  12.466
46533W        W10092  21.520  31.627   2.213
46534W        W10093  11.248  35.477  13.888
46535W        W10094  16.670  18.775  14.350
46536W        W10095  19.627  27.673  13.882
46537W        W10096  26.958  34.499   1.743
46538W        W10097  39.870  40.997   2.786
46539W        W10098  18.206  24.530   2.289
46540W        W10099  31.645   1.462   0.734
46541W        W10100   4.277  42.922   1.742
46542W        W10101  19.686   8.872  14.354
46543W        W10102  15.589  31.063   2.792
46544W        W10103  12.204   3.838   1.726
46545W        W10104   2.733  31.069   3.195
46546W        W10105   9.182  40.030  14.286
46547W        W10106  38.945  38.051  14.400
46548W        W10107  20.209   7.179   1.355
46549W        W10108  37.511   0.849   0.914
46550W        W10109  24.668  17.258  14.951
46551W        W10110  20.682   8.887   4.293
46552W        W10111  38.929  38.935  11.555
46553W        W10112  39.402   0.475  11.870
46554W        W10113  14.801  11.813  13.326
46555W        W10114   7.720  42.318  11.950
46556W        W10115  30.065  18.568   4.353
46557W        W10116  42.452  33.513   0.263
46558W        W10117  39.354  14.643   3.318
46559W        W10118  21.705  38.328  14.301
46560W        W10119  27.671  35.418   2.234
46561W        W10120  11.700  30.509   1.221
46562W        W10121  25.206   6.373   2.329
46563W        W10122  10.243  40.339  14.283
46564W        W10123  21.222  10.846  13.362
46565W        W10124   0.884  35.075   1.261
46566W        W10125  21.058   6.328  11.907
46567W        W10126  35.900  12.254   1.934
46568W        W10127  28.979   2.227   4.797
46569W        W10128  16.313  40.425  11.930
46570W        W10129   8.801  43.381   1.779
46571W        W10130  17.781  23.560   1.790
46572W        W10131  33.480  15.085   2.204
46573W        W10132  37.081  23.618   4.655
46574W        W10133  37.403  15.751   1.258
46575W        W10134  13.302  27.085  13.895
46576W        W10135  30.599  10.840  13.994
46577W        W10136  34.400  10.285   1.823
46578W        W10137  27.446  43.470  13.442
46579W        W10138  16.709  13.748   2.668
46580W        W10139  31.462  33.037  12.894
46581W        W10140   9.822   3.933  12.843
46582W        W10141   0.947  27.119  12.823
46583W        W10142  30.417  19.663  14.430
46584W        W10143  10.209   7.320  14.780
46585W        W10144  42.947  11.779  13.891
46586W        W10145  11.657  14.226  13.045
46587W        W10146   8.346  31.067  11.968
46588W        W10147  10.342  27.071  10.592
46589W        W10148  21.604  13.752  12.357
46590W        W10149  22.070   5.221   2.868
46591W        W10150   6.259  38.018  14.288
46592W        W10151   6.875  15.751  11.572
46593W        W10152  34.984  14.693  13.894
46594W        W10153  24.572  39.394   3.785
46595W        W10154   9.771  43.768   2.262
46596W        W10155  19.129  17.077  14.770
46597W        W10156  37.431  20.130   0.957
46598W        W10157  18.704  43.406   3.311
46599W        W10158  10.346  13.610  14.910
46600W        W10159   5.760  32.397   0.957
46601W        W10160  37.061   2.429   4.280
46602W        W10161  30.491  28.016  11.998
46603W        W10162   6.199  42.509   4.607
46604W        W10163   1.368  10.269   4.711
46605W        W10164  44.483  43.291   0.922
46606W        W10165  29.568  11.706   3.835
46607W        W10166  33.383   7.678   4.626
46608W        W10167   8.875   8.668   1.290
46609W        W10168  20.587  10.359   4.752
46610W        W10169  31.591  23.031  12.886
46611W        W10170   4.389  24.538  10.408
46612W        W10171  33.422   8.666  12.548
46613W        W10172  18.213   5.348   3.184
46614W        W10173  38.514  34.403   1.890
46615W        W10174  24.029   0.261   3.668
46616W        W10175  32.433   9.828   2.825
46617W        W10176  33.931  43.324  13.916
46618W        W10177   6.334  23.200   0.782
46619W        W10178  11.335  43.407  13.333
46620W        W10179  30.455  23.095   0.378
46621W        W10180   8.685  22.133   0.460
46622W        W10181  15.265  36.410  12.434
46623W        W10182  19.630  20.121  11.968
46624W        W10183  13.784  34.413   1.266
46625W        W10184  41.811  19.740   5.252
46626W        W10185  37.358  13.337   2.180
46627W        W10186   7.708  18.779  10.478
46628W        W10187  10.849  30.569  14.785
46629W        W10188   5.764   4.393  12.048
46630W        W10189  23.571  42.844   1.897
46631W        W10190   0.967   0.359   1.824
46632W        W10191   1.417  17.158   4.240
46633W        W10192  29.665   4.426   1.892
46634W        W10193   5.822  17.184   1.267
46635W        W10194   1.746  33.485  14.897
46636W        W10195  18.649   8.659  11.479
46637W        W10196  40.828  14.207  14.828
46638W        W10197  43.980  24.182   4.773
46639W        W10198   4.411  18.627   3.295
46640W        W10199   2.870  31.490   1.304
46641W        W10200  33.116   4.920   1.727
46642W        W10201  35.984  36.002  12.911
46643W        W10202  40.993  43.826  14.913
46644W        W10203  12.143   8.881   3.338
46645W        W10204  30.117  28.480   0.273
46646W        W10205   4.302  13.835   2.802
46647W        W10206  44.343  28.473   0.896
46648W        W10207  24.703   9.178   3.366
46649W        W10208  25.074  28.128  12.850
46650W        W10209  12.831  10.725   2.323
46651W        W10210   5.362  27.095  11.510
46652W        W10211  37.016  18.076  13.005
46653W        W10212  10.187   8.711  10.075
46654W        W10213  11.832  30.574  14.476
46655W        W10214  38.534   2.297  10.931
46656W        W10215  17.604  42.366   0.382
46657W        W10216   4.928   2.276  14.008
46658W        W10217  30.045  14.121   3.370
46659W        W10218   3.372   5.252  10.591
46660W        W10219  20.204  27.642   1.696
46661W        W10220  35.545  44.338   3.842
46662W        W10221  12.682  21.707  13.352
46663W        W10222  22.625  24.673  13.916
46664W        W10223  13.294   5.767  10.892
46665W        W10224  14.182  34.582   4.165
46666W        W10225  44.337  15.202  14.018
46667W        W10226   8.881  32.110   0.777
46668W        W10227  18.117  10.833   0.907
46669W        W10228  16.608  30.917   1.405
46670W        W10229   4.710   5.345  12.390
46671W        W10230  39.939  38.955   2.705
46672W        W10231  18.587  26.466  11.545
46673W        W10232   0.380  10.320  13.953
46674W        W10233  40.875  20.163  13.477
46675W        W10234  16.231  28.156   0.882
46676W        W10235   3.370  27.595  12.899
46677W        W10236  24.999  16.622  14.903
46678W        W10237  31.920   5.775  12.900
46679W        W10238  38.427  38.958  13.825
46680W        W10239  18.109  36.350   1.421
46681W        W10240  33.496  12.263   2.388
46682W        W10241  19.742   2.255   1.790
46683W        W10242  23.232   1.803  13.403
46684W        W10243  10.243  18.265   3.842
46685W        W10244  19.234  42.442   1.728
46686W        W10245  18.766   5.910  14.486
46687W        W10246  38.883  34.574   5.182
46688W        W10247  44.000  15.218   1.855
46689W        W10248  15.241   4.430   3.661
46690W        W10249  34.969  19.072  11.912
46691W        W10250  24.114  26.517   5.195
46692W        W10251  44.980  35.976   1.214
46693W        W10252  33.935   4.309  13.357
46694W        W10253   5.719   6.860   3.349
46695W        W10254  34.926  19.680  11.424
46696W        W10255  10.633  42.870  11.091
46697W        W10256   8.780  44.789  11.036
46698W        W10257   7.765   7.232   0.331
46699W        W10258  38.048  23.735  14.373
46700W        W10259  44.382  16.123   1.436
46701W        W10260  43.501  16.216  10.972
46702W        W10261   0.475   7.826   2.198
46703W        W10262  21.559  23.162   3.318
46704W        W10263   3.404  15.716   3.246
46705W        W10264  38.509  28.008  12.397
46706W        W10265  36.544  12.323   0.866
46707W        W10266  42.025   5.373  11.995
46708W        W10267   9.222  11.621   0.368
46709W        W10268   8.716  16.137   0.342
46710W        W10269  26.497  34.906   2.376
46711W        W10270  38.881  10.822   4.605
46712W        W10271   3.323  28.529  10.444
46713W        W10272   7.409  38.428   1.329
46714W        W10273  19.157  40.528   1.418
46715W        W10274   3.742  19.773   1.303
46716W        W10275  11.835  13.300   2.204
46717W        W10276  10.307  42.885   1.853
46718W        W10277  35.962  39.553   4.346
46719W        W10278  34.449   9.223   2.337
46720W        W10279  29.580  41.960  11.996
46721W        W10280  37.561  25.017  12.398
46722W        W10281  16.248  39.520   4.286
46723W        W10282  11.747  30.027   2.853
46724W        W10283  34.967   7.307  10.633
46725W        W10284  32.933  18.655   0.811
46726W        W10285  41.871  25.675   3.367
46727W        W10286  28.514  10.185   4.826
46728W        W10287  32.532  16.105  11.483
46729W        W10288  27.087  14.116   2.847
46730W        W10289  39.391   3.441   4.771
46731W        W10290  27.995  26.625  11.413
46732W        W10291  44.011  35.424  10.903
46733W        W10292   3.450  43.799   0.470
46734W        W10293  28.612  18.059   0.279
46735W        W10294  25.591  36.865  13.925
46736W        W10295  12.775  17.758  10.887
46737W        W10296  23.018  29.112   0.919
46738W        W10297  27.076  25.660  10.641
46739W        W10298  30.460  34.608   1.233
46740W        W10299  14.673  20.553  12.927
46741W        W10300  36.414  26.205  14.777
46742W        W10301   7.758  28.933   3.263
46743W        W10302   5.821   1.337   3.659
46744W        W10303  43.409   0.482   3.378
46745W        W10304  37.879  33.446   4.732
46746W        W10305  38.355  35.493   1.703
46747W        W10306  24.050   9.844  13.915
46748W        W10307  17.118  14.114  12.456
46749W        W10308  18.733  19.054  14.819
46750W        W10309  44.290   6.915  11.078
46751W        W10310  35.033   3.315   1.838
46752W        W10311  36.568   7.720   5.639
46753W        W10312  34.011  12.164   3.765
46754W        W10313   1.736  26.670   4.621
46755W        W10314  18.717  17.759  12.903
46756W        W10315  36.554  42.792   0.911
46757W        W10316  12.675  43.776  12.498
46758W        W10317  34.578  22.719  13.045
46759W        W10318  33.519  37.430  11.515
46760W        W10319  20.708  34.930  13.811
46761W        W10320  12.655  17.573   3.752
46762W        W10321   2.472  28.929  11.873
46763W        W10322  20.701  21.098   2.890
46764W        W10323  41.503  14.734   1.340
46765W        W10324  11.360   9.208  12.988
46766W        W10325  20.199   6.836   4.694
46767W        W10326  17.173  17.226  10.140
46768W        W10327   7.846   6.793   2.297
46769W        W10328   9.347  42.842  13.415
46770W        W10329  22.171  17.756  13.439
46771W        W10330  41.805  13.795   2.779
46772W        W10331  35.495  39.511  10.951
46773W        W10332  25.512  30.971   3.157
46774W        W10333  21.099   4.237  10.527
46775W        W10334  31.947   1.785   1.831
46776W        W10335  37.389  33.477  14.318
46777W        W10336  38.064  39.840  13.824
46778W        W10337   5.341  32.058   0.877
46779W        W10338  38.045  22.118  13.471
46780W        W10339  10.155  10.274   3.373
46781W        W10340  39.380  30.961  12.964
46782W        W10341  21.236  38.897   3.172
46783W        W10342  14.204  25.124   2.275
46784W        W10343  41.397   9.847  11.971
46785W        W10344   0.956  17.573  13.432
46786W        W10345   8.873  23.200   0.482
46787W        W10346  22.531  14.758   1.844
46788W        W10347   9.232   7.892   4.670
46789W        W10348  25.547   4.872  12.361
46790W        W10349  41.534  39.441   4.172
46791W        W10350  31.414  28.973   4.149
46792W        W10351  14.246   5.711  13.353
46793W        W10352   4.298  24.180   2.833
46794W        W10353  16.305  28.475  13.050
46795W        W10354  14.647  33.952   3.790
46796W        W10355   5.774  41.900  10.939
46797W        W10356   3.836  40.405   4.653
46798W        W10357  16.592  11.772  11.020
46799W        W10358  22.083   8.763   2.685
46800W        W10359  30.041  23.717  12.387
46801W        W10360   3.225  23.137  11.028
46802W        W10361  17.174  29.632   0.286
46803W        W10362  39.487  12.825  14.449
46804W        W10363  23.534   1.275   4.646
46805W        W10364   2.304  18.717   0.935
46806W        W10365   4.330  20.111   4.765
46807W        W10366  31.098  20.731  10.504
46808W        W10367  12.293  34.930   2.201
46809W        W10368  21.203  14.293   4.271
46810W        W10369  26.053  32.472  12.438
46811W        W10370  39.407  40.983  11.384
46812W        W10371  16.201  12.781   4.688
46813W        W10372  37.853   8.728   3.282
46814W        W10373  22.088  32.003   9.488
46815W        W10374   9.816  11.692  12.993
46816W        W10375   9.677  41.372  12.409
46817W        W10376  31.529  42.387   1.242
46818W        W10377  20.049   1.293  11.997
46819W        W10378  41.919   7.326  10.571
46820W        W10379  30.093  24.228   0.299
46821W        W10380  15.258  13.217   3.650
46822W        W10381  42.405  13.822   3.710
46823W        W10382  26.626  40.420   3.638
46824W        W10383  22.248   2.929   1.411
46825W        W10384  18.050  30.454  13.052
46826W        W10385  23.125  16.635   3.364
46827W        W10386  21.198  33.977  13.346
46828W        W10387   4.237  38.421   3.290
46829W        W10388  13.137  25.522  10.083
46830W        W10389  31.569   8.868   1.877
46831W        W10390  28.558  36.054  12.463
46832W        W10391  38.463  11.202   1.933
46833W        W10392  23.052  41.378   3.270
46834W        W10393  21.200  40.387   3.278
46835W        W10394  44.278  27.454   3.255
46836W        W10395  33.981  31.525   1.392
46837W        W10396  13.320   0.954  12.068
46838W        W10397  21.158  25.138  10.602
46839W        W10398   4.273  12.184   4.684
46840W        W10399   1.334  14.331   2.884
46841W        W10400  10.661  23.541   1.866
46842W        W10401  33.022  18.674  12.850
46843W        W10402  41.938   4.927  14.903
46844W        W10403  44.766  20.131   2.750
46845W        W10404  22.107  31.942   0.440
46846W        W10405  15.622  23.527   0.290
46847W        W10406   3.267  24.485   2.711
46848W        W10407   8.855  24.023   2.703
46849W        W10408   7.769  29.644   2.850
46850W        W10409   8.794  39.900   0.955
46851W        W10410  29.424  33.111  13.445
46852W        W10411  41.035  29.618  14.516
46853W        W10412  39.545   2.297   3.183
46854W        W10413  39.913  40.317   2.739
46855W        W10414  20.185  11.173   2.702
46856W        W10415  27.523  29.424  13.430
46857W        W10416  20.028  10.306   2.320
46858W        W10417  36.527   4.856  13.461
46859W        W10418  23.635   2.472  13.013
46860W        W10419  14.192   8.678  11.446
46861W        W10420   5.748  35.472  12.477
46862W        W10421  19.054   1.447  12.364
46863W        W10422   6.889  44.267   3.717
46864W        W10423  34.087  10.842   0.951
46865W        W10424  15.693  12.155  14.386
46866W        W10425  27.589  41.809  10.915
46867W        W10426  42.390  20.060  12.569
46868W        W10427   8.829  24.034   2.217
46869W        W10428   5.804  35.904   1.428
46870W        W10429  14.810   6.830   3.701
46871W        W10430  28.516   6.405   2.386
46872W        W10431  28.087   1.758  13.850
46873W        W10432  37.935  32.967   2.830
46874W        W10433  11.303   3.387   0.312
46875W        W10434  42.333  20.113   4.206
46876W        W10435  37.498   5.933  11.533
46877W        W10436  16.111  32.116   2.190
46878W        W10437  29.094   1.897  13.362
46879W        W10438   4.336  30.468   4.238
46880W        W10439  44.979  41.826   3.870
46881W        W10440  32.625  44.009   3.180
46882W        W10441  17.172  13.686  10.632
46883W        W10442  38.510  36.470  14.939
46884W        W10443  16.808   9.836  14.908
46885W        W10444  28.179  34.603   1.884
46886W        W10445  34.883  21.541   0.397
46887W        W10446  31.920  16.784   0.760
46888W        W10447  12.211  42.329   0.409
46889W        W10448   2.358  24.525   2.805
46890W        W10449   0.751  26.487   1.381
46891W        W10450  28.598  11.655  11.882
46892W        W10451   2.287  41.510   0.244
46893W        W10452  13.815   7.377   0.295
46894W        W10453  25.469  37.967   0.330
46895W        W10454  14.124  25.700  12.380
46896W        W10455   1.851  41.344   1.256
46897W        W10456  25.970  30.532   4.604
46898W        W10457   9.661  31.474  14.906
46899W        W10458  16.170  35.915   0.358
46900W        W10459  39.829  32.519   1.269
46901W        W10460  31.414  38.982   1.731
46902W        W10461  37.926  14.654   0.439
46903W        W10462  25.550  11.622   2.177
46904W        W10463  11.344  13.701  11.974
46905W        W10464   3.862  31.554  13.314
46906W        W10465  22.601  13.210  14.912
46907W        W10466   7.209  36.046   4.297
46908W        W10467  10.843  15.709   1.302
46909W        W10468  40.033  23.646  13.039
46910W        W10469  24.999  37.432  11.427
46911W        W10470  33.941  30.059   1.272
46912W        W10471  19.648  15.307   2.392
46913W        W10472  32.104  36.912   3.774
46914W        W10473  22.649  12.273  13.860
46915W        W10474   4.773  26.686   4.628
46916W        W10475  12.709  33.946   2.681
46917W        W10476  35.475  26.657  14.329
46918W        W10477   6.892  22.102   3.382
46919W        W10478  38.017  26.579   4.220
46920W        W10479  14.795  19.665   4.250
46921W        W10480   7.814  37.992   0.769
46922W        W10481  39.318   8.294  12.923
46923W        W10482  35.891  39.460  13.882
46924W        W10483   7.704  24.659  14.921
46925W        W10484   8.866  43.962  13.517
46926W        W10485  27.178  17.146   4.301
46927W        W10486  16.308   2.857   1.700
46928W        W10487  22.199  11.832  13.048
46929W        W10488  42.409  11.314  10.460
46930W        W10489   0.328   3.767   2.863
46931W        W10490  14.103   1.758  14.798
46932W        W10491  20.273  17.637  11.861
46933W        W10492  13.312  14.338  12.517
46934W        W10493   5.878  42.948  10.101
46935W        W10494  44.816  22.723  13.831
46936W        W10495   5.826  11.286  14.451
46937W        W10496  12.215  19.221   3.859
46938W        W10497  40.500  24.568  14.789
46939W        W10498  37.555  44.315   3.786
46940W        W10499  31.460  34.549  13.966
46941W        W10500   6.859  43.783   3.640
46942W        W10501  42.002  39.360  13.827
46943W        W10502  18.106  17.745   4.173
46944W        W10503  15.677  25.132  13.882
46945W        W10504  27.646  21.713   1.439
46946W        W10505  34.109  35.026   1.902
46947W        W10506  19.591  32.404  11.500
46948W        W10507  31.534  38.843   0.411
46949W        W10508  30.543   5.694   3.772
46950W        W10509  31.998   8.701   3.150
46951W        W10510  10.760  36.526   2.221
46952W        W10511  41.371   6.777   0.368
46953W        W10512  21.123  28.056   1.432
46954W        W10513  27.471   4.398  10.584
46955W        W10514  27.516  31.478  13.533
46956W        W10515  36.425  30.549   3.768
46957W        W10516   0.282  43.879  10.984
46958W        W10517   8.357   8.844   3.187
46959W        W10518  20.091   0.926  10.603
46960W        W10519   9.310  18.765  14.977
46961W        W10520   7.702   1.326  14.394
46962W        W10521   2.733  12.820  14.461
46963W        W10522  15.782  40.340  14.291
46964W        W10523  38.829  18.627   2.394
46965W        W10524  29.456  44.365   2.734
46966W        W10525  41.005  40.919   2.244
46967W        W10526   0.268  32.463  13.425
46968W        W10527  43.476  24.142   2.743
46969W        W10528  21.033   4.263  10.088
46970W        W10529  21.131  26.491   1.898
46971W        W10530  28.165   8.757   0.840
46972W        W10531  18.086  39.834   1.909
46973W        W10532   2.752   0.349  12.841
46974W        W10533  14.676  36.897   2.672
46975W        W10534  29.594  19.686   4.656
46976W        W10535  23.231   7.388  11.115
46977W        W10536   6.790  29.643  12.390
46978W        W10537  26.146  41.440   0.410
46979W        W10538  44.392  27.113   3.716
46980W        W10539  30.550   4.366   4.122
46981W        W10540   0.787  21.728  14.434
46982W        W10541  33.611  29.459   0.959
46983W        W10542  18.702  21.190   9.947
46984W        W10543  19.683  30.993  13.485
46985W        W10544   7.771   3.458  10.966
46986W        W10545  40.029  23.059   2.179
46987W        W10546  33.017  25.568   4.340
46988W        W10547   5.399  23.082   3.854
46989W        W10548  22.562  20.090   0.345
46990W        W10549  17.558  23.688   0.269
46991W        W10550  18.571  14.787  14.919
46992W        W10551  31.016   0.911   2.244
46993W        W10552  23.613  28.030   1.307
46994W        W10553  10.720   3.898   1.339
46995W        W10554   3.854   1.777   1.893
46996W        W10555   8.838  33.991  14.800
46997W        W10556  31.149  44.801  13.045
46998W        W10557  16.227  36.921   0.773
46999W        W10558  21.205  21.182  11.575
47000W        W10559  41.824  36.540   3.721
47001W        W10560  31.575  37.053  11.588
47002W        W10561   0.399  25.128   2.847
47003W        W10562  22.682  23.675  12.870
47004W        W10563  33.446  31.481   2.679
47005W        W10564  14.304  39.415   0.465
47006W        W10565  26.046   7.840   0.273
47007W        W10566  28.589  42.395   4.198
47008W        W10567  11.673  12.722  11.603
47009W        W10568  18.066   7.203  10.961
47010W        W10569   6.404  20.757  10.903
47011W        W10570   2.962  26.072  11.005
47012W        W10571  11.757  27.993   9.946
47013W        W10572  28.947  36.915  14.311
47014W        W10573   5.334  25.701  14.949
47015W        W10574  17.632  12.294   4.160
47016W        W10575   8.801  42.800   2.703
47017W        W10576   5.351  44.274   0.945
47018W        W10577  31.093  11.325   3.722
47019W        W10578  19.042  18.112  12.091
47020W        W10579  19.694  43.794  12.946
47021W        W10580  10.740  28.630  11.525
47022W        W10581  30.145   4.932   1.442
47023W        W10582  31.113  16.808  14.891
47024W        W10583  22.695  31.489   4.282
47025W        W10584   9.782  23.987   2.676
47026W        W10585   0.831   5.256  10.637
47027W        W10586  17.194  42.877   1.795
47028W        W10587  44.416  36.441   3.309
47029W        W10588  38.035   1.414  10.439
47030W        W10589  42.312  21.647   1.414
47031W        W10590  19.211  17.240   2.826
47032W        W10591  34.116  39.923   4.263
47033W        W10592  33.029  43.004   2.224
47034W        W10593   6.852  10.745  10.621
47035W        W10594   4.815  23.494  10.605
47036W        W10595  28.450  14.595   0.954
47037W        W10596  14.288  34.039   4.280
47038W        W10597  27.552  14.646   2.667
47039W        W10598  38.553  29.158   4.755
47040W        W10599  18.564  23.510   3.793
47041W        W10600  43.021   0.931   5.162
47042W        W10601  18.221  11.280  12.853
47043W        W10602  30.487   1.844   4.803
47044W        W10603  34.909   3.443  11.537
47045W        W10604  12.177  17.676   0.780
47046W        W10605  15.258  44.308   0.921
47047W        W10606  28.478  37.516  13.494
47048W        W10607   0.466  24.516   1.345
47049W        W10608  41.434  13.348  12.070
47050W        W10609  40.525  18.694   3.808
47051W        W10610   5.800  31.480  14.383
47052W        W10611  43.953   3.730   2.668
47053W        W10612  39.381  27.133  13.417
47054W        W10613  34.510  25.653  12.495
47055W        W10614   9.654   2.429   3.837
47056W        W10615  35.025   6.746   4.651
47057W        W10616  14.616   8.352  12.493
47058W        W10617  16.626  23.194   1.877
47059W        W10618  19.224  34.980   3.357
47060W        W10619  34.529  23.568  12.866
47061W        W10620  26.683  15.596   2.901
47062W        W10621  32.951  40.535   2.840
47063W        W10622   4.273   6.248   3.150
47064W        W10623  21.732  30.152  12.533
47065W        W10624   7.310  44.940  12.903
47066W        W10625  40.402  36.993  14.445
47067W        W10626  10.808  22.737  12.032
47068W        W10627  20.717  19.702  10.639
47069W        W10628  14.746  17.609   2.332
47070W        W10629  12.725  22.051   1.437
47071W        W10630  14.139   7.840  14.294
47072W        W10631  18.274  24.984   4.609
47073W        W10632  21.181   7.848  14.821
47074W        W10633  20.625  10.302   0.791
47075W        W10634  36.846  31.134   1.301
47076W        W10635  35.575  44.362  11.020
47077W        W10636   5.435  11.683   4.661
47078W        W10637   5.199  26.579   3.216
47079W        W10638  32.590   7.891  12.049
47080W        W10639  29.623  35.361  12.549
47081W        W10640   0.788  26.519   4.826
47082W        W10641  42.522  34.478   3.222
47083W        W10642   8.363  40.352   0.386
47084W        W10643   5.415  23.561  14.975
47085W        W10644  18.702   7.296   2.851
47086W        W10645   9.781  35.944   4.268
47087W        W10646  14.715  16.669  10.444
47088W        W10647   0.964  35.603  12.889
47089W        W10648  36.355  14.635  14.497
47090W        W10649   6.331  12.663  12.872
47091W        W10650  12.761  30.648  14.838
47092W        W10651   7.378  40.323  11.593
47093W        W10652  10.860   4.325   0.294
47094W        W10653  44.343  25.979   1.814
47095W        W10654  37.428   5.330  10.506
47096W        W10655  23.597  41.853  11.113
47097W        W10656  22.556  38.388   0.950
47098W        W10657  27.189  10.235   3.179
47099W        W10658   8.376   9.289  10.605
47100W        W10659  32.892  41.827  10.938
47101W        W10660   0.465  40.330   4.317
47102W        W10661   4.394  34.876  11.023
47103W        W10662  36.948  31.432  11.055
47104W        W10663   2.931   1.331  10.550
47105W        W10664  39.319  22.249   2.729
47106W        W10665   6.216  41.835  12.936
47107W        W10666  35.912  17.670  11.445
47108W        W10667  44.434  21.154  11.488
47109W        W10668  26.196  24.017  11.550
47110W        W10669  30.588  43.837   1.402
47111W        W10670  21.536   1.456   4.259
47112W        W10671  40.461  22.672  11.996
47113W        W10672  37.445  22.648   2.716
47114W        W10673  14.667  19.267  14.987
47115W        W10674  20.580  22.187  10.570
47116W        W10675   6.784  14.762   9.573
47117W        W10676  38.424  29.489   4.823
47118W        W10677   2.341  32.933   0.926
47119W        W10678  20.547   3.822   4.713
47120W        W10679  32.566   1.757   4.666
47121W        W10680  42.851  20.089  10.417
47122W        W10681   7.721  31.623  11.864
47123W        W10682  40.495   3.323   0.863
47124W        W10683  38.915  13.117   4.309
47125W        W10684   6.701  40.868  14.022
47126W        W10685  10.842  37.087  10.455
47127W        W10686  40.497  41.390   0.747
47128W        W10687  17.746  14.739   3.201
47129W        W10688  42.884   3.447   1.794
47130W        W10689  36.495  43.014   2.826
47131W        W10690  11.217   3.823   2.832
47132W        W10691  31.625  44.276   4.680
47133W        W10692  28.119  39.990   1.721
47134W        W10693  38.935  10.665   4.225
47135W        W10694  42.790  17.739  11.568
47136W        W10695  16.171  27.665   4.744
47137W        W10696  20.650  12.695   2.322
47138W        W10697  19.127   7.856   1.722
47139W        W10698   3.419  28.177   4.832
47140W        W10699  23.123  38.045  10.481
47141W        W10700  26.488   5.834  10.944
47142W        W10701  38.468  11.149   1.448
47143W        W10702  22.139  23.216  14.909
47144W        W10703   8.819  30.027   1.316
47145W        W10704  34.596  37.469  13.410
47146W        W10705  15.150  18.619  13.855
47147W        W10706   1.449  32.928  11.544
47148W        W10707  40.385   9.368  13.473
47149W        W10708  15.752  20.557   2.743
47150W        W10709  21.077  32.628   2.743
47151W        W10710  12.829   0.921  14.482
47152W        W10711  38.926  39.903  11.110
47153W        W10712  32.042   8.282  12.448
47154W        W10713  35.865   4.371   4.796
47155W        W10714  31.934  25.123   0.735
47156W        W10715   2.746  37.407   5.270
47157W        W10716  11.271   5.764  10.580
47158W        W10717  41.886  11.350  13.413
47159W        W10718   2.784  22.706   0.804
47160W        W10719  44.972   3.441   2.344
47161W        W10720  33.392  18.281   9.989
47162W        W10721  14.270  19.240  14.414
47163W        W10722  13.215  24.596   1.919
47164W        W10723  36.978  21.535   2.735
47165W        W10724  10.773  13.728  12.014
47166W        W10725  32.981  16.212   1.238
47167W        W10726  15.312   2.454  13.045
47168W        W10727  27.002   9.888  12.953
47169W        W10728  26.968  25.541  12.020
47170W        W10729  28.605  10.185  10.413
47171W        W10730  44.808   9.675   4.286
47172W        W10731  20.629  27.655   1.709
47173W        W10732  14.181  36.084  12.385
47174W        W10733  35.519  41.035   1.296
47175W        W10734  37.399  38.994  12.890
47176W        W10735  44.762  12.289   1.763
47177W        W10736  15.134  21.644   2.792
47178W        W10737   9.237  24.077  12.969
47179W        W10738  23.225  34.038  12.942
47180W        W10739  12.349  38.478  12.838
47181W        W10740  18.596  21.591   2.180
47182W        W10741  27.193  39.474   0.869
47183W        W10742  25.095  44.288   2.311
47184W        W10743  23.576  44.329   0.263
47185W        W10744  22.026  41.365  10.517
47186W        W10745   4.358   8.296   0.933
47187W        W10746  33.009  40.868   3.258
47188W        W10747  17.139   2.236  10.917
47189W        W10748  39.887  40.020  13.866
47190W        W10749  11.144  34.394  11.530
47191W        W10750  12.325  11.133   3.671
47192W        W10751  35.423  25.702   0.267
47193W        W10752   0.276   0.777   4.155
47194W        W10753  13.319  29.016  11.527
47195W        W10754   5.436  13.330   3.789
47196W        W10755  16.121  28.154   2.820
47197W        W10756  38.938  43.406  13.406
47198W        W10757  24.702  41.398  14.365
47199W        W10758  26.148   5.910   2.225
47200W        W10759  16.647  28.440  10.599
47201W        W10760  31.577  34.096   2.837
47202W        W10761  34.949  10.696   3.234
47203W        W10762  31.063  39.908   2.754
47204W        W10763  29.957   8.667   4.169
47205W        W10764  20.144   7.676  13.897
47206W        W10765   2.358  30.014  11.925
47207W        W10766  22.226  37.561   2.285
47208W        W10767  14.206  11.824   4.171
47209W        W10768  12.812  44.359   4.227
47210W        W10769  23.158  41.335  10.618
47211W        W10770  39.976   2.449   2.695
47212W        W10771  35.041  18.116   2.327
47213W        W10772  20.088  26.594  10.102
47214W        W10773  40.354  26.535   3.725
47215W        W10774   3.352  26.062   4.340
47216W        W10775   7.791  10.776   0.265
47217W        W10776  24.614  18.123   4.608
47218W        W10777   7.194  22.228  10.429
47219W        W10778  10.177   7.777  10.597
47220W        W10779  15.295  17.776  14.381
47221W        W10780   9.719  26.680   3.803
47222W        W10781  35.093  31.027  13.897
47223W        W10782  22.179   9.815   1.341
47224W        W10783  29.130  23.223   2.328
47225W        W10784  20.185  29.919  14.852
47226W        W10785   5.785  15.149   3.818
47227W        W10786   9.754  20.642  12.954
47228W        W10787  22.009  19.184  11.107
47229W        W10788   1.742  32.396   3.302
47230W        W10789   0.314   7.784   2.899
47231W        W10790  35.440   8.318  11.948
47232W        W10791  42.512   9.797   0.376
47233W        W10792  34.944   4.937  14.327
47234W        W10793  43.407  33.955   4.634
47235W        W10794  15.760  31.896  14.791
47236W        W10795  38.517   3.840   4.149
47237W        W10796  13.723  10.860  11.497
47238W        W10797   3.863  44.288   3.717
47239W        W10798  37.921  24.709  10.956
47240W        W10799  39.027  37.383  14.819
47241W        W10800  24.648  26.700  12.823
47242W        W10801  22.705  36.903  11.560
47243W        W10802  21.241  12.776  12.978
47244W        W10803   1.858  24.089   4.126
47245W        W10804  31.574  10.295   3.175
47246W        W10805  24.084  22.507   1.820
47247W        W10806  44.313   4.224  11.999
47248W        W10807   4.836   6.887  13.312
47249W        W10808   0.976  36.071   0.435
47250W        W10809  31.026  20.164   3.226
47251W        W10810   3.949  27.471   3.632
47252W        W10811  40.831  12.637  11.115
47253W        W10812  33.040  32.606  12.562
47254W        W10813  20.746   9.309  10.894
47255W        W10814   7.332   5.930   4.206
47256W        W10815   0.974  22.123   0.841
47257W        W10816  37.492  41.841  14.797
47258W        W10817  21.553   7.719   2.721
47259W        W10818  18.706  39.484   3.656
47260W        W10819   9.391  20.250  12.573
47261W        W10820  20.626   9.747   0.832
47262W        W10821   4.424  29.933   1.829
47263W        W10822  35.860   9.325   0.262
47264W        W10823  33.913  16.134   0.407
47265W        W10824  23.636  29.486  14.502
47266W        W10825   7.347  40.992   0.436
47267W        W10826  18.612  16.749   0.250
47268W        W10827  17.205  34.891   2.755
47269W        W10828  27.587  40.875   4.194
47270W        W10829  36.445  38.875   1.443
47271W        W10830  30.630  19.044   3.740
47272W        W10831  30.514  11.127   4.816
47273W        W10832  27.065  36.441   3.238
47274W        W10833  22.628  26.073  14.292
47275W        W10834  25.019  42.896   3.695
47276W        W10835   1.882  37.451   1.359
47277W        W10836  27.482  32.109   1.874
47278W        W10837  44.817  43.874   0.755
47279W        W10838  22.517  27.571  10.425
47280W        W10839  34.866  39.864   2.738
47281W        W10840   4.417  43.277   3.762
47282W        W10841  34.877  29.616  14.513
47283W        W10842   5.750  16.710  13.952
47284W        W10843  16.238  29.051  12.036
47285W        W10844  15.198  11.642  13.469
47286W        W10845  44.987   1.949   1.286
47287W        W10846  27.490  37.855   4.181
47288W        W10847  10.875  16.176   5.641
47289W        W10848  37.425  43.992  13.954
47290W        W10849  38.846  33.564  10.933
47291W        W10850  16.128  36.011   4.636
47292W        W10851  13.809  26.515  15.000
47293W        W10852  17.665   6.273   2.734
47294W        W10853   6.854  14.750  12.077
47295W        W10854   4.906  43.950  13.505
47296W        W10855  36.402  14.673   3.373
47297W        W10856  12.340  42.291  13.351
47298W        W10857  10.646   7.246  12.055
47299W        W10858  21.095  25.564   0.473
47300W        W10859   7.708  31.148   4.598
47301W        W10860  19.729   4.752  12.441
47302W        W10861  12.688   5.375  10.929
47303W        W10862  20.609  36.035   3.304
47304W        W10863  17.285  24.525  12.365
47305W        W10864  32.015  44.282  13.400
47306W        W10865  31.503  12.305   3.787
47307W        W10866  35.960   1.277   2.254
47308W        W10867   8.852  22.533   4.698
47309W        W10868  33.546  23.230   1.225
47310W        W10869  17.093  35.917  10.624
47311W        W10870  14.654   7.909   4.238
47312W        W10871  19.709  21.722  12.047
47313W        W10872  20.157  21.577   2.749
47314W        W10873  30.924  44.767  14.481
47315W        W10874  41.400   3.353  10.521
47316W        W10875  19.564  41.421   1.786
47317W        W10876  16.662  30.533   0.287
47318W        W10877  18.788  28.620   4.826
47319W        W10878  30.915  40.810   1.734
47320W        W10879  30.078  32.557   2.210
47321W        W10880  15.172   6.720  12.543
47322W        W10881  40.950  28.524   4.684
47323W        W10882  34.940  28.565  11.905
47324W        W10883   4.378   1.253  13.390
47325W        W10884  16.568  38.994   3.233
47326W        W10885   5.374   4.912  11.597
47327W        W10886  41.949  40.983   0.920
47328W        W10887  33.601  16.714   2.371
47329W        W10888  33.407   8.843  14.027
47330W        W10889  40.312   6.853  11.480
47331W        W10890  26.679   3.899   4.215
47332W        W10891  25.609  35.523  12.872
47333W        W10892  33.609  20.685  10.038
47334W        W10893  12.307  15.754  11.445
47335W        W10894  41.367  13.703  14.478
47336W        W10895  17.070  12.808  13.508
47337W        W10896  22.674  42.030   2.824
47338W        W10897  26.050   8.298   0.883
47339W        W10898  25.554  23.126  11.860
47340W        W10899   0.781  29.054  10.632
47341W        W10900  26.149  10.682  11.578
47342W        W10901  14.740   0.416  13.970
47343W        W10902   4.204  40.016  13.814
47344W        W10903   2.874   9.795  12.428
47345W        W10904  13.246  33.973   4.281
47346W        W10905  39.905  28.117   3.191
47347W        W10906  32.479   8.659   4.609
47348W        W10907  18.726  18.217  12.368
47349W        W10908  25.593   8.205   0.915
47350W        W10909  19.106   6.827  14.942
47351W        W10910  41.338  37.024   2.715
47352W        W10911  11.797  23.064   4.638
47353W        W10912  20.638  16.083   1.807
47354W        W10913  38.450  31.016  10.573
47355W        W10914  29.653  36.374  12.085
47356W        W10915  30.467  37.370  14.492
47357W        W10916   5.201   6.226   3.748
47358W        W10917  29.098  37.984  11.111
47359W        W10918  14.667  21.192   3.798
47360W        W10919   1.342   1.272  14.861
47361W        W10920  15.313  39.840   1.370
47362W        W10921  33.118  37.860   4.247
47363W        W10922  19.559  38.950   3.357
47364W        W10923   1.942  33.480   3.163
47365W        W10924  33.401  16.755  10.595
47366W        W10925  39.814  23.996   3.740
47367W        W10926  11.654  43.363  12.870
47368W        W10927  31.038  29.087  11.077
47369W        W10928  27.559  13.673   1.921
47370W        W10929  29.172  23.116  14.391
47371W        W10930  31.968   7.295   4.255
47372W        W10931  26.974  36.486   2.392
47373W        W10932  30.441   1.819   4.245
47374W        W10933  39.968   6.225  12.014
47375W        W10934  11.657  15.671   2.233
47376W        W10935   7.713  37.447   4.688
47377W        W10936  43.351  24.068   3.763
47378W        W10937  29.925  14.235   3.852
47379W        W10938  13.262  27.158   2.379
47380W        W10939   5.368  32.556  12.938
47381W        W10940   5.763  12.752  11.940
47382W        W10941   7.177  11.710   2.727
47383W        W10942  34.444  13.321  12.871
47384W        W10943  17.690  41.341  14.430
47385W        W10944  14.181  36.485  10.947
47386W        W10945  16.187  34.373   0.887
47387W        W10946  14.315   1.338  10.601
47388W        W10947  24.149  41.902   1.258
47389W        W10948  43.886  34.105  13.838
47390W        W10949  15.270  10.363   1.357
47391W        W10950  34.381  20.109  10.969
47392W        W10951  12.610  30.049   3.384
47393W        W10952  35.091  32.973   4.122
47394W        W10953   8.769  31.903   4.254
47395W        W10954  42.366  21.075   3.660
47396W        W10955   0.810   3.831  12.475
47397W        W10956   8.756  36.095   3.673
47398W        W10957  21.188  26.671  10.148
47399W        W10958  39.498  34.603  10.415
47400W        W10959  11.219  14.103   1.292
47401W        W10960   4.425  27.544  10.611
47402W        W10961  30.066  13.758   4.318
47403W        W10962   9.272   8.783   4.219
47404W        W10963   6.295  14.243   0.479
47405W        W10964  43.350  44.367  11.955
47406W        W10965  32.922  20.747  11.597
47407W        W10966  30.454  44.316   3.772
47408W        W10967  33.500  19.097   0.281
47409W        W10968  42.856  44.819   2.767
47410W        W10969  31.517  39.818   0.733
47411W        W10970  21.069   7.251  12.870
47412W        W10971   0.863  34.443   4.322
47413W        W10972  26.694  38.449  14.883
47414W        W10973  12.182  24.092   0.834
47415W        W10974  31.432  33.423  12.962
47416W        W10975   2.267  39.908   3.381
47417W        W10976  38.474   6.793  11.433
47418W        W10977  21.118  25.075   5.312
47419W        W10978   0.293  30.494   4.792
47420W        W10979   9.871  10.691  14.767
47421W        W10980  38.048  15.615   0.853
47422W        W10981  12.621  22.546   1.260
47423W        W10982  43.866  38.448   3.774
47424W        W10983  17.558  30.001  12.416
47425W        W10984  12.841  40.477   0.761
47426W        W10985  26.113   4.906   0.814
47427W        W10986  11.240  22.629  10.538
47428W        W10987  35.422  20.681  11.118
47429W        W10988  18.117  11.810  12.502
47430W        W10989  11.731  18.776  12.939
47431W        W10990  15.819   6.333  14.947
47432W        W10991  15.298  25.713   2.675
47433W        W10992  30.462  14.255  11.545
47434W        W10993   1.903  29.646   1.357
47435W        W10994  30.656  41.311  14.366
47436W        W10995   1.444  15.149   3.690
47437W        W10996  37.563   2.721  12.001
47438W        W10997  34.013  40.424   1.398
47439W        W10998  36.950  17.084   3.768
47440W        W10999  19.040  44.363  11.458
47441W        W11000  38.451  17.206  13.509
47442W        W11001  44.862   1.390   2.415
47443W        W11002  30.034  10.678  10.633
47444W        W11003  43.299  42.902  14.378
47445W        W11004  13.168  16.732  14.874
47446W        W11005   1.898  30.117   3.765
47447W        W11006  18.572   3.751  13.344
47448W        W11007  33.070  23.121   0.788
47449W        W11008  40.402  42.963  12.475
47450W        W11009  35.066  38.406  11.077
47451W        W11010  24.500   4.374   4.204
47452W        W11011  35.043   8.879   1.222
47453W        W11012  18.199  29.029   2.301
47454W        W11013  25.626  13.319   3.821
47455W        W11014   1.411  19.577  14.815
47456W        W11015   9.206  37.981  10.959
47457W        W11016   1.735  38.038  14.958
47458W        W11017  35.602  16.623  11.905
47459W        W11018  22.069  44.867  13.420
47460W        W11019  37.520  19.143  12.862
47461W        W11020  11.229   1.468   2.381
47462W        W11021  38.890  29.081   0.787
47463W        W11022   5.263  26.616  14.916
47464W        W11023  13.327  28.607   2.842
47465W        W11024  17.561  21.251   3.699
47466W        W11025  29.627  39.902   9.511
47467W        W11026  38.432   2.812   2.858
47468W        W11027  12.168  15.797  13.425
47469W        W11028  18.243  14.783   2.757
47470W        W11029  33.419   8.237   3.719
47471W        W11030  24.658   5.217  12.052
47472W        W11031  23.155  12.840   3.702
47473W        W11032  44.972  20.100  12.426
47474W        W11033  31.588  24.187   3.306
47475W        W11034  17.174  37.976  14.910
47476W        W11035  14.670  39.961   1.235
47477W        W11036  35.463  36.421  10.893
47478W        W11037  27.684  34.865  12.007
47479W        W11038   8.292  27.551   0.364
47480W        W11039  12.150  32.391  13.442
47481W        W11040  27.076   2.880   2.404
47482W        W11041  30.961  39.424  11.600
47483W        W11042  35.862  23.235   4.809
47484W        W11043  14.662  25.132   2.663
47485W        W11044  16.595  37.899   1.861
47486W        W11045   0.841  16.085  12.859
47487W        W11046   2.857  17.710   3.304
47488W        W11047   6.362  22.206   0.436
47489W        W11048   5.806  10.790   3.190
47490W        W11049  25.523  25.172   2.726
47491W        W11050  44.351  14.703  13.394
47492W        W11051  18.620  39.890  10.434
47493W        W11052  22.653  30.055  12.013
47494W        W11053  31.932  35.878  13.340
47495W        W11054  41.388  16.762   2.364
47496W        W11055  23.695  37.996   2.771
47497W        W11056  30.516  21.079   2.298
47498W        W11057  10.269  19.272  14.463
47499W        W11058  12.680   7.273   0.919
47500W        W11059   2.933  44.796  14.357
47501W        W11060   2.248  27.176   1.318
47502W        W11061  20.117  20.061  10.930
47503W        W11062  25.003  31.951   1.445
47504W        W11063  10.165  37.973  10.467
47505W        W11064  15.317  17.124   0.407
47506W        W11065  15.766  15.270   4.234
47507W        W11066  21.124  13.654   0.314
47508W        W11067  17.699  14.194   4.162
47509W        W11068  13.335  37.518  13.415
47510W        W11069  26.680   1.384  14.328
47511W        W11070  18.073  20.269  12.838
47512W        W11071   5.886  36.948  13.368
47513W        W11072  43.885  26.015  10.549
47514W        W11073  23.509  12.624   4.348
47515W        W11074  18.266  29.543   1.847
47516W        W11075  36.483  27.942   2.897
47517W        W11076  28.980  39.440  10.457
47518W        W11077   6.856   9.817   0.849
47519W        W11078   1.973  29.445   1.720
47520W        W11079  12.312  22.181  10.965
47521W        W11080  16.216  43.301   4.609
47522W        W11081  32.424  27.555  12.367
47523W        W11082  19.089  22.082  13.871
47524W        W11083   4.258  34.485   4.645
47525W        W11084   4.718  14.729  13.898
47526W        W11085  24.092  30.029  14.418
47527W        W11086  25.515  20.584   3.764
47528W        W11087  15.166   0.370   3.633
47529W        W11088  39.896  42.380   4.625
47530W        W11089  25.535   1.860   0.865
47531W        W11090  43.856  34.982   4.657
47532W        W11091  23.677   8.199  10.522
47533W        W11092  41.349  28.098  14.881
47534W        W11093  13.845   5.830   9.524
47535W        W11094   0.840  23.494  11.031
47536W        W11095  18.242   1.846  13.397
47537W        W11096  34.954  43.464  11.578
47538W        W11097   3.745  22.555   0.790
47539W        W11098  35.924  25.170   4.230
47540W        W11099   4.422   4.797   3.196
47541W        W11100  24.051  21.206  12.849
47542W        W11101  11.646  14.693   1.832
47543W        W11102   4.394  18.168  13.344
47544W        W11103  10.732  42.386  14.377
47545W        W11104  22.220  22.664  14.406
47546W        W11105  13.652   9.749  11.016
47547W        W11106   6.359  15.654   3.240
47548W        W11107   0.447  11.224  10.412
47549W        W11108  16.624  38.028   0.833
47550W        W11109  30.970  15.614  13.524
47551W        W11110  11.685  13.311  12.856
47552W        W11111  36.375  41.803  10.465
47553W        W11112  16.093  44.966   3.751
47554W        W11113  37.540   9.845   1.875
47555W        W11114  17.781  25.674  14.763
47556W        W11115  37.052  31.578   0.811
47557W        W11116  37.409  32.474  14.407
47558W        W11117  17.659  24.124   1.313
47559W        W11118  42.469  41.515  12.018
47560W        W11119  42.367  12.229   2.345
47561W        W11120  40.334   6.426   2.179
47562W        W11121  42.795  40.478  14.397
47563W        W11122  22.156  41.445   2.885
47564W        W11123  23.605  35.413   4.276
47565W        W11124  12.280  28.992   3.324
47566W        W11125  27.505  14.702  10.643
47567W        W11126  42.459  41.948  10.519
47568W        W11127   2.778  24.626  12.042
47569W        W11128  27.007  31.069   0.860
47570W        W11129  11.313   7.312   3.210
47571W        W11130   5.707  21.580  13.509
47572W        W11131  18.561  37.457   2.200
47573W        W11132  16.293  28.600   3.658
47574W        W11133  16.177  17.645  12.898
47575W        W11134  38.480  17.610   1.874
47576W        W11135  35.086  23.148  11.908
47577W        W11136  21.096  13.685   1.924
47578W        W11137  16.227   9.735  11.057
47579W        W11138   6.399  41.812   1.379
47580W        W11139  22.250  41.796   2.697
47581W        W11140   3.260  22.183   4.222
47582W        W11141  27.176  11.661   3.210
47583W        W11142  13.339   9.722  10.905
47584W        W11143   6.401   5.370  12.557
47585W        W11144  17.652  14.273   1.276
47586W        W11145  39.442   6.397   4.754
47587W        W11146  17.670  42.861   4.188
47588W        W11147  11.158  43.797   3.179
47589W        W11148  34.891  42.018   2.682
47590W        W11149  34.436  34.044   2.828
47591W        W11150  35.545  32.531   2.326
47592W        W11151  26.169  28.112  10.535
47593W        W11152  11.644  31.626   0.879
47594W        W11153  23.525  10.311  14.280
47595W        W11154  26.054  15.118  13.923
47596W        W11155  39.383  34.377   0.765
47597W        W11156  40.869  13.611   4.718
47598W        W11157   2.323  14.669  14.275
47599W        W11158  20.065  26.117  14.286
47600W        W11159  22.535  41.974   3.757
47601W        W11160  39.470  34.387   0.454
47602W        W11161  16.122  39.002  14.341
47603W        W11162  37.373  41.453   3.275
47604W        W11163  44.439   0.874   5.190
47605W        W11164  37.987  32.135  14.412
47606W        W11165  29.429  13.144   0.878
47607W        W11166  24.219  22.719  10.552
47608W        W11167  23.589  22.657  12.036
47609W        W11168  27.984  21.066  11.077
47610W        W11169  43.939  13.843   3.842
47611W        W11170  42.854  19.051  12.553
47612W        W11171  40.322  24.131  12.571
47613W        W11172  17.702  24.522   2.276
47614W        W11173  10.158  26.458  12.580
47615W        W11174  25.609   6.378  13.969
47616W        W11175   9.185  23.534  14.449
47617W        W11176  42.974  15.139  10.586
47618W        W11177  27.597   2.328  10.908
47619W        W11178  20.638   9.751  11.520
47620W        W11179  38.851  37.924   4.308
47621W        W11180  27.673  16.286  10.416
47622W        W11181  39.314  19.725  12.429
47623W        W11182  30.588   1.441   4.757
47624W        W11183  37.415   3.828   0.906
47625W        W11184  10.668  15.675   1.831
47626W        W11185  10.156  42.980  14.477
47627W        W11186   4.288  29.079   3.800
47628W        W11187  39.927  36.904   2.236
47629W        W11188   6.888  18.158  12.353
47630W        W11189  12.742  18.105  13.534
47631W        W11190  32.491  30.978   0.952
47632W        W11191  34.907  27.157   1.725
47633W        W11192  23.541  19.047  13.484
47634W        W11193   5.925  44.262   4.193
47635W        W11194  13.707  12.751  11.494
47636W        W11195  22.582  21.601  11.927
47637W        W11196  23.222  36.893   1.373
47638W        W11197   2.461  36.438  12.025
47639W        W11198  20.761  33.941   2.850
47640W        W11199  17.799  15.083  11.905
47641W        W11200  12.241  29.535  14.816
47642W        W11201  34.045  43.465   4.182
47643W        W11202  10.739  16.744  13.991
47644W        W11203  18.558  37.497  12.010
47645W        W11204   1.941  27.545  13.421
47646W        W11205  20.730  42.996  12.379
47647W        W11206  20.724   0.394  11.918
47648W        W11207  32.406  29.992   2.730
47649W        W11208   1.397  31.508   1.347
47650W        W11209  37.971  37.544  12.380
47651W        W11210  25.067  17.788   1.784
47652W        W11211  14.681  28.144  14.461
47653W        W11212  21.156  38.330   0.837
47654W        W11213   5.778  33.114  13.399
47655W        W11214  39.333  27.465  10.519
47656W        W11215  36.448  42.958  10.428
47657W        W11216  13.318  39.965   3.833
47658W        W11217  20.727   3.289  12.825
47659W        W11218  28.668   2.813  12.019
47660W        W11219  23.694  36.001   1.743
47661W        W11220  26.187  17.281  11.888
47662W        W11221  44.383  10.241  13.021
47663W        W11222  30.415  11.208   2.816
47664W        W11223  29.022  17.558  13.939
47665W        W11224   2.306  43.370  12.896
47666W        W11225  39.947  43.917  10.493
47667W        W11226   4.420  14.815  11.401
47668W        W11227  36.928  44.793  10.527
47669W        W11228   0.901  36.058  14.938
47670W        W11229  41.397  43.857   3.380
47671W        W11230  37.426  31.934  10.574
47672W        W11231  35.584  12.656  13.496
47673W        W11232  43.339  41.898   1.244
47674W        W11233  44.303  23.566   2.291
47675W        W11234  39.966  13.644  11.056
47676W        W11235  12.128  14.261   3.768
47677W        W11236  26.479  18.146  14.963
47678W        W11237  32.594  23.152   0.799
47679W        W11238  36.000  35.572  13.332
47680W        W11239  33.529  41.412  13.899
47681W        W11240   7.284  25.000  14.309
47682W        W11241  31.079  42.456  12.557
47683W        W11242  15.108  32.902  14.972
47684W        W11243  20.081  36.363   1.760
47685W        W11244  34.114  11.252   0.758
47686W        W11245   9.878  23.630  13.842
47687W        W11246  32.627  40.016  13.531
47688W        W11247  31.457  13.282  13.931
47689W        W11248  43.437  32.066  11.042
47690W        W11249  14.647  24.129  14.834
47691W        W11250  44.911  26.554  10.405
47692W        W11251  27.024  18.758   1.797
47693W        W11252  44.456  18.073   5.266
47694W        W11253  32.420   3.459  10.581
47695W        W11254  27.533  17.160   0.782
47696W        W11255  34.892  12.218   1.340
47697W        W11256  19.051   8.705  11.055
47698W        W11257   0.873  43.881  10.588
47699W        W11258  32.483  15.182   4.670
47700W        W11259   1.774   3.714   2.705
47701W        W11260  28.965  30.586  10.414
47702W        W11261  38.561  40.516  11.410
47703W        W11262  36.069   9.253   1.271
47704W        W11263  24.012  28.669  13.862
47705W        W11264   0.858  42.495   1.870
47706W        W11265  23.704  40.518  13.543
47707W        W11266  15.110   3.219  11.930
47708W        W11267  17.106  12.701  12.411
47709W        W11268  35.893  24.688   2.878
47710W        W11269   9.315   9.746  13.499
47711W        W11270   5.857  10.370   1.702
47712W        W11271  23.543  36.956   0.407
47713W        W11272  33.951   0.899  13.307
47714W        W11273  30.432  30.029   2.208
47715W        W11274  29.970  42.872   5.229
47716W        W11275   7.245  14.732   4.603
47717W        W11276  29.060  32.475   0.834
47718W        W11277   3.421   6.900  10.460
47719W        W11278  14.694   2.894  13.890
47720W        W11279  22.604  18.287   0.852
47721W        W11280   1.922  11.711  14.871
47722W        W11281  34.562   9.823   1.777
47723W        W11282  25.987  39.372   0.856
47724W        W11283  27.499  16.573  13.436
47725W        W11284  42.863   1.914  10.478
47726W        W11285   0.777  44.883  13.011
47727W        W11286   7.864   3.415   0.816
47728W        W11287  28.673  32.091   0.753
47729W        W11288   5.842  33.932  11.077
47730W        W11289   6.904  15.820   4.744
47731W        W11290  33.003  26.979   1.706
47732W        W11291  40.522   8.882   4.666
47733W        W11292  31.450  14.135  12.492
47734W        W11293   9.741  16.682  13.820
47735W        W11294  16.254  11.663  13.513
47736W        W11295  21.706   1.877  12.864
47737W        W11296  22.128  32.563   5.274
47738W        W11297   3.756  29.555  12.884
47739W        W11298   9.824  13.829  12.371
47740W        W11299  10.236  14.781   3.833
47741W        W11300  28.500  19.081   4.229
47742W        W11301  22.647  13.801  12.553
47743W        W11302   8.211  20.143   4.286
47744W        W11303  14.723  11.658   2.776
47745W        W11304  20.231  43.855  12.977
47746W        W11305  24.177   3.829   1.928
47747W        W11306  16.672  20.106  14.364
47748W        W11307  42.838  17.145   3.763
47749W        W11308  42.872  35.938   3.739
47750W        W11309  32.078  23.590  13.948
47751W        W11310  20.637  13.318  13.025
47752W        W11311  21.073  30.416  13.504
47753W        W11312  14.098  36.488  10.565
47754W        W11313   5.721  17.184   2.338
47755W        W11314   2.852   1.782  11.412
47756W        W11315   1.804  31.130   3.267
47757W        W11316  41.361  28.667   4.773
47758W        W11317  40.425  23.018  12.530
47759W        W11318   5.437  16.149  12.021
47760W        W11319  19.665  36.857  13.880
47761W        W11320   1.351  37.055  13.420
47762W        W11321  20.531   6.219   4.619
47763W        W11322   3.910  30.147   3.299
47764W        W11323  11.320   2.343   2.193
47765W        W11324   0.414  42.360   4.706
47766W        W11325  28.976  17.260   0.286
47767W        W11326  32.117  31.470  12.465
47768W        W11327   2.390   3.364   0.402
47769W        W11328  27.961  30.633   1.845
47770W        W11329  11.681  14.768  11.425
47771W        W11330   8.380  44.837  13.034
47772W        W11331  28.613   7.230   2.226
47773W        W11332  23.501  44.333  13.328
47774W        W11333  16.781   7.336   0.868
47775W        W11334  22.040  44.839  14.352
47776W        W11335  28.950  44.006   3.378
47777W        W11336  24.575  30.492   3.663
47778W        W11337  26.504  22.718   0.260
47779W        W11338  22.054  17.775   4.299
47780W        W11339  35.573   1.855   4.824
47781W        W11340   4.762   1.767   4.113
47782W        W11341  23.095   2.735  12.879
47783W        W11342  38.935   9.863  14.944
47784W        W11343  22.542  27.048  11.464
47785W        W11344  42.990  18.572  13.925
47786W        W11345  43.977  34.043  12.908
47787W        W11346  24.124  25.086   0.341
47788W        W11347  29.093   3.916   4.617
47789W        W11348  12.762  37.509   3.218
47790W        W11349  17.616   7.348   2.406
47791W        W11350  38.917   3.925   0.856
47792W        W11351  34.925   2.354  12.460
47793W        W11352  18.566   0.483   2.686
47794W        W11353  39.541  41.936  10.572
47795W        W11354   5.792  28.176   4.650
47796W        W11355  28.642  22.090   1.920
47797W        W11356  29.591  27.126   0.348
47798W        W11357  36.497  15.158   3.367
47799W        W11358  35.984  34.035  14.772
47800W        W11359  14.139  41.478  11.022
47801W        W11360   2.796  39.510   3.806
47802W        W11361  42.456   9.351  10.524
47803W        W11362  35.997  15.293   3.641
47804W        W11363  24.570  17.080  12.909
47805W        W11364  18.074  34.018   4.633
47806W        W11365  13.753  38.514   4.147
47807W        W11366  25.176   1.962   3.329
47808W        W11367   5.897  30.443   1.387
47809W        W11368  22.156  13.144  11.377
47810W        W11369  27.583  11.757  12.453
47811W        W11370  33.400  22.721   4.681
47812W        W11371  17.792   3.391   1.406
47813W        W11372  16.694   8.259   5.755
47814W        W11373  14.753  21.119   3.198
47815W        W11374  12.314  38.515   3.820
47816W        W11375  16.703  28.458  13.404
47817W        W11376  29.947   1.917  13.953
47818W        W11377  44.288   2.916  11.577
47819W        W11378  16.291  43.301  13.391
47820W        W11379  13.271   0.777   1.303
47821W        W11380  19.643  31.518  14.850
47822W        W11381   8.782  17.745   2.772
47823W        W11382  43.427   9.181   2.808
47824W        W11383  29.979  36.071  11.494
47825W        W11384  19.120  27.000  11.096
47826W        W11385   9.322  28.095   1.705
47827W        W11386  17.750   9.265  11.960
47828W        W11387  30.132  22.704  14.031
47829W        W11388  32.960   8.306  10.578
47830W        W11389  15.153   5.426  14.363
47831W        W11390  33.996  18.699  11.872
47832W        W11391  10.200  43.897  13.498
47833W        W11392  39.387  27.633  13.057
47834W        W11393  39.497  38.911   9.965
47835W        W11394  24.983  23.676  13.514
47836W        W11395  33.982  28.677  11.433
47837W        W11396  24.527   9.360   4.616
47838W        W11397   6.890  30.497   4.634
47839W        W11398   5.198  43.345  10.574
47840W        W11399  37.855  37.501  10.430
47841W        W11400  36.063   9.268  12.429
47842W        W11401   6.756  26.687  12.910
47843W        W11402  11.698   9.717   2.854
47844W        W11403  35.445  41.873  12.083
47845W        W11404  23.556  24.173   2.409
47846W        W11405  18.606  13.122   0.246
47847W        W11406  10.715   1.846  10.930
47848W        W11407   1.959  25.637  13.869
47849W        W11408  29.140  27.976   4.609
47850W        W11409  21.037  19.091  13.026
47851W        W11410  14.751  21.211   1.258
47852W        W11411  43.792  29.132  11.571
47853W        W11412  37.047  30.540   2.779
47854W        W11413  33.543  37.522   3.728
47855W        W11414  10.642   1.455   4.240
47856W        W11415   0.802  15.194   2.181
47857W        W11416   1.319  39.998  14.877
47858W        W11417  26.017  27.069  10.479
47859W        W11418  20.702  12.745  12.576
47860W        W11419   1.358   9.864  12.349
47861W        W11420   6.283   0.960   1.360
47862W        W11421  28.001  20.576  13.474
47863W        W11422  42.335   1.903   0.456
47864W        W11423   3.832  20.181   2.754
47865W        W11424  32.129  26.966  11.586
47866W        W11425  34.975  32.577  11.478
47867W        W11426  36.913  18.143   0.925
47868W        W11427   7.818  43.977   3.642
47869W        W11428   7.403  24.222   3.214
47870W        W11429   5.409  39.910   3.233
47871W        W11430  39.511  21.655   1.265
47872W        W11431   2.916  21.090   0.926
47873W        W11432  42.847  22.592   0.805
47874W        W11433  11.627  14.267  12.531
47875W        W11434  13.637  10.875   4.672
47876W        W11435   5.277  17.589   1.758
47877W        W11436   3.882   3.887  13.479
47878W        W11437  29.052  21.609   3.280
47879W        W11438   1.324   1.738  12.413
47880W        W11439  37.500  42.865   1.715
47881W        W11440  26.160   8.783  14.366
47882W        W11441  26.075  18.607  11.514
47883W        W11442  10.187  38.846   0.912
47884W        W11443  31.099  31.526  14.819
47885W        W11444  29.617  23.109  12.446
47886W        W11445   1.469  15.098   1.915
47887W        W11446   3.868  21.582   0.308
47888W        W11447  36.401  30.591  10.486
47889W        W11448  21.194  44.345  11.600
47890W        W11449  20.186  36.892  11.033
47891W        W11450   8.398  17.234   4.731
47892W        W11451  33.005  32.568   0.965
47893W        W11452  40.492  25.975  11.592
47894W        W11453  28.967   5.435   4.833
47895W        W11454  28.021  12.362   3.867
47896W        W11455   3.252  23.729   4.135
47897W        W11456   1.471  18.659   0.396
47898W        W11457  37.020  13.227  14.942
47899W        W11458  33.886  35.538   4.829
47900W        W11459   0.983   7.235  11.481
47901W        W11460  19.122  13.693  10.420
47902W        W11461  40.832   8.690  10.924
47903W        W11462  40.312  21.651  12.833
47904W        W11463  11.286  44.917   2.185
47905W        W11464  29.988  39.429  12.959
47906W        W11465  14.787  24.010  13.825
47907W        W11466  10.776   4.880   1.907
47908W        W11467  25.105  20.051  14.997
47909W        W11468   8.339   4.216  13.965
47910W        W11469   0.792  29.034   1.889
47911W        W11470  18.637  22.059   4.769
47912W        W11471  39.999  10.199  12.945
47913W        W11472  42.504  21.528   4.645
47914W        W11473  15.591  11.273   2.898
47915W        W11474  34.509  32.054  13.359
47916W        W11475  34.571  11.695   9.563
47917W        W11476  25.118  34.503   3.752
47918W        W11477   5.389  18.207   0.320
47919W        W11478  39.887  30.015  11.600
47920W        W11479  23.542  21.608  13.978
47921W        W11480  32.094  36.592  11.039
47922W        W11481  41.303  25.644  14.836
47923W        W11482   7.738  34.575   0.885
47924W        W11483  11.318  41.332  13.822
47925W        W11484   4.874  13.812   0.765
47926W        W11485   4.944  14.595   5.147
47927W        W11486   4.939   0.443   4.344
47928W        W11487  44.804   8.737   4.766
47929W        W11488  20.622   2.810  13.986
47930W        W11489  27.544  19.141  14.314
47931W        W11490  42.448   6.836   2.903
47932W        W11491  43.001   1.961  14.020
47933W        W11492   4.390  18.604   2.703
47934W        W11493  35.038  11.290   3.749
47935W        W11494  24.663  43.857  13.352
47936W        W11495  15.285  37.848   2.745
47937W        W11496   5.709  22.175   0.391
47938W        W11497  17.073   2.880   3.827
47939W        W11498  31.620  17.238   2.697
47940W        W11499  36.050   6.389   1.806
47941W        W11500   4.884  13.348  13.968
47942W        W11501  12.325  19.067  13.542
47943W        W11502  32.068   4.248  11.591
47944W        W11503  28.051  10.839   2.333
47945W        W11504  44.468   2.858   2.412
47946W        W11505   3.305  27.017   0.287
47947W        W11506  32.421  28.146  11.461
47948W        W11507   3.908  36.012  12.005
47949W        W11508  43.929  27.530  13.851
47950W        W11509  20.605  13.241   2.209
47951W        W11510  27.605  40.340   1.834
47952W        W11511   5.815  44.881   2.186
47953W        W11512   7.670  26.649   2.184
47954W        W11513  19.752  28.131  10.438
47955W        W11514   6.311  15.770   4.194
47956W        W11515  38.821  17.205   1.812
47957W        W11516  18.206  35.450  11.586
47958W        W11517   1.784   4.873  12.485
47959W        W11518  10.738   5.416  12.873
47960W        W11519  31.133  23.584  14.916
47961W        W11520  29.967  30.053  10.423
47962W        W11521  35.557  39.990   3.689
47963W        W11522   6.750  42.293   2.202
47964W        W11523  20.697  25.523  14.461
47965W        W11524   5.890  36.402   3.226
47966W        W11525   9.736  21.102   4.835
47967W        W11526  33.560  22.137   1.324
47968W        W11527  17.745  32.615   1.366
47969W        W11528   7.825  36.575   2.852
47970W        W11529  34.589  37.058   4.211
47971W        W11530  26.158  11.667  13.797
47972W        W11531  35.912  32.041   0.463
47973W        W11532  28.468  42.461   1.731
47974W        W11533  22.169   9.688   9.670
47975W        W11534   2.915  39.878  14.504
47976W        W11535   9.775  33.399   1.714
47977W        W11536  13.166  12.338  12.952
47978W        W11537  40.544  34.090   2.663
47979W        W11538  16.109  41.787  11.573
47980W        W11539  42.337  29.520  14.339
47981W        W11540   8.751  14.296  12.079
47982W        W11541  32.100  39.469  10.895
47983W        W11542   6.325  10.293   3.662
47984W        W11543  40.864   4.755   2.186
47985W        W11544  24.012   9.817   0.321
47986W        W11545  29.123  43.868  12.552
47987W        W11546   2.749   5.830   4.743
47988W        W11547   5.239  13.647   2.306
47989W        W11548  26.490  37.452  11.112
47990W        W11549  18.089   7.877  14.444
47991W        W11550  33.934   3.897  11.078
47992W        W11551  34.017   1.763   0.730
47993W        W11552   8.352  14.686  14.002
47994W        W11553  23.128  33.589   1.378
47995W        W11554  28.577  16.288   0.459
47996W        W11555  30.555  34.389   2.418
47997W        W11556  14.212   1.757  13.804
47998W        W11557  42.467   2.723   2.347
47999W        W11558  38.039  33.530   0.258
48000W        W11559  27.995  32.627   1.396
48001W        W11560  30.427  22.689  12.936
48002W        W11561  28.976  42.844  12.454
48003W        W11562  25.506  27.499   0.951
48004W        W11563   7.392  27.109   0.950
48005W        W11564  37.874  41.851   0.883
48006W        W11565  29.630  28.578  11.566
48007W        W11566  14.741  35.379   3.793
48008W        W11567   8.744  30.030   4.123
48009W        W11568  38.068  17.218  11.458
48010W        W11569  18.256  29.628  11.571
48011W        W11570  29.129   0.905  11.392
48012W        W11571  44.494  23.997  13.528
48013W        W11572  12.345  37.831  14.967
48014W        W11573  12.297  20.077   2.291
48015W        W11574  43.935  39.862   2.343
48016W        W11575  17.777  14.224   5.249
48017W        W11576  26.976  42.324  13.547
48018W        W11577  24.115  15.673   3.152
48019W        W11578   7.219  28.476   2.412
48020W        W11579  23.590  42.975  12.031
48021W        W11580  39.408  24.541  12.880
48022W        W11581  15.686  18.570  14.442
48023W        W11582  39.511  43.403  10.483
48024W        W11583   0.747  23.225   4.313
48025W        W11584  39.540   3.343   3.324
48026W        W11585   6.238   7.384  10.123
48027W        W11586   6.857  37.000   1.418
48028W        W11587  40.366  17.754   2.842
48029W        W11588  25.110  27.547   3.263
48030W        W11589  27.574   9.238  14.393
48031W        W11590   1.913  35.486  11.008
48032W        W11591  33.619  18.763  13.839
48033W        W11592  24.020   8.273   0.316
48034W        W11593  39.524   7.787   4.643
48035W        W11594  23.712  42.970  13.501
48036W        W11595  38.060  19.589  12.480
48037W        W11596  35.576   0.970   4.601
48038W        W11597  24.556  40.851  11.925
48039W        W11598  21.174  32.041   3.280
48040W        W11599  15.134  30.078  11.400
48041W        W11600  30.073  13.313  10.581
48042W        W11601  11.692   8.161  13.936
48043W        W11602  15.188   0.983  10.429
48044W        W11603  36.083  32.122  11.392
48045W        W11604  21.741  39.958  12.538
48046W        W11605   7.888  11.825  12.532
48047W        W11606   1.466  39.883  12.017
48048W        W11607   6.312  26.001  12.942
48049W        W11608   4.771  12.277   4.695
48050W        W11609  13.177  22.737   4.736
48051W        W11610  16.151  33.526   2.316
48052W        W11611   4.868  42.016  12.998
48053W        W11612   0.966  37.917   4.332
48054W        W11613  19.133  30.566   4.325
48055W        W11614  19.649  20.633  11.013
48056W        W11615  26.171   6.863   3.312
48057W        W11616  15.772  23.116  13.541
48058W        W11617  42.351  36.354  13.329
48059W        W11618  31.128  40.839   4.118
48060W        W11619   8.786   0.381  10.962
48061W        W11620  33.425  20.272   0.244
48062W        W11621   5.905  32.463   4.721
48063W        W11622  39.947  18.107  12.065
48064W        W11623   1.971  44.877   3.191
48065W        W11624  29.594  14.258   0.450
48066W        W11625  33.943  27.171   0.325
48067W        W11626   5.741  21.026   4.831
48068W        W11627  30.462   2.870   2.728
48069W        W11628   6.383  15.669  13.441
48070W        W11629  16.291  41.987   4.308
48071W        W11630   7.300  12.803   3.768
48072W        W11631   2.730  29.511   4.146
48073W        W11632  34.871  38.983   2.359
48074W        W11633  42.962  25.064   1.863
48075W        W11634  28.531  12.135  11.522
48076W        W11635  41.870   9.361  11.476
48077W        W11636   2.889   8.300   3.808
48078W        W11637  32.073  19.690  12.932
48079W        W11638  15.724   6.387   1.409
48080W        W11639   9.360   6.197   0.357
48081W        W11640   5.886  18.622  14.973
48082W        W11641   6.360  38.044   0.764
48083W        W11642  43.345  17.163   1.833
48084W        W11643  42.989  39.495   0.954
48085W        W11644   1.843  33.399   4.807
48086W        W11645  29.457  23.198   9.672
48087W        W11646   3.736  14.095   0.817
48088W        W11647  26.666  33.932   4.801
48089W        W11648  40.478  35.470   0.881
48090W        W11649  41.878  40.928  14.330
48091W        W11650   5.716   4.284  13.366
48092W        W11651  23.577  36.857   2.389
48093W        W11652  29.921  14.769  13.989
48094W        W11653  27.129  38.442   2.868
48095W        W11654   8.751  35.081   3.215
48096W        W11655  19.764  11.194   1.360
48097W        W11656   2.323  26.472   3.710
48098W        W11657  29.505  15.657  12.827
48099W        W11658   5.812  27.037  10.937
48100W        W11659  13.305  15.657   3.666
48101W        W11660  44.984  43.391  10.503
48102W        W11661   5.221   5.732   2.897
48103W        W11662  17.282   5.859  13.471
48104W        W11663   1.960   1.364   0.913
48105W        W11664  20.255  16.646  11.478
48106W        W11665  16.197  27.630   4.217
48107W        W11666  23.604  30.958  11.443
48108W        W11667  25.630   0.848   4.748
48109W        W11668  42.383  24.503   2.756
48110W        W11669  13.124  12.655   0.918
48111W        W11670  34.007  43.809  10.461
48112W        W11671   4.742  21.068  11.458
48113W        W11672  16.132   4.344   0.307
48114W        W11673  20.156  31.119   4.625
48115W        W11674  16.203  13.759  10.445
48116W        W11675  40.925  37.460  11.074
48117W        W11676  29.128  36.432  12.352
48118W        W11677   8.699  11.728   3.252
48119W        W11678  29.918  43.284   0.745
48120W        W11679  30.037  14.695  12.087
48121W        W11680  35.939  29.058  10.531
48122W        W11681  38.515   4.376   3.849
48123W        W11682  21.094  12.119  14.288
48124W        W11683   4.739  24.134  13.977
48125W        W11684   4.904  23.986   4.708
48126W        W11685  23.039   1.958   3.818
48127W        W11686  43.313  36.498  12.396
48128W        W11687  12.711  38.357   3.155
48129W        W11688  15.140  31.604  11.489
48130W        W11689  44.856   2.252   0.468
48131W        W11690  20.175  11.156  14.010
48132W        W11691  28.655  34.582   1.791
48133W        W11692  36.864   3.367  14.930
48134W        W11693  35.890  23.237   2.737
48135W        W11694  24.682  39.929   0.327
48136W        W11695  19.181  25.143   5.291
48137W        W11696  44.922   6.421  12.090
48138W        W11697  25.652  40.901  14.280
48139W        W11698  21.224  11.637   3.256
48140W        W11699  21.617  28.571   2.359
48141W        W11700  15.676  32.089  12.983
48142W        W11701  32.920  16.644   2.224
48143W        W11702  32.933  37.469  12.403
48144W        W11703  42.317  42.408   1.901
48145W        W11704  43.286  24.118   1.249
48146W        W11705  20.258  16.766  13.499
48147W        W11706  35.089  26.088  10.889
48148W        W11707  32.896  25.976   4.229
48149W        W11708  14.135  21.059  12.917
48150W        W11709  39.013  44.489   4.776
48151W        W11710  27.998  27.689  12.864
48152W        W11711   1.914  33.959  10.538
48153W        W11712   7.184   3.301   3.684
48154W        W11713  39.810   0.392  11.944
48155W        W11714   9.879  23.061  10.543
48156W        W11715  18.273  10.231   1.913
48157W        W11716  34.936  22.091  13.358
48158W        W11717  27.476  24.518   2.877
48159W        W11718  43.977   0.460   1.933
48160W        W11719  28.472  19.694   1.419
48161W        W11720  41.380   8.878  11.998
48162W        W11721  21.203   9.753  13.469
48163W        W11722  25.154  21.642  13.463
48164W        W11723  37.561  18.693  13.971
48165W        W11724  44.344  40.022  10.000
48166W        W11725  13.238   0.778   3.662
48167W        W11726  17.622   4.277  11.123
48168W        W11727   6.188  12.217  14.303
48169W        W11728  24.582  21.537  14.966
48170W        W11729  18.686  39.451   1.344
48171W        W11730  27.575  22.007  14.514
48172W        W11731   0.785  20.236   2.851
48173W        W11732  43.948  19.271   4.707
48174W        W11733   5.403  24.112  10.419
48175W        W11734  21.060  13.776   0.880
48176W        W11735  12.337  19.618  14.993
48177W        W11736  31.469  35.004   3.835
48178W        W11737  19.242   2.269  14.992
48179W        W11738  17.647  14.238   0.962
48180W        W11739  36.548   6.183  12.563
48181W        W11740   8.228  40.470  10.571
48182W        W11741  14.777  39.533   1.709
48183W        W11742   9.225  26.012  13.394
48184W        W11743   3.403  12.117  10.553
48185W        W11744  39.378  23.513   2.394
48186W        W11745   5.250  13.224   2.727
48187W        W11746  32.904  23.525   1.402
48188W        W11747  22.137  43.514  11.568
48189W        W11748  11.779  32.608  11.032
48190W        W11749  10.259   8.838  14.950
48191W        W11750  35.970  33.483   1.231
48192W        W11751  19.665  16.275  10.913
48193W        W11752   6.752  25.069  11.902
48194W        W11753  24.486  41.894  12.342
48195W        W11754   5.825  41.441  10.628
48196W        W11755  44.772  37.360  10.058
48197W        W11756  19.251  10.268   1.223
48198W        W11757  30.982  10.831  10.929
48199W        W11758  24.494  40.444   4.817
48200W        W11759  32.998  17.096  13.987
48201W        W11760   7.734   4.402  13.040
48202W        W11761  44.902  23.615  13.339
48203W        W11762  32.077  43.430  14.966
48204W        W11763  10.693  17.720   4.700
48205W        W11764   8.333  33.879  14.460
48206W        W11765  41.935  18.621  12.062
48207W        W11766  32.412  33.960   0.482
48208W        W11767  12.259  19.570   3.260
48209W        W11768   4.767   0.320  12.933
48210W        W11769  38.545   3.886   1.216
48211W        W11770  19.097  26.152  12.960
48212W        W11771  40.364  44.766  14.511
48213W        W11772  10.633  36.400   1.865
48214W        W11773   3.903  29.596   3.377
48215W        W11774  38.040  30.557  12.455
48216W        W11775  44.917  39.513   3.356
48217W        W11776   3.456  33.128   0.895
48218W        W11777   8.161  20.762  12.096
48219W        W11778  38.422  11.322  13.863
48220W        W11779  33.435  35.107  13.350
48221W        W11780  21.066  32.011  10.555
48222W        W11781  20.615  28.007  12.567
48223W        W11782  16.202  20.675  13.958
48224W        W11783  39.532  13.160   4.160
48225W        W11784  40.861  15.795   2.734
48226W        W11785   1.243  33.896   3.275
48227W        W11786  29.106  30.038  13.450
48228W        W11787   6.865  42.966  14.308
48229W        W11788   1.247  14.163   3.333
48230W        W11789  13.123  13.670   1.754
48231W        W11790  24.141  26.070  13.008
48232W        W11791  24.143  36.084  13.936
48233W        W11792   2.849  37.377   2.397
48234W        W11793  11.317   1.806   2.861
48235W        W11794  22.167  34.479  11.470
48236W        W11795  35.989   5.728  10.418
48237W        W11796  11.755   4.412   3.261
48238W        W11797   6.858  43.015  10.544
48239W        W11798   5.261  13.297  11.567
48240W        W11799  10.184  42.523   3.270
48241W        W11800  37.375  35.094   3.709
48242W        W11801  38.491  27.103  12.971
48243W        W11802   2.331  40.963  11.594
48244W        W11803   9.196  25.097   3.706
48245W        W11804  18.573  31.542   4.716
48246W        W11805  21.177  23.134   2.873
48247W        W11806  41.857  20.250   0.826
48248W        W11807  30.163  29.663  14.506
48249W        W11808  36.480  23.130   1.927
48250W        W11809  39.865  29.600   1.780
48251W        W11810  38.494  10.280   1.236
48252W        W11811   7.280  16.594  13.882
48253W        W11812  44.841  38.944  13.011
48254W        W11813   8.879  24.562  11.460
48255W        W11814  36.028  44.485  12.911
48256W        W11815  38.076  29.145   1.849
48257W        W11816  15.639  33.965   1.884
48258W        W11817  12.615  29.461  12.898
48259W        W11818   1.898   7.880  11.393
48260W        W11819  35.019  27.968  12.496
48261W        W11820  24.068  10.356   0.898
48262W        W11821  41.998  11.796   1.441
48263W        W11822  20.160   4.445   4.833
48264W        W11823  31.126  41.953   4.643
48265W        W11824  32.420  28.518   1.735
48266W        W11825  37.832  44.992  11.110
48267W        W11826  12.302  39.333  13.872
48268W        W11827  37.883  35.477   4.339
48269W        W11828  19.668  43.280   4.660
48270W        W11829   5.869  34.387  14.862
48271W        W11830  32.529  11.164   0.961
48272W        W11831  28.078  35.416  10.936
48273W        W11832  31.564  15.301  13.063
48274W        W11833   6.206  38.994  11.107
48275W        W11834  11.129  30.005  14.354
48276W        W11835  19.269  27.007  12.518
48277W        W11836  33.053   1.253  11.417
48278W        W11837  38.548   2.280   4.152
48279W        W11838  26.492   8.900   2.869
48280W        W11839  38.912  19.707   4.761
48281W        W11840   2.238  19.613  14.467
48282W        W11841  38.020  16.734   3.793
48283W        W11842  25.978  32.079   3.751
48284W        W11843  16.792  15.234  11.376
48285W        W11844  21.688   5.431  12.571
48286W        W11845  15.652  17.096  10.985
48287W        W11846   0.387  13.165   2.710
48288W        W11847   9.813   6.761   2.361
48289W        W11848  31.007  32.083   1.891
48290W        W11849  37.397  13.256  11.402
48291W        W11850  10.273   8.789   4.696
48292W        W11851  36.911  11.789  11.496
48293W        W11852  10.264   2.932   2.902
48294W        W11853  18.274  37.337   2.283
48295W        W11854  16.229  37.982  11.897
48296W        W11855  34.596   5.715   2.318
48297W        W11856  34.007  34.948   2.818
48298W        W11857   2.243  43.764   0.320
48299W        W11858  29.166  35.961  13.962
48300W        W11859  24.171   1.734  10.057
48301W        W11860  15.195   5.912   4.345
48302W        W11861  23.659  16.134  14.479
48303W        W11862  25.096  12.780  12.925
48304W        W11863  27.509  35.551  10.901
48305W        W11864   8.317   1.786   4.775
48306W        W11865  28.571  10.694  13.522
48307W        W11866   3.797  15.687  14.351
48308W        W11867   3.722  44.313   4.830
48309W        W11868  39.044  37.024  11.058
48310W        W11869  21.216   0.356  13.490
48311W        W11870  31.445  24.677  11.520
48312W        W11871   4.719   7.740   2.827
48313W        W11872  22.221  22.117  11.041
48314W        W11873  29.659  36.865   2.875
48315W        W11874  38.040  14.817   2.898
48316W        W11875  22.545  36.852   3.169
48317W        W11876  44.398  42.874   3.806
48318W        W11877  13.692  24.185  14.314
48319W        W11878  34.408  32.630  12.031
48320W        W11879  19.676  26.496   0.426
48321W        W11880  20.033  21.609   0.319
48322W        W11881  12.649   0.868   4.116
48323W        W11882  41.961  36.347  13.471
48324W        W11883  16.177  11.757  12.864
48325W        W11884  10.858   2.959  12.473
48326W        W11885  43.982  30.033  13.866
48327W        W11886  11.760  33.466  10.404
48328W        W11887  31.004   1.807   4.733
48329W        W11888  18.764  41.325  12.434
48330W        W11889  34.590  20.038   4.836
48331W        W11890  28.080  44.967  13.018
48332W        W11891  25.979  16.709  11.546
48333W        W11892  30.018  11.239  11.037
48334W        W11893  39.475  11.191  14.338
48335W        W11894  41.919   5.746  10.542
48336W        W11895  39.335   3.369   0.815
48337W        W11896  37.545   0.754   5.208
48338W        W11897  22.665  14.745  11.581
48339W        W11898   6.331  15.667  10.502
48340W        W11899  23.993  32.436   2.722
48341W        W11900  34.539  24.544  11.113
48342W        W11901   5.699  39.939   4.725
48343W        W11902  37.074   2.273  14.899
48344W        W11903  23.520  36.987  14.879
48345W        W11904  21.697  35.064   2.193
48346W        W11905  42.888  43.467  11.395
48347W        W11906  13.721  13.621  10.619
48348W        W11907   2.305   3.820   3.679
48349W        W11908   1.473  30.077  10.459
48350W        W11909  26.604   3.773   4.646
48351W        W11910   8.756  18.162  13.999
48352W        W11911  15.730   9.867   0.849
48353W        W11912  33.408  40.964   1.353
48354W        W11913   7.831  13.246  12.895
48355W        W11914  19.202   6.249   4.791
48356W        W11915  29.448   1.847   0.373
48357W        W11916  40.821  10.191   3.326
48358W        W11917  25.014  42.366   0.419
48359W        W11918  15.213  18.699  10.462
48360W        W11919  30.012   3.713   0.286
48361W        W11920  29.477  11.137   3.762
48362W        W11921   0.297  43.305  10.972
48363W        W11922  23.050  35.043  14.485
48364W        W11923  15.204   8.734  10.963
48365W        W11924  28.536   7.761   3.146
48366W        W11925  15.730  24.551   0.754
48367W        W11926  14.708  40.937   1.813
48368W        W11927  22.040  33.984   1.802
48369W        W11928  20.528  12.270   2.674
48370W        W11929  14.332  14.704  11.862
48371W        W11930  25.981  14.802  12.079
48372W        W11931  29.088  11.322   2.685
48373W        W11932  27.610   8.740   0.307
48374W        W11933  37.887  11.334   2.663
48375W        W11934  21.623   0.454  12.448
48376W        W11935  31.030  24.121  10.441
48377W        W11936  27.639  41.945  13.317
48378W        W11937  13.825   5.374  10.131
48379W        W11938  23.514  14.740  13.014
48380W        W11939  18.551  27.549  11.466
48381W        W11940  13.342  28.094   2.212
48382W        W11941  38.935  23.087   4.203
48383W        W11942  35.988  30.161   4.300
48384W        W11943  16.659  37.562   1.764
48385W        W11944  43.003  32.622   4.668
48386W        W11945  42.316  40.798  11.933
48387W        W11946   2.942  16.171  11.018
48388W        W11947  35.027  14.099  11.492
48389W        W11948   6.711  28.987   1.295
48390W        W11949  11.132  31.607   4.765
48391W        W11950  35.980  14.129   1.895
48392W        W11951   3.894  14.111  12.391
48393W        W11952  13.768  27.156   0.365
48394W        W11953  24.496  20.147  11.411
48395W        W11954  16.294  14.294  11.071
48396W        W11955  31.464  10.721   9.579
48397W        W11956   7.795  33.460  11.454
48398W        W11957  39.988  20.135  10.562
48399W        W11958   6.374  36.054   4.201
48400W        W11959  33.951   2.826   1.448
48401W        W11960  27.995  43.957  14.816
48402W        W11961  17.208  16.123   4.255
48403W        W11962   3.373   6.742   4.319
48404W        W11963  38.955   6.741   4.707
48405W        W11964   6.770  25.484   2.855
48406W        W11965  20.253   7.381   1.726
48407W        W11966  14.606   5.436   0.874
48408W        W11967  19.204  44.382  14.847
48409W        W11968   4.766  23.010  13.874
48410W        W11969  40.928  37.408   0.939
48411W        W11970  26.678   8.336   0.422
48412W        W11971  15.802   8.294   4.704
48413W        W11972  19.740   2.939   1.228
48414W        W11973  43.836  14.254  13.922
48415W        W11974   6.425  24.149   2.670
48416W        W11975  18.172  38.483  13.533
48417W        W11976   7.307  29.062  11.392
48418W        W11977  16.784  39.399  14.443
48419W        W11978  25.082  40.051   3.769
48420W        W11979   5.416  40.335  13.343
48421W        W11980  34.419   8.739  14.949
48422W        W11981  23.158  37.903   0.847
48423W        W11982   4.342  10.740   3.249
48424W        W11983  11.829  24.065  11.048
48425W        W11984  25.975  35.960   4.206
48426W        W11985  11.360  31.596  14.343
48427W        W11986  36.495  35.990   0.900
48428W        W11987   3.435  28.661   3.219
48429W        W11988  10.318  30.074   3.666
48430W        W11989  31.640  44.298  12.964
48431W        W11990  11.221  11.297   3.720
48432W        W11991  38.473  34.092   3.147
48433W        W11992   6.380   9.197  10.625
48434W        W11993  20.152  12.622   3.865
48435W        W11994   8.276   2.813   0.856
48436W        W11995  34.416  25.604   4.714
48437W        W11996  22.038  23.610  11.438
48438W        W11997   7.773  40.893   3.739
48439W        W11998  31.003   5.216  10.961
48440W        W11999  42.448  36.962   0.932
48441W        W12000  24.687  44.409   4.671
48442W        W12001  30.997  44.263   4.721
48443W        W12002  22.036   4.345  12.371
48444W        W12003  18.658   0.487   4.293
48445W        W12004  37.426  38.472   0.947
48446W        W12005  26.494  30.003   0.337
48447W        W12006  20.155   1.963   2.304
48448W        W12007   5.925  15.718   1.717
48449W        W12008  12.156  26.144  12.488
48450W        W12009  37.060  27.062   4.814
48451W        W12010  38.493  32.606   4.350
48452W        W12011   7.749  44.417  10.048
48453W        W12012  42.503  41.504  14.353
48454W        W12013  37.876  14.802  13.460
48455W        W12014  14.754  28.458  11.051
48456W        W12015  26.006  20.713  11.046
48457W        W12016  42.013  36.040  14.384
48458W        W12017  32.020  38.456   4.653
48459W        W12018  30.030  10.877  14.019
48460W        W12019  18.756  36.999   3.696
48461W        W12020  30.971  43.919   3.759
48462W        W12021  42.481  17.174  12.831
48463W        W12022  13.678  26.571   3.765
48464W        W12023   0.342   4.777  13.423
48465W        W12024   5.710   3.267  14.998
48466W        W12025  14.248   4.304  14.911
48467W        W12026  38.343   1.278  10.436
48468W        W12027   0.360  22.653   0.800
48469W        W12028  29.130  24.657  11.861
48470W        W12029  26.204  44.903   2.365
48471W        W12030   8.276  42.781  11.597
48472W        W12031  25.620  19.671  10.980
48473W        W12032   0.780   6.695   3.220
48474W        W12033  39.815   8.873   4.311
48475W        W12034  38.436   7.211  11.458
48476W        W12035  39.433  21.055  11.477
48477W        W12036  31.487  41.390   3.749
48478W        W12037  36.537  44.863  10.969
48479W        W12038  25.574  25.218   5.220
48480W        W12039  33.603  25.529   3.634
48481W        W12040  40.480   2.292  11.915
48482W        W12041  25.557  16.211  11.583
48483W        W12042   6.321   0.432   1.426
48484W        W12043   1.764  17.777   0.853
48485W        W12044  30.625  38.035  11.001
48486W        W12045   9.164   6.255   1.373
48487W        W12046  36.577  44.932   0.434
48488W        W12047  34.569   7.211   3.763
48489W        W12048  40.339  12.318  12.048
48490W        W12049  14.203  35.453   1.338
48491W        W12050  13.182  28.082  11.919
48492W        W12051  24.162  28.031  10.497
48493W        W12052  31.127  18.760  12.442
48494W        W12053   5.751  17.712  13.903
48495W        W12054  26.581  17.801   3.716
48496W        W12055  21.044  31.057   5.793
48497W        W12056  11.858   0.492  12.010
48498W        W12057  22.096   7.251  14.410
48499W        W12058  33.029  13.629   1.706
48500W        W12059  10.299  34.545   3.384
48501W        W12060  29.587  31.091   2.223
48502W        W12061   4.261  36.075   1.877
48503W        W12062  41.804  19.607  13.999
48504W        W12063  32.073  11.683  10.983
48505W        W12064  40.448  32.961  11.914
48506W        W12065  41.486  11.683  11.026
48507W        W12066  13.327  31.139  11.918
48508W        W12067  23.079  14.620   0.876
48509W        W12068  20.690  34.595   0.818
48510W        W12069  23.614   7.753   2.356
48511W        W12070  31.119  27.043  10.982
48512W        W12071  15.316   3.343  14.372
48513W        W12072  12.124   6.376  11.913
48514W        W12073   9.789  35.076   3.754
48515W        W12074  13.651  22.645   4.213
48516W        W12075  13.688  21.224   3.804
48517W        W12076  44.879  25.117   1.428
48518W        W12077   2.739  32.951  11.873
48519W        W12078  20.074  39.551   1.710
48520W        W12079  13.733  34.021   5.798
48521W        W12080  41.529  29.970  12.862
48522W        W12081  37.512  31.959  14.858
48523W        W12082  13.617  23.995   2.811
48524W        W12083  30.956  28.058  10.473
48525W        W12084  32.553  22.588  13.812
48526W        W12085   2.249   1.419  10.533
48527W        W12086  29.587  23.637  13.876
48528W        W12087   0.975   5.875  14.415
48529W        W12088  13.838  22.207   1.334
48530W        W12089   6.738   1.813  12.921
48531W        W12090  23.204  40.532   2.676
48532W        W12091  21.028   4.380  13.934
48533W        W12092  38.037  10.866  12.500
48534W        W12093  36.550  23.237   4.692
48535W        W12094   6.802   9.379  10.974
48536W        W12095  10.216  27.961   1.211
48537W        W12096  26.131  13.289  11.107
48538W        W12097   0.922  19.241  13.822
48539W        W12098  20.221   6.291  10.635
48540W        W12099   1.437  30.060   0.848
48541W        W12100  11.775  11.321   2.898
48542W        W12101  26.184  40.451  11.114
48543W        W12102  33.106  37.949  12.468
48544W        W12103  35.602  15.821   3.807
48545W        W12104  29.598   3.397   0.300
48546W        W12105  16.758  18.572  13.354
48547W        W12106   9.391  32.512   4.810
48548W        W12107  26.137  14.812  10.572
48549W        W12108  32.426  22.144   3.335
48550W        W12109  27.565  10.768  14.338
48551W        W12110  44.994  37.086   0.938
48552W        W12111  28.497  15.709   2.706
48553W        W12112  22.530   6.319  14.795
48554W        W12113  31.543  15.260  12.000
48555W        W12114  13.707  23.027   2.370
48556W        W12115  41.897  38.387   3.214
48557W        W12116   5.323  18.152   0.886
48558W        W12117   1.793  33.050  11.918
48559W        W12118  23.541  17.698   3.223
48560W        W12119   5.308   6.304  13.371
48561W        W12120   9.178  37.364  14.876
48562W        W12121  14.339  41.528  13.950
48563W        W12122  24.690  35.585  14.276
48564W        W12123   2.463  40.327   2.836
48565W        W12124  44.356  33.459   5.151
48566W        W12125  13.238  17.743   3.299
48567W        W12126  22.221  40.976   4.636
48568W        W12127  43.360  42.869   1.392
48569W        W12128   9.686  10.760   1.380
48570W        W12129  22.535  10.180  11.962
48571W        W12130  26.068  19.719  13.884
48572W        W12131  11.342  23.131  11.565
48573W        W12132   1.351   3.782  11.050
48574W        W12133  25.479   7.666  10.416
48575W        W12134  43.308  29.918   0.861
48576W        W12135   8.693  35.025  12.096
48577W        W12136  11.164  37.431   1.323
48578W        W12137  27.618  35.374  14.998
48579W        W12138  10.834  23.066  10.916
48580W        W12139   4.855   8.403  10.497
48581W        W12140  22.698  18.641   1.277
48582W        W12141  27.980  12.643  14.779
48583W        W12142  32.949  20.544   4.170
48584W        W12143  44.897   4.250  10.566
48585W        W12144  10.339  42.989  14.880
48586W        W12145  36.920  36.984  11.872
48587W        W12146  43.851  35.990  12.443
48588W        W12147  21.531  41.360   2.213
48589W        W12148  37.832  36.470   5.269
48590W        W12149  17.725  12.741   4.783
48591W        W12150  41.811  32.571   3.168
48592W        W12151  15.157   2.310   0.951
48593W        W12152   7.876   3.341  12.938
48594W        W12153  34.047   7.821   9.480
48595W        W12154  38.386  43.515  14.404
48596W        W12155  15.632   1.739  11.373
48597W        W12156  19.200  26.513  14.023
48598W        W12157  11.701  40.917  10.423
48599W        W12158   4.434   9.313   4.633
48600W        W12159  27.488  13.620  10.488
48601W        W12160  38.376  17.644  14.003
48602W        W12161  24.658  34.490  11.480
48603W        W12162  38.560   6.211   1.797
48604W        W12163  26.658  30.043  10.971
48605W        W12164  33.044   8.843  12.054
48606W        W12165  28.634   4.922  14.992
48607W        W12166  44.432  17.558  13.844
48608W        W12167  24.138   0.273   4.747
48609W        W12168   3.365   8.337   0.862
48610W        W12169  28.621  32.616  11.886
48611W        W12170   1.822  23.061  13.963
48612W        W12171  18.621  28.680   4.241
48613W        W12172  37.027  26.150   2.221
48614W        W12173   3.811  37.447  10.558
48615W        W12174  39.859  37.437  11.406
48616W        W12175  33.521  29.029   0.374
48617W        W12176  16.074  14.335   2.749
48618W        W12177  11.333  25.144  13.450
48619W        W12178  38.562  27.111   2.412
48620W        W12179  34.440  11.719   1.261
48621W        W12180  43.934  19.233  10.985
48622W        W12181  41.924  36.854  13.547
48623W        W12182  18.625  32.637  11.959
48624W        W12183  13.681  38.010  12.372
48625W        W12184  11.686   0.786  13.452
48626W        W12185   8.324  14.755  10.594
48627W        W12186  16.648  24.075   4.335
48628W        W12187  21.221  21.757  13.866
48629W        W12188  27.587   6.700  13.943
48630W        W12189  16.232  24.217   9.655
48631W        W12190  31.956  12.192   0.437
48632W        W12191  37.081  36.499   1.770
48633W        W12192   0.275  34.088  11.070
48634W        W12193  43.409  14.786  11.979
48635W        W12194  43.819  23.706  12.508
48636W        W12195  42.423   3.731  13.941
48637W        W12196  13.787  42.290  14.811
48638W        W12197   8.890   2.945  11.480
48639W        W12198  41.442  15.777   3.290
48640W        W12199  10.301  38.839  13.973
48641W        W12200  25.117   4.433   4.266
48642W        W12201  30.606  34.378   2.831
48643W        W12202  23.511  28.617   1.348
48644W        W12203  28.678   1.954   2.270
48645W        W12204  16.787   9.174  13.823
48646W        W12205  30.538  29.051  13.973
48647W        W12206  21.103  25.077  13.485
48648W        W12207   0.420  24.076   0.843
48649W        W12208  24.583  21.722   3.799
48650W        W12209  17.097  42.317  14.849
48651W        W12210  18.145   8.297  11.482
48652W        W12211  35.899  38.359  14.468
48653W        W12212  17.230   5.371   1.734
48654W        W12213  27.056  28.121   2.282
48655W        W12214   2.455   8.849   0.412
48656W        W12215  44.808   8.886  10.919
48657W        W12216  36.364  44.333  10.617
48658W        W12217  25.174  43.279  14.417
48659W        W12218   2.867  18.178   3.654
48660W        W12219  19.583  33.040  13.926
48661W        W12220  33.082   2.859   4.746
48662W        W12221  18.052   7.332   3.683
48663W        W12222  33.874  35.978   1.256
48664W        W12223  13.217  29.953  13.529
48665W        W12224  28.502  16.572   2.383
48666W        W12225   5.690  23.055  14.797
48667W        W12226  33.019  33.493  14.448
48668W        W12227  40.900   5.265  12.939
48669W        W12228   3.778  35.886   2.802
48670W        W12229   1.798  33.384  12.913
48671W        W12230  38.418   2.920  11.070
48672W        W12231  41.842  35.062   3.629
48673W        W12232  15.283  15.605  12.348
48674W        W12233  28.516  13.264   0.797
48675W        W12234   5.875  38.342   2.820
48676W        W12235  24.586  31.978  11.434
48677W        W12236  37.375  17.111  12.860
48678W        W12237  23.629  24.599   4.823
48679W        W12238  44.886  24.595  13.802
48680W        W12239  21.682  25.652  11.575
48681W        W12240  29.126   6.232   0.378
48682W        W12241  15.245  13.316   0.482
48683W        W12242  33.040  15.663  14.380
48684W        W12243  41.510  23.703  13.322
48685W        W12244  16.181  34.955   3.308
48686W        W12245  20.043   6.869  13.929
48687W        W12246   4.882  44.415   0.791
48688W        W12247  20.753  17.607   2.391
48689W        W12248  35.025  15.267   3.270
48690W        W12249  31.016  27.501  12.084
48691W        W12250  30.121   3.383   3.855
48692W        W12251   0.779  39.868  12.452
48693W        W12252   0.381  22.051   4.313
48694W        W12253  16.668  27.671   0.374
48695W        W12254  35.037  28.944   4.148
48696W        W12255   3.218  28.461  14.482
48697W        W12256  28.453  24.479   0.266
48698W        W12257  32.088  15.695  14.417
48699W        W12258  12.838  22.645  14.432
48700W        W12259  34.089   6.883   0.928
48701W        W12260  40.361  23.506   0.732
48702W        W12261  14.615  30.497   0.272
48703W        W12262  32.490  15.164  10.570
48704W        W12263  31.901  40.434   0.287
48705W        W12264  29.949  41.460   0.741
48706W        W12265  22.205  30.163   2.324
48707W        W12266  13.113   8.844  12.566
48708W        W12267  13.650  28.012   4.334
48709W        W12268  28.651  29.100  11.104
48710W        W12269  19.745  14.794  10.563
48711W        W12270   8.252  43.007  13.364
48712W        W12271  15.604  19.558  13.972
48713W        W12272  10.727  16.119   4.192
48714W        W12273  32.075  17.208   2.371
48715W        W12274  16.627  41.972   0.278
48716W        W12275  10.265  15.812   5.219
48717W        W12276  32.130  26.627  11.864
48718W        W12277  21.065  28.456   1.252
48719W        W12278  33.424  40.002  11.023
48720W        W12279  25.148  32.123   3.794
48721W        W12280  11.646   0.747  11.973
48722W        W12281  42.335  16.638   1.875
48723W        W12282  12.616  30.012  14.376
48724W        W12283  18.124  19.279  11.109
48725W        W12284  16.203  21.604  12.488
48726W        W12285  26.496  20.159   3.824
48727W        W12286  38.325  25.157   0.761
48728W        W12287  13.782   8.743   5.244
48729W        W12288  26.203  29.931  13.855
48730W        W12289   6.859   1.756   3.190
48731W        W12290  19.586  37.911  10.951
48732W        W12291  21.657  27.663  10.961
48733W        W12292   1.830  26.099  12.919
48734W        W12293  21.638  15.181  13.411
48735W        W12294   8.280  33.550  14.493
48736W        W12295  38.542  40.968   3.687
48737W        W12296   6.357  25.606  14.021
48738W        W12297  14.263  12.293  14.347
48739W        W12298  20.222   3.398  11.894
48740W        W12299  42.006  23.682   4.804
48741W        W12300  43.478   1.883   3.761
48742W        W12301  44.470  27.567   0.279
48743W        W12302   9.168  20.625   2.686
48744W        W12303  11.642  33.071   3.279
48745W        W12304  39.545  16.743  12.409
48746W        W12305   3.345  13.844   2.802
48747W        W12306   3.847   3.268  13.912
48748W        W12307   9.847  38.926   1.856
48749W        W12308  20.751  10.866  11.549
48750W        W12309   0.446  31.953   2.201
48751W        W12310  13.657   4.285   3.682
48752W        W12311  20.759  44.484  12.020
48753W        W12312  38.998   9.664  12.347
48754W        W12313   2.249  39.486  12.429
48755W        W12314  36.505   3.218   9.961
48756W        W12315   6.221  13.129  12.846
48757W        W12316   8.726   4.398  14.385
48758W        W12317  33.876  21.715   1.886
48759W        W12318  41.921  28.054   4.618
48760W        W12319  28.071  17.695   4.637
48761W        W12320   0.298  38.556   1.851
48762W        W12321  22.156  18.256   0.938
48763W        W12322  15.236  25.122   1.838
48764W        W12323  44.912  31.463   0.791
48765W        W12324  12.675  29.138   2.793
48766W        W12325  25.150  32.049  10.564
48767W        W12326  10.765  42.332  13.337
48768W        W12327  12.770   7.227   3.660
48769W        W12328   4.208  32.896  10.407
48770W        W12329  34.604  40.874  10.091
48771W        W12330  28.101  42.445   1.404
48772W        W12331  26.087   0.865   1.212
48773W        W12332   6.726   7.316   0.737
48774W        W12333  12.189  25.679   4.659
48775W        W12334  34.517  41.836  11.114
48776W        W12335  15.588  28.164   2.208
48777W        W12336   2.274  40.467   2.319
48778W        W12337   9.882   7.352  11.912
48779W        W12338  17.071  12.241  11.106
48780W        W12339   9.699   4.858   3.806
48781W        W12340   9.863   0.308   3.856
48782W        W12341  13.658  30.137   3.208
48783W        W12342  30.534   9.867  12.579
48784W        W12343  28.446  11.857  11.421
48785W        W12344  27.628   0.963  11.915
48786W        W12345   8.673  22.036  14.939
48787W        W12346  39.329  31.601  14.899
48788W        W12347  27.606  30.627   1.849
48789W        W12348  28.590  25.003   2.822
48790W        W12349  15.184  36.488   3.638
48791W        W12350  40.961  15.720  12.876
48792W        W12351  38.531  11.778  14.295
48793W        W12352  23.207   2.247  13.945
48794W        W12353   4.804   7.893  14.330
48795W        W12354  20.224  28.088  13.945
48796W        W12355  25.565  23.057   3.201
48797W        W12356  19.090  43.458   3.698
48798W        W12357   3.262  22.208   3.768
48799W        W12358  41.464  15.593  13.858
48800W        W12359  36.071  35.067  10.624
48801W        W12360   3.240  28.576   4.329
48802W        W12361  42.890   8.241   4.791
48803W        W12362  11.356  27.522  12.487
48804W        W12363  42.940  36.455  11.127
48805W        W12364  13.279   6.186  11.941
48806W        W12365  37.354  18.157  13.988
48807W        W12366   5.797  18.286   0.247
48808W        W12367  15.235  34.101  11.085
48809W        W12368  10.310   8.323   4.611
48810W        W12369  19.688   3.434  11.058
48811W        W12370   0.494  42.919   0.301
48812W        W12371  14.312  34.899   0.765
48813W        W12372  24.178  36.521   4.601
48814W        W12373  28.968   6.428   4.346
48815W        W12374  40.507   2.870  14.763
48816W        W12375   0.744  10.795  10.933
48817W        W12376  28.650  26.553  11.464
48818W        W12377  24.565   7.884   1.804
48819W        W12378  24.488  17.300   2.751
48820W        W12379  42.444  14.610   4.125
48821W        W12380  18.177  31.953  12.081
48822W        W12381  35.575  37.976   1.405
48823W        W12382  32.947  22.240   3.153
48824W        W12383   9.301   5.257   3.215
48825W        W12384  32.051  37.537  13.471
48826W        W12385  10.847  25.650  11.896
48827W        W12386  33.603  10.361   2.813
48828W        W12387   6.895  14.145  13.887
48829W        W12388  44.990  29.628  13.374
48830W        W12389   0.815  43.333   1.294
48831W        W12390   8.182  27.165  11.536
48832W        W12391  28.446  34.610   3.219
48833W        W12392   6.689  38.993   3.797
48834W        W12393   0.979   6.334   5.092
48835W        W12394  26.540   4.247  13.349
48836W        W12395  13.631  37.941   1.707
48837W        W12396   5.775  31.510   4.631
48838W        W12397   9.207  34.933  12.533
48839W        W12398  18.167  23.634   4.620
48840W        W12399  15.591  23.600   2.879
48841W        W12400  17.684  16.280  14.818
48842W        W12401   6.820  35.457  11.055
48843W        W12402  44.008  38.050  13.466
48844W        W12403  32.064   0.292  14.448
48845W        W12404  34.975  16.754  10.423
48846W        W12405  30.618  21.723  10.561
48847W        W12406  36.386  18.608  13.391
48848W        W12407  10.739  23.112  10.443
48849W        W12408  44.363  38.341   2.818
48850W        W12409  10.293  38.877  12.558
48851W        W12410  36.418  43.918  13.349
48852W        W12411  14.753  32.105   0.458
48853W        W12412  40.466  26.073  10.913
48854W        W12413  19.201  24.693  14.759
48855W        W12414  42.521  10.149  11.459
48856W        W12415  14.728  20.621   3.330
48857W        W12416  15.087  25.080   3.165
48858W        W12417  31.511  38.393  10.637
48859W        W12418  28.151  13.657  12.390
48860W        W12419  13.212   9.346  11.446
48861W        W12420  32.053  30.071   1.337
48862W        W12421  17.183   2.800   4.197
48863W        W12422   6.919  12.671  10.149
48864W        W12423  18.656  28.929   1.425
48865W        W12424  40.895  36.353  13.064
48866W        W12425  12.149  22.734  12.572
48867W        W12426  22.540  14.771  14.998
48868W        W12427  11.824  19.661   4.346
48869W        W12428  33.520   3.908   4.674
48870W        W12429  29.442   1.341  13.975
48871W        W12430  38.515  20.176   1.232
48872W        W12431  16.087  21.187   1.832
48873W        W12432  20.686  13.140  12.507
48874W        W12433  36.378  20.178  10.511
48875W        W12434  40.983  30.563  14.497
48876W        W12435  41.915  12.147  11.428
48877W        W12436   9.200  44.945  11.969
48878W        W12437  36.067  16.209   1.248
48879W        W12438  21.250  19.542   1.271
48880W        W12439  11.288  33.486  10.082
48881W        W12440   6.288  42.017   2.868
48882W        W12441  19.687  43.396  13.346
48883W        W12442   9.262  15.106   2.358
48884W        W12443   3.226  22.142   2.852
48885W        W12444  34.088  12.682   0.469
48886W        W12445  30.644   6.702  13.388
48887W        W12446   0.892  26.504  14.855
48888W        W12447  34.471  19.166  12.374
48889W        W12448  29.435  40.332  10.419
48890W        W12449  32.007   1.900   3.648
48891W        W12450  19.665  37.952  14.999
48892W        W12451  34.578  27.071  11.086
48893W        W12452  24.131  25.534  12.548
48894W        W12453  13.730  16.297  14.472
48895W        W12454  35.559  24.702   4.833
48896W        W12455   8.391  16.635  13.820
48897W        W12456  38.028  27.110  13.898
48898W        W12457  21.094  15.682  13.468
48899W        W12458  22.169   9.291   2.359
48900W        W12459  30.598  32.928   3.640
48901W        W12460   7.279  11.239   4.211
48902W        W12461  29.956  29.432   0.340
48903W        W12462  36.583  41.454   1.912
48904W        W12463  30.488  12.628  13.437
48905W        W12464  13.722  29.458  14.473
48906W        W12465  15.119   8.329   1.836
48907W        W12466   5.357  31.016   0.410
48908W        W12467  17.639  15.109   0.828
48909W        W12468  41.459   2.370  11.405
48910W        W12469   2.433   6.358  12.035
48911W        W12470  41.450  43.352  12.934
48912W        W12471  28.616  26.624   4.741
48913W        W12472  28.079   6.907  10.938
48914W        W12473   6.286  10.328  12.850
48915W        W12474  11.683   3.436  12.849
48916W        W12475   0.743  40.461  14.315
48917W        W12476   8.257  35.950  11.099
48918W        W12477  39.322   4.885  14.954
48919W        W12478   6.744   6.717   2.831
48920W        W12479  41.455  18.221   0.411
48921W        W12480  28.953   7.196   4.612
48922W        W12481  36.538   3.238  10.999
48923W        W12482  42.492  37.059   4.347
48924W        W12483  14.773  11.302   2.253
48925W        W12484  25.564  38.940   3.357
48926W        W12485   8.799  44.787  11.977
48927W        W12486  19.722  26.099   0.893
48928W        W12487  31.513   6.774   4.239
48929W        W12488  23.215  29.657  12.419
48930W        W12489   8.824  18.598  11.115
48931W        W12490  37.891  21.546   3.808
48932W        W12491   6.907  41.480   2.786
48933W        W12492  42.382  27.968  10.413
48934W        W12493  43.839   7.715  12.407
48935W        W12494  42.385  10.373   0.918
48936W        W12495  41.533  24.022  11.421
48937W        W12496  18.095   0.254   1.905
48938W        W12497  24.206  28.973   9.994
48939W        W12498  15.317   2.854  11.417
48940W        W12499  24.140  35.076  14.870
48941W        W12500  44.376   9.384   1.854
48942W        W12501   1.463  32.464   1.863
48943W        W12502  37.008  31.594  12.483
48944W        W12503  21.053  27.085   4.668
48945W        W12504  31.491   1.438  12.051
48946W        W12505  19.675   5.376   1.828
48947W        W12506  43.380  12.629   2.303
48948W        W12507  39.996  37.078   1.766
48949W        W12508  40.540  14.801   2.342
48950W        W12509   4.705  42.026  13.377
48951W        W12510  14.274  28.552   1.929
48952W        W12511  39.051  33.002   1.867
48953W        W12512   0.292  24.709  12.090
48954W        W12513  25.487  22.084  12.848
48955W        W12514  11.295  37.549  12.042
48956W        W12515   4.398  25.500   2.416
48957W        W12516  22.018  22.232   4.352
48958W        W12517  24.512  12.179  13.466
48959W        W12518  30.159   3.306   0.284
48960W        W12519  20.158   1.893  13.866
48961W        W12520  27.983  40.875   1.786
48962W        W12521   5.308  13.816   4.742
48963W        W12522  28.587  24.991  12.990
48964W        W12523  13.707  16.157   0.249
48965W        W12524   6.841  30.097  14.961
48966W        W12525  34.506  41.959   1.323
48967W        W12526  24.722   6.918   0.938
48968W        W12527   9.792  11.772   0.477
48969W        W12528  24.639  18.216   0.847
48970W        W12529  34.040   0.917   2.370
48971W        W12530  31.081  17.584   2.262
48972W        W12531  40.802  36.484  11.051
48973W        W12532  43.000  41.424   4.181
48974W        W12533  19.556  25.669   4.157
48975W        W12534  15.708   0.747  13.436
48976W        W12535  28.582   8.781   0.420
48977W        W12536  25.541  30.442  10.962
48978W        W12537   4.773  18.076  12.481
48979W        W12538  35.963  15.319   4.198
48980W        W12539  19.572  27.144  11.099
48981W        W12540  31.113  15.788   3.304
48982W        W12541  27.022  18.789   4.623
48983W        W12542  28.636  37.844  10.599
48984W        W12543   2.348   8.899  12.982
48985W        W12544   9.308  23.650  13.980
48986W        W12545  10.335  20.569   1.439
48987W        W12546  27.508  17.249   1.444
48988W        W12547   5.877  11.633   1.228
48989W        W12548  27.942  12.336  13.523
48990W        W12549  31.615  44.363  12.384
48991W        W12550   1.264   5.269  11.504
48992W        W12551   9.353  35.022  14.284
48993W        W12552  40.813  27.012  13.465
48994W        W12553   8.691  24.163  12.576
48995W        W12554  26.529   5.745  14.880
48996W        W12555  29.650   2.841  12.022
48997W        W12556   5.814  39.815  12.840
48998W        W12557  31.021  43.842  14.440
48999W        W12558  12.183  32.948   3.279
49000W        W12559  16.223  11.224   3.362
49001W        W12560  29.952  11.355   4.801
49002W        W12561   6.910  21.236   4.320
49003W        W12562  10.633  18.679   0.419
49004W        W12563  18.192   9.692  12.023
49005W        W12564  38.945  40.941  12.080
49006W        W12565  31.120  29.536  11.506
49007W        W12566  11.225  14.307  11.914
49008W        W12567  26.468  35.096   3.738
49009W        W12568   9.787   0.378  11.468
49010W        W12569   0.915  35.412  11.592
49011W        W12570  18.557  19.753  10.159
49012W        W12571   5.338   6.923  12.979
49013W        W12572  11.773  21.225   3.782
49014W        W12573  36.558  35.510   4.753
49015W        W12574  16.763   6.357   0.265
49016W        W12575  43.979   5.228  12.846
49017W        W12576  12.133  16.714  13.444
49018W        W12577  19.750  33.969   1.425
49019W        W12578  23.538   1.471  12.831
49020W        W12579  42.476  35.979   4.131
49021W        W12580  42.916  26.197  10.605
49022W        W12581  19.702  41.424  12.479
49023W        W12582  17.604  17.703   0.367
49024W        W12583  20.641  33.472   4.285
49025W        W12584   4.760   1.262   1.310
49026W        W12585  41.024  11.791  11.899
49027W        W12586  30.095  11.141   1.877
49028W        W12587  16.684  26.031   2.403
49029W        W12588  23.141  40.475   4.121
49030W        W12589   9.384  11.701   0.947
49031W        W12590  12.335  12.237   1.807
49032W        W12591   9.861  12.191  12.516
49033W        W12592  36.961   7.765   2.312
49034W        W12593   7.244  43.883  14.450
49035W        W12594  17.259  26.541  12.510
49036W        W12595  12.196  20.113   1.871
49037W        W12596  18.090  17.729  12.890
49038W        W12597  29.528  34.979   0.907
49039W        W12598  40.516  10.652   0.350
49040W        W12599  21.174  41.802   4.630
49041W        W12600  15.760   5.384   3.323
49042W        W12601  24.221  26.974  14.464
49043W        W12602   5.423  17.696  13.315
49044W        W12603  10.783   6.289   2.340
49045W        W12604  17.184  32.082   4.682
49046W        W12605  16.785  10.660  14.504
49047W        W12606  36.978  21.105   2.299
49048W        W12607   1.247  18.265   1.890
49049W        W12608  23.125  23.730  14.875
49050W        W12609  33.880  15.662  13.001
49051W        W12610  21.561  28.082   2.213
49052W        W12611  25.012   3.219   2.246
49053W        W12612  10.290  27.449   9.999
49054W        W12613  14.324  20.185  13.989
49055W        W12614   6.805   0.483   1.755
49056W        W12615  31.569   4.336  13.536
49057W        W12616  34.099  41.903   4.829
49058W        W12617  44.448   9.652   0.324
49059W        W12618   7.908  28.083  11.494
49060W        W12619  32.117  33.417   4.306
49061W        W12620  23.003  39.037   2.818
49062W        W12621  29.127  10.835   3.207
49063W        W12622  18.060   5.791   2.227
49064W        W12623  10.689   2.393   2.828
49065W        W12624  10.638  38.557  11.858
49066W        W12625  21.702  24.116   1.322
49067W        W12626  43.292  20.555  13.843
49068W        W12627  22.532  22.142  14.923
49069W        W12628  43.826  11.189   3.325
49070W        W12629   0.342  23.094  14.453
49071W        W12630  22.553  16.235   4.752
49072W        W12631  35.544  34.469   5.200
49073W        W12632  30.612  42.497   1.293
49074W        W12633  22.193   9.716  11.042
49075W        W12634  19.042  34.912  13.930
49076W        W12635  32.393  44.317   4.621
49077W        W12636  27.503  30.064   1.724
49078W        W12637  35.486  17.743   2.708
49079W        W12638  12.709  31.934   1.805
49080W        W12639  16.304  16.589   2.237
49081W        W12640   6.813  22.166   1.710
49082W        W12641  24.629  36.552  11.067
49083W        W12642  17.742  23.152  11.528
49084W        W12643  38.063   9.649   1.884
49085W        W12644  30.478  32.564  10.977
49086W        W12645  42.459   9.227   4.318
49087W        W12646  25.135   6.720  13.902
49088W        W12647  12.814  37.844  11.474
49089W        W12648  29.620  12.814   2.773
49090W        W12649   7.836  18.745   4.204
49091W        W12650  12.300  15.763   4.119
49092W        W12651   0.859  40.539  10.626
49093W        W12652  18.222   2.229   3.654
49094W        W12653   8.318   5.770   3.311
49095W        W12654  14.159  21.644  10.965
49096W        W12655  32.072  11.293   4.635
49097W        W12656   2.391  11.331   4.759
49098W        W12657  26.661  20.099  10.514
49099W        W12658   2.944  43.422  10.639
49100W        W12659  37.980   4.353  11.448
49101W        W12660  25.081   1.409  14.344
49102W        W12661  41.952  17.267   2.267
49103W        W12662  40.897   4.858  13.513
49104W        W12663   9.264  14.808   0.279
49105W        W12664  15.685   3.876  12.495
49106W        W12665  25.157  29.570  11.916
49107W        W12666   7.863  12.242  12.490
49108W        W12667  16.093  36.082  10.489
49109W        W12668  22.587  15.776  14.810
49110W        W12669   1.922  18.258  12.050
49111W        W12670  36.877   0.397   1.698
49112W        W12671  24.486   0.274  10.979
49113W        W12672  43.407  31.616  13.345
49114W        W12673  18.642  38.491   1.277
49115W        W12674   8.204   2.836   1.317
49116W        W12675   6.895  12.672   3.249
49117W        W12676  15.241  23.493  14.384
49118W        W12677  35.579  41.485   2.339
49119W        W12678  43.965  22.187  11.604
49120W        W12679   9.373   7.236   1.902
49121W        W12680  12.221  13.335   1.717
49122W        W12681  27.690  41.304  13.504
49123W        W12682  14.723   1.369   1.695
49124W        W12683  43.787  25.553   4.203
49125W        W12684  43.939  34.094   1.935
49126W        W12685  15.667  10.818   3.230
49127W        W12686  20.107  25.038   4.822
49128W        W12687  27.524   6.212  11.466
49129W        W12688  29.070  17.173   3.253
49130W        W12689  42.503  31.627  11.495
49131W        W12690  18.235  38.834  13.508
49132W        W12691   4.433  26.482   2.892
49133W        W12692  23.633  41.448  11.892
49134W        W12693  25.049  43.420  11.092
49135W        W12694  16.721  23.190  13.408
49136W        W12695  41.984  40.829  13.844
49137W        W12696  26.011  32.468   2.866
49138W        W12697  21.081  42.283  12.502
49139W        W12698  38.500  16.300  11.521
49140W        W12699  40.360  27.122   0.737
49141W        W12700  42.472  19.749  10.906
49142W        W12701  40.886  22.162  14.982
49143W        W12702  40.049  35.481  12.025
49144W        W12703  30.471  25.477   0.256
49145W        W12704   2.855  12.214  13.061
49146W        W12705   5.233  17.740   3.310
49147W        W12706  43.998  22.580   2.178
49148W        W12707   7.341  16.281  12.431
49149W        W12708  41.486   3.444  13.364
49150W        W12709  28.464  41.969  14.415
49151W        W12710  33.021   7.740   3.307
49152W        W12711   0.282  12.246   1.901
49153W        W12712  39.871   2.790  13.323
49154W        W12713  43.314  21.617  10.550
49155W        W12714  24.646  40.953   0.401
49156W        W12715  33.942  23.645  11.554
49157W        W12716  22.212   0.395  10.459
49158W        W12717  35.448  33.000   3.863
49159W        W12718   5.904  35.535   4.623
49160W        W12719  42.841  33.552   4.126
49161W        W12720  19.779  16.597   1.363
49162W        W12721  42.844  38.872   2.720
49163W        W12722  20.589   1.944  12.054
49164W        W12723   1.459  12.209  14.836
49165W        W12724   9.795  43.475  14.334
49166W        W12725   0.915  41.943   2.693
49167W        W12726  18.090  33.969  11.401
49168W        W12727  44.939  36.066  10.465
49169W        W12728   2.748  13.822  13.504
49170W        W12729  39.988  22.248   3.840
49171W        W12730  42.982  43.470  14.443
49172W        W12731  43.772  32.944   2.718
49173W        W12732  28.627  16.281  11.390
49174W        W12733   2.238  39.935   9.965
49175W        W12734  11.214   5.903  13.802
49176W        W12735  14.238  21.030   0.267
49177W        W12736  39.524  41.988  14.505
49178W        W12737  16.622  30.065   4.599
49179W        W12738  28.653  41.306  11.073
49180W        W12739  33.590  41.450   0.363
49181W        W12740   0.788  17.732  14.288
49182W        W12741  16.748  26.163   1.821
49183W        W12742  23.113  44.872   0.926
49184W        W12743  26.178   8.278  14.503
49185W        W12744  18.652  34.472   2.372
49186W        W12745  30.082  21.608   4.688
49187W        W12746  25.622  26.583   2.764
49188W        W12747  29.042  33.882   1.310
49189W        W12748  11.127  21.525   3.754
49190W        W12749  35.586  34.947   4.778
49191W        W12750  16.796  35.362   4.660
49192W        W12751  19.217  12.674   3.657
49193W        W12752  29.994  27.446   4.242
49194W        W12753  43.988  44.762  14.410
49195W        W12754  43.909  38.943   0.787
49196W        W12755  14.208   6.751  12.532
49197W        W12756  16.316   1.463   4.653
49198W        W12757  31.583  23.712   2.822
49199W        W12758  34.375  29.084  11.594
49200W        W12759   8.865  11.838   1.855
49201W        W12760  21.708  27.180   1.903
49202W        W12761   5.371   8.806   1.331
49203W        W12762  42.517  30.595  13.913
49204W        W12763  32.931  16.073  13.309
49205W        W12764  25.673   0.459  11.380
49206W        W12765  41.427  35.966  10.405
49207W        W12766  34.953  43.820   0.432
49208W        W12767   1.296   9.304   1.765
49209W        W12768  36.894  31.055   0.249
49210W        W12769  36.058  20.237   2.856
49211W        W12770   5.200  27.522   1.830
49212W        W12771  36.005   5.401  13.046
49213W        W12772  41.301  22.066   2.754
49214W        W12773  44.388   0.955  13.311
49215W        W12774  27.465  18.164   1.738
49216W        W12775   4.388   1.739   1.807
49217W        W12776  10.735  42.421  12.855
49218W        W12777  21.112   4.701   0.880
49219W        W12778  27.133  19.625  13.373
49220W        W12779  35.921  19.138  14.380
49221W        W12780  30.480  35.993  14.841
49222W        W12781  43.270  16.100   4.609
49223W        W12782   6.316  25.684   4.817
49224W        W12783  20.767  32.139  13.847
49225W        W12784  21.184  18.643   0.451
49226W        W12785  40.405   7.746   1.779
49227W        W12786   3.877  34.088   2.252
49228W        W12787  29.662   2.858  14.374
49229W        W12788  22.086  37.371  14.921
49230W        W12789  21.120  34.564   1.429
49231W        W12790  42.906  24.564  14.955
49232W        W12791   2.364   4.931  12.489
49233W        W12792   1.817  14.623   3.261
49234W        W12793  38.437  15.729  12.417
49235W        W12794   4.302   7.417   4.668
49236W        W12795  24.117  21.070  10.534
49237W        W12796  27.667  21.724   2.852
49238W        W12797   4.747   8.782  12.367
49239W        W12798  15.770  20.263   3.751
49240W        W12799  44.835  29.926  11.455
49241W        W12800  31.927   0.284   1.257
49242W        W12801  11.147  24.076   1.336
49243W        W12802  28.559  11.788  10.456
49244W        W12803  36.573  21.071   4.720
49245W        W12804  15.717  43.456  10.973
49246W        W12805  33.061  41.342   0.289
49247W        W12806  19.257  34.497   1.838
49248W        W12807  41.963  37.369  12.474
49249W        W12808  12.136  32.463   1.433
49250W        W12809  17.560  22.576   2.312
49251W        W12810  28.446  35.567   1.802
49252W        W12811  14.249  23.532   1.441
49253W        W12812  34.489  21.236   4.197
49254W        W12813  18.683  23.219   3.358
49255W        W12814   7.285  15.698   0.856
49256W        W12815  20.141   9.354  11.040
49257W        W12816  27.038   8.866  13.543
49258W        W12817  41.410  30.117  11.518
49259W        W12818  33.426  24.020  11.561
49260W        W12819   5.781   1.813  10.601
49261W        W12820  24.578  18.597  11.905
49262W        W12821   7.321  10.794  13.411
49263W        W12822  27.089  39.331   4.167
49264W        W12823  15.620   0.773  10.472
49265W        W12824  27.010   9.774  14.447
49266W        W12825  20.233   1.745  14.867
49267W        W12826  16.317  31.519  12.479
49268W        W12827  33.001  36.435  14.030
49269W        W12828  28.078  32.142   3.216
49270W        W12829  32.463  42.315   5.806
49271W        W12830   2.259   8.292  14.810
49272W        W12831  34.024  10.758   1.439
49273W        W12832  10.816  37.477   1.430
49274W        W12833  34.400  40.018  14.955
49275W        W12834  35.478   4.920  11.589
49276W        W12835  16.623   0.331  11.908
49277W        W12836  16.797  23.042   3.307
49278W        W12837  41.454  16.295  11.552
49279W        W12838  10.781  35.391   2.797
49280W        W12839  18.202  29.482   2.778
49281W        W12840  16.789  23.076  12.932
49282W        W12841  33.129   3.788  14.437
49283W        W12842  30.070   7.209   3.361
49284W        W12843  27.583  44.410   1.885
49285W        W12844  33.015  11.344  13.935
49286W        W12845  20.159   2.226  11.013
49287W        W12846   9.237  25.035   1.778
49288W        W12847  25.028   3.937   1.449
49289W        W12848   0.370  14.281  12.552
49290W        W12849  43.365  28.511   1.815
49291W        W12850  40.848  19.119   1.883
49292W        W12851  22.651  36.564   3.704
49293W        W12852  40.406   1.439   1.329
49294W        W12853  13.676   1.465   0.849
49295W        W12854  13.237  28.560  13.817
49296W        W12855  38.023  15.711  11.471
49297W        W12856  20.028  40.403   2.245
49298W        W12857  30.520  24.012   4.136
49299W        W12858  41.978  34.539   2.825
49300W        W12859  40.379   0.380   2.675
49301W        W12860  17.564  32.635  12.965
49302W        W12861   6.216  14.278  14.312
49303W        W12862  21.704  37.955  11.104
49304W        W12863  21.030  28.669   5.666
49305W        W12864  16.570   5.933   2.817
49306W        W12865  44.893   6.818  10.626
49307W        W12866  19.078  26.052   1.827
49308W        W12867  28.665  21.025  12.557
49309W        W12868   6.356  17.248  11.934
49310W        W12869  40.418   2.830   0.890
49311W        W12870  11.253  38.535  12.075
49312W        W12871  33.876   8.203   4.219
49313W        W12872  39.011  12.312   0.939
49314W        W12873   0.875  17.712   4.309
49315W        W12874  34.026  39.538  11.030
49316W        W12875   2.797  13.653  14.460
49317W        W12876  31.086  13.685   0.376
49318W        W12877  29.485  40.043  12.528
49319W        W12878  18.098  21.198  10.951
49320W        W12879  37.087  17.137  14.769
49321W        W12880   3.941  10.802   3.694
49322W        W12881  33.440  14.316  13.892
49323W        W12882   1.879  35.566  14.457
49324W        W12883  37.036   6.907   4.354
49325W        W12884  37.373  30.459  12.378
49326W        W12885  28.441  28.082  11.562
49327W        W12886   3.888   6.739   1.284
49328W        W12887  28.041   3.880   3.747
49329W        W12888  28.669   1.331  10.526
49330W        W12889  37.546  25.575  13.413
49331W        W12890  11.371  18.156  12.379
49332W        W12891  11.132  23.590   3.686
49333W        W12892   6.187   8.855  13.824
49334W        W12893  22.159  43.935   1.436
49335W        W12894  20.052  22.640  13.474
49336W        W12895  10.169  26.495  14.445
49337W        W12896  38.871  41.346  12.485
49338W        W12897  21.220  16.183  11.605
49339W        W12898  11.802  42.882   1.271
49340W        W12899  32.624  18.600  11.856
49341W        W12900  42.820  39.051  11.547
49342W        W12901   5.859  12.661   2.855
49343W        W12902   4.738   1.363  12.351
49344W        W12903  17.216   0.801  14.285
49345W        W12904  21.054  41.886  12.828
49346W        W12905  23.665  16.723   1.247
49347W        W12906  43.512  35.362   3.676
49348W        W12907  15.799  16.299   2.712
49349W        W12908  24.538   5.402   3.796
49350W        W12909  36.891  25.582   2.308
49351W        W12910  21.719  10.849   0.864
49352W        W12911  35.049   6.817  14.458
49353W        W12912   5.278  12.141   2.199
49354W        W12913   7.197  28.053  14.451
49355W        W12914   2.735  41.827   0.266
49356W        W12915   9.723  17.683  11.512
49357W        W12916  17.766  33.114  10.504
49358W        W12917   2.460  44.310  13.864
49359W        W12918  15.728  34.060  14.012
49360W        W12919  19.131   3.780  13.886
49361W        W12920   2.786  34.881  13.858
49362W        W12921  27.485  22.518  11.493
49363W        W12922  34.984  29.947  11.987
49364W        W12923  23.604  22.598   1.862
49365W        W12924  14.749  40.811  14.881
49366W        W12925  35.384  32.071   3.824
49367W        W12926  38.526  41.856  13.056
49368W        W12927  33.508   6.300  10.472
49369W        W12928  19.198  40.009   0.289
49370W        W12929  25.968   2.781   1.262
49371W        W12930  35.097  39.476  14.285
49372W        W12931  36.525  37.575  10.112
49373W        W12932  39.959  20.615   2.778
49374W        W12933  10.822   5.762   4.254
49375W        W12934  28.098  44.952  10.499
49376W        W12935  34.968  14.275  10.153
49377W        W12936  34.916  23.019   2.836
49378W        W12937  12.224  12.679  11.004
49379W        W12938  25.128  33.905   3.837
49380W        W12939   4.440  14.645  14.817
49381W        W12940  28.677  36.578   4.778
49382W        W12941  11.640   9.383   1.351
49383W        W12942  10.154  15.239   0.851
49384W        W12943   1.858  40.819   3.367
49385W        W12944  18.751  12.680   4.134
49386W        W12945  15.748   0.914   1.858
49387W        W12946  10.270  23.650   2.294
49388W        W12947  41.334  28.616  12.885
49389W        W12948   9.150  22.711   4.274
49390W        W12949  14.119  23.619   4.234
49391W        W12950  11.868  21.559   4.122
49392W        W12951  19.063  37.041  13.884
49393W        W12952  10.670  13.181   1.233
49394W        W12953   5.777  12.173  14.970
49395W        W12954  30.926  10.332   2.294
49396W        W12955   2.249   6.844   4.261
49397W        W12956  19.573  36.010  10.519
49398W        W12957   0.346  33.404   2.258
49399W        W12958  42.974  30.440  11.901
49400W        W12959  11.684  15.302   2.813
49401W        W12960  17.296  15.728   2.662
49402W        W12961  14.312  12.304   3.786
49403W        W12962  36.986  23.640  14.283
49404W        W12963  29.477   1.330  11.067
49405W        W12964  24.496  15.791   0.414
49406W        W12965   0.351  36.404   0.834
49407W        W12966  36.949  19.723  13.837
49408W        W12967  40.935  13.140   1.270
49409W        W12968  18.152  30.934  12.490
49410W        W12969  39.997  16.073  10.894
49411W        W12970  42.910  17.212  14.937
49412W        W12971   0.864  22.562  10.610
49413W        W12972  42.030  38.502  14.852
49414W        W12973   2.913  31.041  14.454
49415W        W12974  24.535  38.847   4.327
49416W        W12975  11.777   7.273   5.230
49417W        W12976  43.986  17.200  10.415
49418W        W12977  26.658   3.272  14.807
49419W        W12978  36.475  29.547   2.866
49420W        W12979  33.965  20.206  11.506
49421W        W12980  13.664  16.709  10.604
49422W        W12981   5.703   6.859   2.359
49423W        W12982  31.111   6.222   4.687
49424W        W12983  20.543  20.693   3.743
49425W        W12984  32.014  25.098  11.569
49426W        W12985  39.934  19.662  14.780
49427W        W12986  38.369  34.391  12.873
49428W        W12987  11.647  30.475  12.849
49429W        W12988  19.253  42.928  11.862
49430W        W12989   5.302   2.960   3.818
49431W        W12990   0.981   1.883  14.769
49432W        W12991   4.386  44.784   2.377
49433W        W12992   3.834   0.366   3.248
49434W        W12993   0.887  24.138   2.179
49435W        W12994  42.855  39.369   0.451
49436W        W12995   6.418  17.637   0.920
49437W        W12996  22.608  20.696  10.408
49438W        W12997  27.048  44.381  14.514
49439W        W12998   6.818  20.620  11.494
49440W        W12999  38.340  14.179   3.718
49441W        W13000  42.372  18.573  12.550
49442W        W13001  23.175  22.587   4.306
49443W        W13002   2.924  29.947   2.705
49444W        W13003  37.842  36.031   2.354
49445W        W13004  42.981   2.872   4.173
49446W        W13005  10.248  33.972   2.273
49447W        W13006  13.828   8.900   1.320
49448W        W13007  44.352  40.880   1.803
49449W        W13008   5.385  41.516   3.384
49450W        W13009  23.094  30.976  13.527
49451W        W13010  38.468  21.728  12.943
49452W        W13011  41.994  10.659   0.830
49453W        W13012  35.892   1.326  13.026
49454W        W13013  20.137  33.532  13.371
49455W        W13014  26.661  42.483   0.789
49456W        W13015  30.646  29.536   2.698
49457W        W13016  44.811  11.736   2.849
49458W        W13017  33.901  17.177   1.429
49459W        W13018  37.083  22.672   3.349
49460W        W13019  34.970  14.590   2.293
49461W        W13020  14.117  20.555  13.008
49462W        W13021   3.823  14.271  13.796
49463W        W13022  19.626  20.764   2.263
49464W        W13023   4.313   0.395  10.890
49465W        W13024  10.331  15.244   4.323
49466W        W13025  23.204  24.991   3.709
49467W        W13026  31.979  14.141   4.267
49468W        W13027  38.996   5.221   1.269
49469W        W13028  20.688  36.564   4.183
49470W        W13029  19.106  27.963   3.378
49471W        W13030  28.554  42.944  12.967
49472W        W13031  25.073   1.321  11.102
49473W        W13032  22.668  41.394   2.277
49474W        W13033   6.827  28.496  12.017
49475W        W13034  43.993  12.818  14.987
49476W        W13035  31.423  13.729  11.480
49477W        W13036  43.316  13.245  11.556
49478W        W13037   2.245  22.581   4.695
49479W        W13038  13.791   9.884   2.753
49480W        W13039  24.697  36.391   0.418
49481W        W13040   2.940  22.008  14.337
49482W        W13041  15.613  29.965   4.818
49483W        W13042  27.652  28.665   0.968
49484W        W13043  41.031  33.620   2.770
49485W        W13044   1.873  44.955  12.477
49486W        W13045  15.140  28.525  11.120
49487W        W13046   9.253  23.179   0.365
49488W        W13047  41.473  21.696  13.325
49489W        W13048  31.950  24.152   0.261
49490W        W13049  32.915  17.300   0.292
49491W        W13050   0.854  15.742  12.054
49492W        W13051  33.417  21.642  13.356
49493W        W13052  15.227  37.939   0.764
49494W        W13053   8.899  13.628   3.633
49495W        W13054  18.711  40.888  10.445
49496W        W13055  43.344  13.293  13.843
49497W        W13056  10.182   4.259   0.411
49498W        W13057  41.893  35.553  10.608
49499W        W13058   2.723   4.860   1.751
49500W        W13059   5.734  20.633   2.284
49501W        W13060   4.394   4.442   2.774
49502W        W13061  26.527  30.137   3.754
49503W        W13062  20.196  36.928   4.725
49504W        W13063  33.896  40.332  10.519
49505W        W13064   9.729  24.222   3.819
49506W        W13065  15.197  25.568  12.046
49507W        W13066  44.290  43.885   4.795
49508W        W13067  37.986  21.190  14.959
49509W        W13068  42.958  43.836  11.489
49510W        W13069  10.150  34.540   0.900
49511W        W13070  24.495   5.788  10.643
49512W        W13071   7.312  19.263   0.481
49513W        W13072  44.346   3.718   3.803
49514W        W13073  44.816   3.453   1.820
49515W        W13074  35.081   2.459   1.287
49516W        W13075  33.100   7.789  10.560
49517W        W13076   2.866  19.099  14.421
49518W        W13077  20.751  37.043   1.897
49519W        W13078   1.265   3.793   3.716
49520W        W13079  24.217  16.145   0.777
49521W        W13080  37.838  10.325   0.245
49522W        W13081   1.293  44.393  11.612
49523W        W13082  18.626  21.232   3.741
49524W        W13083  27.671  28.097  13.338
49525W        W13084   4.238  29.444  11.576
49526W        W13085  39.510  34.038  14.808
49527W        W13086  25.213  34.098  12.023
49528W        W13087  39.472  43.391  12.970
49529W        W13088  23.498  42.813   0.381
49530W        W13089  33.411   4.285   0.417
49531W        W13090  36.957   7.238   2.387
49532W        W13091  29.062  30.052   3.642
49533W        W13092   4.290  35.594   0.391
49534W        W13093  30.559  11.629   2.204
49535W        W13094  10.696   6.813   1.362
49536W        W13095  27.064  10.841   3.839
49537W        W13096  14.122  22.095   4.644
49538W        W13097  30.957  33.096  12.470
49539W        W13098   9.395  37.495   5.139
49540W        W13099  16.123   6.400  10.114
49541W        W13100   1.433  25.159   1.836
49542W        W13101  14.130  12.187   4.318
49543W        W13102  33.411  33.877  13.791
49544W        W13103  14.814  10.868  14.801
49545W        W13104  32.067  20.554   1.909
49546W        W13105  40.401  11.672   4.222
49547W        W13106  10.828  21.091   4.348
49548W        W13107   1.865  23.103   0.857
49549W        W13108  33.527  21.659  14.463
49550W        W13109  11.154  23.631  14.456
49551W        W13110  35.382  36.081   4.193
49552W        W13111  22.242  36.349   3.672
49553W        W13112  37.342  21.681   1.870
49554W        W13113   8.705  29.149   1.848
49555W        W13114  43.470   3.909  11.896
49556W        W13115   5.855  13.710   4.217
49557W        W13116  36.036  40.364  10.587
49558W        W13117  14.808  34.577  13.537
49559W        W13118  12.686  31.592  13.434
49560W        W13119   4.775  41.470   1.804
49561W        W13120  11.720  29.610   4.186
49562W        W13121   9.830  42.489   3.256
49563W        W13122   4.818  39.892   1.838
49564W        W13123  28.454  13.697   0.301
49565W        W13124  43.017   9.201   4.724
49566W        W13125  38.858  21.036   2.329
49567W        W13126  10.210  41.957  14.410
49568W        W13127   0.297  12.686  12.374
49569W        W13128  21.581  16.619   2.717
49570W        W13129  19.217   4.307   2.225
49571W        W13130   3.346   6.395   5.224
49572W        W13131  12.317  18.675   4.211
49573W        W13132  34.378  11.130   5.755
49574W        W13133  31.959  11.656  12.969
49575W        W13134  20.561  41.392  11.863
49576W        W13135  12.249  37.582   3.819
49577W        W13136  25.500  40.015   2.886
49578W        W13137  33.962  14.717   3.861
49579W        W13138  40.977  16.246   0.878
49580W        W13139   2.417  15.199   4.196
49581W        W13140  14.162  34.889  13.831
49582W        W13141  10.190  41.430  10.615
49583W        W13142  38.034  19.180  11.507
49584W        W13143  14.730  25.028  11.048
49585W        W13144  25.091  30.125  13.357
49586W        W13145  36.987   9.316  12.961
49587W        W13146  43.460   1.808  14.828
49588W        W13147  44.334  41.822  12.057
49589W        W13148   7.794  43.020   3.273
49590W        W13149  14.714  19.735   4.805
49591W        W13150   7.242  38.927   3.824
49592W        W13151  34.532  23.698  14.364
49593W        W13152  41.838  32.025  13.334
49594W        W13153   1.929  14.754  13.428
49595W        W13154  40.848  12.847   3.814
49596W        W13155  16.776   8.169  10.561
49597W        W13156  44.271   3.876   1.767
49598W        W13157   3.783  32.993  13.427
49599W        W13158   8.776  15.156  11.476
49600W        W13159  27.555   1.768   0.271
49601W        W13160   7.910  12.182  14.901
49602W        W13161  36.898  33.536  11.454
49603W        W13162  22.505  35.982   0.403
49604W        W13163  26.571  19.578  12.553
49605W        W13164  22.742  31.445  11.949
49606W        W13165  41.863  32.069   3.823
49607W        W13166  28.438   9.735   1.306
49608W        W13167  38.014   0.248   4.655
49609W        W13168  16.185  39.535   2.180
49610W        W13169   3.901  28.997  11.099
49611W        W13170  27.655   6.703  13.047
49612W        W13171  43.970  10.667   1.268
49613W        W13172  13.346  32.141   1.877
49614W        W13173  39.856   6.684  11.042
49615W        W13174  24.514  41.868  14.485
49616W        W13175  38.433  15.700   3.302
49617W        W13176  12.144  28.074  11.060
49618W        W13177  27.191  13.783  12.344
49619W        W13178  12.724  43.999   4.818
49620W        W13179   5.859  38.352  10.499
49621W        W13180  24.709   1.954   4.347
49622W        W13181  23.684  12.345  11.039
49623W        W13182  15.777  38.517  14.843
49624W        W13183  20.230  43.836  11.490
49625W        W13184  19.084  28.679  10.442
49626W        W13185  28.562   4.239   1.344
49627W        W13186  38.979  18.126  14.320
49628W        W13187  15.096  12.810  13.890
49629W        W13188   5.705  24.594  10.630
49630W        W13189  27.948  23.059   2.663
49631W        W13190  43.392   9.760  13.897
49632W        W13191  18.758  31.579   1.787
49633W        W13192  27.191  38.045   4.201
49634W        W13193  37.069  43.814  14.950
49635W        W13194  13.230   2.415  12.519
49636W        W13195  44.937  28.119  10.405
49637W        W13196   2.263   9.188   3.254
49638W        W13197  18.621  23.005  10.505
49639W        W13198  44.380  30.933   2.743
49640W        W13199  31.515  15.681   3.687
49641W        W13200   8.320  28.090  14.867
49642W        W13201   5.809  42.429  12.912
49643W        W13202  13.705  31.594   0.760
49644W        W13203  33.072  17.261  11.880
49645W        W13204   8.732  27.586   1.880
49646W        W13205   8.401  17.587   3.751
49647W        W13206  22.135   2.290   3.167
49648W        W13207  20.617  42.349  12.063
49649W        W13208  38.069  28.138  13.451
49650W        W13209  27.672  44.837   1.270
49651W        W13210  20.547  21.262  14.304
49652W        W13211   0.861  44.914  11.113
49653W        W13212   5.330   4.916   9.998
49654W        W13213  30.445   7.909   0.412
49655W        W13214  12.752   7.272  11.484
49656W        W13215  24.645  31.082   1.304
49657W        W13216  40.325  40.329   0.844
49658W        W13217  39.012  27.142  14.464
49659W        W13218  33.115  19.617  12.508
49660W        W13219  18.064  11.632   0.314
49661W        W13220  24.218  11.802   9.622
49662W        W13221  21.530  43.989  12.855
49663W        W13222   8.698  33.390  14.867
49664W        W13223  17.664  33.000  11.903
49665W        W13224  26.621  37.564   0.422
49666W        W13225  31.057  39.910   3.792
49667W        W13226  31.924  22.607   0.867
49668W        W13227  31.404  14.285   1.251
49669W        W13228  34.024  44.408  13.896
49670W        W13229  14.645  25.501   1.749
49671W        W13230  23.015  24.605   0.392
49672W        W13231  22.064  33.459  14.779
49673W        W13232  35.397  33.591  13.945
49674W        W13233  17.609  28.476   0.317
49675W        W13234   7.176  23.032  14.872
49676W        W13235  27.087  29.429  10.916
49677W        W13236  22.739  33.447   1.416
49678W        W13237  12.621  36.417   3.663
49679W        W13238  18.750  17.603   4.711
49680W        W13239  13.176  41.800   4.640
49681W        W13240  39.886   6.895   0.761
49682W        W13241  31.146  34.592   3.655
49683W        W13242   0.933   3.275   0.781
49684W        W13243  35.108  16.227  12.839
49685W        W13244  17.065  15.773   4.232
49686W        W13245  27.613  21.512   4.120
49687W        W13246  34.117  38.358  11.410
49688W        W13247  19.198   1.767   1.704
49689W        W13248  33.592   3.402   0.428
49690W        W13249  30.098   8.356   3.218
49691W        W13250   3.921  35.457  12.437
49692W        W13251  22.542  13.181   0.730
49693W        W13252  44.791  35.532   1.411
49694W        W13253  36.514   6.265   4.679
49695W        W13254   1.953   4.316   4.691
49696W        W13255   6.348  10.296  12.504
49697W        W13256  17.795  14.112   4.768
49698W        W13257  40.016  42.397  13.843
49699W        W13258  21.144  15.099   1.789
49700W        W13259  33.514  43.447  11.376
49701W        W13260  32.095  25.697   2.733
49702W        W13261  40.473  30.590   2.685
49703W        W13262   8.399  13.675   0.311
49704W        W13263  30.114  18.177  13.356
49705W        W13264  25.647  19.657  12.082
49706W        W13265  41.376   0.326   4.264
49707W        W13266  28.630  38.462  10.507
49708W        W13267  20.191   9.714  13.981
49709W        W13268   4.235  31.115  13.974
49710W        W13269  34.400   2.916   1.329
49711W        W13270  39.861  21.712   0.915
49712W        W13271  14.730  37.952  12.986
49713W        W13272  12.293  11.645  10.456
49714W        W13273  22.706  12.252   1.838
49715W        W13274  27.678   1.888   1.731
49716W        W13275  38.525   0.925   4.124
49717W        W13276  30.148   6.877   1.760
49718W        W13277  21.614  21.199   1.748
49719W        W13278   4.317  21.023   4.714
49720W        W13279   0.821   4.769  14.308
49721W        W13280  15.232  34.904   1.822
49722W        W13281   4.302   8.794  14.453
49723W        W13282  42.340  35.043  14.470
49724W        W13283   6.377  35.019   3.377
49725W        W13284  31.556  12.354  13.490
49726W        W13285  22.736  44.990  10.561
49727W        W13286  18.191  41.804   3.266
49728W        W13287  21.552   0.942  12.438
49729W        W13288  20.124  36.573   0.764
49730W        W13289  24.044  39.885   2.797
49731W        W13290  39.818  27.638  11.937
49732W        W13291  18.181  22.510   1.787
49733W        W13292   0.285  42.944   4.321
49734W        W13293   6.381  39.057   2.731
49735W        W13294   0.887  12.774  13.034
49736W        W13295  32.537   5.800   1.384
49737W        W13296   1.464   1.886   0.847
49738W        W13297  43.362  28.639  10.980
49739W        W13298  37.398  17.698  13.887
49740W        W13299  34.000  30.056  13.491
49741W        W13300  30.024  35.104   2.668
49742W        W13301   7.877  16.100   3.792
49743W        W13302  19.762  42.998   1.851
49744W        W13303   2.796  34.902  12.857
49745W        W13304  34.019  22.246  14.002
49746W        W13305  43.294  31.438   1.245
49747W        W13306  10.745   8.756   4.202
49748W        W13307   3.771  31.959  14.513
49749W        W13308  25.100  26.565  13.502
49750W        W13309  32.123  22.570   5.190
49751W        W13310  14.198  20.057  13.022
49752W        W13311   7.379  31.613   3.307
49753W        W13312  32.901  21.665  10.907
49754W        W13313  41.816  25.110  13.391
49755W        W13314  41.015  28.668  14.858
49756W        W13315   8.290  25.212  14.847
49757W        W13316   0.265  17.629  10.541
49758W        W13317   8.664  38.377   2.364
49759W        W13318  41.002  18.731  14.872
49760W        W13319  39.352  25.616  11.873
49761W        W13320  37.555   6.261   0.882
49762W        W13321   1.290  36.367   0.358
49763W        W13322  36.906  37.902  12.546
49764W        W13323  35.380  29.637   0.324
49765W        W13324  19.104  42.955  13.384
49766W        W13325  19.199  42.827   1.847
49767W        W13326  15.296  26.090   1.798
49768W        W13327  34.477  13.706  12.424
49769W        W13328   6.299  13.172  12.341
49770W        W13329  25.582   1.847   1.900
49771W        W13330  25.640  14.752  11.115
49772W        W13331  44.271  34.414  11.590
49773W        W13332  33.585  37.339   5.181
49774W        W13333  22.228  23.714   2.692
49775W        W13334  20.205  27.477  13.042
49776W        W13335  31.421   2.907  12.845
49777W        W13336  10.140  44.910   4.287
49778W        W13337   7.816  16.241  12.454
49779W        W13338  10.321   5.374   1.366
49780W        W13339  36.869   1.277   3.803
49781W        W13340   9.149  32.985   3.206
49782W        W13341  31.584  39.037  10.096
49783W        W13342  14.744  38.938  13.839
49784W        W13343  44.881  35.911   0.861
49785W        W13344  10.216  33.552  13.794
49786W        W13345   3.889  34.007  14.395
49787W        W13346  40.549   9.202  14.366
49788W        W13347   6.888   0.905  12.004
49789W        W13348  43.459  26.996   0.885
49790W        W13349  13.161   1.748  12.978
49791W        W13350  29.548  41.930   2.676
49792W        W13351  41.904  24.632   2.892
49793W        W13352  16.075   8.189   9.957
49794W        W13353   7.392   0.466  11.459
49795W        W13354  44.345  42.800   4.681
49796W        W13355  22.529  37.078  13.965
49797W        W13356   7.189  21.063   3.284
49798W        W13357  35.399   8.746   4.292
49799W        W13358  23.522  16.700  11.511
49800W        W13359   2.812  37.478   4.289
49801W        W13360  19.592  35.901  13.479
49802W        W13361  40.880  30.561   2.391
49803W        W13362  41.880  11.824   2.224
49804W        W13363  11.187  23.046   9.951
49805W        W13364  44.413  17.163  14.918
49806W        W13365  23.521  11.796  14.434
49807W        W13366  20.047  24.084   2.705
49808W        W13367  40.004  22.084   4.626
49809W        W13368   9.264  29.050  14.825
49810W        W13369  35.984  38.067  14.815
49811W        W13370  26.460   0.793   2.675
49812W        W13371  33.598   5.242  14.277
49813W        W13372  24.979  43.916   1.827
49814W        W13373  44.776  44.450  14.914
49815W        W13374  15.743  34.863   0.371
49816W        W13375  43.948  15.681   3.336
49817W        W13376  39.958   9.159   3.185
49818W        W13377   0.467  32.970  13.915
49819W        W13378  37.954   9.811   1.417
49820W        W13379   6.359  30.948  14.861
49821W        W13380  18.637  33.017   1.702
49822W        W13381  37.901  41.397   3.670
49823W        W13382  30.448  12.155  11.447
49824W        W13383  12.189   8.173   3.189
49825W        W13384  41.937  16.102  12.431
49826W        W13385   3.301  16.790  13.983
49827W        W13386  24.176  17.203  10.099
49828W        W13387  31.579  35.944  14.908
49829W        W13388   1.880  10.642   0.248
49830W        W13389  32.504  35.531  12.470
49831W        W13390   9.258   2.283   1.370
49832W        W13391  43.301  27.996  10.987
49833W        W13392   7.890  33.420   4.761
49834W        W13393  23.528   8.399  10.890
49835W        W13394  41.877   8.889  12.343
49836W        W13395   1.311  24.680  11.578
49837W        W13396   4.830  36.369  10.977
49838W        W13397  25.002   8.876  14.357
49839W        W13398  16.721  43.828   3.716
49840W        W13399  31.574  22.598  10.477
49841W        W13400  40.393  26.625  14.962
49842W        W13401  35.460  24.479   0.947
49843W        W13402  41.400  14.251   1.268
49844W        W13403   3.427  14.603   4.271
49845W        W13404  10.267   9.243  11.855
49846W        W13405   0.480  24.510  10.592
49847W        W13406  16.576  19.615  12.564
49848W        W13407   2.270  42.345   1.283
49849W        W13408  42.891  23.669   2.717
49850W        W13409  18.123   2.243  10.947
49851W        W13410  13.747  16.651   1.892
49852W        W13411   8.304  19.615  10.474
49853W        W13412  12.741  28.158  13.510
49854W        W13413  27.665  43.958  13.447
49855W        W13414  22.742  22.728  10.912
49856W        W13415  16.789   4.940   4.149
49857W        W13416  40.855   5.789  14.442
49858W        W13417  27.124  20.123   2.719
49859W        W13418  37.905  43.298  14.281
49860W        W13419  12.324  40.341  12.007
49861W        W13420  28.561  26.979  12.975
49862W        W13421  44.909  34.463  14.279
49863W        W13422  39.548  24.005  11.887
49864W        W13423  13.261   5.813  13.865
49865W        W13424  23.557  42.284  14.947
49866W        W13425   0.348  16.758  13.491
49867W        W13426  13.608   0.787   0.275
49868W        W13427  37.356  12.665  10.551
49869W        W13428   2.823  38.964   3.192
49870W        W13429  16.092  20.175  10.611
49871W        W13430  29.971  24.145   2.228
49872W        W13431   1.252  36.879  12.072
49873W        W13432   6.754  25.664  12.434
49874W        W13433   7.700  17.688  11.856
49875W        W13434  26.504  36.427   2.193
49876W        W13435  24.144  30.429   5.300
49877W        W13436  13.105  39.373   4.665
49878W        W13437  42.948  27.143   2.727
49879W        W13438  44.884  28.502   2.800
49880W        W13439   2.250  14.196  13.311
49881W        W13440  41.930  27.631  12.358
49882W        W13441  37.373  27.047  13.535
49883W        W13442   8.304  36.048   3.863
49884W        W13443  17.772  36.988   1.768
49885W        W13444  14.657  20.249   0.846
49886W        W13445  19.582  41.921   4.698
49887W        W13446  43.300  35.468  14.916
49888W        W13447  10.355   6.416   3.715
49889W        W13448   9.319  17.098  13.413
49890W        W13449  30.552  26.665  14.861
49891W        W13450  17.204  37.882   4.614
49892W        W13451   6.225  30.460  14.303
49893W        W13452  40.463  34.525   1.430
49894W        W13453  11.200  25.023   0.447
49895W        W13454  28.507  24.715  10.919
49896W        W13455  42.863  20.564   3.815
49897W        W13456  28.030  44.462   1.287
49898W        W13457   9.357  11.236  11.031
49899W        W13458   9.208  29.540   0.295
49900W        W13459  16.579   8.871  11.605
49901W        W13460   0.959   7.896  13.864
49902W        W13461  20.646  37.055  14.320
49903W        W13462  35.477  44.503  10.508
49904W        W13463  30.494  28.086   1.855
49905W        W13464   7.829  26.672   4.699
49906W        W13465  15.250  27.539  10.933
49907W        W13466  36.450   4.367  11.544
49908W        W13467  15.310   0.912   0.808
49909W        W13468  37.570  40.850  13.959
49910W        W13469  33.966   4.413  11.373
49911W        W13470  34.964   6.742  11.527
49912W        W13471   0.249  31.965  14.983
49913W        W13472  29.129  39.064  12.003
49914W        W13473  44.918  29.039  11.887
49915W        W13474  17.715  20.152  14.812
49916W        W13475  25.973   2.345  14.513
49917W        W13476  39.499  14.151   0.457
49918W        W13477  38.986  12.855  10.032
49919W        W13478  20.713   4.405   2.326
49920W        W13479  37.458  34.997  11.384
49921W        W13480  35.589  35.471  11.067
49922W        W13481  42.826  36.391   3.183
49923W        W13482  21.753  14.324   4.757
49924W        W13483  44.334  14.725  14.924
49925W        W13484  16.673  41.528  13.859
49926W        W13485  17.096  34.067   2.320
49927W        W13486  28.140   7.749  12.055
49928W        W13487  39.940  11.371  13.894
49929W        W13488  21.215  26.552  10.923
49930W        W13489  19.617  24.115  11.607
49931W        W13490   4.448  44.783   2.743
49932W        W13491  17.288  13.222  10.608
49933W        W13492  15.142  11.204  11.415
49934W        W13493  44.817  41.871  10.993
49935W        W13494  14.724   1.843   1.443
49936W        W13495   3.413  32.602   4.216
49937W        W13496  31.006  24.557  10.964
49938W        W13497  21.605  36.369   1.430
49939W        W13498  27.143  44.988   4.149
49940W        W13499  34.440  34.917  14.915
49941W        W13500  13.611  20.596   0.826
49942W        W13501  44.450  31.595   4.807
49943W        W13502  33.381   6.357   3.634
49944W        W13503  24.022  19.698  13.537
49945W        W13504  42.490  38.850   0.917
49946W        W13505  18.246  30.977  12.987
49947W        W13506  38.373  19.249  13.863
49948W        W13507  42.510  19.552   4.711
49949W        W13508   4.296  10.350   0.453
49950W        W13509  12.831  19.567  13.838
49951W        W13510  17.712  11.813  12.833
49952W        W13511  35.371  29.929  14.865
49953W        W13512  32.052   4.717   3.265
49954W        W13513  35.020  23.062   3.715
49955W        W13514  21.680  21.155   1.317
49956W        W13515   3.421  26.104   4.617
49957W        W13516   1.346  31.403   2.874
49958W        W13517  42.844  32.595  13.885
49959W        W13518  17.566  33.562   0.955
49960W        W13519   8.356   9.841  10.514
49961W        W13520  39.839  10.860  10.439
49962W        W13521  24.680  12.761  12.975
49963W        W13522  30.434  26.070   4.733
49964W        W13523  35.093  29.577   2.675
49965W        W13524  30.478   2.795  13.512
49966W        W13525  22.247  43.416   1.754
49967W        W13526  30.083   5.431   3.649
49968W        W13527  39.452   4.274  11.550
49969W        W13528   9.715   2.736  13.517
49970W        W13529  26.151  27.996  12.951
49971W        W13530  17.112  26.124  10.492
49972W        W13531   9.825  35.557  10.037
49973W        W13532  33.459  18.766   1.871
49974W        W13533  36.467  23.137  11.124
49975W        W13534  29.035  30.964   4.288
49976W        W13535  21.186  38.921  12.564
49977W        W13536  34.585  33.608  12.039
49978W        W13537   0.902  20.762   4.319
49979W        W13538  18.212  40.447  12.502
49980W        W13539  28.507  21.564   2.833
49981W        W13540   2.905  21.144   0.447
49982W        W13541  31.561   1.343   4.114
49983W        W13542  10.870  44.331  12.091
49984W        W13543  14.689  16.198   4.740
49985W        W13544  43.387   9.201   0.408
49986W        W13545  21.531   4.889   3.667
49987W        W13546  38.855  30.487  13.408
49988W        W13547   2.928  20.036  12.974
49989W        W13548  29.443  32.004  10.014
49990W        W13549   1.255  40.928   0.280
49991W        W13550   3.734  40.493   3.215
49992W        W13551  15.584  18.162   2.233
49993W        W13552   4.827   3.789  14.504
49994W        W13553   9.673   6.355  13.879
49995W        W13554  41.029   3.765   1.407
49996W        W13555  14.336  14.821   3.286
49997W        W13556  33.611  31.948  14.393
49998W        W13557  10.747  36.441  11.038
49999W        W13558  43.953  29.122  14.954
50000W        W13559  37.921  15.299   1.752
50001W        W13560  37.004   4.434  14.407
50002W        W13561  20.685  37.349  13.428
50003W        W13562  34.423  30.420  12.455
50004W        W13563  35.391  21.085  11.101
50005W        W13564  34.116  29.069   1.446
50006W        W13565   9.681  35.478   1.239
50007W        W13566   8.681   6.813  11.430
50008W        W13567  44.430  11.274   9.966
50009W        W13568  32.418   4.764  11.022
50010W        W13569   4.390  24.723  11.588
50011W        W13570   0.856  12.230  12.043
50012W        W13571   7.405  21.065  12.059
50013W        W13572   3.712  20.665   3.693
50014W        W13573   6.412   9.264   2.896
50015W        W13574  37.531  30.641   3.210
50016W        W13575  34.979  25.579   2.371
50017W        W13576  28.642  21.083  10.146
50018W        W13577  32.410  14.185   4.664
50019W        W13578  41.861  36.044   1.728
50020W        W13579  15.224   3.926  10.523
50021W        W13580  41.929  17.575  14.439
50022W        W13581  23.630  26.615   2.763
50023W        W13582  21.633  25.032   2.250
50024W        W13583  29.663  23.063   0.251
50025W        W13584  38.870   6.332  10.975
50026W        W13585  13.772  18.724  13.347
50027W        W13586  39.321  35.480  11.452
50028W        W13587   1.919  37.898  12.052
50029W        W13588  20.654  41.471   1.264
50030W        W13589  40.834  37.996  13.835
50031W        W13590  18.123  32.027   0.903
50032W        W13591  42.893   4.722  10.955
50033W        W13592  41.395  14.110   3.298
50034W        W13593   0.893  11.140  14.340
50035W        W13594   1.883  43.274  12.399
50036W        W13595  39.450  36.922  12.064
50037W        W13596  37.913  41.319   2.898
50038W        W13597  31.492   5.283   1.387
50039W        W13598  32.886  35.939  12.462
50040W        W13599  21.218   0.880   2.675
50041W        W13600  13.185  36.922  10.543
50042W        W13601  29.007  23.025   1.699
50043W        W13602  41.006   1.912  13.926
50044W        W13603  20.274   7.769   1.761
50045W        W13604   4.856   4.759   9.976
50046W        W13605   2.393  34.100   4.282
50047W        W13606   3.286  17.283   0.903
50048W        W13607  36.556   1.380  10.980
50049W        W13608  41.926  39.979  11.977
50050W        W13609  23.109   4.764   2.841
50051W        W13610  34.941  39.336   1.721
50052W        W13611  37.480  32.444   2.191
50053W        W13612  33.108  13.711   2.751
50054W        W13613   2.341  14.683  12.857
50055W        W13614   7.853  40.350   1.374
50056W        W13615  35.387  13.737  12.091
50057W        W13616  21.256  19.694  13.840
50058W        W13617  12.340  16.662  13.976
50059W        W13618   6.694  40.345   3.658
50060W        W13619  15.212  10.223  11.894
50061W        W13620  42.441  14.653  10.588
50062W        W13621   5.870  31.909  13.330
50063W        W13622  42.430  31.916   2.712
50064W        W13623  30.078  32.485   3.308
50065W        W13624  34.398  31.422  12.465
50066W        W13625  35.484  42.945  12.041
50067W        W13626  26.567  39.028   5.204
50068W        W13627  11.785  41.461   1.871
50069W        W13628  18.726  42.820   3.310
50070W        W13629  40.053  15.203  11.486
50071W        W13630   7.222  23.091   3.222
50072W        W13631  19.279   0.947   4.118
50073W        W13632   1.456  19.751  11.924
50074W        W13633   3.395  10.376  10.013
50075W        W13634   2.751  18.783  13.001
50076W        W13635  23.557  39.552  14.025
50077W        W13636   8.886  26.632   3.750
50078W        W13637  13.217  18.724   2.402
50079W        W13638  19.205  39.370   3.290
50080W        W13639  35.876  39.400   1.326
50081W        W13640   0.851  28.956   2.746
50082W        W13641  30.577   9.277  11.381
50083W        W13642  15.181  37.473  10.620
50084W        W13643   1.776  11.679  12.378
50085W        W13644  21.028  17.217  11.004
50086W        W13645  27.607  20.739  12.835
50087W        W13646  34.592  20.243  12.349
50088W        W13647   4.245  42.991   3.832
50089W        W13648  29.648  42.966  11.063
50090W        W13649   7.369   6.249  14.508
50091W        W13650  11.329   2.893  11.551
50092W        W13651   4.775  18.211  14.514
50093W        W13652  22.212  44.300   3.633
50094W        W13653  41.855  15.097   2.378
50095W        W13654  19.064  33.991   0.733
50096W        W13655  15.622  37.458  10.900
50097W        W13656  41.861   7.413  12.062
50098W        W13657  43.980   9.697  10.617
50099W        W13658  40.888  11.711  14.762
50100W        W13659  22.515  12.255   4.209
50101W        W13660  20.747  44.990   3.788
50102W        W13661  11.699  43.506  13.908
50103W        W13662  14.785  43.808   1.259
50104W        W13663  31.557  29.962  12.383
50105W        W13664  11.286  23.686   1.729
50106W        W13665  21.745   7.259   5.219
50107W        W13666   5.934   3.871   2.343
50108W        W13667   0.258  15.671   2.397
50109W        W13668  13.293  33.918  12.921
50110W        W13669  33.436  39.383   4.338
50111W        W13670  15.600  23.664   9.652
50112W        W13671  30.523   4.336   3.180
50113W        W13672  33.530   6.807  14.350
50114W        W13673  33.483  44.955  14.332
50115W        W13674  27.157   9.373   2.668
50116W        W13675   2.240   6.752   1.858
50117W        W13676  36.001   8.269  13.350
50118W        W13677  33.049  34.468   0.346
50119W        W13678   8.265   3.352   3.355
50120W        W13679  10.641  38.449   0.778
50121W        W13680  33.475  17.679   2.782
50122W        W13681  43.954   6.706   3.301
50123W        W13682  31.988  10.671   4.191
50124W        W13683  39.985  39.021  12.415
50125W        W13684  27.551  39.906   1.933
50126W        W13685  23.097  24.620  12.048
50127W        W13686  14.779  37.914  14.406
50128W        W13687  31.047  13.753  11.962
50129W        W13688  10.185  42.407  13.388
50130W        W13689  15.143  27.141   4.826
50131W        W13690  26.637  27.979   1.705
50132W        W13691   0.483   1.757   0.480
50133W        W13692  26.985  33.072  14.364
50134W        W13693   6.759   2.887   0.776
50135W        W13694   2.881   7.799   1.381
50136W        W13695   3.430  21.106   1.908
50137W        W13696   5.391  43.472   2.277
50138W        W13697   8.694  22.113   1.792
50139W        W13698  38.510  26.138   4.172
50140W        W13699  22.209  19.735   4.224
50141W        W13700  17.641   9.377   4.166
50142W        W13701  35.949  29.604  11.875
50143W        W13702  30.512  31.946   4.648
50144W        W13703  26.168  38.904   1.223
50145W        W13704  34.589  40.847   0.391
50146W        W13705  26.124  36.376   3.662
50147W        W13706  33.542  19.596  12.873
50148W        W13707  27.143  38.467   0.783
50149W        W13708  19.134   0.475  10.441
50150W        W13709  18.764  12.733   4.723
50151W        W13710  28.624  22.131   4.142
50152W        W13711  18.257  27.037  10.628
50153W        W13712  22.517  20.670  14.816
50154W        W13713  44.348   6.412  11.943
50155W        W13714  36.414  42.453  12.344
50156W        W13715  39.901  18.690  13.029
50157W        W13716  31.581  36.870   5.293
50158W        W13717  17.793  25.575   0.311
50159W        W13718  32.482  37.537   0.356
50160W        W13719   3.877  36.511  14.295
50161W        W13720   2.309  12.286  12.954
50162W        W13721  41.383  25.673  11.033
50163W        W13722  44.363  41.039  11.482
50164W        W13723   1.319  12.288   0.278
50165W        W13724  31.024  25.585  14.986
50166W        W13725  25.076   0.971   2.889
50167W        W13726   2.755  34.522   0.879
50168W        W13727  43.469  28.079  10.619
50169W        W13728  22.181  21.213  12.522
50170W        W13729  14.283  23.178  11.545
50171W        W13730  23.665  11.673  13.321
50172W        W13731  44.307  22.671   0.389
50173W        W13732  20.071  19.232  14.406
50174W        W13733  43.990  35.502  13.821
50175W        W13734  21.227  26.644   1.275
50176W        W13735   2.765   3.345  11.857
50177W        W13736  33.536  44.471  13.884
50178W        W13737  26.696  14.158  14.888
50179W        W13738  19.204  21.025   1.839
50180W        W13739  42.931  11.230  12.388
50181W        W13740  10.332   6.798   2.344
50182W        W13741  34.564  44.843  11.398
50183W        W13742  39.537  14.681  10.606
50184W        W13743  29.630   5.901  14.326
50185W        W13744  15.675  38.379  11.484
50186W        W13745  34.440  17.286   4.658
50187W        W13746  39.405  44.337  12.878
50188W        W13747  39.021  33.464   0.475
50189W        W13748  17.603  37.433  13.492
50190W        W13749  31.432  29.652   4.753
50191W        W13750   0.781   0.247  12.351
50192W        W13751   4.707  30.018  11.867
50193W        W13752  17.088   9.341  12.896
50194W        W13753  17.086   9.175  13.968
50195W        W13754   7.668  15.280   2.834
50196W        W13755  13.795  28.181   3.176
50197W        W13756  13.620  20.640   3.242
50198W        W13757  36.857  11.287  12.935
50199W        W13758  14.700  32.452   0.755
50200W        W13759  33.621  24.178  10.422
50201W        W13760  28.587   6.254  14.314
50202W        W13761  28.137  41.337  13.337
50203W        W13762  44.899  21.153  14.778
50204W        W13763   7.237  29.497   0.869
50205W        W13764  36.095  38.877  14.958
50206W        W13765  44.762  16.268  12.571
50207W        W13766  34.417  24.135  13.950
50208W        W13767  30.990  27.674  14.947
50209W        W13768  37.887  27.477   2.730
50210W        W13769   6.786  12.814   2.870
50211W        W13770  25.099  44.412   4.835
50212W        W13771   6.732  15.692  13.475
50213W        W13772   7.861  14.094  14.885
50214W        W13773  40.544  16.105  13.423
50215W        W13774  39.546  37.865   3.231
50216W        W13775   1.849  37.987   4.333
50217W        W13776   5.419   6.233  13.874
50218W        W13777   0.345   5.407   1.281
50219W        W13778  34.045  11.629   1.783
50220W        W13779  15.694  11.182   1.223
50221W        W13780   8.790  10.755  10.905
50222W        W13781  20.246  31.981   4.668
50223W        W13782  30.417  27.537   1.235
50224W        W13783  15.127  28.483  13.368
50225W        W13784  39.401   2.318  11.442
50226W        W13785  13.264  28.170  12.414
50227W        W13786  44.841  32.050  13.037
50228W        W13787  35.105  14.287   5.204
50229W        W13788  34.486  28.161  14.944
50230W        W13789  21.115  11.360  13.039
50231W        W13790  17.263  15.193   1.833
50232W        W13791  13.331  28.114  10.022
50233W        W13792  29.121   5.346  10.441
50234W        W13793   7.802   2.253   4.802
50235W        W13794   9.765  13.799  13.447
50236W        W13795  37.935   1.732  12.827
50237W        W13796   1.383  28.565   3.334
50238W        W13797  26.563  12.814  11.902
50239W        W13798  33.600  39.990  13.036
50240W        W13799   3.240  18.712   4.642
50241W        W13800  42.305  35.052   2.308
50242W        W13801   5.193  18.791  12.378
50243W        W13802  38.565  31.636   0.416
50244W        W13803   9.713  17.740   0.327
50245W        W13804  18.582  30.576  11.499
50246W        W13805  39.850  32.088   4.713
50247W        W13806  20.727   3.355  14.858
50248W        W13807  31.435  12.268  10.994
50249W        W13808  19.741   3.888   0.820
50250W        W13809   6.743  11.254  13.543
50251W        W13810   4.901  27.976   2.688
50252W        W13811  13.122  33.087  12.833
50253W        W13812  30.999   1.950   2.297
50254W        W13813  41.880  39.450   1.280
50255W        W13814  23.673   8.732   1.852
50256W        W13815   1.969  20.091  13.525
50257W        W13816  34.929   9.790   2.292
50258W        W13817  14.641  17.733   0.727
50259W        W13818   1.438   8.218   0.735
50260W        W13819  25.606  32.140  11.981
50261W        W13820  40.863   1.959  14.815
50262W        W13821   0.253   1.363   3.166
50263W        W13822  23.170  42.810   0.268
50264W        W13823  16.137  18.278   4.212
50265W        W13824  13.318  41.795   0.926
50266W        W13825   3.358  11.699   2.178
50267W        W13826  38.477   5.235  13.504
50268W        W13827   7.748  11.365  14.433
50269W        W13828  14.220  36.574   4.827
50270W        W13829   1.856  40.881   3.761
50271W        W13830   1.903  39.954  11.578
50272W        W13831   8.824  20.097   5.170
50273W        W13832  24.154  42.310  10.443
50274W        W13833  39.443  33.601  13.538
50275W        W13834  21.179  33.465  13.434
50276W        W13835  19.720  31.549  13.959
50277W        W13836   9.165  39.007  11.547
50278W        W13837  13.111  12.669  12.885
50279W        W13838  37.535  24.591  13.978
50280W        W13839  25.113  16.606   3.846
50281W        W13840   7.685  38.395  10.484
50282W        W13841  40.426   1.442  14.326
50283W        W13842  36.348  36.375  10.957
50284W        W13843   0.428  39.440   0.477
50285W        W13844  29.995  26.569  10.904
50286W        W13845  11.719   9.850  13.330
50287W        W13846  20.567  28.631  13.972
50288W        W13847  37.911  24.220  11.018
50289W        W13848   2.955  10.777   4.334
50290W        W13849  26.959  28.001   3.660
50291W        W13850  18.099  44.360   3.262
50292W        W13851  18.657  35.507  13.464
50293W        W13852   1.753  21.572  12.500
50294W        W13853  10.652  26.082  13.906
50295W        W13854   3.279  22.063  14.496
50296W        W13855  30.500  42.960   1.375
50297W        W13856   3.298  33.480   0.966
50298W        W13857   8.339  31.009   1.774
50299W        W13858  41.898  30.449  12.459
50300W        W13859  24.115  35.886   1.308
50301W        W13860  26.181  30.007  14.765
50302W        W13861  29.526   8.218   1.227
50303W        W13862  14.619  22.675   0.773
50304W        W13863  23.590  16.632   0.815
50305W        W13864  27.494  14.199  11.547
50306W        W13865  22.080  11.703  12.550
50307W        W13866  42.405   3.937  14.966
50308W        W13867  25.548  13.628  12.450
50309W        W13868  11.799  10.668  10.456
50310W        W13869  30.641  32.519   2.222
50311W        W13870  32.963  36.875   2.861
50312W        W13871   4.348  31.910  11.540
50313W        W13872  26.975  25.705  10.099
50314W        W13873   7.324  13.611  12.973
50315W        W13874  41.889  29.503  14.290
50316W        W13875  42.503  19.274  11.396
50317W        W13876  18.640   7.794   4.805
50318W        W13877  14.728   3.859  14.784
50319W        W13878   2.395  31.416  11.501
50320W        W13879   7.904   8.655   2.274
50321W        W13880  43.328  16.723   3.725
50322W        W13881   8.764  39.831   4.156
50323W        W13882  11.763  15.659   1.212
50324W        W13883  37.364  22.201   2.680
50325W        W13884  31.935   3.728  11.889
50326W        W13885  20.558  36.474   4.663
50327W        W13886  39.049  41.538   4.757
50328W        W13887  37.986  34.453   3.180
50329W        W13888   6.203  20.089  12.009
50330W        W13889   2.903  28.946   2.210
50331W        W13890  36.429  39.431   1.928
50332W        W13891  14.697  11.339   1.256
50333W        W13892   3.855  20.097  10.535
50334W        W13893  28.480   2.956   4.791
50335W        W13894  25.127  22.060   2.878
50336W        W13895  18.191  38.463  14.369
50337W        W13896  41.505  35.901  13.934
50338W        W13897  39.439   9.369  14.440
50339W        W13898   9.672  21.198   0.412
50340W        W13899  14.649   4.299  12.534
50341W        W13900  44.390   8.743   2.748
50342W        W13901  22.234  27.482  12.546
50343W        W13902  33.010  15.292  12.379
50344W        W13903  16.100  10.154  11.439
50345W        W13904  30.432  32.009  14.399
50346W        W13905  42.424  22.596  11.060
50347W        W13906   9.733  40.490  12.569
50348W        W13907  26.152  25.135   2.793
50349W        W13908  31.910  35.377   3.147
50350W        W13909  24.520   2.756  14.486
50351W        W13910  36.926   2.410  10.432
50352W        W13911  24.665  29.172   3.801
50353W        W13912  36.445  22.642   1.911
50354W        W13913  15.650   0.336   1.284
50355W        W13914  35.956  37.857   1.348
50356W        W13915  14.650   8.767  13.332
50357W        W13916  38.440  32.390   1.333
50358W        W13917  26.575  41.917  12.470
50359W        W13918   6.219  34.973   4.797
50360W        W13919   0.283  27.645  11.544
50361W        W13920  16.810  27.477   1.823
50362W        W13921  12.193   1.432  10.596
50363W        W13922  17.664   4.364   2.666
50364W        W13923   4.860  11.171   0.956
50365W        W13924   1.432   1.764  11.454
50366W        W13925  20.753   7.847   1.701
50367W        W13926  18.273  34.074  10.529
50368W        W13927  44.006  12.811   1.287
50369W        W13928  31.904  37.401  12.896
50370W        W13929   1.751  19.599   2.866
50371W        W13930  13.208  42.423   3.304
50372W        W13931  29.128  15.246  14.985
50373W        W13932  42.411   4.772   2.371
50374W        W13933  27.557  28.601  13.510
50375W        W13934  17.789  19.711   4.732
50376W        W13935  36.460   1.966  12.966
50377W        W13936   9.736  38.920   4.774
50378W        W13937   6.687  18.170   4.599
50379W        W13938  14.736   2.733   2.875
50380W        W13939   6.352  23.009   1.786
50381W        W13940  28.128  31.604  12.853
50382W        W13941  21.085  39.410  11.048
50383W        W13942   6.202  12.222   4.219
50384W        W13943  32.087  35.454  13.905
50385W        W13944   7.257  33.406  12.083
50386W        W13945  27.131  37.931  13.874
50387W        W13946  18.735  36.358  11.569
50388W        W13947  31.568  39.919  13.323
50389W        W13948  18.757  14.714  12.901
50390W        W13949  26.619   4.910   3.164
50391W        W13950  38.351  26.057   2.861
50392W        W13951  26.682  39.345  14.838
50393W        W13952   0.279  10.660  14.399
50394W        W13953  34.592  32.042   5.177
50395W        W13954   7.684  41.317  10.155
50396W        W13955  23.069  16.791   1.321
50397W        W13956   9.738  40.912   4.175
50398W        W13957  12.610  10.852   1.847
50399W        W13958  41.406  40.041   2.800
50400W        W13959  31.645  23.028  14.762
50401W        W13960  33.505   8.707  13.439
50402W        W13961  32.452  21.713  13.915
50403W        W13962   1.317  26.487  12.050
50404W        W13963  10.155  16.717  12.477
50405W        W13964  23.705  23.152  13.519
50406W        W13965  31.477   6.414  12.937
50407W        W13966  19.113  42.449   1.261
50408W        W13967   1.834  19.741  13.500
50409W        W13968   2.941  28.597  11.381
50410W        W13969  37.997  21.115  11.098
50411W        W13970  35.414  35.881  11.003
50412W        W13971  21.532   3.259  14.329
50413W        W13972  14.229  11.251  14.455
50414W        W13973  22.244  16.619   1.326
50415W        W13974  26.067  31.430   2.377
50416W        W13975  41.305   6.336  12.832
50417W        W13976   4.246  35.467   4.340
50418W        W13977  13.648  33.985   9.556
50419W        W13978  23.557   0.800   0.774
50420W        W13979  35.002  13.168   3.266
50421W        W13980  10.358  34.388   2.387
50422W        W13981   3.715   1.451  10.625
50423W        W13982  25.589  35.604   1.246
50424W        W13983  12.349  10.743  11.879
50425W        W13984  37.572   3.816  12.866
50426W        W13985  29.571  15.221   4.665
50427W        W13986  30.152   8.791   0.936
50428W        W13987  12.191  16.646  12.543
50429W        W13988   5.739  20.205  14.014
50430W        W13989  16.684   6.842  10.490
50431W        W13990  27.624   4.814  14.019
50432W        W13991  22.562  44.924  14.877
50433W        W13992  10.269  37.536   0.407
50434W        W13993  19.548  28.653   3.174
50435W        W13994  28.951   7.269  12.962
50436W        W13995  18.608  31.019  11.084
50437W        W13996  44.992  11.824  11.473
50438W        W13997  39.498   1.834  12.535
50439W        W13998   9.679  25.191  13.849
50440W        W13999  28.467  44.478   1.259
50441W        W14000  24.657  42.868   4.734
50442W        W14001   8.259   3.396  11.421
50443W        W14002  21.740  14.145   3.861
50444W        W14003  33.124  18.767   3.845
50445W        W14004  32.891  22.251  13.355
50446W        W14005  19.558  30.602   3.684
50447W        W14006  12.753  11.669  10.529
50448W        W14007  43.900  18.210   4.203
50449W        W14008   1.745   6.703  13.890
50450W        W14009  23.600  38.975  14.839
50451W        W14010   2.852   6.774   0.941
50452W        W14011  34.924  40.922  13.548
50453W        W14012   1.294   6.818   4.117
50454W        W14013  43.982   8.377   0.402
50455W        W14014  35.407  10.805   0.443
50456W        W14015   8.786  27.679   0.479
50457W        W14016  19.580  37.830   2.206
50458W        W14017  40.388  30.608   0.744
50459W        W14018  40.029  12.158   1.860
50460W        W14019  37.979  13.734  10.590
50461W        W14020  18.677  12.659   2.805
50462W        W14021  42.459  36.591   0.283
50463W        W14022  26.541  44.907  11.505
50464W        W14023  35.532  19.076  13.902
50465W        W14024  30.006  27.116   3.259
50466W        W14025  17.599  17.177  13.019
50467W        W14026  29.055  19.780   0.450
50468W        W14027  34.398  12.663   9.548
50469W        W14028  21.611  15.658  12.418
50470W        W14029  33.446  28.136  13.492
50471W        W14030  18.762  22.148   4.243
50472W        W14031  36.893  34.432   1.429
50473W        W14032  42.029  25.714  13.363
50474W        W14033  44.427  34.503   0.442
50475W        W14034  29.029   8.855   5.132
50476W        W14035  41.042   5.262  14.349
50477W        W14036  18.627  11.339   2.250
50478W        W14037  35.932  23.711  12.976
50479W        W14038  27.196  25.082   1.237
50480W        W14039  11.713  38.915   5.213
50481W        W14040  31.096  24.543   3.832
50482W        W14041   3.777  43.388  14.464
50483W        W14042  33.010   9.753   0.821
50484W        W14043   1.392  24.983  14.770
50485W        W14044  40.332  30.521   1.781
50486W        W14045  18.619  28.623   1.403
50487W        W14046  22.167  37.918   0.826
50488W        W14047  22.134  11.825   3.368
50489W        W14048  10.848  32.027   0.420
50490W        W14049  27.554   6.753  11.889
50491W        W14050   6.213  25.031   3.740
50492W        W14051  26.498  43.305  11.510
50493W        W14052  41.041   6.765  14.489
50494W        W14053   2.244  32.027   4.234
50495W        W14054  31.435   3.713  14.318
50496W        W14055  39.486  37.469  13.420
50497W        W14056  38.021   8.187   1.810
50498W        W14057  44.261  21.229   0.732
50499W        W14058  19.606  39.928   4.729
50500W        W14059  16.759  24.105   3.224
50501W        W14060  38.821  35.965  11.895
50502W        W14061   0.915  22.060  14.988
50503W        W14062   0.485  17.152   4.117
50504W        W14063   7.757  17.564   4.785
50505W        W14064  31.504  17.788   3.366
50506W        W14065  13.622  22.691   9.923
50507W        W14066   8.754  19.115  13.879
50508W        W14067  19.186  40.353  11.886
50509W        W14068  24.218  39.051  12.903
50510W        W14069   8.684  32.476   4.654
50511W        W14070  14.732   1.386  14.276
50512W        W14071   0.312  32.408  10.526
50513W        W14072  15.137   0.980  14.282
50514W        W14073   0.467  42.415  11.511
50515W        W14074  31.046  19.696   4.216
50516W        W14075  11.690  40.992   2.804
50517W        W14076   0.472  42.930   0.763
50518W        W14077  36.957  24.626  14.378
50519W        W14078  40.449  37.082   2.323
50520W        W14079  42.988  40.822  12.039
50521W        W14080  26.026  31.478   4.339
50522W        W14081  18.231  13.317   2.404
50523W        W14082  35.446  41.314  10.631
50524W        W14083  39.896  37.455   5.242
50525W        W14084  25.487  26.560  10.422
50526W        W14085  38.946  23.676  13.848
50527W        W14086  25.092  37.887  10.608
50528W        W14087  20.658   0.967  11.029
50529W        W14088  36.564   4.214  14.881
50530W        W14089  28.145  18.258   1.381
50531W        W14090  17.706  19.169   2.811
50532W        W14091  17.707  35.005  14.912
50533W        W14092  35.393  30.104   4.351
50534W        W14093  29.012   6.913   1.290
50535W        W14094  42.912  15.724   2.764
50536W        W14095  44.829  32.557  11.603
50537W        W14096   2.846  25.096  11.004
50538W        W14097  32.886  15.280   3.214
50539W        W14098   1.345  15.785  13.422
50540W        W14099   5.292  16.719  14.912
50541W        W14100  19.160  28.055  12.914
50542W        W14101  20.144  27.140  12.570
50543W        W14102   9.149  26.536  11.412
50544W        W14103  42.410  44.286  10.436
50545W        W14104   2.836  39.818  13.435
50546W        W14105  43.434  44.983   2.328
50547W        W14106   8.831  39.818  10.892
50548W        W14107  28.632  39.511   1.729
50549W        W14108  33.088  37.021   2.304
50550W        W14109  14.748  26.563  13.368
50551W        W14110  31.920  43.293   3.700
50552W        W14111  32.945   0.412   4.782
50553W        W14112  38.417  14.751   2.707
50554W        W14113  30.493   9.780  11.961
50555W        W14114   1.736   7.257  10.982
50556W        W14115  21.731  34.467  12.882
50557W        W14116  25.591   7.783   2.672
50558W        W14117  30.105   6.803   0.266
50559W        W14118   6.375  31.078  12.489
50560W        W14119   4.444  42.504   3.635
50561W        W14120   4.259  10.355   3.630
50562W        W14121  41.311  21.740  11.077
50563W        W14122  42.954  31.615  14.946
50564W        W14123  27.616  37.009  10.463
50565W        W14124  19.720  36.433  14.457
50566W        W14125  19.674  11.808  10.427
50567W        W14126   8.785  20.093   4.640
50568W        W14127  34.370  23.601   4.602
50569W        W14128  29.596  12.758  14.821
50570W        W14129  11.341  35.934  14.024
50571W        W14130  29.571  15.303  13.496
50572W        W14131  20.617   6.696  12.392
50573W        W14132  24.135  27.971   0.726
50574W        W14133  23.147  36.865  13.449
50575W        W14134  42.924   6.424  13.820
50576W        W14135  43.487  17.674  14.839
50577W        W14136   5.865  16.096  14.959
50578W        W14137  12.227  30.071  11.431
50579W        W14138  40.911  15.141   3.820
50580W        W14139  13.283  44.863   3.324
50581W        W14140  20.161  22.738  12.436
50582W        W14141   0.465  42.837  11.868
50583W        W14142  26.500  39.860  13.336
50584W        W14143   7.362   4.824   3.795
50585W        W14144  36.941   9.809  13.808
50586W        W14145  14.608   9.796   4.674
50587W        W14146  42.490  17.718  11.011
50588W        W14147  13.151  34.970  12.367
50589W        W14148  20.588  35.571   0.742
50590W        W14149  16.280   5.202   2.221
50591W        W14150  30.931  39.350   4.313
50592W        W14151  25.125  12.674   0.333
50593W        W14152  32.403  14.714   2.902
50594W        W14153   3.322  37.544  10.023
50595W        W14154  34.540  23.644   2.739
50596W        W14155   1.238  16.792  13.931
50597W        W14156  12.847  21.198  12.460
50598W        W14157  39.841  40.474   0.346
50599W        W14158  25.066   0.353   4.757
50600W        W14159  16.106  16.774   0.445
50601W        W14160   4.211  39.426  10.547
50602W        W14161   7.716   0.921  14.912
50603W        W14162  33.568   5.758   4.727
50604W        W14163  35.881  36.844  12.829
50605W        W14164  20.187  22.104   4.626
50606W        W14165  16.605  19.232  12.514
50607W        W14166   7.259  20.535   1.801
50608W        W14167  23.088  44.760  12.529
50609W        W14168  14.103  19.564  13.345
50610W        W14169  39.964  13.131  11.094
50611W        W14170  24.122  19.124   3.858
50612W        W14171  23.529  28.096  14.454
50613W        W14172  32.517  26.641   4.754
50614W        W14173  16.590  42.454   1.425
50615W        W14174  19.159  44.826   4.257
50616W        W14175   4.929  32.574   1.841
50617W        W14176   1.388  33.588  13.852
50618W        W14177  23.491  12.136  11.593
50619W        W14178  29.637  19.647   1.695
50620W        W14179   5.712  41.803   0.358
50621W        W14180  42.838   6.842   2.666
50622W        W14181  15.731   3.768  12.955
50623W        W14182  18.706  11.187   1.374
50624W        W14183  10.330  10.318   0.306
50625W        W14184  34.437  19.063   3.308
50626W        W14185   3.338  29.920  11.113
50627W        W14186   6.731  40.503  13.938
50628W        W14187  38.333  29.525  12.980
50629W        W14188   6.290  35.536   0.866
50630W        W14189  29.655   7.762   0.930
50631W        W14190   6.288  12.128   1.258
50632W        W14191   4.919  25.094   0.856
50633W        W14192  32.406  20.073   2.189
50634W        W14193  23.996  33.454   2.199
50635W        W14194  31.572  31.935  12.999
50636W        W14195  40.543   3.798   0.798
50637W        W14196  23.655  28.496   0.810
50638W        W14197  36.861  26.529   5.083
50639W        W14198   0.453   8.368  14.014
50640W        W14199  11.149  14.835  10.985
50641W        W14200  29.610  26.629   0.747
50642W        W14201  15.109   6.307   0.353
50643W        W14202  10.234  14.214  14.501
50644W        W14203  28.955   4.767  14.470
50645W        W14204  22.067   2.876  12.951
50646W        W14205   8.661  14.153  13.388
50647W        W14206  13.759  14.228   0.736
50648W        W14207   7.780   7.775  12.938
50649W        W14208  15.821  20.136  11.491
50650W        W14209  24.223  12.214  14.377
50651W        W14210  39.847  21.217   4.298
50652W        W14211  28.022   4.343  13.329
50653W        W14212   9.395   9.775  14.925
50654W        W14213  22.156  18.586   4.163
50655W        W14214  27.562  37.877   4.810
50656W        W14215  24.630  20.203  14.491
50657W        W14216  27.105  39.366   2.875
50658W        W14217  27.050  15.695  10.430
50659W        W14218  36.504  22.520   5.090
50660W        W14219   8.855  40.001   0.311
50661W        W14220  16.728   9.356  14.914
50662W        W14221  11.663  36.554  13.428
50663W        W14222   9.689   8.312  10.472
50664W        W14223  34.412  13.315  10.068
50665W        W14224  39.968  38.867   0.315
50666W        W14225  16.078  38.965   2.300
50667W        W14226  32.617  28.508  11.918
50668W        W14227   4.366  13.169   1.357
50669W        W14228  43.839  14.228  10.523
50670W        W14229   4.809  10.184  14.964
50671W        W14230   3.268  21.148   4.302
50672W        W14231  36.434  11.790   1.760
50673W        W14232  27.584  31.498   1.343
50674W        W14233   7.231  44.283  14.837
50675W        W14234   5.717  41.413   0.403
50676W        W14235  22.087  15.690   1.810
50677W        W14236  33.997  17.066   0.924
50678W        W14237  16.107  33.517  11.562
50679W        W14238  13.600  11.185  11.427
50680W        W14239   7.411   1.380  11.875
50681W        W14240  37.443  25.689   5.132
50682W        W14241  28.156  10.681   0.336
50683W        W14242  38.462  42.971  10.542
50684W        W14243  13.312  43.771   2.698
50685W        W14244  30.537  37.977  12.450
50686W        W14245   4.443   9.225  13.021
50687W        W14246   0.963   6.186  13.477
50688W        W14247  18.627   9.699   2.869
50689W        W14248   4.236  24.113   3.759
50690W        W14249  29.999  26.186  10.602
50691W        W14250  44.364  29.103   0.897
50692W        W14251  13.166  22.548  10.432
50693W        W14252  18.069  31.625   4.199
50694W        W14253  16.225  33.564  10.132
50695W        W14254   6.698  27.119   2.798
50696W        W14255  41.816  14.727   4.201
50697W        W14256  36.917   6.305   0.958
50698W        W14257  22.623  24.498  11.560
50699W        W14258   5.796  29.100  11.115
50700W        W14259  28.053  35.067  10.534
50701W        W14260  31.996  36.396   3.341
50702W        W14261  22.033  41.968   3.242
50703W        W14262   4.319  10.870  11.897
50704W        W14263  22.051  40.939  12.070
50705W        W14264  43.376  44.276   2.821
50706W        W14265  27.684   5.744   3.679
50707W        W14266  11.182  31.117   1.221
50708W        W14267  15.688  29.149   4.712
50709W        W14268  31.128  15.302  13.519
50710W        W14269   7.894  18.130   5.144
50711W        W14270  29.036  11.669  13.389
50712W        W14271  42.394  29.004   0.860
50713W        W14272  26.472  19.268  13.915
50714W        W14273  19.053  12.116  12.954
50715W        W14274  25.527  43.994  12.995
50716W        W14275  26.978  15.660   1.315
50717W        W14276   8.884  43.344  11.425
50718W        W14277  33.454  39.487  12.927
50719W        W14278  31.643  15.186  10.614
50720W        W14279   6.382   9.226  14.982
50721W        W14280   4.237  41.463   4.172
50722W        W14281  26.555  18.194  11.378
50723W        W14282   7.723   9.267  12.969
50724W        W14283  14.620  35.922   1.801
50725W        W14284  19.174  13.671  12.033
50726W        W14285  15.325   2.770  13.871
50727W        W14286   3.311  34.984  11.093
50728W        W14287  22.713  41.414  12.424
50729W        W14288  31.422  37.831   1.734
50730W        W14289   5.688  25.496  13.899
50731W        W14290  40.925  15.261   4.765
50732W        W14291  36.424  41.032  14.466
50733W        W14292   5.710  17.172   0.428
50734W        W14293   1.412  28.029   2.207
50735W        W14294   4.412  29.046   1.333
50736W        W14295  29.929  39.920  13.912
50737W        W14296  12.335  23.510   4.346
50738W        W14297   9.724  34.037  13.044
50739W        W14298  27.107  39.977  13.049
50740W        W14299   4.876   9.808   1.353
50741W        W14300  23.054  16.317  10.526
50742W        W14301  29.541  10.783   4.213
50743W        W14302  20.666  40.806  13.469
50744W        W14303  37.844  40.962   4.632
50745W        W14304   0.452  20.668   4.144
50746W        W14305  13.161  37.438  11.536
50747W        W14306  26.649   8.262  11.045
50748W        W14307   7.671  23.110   4.307
50749W        W14308   7.299  31.903   4.255
50750W        W14309  42.422  37.486   0.740
50751W        W14310  25.507  22.628  10.893
50752W        W14311   0.808  11.184   4.680
50753W        W14312  41.841  34.099   4.694
50754W        W14313   4.833   7.288  10.993
50755W        W14314  43.277   8.233   2.213
50756W        W14315   7.823  21.615   1.886
50757W        W14316  37.932  21.687  11.436
50758W        W14317  38.402  10.672  14.444
50759W        W14318  34.978  39.367  13.515
50760W        W14319  42.033   1.333   4.238
50761W        W14320  35.939  32.965   0.463
50762W        W14321  10.168  30.156  12.488
50763W        W14322  17.742  12.746  12.524
50764W        W14323  36.424  36.083  11.565
50765W        W14324   0.374   7.746   4.221
50766W        W14325   4.764  40.451   3.384
50767W        W14326  42.439  26.155  10.631
50768W        W14327  15.094   8.896  14.326
50769W        W14328   5.862  24.551  11.590
50770W        W14329  39.476  13.139  10.613
50771W        W14330  29.529   0.957   5.089
50772W        W14331   3.256  32.559   3.195
50773W        W14332  31.918  10.160   1.802
50774W        W14333  40.401  12.729   4.332
50775W        W14334  36.524   3.453   0.738
50776W        W14335  39.374   7.881  13.308
50777W        W14336  12.737  20.034   3.804
50778W        W14337  27.135  38.839  10.929
50779W        W14338   5.424  39.920   2.368
50780W        W14339   9.863  17.731  10.941
50781W        W14340  17.249  31.563  10.025
50782W        W14341  37.033  41.457  13.448
50783W        W14342  22.514  10.303  10.983
50784W        W14343  44.436  17.285  11.108
50785W        W14344   2.465  40.959   4.345
50786W        W14345  27.124  26.136   4.671
50787W        W14346   7.829   6.313  14.021
50788W        W14347  35.945  37.557   2.722
50789W        W14348  30.566  37.018   1.268
50790W        W14349  12.265  39.464   0.334
50791W        W14350  12.652  34.495  11.510
50792W        W14351  25.592   8.776   5.189
50793W        W14352  38.378  39.062  11.529
50794W        W14353  18.077  20.219  14.882
50795W        W14354  34.601  19.642   3.844
50796W        W14355  10.792  33.942   2.260
50797W        W14356  29.483  19.227  13.983
50798W        W14357  39.064  13.114   2.365
50799W        W14358  39.932  25.974  12.428
50800W        W14359  30.057   9.301   3.850
50801W        W14360  14.105  19.267   4.611
50802W        W14361  10.267   0.903  14.899
50803W        W14362  22.598  15.599   4.244
50804W        W14363  10.723  33.114  13.958
50805W        W14364  30.925   6.688   4.211
50806W        W14365  30.517  39.427  11.406
50807W        W14366   8.694   0.765   0.388
50808W        W14367  44.386  17.090  10.412
50809W        W14368  31.989   2.897  12.923
50810W        W14369   1.379  10.178   2.772
50811W        W14370  12.317  44.804  10.981
50812W        W14371  28.004  43.947   0.739
50813W        W14372   3.907  43.423   1.708
50814W        W14373  18.575  24.676   1.422
50815W        W14374  34.576  29.517   0.910
50816W        W14375  22.711  36.433  11.861
50817W        W14376  22.602  29.000   2.228
50818W        W14377  44.830   1.966   0.904
50819W        W14378  13.697  29.152   3.736
50820W        W14379  10.782  43.978   4.740
50821W        W14380  27.631  12.662  11.562
50822W        W14381  14.703  31.459   3.369
50823W        W14382   9.861  38.472   2.303
50824W        W14383  27.151  21.189   2.689
50825W        W14384  15.202  31.452   2.367
50826W        W14385  26.462  33.024   3.808
50827W        W14386  25.120  20.158  11.859
50828W        W14387  15.672  17.095  10.462
50829W        W14388  43.441   2.323   4.707
50830W        W14389  10.182  26.511  11.415
50831W        W14390   9.851   8.893  14.848
50832W        W14391  11.329  33.874   5.113
50833W        W14392  42.472   7.876   0.475
50834W        W14393  40.798  21.726   2.845
50835W        W14394   2.894   0.983  14.352
50836W        W14395  28.495  33.467  12.475
50837W        W14396  38.330  28.185   0.815
50838W        W14397  24.650  32.014   4.641
50839W        W14398   1.451  24.722  12.054
50840W        W14399  15.141  28.049   0.826
50841W        W14400  22.663  27.522   4.784
50842W        W14401  31.047  29.612   4.126
50843W        W14402   5.215   5.814   3.185
50844W        W14403  43.437  27.113  11.608
50845W        W14404  31.556   8.836   2.237
50846W        W14405  24.008  17.091   0.899
50847W        W14406  14.181  35.500   3.865
50848W        W14407  27.612   0.341   0.300
50849W        W14408  37.980   3.238   3.727
50850W        W14409  27.118  41.390   3.257
50851W        W14410  11.820  31.965  14.286
50852W        W14411  33.903   5.851  13.859
50853W        W14412  33.014  29.564   2.221
50854W        W14413   0.875  17.644   4.740
50855W        W14414  19.748  27.150   2.384
50856W        W14415  28.102   9.783   4.212
50857W        W14416  28.009   9.816   2.305
50858W        W14417  24.009  29.114  11.072
50859W        W14418  35.893  25.109   0.941
50860W        W14419   4.266  40.488   3.315
50861W        W14420  34.963  21.140   0.799
50862W        W14421  36.432   8.826  10.476
50863W        W14422   4.276  22.518  14.919
50864W        W14423  13.160  12.183   3.376
50865W        W14424   2.888  44.362   1.287
50866W        W14425  10.721  27.105   0.880
50867W        W14426  35.878  29.501  12.950
50868W        W14427  44.333  40.433  12.341
50869W        W14428   6.388   0.307   2.191
50870W        W14429  20.204  31.054  14.776
50871W        W14430  14.674  27.040   9.574
50872W        W14431  35.500  26.597   4.267
50873W        W14432  16.082   8.218   1.398
50874W        W14433  31.899  11.704  13.441
50875W        W14434  41.829  30.025   0.384
50876W        W14435   1.289  13.135   0.740
50877W        W14436   0.382  30.099   4.263
50878W        W14437  40.051  34.453  14.808
50879W        W14438  32.082  24.689   4.250
50880W        W14439   9.738  36.404  14.007
50881W        W14440  16.601   9.324  11.524
50882W        W14441  10.354   5.857  12.017
50883W        W14442  19.044  21.716  11.951
50884W        W14443  26.060  43.850   2.355
50885W        W14444  16.170   9.387  14.805
50886W        W14445   8.757  41.891  14.796
50887W        W14446   4.356  29.065  11.433
50888W        W14447  19.686  35.087   2.418
50889W        W14448  16.166  33.593   3.198
50890W        W14449   3.728  35.940   4.658
50891W        W14450  24.209  26.675  12.341
50892W        W14451  20.713  40.454  12.002
50893W        W14452  35.396  36.592   3.225
50894W        W14453  37.870  28.673  13.322
50895W        W14454   5.327  24.667  12.404
50896W        W14455  41.815  15.700   1.752
50897W        W14456  10.737  29.623  13.888
50898W        W14457  16.188   8.850  12.913
50899W        W14458  37.512  24.046   3.746
50900W        W14459  37.910  42.285   2.356
50901W        W14460  17.770   2.365  10.563
50902W        W14461  37.993  24.114  14.487
50903W        W14462  23.011  13.827  11.037
50904W        W14463  42.340  41.948  14.316
50905W        W14464  44.987   0.272   4.134
50906W        W14465  42.299  22.509  14.395
50907W        W14466   2.872  11.638   4.123
50908W        W14467  32.892  41.406  13.461
50909W        W14468  21.687   3.804   0.802
50910W        W14469   8.660   8.711   4.169
50911W        W14470  23.186  30.580   2.414
50912W        W14471  42.024  39.817  13.012
50913W        W14472  10.377  40.380   2.892
50914W        W14473  41.506  21.123  10.577
50915W        W14474   2.732  16.617  14.871
50916W        W14475   0.925  18.082  14.459
50917W        W14476  10.243  20.213  10.984
50918W        W14477  44.009   2.845  11.448
50919W        W14478  15.772  22.500  11.542
50920W        W14479   2.730  17.188  11.467
50921W        W14480  10.695  23.731  13.510
50922W        W14481  34.597  43.382   1.308
50923W        W14482  29.480   0.276  14.346
50924W        W14483  30.008  33.101   0.420
50925W        W14484   3.280  37.462  12.888
50926W        W14485  28.152  39.467  12.021
50927W        W14486  40.394   7.773   5.152
50928W        W14487   1.896   9.717  14.781
50929W        W14488   0.886  27.580  13.547
50930W        W14489  42.308   6.761   2.303
50931W        W14490  42.525  39.859   4.664
50932W        W14491  42.488  40.800  14.330
50933W        W14492  41.341  33.031   2.801
50934W        W14493  10.854  41.424   0.834
50935W        W14494  25.583  14.157  11.085
50936W        W14495  40.494   9.726  14.801
50937W        W14496  28.071   4.716  10.614
50938W        W14497  33.886  15.665  11.013
50939W        W14498   8.792  44.773  13.398
50940W        W14499  40.929  38.472  13.969
50941W        W14500  22.075   9.322  11.391
50942W        W14501  21.542  43.007  11.990
50943W        W14502  36.457  28.151  11.539
50944W        W14503  17.590  26.561  11.899
50945W        W14504  27.007  11.331  11.008
50946W        W14505   2.254  30.032  10.965
50947W        W14506  14.151  34.011  14.307
50948W        W14507  11.356   8.175   4.283
50949W        W14508  42.933  37.335   5.320
50950W        W14509  12.207  31.950   3.233
50951W        W14510  16.678  31.990  11.440
50952W        W14511  38.979  35.042  12.036
50953W        W14512  40.430  31.581   4.300
50954W        W14513   4.713  21.680   3.385
50955W        W14514  12.753   3.951  11.608
50956W        W14515   2.727  32.008   1.787
50957W        W14516  26.554  36.874   3.329
50958W        W14517  36.046  28.597  11.045
50959W        W14518  27.531  27.942  14.892
50960W        W14519  15.820  28.629   1.819
50961W        W14520  25.499   1.459   4.745
50962W        W14521  25.080  19.147  11.126
50963W        W14522  15.323   3.321  13.803
50964W        W14523   5.784  42.815  13.049
50965W        W14524  11.318  41.315   0.351
50966W        W14525  11.763   7.280   4.733
50967W        W14526  44.780  19.056  13.880
50968W        W14527  44.902   5.824   1.377
50969W        W14528  17.266  42.794  12.506
50970W        W14529  34.019  35.368   3.283
50971W        W14530  43.018  16.608  14.921
50972W        W14531  17.629  43.415   4.615
50973W        W14532  33.930   6.328  12.846
50974W        W14533   8.686  34.887  14.328
50975W        W14534  27.096  30.644   2.795
50976W        W14535   4.890  14.652   2.260
50977W        W14536  33.418  26.040  14.488
50978W        W14537  39.552  42.432   4.777
50979W        W14538  12.627  14.120   1.442
50980W        W14539   8.211  43.380   0.770
50981W        W14540   4.310  44.356  14.371
50982W        W14541   2.918   4.353   0.794
50983W        W14542  25.561  12.690   1.427
50984W        W14543  33.102  30.139  11.436
50985W        W14544  11.843  22.125  10.511
50986W        W14545  25.009  36.562  11.547
50987W        W14546  32.548  34.879  14.779
50988W        W14547  24.201  42.298   1.403
50989W        W14548  24.594  34.103   3.319
50990W        W14549  31.016  21.210  14.910
50991W        W14550  26.522  21.517   2.268
50992W        W14551  27.516  34.561  10.477
50993W        W14552  15.821  34.473  10.502
50994W        W14553  16.272  23.988  14.497
50995W        W14554  35.437  25.621  12.346
50996W        W14555   0.777  28.146   3.652
50997W        W14556  39.853  24.083   0.833
50998W        W14557  28.449  29.030  14.496
50999W        W14558  13.146  22.523   0.318
51000W        W14559  13.802  32.938   0.938
51001W        W14560  24.102  28.664  13.034
51002W        W14561   9.794  28.018   0.338
51003W        W14562   0.881  43.337  11.402
51004W        W14563  29.098  30.963  12.475
51005W        W14564  21.145  44.259  12.840
51006W        W14565  23.135  34.916   3.331
51007W        W14566  39.885   9.723  13.887
51008W        W14567  41.790  12.678  11.891
51009W        W14568  13.608  35.887  10.033
51010W        W14569  38.474  18.242   4.291
51011W        W14570  34.959   5.900  12.055
51012W        W14571   4.354   8.377   1.717
51013W        W14572  20.205  21.555   4.626
51014W        W14573  31.542  39.957   0.326
51015W        W14574  35.103  36.421  12.446
51016W        W14575  41.904  36.078   2.400
51017W        W14576  26.465  19.193  14.954
51018W        W14577  28.450  32.924  12.898
51019W        W14578  38.909  30.114  11.948
51020W        W14579  39.821  28.479   3.238
51021W        W14580  29.462   2.238  14.960
51022W        W14581  36.376  32.568  11.996
51023W        W14582  28.976  20.764   1.879
51024W        W14583  42.957  21.537  11.040
51025W        W14584   3.800  42.835   2.844
51026W        W14585  21.634  41.890  12.868
51027W        W14586   4.718  33.524  14.396
51028W        W14587  33.441  40.506   1.909
51029W        W14588  25.660  18.279  12.351
51030W        W14589  33.487  32.576  11.965
51031W        W14590  30.015  27.620   4.664
51032W        W14591  21.624   7.901   1.717
51033W        W14592  23.707   6.373  14.286
51034W        W14593  41.959  28.064   1.258
51035W        W14594  30.927  22.112   4.679
51036W        W14595  29.636  17.733  13.399
51037W        W14596   6.832  44.386  10.543
51038W        W14597  13.113  26.047   1.337
51039W        W14598   6.284  17.086  14.409
51040W        W14599  23.210  42.372  10.570
51041W        W14600  28.161   6.784   1.354
51042W        W14601  26.136  43.514   2.755
51043W        W14602  38.419   0.914   0.378
51044W        W14603  32.605  11.284  11.004
51045W        W14604  40.031  12.707  14.910
51046W        W14605   9.274  10.297  12.985
51047W        W14606  10.662  14.239   0.764
51048W        W14607  41.477  21.535  12.954
51049W        W14608  14.739  12.240  13.902
51050W        W14609  22.071  10.663   9.981
51051W        W14610  28.662  19.063   1.914
51052W        W14611  28.101  42.471   3.324
51053W        W14612  18.291  39.812  14.986
51054W        W14613   5.360  19.214   4.281
51055W        W14614   0.933  27.500  11.097
51056W        W14615  18.688   4.384  12.529
51057W        W14616   5.352  44.838   3.783
51058W        W14617   8.735  24.200  12.865
51059W        W14618  12.258  36.097  14.398
51060W        W14619  10.753  41.019  13.987
51061W        W14620   5.764   8.898  12.479
51062W        W14621  11.151  44.937   1.340
51063W        W14622  13.835  34.557   1.873
51064W        W14623  36.078   1.735  13.362
51065W        W14624  33.455  39.314   3.763
51066W        W14625  13.602  37.515  13.833
51067W        W14626  38.325  10.282  10.041
51068W        W14627  39.853   7.362  14.771
51069W        W14628   9.649   3.812   0.895
51070W        W14629   3.744  28.080   1.820
51071W        W14630  10.647  20.266  14.774
51072W        W14631  26.058  33.595   3.805
51073W        W14632  17.572  40.505  13.512
51074W        W14633   9.715  20.681   0.394
51075W        W14634  32.925   6.732   1.886
51076W        W14635  30.034  38.533  11.416
51077W        W14636  37.077  44.384  10.588
51078W        W14637   3.344  22.634  14.348
51079W        W14638  31.596  19.761  14.867
51080W        W14639   4.264  14.831  12.878
51081W        W14640   5.288  31.430   2.889
51082W        W14641  37.360  33.484   3.754
51083W        W14642  23.628  29.041  11.941
51084W        W14643  42.501  39.381  13.358
51085W        W14644  26.470  34.095   0.259
51086W        W14645  31.624   5.704  12.980
51087W        W14646  30.119  36.381  10.613
51088W        W14647  34.969  41.845  14.869
51089W        W14648  33.520  10.765  13.796
51090W        W14649  36.357  15.130  12.998
51091W        W14650  17.177  25.018   3.844
51092W        W14651  23.122  37.358  11.898
51093W        W14652  41.492  29.929  14.501
51094W        W14653  17.175  18.753  12.474
51095W        W14654  20.245   0.283  11.963
51096W        W14655  40.307  11.812  10.965
51097W        W14656   7.884  31.566  12.916
51098W        W14657  43.298  43.874  14.334
51099W        W14658  27.466  30.089  13.024
51100W        W14659  11.643  23.681   0.387
51101W        W14660  43.513  32.417  13.983
51102W        W14661   0.284  13.817  12.564
51103W        W14662  41.338  24.538   4.196
51104W        W14663  27.090  35.105  14.950
51105W        W14664   3.915   7.233   1.322
51106W        W14665  16.590  31.440  13.402
51107W        W14666  22.601  15.604  12.946
51108W        W14667  32.071   2.884   4.612
51109W        W14668  25.068   3.237   4.651
51110W        W14669  20.617   7.248   4.659
51111W        W14670  23.070   2.792   2.407
51112W        W14671  25.631  18.245   4.742
51113W        W14672   1.841   3.225  10.994
51114W        W14673  13.730   0.858   1.398
51115W        W14674  20.619  27.097   3.232
51116W        W14675  34.038   7.300   3.178
51117W        W14676  29.501  41.815   2.249
51118W        W14677   4.808  40.840  14.446
51119W        W14678  14.161   9.191  14.801
51120W        W14679   6.720  18.206   4.148
51121W        W14680  10.708   8.260   1.894
51122W        W14681  20.125  28.454  13.967
51123W        W14682  13.814  42.423   3.748
51124W        W14683  42.797  24.012   2.737
51125W        W14684  25.144  27.095  14.438
51126W        W14685  33.130   7.329  10.998
51127W        W14686  18.594  34.523  10.992
51128W        W14687  32.962  15.635  11.598
51129W        W14688  10.712   3.857  12.430
51130W        W14689  15.122   3.842  12.433
51131W        W14690  28.987  25.609  12.378
51132W        W14691  41.941  41.411   3.227
51133W        W14692  37.415  34.499   3.349
51134W        W14693  23.649   3.859   2.867
51135W        W14694  32.546   2.392   2.268
51136W        W14695  16.769  20.681  13.944
51137W        W14696  16.728  15.634  12.044
51138W        W14697  29.476   5.931  14.016
51139W        W14698  27.074  23.576   5.800
51140W        W14699  15.768  21.074   2.376
51141W        W14700  43.316   9.697   2.298
51142W        W14701   1.435   7.840  11.049
51143W        W14702  23.170   0.786   2.392
51144W        W14703   1.356  34.068   2.814
51145W        W14704  30.627   0.332  11.902
51146W        W14705  11.846  25.511   4.838
51147W        W14706  44.449  31.647   1.254
51148W        W14707   8.305  37.062   0.832
51149W        W14708  15.162  23.644  13.868
51150W        W14709  11.352  10.735  13.423
51151W        W14710  14.299  31.422   4.709
51152W        W14711  39.433  40.000   0.818
51153W        W14712   6.697   0.309  12.845
51154W        W14713  41.034  25.636   0.435
51155W        W14714  31.497  24.979  14.280
51156W        W14715  34.025  16.812   1.224
51157W        W14716  22.607  22.554  13.461
51158W        W14717  34.469  18.644   3.676
51159W        W14718  42.986   4.834   2.737
51160W        W14719  12.627   8.221  12.967
51161W        W14720  27.127   8.400  14.931
51162W        W14721   3.369  32.987  14.791
51163W        W14722  18.702  42.449   1.802
51164W        W14723  27.084  17.789   0.387
51165W        W14724  41.903  29.454  14.777
51166W        W14725   6.359   5.203  13.362
51167W        W14726  17.796  37.540  11.525
51168W        W14727  41.042  24.619   2.694
51169W        W14728  38.523   0.980   2.831
51170W        W14729   9.209   3.272   0.933
51171W        W14730  23.199  22.137   3.733
51172W        W14731  36.968  14.687  14.409
51173W        W14732  14.288  25.039   2.752
51174W        W14733  22.088  39.439   0.928
51175W        W14734  39.544  22.579  11.893
51176W        W14735  38.498   6.190   1.298
51177W        W14736  35.444  41.422  11.108
51178W        W14737   7.190  38.569  11.448
51179W        W14738  13.308  35.444  11.913
51180W        W14739  12.829  15.205  11.910
51181W        W14740  28.443  28.639   4.835
51182W        W14741   3.300  31.125  10.963
51183W        W14742  36.491   0.438   1.323
51184W        W14743  10.739  37.381   3.293
51185W        W14744   0.467  31.576   2.199
51186W        W14745  12.626  15.233   4.695
51187W        W14746  44.483  17.656  10.632
51188W        W14747  28.584  44.493   3.639
51189W        W14748  20.661   3.401   2.844
51190W        W14749  38.414  33.456  11.556
51191W        W14750  39.930  26.190   3.379
51192W        W14751  40.435  12.314  11.019
51193W        W14752  18.098  38.340  12.828
51194W        W14753  20.142   8.200  14.416
51195W        W14754  41.992  23.126  11.988
51196W        W14755  26.987  14.170   4.770
51197W        W14756  26.580  42.947   4.345
51198W        W14757  27.049  38.464   1.216
51199W        W14758   3.814  36.066  14.788
51200W        W14759  25.105  42.787  10.507
51201W        W14760  41.854   8.326   3.677
51202W        W14761  28.564  11.205   1.447
51203W        W14762  38.415   1.764   2.415
51204W        W14763  43.424   1.908   2.895
51205W        W14764  36.861   1.873  10.555
51206W        W14765  14.171   8.891  13.013
51207W        W14766  25.963  21.028  11.433
51208W        W14767  32.968  44.797   3.292
51209W        W14768  14.203  11.782   0.800
51210W        W14769  10.180   3.900   4.194
51211W        W14770   3.758  42.918   3.846
51212W        W14771   0.468  13.187   1.253
51213W        W14772  21.210  21.685   2.288
51214W        W14773  39.830  14.196   4.200
51215W        W14774  37.901  24.660  14.893
51216W        W14775  43.932  22.172  12.958
51217W        W14776   6.428  18.787  14.021
51218W        W14777  11.866  23.167   2.803
51219W        W14778  32.548  38.536  10.406
51220W        W14779  43.016  21.650   3.321
51221W        W14780  10.674  24.059   0.759
51222W        W14781  38.827  13.782   4.136
51223W        W14782  40.331  21.222   2.848
51224W        W14783   2.938   8.689   0.424
51225W        W14784   3.263   8.372   3.822
51226W        W14785  28.989  20.090   4.672
51227W        W14786   7.761  32.090  11.872
51228W        W14787  33.623  10.323   0.819
51229W        W14788  31.922  38.978   0.275
51230W        W14789  29.975  34.378   2.272
51231W        W14790  33.440  30.634   4.252
51232W        W14791  25.679  13.610  13.409
51233W        W14792  41.921  38.892   2.675
51234W        W14793  27.172  18.137   1.704
51235W        W14794  11.868   0.400   4.164
51236W        W14795  28.454  42.289  14.949
51237W        W14796  18.770  24.004  14.918
51238W        W14797   9.852   8.673  13.966
51239W        W14798  42.368  43.425   3.278
51240W        W14799  31.052   9.815  11.439
51241W        W14800   3.251  35.008   2.809
51242W        W14801  15.265  13.801  11.955
51243W        W14802   6.343  41.533  14.759
51244W        W14803  20.645   2.298  13.498
51245W        W14804  22.018  10.729  10.599
51246W        W14805  16.213  13.715   3.639
51247W        W14806   8.809  30.570   2.720
51248W        W14807  31.083  33.100  14.848
51249W        W14808   7.782   6.349   2.324
51250W        W14809  34.024  24.588   0.937
51251W        W14810  21.666  22.684  13.430
51252W        W14811  30.001  39.343   0.440
51253W        W14812  23.561  13.138  11.582
51254W        W14813  15.246  22.091  11.889
51255W        W14814  42.994  42.967  13.310
51256W        W14815  36.464  34.881  10.952
51257W        W14816  21.155  33.621  12.068
51258W        W14817   3.433  34.388  11.387
51259W        W14818   8.301   6.843   4.726
51260W        W14819   1.817  41.538   4.681
51261W        W14820  10.320  19.150  11.494
51262W        W14821   9.371   4.840  10.568
51263W        W14822  32.444   5.871   4.801
51264W        W14823  11.309  19.085   0.423
51265W        W14824  24.979   7.808  13.924
51266W        W14825  37.977  35.467  11.568
51267W        W14826  22.046  18.213  12.579
51268W        W14827  42.030   6.416  11.537
51269W        W14828  16.737  36.446  11.373
51270W        W14829  14.310  23.599  14.983
51271W        W14830  36.058   6.239  11.598
51272W        W14831  11.321  29.046   0.780
51273W        W14832  37.858  15.316   3.690
51274W        W14833   5.891   0.367  11.036
51275W        W14834  17.581  40.807   4.288
51276W        W14835  33.503  41.533  12.374
51277W        W14836  16.601  23.049   4.200
51278W        W14837  38.353  43.765   3.824
51279W        W14838   9.865   4.234  13.506
51280W        W14839  11.344  43.771   0.259
51281W        W14840   5.900  31.045  14.477
51282W        W14841  26.966  13.816   3.305
51283W        W14842  41.929  17.230   3.724
51284W        W14843  21.076  42.439   2.262
51285W        W14844  35.439  35.582   3.791
51286W        W14845  41.323   7.214  14.288
51287W        W14846  33.098  10.353  10.527
51288W        W14847   5.819  29.611  12.958
51289W        W14848  29.646  42.938   5.210
51290W        W14849  37.021  36.883   1.725
51291W        W14850  14.790  32.047  14.367
51292W        W14851  16.702  29.486  10.994
51293W        W14852   8.254  15.700   0.369
51294W        W14853  26.045  42.821  10.456
51295W        W14854  19.699  42.826   2.232
51296W        W14855  25.219   1.316  11.970
51297W        W14856  23.667  21.162   0.749
51298W        W14857  34.505  25.210  14.913
51299W        W14858  18.260  10.764   0.306
51300W        W14859  29.148  39.024   3.768
51301W        W14860   1.442  17.301  11.375
51302W        W14861  29.665  14.711  14.900
51303W        W14862  33.502   7.792  13.823
51304W        W14863   4.698  16.253   2.180
51305W        W14864  28.075  33.446  14.027
51306W        W14865  25.142  14.258   2.314
51307W        W14866  31.519  14.145   0.411
51308W        W14867   5.879   2.392  14.309
51309W        W14868   3.899  28.666  14.780
51310W        W14869  30.118  15.708   0.926
51311W        W14870   4.910  30.619   4.660
51312W        W14871  36.579  42.805   1.337
51313W        W14872   4.360  23.038   0.288
51314W        W14873  21.169  31.960  11.051
51315W        W14874  43.813  17.195   2.281
51316W        W14875  28.008  21.564   1.853
51317W        W14876  24.646   0.377   3.338
51318W        W14877  10.230  29.157  11.501
51319W        W14878  20.578  37.888   2.791
51320W        W14879  44.799  14.830  11.575
51321W        W14880  21.635  26.086  12.828
51322W        W14881  18.117   8.349   1.444
51323W        W14882  37.458  36.003  13.808
51324W        W14883  35.462  32.963  14.372
51325W        W14884  10.247   1.928   3.163
51326W        W14885  16.112  31.515   4.157
51327W        W14886  14.696  40.439  10.620
51328W        W14887  21.720   2.286  13.921
51329W        W14888  28.544   5.242   0.843
51330W        W14889  12.691   1.390  13.035
51331W        W14890  15.803  28.556  12.455
51332W        W14891   0.410   7.795  11.447
51333W        W14892  13.630  44.274   0.441
51334W        W14893  37.372  37.933   0.421
51335W        W14894   8.390  27.974  12.993
51336W        W14895  28.970  32.107  11.112
51337W        W14896  28.017  36.453  12.438
51338W        W14897  34.583  29.669   0.267
51339W        W14898  25.667   9.821   3.674
51340W        W14899  29.627  12.348  13.031
51341W        W14900   5.310   5.248   2.285
51342W        W14901  39.064   8.221  13.053
51343W        W14902  17.564  19.264  10.498
51344W        W14903  14.784  29.607  14.447
51345W        W14904  14.288  10.367   3.300
51346W        W14905   1.952  28.554  13.978
51347W        W14906   5.293   9.357   2.272
51348W        W14907  43.513  26.060   4.296
51349W        W14908  20.766   1.418   0.268
51350W        W14909   3.865   5.726  10.887
51351W        W14910   3.722  16.771   0.299
51352W        W14911  41.480  16.753   0.754
51353W        W14912  44.366   6.680   1.850
51354W        W14913   2.258  14.734  13.810
51355W        W14914  37.552  41.366   4.242
51356W        W14915   8.878   7.325   3.805
51357W        W14916  34.903   8.343   4.600
51358W        W14917  33.088  32.416  13.407
51359W        W14918  37.564  18.199  11.429
51360W        W14919  18.168   4.422   4.210
51361W        W14920  13.818  21.075  10.446
51362W        W14921  25.554  14.291  13.038
51363W        W14922  10.228  42.808  10.416
51364W        W14923  38.565  14.335  13.825
51365W        W14924  18.644   9.706   0.937
51366W        W14925  29.474   6.827   3.327
51367W        W14926  29.446  10.231   4.725
51368W        W14927  31.473  32.596  14.884
51369W        W14928  43.319  35.566  12.885
51370W        W14929  31.570   5.344   4.309
51371W        W14930   2.226  32.627  13.880
51372W        W14931  44.393  35.423  12.463
51373W        W14932  17.616  25.493   2.877
51374W        W14933  25.635  16.606   1.920
51375W        W14934  30.108  15.155  12.942
51376W        W14935  18.622  18.788  10.914
51377W        W14936  32.559  41.893  13.420
51378W        W14937  14.632  43.895   0.451
51379W        W14938  38.891  27.549   1.222
51380W        W14939  16.731  15.141   1.766
51381W        W14940  41.387   9.169   4.795
51382W        W14941   9.330  28.130   0.308
51383W        W14942   4.323   2.334  13.855
51384W        W14943  25.601   9.690  14.970
51385W        W14944  17.238  11.325  14.334
51386W        W14945  14.296  41.339   2.305
51387W        W14946  34.487  38.908  10.097
51388W        W14947  19.687   0.273   4.682
51389W        W14948   6.309   6.833  10.445
51390W        W14949  31.906   1.297   4.135
51391W        W14950  42.866  11.670  12.996
51392W        W14951  10.664  30.624  14.337
51393W        W14952  43.800   3.908   4.828
51394W        W14953  33.596   7.179   5.222
51395W        W14954  26.098  12.722  12.010
51396W        W14955  15.199  36.383   0.330
51397W        W14956  32.565   8.842  13.319
51398W        W14957  33.485  12.197   5.134
51399W        W14958  25.001  15.111   2.260
51400W        W14959  15.190  38.546  14.387
51401W        W14960   2.774   4.766  14.336
51402W        W14961   6.872  28.009  13.515
51403W        W14962  19.162  25.691   0.355
51404W        W14963   3.872  24.063   3.683
51405W        W14964  35.104  29.566  14.014
51406W        W14965   6.425  12.821  14.461
51407W        W14966  24.980  16.103   3.303
51408W        W14967   4.702   1.740  14.027
51409W        W14968   1.443  22.044   0.321
51410W        W14969  10.339  15.219  13.982
51411W        W14970  31.449   5.765   4.647
51412W        W14971  14.327  31.451  14.922
51413W        W14972   8.807  32.455   2.886
51414W        W14973  13.704  25.189  11.992
51415W        W14974  42.936  33.999   1.781
51416W        W14975  22.718  39.546   3.165
51417W        W14976  24.026   7.173   9.957
51418W        W14977   6.865   9.728   2.294
51419W        W14978   4.719  21.639  12.560
51420W        W14979  41.394  10.327  14.404
51421W        W14980   8.754   2.875   0.802
51422W        W14981   9.158  15.771   2.859
51423W        W14982  27.471  21.655  13.546
51424W        W14983  25.609   4.931   3.658
51425W        W14984  20.105   6.702   0.775
51426W        W14985  24.714  38.920  13.327
51427W        W14986   7.370  21.589  11.574
51428W        W14987  22.037  23.518   4.319
51429W        W14988  30.453  16.247   4.640
51430W        W14989  17.581  43.498  11.875
51431W        W14990  42.907  25.509  11.553
51432W        W14991  26.020  30.118   3.252
51433W        W14992  42.864  15.088   0.450
51434W        W14993  23.523  34.946   4.213
51435W        W14994   5.842  27.960  10.587
51436W        W14995  18.261  28.507   2.852
51437W        W14996  10.272  11.724   1.849
51438W        W14997  44.395  13.636   0.283
51439W        W14998  14.765  28.655  10.411
51440W        W14999  22.624  42.880  10.578
51441W        W15000   5.346  26.673  13.866
51442W        W15001  36.071   0.852  11.910
51443W        W15002  30.994   6.427   3.867
51444W        W15003  23.660  39.502   0.812
51445W        W15004  23.726  19.141   0.891
51446W        W15005  23.130   2.960   1.259
51447W        W15006  33.444  22.600  11.583
51448W        W15007  33.983  36.459  11.520
51449W        W15008  19.752  34.396  11.068
51450W        W15009   8.694   0.403   1.435
51451W        W15010  22.565   8.270  14.792
51452W        W15011  11.129  12.677   9.475
51453W        W15012  27.029  18.245   3.321
51454W        W15013  24.114   8.824  12.845
51455W        W15014   8.177  28.026   1.276
51456W        W15015  23.054  37.855   1.883
51457W        W15016  39.396  36.416  13.488
51458W        W15017  17.772   1.371   2.683
51459W        W15018  38.504  32.087  11.003
51460W        W15019  19.543  41.031  12.942
51461W        W15020  25.137   2.721   3.291
51462W        W15021  24.001  32.433  11.521
51463W        W15022  12.769   5.794   4.644
51464W        W15023  24.057  13.163   3.354
51465W        W15024   7.795   2.825  12.839
51466W        W15025  19.040  29.025   5.273
51467W        W15026  17.300  24.990  12.889
51468W        W15027  23.985  41.035  14.398
51469W        W15028  29.654  31.956   2.241
51470W        W15029  42.809  34.504   0.295
51471W        W15030  26.160  24.657  14.892
51472W        W15031   0.490  42.414   3.262
51473W        W15032  40.842   0.462   4.760
51474W        W15033  36.569  30.533   4.193
51475W        W15034  30.087  27.089   4.733
51476W        W15035  24.092  44.335  11.502
51477W        W15036   5.859  33.874   1.425
51478W        W15037   5.279  32.005   3.757
51479W        W15038  18.664  24.080   5.119
51480W        W15039   8.836  19.679  10.948
51481W        W15040  17.605  15.813  12.542
51482W        W15041  35.980   3.881  12.005
51483W        W15042  30.909  42.472   2.328
51484W        W15043  41.950  41.504  11.877
51485W        W15044  44.899  36.857  13.545
51486W        W15045  38.412  38.978  10.930
51487W        W15046  30.026  10.214   4.775
51488W        W15047  12.690  39.981  13.979
51489W        W15048  17.617   6.218  11.397
51490W        W15049  28.675   1.394   1.403
51491W        W15050  26.115  12.752  12.557
51492W        W15051  32.580  29.024   0.765
51493W        W15052   4.931  32.459   0.259
51494W        W15053  28.061  11.738   5.188
51495W        W15054  11.258  23.702  14.762
51496W        W15055  28.661  34.515  14.320
51497W        W15056  41.297  42.385  10.951
51498W        W15057  41.300   1.884  12.570
51499W        W15058  20.119   6.762  14.787
51500W        W15059  18.670  16.649  14.369
51501W        W15060   1.251  42.872  11.515
51502W        W15061  43.305  38.959  10.457
51503W        W15062  22.583  19.130  11.055
51504W        W15063  39.533  22.659  11.462
51505W        W15064  11.689  12.842   3.150
51506W        W15065  39.412  15.631   3.259
51507W        W15066  40.861  27.526   3.374
51508W        W15067  19.599  30.021   0.800
51509W        W15068  37.340  40.431  12.959
51510W        W15069  13.173  34.444  14.975
51511W        W15070  39.055  17.613  13.447
51512W        W15071  29.561   7.798   3.702
51513W        W15072  20.589   4.361  10.937
51514W        W15073   0.305  21.096  10.471
51515W        W15074  11.751   5.764  13.995
51516W        W15075  24.604  33.621   4.175
51517W        W15076  44.358   3.350  14.918
51518W        W15077  27.987  12.683   5.308
51519W        W15078  17.753   2.727  11.885
51520W        W15079  22.731  20.676   4.710
51521W        W15080   4.398  40.378  13.922
51522W        W15081  19.726  30.522   0.268
51523W        W15082  17.064   6.233   5.151
51524W        W15083  35.070  41.942   0.306
51525W        W15084  16.797  36.064   4.599
51526W        W15085  33.470  12.838   1.257
51527W        W15086  26.065  15.766   3.672
51528W        W15087  14.708  32.553  11.891
51529W        W15088  42.031  19.632  12.487
51530W        W15089   0.261  10.175   0.328
51531W        W15090  41.912  34.562   1.293
51532W        W15091   4.934  21.056  13.410
51533W        W15092   3.396  27.608  13.339
51534W        W15093  13.781  16.223   3.673
51535W        W15094  11.828  21.674   1.264
51536W        W15095  17.749  28.619   4.151
51537W        W15096   5.931   9.862   0.288
51538W        W15097  19.063  38.406  13.859
51539W        W15098  20.567  36.979  12.486
51540W        W15099  30.513  23.224  14.421
51541W        W15100  38.506  37.067   3.237
51542W        W15101  28.640  41.841  12.883
51543W        W15102  11.360  41.900   3.748
51544W        W15103  41.503  29.428   0.248
51545W        W15104  11.785  14.260   1.300
51546W        W15105  21.564  29.100   0.412
51547W        W15106  34.953  14.326   3.192
51548W        W15107  18.702  26.571   1.873
51549W        W15108  10.267  30.518  12.053
51550W        W15109  31.483  44.881  11.959
51551W        W15110  13.277  25.167   1.297
51552W        W15111  34.985  36.483  13.858
51553W        W15112  32.578  10.656  14.870
51554W        W15113   9.308  36.888   4.279
51555W        W15114  35.574  34.493   0.442
51556W        W15115   2.937  28.466  12.447
51557W        W15116  18.261  22.045   2.383
51558W        W15117  28.186  28.104  11.942
51559W        W15118  32.550   4.403   2.888
51560W        W15119  30.965  19.727  13.919
51561W        W15120  20.173  37.562   5.195
51562W        W15121  12.255  43.771  14.829
51563W        W15122  12.617  34.482  14.505
51564W        W15123   2.434   2.945   0.324
51565W        W15124  10.267  24.226   2.344
51566W        W15125  37.915  39.003   0.770
51567W        W15126  30.099  40.323   9.998
51568W        W15127  44.320  22.083  10.907
51569W        W15128   9.827  16.602  14.330
51570W        W15129  10.738  36.095   0.352
51571W        W15130  44.881  44.419  10.919
51572W        W15131  10.363  29.478   0.431
51573W        W15132  16.749  11.726   4.793
51574W        W15133  41.826  12.349  11.958
51575W        W15134  23.137  19.659  13.537
51576W        W15135  18.790  27.446  13.539
51577W        W15136  24.483  29.452   1.870
51578W        W15137  11.226  36.373   0.935
51579W        W15138  39.954  15.631  14.891
51580W        W15139   2.902  22.011  13.813
51581W        W15140   5.352  13.777   0.413
51582W        W15141  36.441   3.827  12.029
51583W        W15142  25.535  35.888   3.237
51584W        W15143   3.365  41.820   3.744
51585W        W15144  33.624  31.477  11.606
51586W        W15145  26.165   1.823   1.448
51587W        W15146  27.547  39.482   1.352
51588W        W15147  23.537  37.473   4.710
51589W        W15148  36.550   5.286   1.338
51590W        W15149  13.793  13.749  14.878
51591W        W15150   2.911  28.455  14.824
51592W        W15151   8.190   9.796   2.309
51593W        W15152   4.382  37.852  13.360
51594W        W15153  40.536  44.899   4.281
51595W        W15154  29.169  35.453  11.983
51596W        W15155   1.476  32.606   4.692
51597W        W15156  12.180  26.132  13.393
51598W        W15157  30.412   4.841  13.991
51599W        W15158  30.483  19.535  11.556
51600W        W15159  37.550   6.873  11.037
51601W        W15160  38.830  12.783  13.405
51602W        W15161  12.680  33.069  13.947
51603W        W15162  25.093  12.348  14.395
51604W        W15163  22.236   6.769  11.424
51605W        W15164  33.505   7.290  12.068
51606W        W15165   4.440  40.915   1.338
51607W        W15166  39.556   8.187   0.912
51608W        W15167   0.751  28.481  13.971
51609W        W15168  43.853  35.018  12.032
51610W        W15169  31.564   8.238  12.087
51611W        W15170   9.855  17.153  13.017
51612W        W15171  12.733  12.118  11.058
51613W        W15172  27.995  14.644  12.033
51614W        W15173  22.656  33.094   0.250
51615W        W15174  24.524  39.538   4.749
51616W        W15175   7.242  36.854   0.835
51617W        W15176   1.384  27.950  14.426
51618W        W15177   7.695   0.862   4.601
51619W        W15178  35.407  24.522   2.701
51620W        W15179  31.546  18.644  12.463
51621W        W15180  30.114  25.076  11.112
51622W        W15181   0.894  14.107   2.240
51623W        W15182   0.450  42.004  11.064
51624W        W15183  32.478  29.575  12.981
51625W        W15184   6.698   0.902  13.007
51626W        W15185  34.008  43.776   0.404
51627W        W15186  25.069  13.655   4.312
51628W        W15187   9.184   7.846   3.731
51629W        W15188   3.721  21.086  10.904
51630W        W15189  16.318  13.686   2.253
51631W        W15190  19.757  30.414  12.882
51632W        W15191  24.631   7.743   3.267
51633W        W15192  27.658   7.363  11.040
51634W        W15193  44.984  43.511   0.287
51635W        W15194  18.200   8.869   2.756
51636W        W15195  16.732  35.943   3.349
51637W        W15196  33.093  18.174  14.845
51638W        W15197  27.083  26.496   3.799
51639W        W15198  44.788  17.716  12.423
51640W        W15199  21.630   5.779   4.143
51641W        W15200  17.622  37.997   4.816
51642W        W15201  23.129  34.498   2.726
51643W        W15202  35.477   5.783  14.858
51644W        W15203  11.231   2.451   0.317
51645W        W15204  38.839  38.413   1.418
51646W        W15205  21.725  42.304   3.362
51647W        W15206   8.895  29.604   3.298
51648W        W15207  14.709   8.746   1.214
51649W        W15208  22.092   4.795  12.839
51650W        W15209   2.842   2.821  14.442
51651W        W15210  17.190  11.161   3.849
51652W        W15211  32.402  27.974  12.424
51653W        W15212  36.872  10.708  14.458
51654W        W15213  27.644  23.728  13.482
51655W        W15214  23.018  39.851  12.448
51656W        W15215  12.639  29.424  13.826
51657W        W15216   1.932  23.505  10.606
51658W        W15217  13.119  10.871  14.967
51659W        W15218  11.648   6.783  11.007
51660W        W15219  41.493  11.788   0.285
51661W        W15220  43.864  29.161   3.857
51662W        W15221  26.013  12.264  14.770
51663W        W15222   4.212  36.518  12.531
51664W        W15223   7.191  14.096   2.285
51665W        W15224  26.173  25.697   2.847
51666W        W15225  29.611  32.930  14.352
51667W        W15226  17.300  29.971  10.526
51668W        W15227  23.626  29.929   1.336
51669W        W15228  37.903  29.949  13.020
51670W        W15229  13.745  25.035  14.027
51671W        W15230  42.828  27.991  14.889
51672W        W15231  12.635  25.031   1.928
51673W        W15232  44.946  39.050  13.867
51674W        W15233  16.574   5.866   4.268
51675W        W15234  40.798  39.405   0.293
51676W        W15235  21.710  35.459  10.996
51677W        W15236  27.981  17.222   9.957
51678W        W15237  18.182   9.885  12.902
51679W        W15238  17.591  28.967  12.440
51680W        W15239   8.266  36.493  14.513
51681W        W15240  40.354   6.811   2.416
51682W        W15241   1.819   7.821  13.386
51683W        W15242  38.443  25.031   2.386
51684W        W15243  37.529  24.636   3.805
51685W        W15244   5.411   7.393  13.959
51686W        W15245  13.653  29.996   3.645
51687W        W15246   9.851   7.856  14.797
51688W        W15247  30.093   5.697  14.345
51689W        W15248  25.696   1.253  14.983
51690W        W15249  38.952  22.576  14.443
51691W        W15250   3.372  40.946  12.952
51692W        W15251   5.366  44.896   0.856
51693W        W15252   6.376  32.419  10.600
51694W        W15253  30.532  13.341   2.407
51695W        W15254  44.478   0.436   0.479
51696W        W15255  15.318  12.614  13.384
51697W        W15256  27.073   2.826  10.600
51698W        W15257  26.633  43.829  12.025
51699W        W15258  20.166  35.566  11.925
51700W        W15259  21.754   6.319   2.296
51701W        W15260  31.073   4.385   2.381
51702W        W15261   1.797  41.029   2.276
51703W        W15262  39.469  11.204   2.874
51704W        W15263  33.930  33.618   4.701
51705W        W15264  41.295  37.054  12.397
51706W        W15265  23.110   2.945  13.330
51707W        W15266  18.561  44.874  14.843
51708W        W15267  38.954  37.877  12.365
51709W        W15268  18.577  21.699   3.799
51710W        W15269  26.118  20.153   1.757
51711W        W15270  36.933  14.157   0.418
51712W        W15271   5.337  10.382   1.319
51713W        W15272  36.377  23.668  12.092
51714W        W15273   1.292  26.540  12.508
51715W        W15274  33.508  35.510   4.178
51716W        W15275   3.932  29.637  13.543
51717W        W15276  42.481  42.314  13.339
51718W        W15277  31.100  30.501   4.688
51719W        W15278  31.021  15.105  12.463
51720W        W15279  35.498   6.784   0.256
51721W        W15280   7.176  36.426   2.845
51722W        W15281  38.448  23.728   2.711
51723W        W15282  31.901   8.669  12.523
51724W        W15283  33.914  24.169  11.088
51725W        W15284   6.296  34.083   1.217
51726W        W15285  39.429  13.618   4.218
51727W        W15286  27.448  32.427  13.929
51728W        W15287  31.903   8.200   3.218
51729W        W15288  34.608  19.681  13.015
51730W        W15289  10.357   7.276   4.342
51731W        W15290  29.592  36.008  13.941
51732W        W15291   7.752  35.879   9.969
51733W        W15292  11.672  10.300   3.697
51734W        W15293  14.755   9.300  11.600
51735W        W15294  20.643  33.091   2.210
51736W        W15295  26.516  44.423  12.890
51737W        W15296  27.461  30.031   1.281
51738W        W15297  36.397   6.384  11.382
51739W        W15298  25.108  38.345  13.463
51740W        W15299  41.922   6.309  14.908
51741W        W15300  36.469  36.465   3.778
51742W        W15301  27.541  32.907  14.879
51743W        W15302  34.454  29.443  13.354
51744W        W15303  18.708  15.223   0.805
51745W        W15304  33.957  43.401   0.452
51746W        W15305  14.262  21.072  10.003
51747W        W15306  24.024  38.011   3.750
51748W        W15307  41.331  35.367  12.936
51749W        W15308   1.815  19.631   0.292
51750W        W15309  30.623  15.218   4.649
51751W        W15310  24.604  30.019   2.410
51752W        W15311  43.504  21.517   0.291
51753W        W15312  23.711  14.281  13.809
51754W        W15313  34.403  39.453  13.955
51755W        W15314  31.080  37.967  12.538
51756W        W15315  20.552  11.654  12.575
51757W        W15316  12.139  12.190  13.986
51758W        W15317  41.459  43.425   4.828
51759W        W15318  35.916  10.678  13.962
51760W        W15319  38.408  30.145  10.050
51761W        W15320  16.127  26.129  10.018
51762W        W15321  20.583  23.543  11.451
51763W        W15322   6.358  41.802   4.275
51764W        W15323   7.770  20.560   3.366
51765W        W15324  24.028  39.858  13.486
51766W        W15325  20.111  42.516   2.724
51767W        W15326  38.820   0.763  12.558
51768W        W15327  18.611  37.861   2.356
51769W        W15328   6.260  35.431  13.411
51770W        W15329  37.944  44.006  10.998
51771W        W15330  22.624  32.457   3.280
51772W        W15331  22.724  35.524  12.015
51773W        W15332  20.112  44.335   2.839
51774W        W15333  22.079  43.333  11.101
51775W        W15334   4.724   1.907  14.901
51776W        W15335  29.088  33.921   1.715
51777W        W15336  35.010  42.374   1.417
51778W        W15337  14.236  44.338   4.209
51779W        W15338  39.969   5.906   1.308
51780W        W15339  38.018  23.610  11.536
51781W        W15340  26.610  22.683  14.453
51782W        W15341  18.107  29.591  10.486
51783W        W15342  32.476  30.618  12.573
51784W        W15343   1.852  16.136   1.426
51785W        W15344  37.493  34.420   4.170
51786W        W15345   6.825  29.934   4.766
51787W        W15346  17.087  43.452  11.411
51788W        W15347  31.578  40.963   3.276
51789W        W15348  28.596  30.071   4.819
51790W        W15349   8.821  16.099   4.738
51791W        W15350  29.947  44.449  12.557
51792W        W15351  21.159  26.957  13.480
51793W        W15352  36.501  24.492  14.493
51794W        W15353  28.523  38.497  11.061
51795W        W15354  30.464  27.984  14.802
51796W        W15355  25.679  36.023   4.735
51797W        W15356  17.681  20.103  13.421
51798W        W15357   1.277  44.375   1.833
51799W        W15358  22.157  20.124   4.762
51800W        W15359  12.290  30.134   4.176
51801W        W15360  16.566  35.921   0.419
51802W        W15361  19.608  41.817   4.199
51803W        W15362   8.743  19.196   1.873
51804W        W15363  38.880   3.779  14.474
51805W        W15364  33.502  24.048  14.308
51806W        W15365   8.218  37.990   1.266
51807W        W15366  12.347  15.083   0.405
51808W        W15367   7.757  24.055  10.424
51809W        W15368   7.244   1.338  13.370
51810W        W15369  14.786  14.813   4.774
51811W        W15370  25.087  39.404  13.901
51812W        W15371   5.372  25.573  11.563
51813W        W15372  29.082  34.528  12.364
51814W        W15373   5.436   0.865  12.421
51815W        W15374  27.607  44.964  11.877
51816W        W15375   2.237  40.385   1.330
51817W        W15376  24.090  42.493  14.307
51818W        W15377   8.164   3.945   2.775
51819W        W15378  22.222  31.542  10.616
51820W        W15379  11.163  34.005   4.804
51821W        W15380   7.351  30.057  12.446
51822W        W15381  11.212  25.135  11.966
51823W        W15382  11.823  40.421   1.735
51824W        W15383  32.598  23.557  13.899
51825W        W15384  43.373  44.847  11.883
51826W        W15385   7.216  18.609   3.758
51827W        W15386  29.549  32.074  10.580
51828W        W15387  23.544   1.392  10.908
51829W        W15388  11.258   7.254   9.619
51830W        W15389  30.427  31.547   2.806
51831W        W15390  11.308  39.929   1.433
51832W        W15391   1.445  45.000   0.933
51833W        W15392  41.935   6.828  10.907
51834W        W15393   6.316   5.817   0.361
51835W        W15394  29.012   4.723   1.409
51836W        W15395  24.658  13.641   0.448
51837W        W15396  20.081  33.418   3.348
51838W        W15397  35.441   5.323  10.561
51839W        W15398   6.240  32.421   1.302
51840W        W15399  31.439   9.708  13.936
51841W        W15400  15.163  15.738  14.761
51842W        W15401  28.564  36.414  11.914
51843W        W15402  31.046  41.823   4.136
51844W        W15403  42.915   6.900  12.384
51845W        W15404  11.637   7.772   0.346
51846W        W15405  31.519  41.986  14.489
51847W        W15406  36.361  33.447   3.713
51848W        W15407  17.241  18.188  14.031
51849W        W15408  38.831   4.737   5.218
51850W        W15409  27.071   6.736  14.826
51851W        W15410   0.312  38.011   2.276
51852W        W15411  44.433  14.099  11.593
51853W        W15412  27.517  35.000   4.837
51854W        W15413  12.125   2.255   4.167
51855W        W15414  18.155  27.535   4.760
51856W        W15415  21.093  34.515   2.262
51857W        W15416  15.695  15.324   2.320
51858W        W15417  17.701  18.262  13.315
51859W        W15418  26.187  29.555   2.847
51860W        W15419  23.124  14.627   3.249
51861W        W15420  22.510  38.075   3.195
51862W        W15421  30.929  28.584  12.515
51863W        W15422  33.948  36.855  11.539
51864W        W15423  39.040  11.743  11.027
51865W        W15424  39.823  18.248  11.039
51866W        W15425  12.758   4.412   4.311
51867W        W15426  34.520   0.284   1.797
51868W        W15427   8.207  21.124  14.799
51869W        W15428  18.150  44.409   1.294
51870W        W15429  28.945  24.495   3.678
51871W        W15430  35.566  27.024  11.560
51872W        W15431  22.736  25.623   4.645
51873W        W15432  20.159  17.165  11.373
51874W        W15433   5.821  20.160   3.385
51875W        W15434   0.484  20.669  12.419
51876W        W15435  30.548  16.127  12.053
51877W        W15436  34.044  11.324   3.286
51878W        W15437  42.020  12.649   4.242
51879W        W15438  12.738  23.507   1.744
51880W        W15439  42.483  42.859  11.973
51881W        W15440  42.945  12.796  13.494
51882W        W15441  39.444  33.531   5.706
51883W        W15442  20.667   2.256  13.063
51884W        W15443  41.028  28.469   1.300
51885W        W15444  21.589  14.610   1.421
51886W        W15445  36.482  26.589   4.819
51887W        W15446  18.722  38.826  13.506
51888W        W15447  19.111  37.569   4.122
51889W        W15448  20.565  30.638  13.416
51890W        W15449  31.459   5.231   4.772
51891W        W15450  27.108  30.529   2.252
51892W        W15451  33.914   8.874  11.416
51893W        W15452   4.729  33.901  12.921
51894W        W15453  23.230   6.181   2.388
51895W        W15454  18.223  30.652  13.473
51896W        W15455  34.119  42.832   3.319
51897W        W15456  10.329  31.132  13.802
51898W        W15457   3.236   1.480   1.363
51899W        W15458  40.511  13.194   2.845
51900W        W15459   0.470  18.236  10.974
51901W        W15460  22.142  35.422   3.347
51902W        W15461  23.140  15.255   4.760
51903W        W15462  15.700  42.967   4.654
51904W        W15463  18.281   3.372   1.718
51905W        W15464  44.854  40.869   4.664
51906W        W15465  26.625  10.752   4.150
51907W        W15466  14.320  29.613   1.723
51908W        W15467   8.385  20.097  13.466
51909W        W15468  12.721  12.250   0.316
51910W        W15469   1.337  25.499   4.807
51911W        W15470  22.101  43.986   4.248
51912W        W15471  24.719  24.175   4.342
51913W        W15472  26.994  22.106   0.421
51914W        W15473  28.107  16.185   0.851
51915W        W15474   1.748  14.321   2.324
51916W        W15475  29.947   8.186  14.367
51917W        W15476  33.889  38.360  14.853
51918W        W15477  32.516  30.630  10.111
51919W        W15478  32.977  37.070  10.435
51920W        W15479  37.564  29.515  11.448
51921W        W15480  28.946  14.175   2.358
51922W        W15481  15.675  27.596   3.182
51923W        W15482  19.575  34.921   1.904
51924W        W15483  34.907  32.613   0.797
51925W        W15484  38.394  33.036   0.374
51926W        W15485  42.936  36.584   4.791
51927W        W15486  42.980   2.277   5.082
51928W        W15487  35.548   7.202  11.929
51929W        W15488  42.399   8.762  11.427
51930W        W15489  32.943  10.776  12.921
51931W        W15490  19.549  36.060   2.738
51932W        W15491  30.556  22.084  11.610
51933W        W15492  22.672  16.705  10.116
51934W        W15493  35.461  15.183  11.575
51935W        W15494  18.741  31.936   4.238
51936W        W15495   4.778   3.438   1.303
51937W        W15496  41.305   6.856   4.234
51938W        W15497  36.842  31.990   9.503
51939W        W15498  44.504  29.006  14.968
51940W        W15499  42.519  41.487   1.373
51941W        W15500  42.880  11.362   1.859
51942W        W15501  30.463   2.264   2.236
51943W        W15502  42.936   2.774   3.737
51944W        W15503  28.129  21.715  13.391
51945W        W15504  27.015   9.159  10.990
51946W        W15505  19.773  22.204  12.393
51947W        W15506   6.210  42.510  14.302
51948W        W15507  25.629  28.474   0.937
51949W        W15508  17.107  35.445  13.803
51950W        W15509  13.254  18.659  11.071
51951W        W15510  17.740  10.322   2.362
51952W        W15511  31.518  20.268   1.279
51953W        W15512  22.015   4.795  14.496
51954W        W15513   8.252  14.260   3.242
51955W        W15514  22.193  14.806  10.592
51956W        W15515  26.090   8.779  10.464
51957W        W15516   8.683  13.716   0.951
51958W        W15517  23.600  37.853   0.474
51959W        W15518  19.668  25.497  10.426
51960W        W15519  30.009  33.038  12.987
51961W        W15520  10.255  41.430   2.187
51962W        W15521  36.529   1.273   0.430
51963W        W15522   2.724   5.269   2.878
51964W        W15523  35.031  13.666  10.968
51965W        W15524  21.743  38.055  12.541
51966W        W15525  35.952  15.121  11.385
51967W        W15526  28.020  38.918   2.222
51968W        W15527   5.317  44.336  10.892
51969W        W15528  23.496   0.363   3.288
51970W        W15529  32.578  33.040   4.607
51971W        W15530  39.842  40.372   2.382
51972W        W15531  19.209  15.635  12.405
51973W        W15532  25.111  33.967  11.605
51974W        W15533   4.715  10.674  14.290
51975W        W15534   6.871  31.129   3.274
51976W        W15535  19.174   3.737  11.508
51977W        W15536   2.788  23.656  11.533
51978W        W15537  16.134  14.152  12.576
51979W        W15538  24.576  13.717   3.736
51980W        W15539  29.932  32.062  14.909
51981W        W15540   2.939  15.736   0.387
51982W        W15541  27.568  29.103  14.959
51983W        W15542  43.816   1.762   1.279
51984W        W15543   9.865  10.346   1.326
51985W        W15544   6.913  22.666   1.389
51986W        W15545  38.486   3.227   0.898
51987W        W15546  26.133  10.759  13.507
51988W        W15547  24.480   2.764   2.711
51989W        W15548  33.982  35.894  10.500
51990W        W15549  30.969  24.059   2.690
51991W        W15550  21.524  13.797  11.526
51992W        W15551  43.487  28.150   1.862
51993W        W15552  43.420  11.361  10.411
51994W        W15553  29.586  13.263   1.225
51995W        W15554   3.823  35.560  11.575
51996W        W15555  28.096   6.218   5.207
51997W        W15556  32.631   2.305  14.859
51998W        W15557  40.870   3.826   4.769
51999W        W15558  33.596  17.229  10.901
52000W        W15559  19.235  37.433  14.972
52001W        W15560  22.695  21.746  14.477
52002W        W15561   9.799  27.535  11.973
52003W        W15562  13.338  20.734  12.439
52004W        W15563  22.575  23.985  10.998
52005W        W15564  31.575   8.346   4.325
52006W        W15565   8.756  26.084  11.580
52007W        W15566  32.538   3.454  11.396
52008W        W15567  26.095  24.047  12.844
52009W        W15568  24.677  34.414  10.442
52010W        W15569  35.953  41.360  14.878
52011W        W15570  28.958  25.192  11.964
52012W        W15571  26.542  18.637  12.938
52013W        W15572  30.653   3.414   0.885
52014W        W15573  32.553  42.402  13.807
52015W        W15574  20.729  40.343  12.861
52016W        W15575  11.856  29.168   1.715
52017W        W15576  28.034  18.608   2.793
52018W        W15577  25.593   4.389  12.923
52019W        W15578  20.571  25.074   0.727
52020W        W15579  19.535   9.857   2.199
52021W        W15580  44.780  18.642  12.363
52022W        W15581   0.292  29.956  13.878
52023W        W15582  44.498   0.303   0.871
52024W        W15583  21.117  26.491   5.103
52025W        W15584   5.734  11.816  11.452
52026W        W15585  37.405  33.906  11.931
52027W        W15586  37.438  14.099  11.918
52028W        W15587  35.518  13.172   3.275
52029W        W15588  15.204  28.511   2.222
52030W        W15589  22.698  41.026   4.694
52031W        W15590  25.693  10.205  11.496
52032W        W15591  35.960  12.760  12.009
52033W        W15592  33.905  44.982  12.394
52034W        W15593  44.965  39.508   0.439
52035W        W15594   2.315   6.339  10.587
52036W        W15595  24.204  43.900   4.271
52037W        W15596  34.104   4.260  11.941
52038W        W15597  26.193  22.555  11.575
52039W        W15598   4.893  39.021   2.756
52040W        W15599  37.059   7.368   3.810
52041W        W15600  12.127   8.878  12.475
52042W        W15601  13.694  41.044  12.473
52043W        W15602  27.555  28.464  12.989
52044W        W15603   5.803  10.757   2.847
52045W        W15604  44.444  29.462   4.297
52046W        W15605  16.617  12.320  11.010
52047W        W15606  15.220   6.341   3.223
52048W        W15607  26.955  21.077   1.935
52049W        W15608  32.907  16.594  13.354
52050W        W15609  16.618  44.479  10.019
52051W        W15610  21.235  12.223  12.344
52052W        W15611  20.552  32.502  13.852
52053W        W15612   3.782  16.806   2.830
52054W        W15613   5.436  39.476   2.883
52055W        W15614   7.843   2.226   1.811
52056W        W15615  26.632   9.329  10.145
52057W        W15616  16.117  28.098   4.699
52058W        W15617  36.956  18.677   3.651
52059W        W15618  43.315   6.754   0.444
52060W        W15619  30.099   2.395   2.179
52061W        W15620  11.857  10.788  12.045
52062W        W15621  31.412  31.489   4.790
52063W        W15622   6.804  38.426   0.751
52064W        W15623   5.406  17.742   4.263
52065W        W15624  41.419  42.808  14.811
52066W        W15625  16.597  23.226  14.874
52067W        W15626   5.902  27.452   2.349
52068W        W15627  30.947  18.595  14.387
52069W        W15628  13.747  28.484  13.459
52070W        W15629  12.219   8.222   2.409
52071W        W15630   7.185  19.060   2.316
52072W        W15631  19.268   8.354   3.689
52073W        W15632  34.567   5.293  12.939
52074W        W15633  14.186  33.397  10.442
52075W        W15634  21.226   6.922   3.354
52076W        W15635  17.222  23.537  13.805
52077W        W15636  36.564  37.884   0.464
52078W        W15637   2.408  39.810   1.836
52079W        W15638  30.588  36.512  10.927
52080W        W15639  21.229  14.115  11.021
52081W        W15640  12.166   4.314   1.927
52082W        W15641  39.848  12.751   3.330
52083W        W15642  21.064  12.224   2.220
52084W        W15643  33.111  22.572   4.146
52085W        W15644  44.000   5.284   0.470
52086W        W15645  42.010  19.104  14.335
52087W        W15646  24.518  35.958   2.811
52088W        W15647  16.807  35.947   2.698
52089W        W15648  23.730  42.391   2.864
52090W        W15649   9.743  29.471   4.130
52091W        W15650  19.047  29.517   3.365
52092W        W15651  37.574  34.468  12.434
52093W        W15652  26.588  37.846   2.387
52094W        W15653  29.126  43.789   1.928
52095W        W15654  35.450   9.663   2.808
52096W        W15655   2.328  26.558  12.991
52097W        W15656   6.326  40.923  13.001
52098W        W15657  17.107  22.081  14.413
52099W        W15658  18.580  40.337   2.230
52100W        W15659  35.410   5.901  12.366
52101W        W15660  12.806   6.193   1.844
52102W        W15661   5.427  43.395  13.064
52103W        W15662  34.965  37.371  13.030
52104W        W15663  32.459  41.015   2.325
52105W        W15664  17.228   1.936   2.875
52106W        W15665   8.301   3.353   1.928
52107W        W15666  37.398  10.149   5.136
52108W        W15667  19.685  30.630   5.209
52109W        W15668  16.212  31.550  13.388
52110W        W15669  25.213  23.067  14.425
52111W        W15670   1.270   0.256  10.992
52112W        W15671  16.161   7.202   1.871
52113W        W15672  28.493  41.524   4.825
52114W        W15673  26.541  26.675   4.650
52115W        W15674   8.680  35.499  10.595
52116W        W15675   9.333  20.594  11.400
52117W        W15676  25.071  43.000   5.228
52118W        W15677  33.543   9.659   2.811
52119W        W15678   6.877  13.644  14.284
52120W        W15679  39.973  34.523  11.393
52121W        W15680   6.356  19.181  14.821
52122W        W15681   0.752   8.373  10.989
52123W        W15682  37.038  40.383  13.828
52124W        W15683  37.352  23.574  10.927
52125W        W15684  17.179  32.028  11.443
52126W        W15685  34.877   7.280  12.920
52127W        W15686  41.918  18.646  13.502
52128W        W15687   4.226   8.769  11.577
52129W        W15688  25.616  27.104   0.936
52130W        W15689  17.134  44.952   1.252
52131W        W15690  24.639   5.729   4.124
52132W        W15691  15.713  32.626  11.909
52133W        W15692  22.152  24.067  10.564
52134W        W15693  43.790   3.922  12.958
52135W        W15694   8.703   9.154   1.404
52136W        W15695   5.331   3.723   3.172
52137W        W15696   3.864  10.666   4.185
52138W        W15697   1.906   5.328  10.526
52139W        W15698  17.747  41.481  11.022
52140W        W15699  15.147  22.123  14.838
52141W        W15700   7.185  33.977   2.361
52142W        W15701  16.745   6.827  13.438
52143W        W15702  42.856  15.320  13.465
52144W        W15703  22.536  30.479   5.141
52145W        W15704  29.093  15.644  13.420
52146W        W15705  17.565  33.523   2.242
52147W        W15706  30.465   3.861  11.942
52148W        W15707  43.502  23.622   2.215
52149W        W15708  14.214  34.524  11.492
52150W        W15709   4.905  40.303   2.793
52151W        W15710  21.205  40.842  11.999
52152W        W15711   1.783  16.305   2.783
52153W        W15712  12.279  19.617  13.939
52154W        W15713  10.869  16.180   0.300
52155W        W15714  30.088  32.054   3.334
52156W        W15715   6.336   2.856   1.223
52157W        W15716  43.332  30.998  14.824
52158W        W15717  32.487  31.015   1.930
52159W        W15718  32.456  34.947   3.729
52160W        W15719  39.819  30.956  12.350
52161W        W15720  34.992   8.295  11.375
52162W        W15721   0.357  39.982   4.178
52163W        W15722  22.518   9.171  12.981
52164W        W15723  13.607  17.177   1.310
52165W        W15724  12.160  17.300   2.732
52166W        W15725   0.894  10.633  13.423
52167W        W15726   9.216  33.974  14.292
52168W        W15727  39.828   3.274   1.301
52169W        W15728  38.051  42.403  12.393
52170W        W15729  21.156  19.260  14.869
52171W        W15730   0.426  17.102   3.255
52172W        W15731  35.565   0.868   1.835
52173W        W15732   5.222   3.412  14.783
52174W        W15733   2.936  22.613   3.339
52175W        W15734  11.794  10.863  10.159
52176W        W15735   8.851   8.840  14.953
52177W        W15736  31.117  23.656  12.502
52178W        W15737  44.261  33.433  13.441
52179W        W15738  39.555  38.456  12.862
52180W        W15739  28.531  40.025   4.278
52181W        W15740  28.099  28.632  14.965
52182W        W15741   2.231  27.466   2.285
52183W        W15742  18.290   9.363   4.709
52184W        W15743  30.142  28.182  11.559
52185W        W15744  33.060  30.053   2.182
52186W        W15745  25.178  20.550   2.756
52187W        W15746   3.950  33.914  12.952
52188W        W15747  20.077  21.072   2.331
52189W        W15748  32.132  17.686   2.754
52190W        W15749  27.003  31.438  12.911
52191W        W15750  14.132  14.695  13.847
52192W        W15751   6.877  21.051  12.078
52193W        W15752   5.764  30.916   3.350
52194W        W15753  30.499  36.875   3.253
52195W        W15754  11.771  41.860   1.723
52196W        W15755  13.241   0.365   2.835
52197W        W15756  12.643  14.746  14.436
52198W        W15757   5.394  38.469   3.863
52199W        W15758  25.193  15.112   2.762
52200W        W15759  38.870  25.173  11.946
52201W        W15760  19.172   9.799   0.483
52202W        W15761  19.132   5.707   4.642
52203W        W15762  16.584   2.922  14.941
52204W        W15763  12.245  14.128   4.152
52205W        W15764   0.453  31.110   4.297
52206W        W15765  43.009  26.636  12.979
52207W        W15766  35.973  42.825  12.997
52208W        W15767  30.577  14.819  14.405
52209W        W15768   6.900  34.474   0.363
52210W        W15769  27.186   1.482  14.426
52211W        W15770  28.145  10.347   0.307
52212W        W15771  20.060  44.413  11.463
52213W        W15772  40.431  32.624  10.511
52214W        W15773  11.239  43.437   1.375
52215W        W15774   2.377  43.479   1.321
52216W        W15775  38.494  33.518  12.578
52217W        W15776   5.204  12.727  10.577
52218W        W15777  32.107  39.934   3.845
52219W        W15778   4.933  18.066   2.693
52220W        W15779  32.992  10.277  13.345
52221W        W15780  14.310  26.145  14.943
52222W        W15781  39.821  31.960  13.916
52223W        W15782   1.372  39.951  12.488
52224W        W15783  13.207  19.179  10.530
52225W        W15784  35.449  35.589  12.345
52226W        W15785  35.585  30.913   4.308
52227W        W15786  31.024   9.374  12.363
52228W        W15787  11.182  16.173   0.848
52229W        W15788  44.961  44.964  10.424
52230W        W15789  12.267  32.933  14.021
52231W        W15790  10.228  25.573   4.134
52232W        W15791  34.521  43.017  12.904
52233W        W15792  21.668   4.428  10.501
52234W        W15793  21.700  32.539   3.720
52235W        W15794  19.285  27.652  10.599
52236W        W15795  16.678  31.409  11.519
52237W        W15796  29.028  19.566  12.451
52238W        W15797  16.167  25.618  13.431
52239W        W15798  23.629  15.099   3.662
52240W        W15799  36.091  34.988   4.712
52241W        W15800  38.072  42.913  14.918
52242W        W15801  32.457   1.884   3.207
52243W        W15802  26.570  37.084  14.390
52244W        W15803   6.280  43.430  11.007
52245W        W15804  40.494  18.782  13.381
52246W        W15805  14.318  15.714  11.992
52247W        W15806  18.162  24.060  11.588
52248W        W15807  29.513  22.124  13.952
52249W        W15808  11.204   0.823   0.897
52250W        W15809  10.707  39.359  13.982
52251W        W15810  44.417  36.056   4.308
52252W        W15811  26.023  10.787   1.251
52253W        W15812  44.952  27.046  14.334
52254W        W15813   6.364  13.173   0.849
52255W        W15814  14.673  42.492  11.104
52256W        W15815  19.053  23.010  10.912
52257W        W15816  17.155  14.168  14.818
52258W        W15817  16.217  43.787  14.378
52259W        W15818  20.606  29.975  14.028
52260W        W15819  44.317  16.295   0.914
52261W        W15820  11.781  29.053   4.152
52262W        W15821   8.233   7.178  14.433
52263W        W15822   9.372   5.283  11.061
52264W        W15823   0.280  39.939  12.385
52265W        W15824  20.196  14.712  10.961
52266W        W15825  24.612  22.087  12.445
52267W        W15826  32.595  33.000   3.817
52268W        W15827  28.100   4.899  12.871
52269W        W15828  22.142  12.732  14.924
52270W        W15829  34.503  28.519   4.638
52271W        W15830   6.745  32.629   0.421
52272W        W15831   1.895  35.406   4.350
52273W        W15832  42.516  39.945   0.334
52274W        W15833  16.739   2.817   4.221
52275W        W15834   5.707   0.268  12.955
52276W        W15835  16.698  37.012  12.984
52277W        W15836  13.111   0.417  11.911
52278W        W15837  34.378  16.155  12.571
52279W        W15838  26.480  37.357   3.326
52280W        W15839  39.488  43.919  13.323
52281W        W15840  17.737  10.758  11.923
52282W        W15841  25.995  35.556   0.333
52283W        W15842   2.319  17.593  13.003
52284W        W15843   6.201  23.137  13.458
52285W        W15844  43.298   7.233  11.862
52286W        W15845  14.683  13.220   1.417
52287W        W15846  23.491  13.811  11.392
52288W        W15847  22.008  26.687  14.484
52289W        W15848  38.926  25.076  12.506
52290W        W15849  13.842  21.195   1.278
52291W        W15850  17.156   1.341  13.946
52292W        W15851  10.269   0.959  11.557
52293W        W15852  34.463  42.007   0.795
52294W        W15853   8.681  32.508   0.833
52295W        W15854  26.180  28.465  12.886
52296W        W15855  23.107  26.064   0.883
52297W        W15856   8.772  17.225   2.349
52298W        W15857  31.043  15.292   4.666
52299W        W15858  11.649  28.583  10.965
52300W        W15859  39.809  41.536   3.860
52301W        W15860   7.894  37.571   3.167
52302W        W15861  16.140  16.248   2.363
52303W        W15862  40.345  35.863   4.629
52304W        W15863  12.240  25.119   1.321
52305W        W15864  43.403  26.504  12.546
52306W        W15865  24.532   4.277   4.689
52307W        W15866  20.568  30.913  14.358
52308W        W15867  28.930  27.067   4.750
52309W        W15868  36.367   1.861   3.840
52310W        W15869  18.749  12.721   1.286
52311W        W15870  33.579   5.723   0.934
52312W        W15871  29.993   7.216   2.693
52313W        W15872  33.604  36.443  14.407
52314W        W15873  42.527  24.014   2.323
52315W        W15874   0.336  36.389  11.492
52316W        W15875  22.042   8.879   4.733
52317W        W15876  38.510   1.300   4.333
52318W        W15877  14.116  33.489   3.636
52319W        W15878  12.811  16.668  10.899
52320W        W15879  21.245  33.105  12.998
52321W        W15880  24.055  30.613  10.933
52322W        W15881  15.641  35.362   4.126
52323W        W15882  30.517  24.039  13.881
52324W        W15883   1.435  44.342  14.345
52325W        W15884  30.625  29.661   1.913
52326W        W15885   5.329  11.706  12.569
52327W        W15886  23.069   8.659  13.402
52328W        W15887  28.935   2.246   1.235
52329W        W15888  12.215  22.151  12.866
52330W        W15889   9.330  27.472   0.454
52331W        W15890  42.033   4.720   1.888
52332W        W15891   2.449  26.090  13.898
52333W        W15892  31.077   2.943  12.979
52334W        W15893  16.147  35.359   3.265
52335W        W15894  13.315   6.696  12.844
52336W        W15895  41.529  24.595   3.706
52337W        W15896  12.211  19.739   4.292
52338W        W15897  17.236   5.912  14.515
52339W        W15898  31.424   4.422   4.259
52340W        W15899  11.248  16.689  12.849
52341W        W15900   9.840  31.066  12.020
52342W        W15901  21.156  27.526  13.418
52343W        W15902  41.891   7.878   4.145
52344W        W15903  21.252   5.752  14.313
52345W        W15904   5.307  22.202   1.434
52346W        W15905  28.156  36.057  14.871
52347W        W15906  27.518  26.995   3.347
52348W        W15907  26.105  28.587   2.899
52349W        W15908  32.604   9.807  11.487
52350W        W15909   7.770  15.120  12.972
52351W        W15910  31.135  35.520  14.463
52352W        W15911  27.059  19.612  11.469
52353W        W15912  16.296  19.188   4.734
52354W        W15913  26.665  13.642   0.772
52355W        W15914  21.106  10.759   0.860
52356W        W15915  44.787   4.699   2.234
52357W        W15916   0.854  41.507   3.662
52358W        W15917  34.994  13.115   5.086
52359W        W15918  10.144  44.807   0.942
52360W        W15919  32.032  42.897   2.317
52361W        W15920   6.356   0.744   9.950
52362W        W15921   4.936   9.295   1.270
52363W        W15922   2.796   9.263   3.772
52364W        W15923  32.968  32.905  10.493
52365W        W15924  42.807  42.776   5.236
52366W        W15925   8.694  39.973  13.899
52367W        W15926  37.086  44.887  11.112
52368W        W15927  27.968   0.318  12.986
52369W        W15928  24.185  24.170  11.911
52370W        W15929  17.139  25.631   4.181
52371W        W15930  23.082   0.468  14.429
52372W        W15931  32.994  19.144   0.772
52373W        W15932  44.834  20.562  10.573
52374W        W15933  34.404  12.756   1.426
52375W        W15934  13.826  42.016  13.530
52376W        W15935  26.607   1.377   2.293
52377W        W15936  43.769  41.476  12.065
52378W        W15937   2.350  27.048   4.286
52379W        W15938  28.573  26.642   1.228
52380W        W15939  44.334   6.251  11.528
52381W        W15940  31.945  13.702   2.401
52382W        W15941  38.459  39.428  12.407
52383W        W15942  39.373  24.144   1.910
52384W        W15943   5.424  24.494   0.261
52385W        W15944  41.322  31.042  12.881
52386W        W15945  36.369  21.194  10.108
52387W        W15946  15.646  44.278   5.182
52388W        W15947  28.522  10.706   3.314
52389W        W15948  15.273   9.833   3.163
52390W        W15949  16.293  30.917   0.417
52391W        W15950  43.869  28.938  11.899
52392W        W15951  27.594  27.975   0.416
52393W        W15952   4.356  25.645  12.981
52394W        W15953  33.930  24.513   0.397
52395W        W15954  16.191  39.494  13.442
52396W        W15955  33.991  35.874  10.952
52397W        W15956  29.060  14.718  10.530
52398W        W15957  41.820  34.460   0.794
52399W        W15958  13.639   5.375   4.625
52400W        W15959  12.307  10.251   4.690
52401W        W15960  18.194   2.244   3.316
52402W        W15961  29.451  30.966  13.948
52403W        W15962  40.417  18.253   0.395
52404W        W15963  30.472  19.669  12.845
52405W        W15964  12.358   7.811   3.288
52406W        W15965   4.395  37.894   0.426
52407W        W15966  40.921  41.931   3.295
52408W        W15967   8.384   2.792  14.882
52409W        W15968   3.244   6.734   2.783
52410W        W15969  38.436  40.505  10.596
52411W        W15970  42.910   2.751   0.427
52412W        W15971   5.706  34.540  10.957
52413W        W15972  33.581   0.432  11.072
52414W        W15973  14.730  26.187   0.826
52415W        W15974  24.676  44.412  12.549
52416W        W15975  16.681   7.775   0.890
52417W        W15976   7.249  35.910   2.392
52418W        W15977   2.736  27.150   4.153
52419W        W15978  28.001   2.890  13.436
52420W        W15979  36.899  12.162   2.396
52421W        W15980  11.746  27.534  12.000
52422W        W15981  13.752   7.354   3.705
52423W        W15982  13.273   3.247   1.333
52424W        W15983   1.960   6.897  11.115
52425W        W15984  16.312   1.929  13.437
52426W        W15985  12.198  33.460  13.401
52427W        W15986   3.881  31.577   4.823
52428W        W15987  30.425  39.883  11.512
52429W        W15988  25.015  13.136   2.229
52430W        W15989   2.902  22.582  11.488
52431W        W15990   8.859  15.309  12.524
52432W        W15991   7.346   4.264   3.714
52433W        W15992  34.513  39.522  11.000
52434W        W15993  43.778   5.908  11.609
52435W        W15994  37.456  10.309  14.381
52436W        W15995   4.783  18.598   9.976
52437W        W15996  10.175  20.142   4.675
52438W        W15997   2.830   0.985  12.931
52439W        W15998   9.347  15.196   1.920
52440W        W15999  13.303  44.835   1.704
52441W        W16000  27.594  29.618   1.437
52442W        W16001   1.258  13.198  12.365
52443W        W16002  10.818  35.049   3.715
52444W        W16003  35.960  31.957  11.031
52445W        W16004  35.852  12.342  14.378
52446W        W16005   6.239  37.885  13.409
52447W        W16006  26.049   9.196  12.836
52448W        W16007  38.916  42.321  10.034
52449W        W16008  42.445  38.531   3.275
52450W        W16009  39.054  42.443   4.731
52451W        W16010  42.306  21.214  11.517
52452W        W16011   0.342   4.395  11.911
52453W        W16012  19.626  16.286   3.785
52454W        W16013  27.978  13.601   4.766
52455W        W16014  43.340  12.117  10.632
52456W        W16015  10.152  41.822   4.745
52457W        W16016  24.666   7.306  10.421
52458W        W16017  35.368   4.397   2.264
52459W        W16018  19.277  23.689  12.872
52460W        W16019   9.854  35.573  14.962
52461W        W16020  11.836   5.317  11.048
52462W        W16021  16.127  11.277  12.351
52463W        W16022  19.682  17.645   4.294
52464W        W16023  16.164   5.216   3.375
52465W        W16024   9.279   7.173  13.818
52466W        W16025  27.052  10.153  14.451
52467W        W16026  36.849  18.281   3.248
52468W        W16027  41.899  18.257   1.434
52469W        W16028  41.828  19.657   2.257
52470W        W16029   6.700  16.295   2.223
52471W        W16030  18.673  16.620   3.149
52472W        W16031  37.443  42.923   0.853
52473W        W16032  12.708  29.070   0.373
52474W        W16033  18.641  38.478   3.174
52475W        W16034  14.687  30.015  12.035
52476W        W16035   6.321  23.687   5.276
52477W        W16036  36.458  28.991   4.195
52478W        W16037  22.528  35.424  12.863
52479W        W16038  32.591  36.571  13.469
52480W        W16039   8.327  27.585  14.341
52481W        W16040  13.844   0.262   1.877
52482W        W16041  33.410  38.003  11.571
52483W        W16042  43.443  37.064  12.994
52484W        W16043  33.514  10.731  10.534
52485W        W16044  18.658  19.248  13.798
52486W        W16045   5.893  24.067  12.477
52487W        W16046  36.884  14.729  12.903
52488W        W16047  38.987  13.302  10.456
52489W        W16048  37.953  31.580   9.479
52490W        W16049   8.205  26.166   2.779
52491W        W16050   9.869  34.014   3.231
52492W        W16051  30.528  19.620  10.563
52493W        W16052  11.159  43.326   0.414
52494W        W16053  26.468  29.094   0.905
52495W        W16054  37.039  22.693  11.565
52496W        W16055  18.743  35.459   2.283
52497W        W16056  24.694  36.395  12.512
52498W        W16057   4.223  38.853  13.957
52499W        W16058  16.084  41.517   0.912
52500W        W16059  44.968  16.113   4.281
52501W        W16060  12.278  41.029  14.795
52502W        W16061  26.165  20.087  10.589
52503W        W16062  33.558  14.775  11.409
52504W        W16063  31.972  44.330   0.253
52505W        W16064  17.651  35.423   1.409
52506W        W16065  36.481   1.740  14.440
52507W        W16066  38.846  28.545   0.343
52508W        W16067  10.161  39.438   0.315
52509W        W16068   3.288  33.475  13.956
52510W        W16069  39.370  36.358  10.967
52511W        W16070  14.132   2.801   0.261
52512W        W16071  24.558   6.750   3.320
52513W        W16072  37.032  43.394  11.496
52514W        W16073   7.843  16.750  12.890
52515W        W16074  16.129  15.790  12.960
52516W        W16075  37.045  34.000  11.416
52517W        W16076  13.264  14.164   4.273
52518W        W16077   6.833  25.090   1.362
52519W        W16078  41.457  16.145  13.953
52520W        W16079  20.619  10.806  10.498
52521W        W16080  25.703  27.027  13.813
52522W        W16081   2.439  29.933   2.880
52523W        W16082   0.470   7.679   3.853
52524W        W16083  29.459  23.614  14.833
52525W        W16084  14.252   7.711  13.808
52526W        W16085  12.687  17.233  11.908
52527W        W16086  41.385  18.557   1.829
52528W        W16087  39.317  33.392   4.182
52529W        W16088   4.301   8.874  13.338
52530W        W16089   3.314   6.322   1.232
52531W        W16090   4.896  15.604  10.066
52532W        W16091  29.130   5.884   2.900
52533W        W16092  15.619  31.095   1.852
52534W        W16093   0.884  22.673   3.279
52535W        W16094  15.704   2.243   0.355
52536W        W16095  44.440   3.404   2.744
52537W        W16096   6.325  19.695  10.032
52538W        W16097  13.719   3.796   1.391
52539W        W16098  40.417   3.361   1.315
52540W        W16099  31.622  22.995   2.684
52541W        W16100  32.606   1.391  12.888
52542W        W16101  42.395  23.205  11.909
52543W        W16102  31.914  14.139   1.233
52544W        W16103  42.811  24.002   0.963
52545W        W16104   1.871   7.304  13.336
52546W        W16105  32.899  24.062   1.210
52547W        W16106   4.420   9.685  13.400
52548W        W16107  18.746  37.446  13.959
52549W        W16108  17.226  21.662  10.439
52550W        W16109   6.841  28.596  14.825
52551W        W16110  11.816   0.783   3.691
52552W        W16111   8.792  25.144  14.405
52553W        W16112   7.393  17.159   0.843
52554W        W16113  44.437  21.089  11.030
52555W        W16114  16.603  44.754   0.956
52556W        W16115  12.338  41.924  10.456
52557W        W16116  36.025   9.318  11.595
52558W        W16117   9.805  38.540   1.371
52559W        W16118  30.974  10.762  13.009
52560W        W16119   9.341  19.675   1.786
52561W        W16120  13.244  33.993  13.472
52562W        W16121  30.462   5.693  12.990
52563W        W16122  15.779   8.796  10.520
52564W        W16123  30.009  24.172  10.645
52565W        W16124  11.217  11.704  13.834
52566W        W16125  39.845  31.511  11.103
52567W        W16126   0.822  11.815  11.890
52568W        W16127  42.455  12.183  11.052
52569W        W16128  33.625   9.221   4.275
52570W        W16129  12.633  41.384  11.438
52571W        W16130  19.226  31.435   4.171
52572W        W16131  43.874  13.216  14.922
52573W        W16132  43.450  32.955   3.363
52574W        W16133  44.338   4.366   2.379
52575W        W16134   3.248  32.130   3.234
52576W        W16135  37.376  27.573   2.190
52577W        W16136   5.205   1.480   4.196
52578W        W16137   0.264  36.866   1.423
52579W        W16138  31.642  14.109  11.047
52580W        W16139  40.799   4.266   0.254
52581W        W16140   9.800   1.416  12.842
52582W        W16141  43.835  43.937  13.035
52583W        W16142  42.995  11.693  14.823
52584W        W16143   3.820  22.212   0.248
52585W        W16144   5.798  38.468   1.387
52586W        W16145   2.901  18.664   2.772
52587W        W16146  13.196  42.880   0.445
52588W        W16147  31.020  22.098   2.212
52589W        W16148  26.056  21.249   2.729
52590W        W16149   8.788  25.207  11.385
52591W        W16150  23.147  17.567  13.352
52592W        W16151  30.615  38.528   2.846
52593W        W16152  26.665  16.080   0.321
52594W        W16153  42.889  15.673  10.533
52595W        W16154  39.982  20.666   0.437
52596W        W16155  18.682   4.901  10.138
52597W        W16156  39.875  40.516  13.451
52598W        W16157  14.296   1.807  10.981
52599W        W16158  43.840  44.002  11.508
52600W        W16159  20.238  31.967   2.232
52601W        W16160  24.714  25.202  12.992
52602W        W16161  38.902   6.279   4.330
52603W        W16162  19.652   8.773  11.520
52604W        W16163   1.446  21.222   9.941
52605W        W16164  33.994  13.647   3.301
52606W        W16165  15.794  16.254   0.434
52607W        W16166  26.635  27.597   0.754
52608W        W16167  23.516   5.438   0.304
52609W        W16168  25.178  44.305  10.963
52610W        W16169  31.440  32.390  11.605
52611W        W16170  35.892   3.312  14.464
52612W        W16171  29.119  31.438   4.131
52613W        W16172  38.851  40.314   5.254
52614W        W16173   2.432  10.282   0.319
52615W        W16174  17.566  44.829   1.287
52616W        W16175  31.403  26.497   1.336
52617W        W16176   8.742  14.615   3.850
52618W        W16177  39.539  13.794   0.379
52619W        W16178  34.916  37.435  11.611
52620W        W16179  29.648  18.594  14.909
52621W        W16180  22.658  26.148   0.857
52622W        W16181  34.024   9.684   1.845
52623W        W16182   8.802  36.841  11.612
52624W        W16183  22.521   8.838   4.336
52625W        W16184  28.598  22.539  12.516
52626W        W16185  41.491  25.071   0.899
52627W        W16186  17.295  14.789  13.453
52628W        W16187  43.806  33.613  14.978
52629W        W16188  25.048  36.500  14.347
52630W        W16189  41.295  15.809  10.422
52631W        W16190   5.233  27.449   4.824
52632W        W16191  29.657  10.331   2.274
52633W        W16192   0.348  30.093  11.464
52634W        W16193  10.214  26.040   9.971
52635W        W16194  24.035  30.011   3.346
52636W        W16195  24.109  17.759  11.014
52637W        W16196   3.893   6.397  12.071
52638W        W16197  41.481  10.641   1.347
52639W        W16198  18.068  26.614   4.293
52640W        W16199  27.054  41.848   4.147
52641W        W16200  17.087  22.053   3.816
52642W        W16201   0.344  12.179   0.962
52643W        W16202  12.358  26.696   3.361
52644W        W16203   3.403  29.952   2.671
52645W        W16204  15.205   1.897   0.371
52646W        W16205  24.079  10.758   0.335
52647W        W16206  18.638  21.249  10.636
52648W        W16207  23.705  38.067  11.890
52649W        W16208  11.765  27.969  13.792
52650W        W16209  26.625  39.352   0.362
52651W        W16210  43.832  36.508  13.336
52652W        W16211  38.470  23.035   2.889
52653W        W16212  13.178  31.405   3.797
52654W        W16213  11.365   5.260  13.051
52655W        W16214  18.545   2.950   3.648
52656W        W16215   2.394  16.700  11.545
52657W        W16216  13.729   2.893   4.690
52658W        W16217  16.654  15.753   3.655
52659W        W16218  22.181   8.317   4.731
52660W        W16219   7.219  26.058   1.289
52661W        W16220   0.913  29.073  14.462
52662W        W16221  42.510   0.790  13.869
52663W        W16222  16.799  29.039   4.236
52664W        W16223   4.398   3.867  12.841
52665W        W16224  32.608   9.724  14.787
52666W        W16225  22.174  25.568   4.271
52667W        W16226   1.916  16.573   1.860
52668W        W16227  16.121  16.721  11.515
52669W        W16228  28.123  42.866   0.439
52670W        W16229  25.597   5.291   2.244
52671W        W16230  39.364  43.463   1.750
52672W        W16231   0.457  33.438  14.900
52673W        W16232  34.401  32.897   2.247
52674W        W16233  40.387  10.350   1.902
52675W        W16234  44.430  10.225  11.880
52676W        W16235  25.134  16.077  10.644
52677W        W16236  23.216  30.966   1.825
52678W        W16237  30.106  37.889   3.147
52679W        W16238  10.280  15.233   3.151
52680W        W16239  43.910  41.470  13.382
52681W        W16240   6.781  19.591   0.895
52682W        W16241  31.476  16.183  14.457
52683W        W16242  15.611  28.571   1.282
52684W        W16243  28.946  10.784   4.165
52685W        W16244   4.888  27.692  11.452
52686W        W16245  13.266   8.189   2.825
52687W        W16246  26.115  43.408   1.707
52688W        W16247  36.861  26.101   3.233
52689W        W16248   2.283  37.449  10.508
52690W        W16249   4.349  31.537   4.191
52691W        W16250  12.132  11.629   3.741
52692W        W16251  37.976  25.484  12.468
52693W        W16252  29.667  32.960   3.682
52694W        W16253  13.672  37.930   3.212
52695W        W16254   3.378  17.612  13.348
52696W        W16255  23.227  26.958   4.780
52697W        W16256  41.449  41.472  14.426
52698W        W16257  10.682  10.795   5.223
52699W        W16258  35.981  21.746   4.167
52700W        W16259  24.057  35.092   0.736
52701W        W16260  10.188  42.398  14.868
52702W        W16261  27.178  12.684   0.932
52703W        W16262  15.682  32.425  12.916
52704W        W16263  11.794  36.081  14.944
52705W        W16264  37.370  12.730   4.127
52706W        W16265   9.291  35.505   3.748
52707W        W16266  43.867  22.056   4.666
52708W        W16267  20.622  11.312   0.289
52709W        W16268  22.182  23.727  14.974
52710W        W16269   9.667  30.658  12.076
52711W        W16270   0.926  37.393  13.535
52712W        W16271  14.755  27.689   1.411
52713W        W16272  26.557  24.522   4.240
52714W        W16273  15.709   8.835  12.006
52715W        W16274   8.803   9.725  10.061
52716W        W16275  18.779  33.058  11.529
52717W        W16276  17.593  41.985  14.307
52718W        W16277  39.850   5.908   2.681
52719W        W16278  15.225  15.586  11.902
52720W        W16279   7.787  30.078   2.803
52721W        W16280  29.112  38.348   4.697
52722W        W16281  12.268  22.192   0.418
52723W        W16282  36.846   0.904   3.817
52724W        W16283  29.102   4.809   2.274
52725W        W16284   1.889   9.713   3.309
52726W        W16285  26.490  14.706   0.422
52727W        W16286  14.730  27.963   3.735
52728W        W16287  21.060  31.453  14.286
52729W        W16288   0.269  17.244  14.352
52730W        W16289  28.626  24.647   1.843
52731W        W16290  16.630   7.345  13.041
52732W        W16291   4.358   8.885  13.912
52733W        W16292  23.202  10.299   1.717
52734W        W16293  42.446  41.493  13.957
52735W        W16294  23.583  35.924  13.060
52736W        W16295  14.115  24.594   0.355
52737W        W16296  24.011  44.835   0.348
52738W        W16297   9.822  30.112  10.592
52739W        W16298  32.110  23.536   2.783
52740W        W16299  21.581   2.867   4.181
52741W        W16300  12.711  41.878   3.836
52742W        W16301  38.872  32.527   4.237
52743W        W16302   2.923  35.058  10.893
52744W        W16303  17.700  11.354  12.495
52745W        W16304   0.486   8.860   3.381
52746W        W16305  12.189   2.914  13.837
52747W        W16306   9.833  44.374   0.756
52748W        W16307  26.600   7.710   4.738
52749W        W16308  12.130  27.536   0.428
52750W        W16309  37.562   7.780   1.315
52751W        W16310  44.267  29.941   5.288
52752W        W16311  27.494  44.851  13.492
52753W        W16312  20.758  36.941   1.233
52754W        W16313  40.046  41.345   0.257
52755W        W16314  41.300  39.924  11.408
52756W        W16315  17.257  12.654  13.878
52757W        W16316  17.559  41.498   4.650
52758W        W16317  36.397  44.787  11.935
52759W        W16318   8.355  26.141   1.725
52760W        W16319  28.591  10.811   0.842
52761W        W16320   3.358   2.236   3.349
52762W        W16321   5.823  20.751   2.800
52763W        W16322  22.596   4.729   1.751
52764W        W16323  43.361  40.320   2.709
52765W        W16324  15.165  41.792  13.995
52766W        W16325  41.849  38.458   1.755
52767W        W16326   6.737  33.015   4.647
52768W        W16327  42.385  41.974  14.931
52769W        W16328  10.171  27.655   2.232
52770W        W16329  22.740  42.993   5.222
52771W        W16330  39.020   8.331   4.626
52772W        W16331  19.650  12.782   4.188
52773W        W16332   3.731  38.464  13.528
52774W        W16333   2.772  29.491   0.479
52775W        W16334  17.757  40.995   1.752
52776W        W16335   6.332  27.079   1.317
52777W        W16336  14.712   0.456  10.947
52778W        W16337  19.098  32.467   0.277
52779W        W16338  43.876   8.304   3.818
52780W        W16339   1.253   4.326   4.677
52781W        W16340   3.711  26.568   4.735
52782W        W16341  42.958  36.046   0.840
52783W        W16342  10.361  32.579  13.455
52784W        W16343   9.887   5.196  13.546
52785W        W16344  29.549  33.553  14.768
52786W        W16345  38.906  36.576  14.887
52787W        W16346  25.048  28.184  13.409
52788W        W16347   6.226   6.731   3.686
52789W        W16348  31.037  36.381   4.723
52790W        W16349  37.954  11.354  11.069
52791W        W16350  35.522  22.094   4.240
52792W        W16351  29.060  41.503   1.362
52793W        W16352  38.476  26.047   2.299
52794W        W16353  18.202  33.434   3.710
52795W        W16354  44.287  29.634  13.896
52796W        W16355  19.691  23.078   4.702
52797W        W16356  42.298  21.609  10.913
52798W        W16357  44.493  34.920  12.368
52799W        W16358  20.255   5.393  12.558
52800W        W16359   5.241  20.555   2.227
52801W        W16360  12.693  25.165  14.323
52802W        W16361  32.439  29.940  14.369
52803W        W16362  18.203  29.427   3.745
52804W        W16363  34.118  37.927   4.290
52805W        W16364  42.386  43.507  13.314
52806W        W16365   7.818  18.116   4.681
52807W        W16366  40.540  17.086  10.072
52808W        W16367  33.525  17.229   1.212
52809W        W16368  38.059  18.617  13.522
52810W        W16369  37.400  29.474   3.712
52811W        W16370   8.658  15.295   4.313
52812W        W16371  12.168  25.189  10.613
52813W        W16372  31.646  33.437   1.326
52814W        W16373  27.156  33.965  10.414
52815W        W16374  33.491   4.850   2.199
52816W        W16375  41.480   6.821  11.439
52817W        W16376  36.051  24.606   1.355
52818W        W16377  12.818   8.178  13.977
52819W        W16378  27.607  31.583  11.385
52820W        W16379  12.783  43.876   0.744
52821W        W16380  23.985  20.141   4.121
52822W        W16381  33.071   5.899  12.936
52823W        W16382  12.728  35.587   4.122
52824W        W16383  26.197  43.960   3.808
52825W        W16384   0.969  36.447  13.471
52826W        W16385  18.224  20.260   3.344
52827W        W16386  33.105  24.654   1.377
52828W        W16387  38.536  17.114   3.806
52829W        W16388  29.955   1.917   3.740
52830W        W16389  12.801  26.051  13.909
52831W        W16390  34.018  33.547  13.370
52832W        W16391  28.994   4.361   4.299
52833W        W16392   5.264  30.556   3.177
52834W        W16393  44.877  44.976  12.050
52835W        W16394  44.863  23.492  10.933
52836W        W16395  24.715  31.645   4.605
52837W        W16396  24.973  24.637  12.372
52838W        W16397  40.441  20.562   0.763
52839W        W16398   3.218   2.294  11.878
52840W        W16399  20.030  10.782   2.723
52841W        W16400  17.679  30.632  11.569
52842W        W16401   2.326  23.164   1.221
52843W        W16402  43.933  39.819   1.265
52844W        W16403   2.757  24.660  13.372
52845W        W16404  25.673  14.775  14.983
52846W        W16405  19.771   1.424   1.700
52847W        W16406  37.023  11.758  14.436
52848W        W16407   5.376  13.350  13.435
52849W        W16408  32.424   0.254  12.938
52850W        W16409  24.061  37.379   2.239
52851W        W16410  29.062  11.738   2.683
52852W        W16411  18.079  41.840  11.460
52853W        W16412   6.832  42.309  12.919
52854W        W16413  24.168  37.523  13.975
52855W        W16414   7.232   1.916  12.464
52856W        W16415  13.626  24.211   0.338
52857W        W16416  37.919  11.622   4.816
52858W        W16417   3.422   5.229  12.090
52859W        W16418  24.715  26.130   0.781
52860W        W16419  21.164  15.615  10.976
52861W        W16420  37.003  41.884  13.037
52862W        W16421  34.059  32.996   2.792
52863W        W16422  23.079   3.908   4.636
52864W        W16423  37.470  35.061  10.136
52865W        W16424  27.662  41.872   4.233
52866W        W16425  31.039   0.743  11.103
52867W        W16426  43.932  20.728   4.735
52868W        W16427  41.956  42.957  14.305
52869W        W16428  37.056  41.534  10.516
52870W        W16429  16.290  28.469  10.897
52871W        W16430  34.078  44.859   0.877
52872W        W16431  29.993  29.923   0.286
52873W        W16432  42.281  44.861   3.824
52874W        W16433  39.904  25.078  13.408
52875W        W16434  42.964  37.046  12.458
52876W        W16435  15.693  13.266   0.798
52877W        W16436  23.207  38.860   4.339
52878W        W16437  12.838  22.185  11.411
52879W        W16438   6.757  42.791   2.271
52880W        W16439  14.123   2.345   2.216
52881W        W16440  11.189  38.911  13.834
52882W        W16441  30.515  43.828   4.261
52883W        W16442  15.719  44.397   2.770
52884W        W16443  26.493  10.673  11.032
52885W        W16444  37.391  15.231  11.380
52886W        W16445  30.989  41.383  13.537
52887W        W16446   4.446  42.887  13.819
52888W        W16447  29.466  15.728  10.005
52889W        W16448  42.925  13.349  12.059
52890W        W16449  26.094  20.641   1.727
52891W        W16450  21.724  31.067   0.275
52892W        W16451  29.963  29.491  13.867
52893W        W16452  12.671  40.353   0.459
52894W        W16453  23.695   3.363   3.163
52895W        W16454  11.214  30.940  11.374
52896W        W16455  39.484  12.729   0.414
52897W        W16456  34.407  10.164  13.386
52898W        W16457   2.401  41.383   1.743
52899W        W16458  17.170  13.718  11.022
52900W        W16459   2.886  26.585   0.804
52901W        W16460  21.573  12.324  11.107
52902W        W16461  12.255  39.981  10.413
52903W        W16462  42.437  21.199  13.865
52904W        W16463  27.496  42.308   3.853
52905W        W16464  32.950  11.808  12.393
52906W        W16465   0.891   5.803   2.320
52907W        W16466  31.000  38.456   5.117
52908W        W16467  43.458  44.479   0.813
52909W        W16468  29.512  40.493  13.389
52910W        W16469   8.789  38.339   0.920
52911W        W16470  27.495   6.211   1.808
52912W        W16471  26.590  14.736  12.013
52913W        W16472  40.405  19.112   4.146
52914W        W16473  23.110  44.408  11.498
52915W        W16474   2.472  29.444  14.280
52916W        W16475  10.355  15.742   1.844
52917W        W16476  24.496  29.996  11.455
52918W        W16477  15.732  23.119   9.544
52919W        W16478  25.495  25.592   3.291
52920W        W16479   8.807   2.753  13.530
52921W        W16480  41.406   4.264  10.641
52922W        W16481  27.522  35.108   4.317
52923W        W16482  11.224  29.528  13.487
52924W        W16483  12.743  14.674  14.822
52925W        W16484  14.723  26.501  12.501
52926W        W16485  11.354   7.408   1.331
52927W        W16486   1.971  39.987   3.328
52928W        W16487  35.575  42.527  10.521
52929W        W16488  20.125  23.131   1.717
52930W        W16489  37.415  41.508   1.245
52931W        W16490  13.802   2.875  10.914
52932W        W16491  32.483  38.352   2.334
52933W        W16492  16.254  25.627  10.892
52934W        W16493  43.458   0.319  14.494
52935W        W16494  31.549  40.372   3.714
52936W        W16495   0.764  27.994  11.104
52937W        W16496  44.303  19.245  12.477
52938W        W16497  34.879  41.029   4.692
52939W        W16498  14.265  25.074   4.701
52940W        W16499  34.068  40.412  13.520
52941W        W16500  27.143  41.419  13.949
52942W        W16501  39.832  41.821   1.210
52943W        W16502  22.119  27.510   3.730
52944W        W16503  44.936  43.783  11.115
52945W        W16504  13.600  24.622   0.380
52946W        W16505  21.711  30.624  10.990
52947W        W16506  30.040  33.454   1.830
52948W        W16507  13.117  16.290  14.015
52949W        W16508   1.479  43.320  13.326
52950W        W16509  30.966  19.230   2.729
52951W        W16510  40.030  26.546   4.169
52952W        W16511  21.693  19.665   3.871
52953W        W16512  39.373  38.423   4.118
52954W        W16513  34.964  13.788  14.401
52955W        W16514  27.684  31.526   2.695
52956W        W16515  30.433   8.696   1.907
52957W        W16516  31.910  21.053  10.542
52958W        W16517  13.795  19.111  10.487
52959W        W16518  31.550   6.910   0.319
52960W        W16519  22.658  11.348   4.610
52961W        W16520  23.721  44.934  10.889
52962W        W16521  37.534  32.549  11.057
52963W        W16522  17.258  32.942   3.763
52964W        W16523  29.055   9.330   1.713
52965W        W16524  16.697  13.841  10.476
52966W        W16525   7.815  19.724   5.286
52967W        W16526  12.756  17.227  11.412
52968W        W16527   6.687  25.974  13.404
52969W        W16528  37.909  23.160   4.327
52970W        W16529  41.806  15.093  14.816
52971W        W16530  26.504  27.114   1.393
52972W        W16531  21.695  25.638   3.387
52973W        W16532   7.779  17.151  10.550
52974W        W16533  16.317  14.811  11.029
52975W        W16534   8.296   8.268   3.168
52976W        W16535  36.898  35.960  14.974
52977W        W16536  44.448  29.512  10.404
52978W        W16537   5.301  21.086  11.426
52979W        W16538  27.549  10.142  14.967
52980W        W16539  34.501  37.001  14.974
52981W        W16540  44.394  44.316   4.235
52982W        W16541  15.653  31.119  14.881
52983W        W16542  10.250   8.200   1.282
52984W        W16543  32.460  27.608  12.062
52985W        W16544  41.911  19.193  13.382
52986W        W16545  44.009  25.571  11.504
52987W        W16546  44.488  24.080  11.487
52988W        W16547  24.687  35.570   2.376
52989W        W16548  14.703  12.808   3.806
52990W        W16549  32.407  14.803   0.864
52991W        W16550  11.264  21.051  13.400
52992W        W16551  19.112  24.987  14.412
52993W        W16552  29.037  39.550   3.298
52994W        W16553   1.305  19.746  14.344
52995W        W16554  19.160  27.667   3.289
52996W        W16555   1.752  15.715  14.865
52997W        W16556   1.340  38.846   4.706
52998W        W16557   9.756  32.902  10.987
52999W        W16558  13.329   5.213   2.804
53000W        W16559  10.217  38.858   2.289
53001W        W16560   1.858  36.516  13.999
53002W        W16561  23.676  22.559  12.507
53003W        W16562  24.004  43.404  14.830
53004W        W16563   0.934  28.660  10.555
53005W        W16564  36.348  21.128  10.631
53006W        W16565  35.379  21.224   4.757
53007W        W16566   4.249   2.843   1.262
53008W        W16567  25.078   5.270  12.971
53009W        W16568  24.508   0.350  10.608
53010W        W16569  17.241  23.034   5.199
53011W        W16570  28.450  16.789   1.352
53012W        W16571  30.141   8.730  12.508
53013W        W16572  25.990  29.033  10.586
53014W        W16573  31.566  14.623   0.266
53015W        W16574  18.786  24.178  11.902
53016W        W16575  44.505  13.695   0.886
53017W        W16576  18.253   5.709   4.738
53018W        W16577  43.375  26.569   4.334
53019W        W16578  23.610   9.716   3.338
53020W        W16579  36.376  29.666  10.961
53021W        W16580  19.081  13.320   3.383
53022W        W16581  10.745  20.761  11.463
53023W        W16582  22.703  12.671  12.542
53024W        W16583  28.538  42.374   1.403
53025W        W16584  32.929  28.582   3.826
53026W        W16585  18.061  10.170  13.460
53027W        W16586  13.228   1.404  10.597
53028W        W16587  22.089  16.170   0.360
53029W        W16588  33.428  32.589   0.396
53030W        W16589  40.318  11.238  13.407
53031W        W16590  24.987   7.318   0.249
53032W        W16591   5.245  32.552   1.815
53033W        W16592  40.542  26.081   1.929
53034W        W16593   9.185  37.011  14.941
53035W        W16594  39.898  39.439  14.984
53036W        W16595  12.146  37.494  14.907
53037W        W16596   4.787  23.504  13.051
53038W        W16597  17.135  29.972   2.289
53039W        W16598  38.329  26.621   0.790
53040W        W16599  20.712  21.570   3.357
53041W        W16600  40.546  22.240  10.041
53042W        W16601  25.549  12.780   3.854
53043W        W16602  27.467  20.264   4.756
53044W        W16603  17.230   4.394   1.797
53045W        W16604  26.065  19.169  13.951
53046W        W16605  21.752  15.598  11.540
53047W        W16606  12.813  19.268   2.861
53048W        W16607  11.750  16.132  10.509
53049W        W16608  17.741  33.931   2.389
53050W        W16609  30.536  31.011   1.391
53051W        W16610  42.956  11.192   0.856
53052W        W16611  26.678  39.435   4.749
53053W        W16612   5.745  44.276   0.852
53054W        W16613  23.526  43.353   3.711
53055W        W16614   7.827  23.708   2.254
53056W        W16615  12.774  26.648  10.435
53057W        W16616   7.275  13.612  14.960
53058W        W16617   7.342  13.281   2.719
53059W        W16618   8.379  32.547  11.553
53060W        W16619   8.212  30.049   0.392
53061W        W16620  41.462  25.039  11.444
53062W        W16621  26.066  15.123  12.044
53063W        W16622   5.721   3.758   0.372
53064W        W16623   3.372   4.870   5.319
53065W        W16624  15.588   7.876  11.077
53066W        W16625   6.413  34.439   3.256
53067W        W16626  31.579  21.625  12.580
53068W        W16627  12.299  33.577   0.845
53069W        W16628  26.145  38.936  10.080
53070W        W16629  38.052   1.909  12.521
53071W        W16630  13.119  37.884  12.855
53072W        W16631  35.093  18.778  14.329
53073W        W16632   1.481  37.043   1.711
53074W        W16633  29.077   5.294   2.881
53075W        W16634  39.817  15.684  10.000
53076W        W16635  27.447  37.537   2.335
53077W        W16636   4.720   5.291  14.282
53078W        W16637  35.412  16.809  13.855
53079W        W16638  15.659  15.689  13.911
53080W        W16639  13.622  20.150   3.187
53081W        W16640   6.749   4.409   3.242
53082W        W16641   4.944  20.676   2.275
53083W        W16642   5.395  43.278   3.275
53084W        W16643  32.618  33.020  13.057
53085W        W16644  16.635  29.937  12.468
53086W        W16645  43.803  34.063   4.799
53087W        W16646  38.394  29.634  11.603
53088W        W16647  37.834   8.772  10.127
53089W        W16648  12.225  42.899   4.294
53090W        W16649   8.890  42.032  10.432
53091W        W16650  23.144  36.882   4.716
53092W        W16651  38.011  42.840  10.571
53093W        W16652  25.206  24.002  10.953
53094W        W16653  23.685  29.922   5.734
53095W        W16654  34.504  12.152   2.886
53096W        W16655   3.827  37.497  11.534
53097W        W16656  22.549   7.692  12.964
53098W        W16657  38.484  11.773   0.299
53099W        W16658   3.823   2.810  14.773
53100W        W16659  14.725  22.525   5.209
53101W        W16660  42.888  15.115  11.098
53102W        W16661   0.406  23.601   4.778
53103W        W16662  42.910   4.350  14.351
53104W        W16663  28.587  40.436   3.227
53105W        W16664  29.021  33.114   3.750
53106W        W16665  41.907  44.866  12.477
53107W        W16666  15.095  29.026   4.672
53108W        W16667  24.721  12.177   2.319
53109W        W16668  18.285   1.259   1.883
53110W        W16669  40.850  10.660  13.329
53111W        W16670  39.963  43.400  10.606
53112W        W16671  29.936  30.572   2.205
53113W        W16672  39.455  38.961  12.536
53114W        W16673  26.638   2.753  14.381
53115W        W16674  34.597  31.912   0.471
53116W        W16675   0.848  14.118   3.792
53117W        W16676   7.319   0.963   0.287
53118W        W16677  43.897  19.212  11.572
53119W        W16678  44.827  29.639  12.515
53120W        W16679  26.993  10.675   1.414
53121W        W16680  20.610  33.032  11.498
53122W        W16681  24.988  39.557  13.345
53123W        W16682  32.051   7.283  13.949
53124W        W16683   1.880  15.299   1.372
53125W        W16684  30.512  16.727   2.763
53126W        W16685  37.540  25.515  11.559
53127W        W16686  43.340  33.429  10.534
53128W        W16687  22.518   3.395  11.038
53129W        W16688  14.313  40.487  11.389
53130W        W16689  12.139   4.877   1.435
53131W        W16690   9.259   3.349  12.892
53132W        W16691  28.128  14.251   2.322
53133W        W16692   2.248   4.364  12.550
53134W        W16693  26.005   8.196  12.023
53135W        W16694  38.416   6.745  11.041
53136W        W16695  24.539  24.722  13.388
53137W        W16696  18.773   6.343   0.844
53138W        W16697   0.753  24.162   0.874
53139W        W16698  43.299  17.153  12.577
53140W        W16699   3.932   9.279   0.773
53141W        W16700  34.000  24.990   3.304
53142W        W16701   6.697  11.229   2.353
53143W        W16702  37.470   9.197  13.467
53144W        W16703   3.944  38.867  14.392
53145W        W16704   4.280  12.118  11.552
53146W        W16705  34.951   2.900   3.702
53147W        W16706  30.453  40.500   2.874
53148W        W16707  22.610  36.426  13.857
53149W        W16708   7.760  29.063  10.031
53150W        W16709  27.971  37.571  13.905
53151W        W16710   8.335  24.142   0.465
53152W        W16711  15.747  42.002  11.374
53153W        W16712  23.059  17.106  11.956
53154W        W16713  15.733  36.070  11.411
53155W        W16714  33.044  27.942   0.318
53156W        W16715  26.656   5.907  13.483
53157W        W16716   7.831  24.086  12.900
53158W        W16717  29.091   2.297  11.579
53159W        W16718  30.032   3.344   2.413
53160W        W16719   5.910  30.619  11.945
53161W        W16720  36.466  20.693  13.820
53162W        W16721  12.346  18.101   4.825
53163W        W16722   0.456  40.501   0.327
53164W        W16723  15.241   6.873  13.962
53165W        W16724  11.671  35.448   5.175
53166W        W16725  25.656  17.218  13.464
53167W        W16726  14.287  19.635  11.517
53168W        W16727  12.186  44.420   4.819
53169W        W16728  43.382  12.784   0.965
53170W        W16729  19.062  37.030  14.347
53171W        W16730  36.443   1.795   1.736
53172W        W16731  22.210   2.452   1.323
53173W        W16732  39.926  29.008   3.811
53174W        W16733  36.574   7.189  11.417
53175W        W16734  30.075  41.538  14.008
53176W        W16735  29.623  39.315   2.713
53177W        W16736  14.823   5.240  12.945
53178W        W16737  11.129  42.514   4.126
53179W        W16738  38.355   1.869   4.252
53180W        W16739   8.754   7.320   0.292
53181W        W16740  17.259  30.656   1.719
53182W        W16741  27.581   7.752   2.224
53183W        W16742  32.921  43.481  10.528
53184W        W16743  36.490  35.461   2.399
53185W        W16744  38.963  28.042   1.932
53186W        W16745  16.190  14.211   3.329
53187W        W16746  19.283   0.320  13.813
53188W        W16747  43.842  13.671  11.027
53189W        W16748   5.204  24.185   3.676
53190W        W16749  43.829  39.505  13.025
53191W        W16750  29.617  21.046  13.475
53192W        W16751   4.870  25.702   0.906
53193W        W16752  37.372   9.194  10.021
53194W        W16753  19.770   5.798  14.325
53195W        W16754  26.541   1.857  14.391
53196W        W16755  36.085  38.984  12.547
53197W        W16756  18.056  41.961   4.676
53198W        W16757  20.042   1.926   4.262
53199W        W16758  28.999  29.653  11.589
53200W        W16759  42.925   2.930  11.005
53201W        W16760  13.189   0.872   2.205
53202W        W16761   3.850   5.226  10.635
53203W        W16762   4.808  26.141  10.489
53204W        W16763  37.457   1.743   1.356
53205W        W16764  11.335  40.026  14.472
53206W        W16765  28.536   5.242  10.538
53207W        W16766  35.908  33.046  14.933
53208W        W16767  36.502  17.587  12.838
53209W        W16768  12.810  29.445   3.762
53210W        W16769  41.043  36.591   4.221
53211W        W16770  20.235  25.495   4.717
53212W        W16771  27.635  29.525   1.834
53213W        W16772  28.120  36.932  11.104
53214W        W16773  42.977  13.604  12.579
53215W        W16774  21.121  30.136  11.553
53216W        W16775  31.424  36.038   1.409
53217W        W16776  18.790  28.624  14.914
53218W        W16777  40.902  35.878  12.481
53219W        W16778  37.839  17.133   3.803
53220W        W16779  21.214  28.066  13.441
53221W        W16780  22.185  18.588  11.465
53222W        W16781   7.821  42.988  13.936
53223W        W16782   7.847  30.527   0.314
53224W        W16783  34.998   2.300  11.118
53225W        W16784  33.040  35.990   1.397
53226W        W16785   7.402  38.855   0.288
53227W        W16786  34.379  26.059  13.857
53228W        W16787  24.500  32.558   1.283
53229W        W16788  34.488   3.420  12.476
53230W        W16789  37.015  11.813  11.003
53231W        W16790   8.695  44.410  13.519
53232W        W16791   8.776  18.082   0.938
53233W        W16792   8.865   0.337   1.919
53234W        W16793  30.555  33.019   0.268
53235W        W16794  39.467  35.470  11.116
53236W        W16795  37.923   9.177  14.316
53237W        W16796  27.167   4.206  12.526
53238W        W16797  26.514  10.186  13.977
53239W        W16798   3.355  22.696  12.854
53240W        W16799  42.887  13.677   4.295
53241W        W16800  37.469  24.534  11.372
53242W        W16801   3.930  30.605  11.428
53243W        W16802  27.528   4.292   2.321
53244W        W16803  44.312   0.761  12.510
53245W        W16804  37.389  21.181   4.646
53246W        W16805  40.972  39.931   2.361
53247W        W16806  17.249  34.594   5.185
53248W        W16807  27.601  16.270   2.303
53249W        W16808  14.184  12.648   2.381
53250W        W16809  19.172  42.784   0.807
53251W        W16810  17.752  40.329  14.948
53252W        W16811  11.152  33.968   2.310
53253W        W16812  27.682  31.996   0.754
53254W        W16813  32.914  41.825  11.579
53255W        W16814   1.470  24.634   3.636
53256W        W16815  10.220   0.395   3.213
53257W        W16816  30.523   8.654  11.933
53258W        W16817  22.155   7.874  13.867
53259W        W16818  43.003  40.013  13.972
53260W        W16819  36.081  29.467  14.489
53261W        W16820  23.134  42.798  13.037
53262W        W16821  23.032  12.753   4.687
53263W        W16822   1.765   8.369  10.423
53264W        W16823  30.558  34.464   3.704
53265W        W16824  38.522  28.075   1.905
53266W        W16825   8.388   4.872   1.805
53267W        W16826  21.621  21.651  11.025
53268W        W16827  10.637   3.836  14.794
53269W        W16828  24.012  27.575  10.973
53270W        W16829  43.810  29.056   2.194
53271W        W16830   1.369  11.288   2.760
53272W        W16831  10.841   2.412   3.169
53273W        W16832  40.956  13.295  10.927
53274W        W16833  26.593   4.416  11.525
53275W        W16834   9.366  17.142  11.884
53276W        W16835  14.802  29.619  10.109
53277W        W16836  14.122  30.027  11.111
53278W        W16837  44.323   9.245  12.576
53279W        W16838  39.990  23.191   3.315
53280W        W16839   8.391   8.383   4.692
53281W        W16840  39.428  13.157   0.411
53282W        W16841   2.744  18.182  10.532
53283W        W16842  23.021  21.060   1.284
53284W        W16843  22.500  13.171  14.371
53285W        W16844  11.851  17.168  13.898
53286W        W16845  10.685   7.758  14.282
53287W        W16846  16.701  26.966  14.959
53288W        W16847  38.507   9.272   1.304
53289W        W16848  44.848   2.739  11.052
53290W        W16849   5.827  39.980   2.854
53291W        W16850  26.012  15.785  10.528
53292W        W16851  25.124  30.560  12.048
53293W        W16852  19.606   2.382   0.279
53294W        W16853  13.121  16.670   0.878
53295W        W16854  26.538  29.432   1.748
53296W        W16855   8.370  36.359   0.251
53297W        W16856  25.149  12.154   2.715
53298W        W16857  36.404  44.490  14.927
53299W        W16858  22.738  41.907   2.384
53300W        W16859  39.522  32.405   2.318
53301W        W16860  41.419  11.634   3.745
53302W        W16861  22.563  27.110   2.264
53303W        W16862  25.183  25.113   4.602
53304W        W16863  30.419  17.676   2.396
53305W        W16864  42.972  43.396  14.915
53306W        W16865  41.038  31.473  14.930
53307W        W16866  28.522  27.456  13.411
53308W        W16867  21.243  11.666  11.374
53309W        W16868  14.641  27.519   0.321
53310W        W16869  32.624  39.934   1.274
53311W        W16870  35.460  11.787   0.849
53312W        W16871  33.016  36.463   3.794
53313W        W16872  30.059  33.598   4.721
53314W        W16873  10.204  33.886  10.906
53315W        W16874  38.341  26.172  13.919
53316W        W16875  21.672  11.130   0.247
53317W        W16876  43.350  18.779  14.951
53318W        W16877  41.914  20.239  10.987
53319W        W16878  18.677  31.644   1.291
53320W        W16879  29.663  27.987   1.882
53321W        W16880  44.445  31.966   1.912
53322W        W16881  34.095   5.344  13.442
53323W        W16882  36.368  25.056  10.102
53324W        W16883  22.724  36.917   0.884
53325W        W16884  20.625  39.396  12.414
53326W        W16885  44.481  29.430   1.300
53327W        W16886   3.441  11.354   2.317
53328W        W16887  35.542  34.938  11.067
53329W        W16888  17.615  38.922  11.892
53330W        W16889   4.295  31.055  12.516
53331W        W16890  12.675  35.980  10.905
53332W        W16891  14.266  44.989  14.903
53333W        W16892  23.562  36.979  10.585
53334W        W16893  44.980   7.680   0.919
53335W        W16894  13.281  13.725  14.512
53336W        W16895  23.003   6.315  14.877
53337W        W16896   6.396  19.122  12.422
53338W        W16897  25.512  36.562   1.831
53339W        W16898   6.883  34.046  12.380
53340W        W16899  35.047  31.587  12.341
53341W        W16900  44.836  27.136   4.120
53342W        W16901  18.081  20.767  12.835
53343W        W16902   6.896   4.243  11.529
53344W        W16903  35.057  39.483  11.478
53345W        W16904  29.459  43.351   0.386
53346W        W16905  37.889  18.267  12.019
53347W        W16906   6.879   9.759   4.311
53348W        W16907   8.256  18.230   3.810
53349W        W16908  16.316   0.874   4.220
53350W        W16909  37.874   0.383  10.617
53351W        W16910   1.925  41.035   4.136
53352W        W16911  35.367  33.911  12.368
53353W        W16912  36.055  44.856  12.503
53354W        W16913  29.669  34.043   1.892
53355W        W16914   0.919  20.721  13.414
53356W        W16915   4.256   3.917  14.359
53357W        W16916  14.826  26.146   2.321
53358W        W16917  40.051  17.256   0.379
53359W        W16918  33.009  40.929   0.417
53360W        W16919  19.580  14.634  14.353
53361W        W16920  12.686  23.182   2.893
53362W        W16921  21.528  19.264   0.825
53363W        W16922  25.139  10.252   4.187
53364W        W16923  21.183  22.692  10.472
53365W        W16924   5.732  23.228   3.738
53366W        W16925  37.472   1.768   4.643
53367W        W16926  28.132   1.745   4.679
53368W        W16927  23.005  12.119   1.899
53369W        W16928  18.724  39.409   4.767
53370W        W16929  38.395  42.428  10.970
53371W        W16930   7.895   2.842   4.685
53372W        W16931   3.289  36.024   0.944
53373W        W16932  32.503   9.753   1.345
53374W        W16933   0.896  44.463  12.997
53375W        W16934  13.622   6.419  12.499
53376W        W16935   4.216  43.854   3.243
53377W        W16936   3.810   1.803  10.614
53378W        W16937  35.503  22.723   3.169
53379W        W16938   1.832  39.334  11.457
53380W        W16939  17.601  33.602  11.000
53381W        W16940  27.652  10.159  10.028
53382W        W16941  15.816  25.670  12.929
53383W        W16942  12.200  36.931   2.294
53384W        W16943  31.548   1.969  12.044
53385W        W16944   2.238   6.252  12.889
53386W        W16945  13.238  21.694  10.119
53387W        W16946  11.289  10.832   4.120
53388W        W16947  35.601  38.825   2.413
53389W        W16948  37.873   1.801  13.899
53390W        W16949  44.483  17.568   3.321
53391W        W16950  10.356  18.598   0.328
53392W        W16951  34.928   1.901  11.933
53393W        W16952  16.278  15.275   0.320
53394W        W16953   3.390   2.882   3.321
53395W        W16954  24.154  19.052   4.744
53396W        W16955  20.218  18.125  14.867
53397W        W16956  33.888  30.933  13.357
53398W        W16957  10.802  14.218   1.364
53399W        W16958  44.271   4.365  13.995
53400W        W16959   0.923   1.417  12.485
53401W        W16960  32.135  21.021  13.534
53402W        W16961   6.846   2.391   0.416
53403W        W16962  12.819  18.761  14.329
53404W        W16963  17.754  36.438  13.501
53405W        W16964  12.154   0.334   3.792
53406W        W16965  42.988  13.605  11.035
53407W        W16966  22.528   7.710   3.186
53408W        W16967  12.358  42.987  14.436
53409W        W16968  20.768  22.635  10.602
53410W        W16969  33.009  12.154  11.996
53411W        W16970  44.288  20.591  10.059
53412W        W16971  11.669  29.498  12.445
53413W        W16972   6.863  11.182  11.103
53414W        W16973  16.115  14.779  14.322
53415W        W16974  12.679   4.356  11.890
53416W        W16975  21.075  28.447  13.972
53417W        W16976   8.890   2.912   2.292
53418W        W16977  36.554  28.114  10.927
53419W        W16978   8.322   1.274   4.131
53420W        W16979  10.780   5.901  12.002
53421W        W16980  14.223  17.169   0.440
53422W        W16981  23.213  16.788  10.938
53423W        W16982   4.701  35.396   3.865
53424W        W16983  42.779   8.351  14.762
53425W        W16984  34.454   5.402  11.046
53426W        W16985  32.555  23.692  12.968
53427W        W16986   3.391  21.627  12.043
53428W        W16987  14.770  19.715  13.318
53429W        W16988   0.959  20.234  11.474
53430W        W16989   5.850  20.641   0.280
53431W        W16990   7.253  16.575   3.324
53432W        W16991  16.196  10.351  14.781
53433W        W16992  39.463  15.720   1.838
53434W        W16993  10.309  23.689  12.378
53435W        W16994   3.888   1.817  13.401
53436W        W16995   1.886  24.032  12.836
53437W        W16996  28.083  22.518  11.537
53438W        W16997   3.782  17.620  14.372
53439W        W16998   4.860  27.953  14.010
53440W        W16999  32.093  31.108   4.265
53441W        W17000  30.425  29.619   3.150
53442W        W17001   1.360  41.466   3.238
53443W        W17002  13.734  29.489   4.769
53444W        W17003   2.296   8.239   4.327
53445W        W17004  38.028  26.497  11.005
53446W        W17005  44.766   3.354  13.836
53447W        W17006  14.683  34.920  13.478
53448W        W17007  38.906   5.933   4.802
53449W        W17008  30.449  16.249  13.859
53450W        W17009  12.848  14.810  12.970
53451W        W17010  26.674  28.161   2.684
53452W        W17011  15.167  31.429  12.061
53453W        W17012   1.329   0.888  12.931
53454W        W17013  19.769  36.499   3.326
53455W        W17014  37.943   4.705  11.906
53456W        W17015  19.272  42.834  11.005
53457W        W17016  16.792   9.362  11.113
53458W        W17017  25.597  17.728  11.469
53459W        W17018  25.188  27.619  12.507
53460W        W17019  35.924  16.718   4.199
53461W        W17020  11.211  41.903  11.047
53462W        W17021  24.993  28.610   4.232
53463W        W17022  27.983   4.713   4.261
53464W        W17023  30.093  27.043  14.835
53465W        W17024  37.405  35.965   2.375
53466W        W17025  44.383  13.270  12.417
53467W        W17026  13.798  37.537   1.411
53468W        W17027   0.491   6.234  12.925
53469W        W17028  15.214   1.924  13.879
53470W        W17029  13.246  44.959   3.780
53471W        W17030  37.954   2.462   3.286
53472W        W17031  26.504  26.467  10.047
53473W        W17032   8.814  14.661   2.325
53474W        W17033  20.240  18.658   4.252
53475W        W17034   1.437  32.952  12.497
53476W        W17035  23.622  33.981   2.884
53477W        W17036  42.470  11.241   0.274
53478W        W17037  19.232  35.506  10.936
53479W        W17038  22.230  10.736   2.840
53480W        W17039  38.938   7.888   0.282
53481W        W17040  25.147  18.779   4.646
53482W        W17041  41.949  44.394   3.321
53483W        W17042  43.513  22.034  10.963
53484W        W17043  39.030   1.755   2.394
53485W        W17044   4.335  25.185  10.589
53486W        W17045   2.419  31.546   3.331
53487W        W17046  10.380  40.977   2.850
53488W        W17047   5.788  36.952  14.510
53489W        W17048  27.056  14.174  10.112
53490W        W17049  40.322  16.808  13.056
53491W        W17050  16.114  11.272  14.814
53492W        W17051  37.448  14.754   3.747
53493W        W17052  27.173  20.529  13.484
53494W        W17053  41.836  16.782   0.257
53495W        W17054  14.129  39.044   0.408
53496W        W17055  34.510  41.296  12.094
53497W        W17056   7.328  26.687  13.821
53498W        W17057  19.225  25.081   4.606
53499W        W17058  19.606  17.777   1.758
53500W        W17059  12.159  31.083  12.452
53501W        W17060  17.643  13.831  11.051
53502W        W17061  13.650  21.694   4.128
53503W        W17062  35.437  34.108   2.889
53504W        W17063  36.440  24.485   1.919
53505W        W17064  34.528  27.985   3.777
53506W        W17065  12.629   6.377  12.527
53507W        W17066  26.697   6.677  12.824
53508W        W17067  26.475  36.043   3.289
53509W        W17068  17.632  34.008   1.357
53510W        W17069  12.747  21.631   1.747
53511W        W17070  15.739  17.741  12.426
53512W        W17071  34.508  24.500   2.267
53513W        W17072  15.166   1.416  11.457
53514W        W17073  43.995  23.202   4.276
53515W        W17074   6.839  27.086   1.824
53516W        W17075  38.442  14.707  13.033
53517W        W17076  30.491  16.094  13.374
53518W        W17077  19.228  42.414   4.220
53519W        W17078  39.891  39.460  13.366
53520W        W17079  39.992   4.229  11.458
53521W        W17080   5.719   4.907   1.319
53522W        W17081  11.305   4.301   2.810
53523W        W17082   5.426  28.617  10.446
53524W        W17083  10.855  27.134   1.286
53525W        W17084  15.139  27.656   1.899
53526W        W17085  27.615  25.620  12.924
53527W        W17086  40.968  37.891   1.722
53528W        W17087  30.938  23.216   3.200
53529W        W17088  22.662  10.170   2.856
53530W        W17089  31.574  23.187   4.671
53531W        W17090  32.073   2.326  11.950
53532W        W17091  23.563  44.445   2.818
53533W        W17092  25.693   8.245  10.465
53534W        W17093   0.844  25.169  13.362
53535W        W17094  26.973  33.072   0.270
53536W        W17095  16.141   2.906   0.841
53537W        W17096  30.056  19.557   3.302
53538W        W17097  24.217   0.883   3.849
53539W        W17098  17.292  26.468  13.874
53540W        W17099  13.605  14.702   0.363
53541W        W17100   1.774  17.189  14.937
53542W        W17101  32.016  13.167  10.457
53543W        W17102  43.869   7.233  12.851
53544W        W17103  11.728  16.229  14.295
53545W        W17104  42.862  18.761   0.848
53546W        W17105  40.988  22.135   4.635
53547W        W17106   3.767   2.735  10.571
53548W        W17107  40.418  22.244   0.367
53549W        W17108  24.636  44.845   3.807
53550W        W17109  28.986  24.706   2.373
53551W        W17110  13.187  32.392  12.394
53552W        W17111   0.396  35.900  10.888
53553W        W17112  21.226   1.820   1.294
53554W        W17113  24.641  12.720   2.799
53555W        W17114  21.540  12.843  14.498
53556W        W17115  16.806  37.926  14.020
53557W        W17116   5.928  18.622   3.360
53558W        W17117  17.079  25.688  12.414
53559W        W17118  26.956  25.677  13.308
53560W        W17119  42.871  40.992  13.930
53561W        W17120  23.009  11.225  11.004
53562W        W17121  39.900  18.290   4.642
53563W        W17122  18.618  43.426   3.710
53564W        W17123  33.549  43.901  10.451
53565W        W17124  12.271   6.891  11.064
53566W        W17125  16.714  28.581  12.069
53567W        W17126   3.263  38.859  11.912
53568W        W17127  42.373  20.115   1.242
53569W        W17128  32.497  31.117   0.411
53570W        W17129  36.531  20.737   3.788
53571W        W17130  40.385   4.346   0.349
53572W        W17131  29.491  35.503   1.903
53573W        W17132  40.451  25.138   5.113
53574W        W17133   8.288  19.229  13.365
53575W        W17134  40.801  41.492  11.102
53576W        W17135   7.186  39.456   0.919
53577W        W17136  15.605  15.304  14.480
53578W        W17137  15.222  34.991   0.737
53579W        W17138  37.419   8.225  13.059
53580W        W17139  36.983  15.179   0.450
53581W        W17140  25.613  41.501   1.397
53582W        W17141  19.252  25.510  11.391
53583W        W17142  33.473  11.682  13.958
53584W        W17143   6.727  44.994   0.449
53585W        W17144  29.463   3.336  10.916
53586W        W17145  30.620  31.997   4.193
53587W        W17146   0.282  12.751  12.914
53588W        W17147  24.172  36.378  11.950
53589W        W17148  20.765  39.917   3.755
53590W        W17149  43.295  42.356  11.989
53591W        W17150   8.783  18.122  12.981
53592W        W17151  17.754  11.853   3.275
53593W        W17152   4.240  18.780   4.719
53594W        W17153  34.093   3.874  13.459
53595W        W17154  36.939  29.972  13.796
53596W        W17155  24.559  14.762   4.222
53597W        W17156  44.361  39.821  11.430
53598W        W17157  26.159  42.778  12.524
53599W        W17158  10.151  42.780   4.634
53600W        W17159  34.606  33.930   9.472
53601W        W17160  32.601  23.188  12.930
53602W        W17161  28.548  25.985  11.378
53603W        W17162   0.874   1.932  10.140
53604W        W17163  15.757  37.567  12.463
53605W        W17164  41.017  24.997   4.673
53606W        W17165  32.072  31.080   1.779
53607W        W17166  34.445  37.023   3.675
53608W        W17167  43.380  26.549   1.853
53609W        W17168   1.413  25.651  11.027
53610W        W17169   5.800   7.846   1.801
53611W        W17170  42.943   9.874  13.875
53612W        W17171  38.021  15.720   1.413
53613W        W17172   7.685   5.772  10.622
53614W        W17173  13.621  24.562   1.832
53615W        W17174   3.368  41.950   2.245
53616W        W17175  30.995  40.466   2.790
53617W        W17176  14.318  30.650   3.723
53618W        W17177  20.144  37.963   3.217
53619W        W17178   3.790  26.527   2.280
53620W        W17179  31.908  11.783   3.302
53621W        W17180  25.122  11.197  10.141
53622W        W17181  35.095   2.941  12.069
53623W        W17182   7.791   8.224  13.912
53624W        W17183  32.605   6.875   0.267
53625W        W17184  36.069  29.958   2.895
53626W        W17185  25.676  24.142   2.401
53627W        W17186  15.760  27.645   4.739
53628W        W17187  30.140  33.986  11.935
53629W        W17188  23.132  27.990  10.952
53630W        W17189  44.998  11.200  13.922
53631W        W17190   0.364  36.558  13.795
53632W        W17191  18.578  13.173   1.697
53633W        W17192  26.554   6.901  10.510
53634W        W17193  35.525  20.180  13.811
53635W        W17194  18.573  13.663   1.795
53636W        W17195  33.051  14.664   4.677
53637W        W17196   3.324  19.256   4.679
53638W        W17197  29.172  42.911  10.574
53639W        W17198  34.889  35.905   3.760
53640W        W17199  42.800  28.439  13.917
53641W        W17200  11.215  26.096   4.608
53642W        W17201  28.604  26.635   3.269
53643W        W17202  33.904  44.477   1.765
53644W        W17203  13.724  16.215   2.290
53645W        W17204  34.942   5.343   2.826
53646W        W17205   4.802  27.658  12.532
53647W        W17206  32.577  20.065   1.831
53648W        W17207  37.977  38.005   2.181
53649W        W17208   7.683  12.780   3.236
53650W        W17209  33.050  18.257   4.345
53651W        W17210  39.937  15.133   2.351
53652W        W17211  16.285  29.601   2.216
53653W        W17212  22.050  38.441  13.447
53654W        W17213  42.315  42.500   0.446
53655W        W17214  35.457  15.204   3.313
53656W        W17215   5.225   0.962  14.918
53657W        W17216  13.166  11.702   5.213
53658W        W17217  37.479   6.302   1.756
53659W        W17218  12.180  41.882   0.742
53660W        W17219  23.513  10.733  14.931
53661W        W17220  44.996   4.903  10.484
53662W        W17221   6.765  31.531  12.430
53663W        W17222  23.016  16.679   4.345
53664W        W17223  36.577  42.375   0.860
53665W        W17224  32.980   2.386  14.329
53666W        W17225   5.325  20.134  12.849
53667W        W17226  23.553  38.373  10.406
53668W        W17227  14.745  27.014  11.453
53669W        W17228  39.975  35.567   4.160
53670W        W17229  17.289  43.954  12.456
53671W        W17230  16.684  38.461   1.242
53672W        W17231  37.576  15.696  10.624
53673W        W17232  22.725  24.709   0.245
53674W        W17233   8.883  33.414   3.786
53675W        W17234  33.914  34.412   2.722
53676W        W17235  24.026  12.238   2.811
53677W        W17236  29.010  35.467  10.949
53678W        W17237   6.855   5.832  13.379
53679W        W17238  36.480  22.133   4.262
53680W        W17239  14.201   8.768   5.711
53681W        W17240   1.432  25.111  12.494
53682W        W17241  11.688  24.703   1.320
53683W        W17242  20.579   2.751   0.744
53684W        W17243   6.312  28.025   5.084
53685W        W17244   4.281  31.405  12.383
53686W        W17245  11.173  26.522   3.352
53687W        W17246   6.385  13.843  10.631
53688W        W17247  16.605  25.131   2.772
53689W        W17248  19.245  30.936   4.838
53690W        W17249  40.319   3.944  10.529
53691W        W17250  16.110  27.086  12.435
53692W        W17251  20.711  19.194  11.957
53693W        W17252  17.683   8.826   1.719
53694W        W17253  43.925   0.760  11.872
53695W        W17254  34.435   3.881  12.076
53696W        W17255  30.063  28.656  11.007
53697W        W17256  32.476  43.372   3.697
53698W        W17257  26.632  27.592  10.093
53699W        W17258  20.766  25.075  14.873
53700W        W17259  38.860  27.128   0.325
53701W        W17260  14.279  25.207   9.653
53702W        W17261  43.001  18.125  14.011
53703W        W17262  17.180  43.773   0.339
53704W        W17263  29.525  12.295   2.370
53705W        W17264  38.956  40.320  14.412
53706W        W17265  32.056  39.049  12.411
53707W        W17266  23.568  42.832  14.887
53708W        W17267   8.800  37.440   1.767
53709W        W17268   6.846   2.912  10.552
53710W        W17269  39.851  26.974   3.806
53711W        W17270  35.476  25.087   0.896
53712W        W17271  21.711  39.875   1.356
53713W        W17272  26.019  42.020   0.736
53714W        W17273  39.934   9.372  10.978
53715W        W17274  42.869  16.796  14.405
53716W        W17275   0.859  39.410  13.029
53717W        W17276  35.427  12.176   3.220
53718W        W17277  23.997  29.116   2.340
53719W        W17278   3.757  41.842  11.022
53720W        W17279   9.845  23.510  11.062
53721W        W17280  43.903  14.269   4.322
53722W        W17281  34.592  23.624   0.800
53723W        W17282  22.650  31.444   0.343
53724W        W17283  14.270  35.020   0.460
53725W        W17284  19.226  10.246   4.194
53726W        W17285   4.816   9.701   3.688
53727W        W17286  24.653  10.857   3.380
53728W        W17287   5.856  14.607   3.151
53729W        W17288  28.949   4.764   0.245
53730W        W17289   2.313  12.752   2.390
53731W        W17290  16.114  33.451   1.839
53732W        W17291  20.755   2.782  13.012
53733W        W17292  40.490  44.473  14.997
53734W        W17293   7.665  25.711   0.385
53735W        W17294  19.539  33.087  10.456
53736W        W17295  28.516  39.335  10.113
53737W        W17296  28.967  33.427   2.715
53738W        W17297   0.282   2.813  10.950
53739W        W17298  21.591  23.132  11.423
53740W        W17299  24.488  26.185   4.708
53741W        W17300   3.281  15.745  12.423
53742W        W17301  39.010   0.336   2.891
53743W        W17302  24.624  26.985   1.434
53744W        W17303  24.631   5.854   1.931
53745W        W17304   5.267   9.336  13.509
53746W        W17305  24.675  34.553   1.374
53747W        W17306  40.847  21.235   3.230
53748W        W17307   4.898  19.046  10.604
53749W        W17308   3.877  18.601  14.929
53750W        W17309   4.850  35.927  14.815
53751W        W17310  25.994   3.369  13.388
53752W        W17311   1.894  28.535  12.392
53753W        W17312   0.966  40.964  13.805
53754W        W17313   7.408  25.596  14.350
53755W        W17314  17.131  30.435   0.750
53756W        W17315  39.061  26.141   4.815
53757W        W17316  21.213  39.810   0.931
53758W        W17317  14.107  42.396  14.868
53759W        W17318  26.135   5.830   1.869
53760W        W17319   8.237  32.080  14.277
53761W        W17320  15.297  22.681  14.434
53762W        W17321  37.341  43.914  14.808
53763W        W17322  25.012  32.946   1.445
53764W        W17323  24.703  10.791  13.412
53765W        W17324   5.277  37.538  14.004
53766W        W17325  37.898   5.781  11.603
53767W        W17326   9.854   2.366   2.835
53768W        W17327  38.423  21.222  12.079
53769W        W17328   9.269  33.601  12.076
53770W        W17329   9.662  13.686  10.446
53771W        W17330  30.139   9.857  13.454
53772W        W17331  24.147  12.790  13.894
53773W        W17332  28.077  30.579  10.610
53774W        W17333  36.010   6.701  13.805
53775W        W17334  26.206   7.334   4.281
53776W        W17335  17.270  38.834   5.259
53777W        W17336  44.481  18.130  12.566
53778W        W17337  25.065  16.254  14.510
53779W        W17338  36.484  23.501  14.887
53780W        W17339  18.776  10.248   1.372
53781W        W17340  32.556  24.120  12.009
53782W        W17341  25.527   8.305  10.152
53783W        W17342  44.000  10.264  10.508
53784W        W17343  37.547  38.353  11.918
53785W        W17344  33.878  25.207   0.924
53786W        W17345   0.920   9.770  12.364
53787W        W17346  36.889   3.355  14.399
53788W        W17347  30.108  29.464   1.219
53789W        W17348  17.611  28.940   1.216
53790W        W17349  30.998  28.023   2.259
53791W        W17350  19.572  37.431  12.022
53792W        W17351  21.697  26.980  12.529
53793W        W17352  21.616   8.179  13.952
53794W        W17353  32.425  28.542  12.377
53795W        W17354  32.605   6.243   3.247
53796W        W17355  41.381  36.054   1.704
53797W        W17356   5.334  40.886   2.361
53798W        W17357   2.275  37.370   2.381
53799W        W17358   3.317   6.221   0.894
53800W        W17359  18.201   1.922   3.722
53801W        W17360  37.536  16.282   1.416
53802W        W17361   5.294  27.653  13.811
53803W        W17362   3.251  34.073  12.943
53804W        W17363  14.792  26.986   5.202
53805W        W17364  11.189  38.046   3.356
53806W        W17365   9.649  18.160   4.318
53807W        W17366  33.433  18.184   2.253
53808W        W17367  20.051   1.940  12.479
53809W        W17368  40.461  15.675   3.644
53810W        W17369  12.735  17.152  14.378
53811W        W17370  26.006  37.072   0.771
53812W        W17371  36.087  36.868   0.245
53813W        W17372  15.602  21.235   3.732
53814W        W17373  35.058   3.817   4.787
53815W        W17374  15.778  28.118   0.446
53816W        W17375  36.972  19.723   3.852
53817W        W17376  33.129   9.807  11.409
53818W        W17377   7.406   3.794   0.921
53819W        W17378   7.775  32.018   3.377
53820W        W17379  29.447  12.126   2.879
53821W        W17380  35.062  12.118   5.219
53822W        W17381  24.569  16.164  12.828
53823W        W17382  26.023  31.412  11.947
53824W        W17383  18.244  23.193   4.209
53825W        W17384   1.917  43.367  12.934
53826W        W17385  43.839  29.005   3.236
53827W        W17386  17.074   0.927   0.953
53828W        W17387  44.901   9.743   0.804
53829W        W17388  43.460  30.048  11.056
53830W        W17389  35.048  41.002   2.205
53831W        W17390  27.619  24.182  14.442
53832W        W17391  16.790   4.901  14.960
53833W        W17392  12.715  30.472   4.692
53834W        W17393  35.955  38.849   4.118
53835W        W17394   0.799  35.007   3.188
53836W        W17395  16.121  15.228   3.161
53837W        W17396  29.442   9.783   0.398
53838W        W17397  23.553  32.886   0.353
53839W        W17398  37.389   0.928   4.236
53840W        W17399  14.340  22.519  10.033
53841W        W17400  41.954  13.208  13.378
53842W        W17401  42.456  14.114  10.493
53843W        W17402  35.880  22.203  11.957
53844W        W17403  23.226  13.780   3.242
53845W        W17404  18.561  13.610   2.840
53846W        W17405  38.059  22.505   2.386
53847W        W17406   7.715   4.700   0.962
53848W        W17407  11.857  18.651  13.915
53849W        W17408  18.633  29.641   1.259
53850W        W17409  27.448  13.151   4.212
53851W        W17410  10.289   5.306  10.459
53852W        W17411  12.340   2.423   3.376
53853W        W17412   7.273  30.154  13.519
53854W        W17413  37.358  18.751  13.446
53855W        W17414  19.087  39.879   3.733
53856W        W17415  12.280  22.552   9.959
53857W        W17416  17.214  42.400  10.926
53858W        W17417  10.738   6.254   0.289
53859W        W17418  26.534  10.662   0.888
53860W        W17419   9.794  14.319  10.625
53861W        W17420  14.693  32.126  13.423
53862W        W17421  38.331  31.119  11.902
53863W        W17422  21.568  12.734   0.864
53864W        W17423  14.195   4.343   3.810
53865W        W17424  11.171   7.227   0.743
53866W        W17425  21.113  13.180   1.727
53867W        W17426  15.597  43.968   1.316
53868W        W17427  38.045  38.889   3.345
53869W        W17428  23.665  25.062   0.309
53870W        W17429  24.597  23.092   5.578
53871W        W17430  44.334  34.464  14.946
53872W        W17431  15.796   0.469  12.389
53873W        W17432  43.967   6.879   0.382
53874W        W17433  36.883  30.100  11.471
53875W        W17434  19.543  10.214  11.900
53876W        W17435  34.918  10.223   4.153
53877W        W17436  21.580  15.303   1.331
53878W        W17437  44.851  38.461  11.517
53879W        W17438   7.304  15.220   4.827
53880W        W17439  40.048  33.606  11.896
53881W        W17440  16.636  30.598  12.478
53882W        W17441  14.188  40.406  10.546
53883W        W17442  30.603  26.609  11.577
53884W        W17443  17.084  35.927   2.267
53885W        W17444  25.169  22.081   2.329
53886W        W17445  32.390  36.844  14.299
53887W        W17446  38.356  38.441   2.414
53888W        W17447  15.142  16.237   1.838
53889W        W17448  23.136  28.038   0.316
53890W        W17449  42.407  17.765  12.408
53891W        W17450   5.378  10.374  13.520
53892W        W17451  43.846  30.525   1.880
53893W        W17452  35.445  22.155   1.855
53894W        W17453  19.186  39.010   2.759
53895W        W17454   2.929   7.278  10.636
53896W        W17455  35.552  33.092   3.356
53897W        W17456  24.125  10.195  12.024
53898W        W17457  25.627   3.387   0.830
53899W        W17458  11.752  28.041  11.058
53900W        W17459   7.302  40.957  14.006
53901W        W17460   0.437  26.096  12.996
53902W        W17461  20.594   5.921  12.054
53903W        W17462  23.574  34.470  10.462
53904W        W17463   0.776   3.909  14.379
53905W        W17464   5.858  12.795   4.140
53906W        W17465  14.173  42.466  11.428
53907W        W17466   3.858  36.866   0.940
53908W        W17467  40.802   9.371   3.153
53909W        W17468   0.442  13.164  13.892
53910W        W17469  42.494  12.286  12.475
53911W        W17470  11.840   2.405  13.538
53912W        W17471  42.309   4.394   4.300
53913W        W17472  33.570  40.480   1.415
53914W        W17473  28.609   3.300   4.309
53915W        W17474  29.109  33.898  13.878
53916W        W17475  28.155   6.681  12.571
53917W        W17476  12.772  44.482   2.885
53918W        W17477   0.278  14.117  11.964
53919W        W17478  37.038   3.830  12.963
53920W        W17479  41.513   8.173  11.010
53921W        W17480  19.624   4.231  14.899
53922W        W17481  13.176  35.074   2.254
53923W        W17482   0.312   3.734   4.684
53924W        W17483  14.332  42.781  11.483
53925W        W17484   2.307  21.523  13.973
53926W        W17485  41.823  33.051   4.613
53927W        W17486  43.465   5.364   3.270
53928W        W17487  26.999  25.651  12.941
53929W        W17488  36.090  11.238   1.241
53930W        W17489  16.672   5.869  13.451
53931W        W17490  14.611  17.563  14.382
53932W        W17491  29.138  40.396   4.277
53933W        W17492  43.377  43.500   0.459
53934W        W17493  27.493  43.825   0.880
53935W        W17494  23.104  28.931   2.838
53936W        W17495   3.445  14.257  14.911
53937W        W17496  26.481  31.584  10.438
53938W        W17497  13.329  12.135  14.975
53939W        W17498  34.546  24.618  12.503
53940W        W17499  17.204  30.577  14.809
53941W        W17500  40.907   9.700   3.632
53942W        W17501  26.480  42.943   2.201
53943W        W17502  31.431  41.480   3.357
53944W        W17503  27.068  37.999  10.577
53945W        W17504   5.692  27.560  14.815
53946W        W17505  26.669  12.737   1.414
53947W        W17506  30.655   7.339  14.875
53948W        W17507  18.767   8.850   4.236
53949W        W17508  25.018  21.107  10.026
53950W        W17509  21.730   8.266   2.404
53951W        W17510  17.757  39.422   0.737
53952W        W17511  39.387   0.479   3.349
53953W        W17512  35.507  26.534  14.994
53954W        W17513  14.618  20.266  10.579
53955W        W17514  19.281  35.097  11.524
53956W        W17515   7.812   2.443  10.564
53957W        W17516  28.051  20.684  12.933
53958W        W17517  34.580  35.435   0.278
53959W        W17518  40.010  28.069   0.283
53960W        W17519   1.339   5.350   1.372
53961W        W17520  37.433   9.829  13.413
53962W        W17521  40.464  15.626  12.929
53963W        W17522  16.227  26.697   5.219
53964W        W17523   3.271  23.998  11.521
53965W        W17524  40.445  13.829   0.809
53966W        W17525  34.515  41.488  10.539
53967W        W17526  43.376  18.782   3.378
53968W        W17527   3.349  22.066   0.889
53969W        W17528  32.584  13.795   1.304
53970W        W17529  30.129  18.771  13.982
53971W        W17530  19.165  36.543  14.987
53972W        W17531  44.350  21.151   0.344
53973W        W17532  27.941   9.685  11.419
53974W        W17533  19.198  18.787   4.820
53975W        W17534  35.871   6.260  13.000
53976W        W17535  25.610  37.376   0.426
53977W        W17536  32.892  10.811  11.105
53978W        W17537  27.656  34.370  13.051
53979W        W17538  43.447  39.882  10.589
53980W        W17539   7.694  44.818  10.538
53981W        W17540   8.659  24.133   3.837
53982W        W17541  44.830  39.955  14.828
53983W        W17542   3.930   2.377  13.010
53984W        W17543  32.929  44.862   4.167
53985W        W17544  42.412   6.271  11.066
53986W        W17545   7.863  35.462   2.879
53987W        W17546  30.994  35.978  10.628
53988W        W17547   0.420  31.429   1.278
53989W        W17548   4.822  40.316   0.420
53990W        W17549  15.816  43.935   2.386
53991W        W17550   9.646   6.411  11.454
53992W        W17551  26.042   9.742   3.210
53993W        W17552   3.797   5.764  13.923
53994W        W17553  28.478  42.419  11.885
53995W        W17554  23.537  44.306   3.155
53996W        W17555  15.105   4.933   2.894
53997W        W17556  17.142  15.260  13.895
53998W        W17557   8.370   7.903  13.835
53999W        W17558  28.553  40.537  11.912
54000W        W17559  44.338  30.068   9.954
54001W        W17560  30.413  32.580  11.459
54002W        W17561   2.265  17.684  14.934
54003W        W17562  37.864  42.512   1.373
54004W        W17563  32.445  31.064   3.189
54005W        W17564  37.007  28.478  11.410
54006W        W17565   5.342  41.493  14.288
54007W        W17566  35.903  20.565  13.485
54008W        W17567  32.088  34.394  12.828
54009W        W17568  16.570   9.314   4.233
54010W        W17569   9.880  23.492  13.307
54011W        W17570  34.882  38.951   1.377
54012W        W17571  37.907  29.166   2.250
54013W        W17572  25.009  17.086  12.368
54014W        W17573   4.750  21.710   4.679
54015W        W17574   4.897  21.024  10.415
54016W        W17575  30.117  40.524  13.449
54017W        W17576  40.019  15.194   1.445
54018W        W17577  14.237   0.248   2.747
54019W        W17578  26.104  19.256  12.477
54020W        W17579  29.028  29.121  12.577
54021W        W17580  24.198  14.214   4.836
54022W        W17581  19.623  44.372  12.086
54023W        W17582  18.235   8.676   4.271
54024W        W17583   0.937  37.412   0.399
54025W        W17584  41.817  41.503   4.247
54026W        W17585  12.160  41.846  11.026
54027W        W17586  17.585  24.692   1.729
54028W        W17587  26.551   2.250   1.404
54029W        W17588  21.598  19.570   4.151
54030W        W17589  40.890   6.336  10.577
54031W        W17590   9.794   0.329   0.790
54032W        W17591  37.047  27.500   1.415
54033W        W17592  14.630  21.065   9.986
54034W        W17593  15.149   7.346   4.185
54035W        W17594  20.196   8.782  12.962
54036W        W17595  20.697   7.695   2.864
54037W        W17596  12.631  18.208  12.449
54038W        W17597  35.374  42.460   3.157
54039W        W17598  10.237  36.997  12.386
54040W        W17599   6.209  25.962  10.491
54041W        W17600  10.646  31.583   1.372
54042W        W17601   0.340   1.355   2.845
54043W        W17602   7.414   9.384  10.530
54044W        W17603  38.344   5.356  12.910
54045W        W17604  21.221   2.364   2.315
54046W        W17605  25.517  33.465   1.811
54047W        W17606  17.689  38.852  14.841
54048W        W17607  24.631  34.954   3.648
54049W        W17608  40.956   4.322  14.400
54050W        W17609  40.804  18.059  12.913
54051W        W17610   1.339  12.229  14.428
54052W        W17611  27.649  18.117   4.761
54053W        W17612  20.114   5.825   0.282
54054W        W17613  29.662  42.905   3.868
54055W        W17614  26.008  35.559   2.841
54056W        W17615  30.972  13.154  13.878
54057W        W17616  15.163  22.724   4.203
54058W        W17617   9.693  42.483  11.534
54059W        W17618  36.894  43.959   3.332
54060W        W17619  28.027  35.885   4.129
54061W        W17620  22.114  31.476   0.734
54062W        W17621  23.166  43.474  11.408
54063W        W17622  36.498  11.697  13.311
54064W        W17623   0.872  14.689   2.874
54065W        W17624  32.401  30.541  10.639
54066W        W17625  23.036  14.733  10.953
54067W        W17626  19.540   2.232  14.013
54068W        W17627  35.374  31.629   3.283
54069W        W17628  30.939  12.656  13.052
54070W        W17629  19.696   5.761   0.922
54071W        W17630  25.713   1.913  11.981
54072W        W17631   1.270  33.943  13.905
54073W        W17632  36.448  20.647   4.616
54074W        W17633  23.159  43.788   1.741
54075W        W17634  37.880  40.473   4.814
54076W        W17635  15.115   8.752   4.220
54077W        W17636  21.730  24.082   2.362
54078W        W17637   6.901  26.614   4.191
54079W        W17638  35.381  22.235  14.506
54080W        W17639  16.589   8.831  12.506
54081W        W17640  35.052  42.328   3.228
54082W        W17641  21.264   4.815  10.480
54083W        W17642  37.538  22.587   1.913
54084W        W17643  22.200  15.276  14.317
54085W        W17644  27.135  35.938   4.197
54086W        W17645   1.925   0.333   2.698
54087W        W17646  20.264   8.250  10.561
54088W        W17647  17.167  31.951  11.111
54089W        W17648   9.205  24.567   0.860
54090W        W17649  42.818  40.364  10.937
54091W        W17650  19.755   2.926   4.215
54092W        W17651  17.213  21.517   3.832
54093W        W17652   6.892  25.174   3.319
54094W        W17653  10.243  23.601  13.385
54095W        W17654  14.107  22.144  13.453
54096W        W17655   2.370  41.413  13.823
54097W        W17656   8.263  32.538   3.675
54098W        W17657  19.062   5.843  14.448
54099W        W17658   7.216   8.350  14.472
54100W        W17659  33.436  28.026  11.069
54101W        W17660   6.777   3.355   0.944
54102W        W17661  36.089  33.450   5.592
54103W        W17662  14.223  42.377  13.933
54104W        W17663  30.112  25.637   3.757
54105W        W17664  23.123  26.530  11.452
54106W        W17665   7.361  36.553   4.245
54107W        W17666   0.436  29.625  11.897
54108W        W17667  11.744   3.710  13.510
54109W        W17668  32.450  38.974  13.809
54110W        W17669  44.786   2.294   0.742
54111W        W17670  24.219  14.693  13.495
54112W        W17671  43.329   1.359   4.337
54113W        W17672  44.439  24.207   0.921
54114W        W17673  29.128  28.523   4.789
54115W        W17674  44.947  43.385   1.830
54116W        W17675   6.733   5.360  11.472
54117W        W17676  44.957  42.327  11.516
54118W        W17677  39.412  20.195  14.344
54119W        W17678   0.408   6.255   1.876
54120W        W17679  11.164  29.115  12.825
54121W        W17680   3.780  38.459  13.838
54122W        W17681  30.913  20.678  13.313
54123W        W17682  26.059  12.358   0.387
54124W        W17683  15.667   3.711  10.947
54125W        W17684  21.685  23.200  10.424
54126W        W17685  12.651   7.289   1.840
54127W        W17686  19.080  10.861   3.370
54128W        W17687  30.472   1.340   2.324
54129W        W17688  32.596  35.984   3.754
54130W        W17689  43.783  14.171   3.318
54131W        W17690  21.615   5.398  11.507
54132W        W17691  18.579  21.031   1.890
54133W        W17692  31.544  13.270   4.754
54134W        W17693  25.181  18.727  11.982
54135W        W17694  18.790  13.748  10.946
54136W        W17695   4.762   0.901  12.458
54137W        W17696   2.900  28.037   4.199
54138W        W17697  11.732   1.826   2.838
54139W        W17698  14.287  41.913   4.733
54140W        W17699  11.861  12.139  13.020
54141W        W17700   3.733  14.301   0.253
54142W        W17701  29.464  13.728  12.556
54143W        W17702   3.762  41.867   0.316
54144W        W17703  31.435  30.445  11.971
54145W        W17704  31.567  32.120   3.801
54146W        W17705  26.109  10.835  11.995
54147W        W17706  22.040   0.300   2.376
54148W        W17707  20.220  25.202   0.815
54149W        W17708  20.267   7.869   2.798
54150W        W17709  39.050  27.191  14.802
54151W        W17710   4.405  26.606   4.782
54152W        W17711  18.710   3.765   3.307
54153W        W17712   0.292  30.621  14.886
54154W        W17713  16.306  22.577   1.846
54155W        W17714  11.826  27.024  10.914
54156W        W17715  15.213  25.052   0.781
54157W        W17716  27.566  43.787  10.628
54158W        W17717  10.781  36.581   0.372
54159W        W17718   8.774  29.989  10.534
54160W        W17719  13.238   9.856  11.564
54161W        W17720  28.586  32.614  11.604
54162W        W17721  10.278  25.477   5.248
54163W        W17722  16.702  18.092  14.339
54164W        W17723  15.654  16.655   9.939
54165W        W17724  39.387   7.401   4.620
54166W        W17725   2.445  41.930  14.320
54167W        W17726  30.432  20.629  13.410
54168W        W17727  12.722   9.232  11.065
54169W        W17728   3.954   7.708  10.494
54170W        W17729  14.159  40.855   4.303
54171W        W17730  11.666  23.595  13.912
54172W        W17731  23.207  26.078   3.797
54173W        W17732   6.897  19.607   2.778
54174W        W17733  16.656  14.293   0.412
54175W        W17734   9.785  43.969  13.381
54176W        W17735  29.145  14.629   3.703
54177W        W17736  38.564  18.748  12.920
54178W        W17737  35.039  37.891  13.501
54179W        W17738  25.114  44.881  11.442
54180W        W17739  12.354  40.494  14.828
54181W        W17740  18.105  28.674   1.872
54182W        W17741  44.388  13.664  11.088
54183W        W17742  31.001  35.581   0.452
54184W        W17743  24.187   1.249   4.187
54185W        W17744  21.645  21.179   5.282
54186W        W17745  14.236  20.534  11.420
54187W        W17746  20.197  17.151  11.974
54188W        W17747  15.787   5.845   4.256
54189W        W17748   8.247  39.970  12.547
54190W        W17749   3.888  31.409   3.285
54191W        W17750  15.765  20.237  12.984
54192W        W17751   5.353  12.176  13.498
54193W        W17752  31.532  41.365  12.922
54194W        W17753  14.715  28.477  12.998
54195W        W17754   2.855  22.534  11.922
54196W        W17755  21.650   6.868  11.531
54197W        W17756  44.952  37.452  12.046
54198W        W17757  24.659   2.738   4.188
54199W        W17758   9.852  31.066   1.897
54200W        W17759  23.168  13.833   4.794
54201W        W17760   4.887  42.866  10.605
54202W        W17761  28.581   3.263  12.930
54203W        W17762  23.119  20.592  12.476
54204W        W17763  36.954  33.905   3.817
54205W        W17764  22.570   7.297  10.013
54206W        W17765  16.230  20.636  12.349
54207W        W17766   8.307   7.830  14.472
54208W        W17767  23.605  18.084   4.146
54209W        W17768  28.987  14.736  14.447
54210W        W17769  32.974  12.673  14.384
54211W        W17770  40.985  25.472   2.753
54212W        W17771  36.460   2.881  13.908
54213W        W17772   1.466  15.657   3.376
54214W        W17773  25.533   2.303  12.870
54215W        W17774  16.241  30.152  11.489
54216W        W17775   3.944  29.032  13.857
54217W        W17776  20.176  21.646   1.881
54218W        W17777  30.086   9.829  13.903
54219W        W17778  38.381  14.336  14.300
54220W        W17779   2.802   9.790  10.486
54221W        W17780  27.529   6.297  13.396
54222W        W17781  36.555  18.639  12.871
54223W        W17782   9.182  43.903  11.562
54224W        W17783  23.025  44.314  13.978
54225W        W17784  22.530   1.967  11.107
54226W        W17785  30.657  43.396   0.311
54227W        W17786  41.408  14.604  11.042
54228W        W17787  15.782  44.478   2.194
54229W        W17788   3.823   8.695   4.834
54230W        W17789  40.960   7.903   0.879
54231W        W17790   0.441  25.984   2.757
54232W        W17791   2.949  21.222   4.758
54233W        W17792   1.364  32.534   0.757
54234W        W17793  12.338  39.502   2.370
54235W        W17794   6.319  19.567  12.362
54236W        W17795  30.019  35.995  12.432
54237W        W17796   6.239  32.050   2.208
54238W        W17797  17.213  36.853  13.405
54239W        W17798   0.317  18.716   2.283
54240W        W17799   8.877   1.960  13.824
54241W        W17800  20.622  12.724   4.160
54242W        W17801  30.623  38.436   5.106
54243W        W17802  26.174  35.531   3.250
54244W        W17803   4.424  29.991  12.360
54245W        W17804   6.764  34.453  10.519
54246W        W17805  11.359  36.375  13.984
54247W        W17806  30.574  44.264  14.026
54248W        W17807  32.137   4.834  10.913
54249W        W17808  43.873   9.725  12.397
54250W        W17809  13.142  23.635  12.387
54251W        W17810  12.115   5.372   2.828
54252W        W17811  26.953  32.028  13.533
54253W        W17812  29.980  44.812  10.634
54254W        W17813  44.477   8.857  10.406
54255W        W17814  16.665  25.512  11.092
54256W        W17815   8.854  17.094   3.669
54257W        W17816  23.578  32.538   1.258
54258W        W17817  35.860  20.739   2.393
54259W        W17818   8.218  32.986   0.759
54260W        W17819  23.188  34.382  13.953
54261W        W17820  16.222   6.676   0.336
54262W        W17821  36.081   1.920  13.894
54263W        W17822   9.672  19.653  10.536
54264W        W17823  39.999  11.153  12.092
54265W        W17824  17.290  35.077   0.889
54266W        W17825  12.844  11.665   2.275
54267W        W17826  43.804  15.702  13.806
54268W        W17827   0.885   5.315  14.762
54269W        W17828  22.682   4.389  11.082
54270W        W17829  15.709  16.216  13.379
54271W        W17830  17.066   2.843  13.885
54272W        W17831  38.404  34.918   3.755
54273W        W17832  33.386  14.190   1.447
54274W        W17833  31.024  12.121  12.444
54275W        W17834  38.832   9.287  14.285
54276W        W17835  23.141  23.712   4.319
54277W        W17836  32.496  26.180  13.452
54278W        W17837   5.722  19.564  11.600
54279W        W17838  17.099  33.091   3.160
54280W        W17839  25.137  40.960  10.509
54281W        W17840   6.303  38.370  10.488
54282W        W17841  11.315  37.568   2.688
54283W        W17842  19.084  11.299   4.184
54284W        W17843  26.164  32.412  10.520
54285W        W17844  21.592  39.449  13.902
54286W        W17845  33.599  38.520   0.851
54287W        W17846  31.446  11.349   3.791
54288W        W17847   4.428  17.216   4.320
54289W        W17848  15.092  17.217   0.762
54290W        W17849  35.494  14.170   1.733
54291W        W17850  38.852  26.459   1.226
54292W        W17851  41.941  30.504   2.777
54293W        W17852  32.931  21.061   4.718
54294W        W17853   5.287  22.728   4.756
54295W        W17854  32.493  30.161  13.945
54296W        W17855  23.226  10.269  13.884
54297W        W17856  35.547  18.570   4.686
54298W        W17857  41.972   1.784   3.302
54299W        W17858   9.765  35.372   5.302
54300W        W17859   1.841  25.602  14.493
54301W        W17860  25.661  22.560   1.768
54302W        W17861  36.862   8.835   2.207
54303W        W17862  28.577  20.256  13.427
54304W        W17863  10.184  44.788   2.213
54305W        W17864  19.743  18.067   1.726
54306W        W17865  36.065  23.093   1.334
54307W        W17866  37.037  12.141  11.469
54308W        W17867  37.059  17.713  11.868
54309W        W17868  28.451  15.715   3.680
54310W        W17869  13.279  19.223   1.360
54311W        W17870  28.149  38.370  12.969
54312W        W17871  13.818  32.091   2.365
54313W        W17872  36.593   3.750  13.790
54314W        W17873  28.941  20.633  14.020
54315W        W17874  15.731  17.139   3.703
54316W        W17875  24.533  22.521   0.324
54317W        W17876  41.830  20.048   2.872
54318W        W17877  31.113  35.494   4.150
54319W        W17878  13.799   4.837   1.845
54320W        W17879   5.830   1.932  13.327
54321W        W17880  33.547  41.863   1.413
54322W        W17881   1.316  42.501   4.218
54323W        W17882  19.544  38.933   2.841
54324W        W17883  36.506  11.790   3.765
54325W        W17884  31.532  35.078  10.515
54326W        W17885  21.254  40.530  14.835
54327W        W17886  44.894  20.623   4.336
54328W        W17887  28.141  39.523   0.480
54329W        W17888   2.924  27.106  11.494
54330W        W17889  37.073  20.746   3.184
54331W        W17890  35.393  13.781  12.518
54332W        W17891  12.179  10.191  12.476
54333W        W17892  16.123  38.413   0.859
54334W        W17893   7.676  13.141   5.147
54335W        W17894  17.099   4.706  11.519
54336W        W17895  24.027  36.494  14.878
54337W        W17896  22.189   8.173   3.821
54338W        W17897  16.287  38.359  10.637
54339W        W17898   0.419  39.427  10.409
54340W        W17899  28.081   7.404  10.628
54341W        W17900  18.273  18.100   1.874
54342W        W17901  23.142  11.300   9.590
54343W        W17902   9.726  31.998  12.954
54344W        W17903  28.679  23.199  10.076
54345W        W17904   4.874  21.755   1.846
54346W        W17905  25.079  33.384  11.417
54347W        W17906   8.176  11.755  12.077
54348W        W17907  40.368   5.300   1.255
54349W        W17908  24.579  38.541  10.592
54350W        W17909  27.553   9.651  10.528
54351W        W17910   1.857   3.855  10.892
54352W        W17911  18.145  41.448  11.511
54353W        W17912  15.285   0.800   1.320
54354W        W17913  14.316   8.655  14.022
54355W        W17914   3.809  14.795  14.404
54356W        W17915  31.428   4.442  12.091
54357W        W17916  32.545  30.519   1.312
54358W        W17917  42.432  39.839   4.186
54359W        W17918  21.205  25.171   1.887
54360W        W17919  13.706  33.417   3.250
54361W        W17920  18.582   1.444  10.608
54362W        W17921  21.606  11.287  13.475
54363W        W17922  38.076  42.820  13.379
54364W        W17923  36.056  34.948  14.982
54365W        W17924  11.773  38.333  10.421
54366W        W17925  27.483  16.087   4.727
54367W        W17926  15.117  19.662   2.794
54368W        W17927  43.447  27.042  11.979
54369W        W17928  32.556   3.422  13.866
54370W        W17929   2.403  38.554   2.819
54371W        W17930  13.333  12.281   3.684
54372W        W17931   9.330  38.988   1.367
54373W        W17932   8.765   0.454   0.248
54374W        W17933  33.942  21.721  12.896
54375W        W17934  35.106  37.417  11.118
54376W        W17935  35.931  13.832   3.841
54377W        W17936  17.759  37.508   1.737
54378W        W17937  25.612  23.669   2.737
54379W        W17938  14.758  16.652   4.348
54380W        W17939  16.628  36.472  11.882
54381W        W17940   8.376  26.582  14.019
54382W        W17941  17.657  25.066  11.538
54383W        W17942   0.430  22.209   3.168
54384W        W17943  10.716  17.147  10.443
54385W        W17944  12.636  43.451   3.749
54386W        W17945  22.603  37.057  14.775
54387W        W17946   7.711  23.030   3.260
54388W        W17947  41.479  37.565   1.399
54389W        W17948   6.419  11.294  13.062
54390W        W17949  43.407  31.617  13.857
54391W        W17950  22.533  17.561  14.452
54392W        W17951  13.346   4.294   0.315
54393W        W17952  20.239  41.877   1.261
54394W        W17953   5.794   4.253   0.448
54395W        W17954  38.873  21.235  12.421
54396W        W17955  30.960  16.183   2.799
54397W        W17956  40.049  30.624   2.750
54398W        W17957  30.098   0.262  10.993
54399W        W17958  20.240   0.871   2.263
54400W        W17959  18.648  37.350   3.375
54401W        W17960  39.924  27.679   2.225
54402W        W17961  21.088  30.544   5.684
54403W        W17962  36.064   2.840  12.457
54404W        W17963  30.916   7.198   0.791
54405W        W17964   2.785  19.766  12.052
54406W        W17965  17.255   1.887   4.647
54407W        W17966   9.392  32.517  13.461
54408W        W17967  33.428  14.759   3.358
54409W        W17968  15.628   8.798  10.903
54410W        W17969   4.930  38.549   3.737
54411W        W17970  44.791  38.335  13.883
54412W        W17971  10.814  14.335  14.810
54413W        W17972  12.148   9.848   0.252
54414W        W17973  37.475  26.052   1.280
54415W        W17974  26.522  41.015  13.953
54416W        W17975  44.757  16.263  11.894
54417W        W17976  25.637  37.348  13.483
54418W        W17977  39.990   6.874  14.430
54419W        W17978   5.231  26.125   4.762
54420W        W17979  23.653  32.406   0.732
54421W        W17980   0.817   4.798   1.901
54422W        W17981  38.453   8.234  13.438
54423W        W17982  10.329  23.682   3.348
54424W        W17983  40.009  23.711   3.658
54425W        W17984  34.906  34.959   0.776
54426W        W17985  44.761   2.941   3.158
54427W        W17986  27.453   0.769   1.749
54428W        W17987  36.407   4.891   2.862
54429W        W17988   2.901  28.437   2.876
54430W        W17989  18.692  21.150   0.275
54431W        W17990   0.392  37.381  11.437
54432W        W17991   0.421  12.779  14.951
54433W        W17992  22.564  26.561  13.453
54434W        W17993  21.158   4.433   0.429
54435W        W17994  17.606  22.675   1.449
54436W        W17995  10.243  12.769   0.247
54437W        W17996   8.334  29.995   3.648
54438W        W17997  10.809  32.549  13.490
54439W        W17998  24.204  41.986  11.059
54440W        W17999   3.921  12.157  12.499
54441W        W18000   5.371  25.172  14.493
54442W        W18001   9.886  33.566  11.063
54443W        W18002  25.016   7.717   3.383
54444W        W18003  12.189  20.075  14.382
54445W        W18004  34.599  24.527   0.459
54446W        W18005  44.414   3.804   4.294
54447W        W18006   3.946  14.615  10.481
54448W        W18007  44.825  42.803  13.317
54449W        W18008  27.074   6.266   0.897
54450W        W18009  42.323   9.314   1.409
54451W        W18010   4.300  28.135  10.961
54452W        W18011   0.477  39.990  12.013
54453W        W18012   2.466  35.899  14.879
54454W        W18013   8.899  14.219  14.974
54455W        W18014  32.116  38.465  14.373
54456W        W18015  39.343  30.908  14.319
54457W        W18016  11.736  29.019  11.510
54458W        W18017   6.858   9.803   0.280
54459W        W18018  26.478  23.700  13.054
54460W        W18019   6.859  42.369   2.798
54461W        W18020  27.624  25.631   4.689
54462W        W18021  20.097  35.032   1.420
54463W        W18022  29.982   7.878   1.401
54464W        W18023  37.920  42.306   0.821
54465W        W18024  19.775  21.048  14.923
54466W        W18025  34.922  13.710   0.280
54467W        W18026   7.779  36.360   2.277
54468W        W18027  12.792  14.170  14.899
54469W        W18028   0.933  36.493   1.874
54470W        W18029  14.270   6.184  12.071
54471W        W18030  10.758  40.979  11.929
54472W        W18031  24.214   2.784  11.597
54473W        W18032  37.403  10.723   3.373
54474W        W18033  38.914  28.008   2.729
54475W        W18034   6.828  26.203  12.830
54476W        W18035  12.811  44.802  12.905
54477W        W18036  12.284  16.074  14.387
54478W        W18037   7.248  38.562   0.849
54479W        W18038  18.212  17.700  14.287
54480W        W18039  16.072  32.078  14.275
54481W        W18040  34.013  44.404  12.973
54482W        W18041  25.711  26.189  11.080
54483W        W18042   8.287  14.798  14.317
54484W        W18043  44.458  44.933   1.763
54485W        W18044  32.120  44.907   0.454
54486W        W18045   5.903  22.118   1.418
54487W        W18046  18.103  38.375  13.809
54488W        W18047  30.926  20.164   4.733
54489W        W18048  39.509  26.065  11.908
54490W        W18049  36.061  10.161   3.332
54491W        W18050   4.743   2.456  10.497
54492W        W18051  37.918  29.492   1.267
54493W        W18052   0.768  42.960  13.853
54494W        W18053   7.348  10.307  13.433
54495W        W18054  41.873   8.283   0.908
54496W        W18055  27.097   9.358  10.148
54497W        W18056  30.966  19.193   3.792
54498W        W18057   8.842  23.027   1.802
54499W        W18058  25.561   0.946   3.719
54500W        W18059  30.081  16.754  12.481
54501W        W18060  12.314  43.439   3.842
54502W        W18061  25.169  44.808   1.341
54503W        W18062  31.414  35.972   2.894
54504W        W18063  12.153  33.045  12.894
54505W        W18064  18.666  32.505   2.262
54506W        W18065  33.075  42.962   2.814
54507W        W18066   5.418  37.856   0.851
54508W        W18067  39.978  41.515   3.176
54509W        W18068  34.960   1.349   0.841
54510W        W18069  36.884  44.320  12.953
54511W        W18070   8.285  12.310   2.198
54512W        W18071  40.533  29.971   0.364
54513W        W18072  12.794   9.813  12.950
54514W        W18073  36.442  40.856   2.755
54515W        W18074   6.919  23.616  14.298
54516W        W18075   5.788  30.943  10.462
54517W        W18076  20.681   7.189  12.021
54518W        W18077  15.107  10.764  11.114
54519W        W18078  33.493  25.179   0.846
54520W        W18079  41.404  27.644   2.213
54521W        W18080   5.780   1.337  11.519
54522W        W18081  28.573  14.743   1.441
54523W        W18082  32.577  40.048   0.922
54524W        W18083   7.887  25.046   5.263
54525W        W18084  16.185  20.622   0.761
54526W        W18085  37.832  24.095  13.910
54527W        W18086  26.482  21.677  10.514
54528W        W18087  19.105  14.227   0.345
54529W        W18088  23.101  13.244   0.311
54530W        W18089  40.526  21.101  10.585
54531W        W18090   2.810  23.733   3.316
54532W        W18091  31.139  27.081   2.750
54533W        W18092  32.484  40.326   2.215
54534W        W18093   5.285  32.445  11.573
54535W        W18094  34.076  15.800   2.901
54536W        W18095   2.373  14.123  12.044
54537W        W18096   3.395  39.556  10.918
54538W        W18097  34.968   4.735   4.610
54539W        W18098  24.013   0.847   4.800
54540W        W18099  33.024  42.302   0.930
54541W        W18100  17.271   1.314   3.325
54542W        W18101  40.907  21.088  12.437
54543W        W18102  19.264   3.724  10.406
54544W        W18103  23.065  36.376  11.501
54545W        W18104  36.040  12.756  13.956
54546W        W18105  37.404   1.274   4.327
54547W        W18106  40.855  16.775   2.406
54548W        W18107  17.590   1.733  12.917
54549W        W18108  42.430   9.848  14.455
54550W        W18109  26.663  26.698   2.749
54551W        W18110  35.580  12.152  12.526
54552W        W18111  38.860   2.802   3.369
54553W        W18112   3.742   4.245   4.191
54554W        W18113  41.394  10.818   2.280
54555W        W18114  42.418  30.014   4.170
54556W        W18115   2.340  12.818  12.853
54557W        W18116  18.072  32.029  12.865
54558W        W18117  25.039  28.533  10.967
54559W        W18118  35.520  26.588   1.271
54560W        W18119  17.277  15.817   0.388
54561W        W18120  39.038  38.536  11.511
54562W        W18121   7.898  39.477   4.332
54563W        W18122  29.575   2.925  14.921
54564W        W18123  19.613  33.407   3.353
54565W        W18124  17.237  29.600   1.325
54566W        W18125  28.570  38.459  14.842
54567W        W18126  26.545  36.382   3.170
54568W        W18127   7.282  28.493  12.071
54569W        W18128  35.413   0.921   1.303
54570W        W18129  18.115  33.046   1.436
54571W        W18130  23.041  42.980   1.377
54572W        W18131  12.717  35.565  10.595
54573W        W18132  32.617  12.685  13.058
54574W        W18133  30.633  44.465   0.744
54575W        W18134  25.042  33.958  14.452
54576W        W18135  42.918  32.598   3.187
54577W        W18136  42.445  15.278   1.703
54578W        W18137  12.796   6.236   2.680
54579W        W18138  15.221  21.078   0.944
54580W        W18139   9.710  22.631   4.762
54581W        W18140  16.133  41.506  11.583
54582W        W18141  43.969   6.405  11.080
54583W        W18142  18.660  22.657   3.738
54584W        W18143  32.889  31.425   2.186
54585W        W18144  21.733  33.020  13.795
54586W        W18145   2.859  27.572  10.992
54587W        W18146  23.651  37.044   1.331
54588W        W18147  10.380   0.294   3.835
54589W        W18148  21.554  21.546  12.909
54590W        W18149  34.435  36.583   0.467
54591W        W18150   6.234   5.888  13.501
54592W        W18151   7.684  15.727   1.225
54593W        W18152  40.449  43.817   0.743
54594W        W18153  38.372   8.160  10.921
54595W        W18154  28.035  39.968  14.446
54596W        W18155  25.609  31.997  13.357
54597W        W18156   3.918  43.961   2.837
54598W        W18157  23.100  44.827  10.911
54599W        W18158  25.485  22.580  11.392
54600W        W18159  34.478  27.517  10.638
54601W        W18160  21.648  28.619  11.950
54602W        W18161  20.539  18.260  12.509
54603W        W18162  17.693  12.849  10.572
54604W        W18163  18.660  24.124  13.882
54605W        W18164   9.659  20.170   0.245
54606W        W18165  37.579  15.194  13.546
54607W        W18166  27.956  12.830   1.416
54608W        W18167  23.176   8.296   4.200
54609W        W18168  25.000  44.324  10.453
54610W        W18169  29.493  30.530  13.361
54611W        W18170   8.216  18.129  13.020
54612W        W18171   7.829  13.796   3.688
54613W        W18172  39.892   4.831  11.450
54614W        W18173  10.767  30.161  14.950
54615W        W18174  31.924  20.607   3.349
54616W        W18175   9.345   5.711  11.066
54617W        W18176   7.172  12.325   0.326
54618W        W18177   0.311  38.935   2.890
54619W        W18178  36.011   1.855  11.593
54620W        W18179  38.553   0.454   4.620
54621W        W18180  37.475  24.211  11.099
54622W        W18181  43.461  33.476   4.348
54623W        W18182  29.145  36.384   2.688
54624W        W18183  22.598  16.075  11.930
54625W        W18184   2.271  24.496  12.874
54626W        W18185  28.146  22.635  12.831
54627W        W18186   1.772  37.518  14.938
54628W        W18187  19.059  34.898  11.874
54629W        W18188   4.257  41.789  14.777
54630W        W18189  14.645  21.552   2.263
54631W        W18190  27.545  32.937  14.394
54632W        W18191  30.961  34.900  11.980
54633W        W18192  42.489  24.129   1.830
54634W        W18193  16.208   4.406   3.274
54635W        W18194  13.758   9.250  11.377
54636W        W18195   4.831  36.033   4.614
54637W        W18196   8.375  22.506   0.888
54638W        W18197  25.709  34.591   2.394
54639W        W18198   6.198  24.027  10.553
54640W        W18199  29.499  44.393   0.749
54641W        W18200  24.607  20.567  11.030
54642W        W18201   0.981   0.849   0.758
54643W        W18202  16.715  18.240   3.314
54644W        W18203  32.122  12.223   4.618
54645W        W18204  19.570  12.294   0.915
54646W        W18205  40.451  31.994   9.447
54647W        W18206  33.102  10.830   2.361
54648W        W18207   3.236  20.102  14.865
54649W        W18208  39.030  42.801  10.116
54650W        W18209  21.082  25.534  12.401
54651W        W18210  32.005  35.488   3.723
54652W        W18211  12.166   2.242  11.515
54653W        W18212  20.627  28.997   2.829
54654W        W18213  19.047  38.876  11.001
54655W        W18214  34.083  34.118  13.860
54656W        W18215  27.171  19.601  12.089
54657W        W18216  32.108  40.833  11.559
54658W        W18217   8.767  39.904  11.399
54659W        W18218  32.965  27.943  13.855
54660W        W18219  17.627  19.693  12.064
54661W        W18220  27.092  25.166   4.323
54662W        W18221   0.827  15.146  13.349
54663W        W18222  25.142  33.421  14.878
54664W        W18223   2.945  40.361   3.823
54665W        W18224  10.166   9.830  11.438
54666W        W18225  24.983  36.461  13.419
54667W        W18226   4.919  36.452   3.233
54668W        W18227  35.551  22.120   2.760
54669W        W18228  25.554  10.864  11.507
54670W        W18229   9.797   6.915  14.874
54671W        W18230  32.623  24.048  14.463
54672W        W18231  32.517  10.294   3.266
54673W        W18232   7.858  25.019   0.307
54674W        W18233  16.723  26.461   3.865
54675W        W18234  27.148  30.120   2.233
54676W        W18235  12.300   9.293  12.835
54677W        W18236  15.706  28.603  14.310
54678W        W18237   1.251  39.453  10.490
54679W        W18238  11.146  32.406  14.426
54680W        W18239  31.911  10.718   1.931
54681W        W18240  28.504  41.354  11.979
54682W        W18241  17.760  20.584  11.016
54683W        W18242  40.390  21.526  14.803
54684W        W18243  41.452  44.786   2.813
54685W        W18244  41.387   7.303  13.460
54686W        W18245   9.271   1.342  12.548
54687W        W18246  29.566  37.053   4.665
54688W        W18247  42.370  39.052   3.297
54689W        W18248   7.863  40.868  14.405
54690W        W18249  44.334  16.130  13.989
54691W        W18250   1.452   8.171  11.912
54692W        W18251  13.224  23.670   2.328
54693W        W18252   3.866  34.562  13.317
54694W        W18253   8.663  43.272   4.225
54695W        W18254   2.370   6.736   1.212
54696W        W18255   8.764   9.186   3.317
54697W        W18256  31.579  31.981  14.961
54698W        W18257   7.401  16.689  14.891
54699W        W18258  35.888   2.405  11.892
54700W        W18259  38.548  20.267  14.954
54701W        W18260  20.089  18.143  12.948
54702W        W18261  20.089  37.074  12.557
54703W        W18262  41.330  25.517   1.385
54704W        W18263   7.171  30.580  11.563
54705W        W18264  41.501   7.209   4.836
54706W        W18265  38.404  44.307  12.354
54707W        W18266  21.056  38.064  13.495
54708W        W18267  11.288  16.692   0.812
54709W        W18268  10.366  18.614   4.351
54710W        W18269   9.188   5.811  13.389
54711W        W18270  41.043  28.072   0.912
54712W        W18271  37.028  34.485   4.729
54713W        W18272  41.338  34.003   4.115
54714W        W18273  14.809  30.074  12.412
54715W        W18274  36.576   4.301   4.184
54716W        W18275  19.238  23.722  14.413
54717W        W18276  44.422  17.753   4.715
54718W        W18277   9.322  43.364   0.427
54719W        W18278  28.131  36.041   2.307
54720W        W18279  39.338   7.223   1.284
54721W        W18280   7.667  15.579  10.454
54722W        W18281  31.900  23.598   1.913
54723W        W18282  33.081  36.076  12.000
54724W        W18283   9.686  13.208  12.384
54725W        W18284  43.507   2.422   3.238
54726W        W18285   7.750   2.749   0.899
54727W        W18286  19.072  30.939   2.703
54728W        W18287  42.465  24.719   1.263
54729W        W18288   4.802  12.234   1.782
54730W        W18289  21.627  25.671  11.965
54731W        W18290   3.273  24.183   3.229
54732W        W18291  34.525  28.022  11.011
54733W        W18292  20.129   5.281   2.765
54734W        W18293   8.380  23.122   0.404
54735W        W18294  31.148   6.777  13.838
54736W        W18295   7.846   2.837  11.980
54737W        W18296  39.945  27.520  13.002
54738W        W18297  40.021  23.167  13.050
54739W        W18298   9.297  27.191  13.929
54740W        W18299  14.311   0.742   4.290
54741W        W18300  13.760   5.694   1.305
54742W        W18301  29.468  24.683  14.432
54743W        W18302  43.467  40.007  12.843
54744W        W18303  34.940  30.521  14.492
54745W        W18304  21.691  26.465   2.417
54746W        W18305  11.682  39.560   4.748
54747W        W18306   2.938  43.426  14.811
54748W        W18307  41.937  19.164   2.381
54749W        W18308  20.604  29.450  11.502
54750W        W18309  41.919  18.116   0.933
54751W        W18310  41.787  20.626  11.957
54752W        W18311  22.579  30.923  10.136
54753W        W18312  28.161  35.968   0.962
54754W        W18313  15.132   0.428  10.946
54755W        W18314  26.073  26.571   2.884
54756W        W18315  29.991  16.577   0.836
54757W        W18316  11.796  17.590   0.442
54758W        W18317  12.284  13.289  10.420
54759W        W18318  39.920  14.645  14.907
54760W        W18319  40.535  31.437   1.445
54761W        W18320  39.550  44.265  13.958
54762W        W18321  36.991  21.034  14.372
54763W        W18322  33.535  44.804  13.353
54764W        W18323   6.711  32.614   4.770
54765W        W18324  23.690   4.818   4.786
54766W        W18325  12.752  19.247  13.034
54767W        W18326  23.720  40.946  12.357
54768W        W18327   4.442  21.538  12.079
54769W        W18328   4.737  37.874  12.019
54770W        W18329  19.667  20.231   2.827
54771W        W18330   8.698  29.129   3.299
54772W        W18331  29.664  18.230   4.671
54773W        W18332  31.560   2.229  13.051
54774W        W18333  25.080  38.892   0.318
54775W        W18334  12.676  12.122  13.992
54776W        W18335  35.059  26.597   3.237
54777W        W18336   7.243  16.308  10.538
54778W        W18337  14.206  30.472   1.286
54779W        W18338  37.995  29.001   1.342
54780W        W18339  15.617  32.101   4.185
54781W        W18340  10.143  40.437   3.251
54782W        W18341  11.798  32.989   5.700
54783W        W18342   8.376  24.117   3.814
54784W        W18343  35.548  34.473   0.897
54785W        W18344  18.748  24.705  11.552
54786W        W18345  39.552   6.890  12.567
54787W        W18346  28.648  16.779   3.348
54788W        W18347  44.963   2.953  13.863
54789W        W18348  44.878   9.674  14.444
54790W        W18349   7.801  21.155  14.411
54791W        W18350   5.737  24.631  13.947
54792W        W18351  17.561  25.490  11.093
54793W        W18352  26.515  20.549   1.772
54794W        W18353  13.128  12.822  10.622
54795W        W18354   3.883  28.966   3.826
54796W        W18355  42.291   1.242  10.954
54797W        W18356  18.187  15.092   2.889
54798W        W18357  12.665  30.597   0.270
54799W        W18358   9.353  35.869   4.313
54800W        W18359  36.911  26.518  11.496
54801W        W18360   7.303  42.986   4.294
54802W        W18361   6.686  32.484   1.847
54803W        W18362  27.584   9.819   3.329
54804W        W18363  34.467  44.926   1.227
54805W        W18364   3.803  33.112   4.134
54806W        W18365  29.996  13.841   2.662
54807W        W18366   0.769  14.767   2.290
54808W        W18367  28.026  19.092  13.809
54809W        W18368  40.952  39.454  14.027
54810W        W18369  44.784  42.313   1.817
54811W        W18370  16.140  37.040  14.440
54812W        W18371   4.255  30.024  10.910
54813W        W18372   7.817  36.875   4.832
54814W        W18373  23.709   2.924  12.567
54815W        W18374  24.124  23.992   4.121
54816W        W18375   7.338  13.167   1.708
54817W        W18376  31.570  19.285  10.502
54818W        W18377  29.655  32.548  12.425
54819W        W18378   6.294  42.329  10.545
54820W        W18379  32.896   7.715   4.774
54821W        W18380   0.985  13.675  13.308
54822W        W18381   8.366   6.423  10.892
54823W        W18382  29.665  23.503   0.924
54824W        W18383   2.240  12.765   4.354
54825W        W18384  28.117  27.157  12.501
54826W        W18385  38.521  14.661   4.730
54827W        W18386  33.113   1.961  10.910
54828W        W18387   3.246  41.340  13.506
54829W        W18388  20.039   7.290   0.838
54830W        W18389  19.054  15.201   1.707
54831W        W18390  10.691  29.589  14.886
54832W        W18391  13.344  41.538  14.825
54833W        W18392   3.378  20.062  14.351
54834W        W18393  21.689  25.103  13.880
54835W        W18394  25.020  28.631  11.490
54836W        W18395  20.673  37.460   3.750
54837W        W18396  19.094   4.903  10.626
54838W        W18397   2.280  34.585  11.469
54839W        W18398  11.252  18.556   3.173
54840W        W18399  16.769  20.217   1.863
54841W        W18400  41.432  44.465   5.270
54842W        W18401  40.502   9.702  11.384
54843W        W18402   0.855  21.086  11.384
54844W        W18403  22.119   7.280  11.612
54845W        W18404  35.976  17.125  14.432
54846W        W18405   9.273  19.142   1.922
54847W        W18406  11.164   8.771  10.905
54848W        W18407  41.934  37.024   4.207
54849W        W18408  42.014  29.007   3.267
54850W        W18409  22.677  26.637  10.154
54851W        W18410  39.867   0.931  10.933
54852W        W18411   9.187  44.303   2.279
54853W        W18412  18.649   6.233  14.991
54854W        W18413  43.394  38.394  13.378
54855W        W18414  27.056   1.248  11.920
54856W        W18415  43.359   6.689   3.240
54857W        W18416  12.159   8.167   1.897
54858W        W18417   1.321  17.670   0.778
54859W        W18418   1.948  27.528  14.300
54860W        W18419  15.127  17.718  13.500
54861W        W18420  17.090  10.346   4.298
54862W        W18421   1.346  28.630  12.002
54863W        W18422  30.608  38.427   1.915
54864W        W18423  24.581  21.587  12.539
54865W        W18424  17.800  44.996  11.111
54866W        W18425  44.794  12.151  12.012
54867W        W18426  42.957  15.227   4.159
54868W        W18427  20.043  15.775  13.340
54869W        W18428   3.300  43.404   1.820
54870W        W18429  12.166  19.749  10.959
54871W        W18430  39.953  25.180   2.769
54872W        W18431   0.405  44.912   3.353
54873W        W18432  22.507   3.225   5.274
54874W        W18433   7.769  25.696   4.599
54875W        W18434  24.066  31.532  13.849
54876W        W18435  25.978  42.417  11.535
54877W        W18436  21.665   9.661  11.945
54878W        W18437   5.785  35.506  14.016
54879W        W18438  41.018  15.325   1.879
54880W        W18439  33.553  41.943   3.720
54881W        W18440  17.175  38.880   4.602
54882W        W18441   1.273  31.990  13.443
54883W        W18442  11.848  22.192   3.184
54884W        W18443  40.992  13.654  12.402
54885W        W18444  42.358   5.696   1.348
54886W        W18445  13.740  44.341  13.455
54887W        W18446  34.538  29.645  14.371
54888W        W18447  36.018  33.911  13.948
54889W        W18448  22.142  28.168   2.383
54890W        W18449  28.558  26.689   0.815
54891W        W18450  10.301  36.947  14.769
54892W        W18451  14.144  22.574   3.695
54893W        W18452  35.583   3.926   0.935
54894W        W18453   7.696  32.424  14.336
54895W        W18454  44.805   8.244  13.469
54896W        W18455   9.314  29.468   4.670
54897W        W18456  12.286  13.226  10.921
54898W        W18457   1.897   9.736   1.226
54899W        W18458  12.792  27.690   3.282
54900W        W18459  40.527  33.044  11.384
54901W        W18460  19.552  43.363   4.266
54902W        W18461  14.118  27.026   1.395
54903W        W18462  43.370  30.524   4.141
54904W        W18463   5.392  21.736   3.632
54905W        W18464  18.136   9.845   4.316
54906W        W18465  34.017  15.226   3.279
54907W        W18466  39.034   1.373   3.287
54908W        W18467  24.537  16.313  13.528
54909W        W18468   6.876  43.270   2.408
54910W        W18469  34.082  36.460   3.645
54911W        W18470  33.533  30.997  13.509
54912W        W18471  16.167  32.983   4.190
54913W        W18472   1.417  12.327   4.707
54914W        W18473  16.729   3.354   3.381
54915W        W18474  37.970  30.449   9.955
54916W        W18475  41.023  36.477  11.494
54917W        W18476   7.767  20.188  12.884
54918W        W18477   7.679   9.861  14.936
54919W        W18478  40.478  35.084  10.583
54920W        W18479   4.385  38.040  14.862
54921W        W18480  16.209   0.373  14.956
54922W        W18481  42.503  40.508   2.841
54923W        W18482  38.000   2.836  13.334
54924W        W18483  38.043  37.538  13.542
54925W        W18484  37.374  39.405   3.299
54926W        W18485  16.699  10.737   2.325
54927W        W18486  31.562   0.409  14.773
54928W        W18487  14.651  34.049  11.934
54929W        W18488  12.177  38.995   4.346
54930W        W18489   9.382  33.440   2.192
54931W        W18490  24.676  19.589   0.306
54932W        W18491   2.432  35.551  12.018
54933W        W18492  41.356   7.323   3.825
54934W        W18493   7.824  20.713   2.186
54935W        W18494  42.807  25.169  10.565
54936W        W18495  17.643  14.704   0.398
54937W        W18496  12.739   0.818  11.394
54938W        W18497  36.873  37.005  14.369
54939W        W18498  38.485   2.259  12.068
54940W        W18499  38.955  36.357   3.851
54941W        W18500  11.833  26.050  12.532
54942W        W18501  43.879  28.442  14.874
54943W        W18502  42.380  21.259  14.775
54944W        W18503  14.635  40.485   1.396
54945W        W18504   0.751  14.790  11.397
54946W        W18505  25.691  31.092  13.447
54947W        W18506  40.501   4.767  14.407
54948W        W18507  19.090  35.912   2.758
54949W        W18508   0.834   8.371   4.655
54950W        W18509   3.303   1.382   4.784
54951W        W18510  35.959  31.627  14.784
54952W        W18511   0.777  26.061   1.405
54953W        W18512  27.557  31.027   0.335
54954W        W18513  39.506  15.187   4.211
54955W        W18514  13.688   3.819  11.964
54956W        W18515  32.056  27.965  13.863
54957W        W18516   4.897  13.761  10.910
54958W        W18517  31.425  15.738   1.906
54959W        W18518  16.174  21.712   3.151
54960W        W18519  24.655  42.898  13.860
54961W        W18520   4.924   9.703  11.088
54962W        W18521   4.336  13.731   1.749
54963W        W18522   7.354  30.657  10.969
54964W        W18523   4.925  41.862  11.560
54965W        W18524  20.080  25.499   3.712
54966W        W18525  15.247  34.524   0.832
54967W        W18526  11.703  39.339   3.737
54968W        W18527  38.045  34.045   2.212
54969W        W18528  10.770  33.585   0.915
54970W        W18529  28.136  14.261  10.140
54971W        W18530  23.217  32.980  14.296
54972W        W18531  28.495  43.846  12.843
54973W        W18532  23.492  19.105   4.786
54974W        W18533   9.150   4.813  11.496
54975W        W18534   3.292  42.813   1.278
54976W        W18535  26.200  44.285   1.807
54977W        W18536  15.084  39.941  11.918
54978W        W18537  20.722   8.244  13.914
54979W        W18538  34.580  37.835  13.860
54980W        W18539  36.464   8.762  13.915
54981W        W18540   9.719  32.541   2.775
54982W        W18541   9.245  37.414   1.871
54983W        W18542  11.628  17.161  13.364
54984W        W18543  29.155  44.348  13.016
54985W        W18544  29.574  39.364  12.079
54986W        W18545  10.761   2.254  11.431
54987W        W18546  24.504  35.940   2.243
54988W        W18547   8.262   3.821   1.382
54989W        W18548  37.967  20.081   2.890
54990W        W18549  29.438   9.770  11.557
54991W        W18550  15.148   9.191   0.302
54992W        W18551  25.628   0.418  14.823
54993W        W18552  28.948  34.466  10.980
54994W        W18553  35.871  29.622   0.762
54995W        W18554  28.076   2.754   1.851
54996W        W18555  15.663  37.077  14.322
54997W        W18556   0.757  22.159   2.364
54998W        W18557  43.327   7.761   0.357
54999W        W18558   3.825   4.743   4.219
55000W        W18559  34.558   1.878   1.858
55001W        W18560  44.491  34.536   0.778
55002W        W18561   8.392  36.557   1.403
55003W        W18562  14.831  42.317   4.140
55004W        W18563  38.038  41.994  11.961
55005W        W18564  12.221   5.836   1.748
55006W        W18565  27.088  19.250   1.360
55007W        W18566   5.268  16.752   3.163
55008W        W18567  36.355  39.995   0.426
55009W        W18568  21.630  12.758  11.912
55010W        W18569  26.608   3.294   1.872
55011W        W18570  31.077  35.024   4.313
55012W        W18571  27.959  16.214   1.757
55013W        W18572  39.537  38.832  11.891
55014W        W18573  13.668  15.759   0.260
55015W        W18574  41.369  16.573   3.769
55016W        W18575  25.040   9.320   9.940
55017W        W18576  38.432  37.888   3.752
55018W        W18577  34.592  41.908   4.756
55019W        W18578  11.702  41.848  11.016
55020W        W18579  17.710  37.505  11.042
55021W        W18580   2.767  27.511  12.375
55022W        W18581  42.854  14.273   1.433
55023W        W18582  41.311  41.322  12.491
55024W        W18583  24.039  22.663   3.383
55025W        W18584  35.043  18.118  13.837
55026W        W18585  41.417   7.701  11.128
55027W        W18586  37.022  22.026   4.826
55028W        W18587   6.727  17.251  12.041
55029W        W18588  16.798   0.357   1.789
55030W        W18589  18.753  19.779   1.395
55031W        W18590   9.366  27.094   4.176
55032W        W18591  31.510   0.353   3.713
55033W        W18592  27.628  10.863  10.504
55034W        W18593  33.922  23.583  14.948
55035W        W18594  19.198  31.989  12.363
55036W        W18595  29.476   2.427   2.901
55037W        W18596  44.284  12.784  10.980
55038W        W18597  30.913  18.760   1.378
55039W        W18598  35.996   4.902  11.011
55040W        W18599  21.153  41.866   5.112
55041W        W18600  24.057   9.826   9.510
55042W        W18601   5.275  27.075  11.002
55043W        W18602  16.103  38.014   1.255
55044W        W18603   0.844   7.858   2.310
55045W        W18604  20.751  34.575   3.338
55046W        W18605  35.076  33.510  10.570
55047W        W18606   9.744  30.148   1.359
55048W        W18607  13.654  19.196   3.282
55049W        W18608   8.747  12.127  10.961
55050W        W18609  15.185  16.580  12.396
55051W        W18610  44.985   3.412   4.212
55052W        W18611  29.145  31.038  14.494
55053W        W18612  26.092  18.103   2.410
55054W        W18613  12.118  40.386   1.216
55055W        W18614  28.020  32.972  10.594
55056W        W18615  19.750   7.387   0.916
55057W        W18616  34.440  42.949  13.834
55058W        W18617  32.444   5.366   2.244
55059W        W18618  13.147  31.463  10.593
55060W        W18619  22.539   2.368  14.832
55061W        W18620   1.316  38.442   3.816
55062W        W18621  35.572   3.934   4.169
55063W        W18622   3.838   4.316   1.440
55064W        W18623   9.665   7.791  12.826
55065W        W18624  28.060   0.972   4.778
55066W        W18625  28.495  31.524  10.562
55067W        W18626  44.920  12.615  12.547
55068W        W18627   6.724  31.125   1.440
55069W        W18628  21.746  28.936  10.986
55070W        W18629  42.515  40.495   1.820
55071W        W18630  17.076  32.945  14.399
55072W        W18631  35.983  27.125  14.996
55073W        W18632  13.638  39.537  14.452
55074W        W18633  38.977  39.878  10.100
55075W        W18634   1.464  10.355   0.250
55076W        W18635  12.718  41.939  12.560
55077W        W18636  24.013  44.948   1.897
55078W        W18637  25.974   7.254   2.347
55079W        W18638  36.576  26.169   2.289
55080W        W18639   9.812  32.048  11.600
55081W        W18640   9.739  38.557  12.408
55082W        W18641  30.510  43.419   4.656
55083W        W18642  19.555  35.362  13.403
55084W        W18643   9.395  36.988  11.530
55085W        W18644  44.431  11.749   1.801
55086W        W18645   9.216  20.153  12.883
55087W        W18646   4.720  35.988  11.870
55088W        W18647   9.850  39.358   2.322
55089W        W18648  43.427  13.271  14.459
55090W        W18649  44.833  42.902  14.823
55091W        W18650  33.011  18.576   0.329
55092W        W18651  30.544  42.904  11.394
55093W        W18652  19.693  38.947   4.644
55094W        W18653   5.804  39.019  13.892
55095W        W18654  17.568  37.566   0.873
55096W        W18655   8.811  17.556  10.518
55097W        W18656  25.576   0.899   0.878
55098W        W18657   0.755  34.053   4.722
55099W        W18658   8.669  17.242  13.982
55100W        W18659  42.444  28.024   4.117
55101W        W18660  42.825  24.684   2.667
55102W        W18661  12.215  16.785  13.022
55103W        W18662   3.304  15.812   1.749
55104W        W18663   5.252  44.418   1.265
55105W        W18664  27.184  31.641   0.363
55106W        W18665  21.223  40.427   1.724
55107W        W18666  13.290   2.386   2.711
55108W        W18667  16.711  35.529  12.845
55109W        W18668  43.812  12.275   1.718
55110W        W18669  16.141  16.805  14.989
55111W        W18670  16.734  14.146   4.656
55112W        W18671  13.787  20.080  11.126
55113W        W18672   6.800   0.969  14.950
55114W        W18673   7.695  19.042  12.439
55115W        W18674  39.483   9.732   2.333
55116W        W18675  24.087  12.245   3.350
55117W        W18676  35.358  26.165   0.797
55118W        W18677   8.221  44.472  14.852
55119W        W18678  38.471   2.280  13.325
55120W        W18679   5.721  34.560   2.745
55121W        W18680  23.236  13.176  13.400
55122W        W18681   0.978  25.502   0.262
55123W        W18682  23.021  12.120  11.067
55124W        W18683  32.080   7.877   3.357
55125W        W18684  11.360  27.078   2.820
55126W        W18685  28.996  39.957   5.247
55127W        W18686  42.780  43.016   0.318
55128W        W18687  44.260  16.808  10.441
55129W        W18688  12.782  21.109   0.890
55130W        W18689   8.173   4.924  13.818
55131W        W18690   6.311  42.404   2.325
55132W        W18691  42.512  42.812  10.414
55133W        W18692  35.443  27.948   1.694
55134W        W18693  17.713  12.185  14.392
55135W        W18694  39.049  12.816   5.306
55136W        W18695  26.195  13.118   5.207
55137W        W18696  41.425  26.537  11.954
55138W        W18697  21.177  10.244   3.163
55139W        W18698  37.023   0.373   1.431
55140W        W18699   8.889  19.092   4.117
55141W        W18700  28.096  23.216   0.799
55142W        W18701  17.238  13.126   1.438
55143W        W18702  27.059   6.287   2.798
55144W        W18703   7.342  43.850  13.477
55145W        W18704   6.392  37.509   5.238
55146W        W18705  22.630   7.727   1.217
55147W        W18706  20.032  30.497   2.811
55148W        W18707  16.170  26.146   1.881
55149W        W18708  21.688  12.317   2.789
55150W        W18709  29.987   6.876  13.962
55151W        W18710  17.652  11.737   2.689
55152W        W18711  36.959   6.724   2.700
55153W        W18712  39.915   2.946  12.880
55154W        W18713  39.461   0.382  10.624
55155W        W18714   0.442  43.337  11.920
55156W        W18715   9.859  27.062  14.485
55157W        W18716  39.547  22.541  13.945
55158W        W18717  30.996   2.257   4.653
55159W        W18718  20.185   8.844  10.902
55160W        W18719  39.359  32.119  12.044
55161W        W18720   9.229   9.149   1.373
55162W        W18721  10.141  41.414  13.345
55163W        W18722  21.613  18.717  10.509
55164W        W18723  23.495  42.383   0.256
55165W        W18724  22.222  38.563   0.938
55166W        W18725  44.010   9.793   4.711
55167W        W18726  31.931   3.909   2.747
55168W        W18727  17.187  36.052  14.884
55169W        W18728  35.368  36.057   1.863
55170W        W18729  16.597  28.657   2.733
55171W        W18730  30.509  29.543   5.139
55172W        W18731  26.605   9.338  12.375
55173W        W18732   2.405   2.925   4.197
55174W        W18733  13.618   9.843   3.649
55175W        W18734  28.658   3.875  13.844
55176W        W18735  22.094   3.850   3.237
55177W        W18736  32.391  38.040  11.868
55178W        W18737   6.698  36.943  14.495
55179W        W18738  10.749  13.195   0.243
55180W        W18739  30.482  37.559  12.369
55181W        W18740  43.478   8.866  14.404
55182W        W18741  18.131  30.099   2.771
55183W        W18742  42.848   5.733   2.705
55184W        W18743  23.590  20.751   2.363
55185W        W18744  21.644  41.031   4.728
55186W        W18745  41.347   0.275   1.729
55187W        W18746  15.157  35.093   3.709
55188W        W18747  11.798  44.390   2.404
55189W        W18748  40.305   2.741  13.463
55190W        W18749  11.209  33.552   3.347
55191W        W18750  27.679   5.845   0.382
55192W        W18751   5.723  22.523  11.988
55193W        W18752  12.620  26.057   2.780
55194W        W18753  24.572  31.935   1.776
55195W        W18754  44.884  27.052   3.702
55196W        W18755  41.883  19.074   1.717
55197W        W18756  16.715  16.225  11.077
55198W        W18757  34.551  13.162   5.121
55199W        W18758  13.169  42.940   1.370
55200W        W18759  32.531  33.121  14.389
55201W        W18760   1.288   1.361  10.953
55202W        W18761   2.449   1.804  14.766
55203W        W18762   6.902  16.307  11.046
55204W        W18763  22.684  25.197   5.165
55205W        W18764  38.562  27.467   1.813
55206W        W18765  20.748   8.167  10.585
55207W        W18766   8.659  20.031   3.868
55208W        W18767  29.939  20.101   2.696
55209W        W18768  40.339  22.179   1.835
55210W        W18769  10.725  42.033  14.282
55211W        W18770  17.590  30.085  14.454
55212W        W18771  39.855  25.196   1.365
55213W        W18772  38.533  39.328  14.292
55214W        W18773   4.365  33.891   4.336
55215W        W18774  17.125   9.320  14.393
55216W        W18775  31.513  29.527   4.295
55217W        W18776  17.765  28.975   4.639
55218W        W18777  40.953  21.576  11.550
55219W        W18778   2.836  19.695  14.788
55220W        W18779  10.826  34.392  12.911
55221W        W18780  21.132  24.576   4.262
55222W        W18781  27.058  37.552  12.968
55223W        W18782  22.032  42.327  10.430
55224W        W18783  10.319   6.188  10.931
55225W        W18784  32.597  10.853  13.014
55226W        W18785  10.256  39.941   4.743
55227W        W18786  22.536  38.069  13.010
55228W        W18787  31.009  18.108  14.395
55229W        W18788   6.733   5.208  11.939
55230W        W18789  26.982   2.761   4.300
55231W        W18790  11.719  39.849  10.439
55232W        W18791  40.355  35.995   9.935
55233W        W18792  38.927  33.883   1.393
55234W        W18793  35.061  43.273  14.298
55235W        W18794  26.147  44.461  12.512
55236W        W18795  29.621   2.877  13.417
55237W        W18796   2.923  27.171   1.384
55238W        W18797   5.332  34.924   4.161
55239W        W18798   6.209   8.767   0.359
55240W        W18799  28.169  38.048  12.086
55241W        W18800  33.464  11.137  12.872
55242W        W18801  27.992   8.220  13.866
55243W        W18802  19.692   5.236  10.910
55244W        W18803  12.359  33.019   3.849
55245W        W18804  34.081  15.774  14.475
55246W        W18805  32.448  40.352  14.483
55247W        W18806  35.905  10.379   0.335
55248W        W18807   9.299  38.475   1.372
55249W        W18808   2.432  43.343  14.786
55250W        W18809  24.627  22.629  11.908
55251W        W18810  13.747  34.515  14.403
55252W        W18811  37.026  13.823  10.589
55253W        W18812  16.572  30.481  12.061
55254W        W18813  18.066  14.780   4.743
55255W        W18814  26.496   9.818   1.791
55256W        W18815   0.822  41.039  12.447
55257W        W18816  40.841   1.477  12.482
55258W        W18817  24.671  25.629  14.991
55259W        W18818  36.567   5.344  13.372
55260W        W18819  19.222  28.565  13.443
55261W        W18820  27.034  24.058   5.747
55262W        W18821  24.113  17.307   2.683
55263W        W18822  36.539   3.297   4.285
55264W        W18823  25.088  43.488  11.551
55265W        W18824  13.258  41.881  13.547
55266W        W18825  39.901   3.373   3.187
55267W        W18826  40.891  27.583   4.716
55268W        W18827   6.291  20.174   3.690
55269W        W18828   7.733  44.429   0.400
55270W        W18829  41.829  41.872   0.806
55271W        W18830   6.388   7.209   4.213
55272W        W18831  22.199   5.248  12.072
55273W        W18832  20.563   0.835   1.727
55274W        W18833  33.990  44.315  14.872
55275W        W18834   6.337  42.975  11.402
55276W        W18835  10.659  22.688  10.581
55277W        W18836  32.070   3.865  12.479
55278W        W18837  21.752  38.536  11.093
55279W        W18838  26.060  17.280  13.529
55280W        W18839  25.671  23.574  14.796
55281W        W18840  34.480  30.516  13.904
55282W        W18841  31.897  16.131   0.849
55283W        W18842  44.858  15.083  10.418
55284W        W18843  36.524  26.023  14.277
55285W        W18844  37.912  36.067   0.302
55286W        W18845  16.677  21.719  13.805
55287W        W18846  13.701  35.085  11.009
55288W        W18847  10.325  21.638   3.355
55289W        W18848  33.899   4.427   0.356
55290W        W18849  19.739  20.531  15.000
55291W        W18850   6.305  30.062   3.751
55292W        W18851  24.494   1.338   2.681
55293W        W18852  18.172   8.742  10.618
55294W        W18853  14.121  36.842   2.753
55295W        W18854  37.492  17.297   2.691
55296W        W18855  35.389   5.926  13.934
55297W        W18856  33.022  12.249  10.900
55298W        W18857   9.180  18.692   0.898
55299W        W18858   9.758  10.223   2.848
55300W        W18859   2.734  28.676   4.629
55301W        W18860   8.658  44.758   0.954
55302W        W18861   2.282  39.422  14.309
55303W        W18862  15.168   4.444  13.970
55304W        W18863  38.946   4.838   4.767
55305W        W18864  20.253  13.151  11.104
55306W        W18865  28.529   8.794  10.609
55307W        W18866  30.598   9.305   1.740
55308W        W18867  18.622  10.648   4.712
55309W        W18868  22.515  40.882   4.312
55310W        W18869   5.439  29.598   2.289
55311W        W18870  30.615  35.982  12.870
55312W        W18871  33.547  28.516   0.772
55313W        W18872  30.079  31.074  13.900
55314W        W18873  32.004  13.111  11.405
55315W        W18874  34.867  11.159   1.410
55316W        W18875  24.572  20.710  14.368
55317W        W18876  26.605  43.803   3.186
55318W        W18877  18.150  24.067   1.279
55319W        W18878  11.675  36.021   5.187
55320W        W18879  37.033  13.166  12.978
55321W        W18880  19.161  33.887  12.463
55322W        W18881  44.881  11.849  12.981
55323W        W18882   3.302  11.713   0.809
55324W        W18883  33.963  26.111  12.369
55325W        W18884   5.716  43.377   1.698
55326W        W18885   2.450  11.819  10.595
55327W        W18886  43.851  35.426   3.173
55328W        W18887  26.072  21.711  11.029
55329W        W18888  10.832  21.036  12.440
55330W        W18889   6.218  30.418   3.677
55331W        W18890  27.970  20.185  11.986
55332W        W18891  34.019  31.987   1.903
55333W        W18892   6.815  33.408   2.233
55334W        W18893  34.019  18.062  10.644
55335W        W18894  43.341  39.326  13.977
55336W        W18895   5.251  24.666   2.887
55337W        W18896  14.214  34.593  14.855
55338W        W18897  18.720  25.499  11.103
55339W        W18898  22.739  24.994  13.502
55340W        W18899  35.945  33.013  12.899
55341W        W18900  30.050  20.183  14.297
55342W        W18901  12.852  39.332   4.125
55343W        W18902   7.844  28.616  11.486
55344W        W18903  44.908  36.355   3.773
55345W        W18904   8.723  41.409   0.734
55346W        W18905  39.375  24.179  12.978
55347W        W18906   1.294   5.760  11.090
55348W        W18907  13.289  19.726   0.416
55349W        W18908  35.982  43.937   4.140
55350W        W18909  15.810   2.368  12.978
55351W        W18910  23.654  43.415  14.373
55352W        W18911   4.340  21.197  13.448
55353W        W18912  34.494  20.581   3.158
55354W        W18913  38.966  42.373   4.179
55355W        W18914   4.779   1.418   1.912
55356W        W18915  28.112  10.158   2.370
55357W        W18916  22.227  13.603   4.751
55358W        W18917  16.158   1.897   1.855
55359W        W18918   4.344  34.529   1.741
55360W        W18919  37.838  37.890   4.825
55361W        W18920   1.452  24.132  14.305
55362W        W18921   7.340   7.235  11.999
55363W        W18922  42.494  33.913  12.889
55364W        W18923  15.693  25.185   2.724
55365W        W18924  36.539  19.585   4.158
55366W        W18925  10.191  24.141  10.517
55367W        W18926  21.665  15.810  10.004
55368W        W18927  37.355   4.418   3.852
55369W        W18928  19.535  41.952  12.089
55370W        W18929  29.136  25.525  11.496
55371W        W18930  19.134  20.592  14.360
55372W        W18931  13.637   7.908  11.575
55373W        W18932  22.724   5.857   3.308
55374W        W18933   9.798  25.052   0.788
55375W        W18934  39.527   3.791   0.833
55376W        W18935  12.329  33.118  10.972
55377W        W18936  35.946  22.674  11.493
55378W        W18937  27.046  32.015   4.315
55379W        W18938  18.615  23.730   2.220
55380W        W18939  38.934  17.307  10.461
55381W        W18940  39.984  23.152   2.833
55382W        W18941   3.426  30.921  12.490
55383W        W18942   5.202  15.812  10.455
55384W        W18943  34.044  15.111  11.457
55385W        W18944   4.846  41.483   9.979
55386W        W18945  40.938  31.928  11.474
55387W        W18946  28.616  22.545   1.878
55388W        W18947  28.441  16.635  10.948
55389W        W18948  20.217  17.789   2.785
55390W        W18949  43.472  15.659  13.961
55391W        W18950  14.148  28.577  11.566
55392W        W18951   0.777   8.198  11.554
55393W        W18952  14.159  10.311  11.498
55394W        W18953  20.688  44.975  13.463
55395W        W18954   4.431  44.917  11.557
55396W        W18955  31.016   9.314   3.733
55397W        W18956  34.515   5.716   4.623
55398W        W18957  30.985  32.569  11.128
55399W        W18958  26.658   3.261   9.992
55400W        W18959  11.323  16.699  14.884
55401W        W18960  34.490  26.507  14.876
55402W        W18961  35.039  39.360   2.254
55403W        W18962  37.867  37.834  11.120
55404W        W18963   3.833  21.580  12.339
55405W        W18964   2.453  25.609   2.264
55406W        W18965  25.182  30.079  13.821
55407W        W18966  18.050  40.439   2.861
55408W        W18967  17.795  28.082   3.776
55409W        W18968  17.790  43.009  14.899
55410W        W18969  10.181   4.413  13.012
55411W        W18970  19.269   4.216   1.333
55412W        W18971  21.670  22.501   2.711
55413W        W18972  31.992  34.956   2.676
55414W        W18973   1.276  26.461  13.044
55415W        W18974  28.987  21.160  10.907
55416W        W18975  27.122   6.892   4.331
55417W        W18976  11.832   9.347   3.790
55418W        W18977  10.788   6.788   3.733
55419W        W18978  23.103  44.469  13.038
55420W        W18979   7.737  31.106  11.457
55421W        W18980  26.006   3.918  10.462
55422W        W18981   9.739  19.137  14.355
55423W        W18982   8.219  43.791  14.513
55424W        W18983  33.965  37.535   2.215
55425W        W18984  30.464   7.259   1.395
55426W        W18985  23.653  42.358   1.904
55427W        W18986  17.270  40.459  11.521
55428W        W18987  34.074  23.000   3.342
55429W        W18988  44.475  39.854   2.381
55430W        W18989   0.351   4.394   3.286
55431W        W18990   6.706  30.059   2.208
55432W        W18991  23.093  19.200  12.838
55433W        W18992  40.510   6.304   4.183
55434W        W18993   6.322  41.854  10.440
55435W        W18994  20.647  26.628   1.229
55436W        W18995  31.093   0.342   2.878
55437W        W18996  34.507  43.516  11.868
55438W        W18997  29.927  23.228  14.774
55439W        W18998  13.250   5.242   1.239
55440W        W18999  41.393  32.556  14.845
55441W        W19000   6.683  36.957   4.312
55442W        W19001  29.529  26.555   3.345
55443W        W19002  38.449  34.042  13.487
55444W        W19003  43.914  42.968  12.374
55445W        W19004  22.181  10.677   0.940
55446W        W19005  35.077  26.667   9.929
55447W        W19006  31.935  42.493   0.833
55448W        W19007   2.926  23.112  12.982
55449W        W19008  35.077  21.113  11.576
55450W        W19009  16.214  12.129  12.411
55451W        W19010  34.115  22.062   2.767
55452W        W19011   6.273  24.542  10.635
55453W        W19012  43.811  18.743  14.780
55454W        W19013  33.063   3.372   2.898
55455W        W19014  23.997   3.378  13.940
55456W        W19015  30.039  32.578  14.413
55457W        W19016  31.140  41.914  14.381
55458W        W19017  24.597  28.634   3.827
55459W        W19018  41.497   1.799   1.861
55460W        W19019  26.148  22.149   2.302
55461W        W19020   2.887  21.209  12.387
55462W        W19021  12.294  41.840  14.821
55463W        W19022  26.973   2.951  13.492
55464W        W19023  17.294   5.198   0.245
55465W        W19024   5.396   3.879   1.849
55466W        W19025  25.628  20.223  10.421
55467W        W19026  17.790   1.277   1.830
55468W        W19027  44.827  36.364  10.597
55469W        W19028  14.249  11.822  13.030
55470W        W19029  11.806  33.609   1.910
55471W        W19030  10.716  24.090  13.509
55472W        W19031  13.107   1.821   1.837
55473W        W19032  28.989  27.057  14.857
55474W        W19033   1.328  27.169   3.681
55475W        W19034  33.879  25.003   3.629
55476W        W19035  31.531  28.527  14.005
55477W        W19036  12.712  14.647   1.890
55478W        W19037  13.604  30.062   4.794
55479W        W19038  42.404  25.137   3.332
55480W        W19039  22.070   7.199   2.708
55481W        W19040  27.079   5.434  10.450
55482W        W19041  27.595  27.976  10.432
55483W        W19042  12.187  43.374  14.458
55484W        W19043   9.840  23.208   0.910
55485W        W19044  44.767  13.748  11.072
55486W        W19045  26.108  27.686  11.109
55487W        W19046  14.716  39.898  14.922
55488W        W19047  15.156  12.730  11.957
55489W        W19048  21.745  30.092   1.272
55490W        W19049  12.335  21.742  10.529
55491W        W19050  24.182  40.897   4.117
55492W        W19051  39.986  30.077   4.245
55493W        W19052  10.383  39.022  10.007
55494W        W19053  31.058  21.119  12.548
55495W        W19054  35.881  12.762   3.309
55496W        W19055  39.869  13.282  10.640
55497W        W19056   3.401  31.456   0.262
55498W        W19057  17.123  18.287   1.724
55499W        W19058  18.739   6.330   2.302
55500W        W19059  15.102  15.811   3.814
55501W        W19060   1.375  39.405   1.248
55502W        W19061  42.416  22.145  13.392
55503W        W19062  13.637  16.270  10.548
55504W        W19063   5.808  13.633  13.386
55505W        W19064  23.046  40.420   4.685
55506W        W19065   0.351   2.304  11.099
55507W        W19066   2.919  21.029  11.599
55508W        W19067  26.598  36.073  13.409
55509W        W19068  14.323  16.123  10.968
55510W        W19069   6.895  10.733  13.347
55511W        W19070  14.645  35.502  13.875
55512W        W19071   3.945  43.984  14.304
55513W        W19072  14.772  10.654   3.178
55514W        W19073  25.569   5.345  12.060
55515W        W19074  24.189  44.827   3.216
55516W        W19075  42.284   3.352  10.574
55517W        W19076  36.394  18.690   3.815
55518W        W19077  10.340  42.845   0.369
55519W        W19078  42.415  39.473  10.631
55520W        W19079  26.686  22.176  12.555
55521W        W19080  18.062  27.558  13.868
55522W        W19081  20.268  44.410   3.255
55523W        W19082  25.028  20.525  11.378
55524W        W19083  19.105  30.418  11.489
55525W        W19084  15.117  17.240   4.744
55526W        W19085   0.328  20.715  11.113
55527W        W19086  37.403  36.936   3.293
55528W        W19087   5.736   5.331   0.868
55529W        W19088  41.919  15.124   1.296
55530W        W19089  44.796   4.907  11.064
55531W        W19090  36.521  39.822  10.562
55532W        W19091  23.695  24.157  13.352
55533W        W19092   2.392  29.531   5.309
55534W        W19093   4.910  24.722   4.700
55535W        W19094  15.261  25.649  14.429
55536W        W19095  15.141  31.504  10.409
55537W        W19096  12.731  26.597  12.417
55538W        W19097  32.540  22.096   4.776
55539W        W19098   7.816  15.222   4.193
55540W        W19099  22.049  12.347   2.189
55541W        W19100  16.637  14.656  11.505
55542W        W19101  44.865  38.031  13.841
55543W        W19102  44.800  30.067   2.337
55544W        W19103  19.096   7.813   3.772
55545W        W19104   7.729  34.108   2.195
55546W        W19105  17.655   5.391   4.745
55547W        W19106  19.073   0.915  10.636
55548W        W19107  30.594  15.703  10.442
55549W        W19108  31.478  18.583   3.194
55550W        W19109   5.378  16.235   0.304
55551W        W19110  34.984  29.497   4.154
55552W        W19111   1.744  39.536   2.899
55553W        W19112  42.895   3.829  10.522
55554W        W19113  24.534   1.975  12.410
55555W        W19114  11.841  33.973   3.697
55556W        W19115  27.593  16.080   2.836
55557W        W19116   7.884  16.677   4.300
55558W        W19117  29.105  18.292  10.979
55559W        W19118  25.516   1.940   4.180
55560W        W19119   4.781  41.320  12.938
55561W        W19120   5.396   6.244   4.335
55562W        W19121   7.909  14.605  14.005
55563W        W19122  33.489  29.960   5.219
55564W        W19123   9.219  15.671   1.798
55565W        W19124  31.098  32.899   3.736
55566W        W19125  31.571  39.810   3.861
55567W        W19126  37.932  16.178   2.672
55568W        W19127  42.858  31.104   0.802
55569W        W19128  34.922  39.408  12.503
55570W        W19129   6.217   4.291  14.408
55571W        W19130  13.675  23.633  14.391
55572W        W19131  32.586  36.046   2.790
55573W        W19132  11.772  30.452   3.377
55574W        W19133  33.484  16.749   1.378
55575W        W19134  22.083  17.126   1.772
55576W        W19135  14.822  29.443   1.755
55577W        W19136  25.143  32.964   0.938
55578W        W19137  35.592  39.824   0.359
55579W        W19138   4.442  35.459   2.310
55580W        W19139  44.277  43.915   1.241
55581W        W19140  12.799  18.176   4.634
55582W        W19141  18.100  17.153  13.986
55583W        W19142  10.273  11.711   9.984
55584W        W19143  40.421   7.326   3.205
55585W        W19144  41.453  31.483  14.979
55586W        W19145   8.789  31.488   3.380
55587W        W19146  35.104  40.807   3.665
55588W        W19147  12.830  12.742   0.480
55589W        W19148  32.947  32.118  11.861
55590W        W19149  27.661  11.344  14.848
55591W        W19150   5.389  27.980  13.021
55592W        W19151   3.854  42.994  12.547
55593W        W19152  31.410   9.304   5.087
55594W        W19153  33.117  25.708  14.391
55595W        W19154  30.589  29.518  11.430
55596W        W19155  18.602   4.430   2.361
55597W        W19156  31.028  18.142   0.274
55598W        W19157  21.049  35.506   1.845
55599W        W19158   7.394  29.944  14.023
55600W        W19159  16.692  34.042  12.561
55601W        W19160  42.355  12.186   0.371
55602W        W19161  27.941  19.716   0.747
55603W        W19162  20.095  24.038  14.991
55604W        W19163  17.777  33.001  11.533
55605W        W19164  32.580  30.652  14.429
55606W        W19165   4.936  32.520  12.059
55607W        W19166  15.129  43.883   0.468
55608W        W19167   8.366   6.835  13.417
55609W        W19168  41.825   7.715   0.381
55610W        W19169  26.130  28.556   3.804
55611W        W19170  14.103  27.571  10.622
55612W        W19171  18.129  24.179  12.935
55613W        W19172   2.914  21.679   4.818
55614W        W19173  15.709  13.268  10.515
55615W        W19174   5.789   0.801  13.052
55616W        W19175  28.557  21.585   0.783
55617W        W19176   1.943  30.061  11.474
55618W        W19177   3.263  22.008  10.008
55619W        W19178  41.846  42.454  14.479
55620W        W19179  12.829   1.315   4.154
55621W        W19180  24.603  31.420  10.459
55622W        W19181  32.575   2.736  10.947
55623W        W19182  16.616   3.313  12.978
55624W        W19183  24.680  42.289  13.839
55625W        W19184  35.492  33.881   5.223
55626W        W19185  43.809  36.039  11.977
55627W        W19186  43.492  28.642   4.678
55628W        W19187  33.104  29.630   1.234
55629W        W19188  39.418  37.978   2.819
55630W        W19189  11.129   3.920   1.284
55631W        W19190  38.433  37.366   3.856
55632W        W19191  15.317  43.918  11.043
55633W        W19192   3.385  29.513   1.892
55634W        W19193   8.830  23.182   0.945
55635W        W19194  28.606  44.831  13.907
55636W        W19195   9.678  19.105   4.685
55637W        W19196   6.771  13.195   3.733
55638W        W19197  16.264   1.421  13.006
55639W        W19198  41.506  21.208  10.904
55640W        W19199  17.196  39.448   2.778
55641W        W19200  32.087  43.924   4.757
55642W        W19201  40.471  22.130  11.973
55643W        W19202  23.136  12.361  14.481
55644W        W19203   6.753  26.650   0.466
55645W        W19204  15.618  22.077  14.425
55646W        W19205   6.753  22.657   2.691
55647W        W19206  10.164  31.635   0.382
55648W        W19207  22.710  16.586   1.422
55649W        W19208  22.069  34.937   4.227
55650W        W19209  23.218  16.606  13.973
55651W        W19210   6.809  22.549  10.610
55652W        W19211   6.420  34.034  11.586
55653W        W19212  12.222  22.743  13.481
55654W        W19213  30.909   3.249  12.833
55655W        W19214   4.351  11.790   2.789
55656W        W19215  40.929  30.921   2.763
55657W        W19216  36.370  23.647  10.500
55658W        W19217  42.915   1.837   1.229
55659W        W19218  40.864  33.875   4.143
55660W        W19219  35.062  29.595  10.895
55661W        W19220  17.084  30.466  12.956
55662W        W19221  18.170  26.541  10.068
55663W        W19222  26.995  43.884   2.804
55664W        W19223  14.628  14.595  14.810
55665W        W19224  33.118  44.493   4.769
55666W        W19225  34.865  40.536   0.456
55667W        W19226  27.061  14.779  11.484
55668W        W19227  39.854  19.731  11.455
55669W        W19228   0.461  35.424  14.914
55670W        W19229  31.037  38.529   1.437
55671W        W19230  27.994  33.030   4.640
55672W        W19231  30.415  37.443   3.381
55673W        W19232  39.005  35.952   4.834
55674W        W19233  36.875  34.496  11.009
55675W        W19234   2.434  29.148   3.288
55676W        W19235  25.515  42.925  13.828
55677W        W19236  31.978   9.764  10.443
55678W        W19237  14.718  14.202  14.825
55679W        W19238  37.077  15.159   0.744
55680W        W19239  22.696  35.001   1.277
55681W        W19240  21.525  35.952   4.759
55682W        W19241  41.347  10.228   1.883
55683W        W19242  17.173  20.270  14.445
55684W        W19243  32.523  26.545   4.157
55685W        W19244  40.341   9.722   3.162
55686W        W19245   9.702  37.987  14.774
55687W        W19246  13.265  10.879  12.537
55688W        W19247  38.546   5.910  12.483
55689W        W19248  37.858  32.984   0.869
55690W        W19249   7.700  41.882   4.329
55691W        W19250  18.729  28.004   0.428
55692W        W19251  29.620  14.675  11.020
55693W        W19252  24.060  11.716  12.354
55694W        W19253  18.075  29.981  11.398
55695W        W19254  27.691  11.241   1.907
55696W        W19255  10.663   0.761  11.004
55697W        W19256  33.015  24.617   2.760
55698W        W19257  28.166   5.880   4.117
55699W        W19258  16.596  40.882  12.383
55700W        W19259  41.333  29.568  11.867
55701W        W19260  18.558   2.454   3.250
55702W        W19261  28.005  12.168  11.043
55703W        W19262  30.621  12.209  14.281
55704W        W19263  24.706  44.920   1.699
55705W        W19264  25.687  36.428  12.968
55706W        W19265  21.536  30.051  11.097
55707W        W19266  21.679  13.642  13.889
55708W        W19267   8.207  27.085  12.947
55709W        W19268  25.029  30.086  12.560
55710W        W19269  38.902  19.766   5.090
55711W        W19270  37.471   8.748   3.663
55712W        W19271  33.586  18.715  13.369
55713W        W19272  16.691  39.924   1.344
55714W        W19273  29.430  16.198  10.492
55715W        W19274  14.593  19.609  11.522
55716W        W19275  36.961  11.205   1.249
55717W        W19276  43.995   4.721   4.288
55718W        W19277  42.466  15.274  14.956
55719W        W19278   3.763  21.629   3.814
55720W        W19279  18.622  19.648  13.323
55721W        W19280  44.861  15.293   4.668
55722W        W19281  38.467  16.628   3.315
55723W        W19282  13.835  33.914   9.964
55724W        W19283  33.560  44.883   0.357
55725W        W19284  34.477  21.026   1.223
55726W        W19285  26.004  17.577  12.384
55727W        W19286  28.501  27.992   3.368
55728W        W19287  28.986  12.787   1.390
55729W        W19288  29.648  43.376   0.839
55730W        W19289  32.489   2.305  11.530
55731W        W19290  35.498  36.567  13.439
55732W        W19291  29.425  44.928  12.421
55733W        W19292  37.031  12.647   3.638
55734W        W19293  34.058  28.579  14.015
55735W        W19294  17.598  10.302   4.202
55736W        W19295  34.469  22.110   1.328
55737W        W19296  20.613  32.416   1.751
55738W        W19297   4.793  25.619  12.895
55739W        W19298  38.015  20.115   0.816
55740W        W19299  36.066  44.385  14.430
55741W        W19300  36.038  17.664  11.054
55742W        W19301  29.021   5.868  13.998
55743W        W19302   0.828  12.682   1.369
55744W        W19303  24.129   6.709  12.446
55745W        W19304  14.203  13.149   4.815
55746W        W19305  43.839  31.436  14.823
55747W        W19306  13.764   3.413  13.800
55748W        W19307   6.749  35.072  13.940
55749W        W19308  21.089  27.980  14.797
55750W        W19309  25.046  26.128  13.393
55751W        W19310   2.246  17.300   3.747
55752W        W19311  29.594  23.677   2.746
55753W        W19312  23.128  25.120   1.733
55754W        W19313   3.348   0.810  11.052
55755W        W19314  26.626   5.345  11.519
55756W        W19315  16.757  19.616   4.671
55757W        W19316  37.964  26.036  12.500
55758W        W19317  41.985  35.454   0.305
55759W        W19318  35.474  29.646   4.278
55760W        W19319  15.178  20.637   4.227
55761W        W19320  31.043  25.969  12.489
55762W        W19321  18.549  20.718   0.871
55763W        W19322  21.234   5.264   0.396
55764W        W19323  38.493  17.596  11.374
55765W        W19324   2.411  30.921  14.823
55766W        W19325  24.008   4.724   0.382
55767W        W19326  14.237  16.624  13.364
55768W        W19327  27.978  23.539   0.884
55769W        W19328  21.721  44.755  14.451
55770W        W19329  12.208  42.364  11.046
55771W        W19330   8.198  13.756  12.537
55772W        W19331  43.925  32.011  13.497
55773W        W19332  32.959  19.763  14.017
55774W        W19333  17.188  36.067   4.665
55775W        W19334  40.996   7.819   1.819
55776W        W19335  26.619   9.665  11.383
55777W        W19336  42.799  23.992  11.931
55778W        W19337   6.296   8.798  14.282
55779W        W19338   3.725  11.136   4.678
55780W        W19339  44.885  34.022   3.287
55781W        W19340  11.339  36.424  12.375
55782W        W19341  26.133  32.920  13.879
55783W        W19342   5.777  40.503   0.260
55784W        W19343  42.812   6.857   3.190
55785W        W19344  18.745  39.405   1.915
55786W        W19345  39.831  21.745  10.901
55787W        W19346   9.805  43.843   2.834
55788W        W19347  25.602  36.448   2.381
55789W        W19348   2.311   2.419   0.817
55790W        W19349  34.098   8.249   2.417
55791W        W19350  32.555  31.591   2.318
55792W        W19351   7.770  13.326  11.891
55793W        W19352  30.036  24.645  11.984
55794W        W19353  34.419   7.354   2.244
55795W        W19354  34.078   5.910   2.201
55796W        W19355  31.985   7.865   4.332
55797W        W19356  26.488   8.861  11.968
55798W        W19357  31.579  11.168  12.983
55799W        W19358  13.776  40.476   0.462
55800W        W19359   6.383   9.864   3.859
55801W        W19360  31.480  20.667   4.168
55802W        W19361  17.643  27.051   4.173
55803W        W19362  27.127  21.074   4.312
55804W        W19363  40.521  38.877   1.314
55805W        W19364  34.047  16.087   4.807
55806W        W19365  41.334   1.340   1.770
55807W        W19366   4.920   7.909  10.490
55808W        W19367  22.655  17.241  10.558
55809W        W19368  34.422  25.088   0.861
55810W        W19369  29.081  20.181  10.492
55811W        W19370   6.789  32.419  14.954
55812W        W19371  22.735   6.900   0.827
55813W        W19372  44.768  15.626  10.466
55814W        W19373  10.313   2.279  10.918
55815W        W19374  24.224  36.577   2.392
55816W        W19375  39.486  39.336  13.442
55817W        W19376  12.719  17.224  13.338
55818W        W19377  22.116  14.779  14.947
55819W        W19378  19.657  24.515  14.800
55820W        W19379  34.887   6.723   1.849
55821W        W19380  36.475  37.494  13.943
55822W        W19381  43.335  32.049  12.026
55823W        W19382  34.972  14.765   1.385
55824W        W19383  44.472  17.592   4.223
55825W        W19384  23.608  28.978   9.661
55826W        W19385  19.679  37.496  12.476
55827W        W19386  22.516  26.464  10.889
55828W        W19387   1.453  25.053  13.870
55829W        W19388  13.308   2.418  12.825
55830W        W19389  33.499   8.759  14.356
55831W        W19390  26.122  34.573  14.927
55832W        W19391  13.720   3.785  14.375
55833W        W19392  36.027   5.308   1.289
55834W        W19393  34.907  21.042   4.605
55835W        W19394  26.696   3.323  11.089
55836W        W19395  41.413  10.359  13.503
55837W        W19396  35.600  18.114   1.748
55838W        W19397  10.147  20.164  13.990
55839W        W19398  21.019   0.370   9.952
55840W        W19399  17.592  19.150  13.489
55841W        W19400  37.845  35.546  13.046
55842W        W19401   7.856  17.174  14.785
55843W        W19402  42.292  35.437   3.303
55844W        W19403  23.665   2.251   0.790
55845W        W19404  27.047  43.928  14.769
55846W        W19405  23.206  11.636  13.429
55847W        W19406  23.585  43.360   4.154
55848W        W19407  29.548  29.668  10.568
55849W        W19408   0.342  31.110  12.845
55850W        W19409  15.174  22.611  10.487
55851W        W19410  42.804  18.600   3.146
55852W        W19411  31.508  21.599  10.928
55853W        W19412   6.193  10.668  10.624
55854W        W19413  13.785  33.564  14.380
55855W        W19414  24.711  35.472   0.262
55856W        W19415  17.222  16.230   0.790
55857W        W19416  34.585  27.167  12.904
55858W        W19417   9.658  12.719  13.370
55859W        W19418  11.655  30.991   1.698
55860W        W19419  41.813  40.411  13.327
55861W        W19420  19.594  11.222   1.902
55862W        W19421  19.052  14.809   0.358
55863W        W19422  15.670   9.731  13.967
55864W        W19423  15.272  19.601  12.034
55865W        W19424  22.685   5.354   3.306
55866W        W19425   3.748  35.094   4.125
55867W        W19426  14.284  35.599   2.730
55868W        W19427   2.233  40.372  14.415
55869W        W19428  15.161   7.187  12.478
55870W        W19429  25.059  12.731  13.468
55871W        W19430  22.695  14.663  12.000
55872W        W19431  34.033  23.665  11.043
55873W        W19432  40.864  32.567   0.915
55874W        W19433   6.697  24.228  12.915
55875W        W19434  23.015  17.632   3.787
55876W        W19435  21.131  40.892  12.996
55877W        W19436  32.478  15.593  11.120
55878W        W19437  30.606  34.870  14.890
55879W        W19438  12.281  27.479   4.254
55880W        W19439  18.571  28.955  12.988
55881W        W19440  29.480   8.744  11.873
55882W        W19441   4.293  21.079  14.413
55883W        W19442  22.239  33.013   2.854
55884W        W19443  27.982  11.729  12.495
55885W        W19444  21.197  14.672  11.492
55886W        W19445   3.235  11.189   0.440
55887W        W19446  11.159  15.631  13.883
55888W        W19447   3.900  17.163  13.840
55889W        W19448  18.239  32.132  10.922
55890W        W19449  22.596  30.135  14.864
55891W        W19450  38.385  34.512   4.166
55892W        W19451  42.891  27.049   0.732
55893W        W19452   8.701   1.256  10.464
55894W        W19453  14.219  14.302  10.478
55895W        W19454  35.568  22.125   3.319
55896W        W19455  29.065  34.514   3.206
55897W        W19456  11.156   0.353  12.474
55898W        W19457  34.000  21.077   2.715
55899W        W19458   8.752  16.705   2.767
55900W        W19459  15.145  15.812  13.929
55901W        W19460  38.431  11.212   2.336
55902W        W19461  10.724   2.864   2.875
55903W        W19462  41.518  13.309   3.850
55904W        W19463  23.166  10.150  12.936
55905W        W19464   4.229  40.806   4.345
55906W        W19465   0.409   6.253   3.200
55907W        W19466  35.442  22.653  11.052
55908W        W19467  36.960  44.333  12.406
55909W        W19468  17.079  22.629   2.674
55910W        W19469  36.970  13.286   2.687
55911W        W19470  28.656  33.384   2.871
55912W        W19471  26.653  38.976   0.827
55913W        W19472  33.961  40.365  12.472
55914W        W19473   3.918  14.708  13.965
55915W        W19474  10.866   9.301   1.250
55916W        W19475  29.475  14.784   0.252
55917W        W19476  12.195   7.386  14.285
55918W        W19477  14.166  36.963  13.922
55919W        W19478  13.258  34.105  13.874
55920W        W19479   8.853  16.786   4.324
55921W        W19480   2.252   7.878  12.443
55922W        W19481  39.473  39.471  11.013
55923W        W19482  16.216   2.460  10.971
55924W        W19483  28.658  15.267  12.342
55925W        W19484  18.179  29.075  11.892
55926W        W19485  38.407   0.492  10.583
55927W        W19486  27.690  24.590  10.093
55928W        W19487  20.585  40.940   2.794
55929W        W19488   4.896  41.900  13.888
55930W        W19489  35.542  17.566  13.838
55931W        W19490  39.947  43.355  12.556
55932W        W19491   9.331  43.015  12.560
55933W        W19492   0.365  32.029   1.349
55934W        W19493  17.599  40.020   4.731
55935W        W19494  43.441  36.084   2.835
55936W        W19495  22.996  39.395   4.226
55937W        W19496  44.925  15.260   1.924
55938W        W19497  37.976   5.268   4.690
55939W        W19498   2.232  14.146   3.718
55940W        W19499  35.413  37.832  10.900
55941W        W19500  36.376  43.892   3.332
55942W        W19501  20.254   5.840  12.053
55943W        W19502  37.936  11.852  12.891
55944W        W19503  41.351   5.883  11.483
55945W        W19504  44.263   3.336  10.560
55946W        W19505   3.821  35.917  12.410
55947W        W19506   4.888  18.759  12.035
55948W        W19507  13.321  30.118   3.642
55949W        W19508  12.338   5.410  11.381
55950W        W19509  13.613  15.112   0.365
55951W        W19510  30.151  18.148  12.359
55952W        W19511  21.591   9.777  11.611
55953W        W19512  14.818  22.630  11.880
55954W        W19513  26.688  41.314   0.880
55955W        W19514  11.724  13.239  13.522
55956W        W19515   0.457  40.851   1.291
55957W        W19516  25.627  10.751  14.307
55958W        W19517  23.671  23.161   1.866
55959W        W19518  39.416  24.546   1.695
55960W        W19519   4.328   7.889  14.413
55961W        W19520  15.624  31.535   1.420
55962W        W19521  25.166  26.180   0.932
55963W        W19522   9.177  42.853  13.997
55964W        W19523  37.401   3.340  13.924
55965W        W19524  19.165  19.673   4.217
55966W        W19525  28.986  25.105  12.411
55967W        W19526  37.036  24.558  13.426
55968W        W19527  16.672  12.644  14.441
55969W        W19528  12.758  10.241  12.027
55970W        W19529  39.324  24.045  14.430
55971W        W19530   1.351  37.836  14.833
55972W        W19531  18.058  15.704  13.520
55973W        W19532   8.704  38.477   1.797
55974W        W19533  30.589  32.058   0.900
55975W        W19534  18.782  18.596  14.765
55976W        W19535  16.242  17.223   1.726
55977W        W19536  26.033  17.128   3.244
55978W        W19537  42.514  19.204  14.391
55979W        W19538  20.537  31.583  12.092
55980W        W19539  24.717  25.070   2.730
55981W        W19540   8.313  27.463   2.268
55982W        W19541  21.017   0.904   2.414
55983W        W19542   7.408  37.865  14.774
55984W        W19543   2.853  26.109   1.934
55985W        W19544  10.167  18.051  13.807
55986W        W19545   3.811  20.142  11.458
55987W        W19546  19.546  41.814  13.382
55988W        W19547   1.389  40.817   1.432
55989W        W19548  40.986  44.971  11.452
55990W        W19549  28.932  26.637   2.295
55991W        W19550  43.455   2.421  12.010
55992W        W19551  21.169   0.310   1.807
55993W        W19552  18.601   9.722  12.395
55994W        W19553   2.472  19.203   2.308
55995W        W19554  15.178   8.723   1.860
55996W        W19555  36.908  22.225   0.345
55997W        W19556  43.365  11.644  10.948
55998W        W19557  32.394  17.787   2.697
55999W        W19558   0.365  17.760   0.282
56000W        W19559  14.154  29.075   2.794
56001W        W19560  32.092  20.687   4.801
56002W        W19561   0.794   8.230  13.905
56003W        W19562   8.338  35.899  14.407
56004W        W19563  29.092  31.061   4.712
56005W        W19564  26.473  12.616  12.918
56006W        W19565   2.350  11.710  12.094
56007W        W19566  15.588  29.488   5.314
56008W        W19567  38.968  33.471   1.263
56009W        W19568  38.449  37.879   4.120
56010W        W19569  12.779  14.177  10.118
56011W        W19570   3.932  34.494  11.486
56012W        W19571   7.727  25.118   4.659
56013W        W19572   0.816  18.197   4.640
56014W        W19573  34.118  43.364   3.375
56015W        W19574   7.890   7.777  11.471
56016W        W19575  24.215   4.215   2.258
56017W        W19576  15.319  23.641  11.929
56018W        W19577  33.918  22.029   1.251
56019W        W19578  35.979  36.467  11.078
56020W        W19579  32.483   2.963  13.025
56021W        W19580  43.310  26.627   0.261
56022W        W19581  22.735   0.956   4.625
56023W        W19582   3.339  41.302  13.915
56024W        W19583  43.907  24.674   2.881
56025W        W19584  14.318  40.829  13.538
56026W        W19585  40.350   3.754   2.784
56027W        W19586   5.281   1.769   5.176
56028W        W19587   1.241  31.153   4.690
56029W        W19588  43.326  21.732  14.769
56030W        W19589   1.870  28.537   3.642
56031W        W19590  15.778  19.739   4.606
56032W        W19591   5.277  31.571  11.506
56033W        W19592  11.818  28.471  11.397
56034W        W19593  21.560  23.154   0.355
56035W        W19594   4.222   0.369  13.480
56036W        W19595  11.200  29.514   3.386
56037W        W19596  35.108   2.854  14.399
56038W        W19597  38.065  36.888  13.027
56039W        W19598  27.524  42.342  13.835
56040W        W19599  29.450  41.534  11.941
56041W        W19600  27.053  27.474  10.989
56042W        W19601  39.398  26.144   0.354
56043W        W19602  31.541   3.415   1.801
56044W        W19603  17.265  38.063   2.739
56045W        W19604  33.619  41.296   0.816
56046W        W19605  44.888  11.136  12.459
56047W        W19606  24.128  27.148  12.360
56048W        W19607  35.883  27.948   2.887
56049W        W19608  27.445  34.895  13.843
56050W        W19609  34.437  30.026   3.774
56051W        W19610  30.112   1.379  14.477
56052W        W19611  10.336  44.263  12.451
56053W        W19612   2.350  14.218   1.367
56054W        W19613  23.652  25.588   0.791
56055W        W19614   8.307  28.091   4.119
56056W        W19615   1.468  40.371   2.871
56057W        W19616   6.260   9.793  14.413
56058W        W19617  36.454  10.199  10.137
56059W        W19618  34.116  11.273   3.805
56060W        W19619  42.372   4.231  10.894
56061W        W19620  12.767  42.843   0.740
56062W        W19621  34.497  20.257  10.426
56063W        W19622  16.199  39.432  14.357
56064W        W19623  17.176   8.708   3.844
56065W        W19624  32.503   3.759   3.296
56066W        W19625  29.429  17.172  10.055
56067W        W19626  35.091  21.734  10.612
56068W        W19627  43.923  26.061  13.517
56069W        W19628  24.547  36.935   0.801
56070W        W19629  34.577   9.718  10.940
56071W        W19630  19.662  20.065  13.016
56072W        W19631  34.996  12.669   3.325
56073W        W19632   1.455  31.151  11.005
56074W        W19633  25.138   0.355   0.379
56075W        W19634  22.730  36.053   4.613
56076W        W19635  43.413  23.116   0.355
56077W        W19636   2.307  14.236   4.220
56078W        W19637  26.695  17.255   0.338
56079W        W19638  15.141  29.623   0.404
56080W        W19639   1.841  13.306   3.848
56081W        W19640  28.480   2.848   1.829
56082W        W19641  35.923  41.444   3.255
56083W        W19642  18.595  39.497   0.810
56084W        W19643  17.606  13.613   4.308
56085W        W19644  42.011  29.431   5.126
56086W        W19645  44.273  23.492  12.853
56087W        W19646  19.252  14.281  14.979
56088W        W19647   3.389  22.682   2.185
56089W        W19648  10.783  33.609  12.419
56090W        W19649   8.691  20.664  11.074
56091W        W19650   6.367   8.398  14.333
56092W        W19651  10.199  36.563  12.959
56093W        W19652  43.434  21.196   2.382
56094W        W19653  38.522  29.922  14.941
56095W        W19654  19.642  40.415   4.647
56096W        W19655   3.731  25.080   4.307
56097W        W19656   9.651   4.755  11.054
56098W        W19657  24.594  37.954   2.869
56099W        W19658  41.493   4.836  11.432
56100W        W19659  37.385  18.723   3.805
56101W        W19660  10.646  27.137  12.945
56102W        W19661  19.281   9.240  11.383
56103W        W19662  40.469   6.367   0.939
56104W        W19663   4.932   1.380   2.297
56105W        W19664   0.808  32.565   4.117
56106W        W19665  32.589  33.423   3.380
56107W        W19666  16.135  20.665  10.458
56108W        W19667  30.601  15.110  11.562
56109W        W19668  43.405   3.951   4.274
56110W        W19669  29.530  22.098   3.149
56111W        W19670  34.604  30.907  12.838
56112W        W19671   1.855  17.612   2.810
56113W        W19672  14.603  22.235  11.501
56114W        W19673   5.751  40.873  13.917
56115W        W19674   6.814   7.900   2.277
56116W        W19675  28.183  23.617   1.801
56117W        W19676  37.080  39.469  13.384
56118W        W19677  37.509   4.227  11.566
56119W        W19678  18.198  40.976   0.326
56120W        W19679  18.244  29.592   4.705
56121W        W19680  27.142   0.876  12.878
56122W        W19681  19.241  34.024  11.497
56123W        W19682  43.375  28.057  12.400
56124W        W19683  37.497  20.737   4.305
56125W        W19684  19.775  21.587   1.356
56126W        W19685   8.274  23.730   1.932
56127W        W19686  10.646  11.282  11.505
56128W        W19687   9.723   2.426   4.233
56129W        W19688   3.262  39.824  13.030
56130W        W19689   7.337  44.263  10.901
56131W        W19690  31.929  37.580   1.760
56132W        W19691  18.125  24.598   4.198
56133W        W19692  43.936  26.478  14.427
56134W        W19693  26.670  23.155  14.420
56135W        W19694  35.982  23.691   0.957
56136W        W19695   1.455   3.412  14.309
56137W        W19696  35.918  36.017  10.917
56138W        W19697  42.403  35.023   2.854
56139W        W19698   1.323  35.456   1.881
56140W        W19699   1.337   0.325  13.016
56141W        W19700  15.724   9.280  12.518
56142W        W19701   4.825  43.458   4.142
56143W        W19702  21.042  26.546  12.850
56144W        W19703  17.682   3.712  11.418
56145W        W19704   0.482   1.777   0.943
56146W        W19705  25.045  29.120   4.788
56147W        W19706  44.799   8.702  13.052
56148W        W19707  28.473  11.679   2.860
56149W        W19708  24.570   5.846   3.860
56150W        W19709  39.377  10.318  10.481
56151W        W19710   0.905  14.231  13.460
56152W        W19711  44.358   1.433   0.874
56153W        W19712  44.476   5.303   0.774
56154W        W19713  17.284  13.727   2.760
56155W        W19714  23.161  31.541   4.657
56156W        W19715   3.277  34.046  11.962
56157W        W19716   9.857  16.800  14.790
56158W        W19717   2.440  15.181   2.829
56159W        W19718  31.072   2.291   3.695
56160W        W19719  33.505  35.965   0.909
56161W        W19720  11.627  33.118  13.010
56162W        W19721  31.554  28.986  11.007
56163W        W19722   9.390  25.216  11.980
56164W        W19723  36.556  39.343   0.835
56165W        W19724  17.675  19.177   1.334
56166W        W19725  41.987   1.270  14.873
56167W        W19726  39.020  17.797   0.935
56168W        W19727  19.184  38.904   1.402
56169W        W19728  28.541  12.330  11.070
56170W        W19729  39.530   1.266   0.359
56171W        W19730  24.516  14.792  12.383
56172W        W19731  43.307   2.761  11.084
56173W        W19732   5.768   2.784   4.828
56174W        W19733  23.232  18.097  12.386
56175W        W19734   1.305  22.582  11.443
56176W        W19735  25.477  38.530   0.961
56177W        W19736   9.727  13.299   3.236
56178W        W19737  24.054  42.953   4.144
56179W        W19738  26.649  21.155  13.539
56180W        W19739  33.943  41.367   9.942
56181W        W19740  16.169   5.345   4.664
56182W        W19741  35.068  32.118   3.845
56183W        W19742  43.888   5.386  14.012
56184W        W19743  10.801  14.780  12.088
56185W        W19744  16.146  40.971   1.718
56186W        W19745  19.116  23.241   4.617
56187W        W19746   1.934  41.795   1.900
56188W        W19747   8.855  10.730   3.724
56189W        W19748   4.775  33.475   5.257
56190W        W19749  21.652  22.180   2.798
56191W        W19750  15.257  31.013   2.847
56192W        W19751  25.712   8.707  10.645
56193W        W19752  36.467  20.090  11.601
56194W        W19753  12.695  26.098  12.377
56195W        W19754  11.851  25.172   0.809
56196W        W19755   0.264   3.435   3.664
56197W        W19756  30.548  16.207   2.311
56198W        W19757  38.901  11.132  13.881
56199W        W19758   0.915  11.245  12.012
56200W        W19759  14.706  37.444  12.432
56201W        W19760  11.761  19.199  12.966
56202W        W19761   9.749  22.250  11.977
56203W        W19762  31.629   4.717   2.344
56204W        W19763  39.860   9.855  14.993
56205W        W19764  34.926  34.913  12.910
56206W        W19765  17.207   3.254   4.740
56207W        W19766  23.603  12.737   1.359
56208W        W19767  23.531   4.767  11.544
56209W        W19768  42.303  33.437   3.363
56210W        W19769  41.898  28.662  13.515
56211W        W19770  38.511  35.551   5.214
56212W        W19771  12.251  18.647   3.855
56213W        W19772  39.055  43.498   1.928
56214W        W19773  40.428  22.248   0.884
56215W        W19774  40.491  16.305  12.454
56216W        W19775  26.170   3.402   4.145
56217W        W19776   2.844  17.178  14.808
56218W        W19777  43.455  18.276  13.808
56219W        W19778  18.747   0.850  10.140
56220W        W19779  19.538   6.865   0.941
56221W        W19780  12.232  12.249  14.385
56222W        W19781  38.072   8.661   1.342
56223W        W19782   9.153  26.634  14.910
56224W        W19783  25.186  13.740  11.122
56225W        W19784  16.197   5.859   1.402
56226W        W19785   8.757  29.586  12.879
56227W        W19786  41.843   2.763  11.444
56228W        W19787  21.723   1.249   1.417
56229W        W19788  32.595  39.028   4.248
56230W        W19789   9.193  33.446  13.888
56231W        W19790  39.343  29.629   1.446
56232W        W19791  26.610   9.224  13.511
56233W        W19792   2.823  10.152   4.811
56234W        W19793   6.338  25.144   1.759
56235W        W19794  28.092  24.151  13.319
56236W        W19795   1.258   3.820   4.185
56237W        W19796  28.094  21.703  10.046
56238W        W19797  11.672  31.611   3.315
56239W        W19798  28.117  43.403  12.065
56240W        W19799  22.118  13.638   1.318
56241W        W19800  28.026  30.010   3.845
56242W        W19801  38.069   5.282  10.483
56243W        W19802  17.213   0.929  11.401
56244W        W19803  33.449  23.502   9.970
56245W        W19804  13.281  27.594  14.967
56246W        W19805   8.296  32.107   3.217
56247W        W19806  35.915  39.054  14.423
56248W        W19807   6.236  34.095   4.662
56249W        W19808  38.958  28.066   4.291
56250W        W19809  31.522  28.581  13.371
56251W        W19810   0.752   3.779   4.238
56252W        W19811  29.954  25.647   3.151
56253W        W19812  34.393  32.522   4.604
56254W        W19813  26.576  43.323   0.921
56255W        W19814  17.776  44.484  10.909
56256W        W19815  39.054  20.747  13.440
56257W        W19816  19.673  40.518   0.365
56258W        W19817  28.144  34.513  10.071
56259W        W19818  31.486  11.192   4.654
56260W        W19819  31.527   2.471  14.912
56261W        W19820  28.137  35.509   4.651
56262W        W19821  25.140  34.583  10.896
56263W        W19822  37.070  16.159  14.304
56264W        W19823   4.752  24.584  11.452
56265W        W19824   7.899  24.029  11.583
56266W        W19825  25.087  43.843  13.466
56267W        W19826  19.163   8.655   0.823
56268W        W19827  13.169  43.314   2.383
56269W        W19828  10.844   9.772   3.300
56270W        W19829  24.986  42.914   4.629
56271W        W19830  10.652  13.654   1.388
56272W        W19831  32.059   4.927  14.376
56273W        W19832  33.582  22.028  10.445
56274W        W19833  16.103  28.444   4.712
56275W        W19834  33.042  14.222  12.414
56276W        W19835  13.718  11.226   0.851
56277W        W19836  17.288   4.232  11.388
56278W        W19837   2.789  30.432  14.802
56279W        W19838  40.346   1.936   3.784
56280W        W19839  34.465  12.823  14.904
56281W        W19840  14.812  43.810  14.333
56282W        W19841   7.777  32.082   1.436
56283W        W19842  29.936   9.675  12.974
56284W        W19843  39.027  15.733   0.882
56285W        W19844   5.913  21.512  11.613
56286W        W19845  32.013  36.439  14.852
56287W        W19846  23.646  12.314   2.303
56288W        W19847  37.024  37.953   2.762
56289W        W19848  41.327  23.019  13.337
56290W        W19849   7.417  17.593   0.763
56291W        W19850  10.239  19.281  12.968
56292W        W19851  32.551  21.701   1.405
56293W        W19852  10.667  38.551   3.246
56294W        W19853  38.911   6.208   2.299
56295W        W19854  26.544  39.526  13.015
56296W        W19855  18.598  32.630   0.853
56297W        W19856  21.687  11.852   1.853
56298W        W19857  24.612  16.623  14.009
56299W        W19858  29.581  40.547   4.179
56300W        W19859  34.425   6.780   0.948
56301W        W19860  43.356  10.323   1.436
56302W        W19861  33.030   4.318  11.527
56303W        W19862  15.745  17.695  14.875
56304W        W19863  10.360  20.651   4.720
56305W        W19864  33.892  24.212  13.053
56306W        W19865  16.715  32.618  13.938
56307W        W19866  23.493   9.711   1.876
56308W        W19867  35.056  37.895   0.965
56309W        W19868  42.885   8.662   0.964
56310W        W19869  31.971  32.959   0.861
56311W        W19870  32.422  31.130  11.419
56312W        W19871  34.590  11.643   5.155
56313W        W19872   4.857  42.334   0.892
56314W        W19873  14.817  25.507  12.501
56315W        W19874  26.112   9.170   1.922
56316W        W19875   8.182  31.484  14.946
56317W        W19876  35.550  33.910   2.296
56318W        W19877   9.310  34.391  14.307
56319W        W19878  18.127  19.100   2.182
56320W        W19879   8.241  31.900   4.348
56321W        W19880   4.826  21.616   1.290
56322W        W19881  29.969  40.929  12.850
56323W        W19882  14.110   3.288  11.528
56324W        W19883  13.188  26.645   4.287
56325W        W19884  40.387   7.750   2.695
56326W        W19885  12.347   0.493   2.840
56327W        W19886  31.538  16.774   3.667
56328W        W19887   5.200  36.424  14.974
56329W        W19888  23.985   3.332   2.814
56330W        W19889  34.561  10.742   2.697
56331W        W19890  33.392   5.269  11.494
56332W        W19891   7.669  18.269   3.674
56333W        W19892   8.193  39.367   1.807
56334W        W19893  14.768   2.936   0.453
56335W        W19894  19.560  21.099   4.831
56336W        W19895   0.461  24.152  12.409
56337W        W19896  26.014  35.952   3.343
56338W        W19897  32.012  21.170  12.516
56339W        W19898  17.661  34.606  13.796
56340W        W19899  39.872   6.819   1.738
56341W        W19900  44.430   8.304   4.626
56342W        W19901  26.591  26.656  11.856
56343W        W19902  31.565  32.602  10.570
56344W        W19903  14.138  23.999  14.959
56345W        W19904  24.564   4.752  13.910
56346W        W19905  31.070  44.828  13.894
56347W        W19906  34.572  41.507   4.256
56348W        W19907  44.763  35.089   0.904
56349W        W19908  20.596  36.080   1.274
56350W        W19909  30.027  12.336  10.611
56351W        W19910   4.322   8.779  10.957
56352W        W19911  16.722  12.278   1.385
56353W        W19912   7.818  15.250   3.251
56354W        W19913  30.588  41.296   4.250
56355W        W19914  11.851  33.420   2.761
56356W        W19915  43.975  23.064   1.783
56357W        W19916  44.299  28.561  10.946
56358W        W19917   2.891  41.452   0.349
56359W        W19918  16.801   9.676   0.478
56360W        W19919  15.318  14.769  12.523
56361W        W19920  35.491  21.067   2.773
56362W        W19921   6.758   3.263  12.981
56363W        W19922  23.533   7.280   3.385
56364W        W19923  42.028  28.952  13.010
56365W        W19924   6.750  11.701   4.723
56366W        W19925  12.310  11.316   4.687
56367W        W19926  19.611  22.247   2.869
56368W        W19927  34.047  26.994  13.046
56369W        W19928  32.895  16.608  11.051
56370W        W19929   1.412  20.144  11.502
56371W        W19930  26.482   9.850   0.933
56372W        W19931  18.240   6.390   4.331
56373W        W19932  12.626  21.035  14.857
56374W        W19933  19.259  38.045  13.530
56375W        W19934  27.623  39.363  11.513
56376W        W19935   9.749  41.811   1.243
56377W        W19936   3.887  11.259   3.645
56378W        W19937  11.639  18.665  12.574
56379W        W19938  12.313  16.252  13.528
56380W        W19939  14.782  17.760   1.834
56381W        W19940  30.544  12.157   2.666
56382W        W19941  27.614  13.256  12.510
56383W        W19942  28.971  26.555   3.655
56384W        W19943  29.606  37.344   2.183
56385W        W19944  10.148  16.182   0.855
56386W        W19945  33.025  19.746  12.075
56387W        W19946  14.170  15.303  14.993
56388W        W19947  22.626  39.358  10.957
56389W        W19948   1.311  17.272  14.781
56390W        W19949   6.402  17.569  10.607
56391W        W19950   7.180  15.273  11.985
56392W        W19951  13.250  40.875  13.920
56393W        W19952  19.724  31.572   3.787
56394W        W19953  29.011   3.879   2.417
56395W        W19954  16.108  37.048  12.847
56396W        W19955  24.583  22.012   4.617
56397W        W19956  41.871   5.884   2.190
56398W        W19957  30.593  32.946  11.452
56399W        W19958  39.966  14.106  13.821
56400W        W19959  15.191  19.255   4.321
56401W        W19960  14.789   5.799  11.036
56402W        W19961  31.074  32.483  12.919
56403W        W19962  28.460  14.338   4.214
56404W        W19963  43.508  39.514   3.703
56405W        W19964  38.904  23.130   2.703
56406W        W19965  12.207   3.290  10.621
56407W        W19966   0.448  35.876   4.727
56408W        W19967  23.661  23.638  14.806
56409W        W19968  38.063  32.631  14.370
56410W        W19969   6.853  37.943   2.315
56411W        W19970   6.698  44.885  11.906
56412W        W19971  18.685   0.913   0.882
56413W        W19972  34.581  19.709  10.464
56414W        W19973  32.916  32.940   1.231
56415W        W19974   7.224  25.219   1.342
56416W        W19975  25.034   9.364   0.869
56417W        W19976  19.043  20.068   4.274
56418W        W19977  31.139   9.221  11.106
56419W        W19978  42.789  22.098  14.314
56420W        W19979  10.201   5.800  11.550
56421W        W19980  13.820  44.961  14.280
56422W        W19981  25.579  28.434  11.947
56423W        W19982  34.980  28.501  13.998
56424W        W19983  18.260  30.658  11.505
56425W        W19984  32.979  29.654  12.387
56426W        W19985  15.201  39.934   2.835
56427W        W19986  17.204  42.404  14.373
56428W        W19987   8.298  15.647   4.658
56429W        W19988  11.154  34.446  10.919
56430W        W19989  11.820  19.186   3.270
56431W        W19990  14.214  44.425   0.429
56432W        W19991   8.343  34.013   0.296
56433W        W19992  28.521  30.508  12.076
56434W        W19993  25.667   6.770  12.511
56435W        W19994   3.938  38.072   1.932
56436W        W19995  18.686  16.279  12.516
56437W        W19996  18.545  26.680   4.717
56438W        W19997  10.177  39.960   1.390
56439W        W19998  27.551  30.977  14.422
56440W        W19999  34.024  26.547   1.791
56441W        W20000  13.773   9.767   1.757
56442W        W20001  24.615  37.452   9.986
56443W        W20002  10.800   0.469  14.971
56444W        W20003  10.333  20.053   0.413
56445W        W20004   3.782  26.527  12.357
56446W        W20005  28.010  11.299   3.235
56447W        W20006  17.244   9.212  11.902
56448W        W20007  24.517  20.531  12.366
56449W        W20008   7.757  30.505  10.464
56450W        W20009  34.572  34.022  13.013
56451W        W20010   9.186  16.133   3.376
56452W        W20011  33.466   6.243   0.875
56453W        W20012  36.097   0.301  11.552
56454W        W20013   2.788  15.278  12.871
56455W        W20014  33.067  18.168  11.944
56456W        W20015  38.364   8.352   1.244
56457W        W20016  33.509  31.955   2.205
56458W        W20017  25.046  27.997  12.532
56459W        W20018  22.605  39.404   0.878
56460W        W20019  31.555  43.848   1.376
56461W        W20020   0.961  29.062   1.245
56462W        W20021  24.106  41.795  10.540
56463W        W20022  38.870  18.709   2.774
56464W        W20023  29.608  24.175  14.331
56465W        W20024  34.116  29.043  11.966
56466W        W20025   9.390  37.354  10.011
56467W        W20026  22.201  11.351   4.637
56468W        W20027   0.485  13.746   4.798
56469W        W20028  25.519  39.911   4.258
56470W        W20029  37.354  15.812  11.005
56471W        W20030   9.729  20.532   2.403
56472W        W20031  35.520  36.382  13.895
56473W        W20032  30.627  41.432   0.905
56474W        W20033   8.706   5.783   1.848
56475W        W20034  15.787  16.274  10.502
56476W        W20035  34.437  14.224  10.489
56477W        W20036  13.254   7.761   2.854
56478W        W20037  23.176  40.902  11.554
56479W        W20038   5.324  25.604   2.288
56480W        W20039   7.908  37.348   1.818
56481W        W20040  37.050  21.601  12.478
56482W        W20041   6.283  30.029  13.378
56483W        W20042  23.986  15.265  12.961
56484W        W20043  23.590  14.682  14.801
56485W        W20044   6.882  39.364  11.024
56486W        W20045  44.409  27.991  13.826
56487W        W20046  25.016  24.675   3.734
56488W        W20047  39.535  17.611  14.955
56489W        W20048   0.260  25.709   0.955
56490W        W20049  38.982  42.500   0.940
56491W        W20050  26.144  40.416   0.924
56492W        W20051  16.612  38.567  12.028
56493W        W20052  39.915  12.844   4.801
56494W        W20053  10.872  39.416   0.959
56495W        W20054  44.987  26.009  14.405
56496W        W20055  20.719  13.341  13.355
56497W        W20056   4.205  34.007   2.249
56498W        W20057  13.328  16.141  11.890
56499W        W20058  11.315   9.227  12.048
56500W        W20059  13.346   3.272   4.230
56501W        W20060  11.251  18.585   0.282
56502W        W20061  20.568  42.947   2.733
56503W        W20062  33.945  34.506  14.503
56504W        W20063  39.478  23.719  11.597
56505W        W20064  12.773  10.162  10.993
56506W        W20065  34.559  21.517   3.173
56507W        W20066   7.698   6.307   4.342
56508W        W20067   3.720  11.287  12.897
56509W        W20068  32.040  27.486  14.307
56510W        W20069  22.607  17.283   5.132
56511W        W20070  25.594  14.749   2.895
56512W        W20071  43.431  20.201   0.885
56513W        W20072  31.493  27.503   2.368
56514W        W20073  36.913  41.877  14.944
56515W        W20074  26.069  10.203   5.725
56516W        W20075  33.389  39.011  13.969
56517W        W20076  24.512   8.830  12.521
56518W        W20077  32.935   3.894   0.290
56519W        W20078   1.763   4.869  10.060
56520W        W20079  10.306   4.779  10.955
56521W        W20080   2.299   8.724   2.807
56522W        W20081  15.293  36.370   2.881
56523W        W20082  17.644   9.714   0.387
56524W        W20083   0.748   5.366  11.857
56525W        W20084  12.828   2.787  12.051
56526W        W20085  11.778  22.232  10.932
56527W        W20086  37.512  18.643   3.385
56528W        W20087  17.277  34.542  14.982
56529W        W20088   6.897   9.352  11.412
56530W        W20089  29.994   3.313   4.761
56531W        W20090  28.681  40.357   3.822
56532W        W20091  31.536  26.200   4.191
56533W        W20092  18.131   4.763   1.371
56534W        W20093  15.701  39.809  11.065
56535W        W20094  27.502  25.529  10.459
56536W        W20095  31.096  44.973   1.797
56537W        W20096  33.901   4.357  12.549
56538W        W20097  32.921  13.226   3.835
56539W        W20098  12.244  18.115   3.351
56540W        W20099  22.628  17.652  10.921
56541W        W20100   4.772  31.046  12.022
56542W        W20101  25.513   7.876  14.972
56543W        W20102  30.945   0.978   1.285
56544W        W20103  14.592  36.439   2.790
56545W        W20104  21.196  39.050   1.319
56546W        W20105  25.496  40.416   2.899
56547W        W20106   1.422  33.899   0.817
56548W        W20107  26.069   8.893   4.772
56549W        W20108  41.971  30.137   1.219
56550W        W20109  30.510  21.548  11.492
56551W        W20110   0.930   7.192  10.590
56552W        W20111   1.275   6.223  13.476
56553W        W20112  21.531   9.368   2.267
56554W        W20113  40.438  20.728   4.764
56555W        W20114  39.535  10.857  13.850
56556W        W20115  40.900  16.777  12.974
56557W        W20116  41.536   5.740   2.244
56558W        W20117   4.807  28.930   2.677
56559W        W20118  16.646  26.009  12.991
56560W        W20119   2.738   2.309  14.451
56561W        W20120   6.251  36.463  13.054
56562W        W20121  23.178  29.586  11.587
56563W        W20122  17.679  44.965  13.919
56564W        W20123  14.633   6.213  14.296
56565W        W20124  34.045   9.646   2.848
56566W        W20125  22.169   4.443  13.980
56567W        W20126  23.152   0.293   0.874
56568W        W20127  32.019  30.581  11.411
56569W        W20128   5.769  11.860   2.399
56570W        W20129  31.569  23.224  11.925
56571W        W20130  21.234  13.145  14.323
56572W        W20131  17.608  17.180   3.827
56573W        W20132  10.147  42.924  11.099
56574W        W20133  40.041   6.320   2.390
56575W        W20134  30.484  40.401  11.125
56576W        W20135  41.424  12.324  14.355
56577W        W20136  27.967  24.725  12.535
56578W        W20137  10.348  41.526  12.968
56579W        W20138  24.079  17.735  11.954
56580W        W20139  17.568  32.969  14.479
56581W        W20140  30.491  40.416  13.348
56582W        W20141  22.030  16.202  14.368
56583W        W20142  42.955   6.703  12.922
56584W        W20143  37.046  29.485  12.403
56585W        W20144  26.667   9.862  13.920
56586W        W20145   7.665   2.432   2.702
56587W        W20146  42.869  21.035  13.821
56588W        W20147  23.118  35.908   3.368
56589W        W20148  32.069  44.263  12.392
56590W        W20149  32.594  23.669   2.348
56591W        W20150   2.891  26.005   0.847
56592W        W20151  10.367   5.360  14.456
56593W        W20152  43.999  19.647  14.510
56594W        W20153  38.962  39.475   2.328
56595W        W20154   0.973  12.224  14.509
56596W        W20155   6.795  36.434   0.325
56597W        W20156  38.838   1.823   1.813
56598W        W20157  30.634  26.474  11.010
56599W        W20158  34.431   4.876   2.873
56600W        W20159  14.814  25.535  13.360
56601W        W20160  28.129  19.728   1.253
56602W        W20161  27.013  32.901   1.368
56603W        W20162   7.695  27.985  10.435
56604W        W20163  20.555  38.834  14.355
56605W        W20164  40.048  25.059  11.514
56606W        W20165   0.410  18.693   4.765
56607W        W20166  31.645  33.937  12.859
56608W        W20167  31.456   6.894   1.766
56609W        W20168  11.772   6.875   2.273
56610W        W20169  22.567   3.902  12.091
56611W        W20170  13.642  15.254  12.881
56612W        W20171  29.602  12.614  13.313
56613W        W20172  15.141  42.314  10.422
56614W        W20173  31.110  15.592   4.117
56615W        W20174  22.245  31.615  11.417
56616W        W20175  14.742  24.685  13.537
56617W        W20176  39.893  26.669   4.623
56618W        W20177  29.653  27.124   0.856
56619W        W20178  29.584  14.138   5.234
56620W        W20179  43.768  22.067  13.495
56621W        W20180  12.613  23.667  14.358
56622W        W20181  16.722  39.908  14.317
56623W        W20182  12.673   6.730  12.551
56624W        W20183  35.884  26.564  11.101
56625W        W20184  13.321  15.187   2.339
56626W        W20185   9.762  38.533  14.006
56627W        W20186   8.725  33.965   5.638
56628W        W20187  23.519  15.616  12.920
56629W        W20188  44.421  22.190  10.627
56630W        W20189  43.426  29.119  13.949
56631W        W20190   0.809  13.739   3.802
56632W        W20191  41.030  23.580   0.336
56633W        W20192  33.876  11.238  12.506
56634W        W20193  39.467  23.151  11.924
56635W        W20194  16.193  19.779  12.857
56636W        W20195   2.394  27.147   2.415
56637W        W20196   7.884  39.987  10.912
56638W        W20197  34.058  23.984   3.175
56639W        W20198   7.184   6.868   0.383
56640W        W20199  28.468  17.097  14.794
56641W        W20200  22.054  23.606   0.753
56642W        W20201  33.912  35.525  11.390
56643W        W20202  34.566  36.010  13.982
56644W        W20203  17.249  10.266   9.977
56645W        W20204  15.814   7.377   3.245
56646W        W20205   7.686  17.293   3.172
56647W        W20206  35.929  28.544   2.694
56648W        W20207  41.990  16.597  14.976
56649W        W20208  19.181   9.199   3.371
56650W        W20209  39.056   5.728  13.994
56651W        W20210   8.817  13.653  11.479
56652W        W20211  35.855  42.361   0.878
56653W        W20212  11.215  18.678  13.048
56654W        W20213  36.981  26.120  12.894
56655W        W20214  39.379  28.048  10.484
56656W        W20215  10.169  39.859  13.937
56657W        W20216  32.585  43.356  11.501
56658W        W20217   9.299  32.054  11.869
56659W        W20218  23.104   4.281  10.460
56660W        W20219  40.907   4.851  12.359
56661W        W20220   0.892   3.758   4.782
56662W        W20221  16.273  34.588  10.932
56663W        W20222  41.413  24.522  12.355
56664W        W20223  41.399   6.328   0.962
56665W        W20224  31.009  33.926  11.908
56666W        W20225  43.813   6.341   3.302
56667W        W20226  28.642  15.766   2.390
56668W        W20227  43.994  36.452  12.571
56669W        W20228  12.353  38.384  14.441
56670W        W20229  28.463   1.429   4.283
56671W        W20230  35.444  18.724  12.945
56672W        W20231  37.461  25.086   4.239
56673W        W20232  30.988  22.173   1.806
56674W        W20233  24.634  32.583   4.708
56675W        W20234  11.726  19.697  11.987
56676W        W20235  25.622   2.821  12.846
56677W        W20236  27.052   3.892   2.285
56678W        W20237  18.258  44.489   0.787
56679W        W20238  15.661  22.700   0.456
56680W        W20239  36.960  16.613   0.852
56681W        W20240   4.751  15.733   3.227
56682W        W20241  14.826  29.484   0.256
56683W        W20242   2.776   8.740   4.211
56684W        W20243  14.660  42.420   1.358
56685W        W20244  11.233  23.017   9.461
56686W        W20245  37.903  20.116   0.407
56687W        W20246  25.031   5.421   0.465
56688W        W20247  37.441  18.717   0.466
56689W        W20248  30.995  37.553   5.730
56690W        W20249  41.024  40.500  10.433
56691W        W20250  18.265  24.644   1.802
56692W        W20251  25.098  23.090   2.327
56693W        W20252   0.447  27.603   1.930
56694W        W20253  25.682  33.518  10.461
56695W        W20254  35.383  11.742  14.912
56696W        W20255  34.409  11.349  12.962
56697W        W20256  32.130  30.955   2.226
56698W        W20257  31.561  12.644  11.447
56699W        W20258  43.500  16.225  12.578
56700W        W20259  44.473  35.432   4.604
56701W        W20260   7.273  34.001   2.860
56702W        W20261   7.251   3.845   1.275
56703W        W20262  39.896  37.566   4.121
56704W        W20263  35.960  18.218  13.996
56705W        W20264  40.937  33.878  10.106
56706W        W20265  27.002  36.417   1.418
56707W        W20266   3.936   9.872   1.849
56708W        W20267  12.328  43.434  11.576
56709W        W20268   6.688  32.094  13.028
56710W        W20269   1.468  34.382  13.920
56711W        W20270   4.899  17.564  11.372
56712W        W20271   8.819   5.797   2.872
56713W        W20272   3.256  42.985   1.763
56714W        W20273  42.503  32.541  14.513
56715W        W20274  40.853  25.578  11.895
56716W        W20275  21.603  29.983   4.122
56717W        W20276  32.899   8.221  11.380
56718W        W20277  36.540  27.538  14.986
56719W        W20278  17.773  35.410   4.249
56720W        W20279  32.106  16.274   3.629
56721W        W20280  30.009   9.708   4.200
56722W        W20281  16.659  41.899   0.841
56723W        W20282  11.712   8.780  12.574
56724W        W20283  36.373   0.981  12.883
56725W        W20284  28.658  19.159   4.605
56726W        W20285  26.108  41.908   4.346
56727W        W20286  11.678  24.114  13.850
56728W        W20287  15.810  16.758   1.751
56729W        W20288  21.533  11.814  11.459
56730W        W20289  38.452  21.749   0.301
56731W        W20290  44.768  34.393  10.633
56732W        W20291  33.569  26.530  13.866
56733W        W20292  33.954  41.474   1.715
56734W        W20293  24.539  18.181  10.519
56735W        W20294  17.617  38.428  12.567
56736W        W20295  11.776   6.760   4.660
56737W        W20296  35.875  43.424  13.059
56738W        W20297  31.438  12.789   3.682
56739W        W20298  15.788  24.526  10.454
56740W        W20299   8.816  36.384   3.799
56741W        W20300   6.414  16.309  14.478
56742W        W20301  33.941  12.258   1.726
56743W        W20302  40.894  39.459   4.687
56744W        W20303  40.951  20.649  11.943
56745W        W20304  23.517  16.581  13.426
56746W        W20305  32.598   0.493  12.485
56747W        W20306  14.629   1.974  10.524
56748W        W20307  40.504  37.554   3.696
56749W        W20308  20.646  30.655  14.940
56750W        W20309  29.536  25.132  11.420
56751W        W20310  43.488  26.171  13.473
56752W        W20311  10.141  10.375  11.117
56753W        W20312  28.055  12.205   3.362
56754W        W20313   1.772  38.495  12.834
56755W        W20314  36.433  19.071  13.538
56756W        W20315   7.191  33.418   1.830
56757W        W20316  33.080   0.412   4.200
56758W        W20317  37.469  24.138  13.545
56759W        W20318  27.518  11.692  11.496
56760W        W20319  22.060  41.988   1.302
56761W        W20320  23.723   1.952  10.965
56762W        W20321  26.073  27.520  14.485
56763W        W20322   6.892   0.387  13.430
56764W        W20323  13.306  26.963   4.271
56765W        W20324  13.621  19.219  11.393
56766W        W20325  14.200  26.508   1.866
56767W        W20326  38.377  43.823   0.273
56768W        W20327  17.742   4.445   1.825
56769W        W20328  28.960  29.529  11.870
56770W        W20329   8.348  36.501  14.967
56771W        W20330  23.708   8.213  14.991
56772W        W20331   8.265  39.948   2.889
56773W        W20332  15.098  24.712  14.338
56774W        W20333   6.183  29.502  14.908
56775W        W20334  40.989  23.506   3.838
56776W        W20335   3.453   2.847   0.303
56777W        W20336   1.748  17.149   0.819
56778W        W20337   8.369   4.359  14.762
56779W        W20338   8.690  38.841  14.855
56780W        W20339  15.241  11.744   4.251
56781W        W20340  19.550  26.977  14.353
56782W        W20341  11.225   2.293  10.532
56783W        W20342   2.253  28.041   0.368
56784W        W20343  33.625  44.422   2.336
56785W        W20344  40.468   2.451  13.329
56786W        W20345  21.185   5.699  10.997
56787W        W20346  12.126  36.542   2.238
56788W        W20347   9.683   2.865   2.697
56789W        W20348  22.113  31.468   4.138
56790W        W20349  17.600  36.084  10.953
56791W        W20350  10.639   6.293   3.189
56792W        W20351  34.457   4.204   1.389
56793W        W20352  27.944   3.384   3.350
56794W        W20353   4.277  12.719   3.156
56795W        W20354   7.756   0.820   5.197
56796W        W20355   2.271  17.762   2.278
56797W        W20356  27.679  39.998  11.993
56798W        W20357  42.959  44.449  10.958
56799W        W20358  30.569   6.375   1.888
56800W        W20359  21.258  38.963   5.250
56801W        W20360  22.665   3.837   4.641
56802W        W20361  25.101  16.727   3.209
56803W        W20362  37.441  23.167   4.281
56804W        W20363  16.735  40.924  13.387
56805W        W20364  18.116   5.274  11.955
56806W        W20365  30.961   8.364  10.951
56807W        W20366  39.032  12.136   0.312
56808W        W20367  42.364  33.101   4.669
56809W        W20368  32.541   9.744   4.679
56810W        W20369  11.767   4.913   2.738
56811W        W20370  33.505  28.482   4.760
56812W        W20371  33.012  39.849  11.485
56813W        W20372  10.776  23.105   0.408
56814W        W20373   0.307  29.955   1.359
56815W        W20374  31.124  19.560   2.683
56816W        W20375  22.666  11.261   0.445
56817W        W20376   0.892   3.789   3.835
56818W        W20377   7.327  23.556   0.800
56819W        W20378  33.890  26.112   1.894
56820W        W20379  19.215  29.074  11.482
56821W        W20380  41.333  19.581  13.314
56822W        W20381  41.001  30.948   0.914
56823W        W20382  29.149   9.728  10.916
56824W        W20383  18.232  30.569  12.511
56825W        W20384  27.083   7.700  13.851
56826W        W20385  19.750  43.461   3.737
56827W        W20386  17.260  10.721  11.865
56828W        W20387   0.470  28.157  14.452
56829W        W20388  34.061   8.872  13.528
56830W        W20389  44.337  18.086   0.385
56831W        W20390  12.257  34.109   1.331
56832W        W20391  32.128   0.462   2.728
56833W        W20392  17.191  44.356  12.576
56834W        W20393  31.547  36.520   0.922
56835W        W20394  32.504   5.763   2.855
56836W        W20395   1.776  23.229   0.359
56837W        W20396  41.349  42.441   4.206
56838W        W20397  22.219  23.028  12.526
56839W        W20398  43.009  14.616   3.309
56840W        W20399  38.837  35.537  10.538
56841W        W20400  38.857  26.143   0.394
56842W        W20401  10.235  25.070  13.908
56843W        W20402  28.546  21.516   9.963
56844W        W20403  25.179  40.970  13.834
56845W        W20404  31.984  38.338   0.374
56846W        W20405  14.190  15.632   1.713
56847W        W20406  13.619  24.629   9.966
56848W        W20407  13.159  13.157  14.927
56849W        W20408  16.728  10.877  13.952
56850W        W20409  43.834  41.043   4.220
56851W        W20410  18.286  25.031   1.749
56852W        W20411  40.045  20.744   4.266
56853W        W20412  24.003  28.144   4.151
56854W        W20413   7.798   8.876   3.214
56855W        W20414  23.007  38.831  11.538
56856W        W20415  22.744  37.024  13.362
56857W        W20416  21.098  28.943   1.318
56858W        W20417  37.441  39.882  10.631
56859W        W20418  25.185  37.055  11.899
56860W        W20419  24.055   9.255  10.415
56861W        W20420  33.121  22.075  14.870
56862W        W20421   7.711  17.164   0.368
56863W        W20422  33.880  32.995  14.886
56864W        W20423   9.796   6.919   3.178
56865W        W20424  10.328   7.359   0.290
56866W        W20425   1.971  17.117   4.133
56867W        W20426  16.750   3.834   0.306
56868W        W20427  32.924   5.194  12.555
56869W        W20428  35.463  35.854   3.652
56870W        W20429  37.017  14.266   2.768
56871W        W20430  19.099  26.572  11.996
56872W        W20431  29.493   8.171   1.758
56873W        W20432  32.510  28.510   2.836
56874W        W20433  11.235  19.718  12.553
56875W        W20434  44.398  35.384  13.331
56876W        W20435  35.462  21.538   2.727
56877W        W20436  10.243   3.826  10.566
56878W        W20437  23.621  38.953  13.905
56879W        W20438   1.870  20.055   4.835
56880W        W20439   6.709   6.217  12.882
56881W        W20440  20.234  15.264  14.421
56882W        W20441  10.153  34.523  12.998
56883W        W20442  13.787  15.618  12.029
56884W        W20443  32.626  15.325   4.204
56885W        W20444  15.135  44.329   4.670
56886W        W20445   2.438  40.010  13.486
56887W        W20446  40.923   2.812   1.220
56888W        W20447  44.759  34.461   4.806
56889W        W20448  41.495  35.590  14.419
56890W        W20449  26.536  42.411  11.868
56891W        W20450  19.652  31.022   1.326
56892W        W20451  12.302  44.991   3.161
56893W        W20452  25.593   2.412  12.453
56894W        W20453  41.817  28.616  14.324
56895W        W20454   7.299  23.036  12.558
56896W        W20455  24.193  37.863   2.835
56897W        W20456   4.313  30.094   2.835
56898W        W20457  15.325   4.800  14.441
56899W        W20458   9.732  17.258   4.602
56900W        W20459  27.447   3.816  11.462
56901W        W20460  35.561  39.448  11.590
56902W        W20461   9.346   9.789   2.189
56903W        W20462  12.689  24.042   1.860
56904W        W20463  28.084  30.038  10.582
56905W        W20464  12.265  40.334  13.479
56906W        W20465  39.349   4.409   1.344
56907W        W20466  13.338  40.905  12.071
56908W        W20467   4.261  17.272  11.525
56909W        W20468   5.708   0.743  14.328
56910W        W20469   5.355  29.541  11.974
56911W        W20470  37.446  24.006  14.363
56912W        W20471  16.708   1.393  11.088
56913W        W20472  30.501  40.521  12.498
56914W        W20473  25.079  21.733  10.631
56915W        W20474   0.985   5.294   3.659
56916W        W20475  13.675  42.810   2.186
56917W        W20476  16.779  42.805   4.305
56918W        W20477  39.897  44.889   2.796
56919W        W20478  31.642  24.976  12.414
56920W        W20479  34.026   3.238  11.596
56921W        W20480  38.503  43.015  12.009
56922W        W20481  39.965   8.759   2.285
56923W        W20482   5.860  30.045  14.439
56924W        W20483  18.604  41.455   0.310
56925W        W20484   9.385  20.582  10.597
56926W        W20485  14.297   6.345  12.396
56927W        W20486  39.950  33.894  13.370
56928W        W20487  17.695   0.772  10.627
56929W        W20488  40.880  10.289   0.866
56930W        W20489  23.013  18.254   3.243
56931W        W20490  12.288  16.222   3.686
56932W        W20491  35.502  33.470   3.175
56933W        W20492  42.799  37.548  11.546
56934W        W20493  23.118  39.978   4.824
56935W        W20494  30.078  28.090  14.425
56936W        W20495  13.623   7.817  13.944
56937W        W20496  40.873  12.249  11.420
56938W        W20497  28.170  36.367   1.350
56939W        W20498  28.999   8.286  12.844
56940W        W20499   6.911  44.331  11.960
56941W        W20500  26.175  41.488  13.904
56942W        W20501  42.027  29.580   2.781
56943W        W20502   1.282  12.228   0.861
56944W        W20503  21.055   5.347  11.496
56945W        W20504  32.562  41.865   5.122
56946W        W20505  36.444  12.213  13.523
56947W        W20506  42.964  41.977  11.414
56948W        W20507  26.531  36.971  10.949
56949W        W20508  25.153  30.071  10.638
56950W        W20509   0.827  16.693   2.897
56951W        W20510  20.028   5.355   3.824
56952W        W20511  20.119   2.277   2.302
56953W        W20512   7.730   9.855  12.401
56954W        W20513  43.934   5.431   3.361
56955W        W20514  30.572  11.820  11.519
56956W        W20515  33.433  33.875  13.408
56957W        W20516  22.121  24.102   2.891
56958W        W20517  12.211  44.492   3.359
56959W        W20518  12.260   1.831  14.417
56960W        W20519   2.845   1.894   0.359
56961W        W20520  15.150  15.230  13.412
56962W        W20521  39.882  38.845   1.236
56963W        W20522  43.999  13.753   0.478
56964W        W20523  37.872  14.755  11.995
56965W        W20524  23.102   3.865   0.459
56966W        W20525  31.115  37.045  10.061
56967W        W20526  31.471  36.070   3.184
56968W        W20527  27.128  16.076  10.513
56969W        W20528   1.757  24.976  12.557
56970W        W20529  14.250  38.532   0.407
56971W        W20530   0.350  41.940   2.670
56972W        W20531  43.865  17.117   0.476
56973W        W20532   4.261  11.715  13.307
56974W        W20533  20.178  35.971  12.531
56975W        W20534  27.182  31.560  14.003
56976W        W20535  27.684  30.076   3.781
56977W        W20536  18.060  42.282  11.985
56978W        W20537   8.678  25.137   3.222
56979W        W20538  36.421  10.182   5.267
56980W        W20539  12.745  20.065   1.829
56981W        W20540  24.149   7.193   3.707
56982W        W20541  10.199  23.240  12.096
56983W        W20542  15.250   5.414  13.437
56984W        W20543  18.750  15.637  13.791
56985W        W20544  16.170   0.910  13.510
56986W        W20545  16.221  27.976   3.832
56987W        W20546  33.561  19.256   1.369
56988W        W20547  36.513  24.121  10.086
56989W        W20548  19.168  40.925   0.893
56990W        W20549  10.873  17.605   1.818
56991W        W20550  13.688   5.404  11.128
56992W        W20551  30.461  19.553   1.716
56993W        W20552  24.526   6.781  13.834
56994W        W20553  26.959  39.019   4.620
56995W        W20554   9.183  14.768  13.339
56996W        W20555  44.373  13.217   0.443
56997W        W20556  44.310  32.488  12.931
56998W        W20557  13.312  30.980   2.852
56999W        W20558  40.445   5.885  13.023
57000W        W20559  34.058  30.633  12.426
57001W        W20560   8.669  35.367  12.385
57002W        W20561  28.479  16.700  10.497
57003W        W20562  38.068  14.341   5.231
57004W        W20563  18.586  30.636   1.830
57005W        W20564  29.111  22.115  11.889
57006W        W20565  26.017  11.307   3.809
57007W        W20566   4.788   8.397   0.956
57008W        W20567  24.605  18.104  11.939
57009W        W20568  41.880  41.434  12.550
57010W        W20569  24.983  43.463   0.272
57011W        W20570  12.734  36.965  13.991
57012W        W20571  44.959  25.574  13.064
57013W        W20572  28.170  38.946   1.347
57014W        W20573  12.681  32.396  12.365
57015W        W20574  33.015  22.557  13.370
57016W        W20575  19.120  14.685  10.423
57017W        W20576   5.748  37.867   1.442
57018W        W20577  39.411   7.381   4.333
57019W        W20578  23.016  12.820  12.449
57020W        W20579  21.027  34.590  14.834
57021W        W20580   1.817   8.771  12.385
57022W        W20581  18.773  21.123   0.816
57023W        W20582  13.635  23.681   1.342
57024W        W20583  32.053  16.116   4.195
57025W        W20584  28.567  11.285  14.968
57026W        W20585  36.879  16.666  12.898
57027W        W20586  41.511  42.959   2.396
57028W        W20587   6.915  37.461  13.877
57029W        W20588  14.264  30.425  12.987
57030W        W20589  15.709  44.342  10.980
57031W        W20590  16.709  44.414  12.963
57032W        W20591   9.255  38.834   9.932
57033W        W20592  14.266   5.282   3.803
57034W        W20593  16.713  34.864   4.190
57035W        W20594  15.698   4.755  11.474
57036W        W20595  33.409   6.883  12.413
57037W        W20596   7.238   3.944  11.090
57038W        W20597   5.232  36.848  13.048
57039W        W20598  13.791   1.796  12.469
57040W        W20599  38.002  44.996  10.581
57041W        W20600  11.709  27.099   3.158
57042W        W20601  17.294  43.392  10.988
57043W        W20602   6.352  14.282  10.415
57044W        W20603  10.829   2.751  13.350
57045W        W20604  38.872   4.741  13.992
57046W        W20605  35.595  26.087  14.360
57047W        W20606  14.240   5.217  14.983
57048W        W20607  33.952   7.228  13.971
57049W        W20608  27.644  39.993  13.798
57050W        W20609  31.924  40.494  12.030
57051W        W20610  35.867   6.850  11.112
57052W        W20611  33.621  17.291  14.497
57053W        W20612   6.741   7.896   1.407
57054W        W20613  10.243   6.909  10.624
57055W        W20614   1.483  23.677   4.167
57056W        W20615  37.548  39.998  11.565
57057W        W20616  41.314  33.014  12.534
57058W        W20617   3.923  15.636   0.936
57059W        W20618  26.104  33.593   2.295
57060W        W20619  31.149   0.251   1.333
57061W        W20620  15.822  11.646  10.100
57062W        W20621   5.871  13.302   2.853
57063W        W20622  14.787  40.856  11.489
57064W        W20623  33.062  36.359   1.362
57065W        W20624   0.905  41.427  11.084
57066W        W20625  37.384   8.310  12.401
57067W        W20626  20.671  23.154  13.380
57068W        W20627  18.234  17.288  10.637
57069W        W20628  43.993  33.933   1.394
57070W        W20629  10.251  26.679   5.178
57071W        W20630  39.853  10.815   0.961
57072W        W20631  39.385  43.327  12.345
57073W        W20632  35.045  24.545   4.803
57074W        W20633  23.673   1.446   0.472
57075W        W20634   8.723  18.107   3.804
57076W        W20635   6.327  34.926   1.428
57077W        W20636  28.930  33.453   2.220
57078W        W20637   5.714  11.241  12.508
57079W        W20638  11.625  21.130   9.923
57080W        W20639  40.810  30.140   1.302
57081W        W20640  31.559   0.838   2.889
57082W        W20641   1.752  41.530   0.865
57083W        W20642  24.154  30.972  11.453
57084W        W20643   3.740  24.582   4.295
57085W        W20644  25.183  24.193   3.832
57086W        W20645   3.821  43.021  10.515
57087W        W20646   3.291  42.510   2.311
57088W        W20647   5.312  33.524   1.899
57089W        W20648   6.788  40.973   0.328
57090W        W20649  40.388  18.257   5.202
57091W        W20650   4.933   0.848  12.880
57092W        W20651   7.791  36.868  13.025
57093W        W20652   0.926  38.943   0.386
57094W        W20653  30.046  12.183   1.294
57095W        W20654  13.326   1.942  11.876
57096W        W20655   7.321  17.191  13.347
57097W        W20656  12.768  36.429   2.782
57098W        W20657  26.560  42.422   2.290
57099W        W20658  34.009  24.038  13.895
57100W        W20659  13.284   9.812   1.724
57101W        W20660  11.171   5.202   3.709
57102W        W20661  10.733  12.853  13.962
57103W        W20662   2.808  29.655   2.287
57104W        W20663  43.908  20.185  11.560
57105W        W20664  41.041  40.388   0.933
57106W        W20665  28.054  34.108   1.334
57107W        W20666  42.473  13.724  14.464
57108W        W20667  20.148  21.596   3.844
57109W        W20668   9.797  25.197   2.419
57110W        W20669  13.139  12.771   1.249
57111W        W20670  38.828  40.801   2.886
57112W        W20671   3.246  33.026  10.506
57113W        W20672  33.900  17.655  11.389
57114W        W20673  28.659  41.036  12.954
57115W        W20674  24.589  40.808   4.206
57116W        W20675  39.014  23.022   2.346
57117W        W20676  15.170   2.918   4.194
57118W        W20677  38.000  12.184   1.883
57119W        W20678  15.661  12.826   4.652
57120W        W20679  20.527   7.233   4.251
57121W        W20680  31.519  26.135  14.879
57122W        W20681  37.887  40.469   1.345
57123W        W20682   0.834  26.136   1.911
57124W        W20683  19.669   4.775   3.207
57125W        W20684  41.973  11.285  14.330
57126W        W20685  36.065  32.549   3.161
57127W        W20686  42.333   1.751   4.784
57128W        W20687  19.052  35.545   3.821
57129W        W20688  34.983  33.090  13.023
57130W        W20689  40.371  12.741   9.962
57131W        W20690   0.884   4.807   4.272
57132W        W20691  31.563  36.847   2.273
57133W        W20692   7.756  34.067   2.733
57134W        W20693  42.361  30.547   1.922
57135W        W20694  10.178  38.329  11.479
57136W        W20695  10.648  20.752  14.466
57137W        W20696  38.557  37.855   0.333
57138W        W20697  28.620   1.955   3.845
57139W        W20698   5.752  32.474   0.395
57140W        W20699  20.608  39.887   4.607
57141W        W20700  34.593  34.371  13.405
57142W        W20701  29.444   0.490  10.941
57143W        W20702  30.618  27.590   4.605
57144W        W20703  28.501  25.041   1.259
57145W        W20704   3.395  13.665  11.570
57146W        W20705  21.611   2.235  13.054
57147W        W20706  27.133  31.071   1.900
57148W        W20707  28.948   5.799   2.336
57149W        W20708  30.446  21.563   4.186
57150W        W20709  43.933  25.647   1.696
57151W        W20710   9.317  36.090   3.199
57152W        W20711  36.065  10.217   0.942
57153W        W20712  19.685  24.173   4.700
57154W        W20713  27.450  10.146  13.841
57155W        W20714  36.387  22.067   3.218
57156W        W20715  20.559  10.184   0.451
57157W        W20716  21.017  18.228   3.827
57158W        W20717  30.588  23.647   3.378
57159W        W20718  44.269  44.996  12.486
57160W        W20719  34.981   5.754   4.803
57161W        W20720  18.577  25.017  12.503
57162W        W20721  21.725  22.512   1.931
57163W        W20722  34.997  24.066  11.060
57164W        W20723  27.555   5.812   4.724
57165W        W20724  42.893  32.100  12.424
57166W        W20725  17.765   3.301   2.225
57167W        W20726  34.001  44.502  13.540
57168W        W20727   8.878  37.503   3.324
57169W        W20728  36.005  16.254  11.943
57170W        W20729  17.112  43.290  14.860
57171W        W20730   3.269  25.132  14.800
57172W        W20731  38.045   8.677   2.365
57173W        W20732   5.929   2.278  13.901
57174W        W20733  32.920   9.727   1.444
57175W        W20734  22.230  44.500   0.439
57176W        W20735  18.142  19.188  12.056
57177W        W20736   4.260  11.641   0.375
57178W        W20737  30.039  20.102   3.187
57179W        W20738  24.619   1.399  13.539
57180W        W20739  34.890   5.364   2.293
57181W        W20740  21.750  30.580  11.477
57182W        W20741   1.804  20.225  14.509
57183W        W20742  40.000  33.894  13.899
57184W        W20743  22.670  12.798  11.566
57185W        W20744  43.943  21.545   3.280
57186W        W20745  26.981  17.718  14.890
57187W        W20746  11.182  20.171   2.886
57188W        W20747   6.313  17.680   1.840
57189W        W20748  31.469  35.424   4.606
57190W        W20749  42.972  40.845   0.829
57191W        W20750  16.113   9.844  15.000
57192W        W20751  18.784  16.138   4.259
57193W        W20752   2.324  27.523  13.877
57194W        W20753   5.353  35.445   1.717
57195W        W20754  34.604  39.962   5.128
57196W        W20755  21.603  31.131   1.756
57197W        W20756  39.955   0.437  13.966
57198W        W20757  26.051  21.578  12.347
57199W        W20758  15.099  40.362  11.420
57200W        W20759   0.816   8.849  12.408
57201W        W20760  35.976  11.712   2.853
57202W        W20761   4.765  16.617  11.870
57203W        W20762  41.971  12.759  11.402
57204W        W20763   4.754  17.170  13.545
57205W        W20764   3.857   2.334   0.816
57206W        W20765   9.297   3.842  13.909
57207W        W20766  35.434  21.572   4.126
57208W        W20767  30.941   7.739   0.913
57209W        W20768  11.262  15.762   2.708
57210W        W20769   2.373  21.660  13.421
57211W        W20770   5.810  26.457   4.755
57212W        W20771  27.475   9.395   3.201
57213W        W20772  21.260  19.135  11.046
57214W        W20773   7.833  31.096  11.922
57215W        W20774   4.875  22.142   4.719
57216W        W20775   6.205  16.745   4.806
57217W        W20776  20.761  26.032  13.454
57218W        W20777  36.348  18.738  10.588
57219W        W20778  20.630  26.467   1.842
57220W        W20779  35.498  21.655  10.635
57221W        W20780  44.343   8.810   5.312
57222W        W20781  40.492  27.179   4.805
57223W        W20782  28.658   7.196  11.450
57224W        W20783   5.697   4.708  11.991
57225W        W20784   0.948  42.453   3.380
57226W        W20785  28.933  12.757   0.262
57227W        W20786  30.984  42.929  13.865
57228W        W20787  27.014  23.238   4.735
57229W        W20788  35.037  37.035   3.224
57230W        W20789  16.772  40.847  13.912
57231W        W20790  19.234  26.695  12.926
57232W        W20791  13.230  35.430   3.208
57233W        W20792  17.297  25.657  13.513
57234W        W20793  36.925  42.401   0.255
57235W        W20794  22.203   8.316  14.339
57236W        W20795  39.324  30.534   3.260
57237W        W20796  42.990  38.893  11.074
57238W        W20797  27.504   2.367   1.248
57239W        W20798  25.204  17.215   5.256
57240W        W20799  44.894  34.863   0.355
57241W        W20800  32.470  36.057  14.802
57242W        W20801  20.616  43.818  11.065
57243W        W20802  11.781  34.935   2.801
57244W        W20803  36.996  18.151  12.530
57245W        W20804  21.248  31.535  14.988
57246W        W20805  39.357  44.442  10.074
57247W        W20806  29.987  21.027  12.951
57248W        W20807   2.436  21.239  12.962
57249W        W20808   6.314   0.435   0.431
57250W        W20809   1.828  40.338  14.838
57251W        W20810  14.146  32.495   2.238
57252W        W20811  40.517   3.346   5.279
57253W        W20812   2.245  17.738  11.514
57254W        W20813  18.610  29.120   2.677
57255W        W20814  40.982  20.141   2.698
57256W        W20815  33.119   1.294  10.955
57257W        W20816  33.071  34.079   0.377
57258W        W20817  37.514   2.937   4.251
57259W        W20818   2.722  22.084   1.772
57260W        W20819   0.482   7.190  11.463
57261W        W20820  15.181  26.689  10.075
57262W        W20821  40.450  32.067   0.320
57263W        W20822  31.632  26.641   3.146
57264W        W20823  37.411  37.403   4.712
57265W        W20824  11.737  22.523   3.773
57266W        W20825  27.634  23.721   3.344
57267W        W20826  21.213  30.503  14.870
57268W        W20827  31.979  15.684   9.920
57269W        W20828  39.516  41.924   1.920
57270W        W20829  18.282  25.158   0.854
57271W        W20830  38.824  41.853  10.951
57272W        W20831  42.969  36.454  12.068
57273W        W20832   7.218  38.432  11.937
57274W        W20833  25.195   1.311   4.785
57275W        W20834  11.280  43.905  14.875
57276W        W20835  30.038  39.427  14.478
57277W        W20836  23.686  37.547  12.483
57278W        W20837  30.972  13.831  10.512
57279W        W20838  40.425  22.657  10.644
57280W        W20839  29.464  34.964  14.323
57281W        W20840  14.221  25.083  10.532
57282W        W20841  11.351  25.591  13.944
57283W        W20842   2.727  13.228  14.349
57284W        W20843  34.973  16.578  11.920
57285W        W20844  42.886  16.094   0.755
57286W        W20845  39.551  17.661   3.792
57287W        W20846  37.416  38.822   2.183
57288W        W20847  25.655  18.781   2.687
57289W        W20848  35.977  25.064  12.443
57290W        W20849  26.497  24.988   0.830
57291W        W20850   4.745  22.006  12.846
57292W        W20851  37.036  27.031   1.351
57293W        W20852   3.713  43.802  10.928
57294W        W20853  30.524  17.698  12.074
57295W        W20854  33.436  22.060  11.074
57296W        W20855  23.012   6.898  12.964
57297W        W20856  14.765  11.141  12.486
57298W        W20857  22.683   9.750   0.765
57299W        W20858  12.196  26.095   4.817
57300W        W20859  42.292  28.552   2.373
57301W        W20860  40.444  17.682  13.975
57302W        W20861  20.574  25.154  10.573
57303W        W20862  28.167  35.549   3.825
57304W        W20863  12.764  23.604   1.299
57305W        W20864   7.786  32.911   0.451
57306W        W20865  35.059  34.506   1.219
57307W        W20866  36.442  32.991  11.955
57308W        W20867  44.297  10.726   3.670
57309W        W20868  19.059  18.253   3.686
57310W        W20869  16.167  25.015   0.461
57311W        W20870   2.269  10.715  11.071
57312W        W20871  29.667  32.468   0.279
57313W        W20872  23.070  41.813  14.029
57314W        W20873  37.086  36.513   0.312
57315W        W20874  25.021  26.482   0.790
57316W        W20875  35.401   1.774  11.114
57317W        W20876  25.620  35.497  13.988
57318W        W20877  16.606   4.742   3.366
57319W        W20878  14.624  41.412  14.773
57320W        W20879  11.659  13.167  10.947
57321W        W20880  16.692  42.011   1.837
57322W        W20881  26.566  15.290   3.859
57323W        W20882  25.041  39.900   4.786
57324W        W20883  38.520  44.306   0.937
57325W        W20884  22.532  43.436   1.237
57326W        W20885  33.889   0.278  11.467
57327W        W20886  41.358  19.201  11.610
57328W        W20887  31.021   5.731  14.961
57329W        W20888  39.946  35.542  12.833
57330W        W20889  12.236  38.922   2.340
57331W        W20890  31.432  26.998  12.412
57332W        W20891  37.423  35.092   2.287
57333W        W20892  43.781  18.616   0.319
57334W        W20893  11.331  30.561   2.809
57335W        W20894   8.172  10.157   0.327
57336W        W20895  15.802   5.694  11.546
57337W        W20896  24.976  29.926   0.871
57338W        W20897   6.188  21.583  13.847
57339W        W20898  23.617  14.614  11.497
57340W        W20899  15.647   4.390   2.224
57341W        W20900   2.327  34.957   3.701
57342W        W20901  43.773  24.024  12.973
57343W        W20902  34.567  38.896   4.158
57344W        W20903   4.301  16.313   2.181
57345W        W20904  30.159  20.615  13.943
57346W        W20905  35.534   1.464  11.052
57347W        W20906  33.077  21.155  10.470
57348W        W20907  22.014  19.555   3.145
57349W        W20908   0.972   4.245   4.647
57350W        W20909  41.877  35.449   2.354
57351W        W20910  40.825  21.032   2.681
57352W        W20911  14.310  33.095  13.341
57353W        W20912  36.041  15.263   3.312
57354W        W20913  43.967  13.771  11.423
57355W        W20914  16.149  34.520  14.025
57356W        W20915  41.000   0.906   1.717
57357W        W20916  25.217   9.239   4.624
57358W        W20917  36.869  28.117  13.930
57359W        W20918  22.709  20.094   1.274
57360W        W20919  18.265  21.241   3.326
57361W        W20920  15.106  24.609  13.402
57362W        W20921  40.504  15.683  13.446
57363W        W20922  29.512  10.863   1.912
57364W        W20923  13.323  15.761  14.971
57365W        W20924   8.162  21.076   4.701
57366W        W20925  40.886   7.416  14.834
57367W        W20926   7.311  37.913   0.864
57368W        W20927  28.680   6.719   3.794
57369W        W20928  22.607  37.407   3.175
57370W        W20929  38.421  26.620  10.470
57371W        W20930  12.207  42.808  13.406
57372W        W20931  16.703  32.435  12.414
57373W        W20932  33.439   6.406   2.714
57374W        W20933  33.519  33.417  11.926
57375W        W20934   6.329  16.121  12.916
57376W        W20935  26.016  41.476  14.951
57377W        W20936  28.957  13.296  12.038
57378W        W20937  35.908  13.339  12.055
57379W        W20938  20.694  14.231   4.138
57380W        W20939  37.934  16.203   3.221
57381W        W20940  32.447   0.290   3.811
57382W        W20941  34.973  40.481  12.458
57383W        W20942  30.120  15.751   3.234
57384W        W20943  12.222  19.080  11.438
57385W        W20944  16.293   3.311  13.816
57386W        W20945  26.562  37.909  14.027
57387W        W20946   5.855  19.704  10.603
57388W        W20947  19.735  16.194  10.522
57389W        W20948  40.824  36.461  14.866
57390W        W20949  29.487   2.279  13.912
57391W        W20950  22.158   0.410   4.815
57392W        W20951  33.625  21.737  11.511
57393W        W20952  13.324   4.344  11.876
57394W        W20953   8.286   0.282  14.442
57395W        W20954  12.199  16.734   4.661
57396W        W20955  35.086  23.012  12.934
57397W        W20956  44.900   7.193   3.827
57398W        W20957  39.827   0.441  13.506
57399W        W20958  26.673  40.308   1.330
57400W        W20959   5.794  20.251  13.525
57401W        W20960  42.421  40.898  13.002
57402W        W20961  24.032  20.729   2.788
57403W        W20962   8.308  42.342   2.815
57404W        W20963  27.642  40.345   3.301
57405W        W20964  15.171  44.988   4.700
57406W        W20965  30.075  44.377  10.415
57407W        W20966  15.693  34.011  13.430
57408W        W20967  24.525  42.337   2.673
57409W        W20968  21.606  31.075   4.157
57410W        W20969  22.652  30.085   3.353
57411W        W20970  31.005  31.151   0.855
57412W        W20971  31.554   1.269  14.301
57413W        W20972  34.392  42.418  14.894
57414W        W20973  20.639  29.945  11.918
57415W        W20974  35.062   1.453   3.635
57416W        W20975  39.539  28.437  12.492
57417W        W20976  20.172  11.692   0.370
57418W        W20977  14.302  30.012   3.298
57419W        W20978   6.896  34.898  10.642
57420W        W20979   0.280  44.424  13.313
57421W        W20980  25.487  24.713   4.128
57422W        W20981  10.788  39.864  10.947
57423W        W20982  40.408  34.883  12.892
57424W        W20983   6.262  29.560   0.424
57425W        W20984  40.864  35.898  10.469
57426W        W20985  13.164  21.754  13.050
57427W        W20986   8.364  37.966  10.625
57428W        W20987  20.036  37.857  11.954
57429W        W20988  39.810  10.796  14.031
57430W        W20989  32.440   2.891   3.708
57431W        W20990  26.635  26.966   4.288
57432W        W20991   9.252  22.718  13.014
57433W        W20992  23.678  26.537   2.276
57434W        W20993  20.653  33.583  13.444
57435W        W20994  32.443  28.937  11.944
57436W        W20995  10.138  41.482  12.038
57437W        W20996  17.797  44.924  11.912
57438W        W20997  20.123  22.188  14.978
57439W        W20998  11.304   6.792  10.634
57440W        W20999  32.405  32.512   4.296
57441W        W21000  33.397  41.472   4.812
57442W        W21001  44.773  19.168  12.033
57443W        W21002  11.666  10.290  14.908
57444W        W21003   5.807  26.699   5.203
57445W        W21004  39.969   4.409   4.712
57446W        W21005   6.312  30.034   4.290
57447W        W21006   4.880  17.575   0.291
57448W        W21007  40.435  42.022   3.326
57449W        W21008  19.582  42.866  11.572
57450W        W21009  23.220   9.788  12.557
57451W        W21010  12.194   3.426  11.417
57452W        W21011  18.588  14.261   2.731
57453W        W21012  42.836  23.615  14.019
57454W        W21013   7.819  40.548   4.345
57455W        W21014  38.378  43.930  14.955
57456W        W21015  39.063  25.570   2.668
57457W        W21016  36.067  15.163   0.415
57458W        W21017  44.785  12.768  14.791
57459W        W21018  36.387   2.847   1.438
57460W        W21019  44.317  17.597  14.512
57461W        W21020  44.883  38.536  14.781
57462W        W21021   4.710   3.923  11.483
57463W        W21022  21.185  10.781   0.299
57464W        W21023  12.849  21.518  10.537
57465W        W21024  19.183   7.749  14.930
57466W        W21025  15.614   3.260  13.846
57467W        W21026  13.613  44.499   2.419
57468W        W21027  31.896  14.813   1.771
57469W        W21028  38.389  33.928   2.224
57470W        W21029  10.279  41.003  13.352
57471W        W21030  13.306  21.052  14.366
57472W        W21031  40.869  24.190  14.933
57473W        W21032   5.326  20.028  12.008
57474W        W21033  32.035  13.348  14.338
57475W        W21034  39.061  40.340   4.192
57476W        W21035  21.514  33.607  10.017
57477W        W21036  12.324  32.058  11.076
57478W        W21037  39.873  10.293   3.327
57479W        W21038  24.169  24.094  14.471
57480W        W21039  41.918   7.869  13.917
57481W        W21040  23.621  28.184   2.705
57482W        W21041  17.089  15.296  12.561
57483W        W21042  22.114  27.157   4.314
57484W        W21043   8.310  35.409  11.395
57485W        W21044   6.682  14.252  10.936
57486W        W21045  35.456   3.360   3.840
57487W        W21046   3.730  40.006  13.884
57488W        W21047  19.131  21.734   3.766
57489W        W21048  36.054  32.028  13.795
57490W        W21049  22.746  39.370   4.705
57491W        W21050  38.076  37.390  11.899
57492W        W21051  25.124   3.839   4.284
57493W        W21052   0.320  20.037   0.726
57494W        W21053  42.847  15.583  11.438
57495W        W21054  21.587  23.572   0.930
57496W        W21055  22.207  34.996  14.772
57497W        W21056  35.513  21.728   3.208
57498W        W21057  23.238  22.593  14.946
57499W        W21058  25.670   0.957   3.363
57500W        W21059   9.157  20.544  13.428
57501W        W21060  13.645  22.616   5.646
57502W        W21061  28.073  43.963  12.826
57503W        W21062  19.602  21.083  12.046
57504W        W21063  33.386  26.573  10.495
57505W        W21064   7.259   5.725  10.528
57506W        W21065  35.963  38.027   3.171
57507W        W21066  21.738  34.067   1.920
57508W        W21067  36.481  44.771  14.441
57509W        W21068  16.661  28.141  14.377
57510W        W21069  16.273  26.498  12.070
57511W        W21070  14.179  26.550   4.185
57512W        W21071  40.007  26.502   1.825
57513W        W21072  18.783  32.437   3.794
57514W        W21073  23.582  42.965   0.918
57515W        W21074  18.740  43.972  10.920
57516W        W21075  24.035   3.854  12.514
57517W        W21076  42.340  30.982   0.817
57518W        W21077  16.637  21.695   1.281
57519W        W21078  29.087  10.189   3.364
57520W        W21079  41.924   8.769   3.303
57521W        W21080  11.754  14.797  14.410
57522W        W21081  36.573  31.908   4.773
57523W        W21082  26.468  21.149  11.553
57524W        W21083  39.008  40.831  14.498
57525W        W21084  26.471  44.488  10.131
57526W        W21085   1.886   7.787   2.697
57527W        W21086   7.374  25.053   0.833
57528W        W21087  19.539   8.377   4.282
57529W        W21088  12.183  34.095   2.234
57530W        W21089  34.944   6.842  12.865
57531W        W21090  17.064  39.534  13.990
57532W        W21091   8.205  19.676  13.541
57533W        W21092  16.780  28.491  14.994
57534W        W21093  40.835   3.248   2.778
57535W        W21094  16.567  31.939  14.997
57536W        W21095   1.332  11.731  13.793
57537W        W21096  27.661  11.859  14.816
57538W        W21097  30.643  40.828  11.899
57539W        W21098  13.233  31.617  14.908
57540W        W21099  41.956  11.365  11.906
57541W        W21100  21.559  28.445  11.390
57542W        W21101  22.197  34.100  13.365
57543W        W21102  13.316   0.474  13.546
57544W        W21103  34.535  11.803   3.857
57545W        W21104   3.295  19.699   3.192
57546W        W21105  40.314  28.594  14.445
57547W        W21106  38.436  14.601   3.373
57548W        W21107   1.360  44.294  12.413
57549W        W21108  39.027  31.920   9.940
57550W        W21109  25.669   6.767   3.827
57551W        W21110  41.429   5.216   4.738
57552W        W21111  41.800  25.018  12.378
57553W        W21112   1.374  34.607   1.311
57554W        W21113  43.823  33.399  11.372
57555W        W21114  17.268  17.800   4.156
57556W        W21115  42.507  36.503  13.941
57557W        W21116  42.402  13.197  14.419
57558W        W21117  38.543  36.571  11.984
57559W        W21118  14.766   4.785  14.406
57560W        W21119  24.194  30.968   3.810
57561W        W21120  27.593  22.068   3.730
57562W        W21121  31.901  39.903  11.388
57563W        W21122  31.935   5.867  11.990
57564W        W21123  27.952  19.735   0.275
57565W        W21124  27.102  35.560   2.772
57566W        W21125  20.692  15.721  13.011
57567W        W21126  32.418  24.104   4.263
57568W        W21127  35.949  35.044   3.724
57569W        W21128  36.855  23.573   2.296
57570W        W21129  36.361  26.606  11.482
57571W        W21130   9.844  12.140   4.837
57572W        W21131  36.422  39.982   3.717
57573W        W21132  21.625  29.086   1.855
57574W        W21133  25.602  43.767   0.291
57575W        W21134   1.966   4.928  14.965
57576W        W21135   6.802  39.379   0.883
57577W        W21136  19.637  13.727   0.846
57578W        W21137   8.191  10.822  12.541
57579W        W21138   0.780  20.613  11.536
57580W        W21139  42.884  26.168   4.242
57581W        W21140  26.481  16.797  10.145
57582W        W21141   2.324   6.702   2.339
57583W        W21142  40.498   7.250  11.909
57584W        W21143  44.852   7.407   4.832
57585W        W21144  42.521  33.000  13.986
57586W        W21145   3.322  17.097  14.996
57587W        W21146   5.851  26.471   2.679
57588W        W21147   1.966  13.326   2.264
57589W        W21148  13.763  17.663  13.525
57590W        W21149   8.668   6.725   0.775
57591W        W21150  40.826  24.145  14.014
57592W        W21151  22.178  30.148   3.287
57593W        W21152  10.294   7.782   1.283
57594W        W21153  22.730  23.499  14.426
57595W        W21154  19.226  38.351  11.460
57596W        W21155  26.173  37.949  11.106
57597W        W21156  39.020   1.301   2.303
57598W        W21157  24.166  30.648   2.794
57599W        W21158  20.168  34.376  13.849
57600W        W21159   9.802  29.010   3.772
57601W        W21160  37.043  25.128  10.490
57602W        W21161  31.605  41.336   2.260
57603W        W21162  25.530   5.383  12.527
57604W        W21163  28.679   4.394   0.282
57605W        W21164  14.288   4.269   2.670
57606W        W21165  20.597   7.310  13.932
57607W        W21166  17.187  34.439   4.716
57608W        W21167  27.599  43.312  12.347
57609W        W21168  25.626  39.907  12.452
57610W        W21169  16.238  27.455   3.800
57611W        W21170   6.375  16.734  11.060
57612W        W21171  39.962  39.831   4.690
57613W        W21172  44.942  30.967   2.881
57614W        W21173   2.830  27.490   2.416
57615W        W21174  44.280  18.784  14.432
57616W        W21175   0.266  14.617   1.917
57617W        W21176  11.737  35.029   1.821
57618W        W21177  33.087   3.298   4.323
57619W        W21178  34.407   9.887  12.960
57620W        W21179   1.264  33.397  14.974
57621W        W21180  23.164  20.033   4.726
57622W        W21181  38.922   0.885   0.755
57623W        W21182  18.220  39.953   4.733
57624W        W21183   9.221  31.008  10.433
57625W        W21184  31.621  29.475   1.899
57626W        W21185  40.331  27.090  14.489
57627W        W21186  32.926  33.415   0.825
57628W        W21187   9.200  33.996  10.597
57629W        W21188   3.779  15.608   3.273
57630W        W21189  14.602  44.445   2.203
57631W        W21190  36.083  39.511   1.751
57632W        W21191   4.290   8.278  10.959
57633W        W21192  21.080   6.342   0.253
57634W        W21193  37.832  41.838  11.597
57635W        W21194  28.015  14.324  10.601
57636W        W21195  22.081  15.152   4.327
57637W        W21196  36.085  27.585   0.952
57638W        W21197  38.426  15.807   1.350
57639W        W21198   5.839  13.321   1.744
57640W        W21199  14.598  25.515  10.470
57641W        W21200  15.790  28.053   2.791
57642W        W21201  30.961   2.457   1.342
57643W        W21202  35.393   8.250   4.675
57644W        W21203  28.060  25.583  14.310
57645W        W21204  25.648  30.161   0.365
57646W        W21205  27.175   2.946   1.423
57647W        W21206  13.643  33.597  13.908
57648W        W21207  24.195  30.105   1.767
57649W        W21208  37.075  22.580  10.497
57650W        W21209  32.917  17.698   3.262
57651W        W21210  37.429  34.018  11.594
57652W        W21211  25.121  26.044   1.887
57653W        W21212  32.623  19.152   0.432
57654W        W21213  17.246   0.378   2.873
57655W        W21214  21.096  43.399   4.820
57656W        W21215   3.909  22.697   2.293
57657W        W21216  15.171  36.390  13.963
57658W        W21217  31.992  20.149  13.830
57659W        W21218  30.975  40.330  14.859
57660W        W21219  31.022  31.934  12.377
57661W        W21220  22.714  38.865  10.930
57662W        W21221   0.901  35.908  10.993
57663W        W21222  22.194  19.055   4.263
57664W        W21223  15.807  36.510   0.729
57665W        W21224   2.410  41.966   0.383
57666W        W21225  27.472  33.566   0.444
57667W        W21226  37.438   1.826  14.290
57668W        W21227  28.048  21.140  12.084
57669W        W21228   2.456  21.244  14.004
57670W        W21229  23.240  19.535   1.764
57671W        W21230  17.248  15.755  10.068
57672W        W21231  34.988  19.039  13.358
57673W        W21232  38.867  17.732   3.303
57674W        W21233   1.334   2.871  10.489
57675W        W21234   6.284  18.064  11.892
57676W        W21235   4.930  26.685   5.308
57677W        W21236  37.992  35.940   4.686
57678W        W21237   6.343  44.882  14.471
57679W        W21238   0.913  44.941   0.843
57680W        W21239   1.958   7.693   3.347
57681W        W21240  32.067  27.589  10.959
57682W        W21241  12.208  19.165   1.324
57683W        W21242  17.656  27.449  12.983
57684W        W21243  23.089  25.689  12.953
57685W        W21244  41.304   6.370  10.621
57686W        W21245  40.405  39.829   2.664
57687W        W21246   1.371  31.544  14.798
57688W        W21247   4.763  44.756   3.237
57689W        W21248  14.810  37.968   0.473
57690W        W21249  11.336   5.369   3.258
57691W        W21250   9.791  37.534  13.922
57692W        W21251  28.613   4.848   4.317
57693W        W21252  27.977  28.440  13.063
57694W        W21253   9.312  17.700   1.245
57695W        W21254  42.887  37.437  12.996
57696W        W21255  11.145  28.446  13.942
57697W        W21256  10.218  35.002  11.543
57698W        W21257  15.649  24.614  14.937
57699W        W21258   6.813  28.526  14.289
57700W        W21259  14.100  11.724  13.984
57701W        W21260  23.599  19.572  12.565
57702W        W21261  41.405  32.569  11.122
57703W        W21262  25.701  35.479   2.669
57704W        W21263   0.452  41.909  13.851
57705W        W21264  31.421  28.083   0.869
57706W        W21265  39.450  36.017  11.477
57707W        W21266  11.322   8.895  10.014
57708W        W21267  29.931  21.080  10.941
57709W        W21268  39.554   1.854  10.957
57710W        W21269  24.591  25.154   2.407
57711W        W21270  15.718  42.368  11.475
57712W        W21271  35.855  39.530   2.798
57713W        W21272  39.002   6.320  13.949
57714W        W21273  15.290  38.941  11.531
57715W        W21274  42.453   7.257   2.795
57716W        W21275  38.997  12.736  10.955
57717W        W21276   3.950   1.920  12.549
57718W        W21277   7.234  19.273  14.462
57719W        W21278  36.994  42.027   1.434
57720W        W21279  29.577  17.638   2.890
57721W        W21280  10.156  34.888   3.164
57722W        W21281   1.951  29.997  14.476
57723W        W21282   3.943   4.212   0.437
57724W        W21283  44.271  27.109  10.630
57725W        W21284  31.094  37.487   9.943
57726W        W21285  28.958  28.540   0.851
57727W        W21286  18.580   2.845  11.058
57728W        W21287  23.097  22.205  11.856
57729W        W21288  12.730   2.281   4.173
57730W        W21289   5.397  34.926  13.380
57731W        W21290  37.837  29.559  12.543
57732W        W21291  28.548  25.475  13.990
57733W        W21292  15.616  37.915   4.724
57734W        W21293  40.331   2.783  13.843
57735W        W21294   5.269  11.666   4.296
57736W        W21295  20.257  15.709  14.455
57737W        W21296  10.716  18.211   1.428
57738W        W21297   7.726  16.777  11.880
57739W        W21298   5.235  27.491  10.961
57740W        W21299  21.646  21.572   1.811
57741W        W21300  30.143  43.458   4.818
57742W        W21301   5.835  43.791  14.946
57743W        W21302  43.326  15.229  13.936
57744W        W21303  35.477  44.502   1.883
57745W        W21304   3.746  39.939   4.763
57746W        W21305  24.199  35.890  14.487
57747W        W21306  13.315  41.438   1.433
57748W        W21307  37.492  11.334   0.466
57749W        W21308   1.452  28.101  12.411
57750W        W21309  26.112  31.130  13.838
57751W        W21310  29.931   7.320  11.008
57752W        W21311   6.681  30.484   0.379
57753W        W21312   2.431  21.662   0.266
57754W        W21313  35.983   8.818   5.661
57755W        W21314   8.161  12.165   3.661
57756W        W21315   0.389  16.583   4.324
57757W        W21316   1.474  12.195   1.241
57758W        W21317   5.300  19.690  14.763
57759W        W21318   0.783   3.885   0.744
57760W        W21319  36.078  27.150  13.473
57761W        W21320  41.999  28.996  11.403
57762W        W21321  41.398  28.513  13.899
57763W        W21322  21.738  28.583   0.371
57764W        W21323  38.002   4.782   0.950
57765W        W21324  10.733  11.177  10.594
57766W        W21325  10.340  10.318   2.840
57767W        W21326  21.676   4.209   4.733
57768W        W21327   7.270  30.984  13.871
57769W        W21328  35.604  22.743  12.895
57770W        W21329  35.877  36.504  12.931
57771W        W21330  10.823  10.654  11.106
57772W        W21331  33.086  42.995  11.541
57773W        W21332   1.278  32.065   4.708
57774W        W21333   6.294   5.709  14.999
57775W        W21334  44.006  42.429   1.374
57776W        W21335   3.824  29.143   4.678
57777W        W21336   6.710  27.991   1.393
57778W        W21337   3.731  41.438   4.685
57779W        W21338   7.331  18.642   4.285
57780W        W21339  12.120  24.508   3.681
57781W        W21340  27.967  19.650  12.914
57782W        W21341   6.731   7.382  13.425
57783W        W21342  38.955  21.180   4.225
57784W        W21343   8.314  10.762  10.496
57785W        W21344  38.880   4.259  11.985
57786W        W21345  17.175  31.019   2.312
57787W        W21346  16.166  21.145  13.538
57788W        W21347  11.175  28.065  11.009
57789W        W21348  13.186  35.422  10.951
57790W        W21349   3.757  15.217   1.400
57791W        W21350  13.327   8.745  12.073
57792W        W21351  33.111  29.613   3.354
57793W        W21352  37.579   4.746  13.438
57794W        W21353  33.434  20.236  10.499
57795W        W21354  25.498  31.430   4.280
57796W        W21355  28.576   6.846  14.321
57797W        W21356  40.856   5.830  11.895
57798W        W21357  24.648   4.342  13.830
57799W        W21358  23.719  38.860   0.882
57800W        W21359  10.304  32.528  14.826
57801W        W21360   7.836  34.051  14.377
57802W        W21361  43.449  16.763   1.830
57803W        W21362  12.837  22.709   2.768
57804W        W21363  27.638  29.621   2.901
57805W        W21364  27.031  31.550  11.032
57806W        W21365   9.281  33.038   4.332
57807W        W21366   5.192  40.464   3.630
57808W        W21367  42.386  16.686   0.906
57809W        W21368  19.256  37.491  12.080
57810W        W21369   6.358  31.000  12.048
57811W        W21370  31.020  23.559   0.428
57812W        W21371  44.963  33.956  10.555
57813W        W21372  15.323   5.756   3.311
57814W        W21373  31.555   8.712   0.277
57815W        W21374  37.079  37.967  11.878
57816W        W21375  29.996  16.806  10.910
57817W        W21376  24.000  25.096   1.861
57818W        W21377  18.685   4.403  11.102
57819W        W21378  34.968  30.479   4.649
57820W        W21379   2.915  17.757   2.662
57821W        W21380  11.360  24.167   2.351
57822W        W21381  33.521   0.487   3.869
57823W        W21382  12.281  39.487   2.762
57824W        W21383  39.541  31.021   4.608
57825W        W21384  41.965  29.518  12.924
57826W        W21385  29.103   2.373  11.950
57827W        W21386   3.296   2.274   3.763
57828W        W21387   3.393  21.165  11.460
57829W        W21388  28.511  41.922   4.166
57830W        W21389  17.699  42.015   3.318
57831W        W21390  43.319  21.680   4.284
57832W        W21391  36.570  43.503   2.308
57833W        W21392  37.880  14.642   1.350
57834W        W21393  38.890  18.730  13.046
57835W        W21394  33.384  31.145   3.806
57836W        W21395  21.694  17.702  13.978
57837W        W21396  19.148  37.989   3.319
57838W        W21397  27.090   3.858  11.485
57839W        W21398  28.085   0.969  11.929
57840W        W21399  19.215  12.696  12.961
57841W        W21400  16.296  23.088  14.491
57842W        W21401   5.708  21.528   0.864
57843W        W21402  41.375  19.712   1.440
57844W        W21403  33.019  44.829   3.749
57845W        W21404   0.293  28.122   1.310
57846W        W21405  11.709  21.757   3.196
57847W        W21406  31.525  16.648  11.092
57848W        W21407  21.235  19.124   3.761
57849W        W21408  27.102   6.397  12.430
57850W        W21409  24.651  38.338   4.641
57851W        W21410   7.724  38.898   1.448
57852W        W21411  10.201  24.505  11.441
57853W        W21412   2.776  38.025   4.232
57854W        W21413   3.731  28.045  12.009
57855W        W21414   9.371   9.832  10.457
57856W        W21415  19.239  30.493   1.287
57857W        W21416  44.471  28.156   2.318
57858W        W21417  10.709  44.980   2.833
57859W        W21418   5.911  28.024  10.980
57860W        W21419  27.584  25.649  12.042
57861W        W21420  17.255  40.905   1.799
57862W        W21421  24.987  21.736   3.809
57863W        W21422  17.802  42.871   3.630
57864W        W21423  17.600   0.453   2.260
57865W        W21424   3.821  22.690  12.382
57866W        W21425  16.227   4.826   0.319
57867W        W21426  11.341  36.502  10.120
57868W        W21427  33.877  12.758   3.385
57869W        W21428  27.570  13.809   1.402
57870W        W21429   2.322  18.270   2.827
57871W        W21430  38.478  12.634  14.458
57872W        W21431  33.398  19.078   4.684
57873W        W21432  34.114  30.627   3.312
57874W        W21433  24.086  32.124  11.995
57875W        W21434  12.341  20.720   4.208
57876W        W21435  41.891   4.230   2.861
57877W        W21436  27.451  20.634  14.775
57878W        W21437  20.141  40.816  12.846
57879W        W21438  18.052  20.057   4.837
57880W        W21439  31.432   8.324  14.879
57881W        W21440  14.651   0.273   2.674
57882W        W21441  17.727  22.248   4.733
57883W        W21442  11.822  44.499  10.009
57884W        W21443   9.360  40.395  11.418
57885W        W21444  16.215  11.281  13.896
57886W        W21445  15.677  26.486  10.963
57887W        W21446  17.578  29.108   0.766
57888W        W21447  26.550  28.020   5.308
57889W        W21448  41.313   3.457   1.427
57890W        W21449  21.208  23.123  13.311
57891W        W21450  34.010  27.165   3.269
57892W        W21451  16.675  40.310  14.024
57893W        W21452   1.828  34.585  14.791
57894W        W21453  11.686   0.877  10.984
57895W        W21454  21.548  13.133  11.576
57896W        W21455  23.184   5.884  13.475
57897W        W21456  14.125  28.046  11.050
57898W        W21457  35.016  10.186   3.726
57899W        W21458   8.895  15.250  10.590
57900W        W21459  25.203  34.926  14.361
57901W        W21460   7.177  26.559   2.349
57902W        W21461  40.317  10.748  13.834
57903W        W21462  40.426  37.581   0.331
57904W        W21463  14.716  38.523   2.789
57905W        W21464   5.436  33.421   0.811
57906W        W21465   8.282   3.785  14.874
57907W        W21466  26.965   5.761   0.397
57908W        W21467  18.246  35.025   0.475
57909W        W21468  29.141   7.363   2.880
57910W        W21469  14.673   9.227  10.002
57911W        W21470  33.575   4.792   3.709
57912W        W21471   3.315  23.227  13.465
57913W        W21472  22.572   7.694  11.560
57914W        W21473  44.781  24.194   1.328
57915W        W21474  29.139  15.795  11.541
57916W        W21475  39.502  10.147  14.797
57917W        W21476  44.498  18.759   3.679
57918W        W21477  27.158  32.597  13.530
57919W        W21478  33.061  41.456  11.479
57920W        W21479  40.445  24.036   4.196
57921W        W21480  25.570  39.340  12.024
57922W        W21481  44.330  29.103  11.953
57923W        W21482  21.674  38.962  11.512
57924W        W21483  15.092   2.274   2.815
57925W        W21484  40.031  37.887   2.695
57926W        W21485  14.127  19.085  12.831
57927W        W21486  23.641  38.364   1.712
57928W        W21487   2.898   8.341   4.143
57929W        W21488  42.935  40.972   4.692
57930W        W21489  20.651   8.370   2.796
57931W        W21490  21.697  10.208   1.391
57932W        W21491  12.189  26.102   0.762
57933W        W21492   0.452  24.558  13.051
57934W        W21493  40.832  18.138   4.347
57935W        W21494  45.000   0.271   2.757
57936W        W21495   0.813  36.068  11.573
57937W        W21496  30.426   6.787  11.565
57938W        W21497  11.257  37.061  10.053
57939W        W21498   9.322   3.751   4.189
57940W        W21499  17.189  41.808  12.924
57941W        W21500  22.009   3.806   0.470
57942W        W21501  26.663  39.895  14.849
57943W        W21502  37.451  42.002   3.286
57944W        W21503  26.961  35.586   0.783
57945W        W21504  30.416  12.787   3.865
57946W        W21505   9.715   1.904   1.237
57947W        W21506  25.206  16.140   2.295
57948W        W21507  26.579   7.312   1.778
57949W        W21508  28.122  32.529   3.190
57950W        W21509  18.564  27.578   2.686
57951W        W21510  44.843  11.234   2.674
57952W        W21511  28.107  42.465   2.886
57953W        W21512  40.041  21.197   0.433
57954W        W21513  20.764  36.428  13.002
57955W        W21514  32.032  35.357  11.512
57956W        W21515   5.820  12.331   1.324
57957W        W21516  37.337  31.575   0.277
57958W        W21517   7.848   4.331   1.735
57959W        W21518   2.934  10.301  13.034
57960W        W21519  34.112  38.336  12.953
57961W        W21520  17.223   7.263  10.050
57962W        W21521  14.717  27.620  11.950
57963W        W21522  35.582  24.669  13.390
57964W        W21523  21.102  13.143  13.517
57965W        W21524  17.583  30.651   3.731
57966W        W21525  44.297  35.525  11.544
57967W        W21526  23.698  14.230  14.773
57968W        W21527  37.492  28.458  10.571
57969W        W21528  41.382  25.057   2.399
57970W        W21529  44.910  18.125  13.801
57971W        W21530   4.380  34.921  12.095
57972W        W21531  17.280   0.433  12.082
57973W        W21532  37.577   8.848  14.283
57974W        W21533  15.610  30.454  13.793
57975W        W21534   2.797  25.512  12.824
57976W        W21535  43.939  15.172  11.029
57977W        W21536   3.308  14.266   4.273
57978W        W21537   0.460  14.267   3.848
57979W        W21538   0.817  15.268   0.729
57980W        W21539  25.027  27.447   1.767
57981W        W21540  33.876   5.821  14.367
57982W        W21541  36.037   0.793   5.095
57983W        W21542   7.175  24.643   2.768
57984W        W21543  13.656  33.389  14.983
57985W        W21544  33.925  15.247  13.308
57986W        W21545  32.592  41.440   2.774
57987W        W21546   9.854  23.522  12.094
57988W        W21547  39.525  23.201  10.457
57989W        W21548  40.847  31.124   3.368
57990W        W21549  26.645  44.757   4.162
57991W        W21550  18.665  26.958   0.952
57992W        W21551   9.886  20.614   3.730
57993W        W21552  34.058  10.654  11.914
57994W        W21553  40.808  10.278   0.250
57995W        W21554  20.639  24.038  14.019
57996W        W21555  26.007   9.789   4.161
57997W        W21556   7.217   3.896  13.421
57998W        W21557  26.458   4.286   2.217
57999W        W21558  18.639  42.449  11.009
58000W        W21559   8.749  35.475   4.178
58001W        W21560  26.678   8.884   2.413
58002W        W21561  36.405  29.628  14.483
58003W        W21562  42.423  43.294  11.000
58004W        W21563   3.418  42.913   3.332
58005W        W21564  33.987  39.965  11.420
58006W        W21565  44.859  28.950  10.897
58007W        W21566  38.054  37.556   1.876
58008W        W21567  30.586  24.029   1.760
58009W        W21568  32.072  44.763  11.982
58010W        W21569   0.927  31.403   0.444
58011W        W21570   4.406  16.113  12.914
58012W        W21571  30.077  35.060  13.335
58013W        W21572  39.377  20.748  13.998
58014W        W21573   6.206  25.152  10.419
58015W        W21574  17.123  31.542   0.847
58016W        W21575   1.338  40.046   0.276
58017W        W21576   8.763  15.224   2.701
58018W        W21577  10.345  16.176  10.457
58019W        W21578  12.630  32.409   0.317
58020W        W21579  36.968  18.581   2.899
58021W        W21580  36.574  19.176  14.363
58022W        W21581  42.395  28.628   0.314
58023W        W21582  10.213  24.996   0.777
58024W        W21583  22.676  17.641   1.261
58025W        W21584  16.619  15.694  13.038
58026W        W21585   7.354  41.507  14.423
58027W        W21586  41.922  39.405  10.556
58028W        W21587  32.029  43.783  10.582
58029W        W21588   7.873  16.634   3.654
58030W        W21589  39.899  38.982  14.462
58031W        W21590  37.534   8.807   4.662
58032W        W21591  12.655  11.178   0.959
58033W        W21592  21.090  34.049   2.765
58034W        W21593  32.626   1.771  11.945
58035W        W21594  32.513  24.614  10.556
58036W        W21595  29.616  12.143  14.820
58037W        W21596  40.399  38.409   4.741
58038W        W21597  17.252  19.747   4.233
58039W        W21598   2.745  30.426  12.069
58040W        W21599  26.981  42.291  11.431
58041W        W21600  30.071  25.073  12.996
58042W        W21601  14.628  34.893  13.840
58043W        W21602  15.263  35.950   1.751
58044W        W21603   1.779  25.044   4.750
58045W        W21604  24.638  32.010  12.369
58046W        W21605  43.007  44.990  10.431
58047W        W21606  29.503  29.093  10.598
58048W        W21607  41.338   6.754  12.928
58049W        W21608  39.043  40.356  14.031
58050W        W21609  25.497   3.927  14.989
58051W        W21610   1.436   6.711   2.799
58052W        W21611  24.486  19.241  14.878
58053W        W21612  42.002  15.627   0.887
58054W        W21613  42.445  22.640   1.895
58055W        W21614  29.642  27.520   1.899
58056W        W21615  26.486  27.456   3.755
58057W        W21616  22.146   9.241  10.942
58058W        W21617  26.658  21.246   1.285
58059W        W21618  23.563  11.699   3.308
58060W        W21619  30.505  27.157   2.898
58061W        W21620  43.860   2.375  13.838
58062W        W21621  31.104   3.403  11.037
58063W        W21622  12.184  31.572   4.181
58064W        W21623  14.260  36.017   3.282
58065W        W21624  34.370  31.105   2.288
58066W        W21625  16.142  22.118  14.471
58067W        W21626  24.086   4.843  12.340
58068W        W21627   5.894  33.531  10.638
58069W        W21628   7.367  32.950   4.835
58070W        W21629  39.455  28.498  14.333
58071W        W21630  31.551   8.717  13.001
58072W        W21631  23.617  15.324   1.406
58073W        W21632   5.296  33.429   3.211
58074W        W21633  44.379   7.709   4.712
58075W        W21634  40.894  26.037   4.279
58076W        W21635  31.422  31.132  12.947
58077W        W21636   4.223  25.980   1.739
58078W        W21637  14.335  30.931  14.816
58079W        W21638  23.216  14.193  10.427
58080W        W21639   6.818   3.936  13.913
58081W        W21640  44.832  41.802  12.860
58082W        W21641   7.413  25.109   2.394
58083W        W21642  40.360   4.349  12.828
58084W        W21643  27.174  32.433   0.783
58085W        W21644  20.750  37.971   3.154
58086W        W21645  27.198   4.760  14.888
58087W        W21646  44.314  26.144   2.204
58088W        W21647  44.854   6.771   4.214
58089W        W21648  44.478  30.160  11.083
58090W        W21649  25.118  17.092   3.856
58091W        W21650  17.698  27.537   4.600
58092W        W21651  22.144  44.805  11.413
58093W        W21652  43.460  27.050   1.851
58094W        W21653   6.772  16.189  13.363
58095W        W21654  44.891  21.216   2.378
58096W        W21655  20.065  44.868   2.763
58097W        W21656  30.509  43.295   4.309
58098W        W21657   7.812  14.705  14.848
58099W        W21658   9.200  17.066   0.332
58100W        W21659  21.191  38.456   1.704
58101W        W21660   7.903  27.179   3.816
58102W        W21661  43.877   9.200   1.236
58103W        W21662   9.366   1.920   5.165
58104W        W21663  21.148  34.456  13.429
58105W        W21664  20.619   0.767  13.933
58106W        W21665  41.371   2.775   0.780
58107W        W21666   3.284  37.886  14.484
58108W        W21667  30.605  25.082   2.281
58109W        W21668   3.429  39.913   3.187
58110W        W21669   1.970  33.024  11.067
58111W        W21670  28.097  10.183   5.196
58112W        W21671  24.531   7.787  14.998
58113W        W21672  33.522  43.981  11.114
58114W        W21673   8.755  44.973   2.362
58115W        W21674  13.167  10.734   4.244
58116W        W21675  25.640  18.614  12.994
58117W        W21676  13.766  31.904   0.948
58118W        W21677  38.008  41.477  13.854
58119W        W21678   0.342  30.915  11.550
58120W        W21679   0.869  16.199   2.407
58121W        W21680   3.932   4.786  14.959
58122W        W21681   1.257  34.034  13.383
58123W        W21682   9.290  18.236  11.906
58124W        W21683   0.935  37.995  14.994
58125W        W21684  44.773  13.229  11.485
58126W        W21685  35.431  42.390   1.900
58127W        W21686   4.317   4.433  12.972
58128W        W21687  44.454   7.352   2.191
58129W        W21688  32.611  22.536   3.147
58130W        W21689  42.500  20.238   0.755
58131W        W21690  18.788  25.554   2.889
58132W        W21691   9.174  11.288   2.261
58133W        W21692   4.209  33.388   3.162
58134W        W21693  24.479  28.474   1.316
58135W        W21694  11.851   4.294  13.351
58136W        W21695   3.864  38.361  11.073
58137W        W21696  13.106  40.966   1.749
58138W        W21697  41.912   9.309  12.349
58139W        W21698  21.655  31.609   2.833
58140W        W21699  25.025   8.712   4.139
58141W        W21700   7.824  44.760  13.309
58142W        W21701  43.313  30.585  13.415
58143W        W21702  14.619  40.334  10.994
58144W        W21703   2.432   8.863  10.636
58145W        W21704  12.712  40.884  12.511
58146W        W21705  12.820  19.637   2.842
58147W        W21706  36.521  11.204   3.309
58148W        W21707   4.433  22.058   2.409
58149W        W21708  42.012   4.218  13.818
58150W        W21709  17.306  39.003   1.732
58151W        W21710   1.964  24.127   3.268
58152W        W21711  20.197  27.003  13.847
58153W        W21712  43.372   8.316   2.749
58154W        W21713  16.585  26.646  13.824
58155W        W21714  11.843  24.993  12.925
58156W        W21715  30.555   0.290   4.194
58157W        W21716  24.984  24.582   1.856
58158W        W21717  28.663  34.120   2.891
58159W        W21718  18.135  38.023   4.790
58160W        W21719  12.206  11.229   0.280
58161W        W21720  35.063  20.739   1.807
58162W        W21721  24.711  15.148   1.401
58163W        W21722  18.111   5.921  10.514
58164W        W21723   7.750  14.239  13.038
58165W        W21724  27.659  28.177  13.824
58166W        W21725  34.020  17.785  13.807
58167W        W21726   2.844  41.877  13.433
58168W        W21727  43.407  35.407   1.786
58169W        W21728  42.282  10.782   1.366
58170W        W21729  16.596   3.765   4.232
58171W        W21730  36.558   5.802   1.227
58172W        W21731  15.279  44.780  10.925
58173W        W21732   7.882  19.571  14.762
58174W        W21733   4.857  31.979   3.684
58175W        W21734  24.104  21.173   3.253
58176W        W21735   3.823   0.880  10.583
58177W        W21736  40.537  12.835   1.748
58178W        W21737  11.199  25.207  11.041
58179W        W21738  28.457  33.596  14.282
58180W        W21739  34.989  37.557  13.836
58181W        W21740   3.833  22.226  12.823
58182W        W21741  39.837   7.795   4.748
58183W        W21742   7.296  31.018  11.021
58184W        W21743  35.088  33.474  12.932
58185W        W21744  11.302  39.003   2.182
58186W        W21745  10.691  29.992   4.754
58187W        W21746  16.732  22.034  14.775
58188W        W21747  41.453  27.173   0.443
58189W        W21748   4.814  26.572  13.991
58190W        W21749  41.815  21.085   1.231
58191W        W21750  29.937  43.321   3.721
58192W        W21751  35.511  42.395  11.428
58193W        W21752  39.509  44.430  14.803
58194W        W21753  30.106  38.893   4.603
58195W        W21754  38.521  35.025  13.452
58196W        W21755  20.628  40.483  13.508
58197W        W21756  34.866  26.526   2.863
58198W        W21757  44.758   3.724   0.729
58199W        W21758   9.325   0.806   1.918
58200W        W21759  21.091  25.691   4.152
58201W        W21760  28.631  37.545   0.775
58202W        W21761  24.207  25.216  14.436
58203W        W21762  30.618   9.168   0.454
58204W        W21763  32.420  27.570  11.017
58205W        W21764  32.105   2.235   2.275
58206W        W21765   0.275  17.248  12.522
58207W        W21766  43.820  27.501  14.978
58208W        W21767   5.292   9.858   4.719
58209W        W21768   9.664   1.813  10.547
58210W        W21769   2.762  10.306   4.327
58211W        W21770  10.239  23.116  13.998
58212W        W21771  40.452  20.679  14.287
58213W        W21772  18.706  14.809   0.483
58214W        W21773  23.643  35.487  11.932
58215W        W21774  25.505  41.317   0.303
58216W        W21775  13.829  38.452  13.061
58217W        W21776  19.249  42.908   2.838
58218W        W21777  43.438   4.935  14.934
58219W        W21778  23.060  25.967   0.441
58220W        W21779  24.211   5.872   0.798
58221W        W21780  26.016  38.417  14.512
58222W        W21781  28.151  33.564  11.894
58223W        W21782   9.788  18.051   4.796
58224W        W21783  13.301  39.559  10.445
58225W        W21784  16.637  23.149   0.432
58226W        W21785  44.344  26.626  12.889
58227W        W21786  20.121  33.925  13.967
58228W        W21787  41.800   8.735   2.826
58229W        W21788   3.828  22.574   9.991
58230W        W21789   1.778  18.058   2.766
58231W        W21790  12.200   7.381   3.291
58232W        W21791  40.523  31.402   4.820
58233W        W21792  26.068  36.385  13.898
58234W        W21793  35.101   4.942   4.185
58235W        W21794  28.984  37.068   2.862
58236W        W21795  16.602   2.865  12.372
58237W        W21796  13.727  36.500   2.708
58238W        W21797  23.135   2.424  10.598
58239W        W21798  33.067  35.439  10.503
58240W        W21799  31.460  26.604  12.394
58241W        W21800  39.349   8.319  11.567
58242W        W21801  25.071  41.516  14.767
58243W        W21802  10.653  26.159  13.321
58244W        W21803  23.154  21.093  10.941
58245W        W21804  12.219   9.663   3.255
58246W        W21805  16.637  15.228  14.027
58247W        W21806  25.652   9.322   2.249
58248W        W21807  34.533  11.323  10.530
58249W        W21808  39.853  18.731  13.924
58250W        W21809  38.916  29.096  12.961
58251W        W21810   9.657  18.682   2.318
58252W        W21811  33.962   0.839  10.437
58253W        W21812   5.367  24.589  12.841
58254W        W21813  20.551  43.448   0.826
58255W        W21814  29.534  11.826  13.325
58256W        W21815  35.374   4.854  12.433
58257W        W21816   0.488  27.617  13.947
58258W        W21817  31.911  44.009   2.754
58259W        W21818  22.743  44.856   3.279
58260W        W21819  21.030   0.784   0.352
58261W        W21820  16.605  12.777  12.833
58262W        W21821   5.308   3.416   1.705
58263W        W21822  35.878  14.769  12.580
58264W        W21823  32.428  17.636   2.293
58265W        W21824  12.262  15.631  11.046
58266W        W21825  35.937  17.788  14.325
58267W        W21826   0.402   5.262   3.758
58268W        W21827  28.458  37.054   1.858
58269W        W21828  17.794  43.977  10.539
58270W        W21829  31.606   6.414  14.897
58271W        W21830  41.430  39.018  10.111
58272W        W21831   4.730   9.343  10.942
58273W        W21832  33.010   7.324   2.251
58274W        W21833  20.132  10.264  11.452
58275W        W21834  44.963  39.333  14.843
58276W        W21835  11.783   8.713   3.167
58277W        W21836  25.191  30.427   1.390
58278W        W21837  18.262  36.923   3.821
58279W        W21838  11.281  29.667   0.962
58280W        W21839  34.010  29.448  11.084
58281W        W21840  25.967  25.542   3.667
58282W        W21841  18.084  37.520   0.340
58283W        W21842  30.573  17.749  11.111
58284W        W21843  39.469  18.280  13.435
58285W        W21844  44.489   6.372   5.127
58286W        W21845  20.640  20.687  11.412
58287W        W21846  26.625  44.498   1.813
58288W        W21847  18.132  33.404  10.614
58289W        W21848   6.768  34.465  14.952
58290W        W21849  15.752   5.203  11.593
58291W        W21850   8.831  18.207   3.309
58292W        W21851  43.008   1.344  12.557
58293W        W21852   5.396  20.665  13.506
58294W        W21853  11.733  31.988  11.517
58295W        W21854  36.512  41.301   2.199
58296W        W21855  35.919  16.277   4.766
58297W        W21856  32.989  28.931   1.214
58298W        W21857  20.687  39.046  13.805
58299W        W21858  32.023  26.955   5.089
58300W        W21859   8.869  34.888  10.626
58301W        W21860  31.576  30.973  11.057
58302W        W21861  18.050  28.672   3.848
58303W        W21862   5.893   2.320  10.413
58304W        W21863  15.619  14.143  10.087
58305W        W21864  17.695   5.407   4.127
58306W        W21865  33.097  38.919  13.451
58307W        W21866  44.888  22.580   3.755
58308W        W21867  20.624  42.915  10.139
58309W        W21868  33.120  31.031   1.896
58310W        W21869  12.827  25.130  12.880
58311W        W21870   6.323  20.056   0.396
58312W        W21871  16.645  14.118  13.490
58313W        W21872  43.345  30.950   3.374
58314W        W21873  12.737  40.000   2.289
58315W        W21874  39.052  11.768   2.319
58316W        W21875  27.669  13.709  13.994
58317W        W21876  36.510  16.596  14.996
58318W        W21877  29.552  40.331  11.473
58319W        W21878  16.760  39.995   3.176
58320W        W21879  15.208  10.247  14.357
58321W        W21880  20.089  37.442   2.278
58322W        W21881  38.887  30.586   0.896
58323W        W21882  19.150   9.855   4.826
58324W        W21883   0.321  28.674  13.800
58325W        W21884  17.297  33.391   0.444
58326W        W21885  17.156  17.159  12.525
58327W        W21886  10.754  25.167  10.490
58328W        W21887   6.687  31.609  14.011
58329W        W21888  40.309  39.512  13.531
58330W        W21889  22.551  42.843   1.699
58331W        W21890   7.780  18.714  14.818
58332W        W21891  24.645   8.192  10.533
58333W        W21892  15.179  27.023   2.316
58334W        W21893  24.125  31.926   2.402
58335W        W21894   6.287  14.645   0.334
58336W        W21895  26.671  31.559  14.969
58337W        W21896   7.354  35.100   1.857
58338W        W21897  34.896  25.966   2.366
58339W        W21898  23.985  25.552  14.857
58340W        W21899  43.303  26.022  10.543
58341W        W21900   7.719  28.146   4.271
58342W        W21901  19.185  40.014  14.971
58343W        W21902  22.611  43.805  14.874
58344W        W21903  28.966  18.740  12.493
58345W        W21904  37.966  16.748   0.360
58346W        W21905   8.663  37.083  10.643
58347W        W21906  41.885  32.481   0.389
58348W        W21907  30.130  35.948  10.558
58349W        W21908  23.099   9.772  13.035
58350W        W21909  10.669  43.347   3.861
58351W        W21910  15.646  15.326   0.292
58352W        W21911  11.732  38.333   2.338
58353W        W21912  16.593   0.780  14.485
58354W        W21913  33.404  22.193   2.762
58355W        W21914   2.398  23.683   1.899
58356W        W21915  34.965  40.015  11.432
58357W        W21916  24.582  39.455  11.464
58358W        W21917  28.987  16.738   4.671
58359W        W21918  25.591  34.938  13.855
58360W        W21919   1.771  21.612   4.292
58361W        W21920  44.305   4.923   5.156
58362W        W21921  29.650  31.933  13.819
58363W        W21922  11.360  37.907   1.712
58364W        W21923   2.947   3.808  11.446
58365W        W21924  33.551  24.179  11.876
58366W        W21925   6.763  25.634   2.323
58367W        W21926   0.914  34.509   4.617
58368W        W21927  30.639  10.314  12.382
58369W        W21928   4.300   6.760   3.221
58370W        W21929  26.095  42.942   4.255
58371W        W21930  12.703  37.836   0.327
58372W        W21931  11.679  27.955   0.243
58373W        W21932  31.616  24.068   1.251
58374W        W21933   0.403  37.463  14.496
58375W        W21934  21.538  41.296   0.389
58376W        W21935  17.305  21.117  12.548
58377W        W21936  10.812  23.207   1.370
58378W        W21937  37.503  37.565  12.982
58379W        W21938  36.403  27.627  13.817
58380W        W21939  32.533  27.034  10.503
58381W        W21940  11.761   2.359   4.812
58382W        W21941  13.646  33.881   5.216
58383W        W21942   5.851   0.851   1.445
58384W        W21943  41.936  26.063  10.620
58385W        W21944  42.464  27.945   1.242
58386W        W21945  33.492  41.004   3.835
58387W        W21946  13.138  39.525   3.163
58388W        W21947   9.764  37.564  12.895
58389W        W21948  15.601   6.212   4.613
58390W        W21949   9.652  36.005  14.025
58391W        W21950  32.027  34.908   3.651
58392W        W21951  10.240  16.125  14.960
58393W        W21952   0.284  39.513   3.327
58394W        W21953  19.178  40.054   2.339
58395W        W21954  11.650   4.781  12.027
58396W        W21955  44.938  19.134  14.400
58397W        W21956   6.374  25.138  12.438
58398W        W21957  38.982   5.286   2.843
58399W        W21958   3.790   4.784   3.305
58400W        W21959  42.868  34.583  12.964
58401W        W21960   0.754  29.143   0.463
58402W        W21961  35.880  26.690  13.430
58403W        W21962  24.048  34.896   1.274
58404W        W21963  31.904  23.022   2.213
58405W        W21964  37.033  24.721  10.470
58406W        W21965   8.305  32.506   4.269
58407W        W21966   8.266   8.669  14.321
58408W        W21967  31.940   0.752  11.002
58409W        W21968   1.328  36.036  10.951
58410W        W21969  13.255  13.829  10.443
58411W        W21970  19.695  24.651   2.896
58412W        W21971  11.243   6.803   9.516
58413W        W21972  20.767  21.121  12.902
58414W        W21973   3.897   7.350   3.156
58415W        W21974   2.961  12.735   3.276
58416W        W21975  34.999  40.972   1.856
58417W        W21976  38.861  26.078  11.093
58418W        W21977  30.962  39.007   1.221
58419W        W21978  36.022  41.375  10.557
58420W        W21979  23.586   4.338   4.622
58421W        W21980  38.464  21.024   2.775
58422W        W21981  40.544  14.137   0.874
58423W        W21982  24.050   3.794  14.364
58424W        W21983  28.460  38.862  10.622
58425W        W21984  37.454  20.238  11.896
58426W        W21985  19.084  30.453  14.415
58427W        W21986  36.095   5.361  10.960
58428W        W21987  13.106  24.135  13.876
58429W        W21988   9.342  19.602   2.346
58430W        W21989  17.266  43.944  13.833
58431W        W21990   3.801  43.867   2.417
58432W        W21991  11.361   4.878   2.414
58433W        W21992  31.480   0.960   3.246
58434W        W21993  24.146   2.446  11.083
58435W        W21994  15.637   8.224  13.410
58436W        W21995  34.576  42.980   0.395
58437W        W21996  34.394  26.601   0.959
58438W        W21997  35.895  10.666  10.409
58439W        W21998  39.539  37.955  13.881
58440W        W21999  43.293  42.025   0.785
58441W        W22000  26.661  33.887   1.815
58442W        W22001  22.180   7.185   1.437
58443W        W22002  11.820  34.087   0.732
58444W        W22003  25.128  33.414  13.488
58445W        W22004  18.784  22.687  13.859
58446W        W22005  11.290   0.293  10.628
58447W        W22006   8.664  29.669   2.835
58448W        W22007  38.999  39.448   3.685
58449W        W22008  11.232  29.659   1.915
58450W        W22009  29.514  27.084  10.580
58451W        W22010  36.079  15.792   0.813
58452W        W22011  38.431  35.453   0.791
58453W        W22012   4.901  16.723  13.341
58454W        W22013   7.223  25.169   4.318
58455W        W22014  43.915   0.466   0.821
58456W        W22015   6.797   6.222   0.747
58457W        W22016  43.787  10.307   0.404
58458W        W22017  38.992   1.260  12.925
58459W        W22018  24.721  13.786   4.804
58460W        W22019  16.647  44.971  14.795
58461W        W22020   3.423  29.520  13.466
58462W        W22021  25.545  11.171  12.545
58463W        W22022  11.161  14.600   4.261
58464W        W22023  15.106   2.786   2.179
58465W        W22024  36.512  17.164   2.198
58466W        W22025   9.270  29.982  13.850
58467W        W22026  11.688  25.212   2.877
58468W        W22027  34.463  34.905  11.862
58469W        W22028  31.149  44.909   1.429
58470W        W22029  27.556  17.293  14.809
58471W        W22030   2.411   5.247  10.533
58472W        W22031  19.615  39.386   2.289
58473W        W22032  14.811  24.006   1.402
58474W        W22033  13.186  36.961   0.885
58475W        W22034  22.250  13.133   0.796
58476W        W22035  32.001  42.877   2.721
58477W        W22036  19.651  34.524   1.428
58478W        W22037  25.140  29.129  14.895
58479W        W22038   0.877   8.654  11.486
58480W        W22039  40.525  29.613   4.129
58481W        W22040  24.123  43.491  11.475
58482W        W22041  34.024   4.920  14.783
58483W        W22042   6.357  26.196   1.827
58484W        W22043  11.130  41.982  14.964
58485W        W22044  29.668  32.537   0.831
58486W        W22045  28.962  20.763   2.268
58487W        W22046  16.810  41.944  11.941
58488W        W22047  38.998  42.492  13.374
58489W        W22048  37.461  12.835  11.415
58490W        W22049  11.730  18.273   1.255
58491W        W22050  42.291  13.771   4.241
58492W        W22051   8.278  30.616   2.213
58493W        W22052   8.182  39.952  14.404
58494W        W22053  38.550  16.112   0.425
58495W        W22054  41.376  30.940  11.439
58496W        W22055  19.088   7.872   1.232
58497W        W22056  28.020  12.801  14.469
58498W        W22057  37.485   8.789  10.481
58499W        W22058  36.898  41.877   2.399
58500W        W22059  15.084  43.871   3.716
58501W        W22060  34.390   5.804  12.439
58502W        W22061  22.598  36.847   2.747
58503W        W22062  40.910  24.132  11.403
58504W        W22063  28.930  12.715  14.462
58505W        W22064  44.753   3.214  13.044
58506W        W22065  18.060  41.925  12.518
58507W        W22066  38.957  42.791   2.346
58508W        W22067  23.174  21.558   0.482
58509W        W22068   2.399  44.009   1.274
58510W        W22069  37.416   7.205   4.771
58511W        W22070  42.020  30.613   3.704
58512W        W22071  33.392   0.391   4.120
58513W        W22072  30.949  13.765  13.395
58514W        W22073   3.341  35.367  13.946
58515W        W22074   3.336  25.636   2.376
58516W        W22075  39.377  16.117   2.872
58517W        W22076  23.660  33.505   1.815
58518W        W22077  44.354  21.737   4.271
58519W        W22078  14.655   5.838   2.852
58520W        W22079  37.432  41.323  13.328
58521W        W22080  29.111  12.142  14.904
58522W        W22081  20.205  21.177   3.303
58523W        W22082  12.255  27.071  11.874
58524W        W22083  30.610  28.591   4.113
58525W        W22084   6.237  39.383  10.422
58526W        W22085  30.093   3.716   4.261
58527W        W22086  15.753  33.021   3.282
58528W        W22087  11.850   9.667   1.742
58529W        W22088  35.893  36.376  10.592
58530W        W22089   4.735  40.972   3.206
58531W        W22090  26.134  14.693   4.742
58532W        W22091  19.644  15.310  10.962
58533W        W22092  41.021  33.896  13.800
58534W        W22093   4.755  11.240   1.747
58535W        W22094  12.284  33.089  11.389
58536W        W22095   4.226   5.417  12.989
58537W        W22096  37.577  40.844  11.874
58538W        W22097   6.361  31.076  11.473
58539W        W22098  40.470   2.828   1.356
58540W        W22099  36.447  18.678   1.820
58541W        W22100   0.777  17.648   3.249
58542W        W22101  14.807  43.362  14.325
58543W        W22102   2.804  19.259   2.665
58544W        W22103   2.321  23.004   0.467
58545W        W22104  42.377  40.845  13.971
58546W        W22105  31.527  22.185  13.322
58547W        W22106  18.669  35.949   2.673
58548W        W22107  23.214  35.600  14.484
58549W        W22108  33.907  29.921  11.456
58550W        W22109  36.436  40.980  12.067
58551W        W22110  30.626  38.951  12.416
58552W        W22111  29.460   0.846   3.374
58553W        W22112  11.313  32.541  10.104
58554W        W22113  31.910   1.434   1.398
58555W        W22114   7.908  24.105   0.424
58556W        W22115  23.734   5.838   2.412
58557W        W22116  16.684  22.224  11.605
58558W        W22117   2.877  37.959   2.371
58559W        W22118  44.929   0.944   0.815
58560W        W22119  17.658   0.467  10.640
58561W        W22120  17.693  38.510  14.812
58562W        W22121  33.879   7.328   4.632
58563W        W22122  28.116  22.134   1.852
58564W        W22123  33.553  14.188   3.227
58565W        W22124  44.284   8.196   1.825
58566W        W22125  17.730  39.879   1.330
58567W        W22126  27.627  30.047  13.873
58568W        W22127  36.968  39.856  11.008
58569W        W22128  21.574  25.056  12.022
58570W        W22129  11.324   1.320   2.868
58571W        W22130  27.087  17.635   1.728
58572W        W22131  29.584  37.425  11.880
58573W        W22132  15.154  15.816   4.598
58574W        W22133  42.928  23.559  11.861
58575W        W22134   6.268  10.736  11.067
58576W        W22135   6.911  37.907   0.321
58577W        W22136  41.395  29.112   3.641
58578W        W22137  15.813  31.014  12.572
58579W        W22138  25.046  27.627   4.285
58580W        W22139  43.880  36.041  14.514
58581W        W22140  19.219  33.022  14.513
58582W        W22141  31.585  19.154   1.239
58583W        W22142  36.505  23.146  13.404
58584W        W22143   9.729  41.489   3.782
58585W        W22144  21.707   4.760   0.727
58586W        W22145  38.838  30.594   9.956
58587W        W22146   1.365   8.161   3.148
58588W        W22147  15.761  23.187   1.861
58589W        W22148  44.373   8.766  12.569
58590W        W22149  18.099  36.098  10.634
58591W        W22150   7.697   4.886  13.487
58592W        W22151   1.799   1.777   3.355
58593W        W22152  39.919  26.079  13.526
58594W        W22153  24.037  24.508   0.302
58595W        W22154  37.052   9.742   5.135
58596W        W22155  40.917   0.460   0.382
58597W        W22156  19.647  37.557   0.352
58598W        W22157   3.876  39.927   1.224
58599W        W22158   8.755  27.690   2.775
58600W        W22159  11.364   6.693   3.822
58601W        W22160  24.212  34.573  14.910
58602W        W22161  13.269  41.795   3.286
58603W        W22162   9.297   8.663  14.868
58604W        W22163  16.159   3.312   4.343
58605W        W22164  18.192   0.309   0.331
58606W        W22165   0.294  24.075   3.220
58607W        W22166  21.094  13.130   4.214
58608W        W22167  15.720  20.528  12.887
58609W        W22168  22.125  25.212   0.436
58610W        W22169  21.517  25.643  14.896
58611W        W22170   8.281  32.097  10.432
58612W        W22171  41.961  34.020  10.904
58613W        W22172   9.169  40.953  11.380
58614W        W22173  24.197  37.007   1.374
58615W        W22174  20.527  40.889  10.994
58616W        W22175  17.666  40.824   4.690
58617W        W22176  24.557  22.056   0.872
58618W        W22177  10.336  43.331  12.498
58619W        W22178  40.374  17.752   0.480
58620W        W22179  14.264   6.735  11.020
58621W        W22180  12.200  22.250  14.346
58622W        W22181   1.325  34.012   1.933
58623W        W22182   5.345   8.746  12.838
58624W        W22183   5.194  44.973  12.894
58625W        W22184  24.090   8.712   1.226
58626W        W22185  43.456  41.354   4.736
58627W        W22186  31.014   8.276   2.240
58628W        W22187  36.518   3.338   5.269
58629W        W22188  19.575   4.265  11.011
58630W        W22189   8.354  15.092  12.960
58631W        W22190  34.451   9.356  10.991
58632W        W22191  11.821  31.020   4.141
58633W        W22192   0.880  26.049  11.928
58634W        W22193  11.665  28.500   4.639
58635W        W22194  27.146   6.754  10.609
58636W        W22195  26.703   0.816  11.897
58637W        W22196  19.147  29.517  12.351
58638W        W22197   6.346   7.707   2.210
58639W        W22198  34.570   1.415  13.914
58640W        W22199  39.456  22.575   1.736
58641W        W22200  24.612  10.724  11.922
58642W        W22201   5.300  34.007   1.814
58643W        W22202   1.744  33.396   2.249
58644W        W22203  32.919  15.196  13.967
58645W        W22204  27.665  28.126   1.448
58646W        W22205  41.522  13.270  12.504
58647W        W22206  20.228  14.251   2.788
58648W        W22207  27.123   0.926   2.762
58649W        W22208  36.877  39.325  10.889
58650W        W22209  24.569  11.810  11.435
58651W        W22210  16.749   0.441   4.173
58652W        W22211  31.101  27.463  11.506
58653W        W22212  11.358  31.918   2.835
58654W        W22213  10.267  33.495   4.829
58655W        W22214  40.861  13.702  14.352
58656W        W22215  32.554  27.594  12.887
58657W        W22216  42.928  32.961  14.352
58658W        W22217   7.730  43.507  13.319
58659W        W22218   3.437   2.372   4.122
58660W        W22219  15.813  14.606   0.770
58661W        W22220  13.190  30.046   4.308
58662W        W22221  42.964  22.214  12.501
58663W        W22222  43.429  20.116   1.881
58664W        W22223   7.180  20.121  14.809
58665W        W22224  33.892   7.810   5.775
58666W        W22225  22.561  36.523  13.461
58667W        W22226  40.332   0.854  12.562
58668W        W22227   2.806  11.816  12.511
58669W        W22228   5.840  10.829  13.513
58670W        W22229  15.136  15.137   2.780
58671W        W22230  24.220  19.577  12.906
58672W        W22231   2.470  33.464   3.779
58673W        W22232  28.539  40.400   0.964
58674W        W22233  36.373   1.756   4.663
58675W        W22234  22.040  15.270   0.745
58676W        W22235   2.324  10.743   0.950
58677W        W22236  26.687  30.454  14.790
58678W        W22237   3.445  40.353   5.089
58679W        W22238  15.269  37.337  13.866
58680W        W22239  37.896  18.104   3.356
58681W        W22240  23.000  22.561   0.966
58682W        W22241  18.237  39.510  13.447
58683W        W22242  25.490   5.719   3.818
58684W        W22243  34.457  27.972  10.431
58685W        W22244  13.637  22.071   3.686
58686W        W22245   5.763  21.194  10.119
58687W        W22246  26.092  18.633   4.706
58688W        W22247  27.581  41.463   3.185
58689W        W22248  33.002  44.457  14.379
58690W        W22249   3.273  35.561   1.291
58691W        W22250   5.318  17.170  13.892
58692W        W22251  22.060  11.233  13.309
58693W        W22252  19.724  41.406   3.241
58694W        W22253   0.814  35.886   0.932
58695W        W22254  30.060  18.146   1.279
58696W        W22255  13.130   0.960  12.344
58697W        W22256  17.637  25.023  14.347
58698W        W22257  14.261  19.754   2.388
58699W        W22258  25.166   8.232  12.355
58700W        W22259   0.280  38.951  12.074
58701W        W22260  21.729   7.291   4.155
58702W        W22261  13.612  37.843  12.031
58703W        W22262  42.483  30.443  10.529
58704W        W22263  33.586  38.900  11.580
58705W        W22264  44.445   3.754  13.824
58706W        W22265   8.801  26.555  10.534
58707W        W22266  23.097  39.002  13.867
58708W        W22267  20.100  14.171  13.920
58709W        W22268   5.779  27.678  14.515
58710W        W22269  39.010  37.348   3.287
58711W        W22270  25.997  14.829  13.531
58712W        W22271  37.486  23.595   9.991
58713W        W22272   0.336  35.911   1.414
58714W        W22273  29.037   2.874   1.836
58715W        W22274  41.844  11.648  10.007
58716W        W22275   3.916  22.562  11.123
58717W        W22276  32.026   6.193  12.047
58718W        W22277   5.718  14.677   0.907
58719W        W22278  27.680  16.176   0.437
58720W        W22279   2.345  29.924   0.843
58721W        W22280  18.598  34.406  10.451
58722W        W22281  34.118  37.905  13.016
58723W        W22282  23.636  34.571  13.818
58724W        W22283   1.814  12.141   2.681
58725W        W22284  12.856  10.666  10.424
58726W        W22285  25.512   0.345   5.277
58727W        W22286   5.914  26.497  10.453
58728W        W22287  33.545  42.879  11.106
58729W        W22288  14.803  20.245  11.951
58730W        W22289  43.418  32.547   2.698
58731W        W22290  23.195  18.716  10.519
58732W        W22291  34.513  32.464   5.261
58733W        W22292  32.090  19.542   3.305
58734W        W22293   8.821  26.624  11.540
58735W        W22294   0.791  21.635   0.390
58736W        W22295  17.713  33.906   4.241
58737W        W22296  13.192  33.405  14.865
58738W        W22297  41.021  28.147  11.116
58739W        W22298  42.495  20.209  10.894
58740W        W22299  44.997  32.994   1.823
58741W        W22300  33.577  35.399   1.270
58742W        W22301   3.347  44.760  12.382
58743W        W22302   8.790   3.885   1.218
58744W        W22303  27.954  29.449  14.856
58745W        W22304   1.772  16.088  12.492
58746W        W22305  19.204  14.761  13.996
58747W        W22306   2.350  15.719   4.126
58748W        W22307   7.381  37.051   2.276
58749W        W22308   2.430  22.568  12.937
58750W        W22309  32.599   5.785   3.267
58751W        W22310  35.461   0.272   3.173
58752W        W22311   8.860  25.618   0.812
58753W        W22312  22.608  17.269   3.798
58754W        W22313  43.498   5.869  14.967
58755W        W22314  43.985  22.658  10.935
58756W        W22315   5.721  42.300  13.371
58757W        W22316  44.494  41.392   0.789
58758W        W22317   8.335  44.477  12.043
58759W        W22318  16.602  33.437   0.329
58760W        W22319  26.496  28.065   4.188
58761W        W22320  16.112  30.934   0.869
58762W        W22321   8.346  44.892   2.282
58763W        W22322  33.616   4.791  14.280
58764W        W22323  18.076  30.652   0.287
58765W        W22324  18.195  26.656   1.219
58766W        W22325  25.674  22.106  14.468
58767W        W22326  21.682  18.230   4.720
58768W        W22327  33.053  23.051   1.875
58769W        W22328  39.377   0.864  10.992
58770W        W22329  40.533  28.531  12.875
58771W        W22330  37.538  43.005  10.529
58772W        W22331  25.588  27.111  12.835
58773W        W22332  19.185  40.810  14.478
58774W        W22333  24.113  10.335   4.228
58775W        W22334  44.487   6.259   4.119
58776W        W22335   0.763  29.095  13.926
58777W        W22336  14.719  36.959   4.643
58778W        W22337  15.318  23.604   3.816
58779W        W22338   6.405  12.813  10.606
58780W        W22339   8.361   0.773  14.309
58781W        W22340  29.534  33.946  12.502
58782W        W22341  39.548   5.689  14.778
58783W        W22342   4.791  42.802  11.014
58784W        W22343   1.274  32.583   0.364
58785W        W22344   0.292  28.042   0.852
58786W        W22345  10.276  32.891  12.448
58787W        W22346  26.992   3.401   4.735
58788W        W22347  28.538  31.032   1.858
58789W        W22348  11.263   3.341   2.342
58790W        W22349  34.050  12.686  11.584
58791W        W22350  44.800  17.129  11.418
58792W        W22351  15.329  29.496  12.552
58793W        W22352  42.310  30.918  11.463
58794W        W22353  16.649  43.855  10.535
58795W        W22354  25.034   2.336   2.395
58796W        W22355  21.745  35.510  11.484
58797W        W22356  33.110   6.306  13.388
58798W        W22357  15.680   3.323  13.394
58799W        W22358  40.874  17.581  14.346
58800W        W22359  16.638   6.729   0.914
58801W        W22360  11.698   4.377   4.641
58802W        W22361   8.846   3.925  13.828
58803W        W22362  37.540   1.920   2.760
58804W        W22363  39.458  42.433   3.293
58805W        W22364  10.796  33.485  13.957
58806W        W22365  23.118  35.419   4.821
58807W        W22366  27.967  34.543  13.970
58808W        W22367  12.774  15.161  13.932
58809W        W22368  27.116   1.247   2.340
58810W        W22369  17.066   3.834  14.008
58811W        W22370  17.636  18.646   3.840
58812W        W22371  44.980   0.377  12.447
58813W        W22372  39.531  32.121   5.277
58814W        W22373  32.438  25.209   3.337
58815W        W22374  15.631   3.305   3.259
58816W        W22375  24.595  15.208   2.752
58817W        W22376  33.538  37.422   0.926
58818W        W22377  20.637  34.417  12.375
58819W        W22378  18.735  26.658  10.527
58820W        W22379  35.971  19.132   4.139
58821W        W22380  28.061   2.423  10.889
58822W        W22381  16.792  33.044  10.524
58823W        W22382  19.624  20.157   0.292
58824W        W22383   0.796  44.894   1.338
58825W        W22384   2.278   5.805  12.854
58826W        W22385  43.887  22.604  11.933
58827W        W22386   6.335   0.257   9.994
58828W        W22387   8.369  11.727  13.863
58829W        W22388  27.071  20.119  10.548
58830W        W22389  44.314   1.283  11.905
58831W        W22390   7.876  39.496  14.992
58832W        W22391   1.248  25.041   2.792
58833W        W22392  19.556  30.476   0.963
58834W        W22393  32.042  33.978  11.072
58835W        W22394  22.112  39.982   3.704
58836W        W22395   8.168   2.415   1.292
58837W        W22396  11.195   9.394   2.321
58838W        W22397  31.497   2.786  11.963
58839W        W22398  39.316  40.437   1.733
58840W        W22399  36.993  26.696   4.654
58841W        W22400  22.510  21.686   4.333
58842W        W22401  13.786  43.837   1.364
58843W        W22402  32.460  40.798   3.852
58844W        W22403  34.368  18.244  13.061
58845W        W22404   7.841   1.455   4.335
58846W        W22405  19.674  26.961  10.583
58847W        W22406   0.967  16.194  10.924
58848W        W22407   8.336  43.394   1.251
58849W        W22408  23.624  31.565  14.426
58850W        W22409  15.304   4.753  13.488
58851W        W22410  15.612  29.049   1.445
58852W        W22411  19.230  14.815  12.972
58853W        W22412  10.879  22.133   2.729
58854W        W22413   2.234  13.629   2.231
58855W        W22414  14.236  11.361   1.814
58856W        W22415  43.351   4.877   1.305
58857W        W22416  30.997   6.234   1.766
58858W        W22417  30.986  37.530  12.884
58859W        W22418  17.564  17.644  12.975
58860W        W22419  27.074  16.796   1.890
58861W        W22420  33.541  21.517   1.362
58862W        W22421  11.731  36.903   0.264
58863W        W22422  21.161   5.198  13.893
58864W        W22423  19.264  35.917  10.557
58865W        W22424  44.961  26.466  12.531
58866W        W22425  41.952  28.530  13.960
58867W        W22426  20.193  15.289   2.413
58868W        W22427   8.655  20.714  14.875
58869W        W22428   3.326   8.197  13.497
58870W        W22429  27.173   8.754   5.258
58871W        W22430  44.277   1.889  10.643
58872W        W22431  28.984   8.692  14.842
58873W        W22432   2.401  42.904   3.157
58874W        W22433  41.336   0.449   0.345
58875W        W22434  40.358   0.308  13.969
58876W        W22435   3.428   7.376   3.792
58877W        W22436  25.123  38.882  11.868
58878W        W22437  33.087  39.466  13.859
58879W        W22438   2.948  10.267   9.935
58880W        W22439  25.713  35.030  12.369
58881W        W22440  18.717  23.069  11.884
58882W        W22441  40.497   9.272  10.563
58883W        W22442  24.502  26.478   1.704
58884W        W22443  39.534  12.216  13.335
58885W        W22444  29.549   2.415   4.228
58886W        W22445   4.206  39.493  13.024
58887W        W22446  31.572  40.430   4.612
58888W        W22447  25.682  42.877  10.894
58889W        W22448   9.372   5.698  13.931
58890W        W22449   8.857   8.384  10.505
58891W        W22450  30.530  43.858  12.014
58892W        W22451   9.778  34.046   2.207
58893W        W22452  24.627  40.948   1.430
58894W        W22453  44.767  22.637   1.900
58895W        W22454  16.205  32.972  12.870
58896W        W22455   4.872  44.783  13.505
58897W        W22456   8.853  27.590   1.333
58898W        W22457  18.251  35.917   1.364
58899W        W22458  43.963  25.165  13.030
58900W        W22459  36.916  17.796  14.410
58901W        W22460  31.907  38.417  13.356
58902W        W22461  18.169  14.594   1.755
58903W        W22462  43.380  39.407   1.862
58904W        W22463   0.901  43.388  14.798
58905W        W22464  44.427  36.085   3.705
58906W        W22465  40.338  17.221   0.353
58907W        W22466   8.820  44.757   0.400
58908W        W22467  41.453  40.547  11.496
58909W        W22468  24.660  33.476   0.825
58910W        W22469  18.788  11.795   2.765
58911W        W22470  22.135   8.179  14.791
58912W        W22471   0.742  24.223  11.481
58913W        W22472  37.996  24.483   3.222
58914W        W22473  24.628   9.841  14.397
58915W        W22474   8.359  10.349   1.915
58916W        W22475  26.699  44.911   3.758
58917W        W22476  42.311   6.712  14.361
58918W        W22477  15.592  19.185   0.447
58919W        W22478  40.527  41.911   0.835
58920W        W22479  42.511   6.724   0.858
58921W        W22480   5.863  21.758  13.047
58922W        W22481   7.742  14.099   1.754
58923W        W22482  17.691  14.241  14.319
58924W        W22483  20.758  38.050  13.381
58925W        W22484  39.863   8.723  11.522
58926W        W22485   2.896  32.406   3.263
58927W        W22486  41.801  11.227  11.551
58928W        W22487   2.870   2.381  14.992
58929W        W22488   6.351  26.608   4.785
58930W        W22489  39.371  41.421   4.607
58931W        W22490  31.539  42.432  14.509
58932W        W22491  10.856  39.824  14.923
58933W        W22492  14.696  28.598  11.930
58934W        W22493  15.802  37.550  13.002
58935W        W22494  12.144  30.441   4.155
58936W        W22495  33.120  41.872   5.295
58937W        W22496   1.399  10.250  13.931
58938W        W22497   6.863   3.939  14.463
58939W        W22498  32.068  16.668   4.624
58940W        W22499  40.368  19.158   0.310
58941W        W22500  29.483  34.549   3.715
58942W        W22501  37.912  34.865  11.873
58943W        W22502   9.324  16.246   1.934
58944W        W22503  38.381  43.404  12.408
58945W        W22504   9.361  28.977   2.307
58946W        W22505   3.287  12.735   0.465
58947W        W22506   4.756  19.758  14.417
58948W        W22507  38.049  27.565  12.040
58949W        W22508  34.920  30.935  10.520
58950W        W22509   0.422  16.181  11.515
58951W        W22510  15.587  34.553  14.865
58952W        W22511   1.300   2.442   3.731
58953W        W22512  44.261  14.312   3.201
58954W        W22513  12.265  19.217  10.513
58955W        W22514  24.977  44.384   2.730
58956W        W22515  19.234   5.763  13.867
58957W        W22516  35.058   0.983  13.489
58958W        W22517  32.981  22.731   2.877
58959W        W22518  28.557  23.170  12.879
58960W        W22519   1.736  31.135  10.445
58961W        W22520  12.254   0.984  10.439
58962W        W22521   7.676   5.870   2.324
58963W        W22522  25.096   4.322   3.199
58964W        W22523  25.164  18.707   0.415
58965W        W22524  21.679   6.290  13.890
58966W        W22525  21.599  16.644  14.989
58967W        W22526  26.150  32.048  12.825
58968W        W22527  32.637  11.371  11.525
58969W        W22528  18.254  21.652   1.446
58970W        W22529   8.315   0.913  10.990
58971W        W22530  16.154  40.437   2.241
58972W        W22531  25.649  22.174   0.399
58973W        W22532  16.673  42.832  14.762
58974W        W22533   0.255  28.015   4.173
58975W        W22534  19.268  30.601   3.681
58976W        W22535   4.786  34.101  12.527
58977W        W22536  31.010  13.147  12.836
58978W        W22537  23.025  35.385  11.548
58979W        W22538   6.874  44.977  12.950
58980W        W22539  26.690  26.118   3.258
58981W        W22540  26.176   6.187  14.313
58982W        W22541  10.208  12.846  12.489
58983W        W22542  41.901  33.618   4.678
58984W        W22543  31.958  38.036  10.956
58985W        W22544  18.689  43.341   2.217
58986W        W22545   7.333  29.082  11.017
58987W        W22546  26.140   9.193   2.372
58988W        W22547  37.865  37.843   0.315
58989W        W22548  36.894  16.121   1.875
58990W        W22549   8.719  44.417  12.449
58991W        W22550  27.520   8.316   3.346
58992W        W22551   0.423   3.742  13.981
58993W        W22552   7.309   9.733  10.403
58994W        W22553  34.607   8.732  13.799
58995W        W22554   8.160  34.513  13.520
58996W        W22555  15.718  38.474  11.971
58997W        W22556  10.717  36.514  14.443
58998W        W22557   4.758  42.300  14.985
58999W        W22558  19.048  40.998  11.543
59000W        W22559  43.493  17.561  13.986
59001W        W22560   9.818  36.028  13.467
59002W        W22561  20.584  12.614   3.152
59003W        W22562  12.630  38.459  11.092
59004W        W22563  15.312  40.387  10.505
59005W        W22564  19.071   8.298  10.986
59006W        W22565  17.745  39.843  11.095
59007W        W22566   8.843  44.878  14.362
59008W        W22567  38.986   4.395  13.501
59009W        W22568   1.415  34.423   0.853
59010W        W22569  14.641   5.295   1.375
59011W        W22570  38.385  30.440   3.204
59012W        W22571  23.040  13.690   1.771
59013W        W22572  41.296   6.868  13.834
59014W        W22573  29.607  37.519   2.768
59015W        W22574   1.762   0.849   0.346
59016W        W22575  38.551  42.877  10.907
59017W        W22576   6.780   7.399   3.280
59018W        W22577  36.497  12.246  11.081
59019W        W22578  14.790  22.505   2.889
59020W        W22579  32.498  18.171   0.859
59021W        W22580  44.754  33.470  13.511
59022W        W22581   0.848  10.314   4.166
59023W        W22582   9.764  22.625  13.947
59024W        W22583  29.585  38.061  13.960
59025W        W22584   9.721  44.979   2.181
59026W        W22585   6.306  43.934  11.568
59027W        W22586  16.750  40.974   0.384
59028W        W22587  34.453  25.507  10.515
59029W        W22588  35.020  21.102   9.982
59030W        W22589  26.133   8.784   3.265
59031W        W22590  13.769  37.985  14.284
59032W        W22591   7.906  38.534   2.329
59033W        W22592  37.936  28.009  11.871
59034W        W22593  10.353   4.847  13.980
59035W        W22594  34.612   6.761   1.933
59036W        W22595  26.590  17.239  11.017
59037W        W22596   0.838   1.328   4.187
59038W        W22597   6.372  34.913   5.316
59039W        W22598  32.410  11.181   3.242
59040W        W22599   8.884  20.641  10.616
59041W        W22600   6.827  33.011   1.869
59042W        W22601  27.624  34.990   2.672
59043W        W22602  26.570   1.417   1.429
59044W        W22603  36.347  15.197   1.826
59045W        W22604  12.697  34.864   2.362
59046W        W22605   3.789  34.491   0.330
59047W        W22606  43.839  21.738   4.793
59048W        W22607   4.352  10.846  10.597
59049W        W22608  32.393  38.845   2.316
59050W        W22609  14.181   0.845  14.489
59051W        W22610   7.347  42.501   0.453
59052W        W22611   9.767  16.746   1.891
59053W        W22612   6.806  14.252  11.469
59054W        W22613  29.974   1.938  14.899
59055W        W22614  32.512  39.957  12.935
59056W        W22615   0.782   9.282   2.196
59057W        W22616   0.783  35.377  13.342
59058W        W22617  12.362  11.306   2.772
59059W        W22618  38.415  22.162  13.026
59060W        W22619  22.014  26.684  14.940
59061W        W22620  26.110  29.564   0.819
59062W        W22621  22.649   1.860   0.784
59063W        W22622  40.400   3.335  10.418
59064W        W22623  15.627  42.022  13.994
59065W        W22624  10.384  39.505   3.834
59066W        W22625  33.617  16.731   0.924
59067W        W22626  28.472  29.169   3.381
59068W        W22627  16.236  42.969  10.642
59069W        W22628   2.814   8.691   1.727
59070W        W22629   8.838   4.802  12.096
59071W        W22630   2.368   1.313   4.189
59072W        W22631   3.930  27.951  10.527
59073W        W22632  21.617   0.861   0.368
59074W        W22633  10.678  21.081  11.514
59075W        W22634   0.921  25.048  10.503
59076W        W22635  35.954   6.920  14.986
59077W        W22636  10.695  32.524  11.597
59078W        W22637  37.077  16.635   0.272
59079W        W22638  23.044  36.505  14.894
59080W        W22639  33.121  25.988   1.233
59081W        W22640   6.846  43.977   1.398
59082W        W22641  43.386   0.825  14.288
59083W        W22642  39.516  23.043   0.352
59084W        W22643   3.331  33.546  11.987
59085W        W22644   6.374  35.458  12.405
59086W        W22645   3.769  26.677  12.000
59087W        W22646  27.692  44.491   4.749
59088W        W22647  15.095  15.666   1.839
59089W        W22648  34.379  23.580  12.500
59090W        W22649  33.386   8.660   3.228
59091W        W22650  10.779  32.110   4.175
59092W        W22651   8.783  37.077   4.833
59093W        W22652  13.650   8.251   3.689
59094W        W22653   3.353   4.285   0.849
59095W        W22654  14.224  39.894  10.899
59096W        W22655  29.972  43.449   1.876
59097W        W22656   6.309  18.262   4.748
59098W        W22657  34.113   6.424  10.420
59099W        W22658  10.706  11.790   1.248
59100W        W22659  21.630  16.246  11.529
59101W        W22660  14.786   2.453  12.922
59102W        W22661   9.886  34.466   3.870
59103W        W22662   3.872  28.075  12.530
59104W        W22663  32.062  21.623   1.290
59105W        W22664  20.052  43.285   0.367
59106W        W22665   4.712  27.553   4.163
59107W        W22666   9.676  32.135  10.455
59108W        W22667  14.679  44.298   1.925
59109W        W22668  22.718   6.774  11.057
59110W        W22669  20.612  22.225   2.256
59111W        W22670  39.028  32.112   5.171
59112W        W22671  21.135  21.706   4.324
59113W        W22672  33.943  17.655   0.405
59114W        W22673  31.609  24.647   2.708
59115W        W22674  12.117  17.092   4.315
59116W        W22675   4.440  30.922   2.323
59117W        W22676  27.124   8.229   1.410
59118W        W22677  17.203  35.106   1.412
59119W        W22678  41.823  39.545   4.291
59120W        W22679  23.053  35.502   3.827
59121W        W22680   2.467  44.495   2.670
59122W        W22681  18.556  23.090  14.443
59123W        W22682  31.419   1.437   1.815
59124W        W22683  11.776  38.483  14.808
59125W        W22684  34.462  37.511  14.962
59126W        W22685  15.317   6.755   9.946
59127W        W22686   6.895  35.900   0.930
59128W        W22687  27.138  27.010  11.112
59129W        W22688   4.916  16.721   3.788
59130W        W22689  11.339   7.363   2.849
59131W        W22690  11.866  14.704   1.277
59132W        W22691  15.578  16.740  12.564
59133W        W22692  39.864  11.263  11.610
59134W        W22693   6.731  23.102   0.736
59135W        W22694  12.806  24.712   0.835
59136W        W22695  18.597  28.541  10.972
59137W        W22696  34.914  34.927   5.186
59138W        W22697  23.100   4.404  13.956
59139W        W22698  44.340  12.624  13.972
59140W        W22699   7.280  38.388   2.841
59141W        W22700  16.192   7.223   5.722
59142W        W22701  17.187  12.157   3.327
59143W        W22702  36.517   8.300  13.446
59144W        W22703  18.168  16.302  14.910
59145W        W22704  43.996  41.400   3.204
59146W        W22705  10.138  21.109   4.836
59147W        W22706   5.378  38.433   4.819
59148W        W22707  12.210  24.530   2.828
59149W        W22708   7.733  41.302   3.158
59150W        W22709   7.713  30.057   4.185
59151W        W22710  23.193  29.430  14.776
59152W        W22711  23.530  11.150  13.949
59153W        W22712  29.595  33.382  13.413
59154W        W22713  19.630   7.881  10.589
59155W        W22714  33.110  40.028   2.881
59156W        W22715   2.320  42.335  13.900
59157W        W22716  36.098  19.209   3.728
59158W        W22717  32.464   2.886   0.262
59159W        W22718   6.910  24.155   1.890
59160W        W22719  19.163  22.678   3.199
59161W        W22720  39.408  30.162   3.246
59162W        W22721   9.258   9.259   1.933
59163W        W22722  22.665  22.735  14.001
59164W        W22723  35.049  11.640   0.362
59165W        W22724  15.201  38.566  10.977
59166W        W22725  32.127  17.588   1.310
59167W        W22726  35.935   3.458  12.535
59168W        W22727  44.318  41.799   0.311
59169W        W22728  30.435  21.046  12.420
59170W        W22729  22.039  21.516  13.862
59171W        W22730   3.771  37.024   3.868
59172W        W22731  26.596  37.386  14.924
59173W        W22732  25.556   2.850   2.250
59174W        W22733  36.923  25.150   0.261
59175W        W22734  31.549  16.604   1.875
59176W        W22735  14.644   1.941   1.900
59177W        W22736  40.918  40.334   3.649
59178W        W22737   5.218  15.617  12.024
59179W        W22738  17.798  37.432  13.919
59180W        W22739   9.229  22.509   0.891
59181W        W22740  15.578   0.457   3.202
59182W        W22741  39.937  36.398   1.220
59183W        W22742  15.759  17.637   0.819
59184W        W22743  25.974   3.228   2.334
59185W        W22744  32.893  27.662   0.737
59186W        W22745  24.004   5.438   4.322
59187W        W22746   5.378  37.393   3.280
59188W        W22747  21.757  42.422   4.325
59189W        W22748  33.406  42.477   3.751
59190W        W22749  36.861  18.644  14.967
59191W        W22750  43.440  30.463   1.824
59192W        W22751  38.052  23.995  11.915
59193W        W22752  19.169  12.251   3.290
59194W        W22753  13.713  27.037  14.424
59195W        W22754   9.670   2.280  12.851
59196W        W22755   8.721  10.707   0.305
59197W        W22756  17.798  37.864   0.436
59198W        W22757  33.087  31.102  11.544
59199W        W22758  35.368  25.547  12.854
59200W        W22759  32.973  14.337  11.578
59201W        W22760   4.891  28.657   9.991
59202W        W22761  32.104   1.787  13.493
59203W        W22762  36.059  35.375   2.854
59204W        W22763  39.523   3.295  13.375
59205W        W22764   0.840  13.732  11.538
59206W        W22765  42.354  10.196  10.963
59207W        W22766  29.935   1.888  13.059
59208W        W22767  33.081  35.499  13.975
59209W        W22768  40.439   9.219   3.322
59210W        W22769   4.446  44.877   0.859
59211W        W22770  30.042  34.450  13.333
59212W        W22771  19.760  12.691   0.340
59213W        W22772  40.327  27.671   1.897
59214W        W22773  24.706   9.348  11.572
59215W        W22774  19.639   0.848   4.705
59216W        W22775   8.356  24.228   1.916
59217W        W22776  20.196  30.642   1.266
59218W        W22777  40.540   7.757   0.478
59219W        W22778   3.726  13.646   4.275
59220W        W22779  24.655  41.800   2.251
59221W        W22780  38.517  13.713  11.584
59222W        W22781  15.618  15.637   3.835
59223W        W22782  31.498   9.320  11.589
59224W        W22783  26.480  13.145  10.021
59225W        W22784  30.419   2.419  14.004
59226W        W22785  33.007  34.002   2.773
59227W        W22786   9.656   6.216   1.920
59228W        W22787  33.077  39.427  12.093
59229W        W22788  24.554  18.132  12.851
59230W        W22789  44.902  13.306   0.827
59231W        W22790  37.871  11.862   3.741
59232W        W22791  10.672  29.066  14.922
59233W        W22792  26.584  42.446  10.900
59234W        W22793   8.818   6.410  14.410
59235W        W22794  20.536   4.846   0.397
59236W        W22795  12.762  29.052   3.750
59237W        W22796   5.263  38.451  12.852
59238W        W22797  22.108  25.025  13.517
59239W        W22798   5.831  25.032   4.682
59240W        W22799  29.144  13.764   0.852
59241W        W22800  42.516  24.677   0.409
59242W        W22801  38.455  35.033   4.755
59243W        W22802  35.871   2.240  11.053
59244W        W22803  33.097  25.479  13.466
59245W        W22804  27.942  43.283   4.805
59246W        W22805   0.856   4.718   5.249
59247W        W22806  27.600   3.364  13.914
59248W        W22807  29.930  19.557   2.237
59249W        W22808   5.287  15.586   4.799
59250W        W22809  37.575  42.427   4.698
59251W        W22810  24.002  14.192  10.916
59252W        W22811   4.788   2.929  12.851
59253W        W22812  44.298  30.479   3.205
59254W        W22813  16.094  23.570   4.156
59255W        W22814  31.519  34.589  13.541
59256W        W22815  14.104  34.048  11.417
59257W        W22816   1.791   3.377   3.825
59258W        W22817   1.280  10.198   3.854
59259W        W22818  22.029  21.106   2.898
59260W        W22819  22.644   4.250  13.342
59261W        W22820   0.751   1.443   1.855
59262W        W22821  34.924  14.308  10.569
59263W        W22822  23.554   4.405   2.815
59264W        W22823  13.647  26.589   4.745
59265W        W22824  25.600  13.779  10.056
59266W        W22825  23.036  36.964   0.246
59267W        W22826  40.019  41.509  10.631
59268W        W22827  18.095  16.186   3.235
59269W        W22828   0.407  30.159  11.004
59270W        W22829  42.018  41.816   0.351
59271W        W22830  39.995  15.776  10.550
59272W        W22831  29.655  28.071   0.837
59273W        W22832  10.267  32.999  13.866
59274W        W22833  17.161   7.744  13.460
59275W        W22834   8.212  37.369   4.328
59276W        W22835   5.247  40.893   1.363
59277W        W22836  41.790  17.560  14.775
59278W        W22837   1.927  16.681  10.943
59279W        W22838  14.634  43.969   0.945
59280W        W22839  42.505   0.390  12.560
59281W        W22840  24.520  24.156   2.200
59282W        W22841  11.264   1.381  14.462
59283W        W22842  21.122   6.388  13.869
59284W        W22843  38.462  12.680   2.260
59285W        W22844  19.620   6.384  11.455
59286W        W22845  22.649   2.301  11.098
59287W        W22846  32.105   1.277  14.847
59288W        W22847  22.653   3.857   1.392
59289W        W22848  42.971   9.684   2.182
59290W        W22849  10.785  12.209  14.425
59291W        W22850   4.279  17.194  13.384
59292W        W22851  28.946   7.302   1.210
59293W        W22852  13.711  29.094  11.870
59294W        W22853   4.282  19.594   3.339
59295W        W22854   9.697  16.661  12.079
59296W        W22855  44.332   1.456   1.439
59297W        W22856  15.769  37.368   4.812
59298W        W22857  36.006   8.782   2.834
59299W        W22858   4.740  15.628  12.908
59300W        W22859  18.257  23.525   2.233
59301W        W22860  27.590  26.614   0.291
59302W        W22861   8.689  18.080   1.448
59303W        W22862  22.522  23.595  11.018
59304W        W22863  14.603  42.956  14.027
59305W        W22864  33.960  35.951   2.781
59306W        W22865  39.365  33.499   0.738
59307W        W22866  41.450   6.810  11.858
59308W        W22867  25.478   7.736  13.434
59309W        W22868  28.958  40.468   0.371
59310W        W22869  23.115  12.196  12.374
59311W        W22870   2.885  42.830   4.311
59312W        W22871  21.671  10.704  12.955
59313W        W22872  44.501  41.396   0.458
59314W        W22873  13.337  39.036   1.280
59315W        W22874  37.992  34.553  14.483
59316W        W22875  31.064  44.483   5.230
59317W        W22876  23.236  11.832  14.800
59318W        W22877  14.674  23.570   3.173
59319W        W22878   3.790  42.453   0.958
59320W        W22879  13.797  10.832  13.915
59321W        W22880  16.170  23.532  11.121
59322W        W22881   8.177  31.067  12.887
59323W        W22882  19.251  20.035  13.484
59324W        W22883   8.681  33.455   3.244
59325W        W22884  20.586  22.131  13.410
59326W        W22885  32.557  31.147  13.344
59327W        W22886  35.967  38.855   2.710
59328W        W22887   8.704  31.130  13.876
59329W        W22888  34.934  16.737  14.402
59330W        W22889  22.067   2.289  10.900
59331W        W22890  15.289  38.849  11.001
59332W        W22891  10.857   5.778   2.367
59333W        W22892   3.728  24.716  12.389
59334W        W22893  23.612  18.655   0.726
59335W        W22894  12.826  38.557  14.981
59336W        W22895  44.905  22.596   2.332
59337W        W22896  27.504  40.345   4.680
59338W        W22897  37.572   6.405   0.458
59339W        W22898   9.690  34.536   3.311
59340W        W22899  11.770  37.964   0.357
59341W        W22900  24.057  36.558  14.418
59342W        W22901  32.106   9.798  13.979
59343W        W22902   7.289  30.619  12.878
59344W        W22903  12.320  14.110   4.714
59345W        W22904   4.893   4.257  14.828
59346W        W22905  26.484  21.105  14.393
59347W        W22906  29.531  11.344  12.940
59348W        W22907  12.616  36.490  14.767
59349W        W22908   2.308   4.791   4.303
59350W        W22909  15.233  36.085   3.172
59351W        W22910  14.158  34.900   1.313
59352W        W22911  19.123  25.195   0.793
59353W        W22912   1.810   1.799  13.845
59354W        W22913  41.524  32.393  13.794
59355W        W22914  44.847  21.581  13.506
59356W        W22915  33.446  23.047   2.765
59357W        W22916  11.761  24.724   4.228
59358W        W22917  15.153   7.277   2.700
59359W        W22918   0.442   7.898   1.262
59360W        W22919  40.914  16.219  10.632
59361W        W22920   0.411   7.382   0.877
59362W        W22921  25.102   4.797  14.438
59363W        W22922  34.599  35.053   0.284
59364W        W22923   2.352  25.602  11.505
59365W        W22924  25.474  42.785  13.039
59366W        W22925  33.090  40.391   1.221
59367W        W22926  36.845  29.526  11.582
59368W        W22927  15.151  27.474   1.313
59369W        W22928  39.456   8.770   2.271
59370W        W22929  18.198   4.830  12.966
59371W        W22930  18.233  17.247   4.148
59372W        W22931  17.626  24.520  14.285
59373W        W22932  15.580  38.555  13.936
59374W        W22933  41.822  38.394  13.965
59375W        W22934  13.716  32.598  13.822
59376W        W22935  10.163  37.859  11.430
59377W        W22936   0.443  26.099  10.594
59378W        W22937  38.400  25.580  12.881
59379W        W22938  44.369   2.748  14.838
59380W        W22939  35.908   2.958  12.994
59381W        W22940  41.906  12.820   1.447
59382W        W22941   9.678  30.029   3.367
59383W        W22942  39.468   9.743   3.780
59384W        W22943  19.231  27.537   1.808
59385W        W22944  26.474  20.599  10.604
59386W        W22945  26.654  40.817  12.341
59387W        W22946  36.450   6.753  13.035
59388W        W22947   1.836   2.273  14.879
59389W        W22948   1.454  42.456  11.071
59390W        W22949  42.313  38.368  14.004
59391W        W22950  23.146  25.509  14.355
59392W        W22951  43.987   1.290   2.897
59393W        W22952   3.749  28.107  11.435
59394W        W22953  35.052  30.972  14.325
59395W        W22954  31.595  33.994  10.644
59396W        W22955  17.708  28.956   3.232
59397W        W22956  19.742  23.698  11.012
59398W        W22957   6.283  15.783   5.170
59399W        W22958  23.634   8.234  14.388
59400W        W22959  23.552   3.848   4.803
59401W        W22960  27.970  16.683   2.188
59402W        W22961  19.139  17.256  14.397
59403W        W22962  31.456  21.603  11.399
59404W        W22963   7.378   2.445   3.842
59405W        W22964  28.513  37.069  12.406
59406W        W22965  35.487  21.105  11.536
59407W        W22966  22.042  20.184   4.323
59408W        W22967  31.536  11.326   2.202
59409W        W22968  43.340   9.810   1.395
59410W        W22969  10.730  41.912   2.778
59411W        W22970  42.487  15.809  14.761
59412W        W22971  33.509   8.225  10.435
59413W        W22972  22.661  28.965  13.401
59414W        W22973  44.295  44.857   0.911
59415W        W22974   9.355   4.891  14.468
59416W        W22975  15.142   7.851  11.418
59417W        W22976   2.318  15.260   0.854
59418W        W22977  18.202  30.621  11.067
59419W        W22978  41.979  27.147   1.876
59420W        W22979   6.825  31.065   2.742
59421W        W22980  32.106  27.498  14.968
59422W        W22981  19.087  44.272  13.470
59423W        W22982  13.153  38.921   2.409
59424W        W22983  40.350  22.651  14.813
59425W        W22984  38.324  29.980  11.024
59426W        W22985  22.191   2.762   1.790
59427W        W22986  25.092   0.766  14.297
59428W        W22987  11.680  40.400  11.527
59429W        W22988  13.751  34.972  14.479
59430W        W22989  22.602   3.425   4.795
59431W        W22990  30.582  27.972  14.028
59432W        W22991  39.531  19.562  14.806
59433W        W22992   1.824  26.522   1.404
59434W        W22993   4.243   9.708  14.847
59435W        W22994  23.502   2.455  12.445
59436W        W22995   9.318  18.052  10.133
59437W        W22996  31.051  42.371   3.280
59438W        W22997   6.400  39.538   0.335
59439W        W22998  44.266  26.606   4.297
59440W        W22999  33.387  33.422   2.854
59441W        W23000  18.722  11.136  13.356
59442W        W23001   1.794  33.131  14.345
59443W        W23002   5.842  44.448  13.311
59444W        W23003  19.263   7.801   3.376
59445W        W23004  19.593  16.268   2.209
59446W        W23005  20.562   1.271  10.566
59447W        W23006  18.668   2.357  13.381
59448W        W23007  14.687  17.202   3.343
59449W        W23008  10.229  41.010  11.574
59450W        W23009  21.681  13.804  14.803
59451W        W23010   5.690  33.537   1.410
59452W        W23011  42.348   6.346  14.930
59453W        W23012   5.813   6.777  12.093
59454W        W23013  15.184  34.030   3.294
59455W        W23014  21.120  44.879   2.186
59456W        W23015  10.183  17.109  14.441
59457W        W23016  39.003  14.759  11.495
59458W        W23017   0.916  42.415  11.599
59459W        W23018  29.037  37.831  14.890
59460W        W23019  29.080  14.696   4.251
59461W        W23020  11.692   0.303   1.742
59462W        W23021   3.390   7.281  10.125
59463W        W23022  42.828  33.519  14.291
59464W        W23023  14.644  39.961   3.165
59465W        W23024  12.183  44.490  11.881
59466W        W23025  16.131  10.244   2.891
59467W        W23026  25.610  27.620   2.324
59468W        W23027   3.227   4.390  13.024
59469W        W23028   4.217   9.805  13.878
59470W        W23029  32.972  25.484  11.407
59471W        W23030  44.392  15.642  13.935
59472W        W23031  12.283  19.537   2.668
59473W        W23032   9.778  18.595  11.609
59474W        W23033   0.928  25.620   2.217
59475W        W23034   2.746  40.505  11.915
59476W        W23035  32.925  33.407  10.625
59477W        W23036  20.633  14.739  10.434
59478W        W23037   7.709  32.097  14.367
59479W        W23038  21.060  23.587  12.025
59480W        W23039   9.301   8.774   1.775
59481W        W23040  22.050   4.406  13.431
59482W        W23041  26.624   5.260   0.291
59483W        W23042  22.090  32.084   5.176
59484W        W23043  44.968  13.214   4.229
59485W        W23044   9.352  14.657   1.918
59486W        W23045  42.338   3.728   2.363
59487W        W23046  12.265   7.874  14.782
59488W        W23047  42.835  32.589  11.062
59489W        W23048  11.276  13.290  13.531
59490W        W23049   5.715  11.327   2.701
59491W        W23050  18.133  37.045   0.904
59492W        W23051  25.969  31.564   3.641
59493W        W23052  21.182  35.469  10.514
59494W        W23053  37.353  26.985  10.436
59495W        W23054  10.235  25.164  13.333
59496W        W23055  39.032   7.394  13.794
59497W        W23056  18.125  29.091  13.980
59498W        W23057   1.945   1.742   2.318
59499W        W23058   1.885  29.996  11.907
59500W        W23059   3.229  13.706   3.769
59501W        W23060  29.480  44.998   3.724
59502W        W23061  18.722  19.622   5.101
59503W        W23062  31.535   4.843  14.474
59504W        W23063  29.427  23.520   0.415
59505W        W23064  41.000  40.001  13.845
59506W        W23065  13.313  12.616  12.503
59507W        W23066   8.182   9.789  11.411
59508W        W23067   8.364  22.702  12.424
59509W        W23068   9.849  19.128  13.477
59510W        W23069  11.855  42.912   9.954
59511W        W23070  37.033  22.997   0.824
59512W        W23071   2.244  43.395  12.540
59513W        W23072   1.255   2.328  11.979
59514W        W23073  44.893  12.769   3.219
59515W        W23074   8.808  24.559  13.315
59516W        W23075  23.187  38.957   1.365
59517W        W23076  40.330  24.484   4.277
59518W        W23077  12.666  28.596  14.977
59519W        W23078  23.510   0.917   0.409
59520W        W23079  34.988  34.533   4.611
59521W        W23080  33.583  19.074   9.995
59522W        W23081  17.217  39.985  13.326
59523W        W23082  34.567  10.705   3.267
59524W        W23083  33.918  41.994   3.265
59525W        W23084  10.686   0.271  14.506
59526W        W23085   3.440  24.688  13.864
59527W        W23086   5.428  19.594   0.946
59528W        W23087   2.309  16.699   0.775
59529W        W23088  38.878  18.122   3.203
59530W        W23089  43.787  42.306   3.735
59531W        W23090  39.048  39.004  14.962
59532W        W23091  22.532   7.758  11.915
59533W        W23092  16.583  29.531   4.116
59534W        W23093  24.214  11.324  11.491
59535W        W23094  36.064  12.792   1.407
59536W        W23095  18.683  20.648  13.404
59537W        W23096   3.381  14.660  11.411
59538W        W23097   8.786   6.762   3.769
59539W        W23098   2.846   4.204   3.334
59540W        W23099  36.571  10.751   0.265
59541W        W23100  32.051  26.202  13.538
59542W        W23101  41.297  43.447   2.852
59543W        W23102  44.447  23.733   4.728
59544W        W23103  44.442  13.225  12.094
59545W        W23104   8.787  29.120  11.999
59546W        W23105  44.337  40.416   3.741
59547W        W23106  24.053   6.288   1.274
59548W        W23107  25.152  17.722  13.447
59549W        W23108  39.509  23.707  13.920
59550W        W23109  18.122  33.599   2.209
59551W        W23110  27.633  41.915  12.895
59552W        W23111  15.599  12.791   4.265
59553W        W23112  34.399  16.730  10.413
59554W        W23113   6.760  21.094   2.793
59555W        W23114  35.383  41.039   2.775
59556W        W23115  40.848   4.732  11.519
59557W        W23116  42.005   7.889  11.487
59558W        W23117  18.139  11.790  11.987
59559W        W23118  44.841  16.197   3.353
59560W        W23119  35.579   8.747  12.458
59561W        W23120  16.654  22.214   2.178
59562W        W23121  28.950  38.418   0.365
59563W        W23122  23.088   6.820  13.832
59564W        W23123  15.296  16.111   0.357
59565W        W23124  22.130  24.137  11.377
59566W        W23125  19.608  14.745  12.876
59567W        W23126   2.904  17.067  10.412
59568W        W23127   1.779  35.561   2.237
59569W        W23128   1.852   0.801  11.109
59570W        W23129   9.286  10.846   4.342
59571W        W23130  28.558  28.159   4.231
59572W        W23131  26.482  28.957  10.507
59573W        W23132  39.037  27.188  12.971
59574W        W23133   1.885  22.736  11.077
59575W        W23134  28.940   1.316  12.465
59576W        W23135  30.971  23.119  11.026
59577W        W23136   3.330  18.242   1.245
59578W        W23137  39.487  19.652  14.380
59579W        W23138  29.648   6.711  12.407
59580W        W23139  27.587   2.757  14.867
59581W        W23140   0.418   9.357  12.994
59582W        W23141  18.579  41.845  12.031
59583W        W23142   8.172   5.201  14.482
59584W        W23143  22.585  40.415  10.429
59585W        W23144  40.039  43.865  14.481
59586W        W23145  26.575   2.458  12.044
59587W        W23146  22.008   0.779   4.640
59588W        W23147  12.232  41.510  10.900
59589W        W23148  11.232  40.994   3.160
59590W        W23149  35.534  21.055  14.336
59591W        W23150  24.619  12.660  12.026
59592W        W23151  38.466  41.466  14.767
59593W        W23152   6.218  11.753  10.569
59594W        W23153  32.107  35.091  12.563
59595W        W23154  33.478  25.108  12.483
59596W        W23155  25.172  33.433   0.349
59597W        W23156  42.019  38.010  14.827
59598W        W23157  30.949  19.599   1.904
59599W        W23158  22.627  42.881  14.391
59600W        W23159  39.063  22.705   4.834
59601W        W23160  32.442   6.856  14.355
59602W        W23161  22.697   5.859   0.364
59603W        W23162  14.097  14.223   5.238
59604W        W23163  10.351  18.170  14.297
59605W        W23164  38.529  31.013   3.320
59606W        W23165  40.035  41.471  14.820
59607W        W23166  19.697  31.446   4.798
59608W        W23167   0.382   9.162   2.749
59609W        W23168  42.948  11.309  10.114
59610W        W23169  44.311  29.508   1.866
59611W        W23170  28.146   4.841   1.392
59612W        W23171  29.970   9.656   0.749
59613W        W23172  34.469  18.648   4.715
59614W        W23173   9.657  17.592  11.942
59615W        W23174  24.220  12.256   4.216
59616W        W23175   6.795  44.397   4.637
59617W        W23176   2.836  10.728  12.342
59618W        W23177  32.522  20.086   4.741
59619W        W23178  36.019  41.809  14.472
59620W        W23179  17.587   0.410   3.149
59621W        W23180  19.563  32.116   2.205
59622W        W23181  18.643   3.787  14.902
59623W        W23182  35.396  31.154  10.418
59624W        W23183  40.465  15.616  14.412
59625W        W23184  39.356  16.796   3.319
59626W        W23185  24.716  38.841  11.071
59627W        W23186   6.753  41.311  13.814
59628W        W23187  21.556  16.241  11.898
59629W        W23188  26.591  29.924  12.493
59630W        W23189  29.065  16.086  10.464
59631W        W23190   1.904  21.643   2.689
59632W        W23191  19.118   3.795   2.264
59633W        W23192  37.521  25.092  10.082
59634W        W23193  33.418  10.257   1.446
59635W        W23194  33.428  18.166   4.203
59636W        W23195  43.902  10.662   2.883
59637W        W23196   2.390  44.370  10.544
59638W        W23197  10.675   2.366  12.346
59639W        W23198  28.085  14.807  12.355
59640W        W23199  17.559  37.470  12.437
59641W        W23200  25.114  44.305   0.460
59642W        W23201   8.404  44.361  13.430
59643W        W23202  29.595  27.512   2.759
59644W        W23203  43.419  31.082  14.292
59645W        W23204  31.601  16.296  13.005
59646W        W23205  38.854   2.836  10.564
59647W        W23206  38.820   2.373  10.583
59648W        W23207  42.879  40.970   1.272
59649W        W23208   0.431   6.801   4.832
59650W        W23209  12.188  21.042   2.385
59651W        W23210  23.174  27.625   0.832
59652W        W23211  30.623  14.212   2.762
59653W        W23212  38.848   4.803  12.933
59654W        W23213   9.869  25.555   3.183
59655W        W23214  37.979  12.717  10.536
59656W        W23215  25.614  43.274   4.303
59657W        W23216  28.178   3.417   0.454
59658W        W23217  28.019  32.019  12.979
59659W        W23218  37.033   2.424  11.575
59660W        W23219  13.260  20.038  12.547
59661W        W23220  38.526   7.394   1.833
59662W        W23221  14.328  43.848   3.648
59663W        W23222  11.747  38.888   0.809
59664W        W23223  30.657   4.276   1.355
59665W        W23224  16.616  21.716  12.400
59666W        W23225  41.305   4.243   2.773
59667W        W23226  41.937  43.339  12.062
59668W        W23227   2.743  33.399   2.278
59669W        W23228  42.436  21.519  11.529
59670W        W23229  26.995   8.318   0.428
59671W        W23230  28.179  41.334  12.948
59672W        W23231  26.608  30.454  14.288
59673W        W23232  37.560  30.005  14.416
59674W        W23233   1.970   9.162   2.252
59675W        W23234  28.076   4.916   0.421
59676W        W23235  21.147   2.867  11.563
59677W        W23236  13.800  20.611  14.931
59678W        W23237  14.646  22.125   3.634
59679W        W23238  11.268  18.618  13.475
59680W        W23239  22.595  11.162  11.963
59681W        W23240  39.014   2.340  13.492
59682W        W23241   2.946  36.850   3.825
59683W        W23242  25.481  27.059   4.200
59684W        W23243  39.504  36.986  13.037
59685W        W23244  20.742  22.611   3.320
59686W        W23245   7.781  40.040  11.953
59687W        W23246  43.333  26.966  12.887
59688W        W23247   2.331  31.445   3.671
59689W        W23248  31.943  18.558  11.434
59690W        W23249  17.168   7.279   5.091
59691W        W23250   2.292  38.828   0.465
59692W        W23251  11.848   0.327  13.051
59693W        W23252   7.315  29.619  13.528
59694W        W23253  38.876  26.638  11.013
59695W        W23254  40.037  10.184  14.322
59696W        W23255  37.909  36.492  13.920
59697W        W23256  18.717  32.107  10.060
59698W        W23257  24.137  28.973   3.263
59699W        W23258  15.614  29.589  12.404
59700W        W23259  18.147  24.525  14.909
59701W        W23260  10.181   5.213   1.804
59702W        W23261  18.096   7.414  14.871
59703W        W23262   5.773   6.886  13.050
59704W        W23263   8.248  37.450  13.989
59705W        W23264  34.875  20.597  14.787
59706W        W23265  41.813  11.779   1.825
59707W        W23266  15.632  25.619   5.213
59708W        W23267  34.389  31.970  12.997
59709W        W23268   5.824  31.154   4.156
59710W        W23269   0.831  22.140   3.691
59711W        W23270  33.065  44.274  11.992
59712W        W23271  14.234  26.014   3.385
59713W        W23272  44.788  23.200  13.382
59714W        W23273  19.779  35.404   0.257
59715W        W23274  30.433  28.057  10.899
59716W        W23275   5.726  11.178  14.919
59717W        W23276   9.738  29.610  12.552
59718W        W23277  38.511  42.910   0.743
59719W        W23278  23.641  32.030   0.463
59720W        W23279  23.543  33.616  10.636
59721W        W23280  36.483  37.539  11.028
59722W        W23281   8.891   6.306  10.933
59723W        W23282   0.788  23.682   3.187
59724W        W23283  15.766  11.702   2.886
59725W        W23284  26.594  13.222  12.407
59726W        W23285  25.156  30.584   2.287
59727W        W23286  20.092   7.695   0.798
59728W        W23287  11.865   9.276  13.500
59729W        W23288  37.013  24.526  11.420
59730W        W23289   4.367  20.125   1.291
59731W        W23290  39.330  18.206   1.332
59732W        W23291   9.874  37.496   4.253
59733W        W23292  36.978   4.270   0.464
59734W        W23293  27.073  12.276  13.922
59735W        W23294  41.396  41.806   2.774
59736W        W23295  17.065  44.801   1.885
59737W        W23296   6.807  27.476   4.172
59738W        W23297  19.250  33.913   0.256
59739W        W23298  32.122  27.486   4.755
59740W        W23299  37.844  19.629  13.796
59741W        W23300  20.064  19.151   0.401
59742W        W23301  18.056  21.608   4.601
59743W        W23302  18.236  16.179  10.538
59744W        W23303  38.531  30.425   1.796
59745W        W23304  37.548  27.995   4.789
59746W        W23305  27.482  20.551   2.187
59747W        W23306   9.309  34.987   1.345
59748W        W23307   4.841  38.489  11.908
59749W        W23308   2.461   5.708   4.629
59750W        W23309  28.591   7.673  13.827
59751W        W23310   2.770  21.748  12.365
59752W        W23311  28.678  29.541  12.427
59753W        W23312  19.249  26.035   2.333
59754W        W23313  44.447  38.354  13.486
59755W        W23314   0.301  40.812   4.325
59756W        W23315   3.721  21.613   1.755
59757W        W23316  23.629  22.241  14.302
59758W        W23317  15.605  23.070  12.501
59759W        W23318  29.431  18.078   0.414
59760W        W23319  18.084  32.983   1.728
59761W        W23320  18.062  41.494  10.932
59762W        W23321  42.900  39.386   4.632
59763W        W23322  26.055  13.273   3.726
59764W        W23323  22.117  39.894  12.448
59765W        W23324  32.953  16.089  14.846
59766W        W23325  41.831   5.246   0.301
59767W        W23326  32.410   9.202   4.687
59768W        W23327  19.711  31.910  11.511
59769W        W23328  22.652  14.155  11.604
59770W        W23329  24.702  10.377  13.530
59771W        W23330  34.474  24.219  11.058
59772W        W23331  18.283  22.184  10.442
59773W        W23332  35.539   2.883  13.850
59774W        W23333  11.705  17.295   0.891
59775W        W23334  24.480  44.758  12.526
59776W        W23335  17.259  28.518   2.189
59777W        W23336   2.821  26.153   2.231
59778W        W23337  43.884  31.558   2.350
59779W        W23338  34.974  13.793   0.818
59780W        W23339  21.077   8.676   4.220
59781W        W23340  13.830  37.018  13.368
59782W        W23341  28.155  38.929  14.861
59783W        W23342  20.648  11.299   1.288
59784W        W23343   7.745  31.451  13.320
59785W        W23344  29.990   1.440   1.448
59786W        W23345  16.128   9.252  11.574
59787W        W23346  15.797  18.577   2.759
59788W        W23347   2.380   8.192  13.540
59789W        W23348  38.366  30.518  13.365
59790W        W23349  19.609  11.820   4.222
59791W        W23350  34.558  44.439   3.348
59792W        W23351   1.869  27.551  12.402
59793W        W23352  21.247  28.531   5.230
59794W        W23353  44.275   6.279  10.458
59795W        W23354  16.170  39.546   1.762
59796W        W23355  37.344  32.527  13.406
59797W        W23356  17.113  34.053   0.753
59798W        W23357   9.385   5.282  13.799
59799W        W23358  37.400  37.897  10.443
59800W        W23359   2.751   4.887   0.294
59801W        W23360  18.187  42.901  10.014
59802W        W23361  33.546   0.859   0.867
59803W        W23362  31.549  43.859   2.871
59804W        W23363  22.605  19.619   0.895
59805W        W23364   5.351  10.697  11.026
59806W        W23365   5.330  19.232  11.403
59807W        W23366   5.753  26.612  14.758
59808W        W23367  23.139  44.984   2.188
59809W        W23368  41.470  39.422   3.632
59810W        W23369  35.517   2.755   3.787
59811W        W23370  13.705  12.727  13.040
59812W        W23371   2.775  25.982  14.854
59813W        W23372   8.752  31.954   3.745
59814W        W23373  36.978  37.422   4.812
59815W        W23374   4.290   1.954  12.826
59816W        W23375   1.408  15.793  13.862
59817W        W23376  37.441  11.320  13.961
59818W        W23377   2.734  44.375  10.608
59819W        W23378  38.378  35.093  10.615
59820W        W23379  13.757  18.270  13.422
59821W        W23380  32.139  33.484  14.427
59822W        W23381  40.431  16.150   1.837
59823W        W23382   2.325   0.274  10.644
59824W        W23383   8.349  40.898  11.491
59825W        W23384   8.339  31.615   4.291
59826W        W23385  14.738  37.510  11.547
59827W        W23386  34.548  21.088   1.801
59828W        W23387  16.757   4.237  11.447
59829W        W23388  14.660  41.843  11.377
59830W        W23389  32.597  30.112   2.226
59831W        W23390  36.024  42.831   1.400
59832W        W23391  20.717  14.789   4.620
59833W        W23392  42.444  24.607  12.873
59834W        W23393   1.306  39.502   2.269
59835W        W23394  41.450  40.531   1.899
59836W        W23395  24.521  26.001  10.936
59837W        W23396  15.202  44.307  10.989
59838W        W23397   8.275   9.678  14.373
59839W        W23398  23.516   9.391   3.255
59840W        W23399  13.150   2.245   0.368
59841W        W23400  20.629  11.183  13.404
59842W        W23401  33.100  27.062  10.894
59843W        W23402   8.841  38.930  12.897
59844W        W23403  16.729  24.227  11.857
59845W        W23404  16.726  21.130   4.297
59846W        W23405  22.583  29.477   3.838
59847W        W23406  41.488  18.294  12.526
59848W        W23407  14.332  12.626   0.463
59849W        W23408  33.382  16.579   4.334
59850W        W23409  20.208  29.437   1.274
59851W        W23410   3.783  42.338  14.025
59852W        W23411  43.930  17.273   2.799
59853W        W23412   8.187  31.984  11.513
59854W        W23413  33.491  25.989  10.456
59855W        W23414   2.357  33.030   0.443
59856W        W23415  25.997   5.374  14.022
59857W        W23416   7.328  20.601  13.543
59858W        W23417  14.188  30.970   3.288
59859W        W23418   8.862  34.527  13.797
59860W        W23419  41.422  20.216   3.679
59861W        W23420  24.555   8.282   0.885
59862W        W23421  33.084  19.211  13.460
59863W        W23422  38.382  18.632  11.015
59864W        W23423  16.725  15.195  10.562
59865W        W23424  27.566  32.392  11.442
59866W        W23425  15.787  22.123   4.117
59867W        W23426  19.696  17.298   0.737
59868W        W23427  14.275  31.128  11.559
59869W        W23428  22.035  25.013   4.756
59870W        W23429  33.886  29.959  10.440
59871W        W23430  17.164  34.590  11.862
59872W        W23431  33.934  22.529  10.505
59873W        W23432   7.183  11.249  14.459
59874W        W23433   0.962  41.325  14.331
59875W        W23434  29.999  27.477  11.990
59876W        W23435  12.678   9.231  12.001
59877W        W23436  14.146  10.751  13.019
59878W        W23437  36.851  32.100   3.635
59879W        W23438  13.733  40.847   0.288
59880W        W23439  38.441  31.926   3.745
59881W        W23440  41.908  44.883  13.806
59882W        W23441   6.420  39.023   0.922
59883W        W23442  10.155  34.005  11.389
59884W        W23443  14.318   0.924  11.433
59885W        W23444  18.197  40.943   3.232
59886W        W23445  10.810  43.426   1.378
59887W        W23446   6.858  21.664   0.459
59888W        W23447  13.117  28.654   4.820
59889W        W23448  31.904  22.503  11.471
59890W        W23449  20.597   5.205   4.773
59891W        W23450   9.391   0.902   9.953
59892W        W23451  18.280  17.727  11.049
59893W        W23452  20.747   7.210  11.565
59894W        W23453  15.251   4.236   2.779
59895W        W23454  18.718  42.987   1.396
59896W        W23455  32.964   0.458  14.324
59897W        W23456  28.987  33.424  13.307
59898W        W23457  34.067  19.084   4.659
59899W        W23458  25.027  42.355   1.225
59900W        W23459  22.102  42.990  10.925
59901W        W23460  21.121  37.541   1.704
59902W        W23461  36.400  41.403   3.675
59903W        W23462  15.122  23.717   3.302
59904W        W23463  10.197  31.445  11.533
59905W        W23464   3.935  16.180  14.836
59906W        W23465   0.816  13.623  12.846
59907W        W23466  36.547  25.712   1.823
59908W        W23467  36.965  35.555   2.663
59909W        W23468  38.948   8.888  11.452
59910W        W23469  15.706  13.246  14.911
59911W        W23470   3.267  18.757   3.186
59912W        W23471  39.535   7.710  14.812
59913W        W23472  37.362  21.232   1.786
59914W        W23473  39.948  43.970   0.925
59915W        W23474   1.450  17.614   0.456
59916W        W23475   2.471  41.871   3.281
59917W        W23476  34.120   5.220   1.248
59918W        W23477  41.027   7.373  13.423
59919W        W23478   0.784  36.876   3.774
59920W        W23479  22.640  41.357  10.900
59921W        W23480  31.003  42.829  11.017
59922W        W23481  37.857  12.787   4.167
59923W        W23482  17.078  31.621   2.349
59924W        W23483  44.295  29.924  13.927
59925W        W23484  16.302  41.966  12.856
59926W        W23485  33.591   4.814  12.487
59927W        W23486  34.412  22.230   0.255
59928W        W23487  21.229  13.657   2.858
59929W        W23488  40.053  10.365   1.762
59930W        W23489  18.720  38.834  12.070
59931W        W23490  42.885  14.191   1.872
59932W        W23491  22.068  39.539   3.659
59933W        W23492  31.954  28.481   2.378
59934W        W23493  34.508  12.122   1.247
59935W        W23494  24.085   0.318  13.384
59936W        W23495  35.085  20.545  10.408
59937W        W23496  26.991  16.079   1.429
59938W        W23497  37.364  13.172   4.178
59939W        W23498  30.651  37.856  10.598
59940W        W23499  21.100  31.138  11.126
59941W        W23500  40.035  42.344  14.395
59942W        W23501  18.140  44.302   4.141
59943W        W23502  27.132  18.755   3.362
59944W        W23503  26.526  37.378  11.590
59945W        W23504  42.974   7.249  10.043
59946W        W23505  27.023  33.509  14.313
59947W        W23506  43.973  38.515   0.788
59948W        W23507  30.499  26.178   3.373
59949W        W23508  24.167   6.721  12.033
59950W        W23509   7.725   7.378  14.788
59951W        W23510   7.756  27.971   2.199
59952W        W23511   4.244   5.717   2.330
59953W        W23512  44.884  34.105  14.878
59954W        W23513  41.032  33.915  10.995
59955W        W23514   8.825  14.660  13.053
59956W        W23515   3.854  10.763  11.513
59957W        W23516  37.567  14.329  11.050
59958W        W23517  38.554  24.989   4.300
59959W        W23518  10.748  20.532   4.119
59960W        W23519   9.719  25.157  11.121
59961W        W23520  10.246   1.775   2.723
59962W        W23521  30.152  10.657   2.407
59963W        W23522  22.537  16.601  13.798
59964W        W23523  21.699  44.791   1.856
59965W        W23524  15.218  15.323  11.963
59966W        W23525   9.228  41.376  13.834
59967W        W23526   1.913   3.443  13.408
59968W        W23527   9.769  16.281  12.926
59969W        W23528  27.137  20.730   5.613
59970W        W23529  16.194  11.781   4.701
59971W        W23530   2.904  44.298   3.667
59972W        W23531   4.405   2.954   3.717
59973W        W23532  16.571  36.407  13.360
59974W        W23533  28.448  21.035  14.390
59975W        W23534  33.501  41.415  10.496
59976W        W23535   8.725  13.606  13.851
59977W        W23536  24.531  11.306   0.786
59978W        W23537   2.262  39.436   2.371
59979W        W23538  15.223  22.034   2.877
59980W        W23539  12.259  12.283   3.632
59981W        W23540  19.656  24.168   2.220
59982W        W23541  15.710   9.323  13.347
59983W        W23542   1.413  14.615   0.880
59984W        W23543   2.449  12.723  11.020
59985W        W23544   1.853  11.300  10.899
59986W        W23545   2.363  10.221   4.767
59987W        W23546   2.958  12.322   1.298
59988W        W23547  17.225  29.600   1.837
59989W        W23548   4.275  14.820  14.422
59990W        W23549   5.221  37.353   4.802
59991W        W23550  37.364  29.663   2.304
59992W        W23551  35.912   6.244   3.148
59993W        W23552   1.379   0.766   2.814
59994W        W23553   4.319  40.493   4.226
59995W        W23554   2.456  19.078  14.795
59996W        W23555   7.353  33.893  14.005
59997W        W23556  44.837  18.057   0.443
59998W        W23557  42.905   1.939   4.732
59999W        W23558  10.208  43.379  13.986
60000W        W23559  24.478   1.849  13.939
60001W        W23560   1.370   1.470  10.456
60002W        W23561   5.854  10.773   0.757
60003W        W23562  21.543  40.865  13.897
60004W        W23563  36.519   2.328  13.862
60005W        W23564  11.670  23.572  14.511
60006W        W23565  39.929  42.942  10.419
60007W        W23566  22.667   6.255   2.736
60008W        W23567  25.513  34.502   1.316
60009W        W23568  38.557  26.147  12.569
60010W        W23569  40.977   7.346  10.458
60011W        W23570   2.269  31.029   3.773
60012W        W23571  24.607  10.200   0.798
60013W        W23572  12.237  22.238   0.761
60014W        W23573  39.814  15.183   4.604
60015W        W23574  24.639  29.591  13.497
60016W        W23575  15.097  41.330   2.703
60017W        W23576  29.101  36.023   2.712
60018W        W23577  27.099  35.017   2.336
60019W        W23578  29.026  21.676   1.725
60020W        W23579  14.591  42.503   3.720
60021W        W23580  21.669  15.643   0.295
60022W        W23581  35.861  37.443   1.871
60023W        W23582  42.020  37.055  13.019
60024W        W23583   8.351  41.382  13.923
60025W        W23584  28.567  13.700  12.050
60026W        W23585   0.953  43.461   3.792
60027W        W23586  24.637   7.666  13.806
60028W        W23587  20.693  35.913  14.894
60029W        W23588  17.064  24.153   1.761
60030W        W23589  11.761   9.354  14.990
60031W        W23590  43.814   1.369   2.407
60032W        W23591  14.642  32.044   3.809
60033W        W23592   2.261  23.725  14.422
60034W        W23593   5.775  13.346  13.819
60035W        W23594   6.743  14.675  14.411
60036W        W23595  14.738  40.304   0.418
60037W        W23596  34.984  29.455  11.580
60038W        W23597   0.768  24.711  13.391
60039W        W23598  41.997  16.595  12.501
60040W        W23599   9.300  34.072  12.508
60041W        W23600   2.313  41.345  12.356
60042W        W23601  25.652  30.095  14.805
60043W        W23602  36.406  18.246   2.726
60044W        W23603  22.065  43.000   3.642
60045W        W23604  44.389  13.838  12.546
60046W        W23605   8.246  29.949  14.438
60047W        W23606  18.656  41.001   2.257
60048W        W23607   3.851  24.075  13.943
60049W        W23608  36.911  20.562  14.789
60050W        W23609  31.095  13.203  13.368
60051W        W23610  12.266  14.782  10.598
60052W        W23611  27.659  35.388  14.460
60053W        W23612  35.558  19.584   1.700
60054W        W23613  39.338  29.922  13.959
60055W        W23614  16.260  29.479  13.988
60056W        W23615  32.409  28.011  14.467
60057W        W23616  28.175  18.676   2.339
60058W        W23617  33.510  21.063  12.904
60059W        W23618  34.493  44.004  14.821
60060W        W23619  43.359  32.032  13.915
60061W        W23620  13.664  44.953  12.476
60062W        W23621   0.329   9.875  12.576
60063W        W23622  32.572  39.538   0.350
60064W        W23623  11.147  28.936  12.554
60065W        W23624  44.340  43.955  13.965
60066W        W23625  22.021  20.617  11.067
60067W        W23626  11.195  18.216   2.404
60068W        W23627  18.742  18.604   3.151
60069W        W23628   5.798   0.340   4.142
60070W        W23629  37.900  19.707   3.765
60071W        W23630  29.589  19.696  12.342
60072W        W23631  30.149  21.754  13.955
60073W        W23632  14.656  18.679  12.432
60074W        W23633  44.765  25.602  11.898
60075W        W23634  13.784  25.522   0.477
60076W        W23635  31.595  44.810   1.342
60077W        W23636  25.484  14.252   2.772
60078W        W23637   9.723  35.543   3.354
60079W        W23638  10.713   8.719   0.832
60080W        W23639   7.681  36.080  13.969
60081W        W23640  15.210   1.448  13.333
60082W        W23641  22.196  22.559  13.872
60083W        W23642  14.145   9.266   2.869
60084W        W23643   9.666  35.973   5.081
60085W        W23644   5.734  32.075   0.801
60086W        W23645  30.031  17.074   0.828
60087W        W23646  27.500  17.627  12.537
60088W        W23647   5.862   9.345  13.971
60089W        W23648  43.369   7.251  14.393
60090W        W23649  37.062  43.013   2.205
60091W        W23650  31.108  14.096   1.313
60092W        W23651  21.528  23.102  13.812
60093W        W23652  41.041  39.487  14.334
60094W        W23653  24.685  25.700   4.289
60095W        W23654  15.181  44.297   2.740
60096W        W23655  17.731  37.398   2.807
60097W        W23656  17.191  37.436  13.038
60098W        W23657  20.274  38.875   4.179
60099W        W23658   8.170  43.499   1.883
60100W        W23659   3.286  11.145  13.433
60101W        W23660  38.435  24.102  11.529
60102W        W23661  20.766  23.594   2.684
60103W        W23662  21.199   5.900   0.902
60104W        W23663   2.343  39.526   1.254
60105W        W23664  22.592   9.755  14.013
60106W        W23665  35.476  31.484   0.261
60107W        W23666  30.503   2.464   4.765
60108W        W23667   3.308  16.714  14.380
60109W        W23668  22.626   9.178  13.881
60110W        W23669   0.911  37.427  13.868
60111W        W23670  32.405  29.043  13.933
60112W        W23671   7.186  23.660  13.888
60113W        W23672  21.587  19.094   2.765
60114W        W23673  24.593  43.805   0.833
60115W        W23674  24.141  15.297   2.281
60116W        W23675  12.803  20.060   0.874
60117W        W23676  30.934  29.158   3.358
60118W        W23677  38.939  38.471   4.330
60119W        W23678  22.102  37.992   1.341
60120W        W23679  32.455  44.871   2.700
60121W        W23680  41.421  43.994   0.924
60122W        W23681  21.525   5.829   4.707
60123W        W23682  26.172  18.242   4.308
60124W        W23683  24.075  42.361  13.474
60125W        W23684  12.643   2.959  10.609
60126W        W23685   3.266  14.151   1.885
60127W        W23686  20.675  34.003   0.792
60128W        W23687  25.087  29.087  12.534
60129W        W23688   0.789  34.378   9.931
60130W        W23689  44.996   0.742   3.755
60131W        W23690  34.944  16.252  14.515
60132W        W23691  20.160  11.292  12.384
60133W        W23692   8.345  19.269  11.571
60134W        W23693  22.070   0.950   1.875
60135W        W23694   2.236   0.264  12.426
60136W        W23695  29.452  13.137  10.429
60137W        W23696  41.796  32.429  13.545
60138W        W23697  13.154  12.124  13.841
60139W        W23698   0.754  26.685   0.831
60140W        W23699   7.262  29.532  14.366
60141W        W23700   0.883   1.970  14.346
60142W        W23701  21.608   2.805   2.821
60143W        W23702  40.950  21.056  11.116
60144W        W23703   2.897   8.391   1.274
60145W        W23704  41.793  14.297   0.947
60146W        W23705  36.081  11.844   3.241
60147W        W23706   5.253  37.372   0.323
60148W        W23707  34.981  13.275  12.918
60149W        W23708  19.686  14.821  14.810
60150W        W23709  19.712  42.388  14.481
60151W        W23710  38.437  13.640  13.012
60152W        W23711  16.177  34.446   4.241
60153W        W23712  14.821  42.972   4.205
60154W        W23713  10.196  19.211   3.353
60155W        W23714  43.455  38.005   1.211
60156W        W23715  17.259   1.416   4.699
60157W        W23716  17.776  14.201   2.750
60158W        W23717   2.312  19.055  11.538
60159W        W23718  41.911  18.236  10.931
60160W        W23719  23.198  14.804   3.721
60161W        W23720  22.596  42.413  11.023
60162W        W23721   2.868  43.834  14.434
60163W        W23722  36.090  42.020   3.274
60164W        W23723  28.027   5.849  14.344
60165W        W23724  30.508  43.475   0.961
60166W        W23725  24.697  18.190  12.388
60167W        W23726   2.443   0.782   3.246
60168W        W23727  43.800  38.855   4.767
60169W        W23728  27.034   1.755   0.825
60170W        W23729  31.124  10.326  12.941
60171W        W23730  32.550   4.387  12.355
60172W        W23731  22.545  20.595   4.133
60173W        W23732  24.706   2.262   2.869
60174W        W23733  41.032   0.920  13.794
60175W        W23734  30.472  36.891  14.999
60176W        W23735  22.678  10.220  13.928
60177W        W23736  26.015   6.703  14.941
60178W        W23737  28.981  26.633  12.010
60179W        W23738   7.270  23.504   0.425
60180W        W23739  11.779  20.629  10.993
60181W        W23740  27.089  41.913  12.412
60182W        W23741  32.967  40.486   5.315
60183W        W23742  29.081  21.130  13.314
60184W        W23743  17.661   6.838   2.285
60185W        W23744  42.428   6.778  12.093
60186W        W23745   7.302  23.154   4.833
60187W        W23746  17.137   1.752  12.880
60188W        W23747  33.490  42.938  10.574
60189W        W23748   0.465  44.436   0.848
60190W        W23749  32.087  23.198   1.777
60191W        W23750   2.266  17.693  10.496
60192W        W23751  33.895  30.414   2.220
60193W        W23752  30.638   6.773  12.883
60194W        W23753  13.645  17.176   0.375
60195W        W23754  24.173   1.351  13.873
60196W        W23755  33.003  13.307  12.990
60197W        W23756  20.262  16.240  11.031
60198W        W23757   1.386  42.906   9.930
60199W        W23758  37.926   9.182   1.351
60200W        W23759  15.651  10.753   1.841
60201W        W23760  37.870  11.370   4.290
60202W        W23761   9.781  36.497  11.027
60203W        W23762  37.523   3.735  12.466
60204W        W23763  27.452  44.871  12.535
60205W        W23764   5.386   2.905  11.068
60206W        W23765  42.928  22.746   2.262
60207W        W23766   5.197   0.450   3.741
60208W        W23767  25.133   4.731   3.149
60209W        W23768   0.456  34.085  12.027
60210W        W23769  15.620   6.909   3.215
60211W        W23770  20.525  25.544  12.930
60212W        W23771  33.963  37.923  13.529
60213W        W23772  29.148  27.097   0.785
60214W        W23773  13.229   9.272   3.707
60215W        W23774   8.788   1.918  12.408
60216W        W23775  37.068  19.137   2.267
60217W        W23776  10.255  27.471   3.216
60218W        W23777   9.656  11.732  11.458
60219W        W23778  29.594  37.057   4.206
60220W        W23779  10.823  16.683  11.007
60221W        W23780  31.625  43.919   0.356
60222W        W23781  36.883  18.213   1.905
60223W        W23782  26.482  44.367   5.321
60224W        W23783  10.303  21.230   2.711
60225W        W23784  23.159  33.443   0.383
60226W        W23785  27.670  10.262  12.389
60227W        W23786  36.360  20.557  12.892
60228W        W23787  24.995  42.355   1.821
60229W        W23788  20.050  30.599   2.219
60230W        W23789   7.393  22.745   4.833
60231W        W23790   5.429  28.931   0.963
60232W        W23791  33.924  42.997  10.971
60233W        W23792  25.033  34.369  12.354
60234W        W23793  18.233   7.242  12.840
60235W        W23794  37.453  40.424   3.660
60236W        W23795  18.771  38.503  12.536
60237W        W23796  22.544  11.794  10.614
60238W        W23797  23.531  17.624   1.927
60239W        W23798  23.724  32.891  10.902
60240W        W23799  40.307  27.131  13.030
60241W        W23800  29.612  42.310  14.498
60242W        W23801  12.775   3.222   3.766
60243W        W23802  37.394   1.864   1.864
60244W        W23803  19.764  27.572   2.415
60245W        W23804  34.388   0.944  14.390
60246W        W23805   3.278  10.850   0.379
60247W        W23806  13.344  44.431   0.265
60248W        W23807   6.234  11.225  14.287
60249W        W23808  24.038  42.905   3.182
60250W        W23809   1.444  33.065   1.315
60251W        W23810  40.011  12.146  14.342
60252W        W23811  21.250  22.581  12.028
60253W        W23812   1.894  29.512  10.636
60254W        W23813  19.769  23.727  11.423
60255W        W23814   2.437  29.570  12.912
60256W        W23815   3.458   4.861  13.415
60257W        W23816  38.866   4.273  11.594
60258W        W23817  41.858  35.358   4.195
60259W        W23818  16.771   8.807   2.345
60260W        W23819  11.329  37.036  10.413
60261W        W23820   5.696  32.550  14.428
60262W        W23821  13.731  17.665   0.249
60263W        W23822   9.849  28.937   0.321
60264W        W23823  42.858   8.199  14.445
60265W        W23824  20.729  35.480  12.349
60266W        W23825  39.015  28.464   4.699
60267W        W23826  17.219  22.669   4.810
60268W        W23827  12.831  42.408  11.436
60269W        W23828  44.862   1.459  11.403
60270W        W23829  22.183  41.533   0.285
60271W        W23830  16.213  11.337  12.861
60272W        W23831  32.043   8.868  10.015
60273W        W23832   0.968  22.199   3.258
60274W        W23833  36.461  17.088  11.609
60275W        W23834  36.525  12.816   3.698
60276W        W23835  13.643  39.841   1.360
60277W        W23836  28.017  36.439  12.988
60278W        W23837   0.284  20.064   4.126
60279W        W23838  24.215   3.783  14.848
60280W        W23839  23.988  37.901   4.196
60281W        W23840  34.399   0.366   0.314
60282W        W23841   7.733  27.072  10.423
60283W        W23842  15.824  44.447   0.461
60284W        W23843  44.757   6.384   2.296
60285W        W23844  43.005  35.081  12.383
60286W        W23845  43.822   2.904  14.915
60287W        W23846   4.759  23.542   0.839
60288W        W23847  29.989   2.289  10.422
60289W        W23848  15.253  20.763  10.597
60290W        W23849   9.671  14.768   0.419
60291W        W23850  42.425  14.751   3.672
60292W        W23851  13.822  10.346  10.433
60293W        W23852  21.544   8.900   1.419
60294W        W23853  27.157  40.454   4.277
60295W        W23854  12.645  30.599  13.424
60296W        W23855  29.443  28.997  10.940
60297W        W23856  20.111  38.495  13.324
60298W        W23857  14.595   0.772   3.701
60299W        W23858   2.919  10.709   4.672
60300W        W23859  38.376  43.874   0.968
60301W        W23860   5.857  26.077   0.423
60302W        W23861  44.270  37.025   2.284
60303W        W23862   7.847  42.344  12.995
60304W        W23863  35.501   4.335   1.819
60305W        W23864  15.089  40.310   0.903
60306W        W23865  37.892  43.902   2.845
60307W        W23866  13.710  17.677   2.259
60308W        W23867  35.051  26.155   3.642
60309W        W23868  43.505   8.819  10.456
60310W        W23869  10.695  19.645   1.390
60311W        W23870  15.320  29.942   3.736
60312W        W23871   6.909  10.215  12.395
60313W        W23872   3.954   7.763  14.030
60314W        W23873   0.425  15.276  11.562
60315W        W23874   8.727  18.150   4.289
60316W        W23875  18.287  11.296  13.512
60317W        W23876  41.954  31.404   2.776
60318W        W23877  10.845  23.559   1.364
60319W        W23878  39.948  40.871  10.624
60320W        W23879  17.293  20.029   1.721
60321W        W23880  37.867   7.378  12.973
60322W        W23881   7.725  13.288   1.785
60323W        W23882   1.956  43.308   2.886
60324W        W23883  25.634   5.261  10.511
60325W        W23884  13.284  36.070  13.839
60326W        W23885  33.929  20.212   4.331
60327W        W23886  26.502  14.758   0.951
60328W        W23887  42.781  12.243   0.795
60329W        W23888  38.496  30.041   9.480
60330W        W23889  19.571  34.420   4.705
60331W        W23890  43.516  25.039  13.330
60332W        W23891  27.687  17.115  11.066
60333W        W23892  35.077   5.194   0.776
60334W        W23893  36.093  14.232  10.948
60335W        W23894  36.517  30.046   4.188
60336W        W23895  15.625  20.273   0.276
60337W        W23896  38.844  22.557   2.299
60338W        W23897  37.511  20.537   1.820
60339W        W23898   3.757  30.048  14.337
60340W        W23899  14.323  43.947   4.188
60341W        W23900  19.677   1.831   0.741
60342W        W23901  12.815  43.372  12.937
60343W        W23902  24.583   3.305   2.363
60344W        W23903  18.791   7.195  13.995
60345W        W23904  36.915  27.980   2.253
60346W        W23905   4.766  30.019   0.335
60347W        W23906  33.009  23.605  13.839
60348W        W23907  30.930  44.926   0.774
60349W        W23908  13.189  31.457  13.896
60350W        W23909  30.499  31.634  11.059
60351W        W23910  35.950  28.581   1.377
60352W        W23911  24.029  36.909  14.895
60353W        W23912  43.452  17.231   3.709
60354W        W23913  15.233  44.769  13.383
60355W        W23914  25.598  24.635  11.532
60356W        W23915  38.842  31.406  10.416
60357W        W23916  10.680  19.723  13.016
60358W        W23917  12.299  30.907  14.902
60359W        W23918  11.242  22.238   3.251
60360W        W23919   9.273  18.584   4.768
60361W        W23920  25.964  16.297  13.475
60362W        W23921   3.306  28.540   0.800
60363W        W23922  17.612   3.912  14.468
60364W        W23923   6.870  31.113  14.390
60365W        W23924  17.697  13.755   4.740
60366W        W23925  41.477  13.206   1.800
60367W        W23926  11.190  38.522   1.888
60368W        W23927  36.419  13.781  12.995
60369W        W23928  23.718  17.710  12.430
60370W        W23929   0.352  17.153  11.400
60371W        W23930  21.136  19.740   0.380
60372W        W23931   0.958  18.247   1.258
60373W        W23932   3.865  35.474  11.115
60374W        W23933  23.000   9.746  14.347
60375W        W23934  37.380  29.606  12.840
60376W        W23935  31.431  34.027  12.065
60377W        W23936   1.287   9.329  11.520
60378W        W23937  35.468  16.290  14.396
60379W        W23938  14.270  29.940  11.888
60380W        W23939   5.213  33.406   4.135
60381W        W23940  26.112  14.245  13.501
60382W        W23941  30.961  43.475   1.347
60383W        W23942  17.755  19.096   0.320
60384W        W23943  14.672  21.600  14.290
60385W        W23944  31.473  24.483  14.467
60386W        W23945  18.643  31.148  12.356
60387W        W23946  27.986  15.233  11.083
60388W        W23947  13.675  16.258  12.896
60389W        W23948  23.136   1.419   3.284
60390W        W23949  17.148  29.012   1.891
60391W        W23950  26.043   1.427   4.609
60392W        W23951  10.833  17.628  13.052
60393W        W23952  14.768   3.243   1.279
60394W        W23953  16.712  15.737  10.477
60395W        W23954  17.704   0.942   0.398
60396W        W23955   6.401  26.512   3.631
60397W        W23956  34.961   7.369  14.334
60398W        W23957  18.079   4.290  10.905
60399W        W23958  11.255  16.102  12.866
60400W        W23959  12.661  30.092   1.402
60401W        W23960  40.516   1.972  12.014
60402W        W23961  17.791  34.397  11.962
60403W        W23962  31.472  37.025  10.591
60404W        W23963  33.453   7.699   2.306
60405W        W23964  23.585  28.137   4.118
60406W        W23965  18.222   0.959  13.470
60407W        W23966  37.518  31.045   5.181
60408W        W23967  39.031   9.224   2.784
60409W        W23968  24.125  40.548  11.392
60410W        W23969   2.301  20.233   3.738
60411W        W23970  11.634  38.566   4.699
60412W        W23971   9.877  42.332  14.978
60413W        W23972  19.044  24.715  13.947
60414W        W23973  30.158  10.796   4.180
60415W        W23974  31.470   1.385  12.422
60416W        W23975  15.793   2.876  12.858
60417W        W23976  38.374  21.719   1.386
60418W        W23977  40.308  33.589   2.852
60419W        W23978   2.292  30.646  11.018
60420W        W23979  11.683  16.248  13.480
60421W        W23980   1.889  24.217   1.379
60422W        W23981  21.039  33.969  12.931
60423W        W23982   4.811  21.036  12.993
60424W        W23983   4.943  15.597  10.407
60425W        W23984  42.323  39.007  14.771
60426W        W23985  10.745  32.924   2.744
60427W        W23986   1.369  15.120  11.423
60428W        W23987  26.649   2.887  11.902
60429W        W23988   3.295   3.320  11.971
60430W        W23989   5.710   8.204  13.820
60431W        W23990  44.800  42.948  13.957
60432W        W23991  32.634  30.633  13.424
60433W        W23992  37.848  24.670  12.013
60434W        W23993  33.039   1.739   0.885
60435W        W23994  40.848  24.556  10.441
60436W        W23995  11.361  14.197   2.889
60437W        W23996  37.371  39.063  14.985
60438W        W23997   7.701  15.590  11.408
60439W        W23998  14.718  42.031   1.341
60440W        W23999  35.916  13.342   3.814
60441W        W24000  36.460  30.968  12.363
60442W        W24001  27.105  12.720  14.388
60443W        W24002  10.737  34.564  13.496
60444W        W24003  38.380  35.360  13.528
60445W        W24004   2.402  22.533  10.510
60446W        W24005  16.689  38.360   4.784
60447W        W24006  31.020  28.061  13.330
60448W        W24007  11.262  14.752   0.876
60449W        W24008  24.168  30.075  14.774
60450W        W24009  14.302  22.173   9.976
60451W        W24010  18.778  14.297   0.464
60452W        W24011  25.677  33.952   2.209
60453W        W24012  32.975  28.168   3.801
60454W        W24013   3.804  34.902   0.292
60455W        W24014  12.831  34.085  13.836
60456W        W24015  40.915   6.833  13.499
60457W        W24016  41.338  21.189   2.800
60458W        W24017  30.503   3.770  11.468
60459W        W24018  12.717  13.649  12.075
60460W        W24019  20.593  38.912   2.345
60461W        W24020   7.721   4.409  12.020
60462W        W24021  37.368   6.287   2.289
60463W        W24022  24.543  28.107  12.096
60464W        W24023  28.993  29.110   4.607
60465W        W24024  41.000  38.909  12.835
60466W        W24025  40.455  21.541   1.782
60467W        W24026  33.491  21.749  12.394
60468W        W24027  29.535  26.144   4.216
60469W        W24028  24.724  23.178  12.563
60470W        W24029  41.390  31.432  12.473
60471W        W24030  34.458   4.424  14.343
60472W        W24031  16.105  17.686  14.888
60473W        W24032  17.715  34.409  11.103
60474W        W24033  17.215  39.836   3.362
60475W        W24034  43.974  29.962  13.003
60476W        W24035  32.582  17.738  11.528
60477W        W24036  40.811  26.689  13.942
60478W        W24037  44.426  10.650   1.759
60479W        W24038  35.041   4.885  12.090
60480W        W24039   3.317   3.822  12.066
60481W        W24040  15.232  20.035   4.612
60482W        W24041   1.349  17.640  13.955
60483W        W24042  26.622   6.316   2.358
60484W        W24043   7.782  10.203   4.334
60485W        W24044  44.782  19.741   0.907
60486W        W24045   6.759  10.645   1.910
60487W        W24046   9.863  41.898  13.959
60488W        W24047  30.936  38.551   4.285
60489W        W24048  29.033  44.927  14.796
60490W        W24049   6.237   7.281   3.642
60491W        W24050  34.383   8.256  12.850
60492W        W24051  25.013  21.097  11.432
60493W        W24052   5.875   6.855  10.619
60494W        W24053   6.259   2.802  12.388
60495W        W24054   5.900  23.194  11.426
60496W        W24055   7.259   7.839   1.283
60497W        W24056   3.901  35.591   2.863
60498W        W24057   2.879  22.605  13.351
60499W        W24058  43.326  11.666  14.918
60500W        W24059  43.877   3.331  11.446
60501W        W24060  37.914  19.202   0.961
60502W        W24061  38.897   9.174   4.742
60503W        W24062   2.419  30.469   0.272
60504W        W24063  14.748   1.746  14.939
60505W        W24064  17.620  19.715  10.538
60506W        W24065   2.798  35.382  11.559
60507W        W24066  10.316  26.981  13.498
60508W        W24067  26.634  19.233   4.621
60509W        W24068  32.115  44.767   4.816
60510W        W24069   5.384   6.233  14.344
60511W        W24070  38.827  18.054  10.593
60512W        W24071  27.566  44.809  13.957
60513W        W24072  29.942   2.864  11.109
60514W        W24073  16.767  42.447   2.768
60515W        W24074  23.538  30.457   2.289
60516W        W24075  35.498  20.165   2.209
60517W        W24076  20.713   7.379   2.824
60518W        W24077  21.680  36.850   2.188
60519W        W24078   3.932  28.975  14.327
60520W        W24079  31.586  38.944   1.433
60521W        W24080   0.395  22.555   2.301
60522W        W24081  20.717  18.636   4.731
60523W        W24082  38.484  17.148   0.416
60524W        W24083   2.811   3.804   1.858
60525W        W24084   3.416   4.784   4.168
60526W        W24085   1.387   8.761  14.898
60527W        W24086  26.179  32.079  14.390
60528W        W24087  21.201  25.655   2.888
60529W        W24088  18.258  15.090  13.957
60530W        W24089   6.195   5.769  10.468
60531W        W24090   6.238  33.604   4.648
60532W        W24091  24.984  12.288  10.617
60533W        W24092   5.230  17.265  10.012
60534W        W24093  16.571  23.111   0.795
60535W        W24094  39.952  41.975   0.286
60536W        W24095  31.464  43.989  11.603
60537W        W24096  30.012   7.395  10.504
60538W        W24097  42.391  15.720   3.250
60539W        W24098  38.507  43.339   2.215
60540W        W24099  42.828  22.016  10.054
60541W        W24100  13.148  17.649  13.492
60542W        W24101  10.658   1.394   1.373
60543W        W24102  43.902  21.650   2.412
60544W        W24103  22.513  40.949  13.370
60545W        W24104  10.704  38.067   3.160
60546W        W24105  33.037  21.255  11.953
60547W        W24106  27.005  11.153  10.410
60548W        W24107  21.101   3.906   2.662
60549W        W24108   8.237  15.719  11.537
60550W        W24109  40.548  19.611  12.067
60551W        W24110  16.213  40.345   1.881
60552W        W24111   3.371  29.522   0.298
60553W        W24112  33.626  25.492  13.019
60554W        W24113  43.987  41.308  10.483
60555W        W24114  12.147  29.968  11.019
60556W        W24115  38.466  35.912  12.825
60557W        W24116  37.986  44.492   2.325
60558W        W24117  19.087  25.601  12.540
60559W        W24118  44.809   0.980   0.351
60560W        W24119   1.299  33.388  14.341
60561W        W24120   7.823  28.140  12.925
60562W        W24121   6.734  16.239  12.560
60563W        W24122  26.112  20.555   5.173
60564W        W24123   2.403  37.923  13.482
60565W        W24124  26.062   6.823  10.587
60566W        W24125  18.185  23.187   3.658
60567W        W24126  38.011   3.345  13.837
60568W        W24127  11.356  12.352   1.714
60569W        W24128   4.333  36.570   2.337
60570W        W24129  38.898  43.455   1.367
60571W        W24130  18.652  19.590   0.377
60572W        W24131  27.017  12.298   3.229
60573W        W24132  40.363   8.734  12.522
60574W        W24133   3.345   3.371   2.268
60575W        W24134  24.145  20.078  11.032
60576W        W24135  43.487  12.238  14.433
60577W        W24136  27.007  32.029  10.068
60578W        W24137  10.663   8.302  13.914
60579W        W24138  28.477  21.706  11.445
60580W        W24139   6.340  39.401  11.401
60581W        W24140  44.837   7.211  11.996
60582W        W24141  17.703   9.204  10.990
60583W        W24142  10.829   4.276  12.347
60584W        W24143   5.377  40.498  13.812
60585W        W24144  20.141  18.271   3.287
60586W        W24145  12.139  40.021   3.637
60587W        W24146  43.997   2.238  13.041
60588W        W24147  31.143   7.878   3.715
60589W        W24148  16.599  11.766   3.732
60590W        W24149  40.502   0.345   1.834
60591W        W24150  41.887   8.675  10.608
60592W        W24151   8.848   4.368  11.583
60593W        W24152  25.623  38.418  10.981
60594W        W24153   8.259  23.122   3.334
60595W        W24154  26.970  43.920   2.272
60596W        W24155  19.239  13.701  14.300
60597W        W24156   8.856  35.884  14.769
60598W        W24157  16.596  18.183  12.512
60599W        W24158  12.229  44.998  10.414
60600W        W24159  42.463  31.517   3.840
60601W        W24160  17.659  41.308   1.433
60602W        W24161  25.139  39.043   1.355
60603W        W24162  11.788  19.161   4.751
60604W        W24163  22.620  23.511   4.737
60605W        W24164  37.466  10.814  14.315
60606W        W24165  25.032  27.678  13.007
60607W        W24166   0.793  29.515   4.828
60608W        W24167  19.734  16.724  10.625
60609W        W24168  30.927  19.176  12.056
60610W        W24169  20.577  33.584  14.303
60611W        W24170  24.537   6.685   1.337
60612W        W24171  38.506  24.047  13.533
60613W        W24172   4.390  29.072  10.942
60614W        W24173  32.400  34.885  10.486
60615W        W24174  10.673  12.705   2.881
60616W        W24175  13.723  28.961  11.457
60617W        W24176   4.268  37.528   3.374
60618W        W24177   3.827  33.047   2.333
60619W        W24178  19.584  35.450  14.478
60620W        W24179  35.590   9.820   1.737
60621W        W24180   7.745  30.047  14.880
60622W        W24181  39.340   8.681   2.889
60623W        W24182  29.010  35.521   0.955
60624W        W24183  23.173  17.158   1.855
60625W        W24184  14.176  37.506   3.379
60626W        W24185  10.238  19.643   3.336
60627W        W24186   9.735  38.508  11.939
60628W        W24187  43.501  38.494  11.587
60629W        W24188  13.290  33.527  11.992
60630W        W24189  12.787  21.718   0.810
60631W        W24190   7.249  16.185   0.371
60632W        W24191   6.808   0.483  11.953
60633W        W24192  36.484  11.688  11.893
60634W        W24193   5.402  28.598  10.979
60635W        W24194   5.209   5.386  12.486
60636W        W24195   9.643  19.566   1.791
60637W        W24196   5.873  21.085  14.871
60638W        W24197  42.808  17.581   2.383
60639W        W24198  43.292  38.986  12.455
60640W        W24199  34.009   7.249   0.824
60641W        W24200  33.918   0.389   1.866
60642W        W24201   1.831  18.658   1.353
60643W        W24202  39.819  32.528   0.301
60644W        W24203   3.872  21.186   0.299
60645W        W24204   9.313  29.668  12.525
60646W        W24205  27.568   2.415   4.609
60647W        W24206  24.625   0.788  13.053
60648W        W24207  43.807  40.881  13.023
60649W        W24208  32.087  42.457   2.695
60650W        W24209  16.571  23.558   4.607
60651W        W24210  35.485  32.438  14.483
60652W        W24211   6.280  26.076  14.765
60653W        W24212  28.540  31.922  12.577
60654W        W24213  30.585  12.774  10.576
60655W        W24214  38.860   7.286   0.751
60656W        W24215  30.048   3.916   2.273
60657W        W24216  37.074  24.609  14.878
60658W        W24217  12.227  39.440   1.739
60659W        W24218  34.095  12.357   4.811
60660W        W24219  18.086  13.265  12.906
60661W        W24220  11.749  12.774   1.313
60662W        W24221  24.654  29.480   2.749
60663W        W24222  39.049  30.164   4.789
60664W        W24223   1.853   4.267   1.403
60665W        W24224  31.901  19.564  10.544
60666W        W24225  38.884   3.406   1.864
60667W        W24226  43.511  11.161  14.963
60668W        W24227  28.615   0.404   0.339
60669W        W24228  33.062   1.959  13.504
60670W        W24229   1.433   6.256   0.447
60671W        W24230   8.702  19.547   2.690
60672W        W24231  13.196   3.452  14.788
60673W        W24232  20.173  27.987   4.614
60674W        W24233  12.795  35.406  13.453
60675W        W24234  41.460  17.222  11.404
60676W        W24235  39.334  34.431  12.546
60677W        W24236  28.603  42.440   2.795
60678W        W24237  42.909  44.413  12.824
60679W        W24238  22.513  29.030   5.282
60680W        W24239  33.994  35.049   4.313
60681W        W24240  42.899  25.094  12.990
60682W        W24241  23.100  16.091  13.543
60683W        W24242   8.243  11.823  13.469
60684W        W24243   3.888   3.860  11.382
60685W        W24244  38.872   9.693  12.072
60686W        W24245   8.657   9.662   4.277
60687W        W24246  10.331  19.574   3.826
60688W        W24247  34.398  14.319   2.198
60689W        W24248   6.893  43.878  14.844
60690W        W24249  30.099  17.718  11.030
60691W        W24250  16.692   0.366  13.981
60692W        W24251  42.020  32.113  11.612
60693W        W24252  14.313  35.077  11.086
60694W        W24253  25.134  11.675   1.414
60695W        W24254  35.103  38.477  11.521
60696W        W24255  13.660  34.947  14.780
60697W        W24256  11.258  34.991  11.948
60698W        W24257  39.406  22.087   4.785
60699W        W24258  18.653  16.275   4.605
60700W        W24259  25.169   1.756   4.252
60701W        W24260  35.854  25.987  10.425
60702W        W24261  12.361   5.368  12.494
60703W        W24262  32.072  25.522  13.966
60704W        W24263  17.287  40.910   3.263
60705W        W24264   7.692  12.260   4.304
60706W        W24265  40.410  42.382  13.917
60707W        W24266  26.546  14.133   2.359
60708W        W24267   1.299  41.880   2.901
60709W        W24268   6.859  21.599   4.767
60710W        W24269  30.067   7.824   0.777
60711W        W24270  36.012  36.522  12.422
60712W        W24271  21.567   0.467  11.915
60713W        W24272  38.070  14.739   1.748
60714W        W24273  35.900  35.953   0.945
60715W        W24274   8.663  27.448   2.307
60716W        W24275  23.692  42.912   2.857
60717W        W24276  28.077  10.873  13.418
60718W        W24277  37.979  12.149  12.961
60719W        W24278   5.405  11.165  13.866
60720W        W24279  41.458   0.875  13.994
60721W        W24280  44.982  35.599  11.044
60722W        W24281  42.290  30.467   2.304
60723W        W24282   7.712   8.897  12.487
60724W        W24283  26.033  25.122  14.492
60725W        W24284  37.448  44.891   1.251
60726W        W24285   0.882  20.259  13.005
60727W        W24286  36.926  14.780  13.414
60728W        W24287  23.202   8.208   1.446
60729W        W24288  27.125  37.413  13.400
60730W        W24289  32.930  30.108  13.332
60731W        W24290   9.654  21.175   0.755
60732W        W24291  36.086  15.144   2.195
60733W        W24292  19.629  38.954  11.593
60734W        W24293   9.180  41.943  12.036
60735W        W24294  28.029  20.576   1.354
60736W        W24295  21.160  23.135   0.283
60737W        W24296  27.987  23.096   1.262
60738W        W24297  35.097  26.632   4.598
60739W        W24298  20.668  20.094  14.509
60740W        W24299  44.883  36.085   2.773
60741W        W24300   2.868  28.604   1.226
60742W        W24301  11.236   9.182   1.424
60743W        W24302   9.238  33.459   1.864
60744W        W24303   3.928   1.245   2.370
60745W        W24304  30.535  42.433  10.953
60746W        W24305   1.316  31.474   0.344
60747W        W24306  12.188   3.226   1.289
60748W        W24307  36.967  31.439   1.906
60749W        W24308  39.468   4.335   4.302
60750W        W24309  39.475  32.498   5.280
60751W        W24310  21.710  17.306   2.208
60752W        W24311  25.698  20.718  11.511
60753W        W24312  22.666   0.471  10.131
60754W        W24313  23.027  18.764  11.858
60755W        W24314  30.996  19.144  13.873
60756W        W24315  36.983  42.405  13.032
60757W        W24316  20.532   3.782   2.706
60758W        W24317   3.842  29.532  14.365
60759W        W24318  31.971   1.341   0.755
60760W        W24319  37.403  22.746   4.189
60761W        W24320  40.386  44.409  12.847
60762W        W24321   4.447  22.533   1.278
60763W        W24322  23.589  30.611  12.092
60764W        W24323  42.310  38.945  10.460
60765W        W24324  38.419  28.979  11.467
60766W        W24325  33.970  35.493  10.511
60767W        W24326  42.821  28.030   1.254
60768W        W24327  34.574  28.497   2.824
60769W        W24328  42.383  39.014  14.395
60770W        W24329  21.173   6.345   2.195
60771W        W24330  22.736  16.780  10.966
60772W        W24331  10.185  14.282   3.855
60773W        W24332  33.929  26.037   1.399
60774W        W24333  24.709  31.929   4.278
60775W        W24334  23.637  16.606   0.332
60776W        W24335  43.999  33.564  13.384
60777W        W24336  15.706  24.676   4.283
60778W        W24337  38.454  29.948   1.697
60779W        W24338  26.188  37.974  10.627
60780W        W24339   3.869  39.954   3.820
60781W        W24340   6.368   6.284   2.278
60782W        W24341   4.380  36.382   4.279
60783W        W24342  43.314  32.444   3.173
60784W        W24343  11.221   4.438  13.803
60785W        W24344  30.606  26.538   0.815
60786W        W24345  33.621  39.915   0.806
60787W        W24346  40.020  41.425   2.354
60788W        W24347   2.771  20.737   4.129
60789W        W24348  35.950  28.097   3.729
60790W        W24349  29.113   2.385   4.338
60791W        W24350   4.399  27.162  14.888
60792W        W24351  33.926  40.799  12.512
60793W        W24352  17.634  36.586   3.664
60794W        W24353  28.490  40.830  14.280
60795W        W24354  13.813   2.399   0.434
60796W        W24355   3.722  43.375   2.411
60797W        W24356   8.217  32.615  14.382
60798W        W24357  32.591  19.666   4.183
60799W        W24358  40.909  15.665  13.434
60800W        W24359   2.766  27.063   3.724
60801W        W24360  44.999  38.374   2.739
60802W        W24361  31.560   7.285   0.731
60803W        W24362  31.964  16.284  10.617
60804W        W24363   0.959  15.707   2.193
60805W        W24364  26.689  36.497   3.690
60806W        W24365  10.774  15.113   1.346
60807W        W24366   2.382  23.226   4.823
60808W        W24367  41.028   6.815  12.086
60809W        W24368  28.999  18.050   2.864
60810W        W24369  43.946  18.083  10.406
60811W        W24370   0.410  10.700   0.805
60812W        W24371  13.623  27.612   4.703
60813W        W24372  21.591  41.489   4.730
60814W        W24373  26.145  14.773  11.537
60815W        W24374  44.323  43.486   2.723
60816W        W24375  14.341  44.933   1.302
60817W        W24376   0.474   7.752   3.359
60818W        W24377  21.748  16.146   4.337
60819W        W24378  25.088  14.633   5.226
60820W        W24379  17.700   4.357  12.486
60821W        W24380  11.829   5.744  12.972
60822W        W24381   3.755   5.726   0.779
60823W        W24382  18.171  21.716  13.501
60824W        W24383  27.995   6.360  10.504
60825W        W24384  26.139  11.673   0.881
60826W        W24385  42.508  32.123  10.929
60827W        W24386  26.140  11.841   3.238
60828W        W24387  27.641  15.159   3.321
60829W        W24388  35.903   9.294  13.910
60830W        W24389  44.269  41.323   3.767
60831W        W24390  17.785  32.917   0.936
60832W        W24391  19.062  29.579   3.750
60833W        W24392  15.736   5.304  13.409
60834W        W24393   7.844   1.397  13.538
60835W        W24394  26.533  19.719   4.153
60836W        W24395  28.597  32.513  10.902
60837W        W24396  26.142  14.154  13.921
60838W        W24397   9.720  22.059  14.892
60839W        W24398   5.196  16.304   4.619
60840W        W24399   4.450  18.766  10.416
60841W        W24400   7.337  42.452  12.557
60842W        W24401   9.394  16.758  14.769
60843W        W24402  31.521   5.870   0.897
60844W        W24403  14.656   7.727  14.791
60845W        W24404  23.181  30.106  12.485
60846W        W24405  33.413  14.661   0.937
60847W        W24406  44.312  42.825   2.378
60848W        W24407  29.508  11.645   0.943
60849W        W24408  35.427  23.592   1.302
60850W        W24409  21.594  26.622  14.839
60851W        W24410   2.413  38.436   4.639
60852W        W24411  14.752  36.410  12.442
60853W        W24412   8.869  19.283   2.190
60854W        W24413   5.339  13.170   1.805
60855W        W24414   2.723  11.357   3.676
60856W        W24415  26.563  23.075   0.426
60857W        W24416  35.377  40.358  10.904
60858W        W24417  27.026  40.410  13.395
60859W        W24418  20.227   6.770   2.298
60860W        W24419  35.946  19.750   0.835
60861W        W24420  32.077  10.818  10.138
60862W        W24421  12.307   0.958   4.283
60863W        W24422  42.960  32.014   4.749
60864W        W24423   0.857  31.412   0.737
60865W        W24424  42.787  38.440  11.967
60866W        W24425  27.008  20.562  11.608
60867W        W24426  23.563  10.155   5.094
60868W        W24427  31.452  42.020  10.524
60869W        W24428   8.702  19.546   0.906
60870W        W24429  19.185  19.209   2.317
60871W        W24430   9.322  40.852  13.886
60872W        W24431  24.007  39.015   5.147
60873W        W24432  28.161   5.806  13.546
60874W        W24433  22.997  21.240   2.724
60875W        W24434  37.860  34.867   1.896
60876W        W24435  14.270  31.560  13.534
60877W        W24436  26.067  26.675   1.879
60878W        W24437  41.013   4.932   3.173
60879W        W24438  38.849  32.981  12.916
60880W        W24439  11.136  42.402  14.402
60881W        W24440  22.608   1.473  13.019
60882W        W24441   0.428  35.012   3.644
60883W        W24442   6.695  20.043   1.760
60884W        W24443  23.061  23.988  12.886
60885W        W24444  40.827  19.703  13.012
60886W        W24445   2.851  41.347   2.868
60887W        W24446  38.359  39.425   3.330
60888W        W24447  22.188  39.503  14.288
60889W        W24448  13.821  14.804   4.273
60890W        W24449  22.581   6.886  11.860
60891W        W24450   0.762   0.915   1.376
60892W        W24451  27.157  35.052   1.725
60893W        W24452   0.806  14.108  14.815
60894W        W24453  31.579  30.653   1.245
60895W        W24454   4.809  43.887  13.792
60896W        W24455  30.650  34.990   0.255
60897W        W24456  18.104   3.730  14.301
60898W        W24457  41.002  41.023   3.345
60899W        W24458  34.112  40.802  12.887
60900W        W24459  23.025   5.365  12.858
60901W        W24460  19.753  11.191  11.091
60902W        W24461  33.419   5.401   4.721
60903W        W24462   8.736   5.355  11.932
60904W        W24463  22.680  15.224   0.311
60905W        W24464  11.217  30.094   2.895
60906W        W24465  10.835  10.306   4.350
60907W        W24466   9.237  15.665  10.992
60908W        W24467  28.575  17.305  12.833
60909W        W24468  26.007  28.132   0.865
60910W        W24469  32.397  35.092  11.053
60911W        W24470  41.526  37.842   4.217
60912W        W24471   9.330   4.442  14.026
60913W        W24472  30.040   9.725  10.961
60914W        W24473   3.710  34.077   1.443
60915W        W24474  41.982   2.428   2.902
60916W        W24475  26.105  23.735   2.317
60917W        W24476  30.128   3.744  11.451
60918W        W24477  19.264   1.869   3.804
60919W        W24478   6.723  14.281  13.415
60920W        W24479  26.037   7.265   0.430
60921W        W24480   8.709  32.040  10.638
60922W        W24481  36.502   2.862  13.059
60923W        W24482  34.116   6.215   4.671
60924W        W24483  36.016   4.773   3.315
60925W        W24484  38.546  13.720   0.820
60926W        W24485  21.185  12.749   4.759
60927W        W24486   2.822   7.350  11.467
60928W        W24487  21.728  33.043  11.593
60929W        W24488  11.220  25.037  10.158
60930W        W24489  39.007  36.874  12.891
60931W        W24490   1.412  24.618   0.403
60932W        W24491  28.448  32.121  12.936
60933W        W24492  40.470  19.591   1.910
60934W        W24493   4.229  21.042   2.751
60935W        W24494  36.002  36.426   0.819
60936W        W24495   0.876  38.530  11.090
60937W        W24496  29.084  10.639  13.514
60938W        W24497   0.982  14.729  10.951
60939W        W24498   6.313  38.000  12.092
60940W        W24499  11.308  42.405  13.469
60941W        W24500  38.928   3.283  14.778
60942W        W24501  28.183  31.922   3.753
60943W        W24502  23.071  40.862   2.189
60944W        W24503  15.112   9.337  11.038
60945W        W24504  17.091  38.371   4.250
60946W        W24505   6.714   9.233   1.288
60947W        W24506  35.450  37.403  12.056
60948W        W24507  15.223  23.216   4.117
60949W        W24508  41.011   9.735  13.418
60950W        W24509   3.324  10.804   3.745
60951W        W24510  11.143   5.289   4.210
60952W        W24511  28.446  29.124   1.883
60953W        W24512  30.592  29.928   2.673
60954W        W24513  42.924  31.974   4.227
60955W        W24514   4.235  35.902  12.548
60956W        W24515  34.973  36.013  12.459
60957W        W24516  44.755   9.849  14.999
60958W        W24517  24.023  18.151  10.896
60959W        W24518  25.634  40.535   1.254
60960W        W24519  40.908  33.415   4.802
60961W        W24520   3.429  34.064   1.311
60962W        W24521  33.546  11.774   4.770
60963W        W24522  42.292   2.814  11.918
60964W        W24523  27.087  44.811   4.704
60965W        W24524  21.119  36.014  10.977
60966W        W24525  17.261  33.530  12.913
60967W        W24526  17.098  29.444   0.945
60968W        W24527  19.644  23.087   0.429
60969W        W24528  22.727  39.928  12.912
60970W        W24529  14.779  12.232  10.919
60971W        W24530  39.464  19.616  11.965
60972W        W24531  34.543  22.031   3.214
60973W        W24532  30.598   6.367   0.869
60974W        W24533  20.235  12.305  14.296
60975W        W24534  31.601   2.229   4.288
60976W        W24535  25.637  33.603   2.315
60977W        W24536   5.718  34.587  12.948
60978W        W24537  23.507   3.284   4.681
60979W        W24538  38.466  21.130  10.987
60980W        W24539   0.806   0.811  10.644
60981W        W24540  21.201  16.166   0.731
60982W        W24541  43.821   0.871   4.299
60983W        W24542  41.990   8.398   3.382
60984W        W24543   3.356   1.355  13.970
60985W        W24544   9.770  15.719  11.587
60986W        W24545  18.179  35.470   4.174
60987W        W24546  38.937  44.877  10.413
60988W        W24547  15.282  37.537   4.612
60989W        W24548   2.298  10.213  12.845
60990W        W24549   3.296   2.274  13.374
60991W        W24550  37.990  37.398  13.057
60992W        W24551   7.847  33.587   5.119
60993W        W24552  18.764   3.770  14.367
60994W        W24553  21.186  43.452   2.729
60995W        W24554  26.152   4.323  10.592
60996W        W24555  10.313  16.670   5.242
60997W        W24556  30.061  22.691   2.375
60998W        W24557  39.428  41.818   2.774
60999W        W24558  31.467  17.778   2.190
61000W        W24559   5.422   2.747  12.451
61001W        W24560  34.909  31.639   3.359
61002W        W24561  31.945  19.177  12.954
61003W        W24562  10.726  19.141  14.936
61004W        W24563  26.651  19.054  11.047
61005W        W24564  40.357  37.882   3.794
61006W        W24565   6.300  15.135   1.708
61007W        W24566  37.018  35.425   1.745
61008W        W24567  15.277   1.295   0.841
61009W        W24568  19.209  23.114   2.267
61010W        W24569  18.665  27.494  10.523
61011W        W24570  24.157  15.112   1.422
61012W        W24571  13.616  17.577  10.404
61013W        W24572  38.928   2.933  10.112
61014W        W24573  11.681  40.355  14.951
61015W        W24574  31.501  25.643  12.048
61016W        W24575  36.447   0.412   4.285
61017W        W24576  44.783   5.311  13.812
61018W        W24577  37.913  44.325  10.451
61019W        W24578  20.112  32.940  12.045
61020W        W24579  18.159  36.898   2.190
61021W        W24580  38.045  24.631   4.682
61022W        W24581  39.858  30.118   2.842
61023W        W24582   8.347  21.686  14.012
61024W        W24583  22.152  44.846   2.690
61025W        W24584  22.541  43.950   4.173
61026W        W24585   0.294  10.380   1.761
61027W        W24586  41.297  28.053  10.418
61028W        W24587  10.808  24.655  14.425
61029W        W24588   1.969  20.210   5.160
61030W        W24589  16.616   4.765  11.966
61031W        W24590   4.934  12.200   1.310
61032W        W24591   7.401  41.372   0.436
61033W        W24592  25.201  37.839   3.702
61034W        W24593  29.026   9.315   4.241
61035W        W24594  21.206  41.337   1.231
61036W        W24595   4.859  34.549  12.836
61037W        W24596  30.086  43.389   2.245
61038W        W24597  22.200  10.277  10.953
61039W        W24598  16.314   8.691  11.577
61040W        W24599  17.173  23.184   4.598
61041W        W24600   2.421   5.410   3.232
61042W        W24601   0.456  35.970  11.599
61043W        W24602  12.728  14.779   5.190
61044W        W24603  40.482  25.144   2.261
61045W        W24604  39.314  22.093   1.435
61046W        W24605  44.784  23.994   9.925
61047W        W24606  13.248  20.566   2.861
61048W        W24607  39.065   9.822  13.881
61049W        W24608  34.506  15.687   3.752
61050W        W24609  39.483  38.998   3.177
61051W        W24610  21.197  32.620  14.415
61052W        W24611  44.787  40.537  12.993
61053W        W24612   1.465  10.337  12.387
61054W        W24613   4.868  42.994   2.362
61055W        W24614   7.397  14.161   0.280
61056W        W24615  28.042  40.310  10.539
61057W        W24616  30.637  12.673   1.809
61058W        W24617  32.970   6.198  13.864
61059W        W24618  31.032  17.663   3.267
61060W        W24619  22.533  39.397   3.786
61061W        W24620  33.919   8.287   9.454
61062W        W24621   3.828  16.645   1.736
61063W        W24622  21.107  14.626  13.839
61064W        W24623  33.498   5.845   2.667
61065W        W24624   9.205  28.560  13.981
61066W        W24625   9.710  40.047   2.260
61067W        W24626  43.982  30.086   2.234
61068W        W24627  11.244   6.790  10.049
61069W        W24628  20.160   8.865   4.835
61070W        W24629  43.477  17.177  10.071
61071W        W24630  32.432  42.305  11.444
61072W        W24631  18.591   7.820  12.477
61073W        W24632  26.532  16.238   4.179
61074W        W24633  29.135   2.240  10.416
61075W        W24634  30.556  28.003   0.931
61076W        W24635  17.067  32.112  13.854
61077W        W24636  11.817  19.564  10.152
61078W        W24637   0.316   4.440   4.764
61079W        W24638   4.255  20.530   1.811
61080W        W24639   3.886   0.315  12.862
61081W        W24640   6.878  15.724  12.988
61082W        W24641   6.421  25.109  11.065
61083W        W24642   3.388  34.487  11.913
61084W        W24643  13.654  38.396  12.010
61085W        W24644  14.207  36.093   3.835
61086W        W24645   0.349  18.603  13.806
61087W        W24646  23.153  13.669   1.241
61088W        W24647   5.756  40.971   4.608
61089W        W24648  34.460   4.222  11.941
61090W        W24649  41.528   0.420  11.590
61091W        W24650  24.684  16.797  10.583
61092W        W24651  26.671  40.020  11.514
61093W        W24652   9.834   3.942  11.971
61094W        W24653   0.923   7.265   0.482
61095W        W24654   9.184  44.278  11.497
61096W        W24655  44.979  27.465   2.686
61097W        W24656  34.907  44.418   4.646
61098W        W24657  20.723  38.820   1.781
61099W        W24658  12.789   9.748   2.890
61100W        W24659  43.965  44.001  12.360
61101W        W24660  25.089  43.810   2.232
61102W        W24661  16.594  44.488  10.409
61103W        W24662   3.743  42.522  14.343
61104W        W24663   2.394  36.570  14.277
61105W        W24664   5.217   4.759   3.273
61106W        W24665  24.993  12.796  11.059
61107W        W24666  13.226  36.934   4.298
61108W        W24667   0.926  24.045   3.282
61109W        W24668  42.442  19.062   1.816
61110W        W24669  19.097  17.095   1.719
61111W        W24670  21.609  21.046   0.924
61112W        W24671  44.987  17.165  13.843
61113W        W24672   1.891  33.103   1.853
61114W        W24673  43.312  43.460   2.285
61115W        W24674  30.515  36.361  10.445
61116W        W24675  19.156  40.355  10.968
61117W        W24676  32.579  17.271  13.922
61118W        W24677   7.749  10.746   1.705
61119W        W24678  39.844  16.654   2.396
61120W        W24679  40.356  15.750  11.990
61121W        W24680  29.038  13.698   3.329
61122W        W24681  39.502  18.688   0.760
61123W        W24682  29.623  20.545  13.031
61124W        W24683  42.932   4.796   1.263
61125W        W24684   9.646  18.219   3.706
61126W        W24685  37.961  12.265   2.712
61127W        W24686   6.843  27.940   4.688
61128W        W24687  27.080  13.846  11.387
61129W        W24688  30.030  30.910   0.260
61130W        W24689  35.397  16.184  12.409
61131W        W24690  33.930  37.056   4.689
61132W        W24691   7.308  38.911   5.292
61133W        W24692  39.410   5.267   0.352
61134W        W24693  20.273  14.295  13.497
61135W        W24694   5.402  29.555  12.398
61136W        W24695  38.019  13.210  11.604
61137W        W24696  35.979  26.109   2.851
61138W        W24697  21.140  14.699   3.263
61139W        W24698  19.759  35.414  10.901
61140W        W24699   1.307  32.551   3.329
61141W        W24700  17.709  30.005  14.828
61142W        W24701  29.665  42.885  14.368
61143W        W24702  15.146   4.347   0.298
61144W        W24703  17.582  19.121  14.965
61145W        W24704   6.741  26.506   2.815
61146W        W24705  33.460  40.950  12.080
61147W        W24706  16.151   2.374   2.319
61148W        W24707  23.986  31.577   2.671
61149W        W24708  14.593   6.417   1.449
61150W        W24709  37.451  41.407   0.331
61151W        W24710  22.152   1.937   2.797
61152W        W24711   1.745   0.908  11.441
61153W        W24712   9.797   2.471  11.012
61154W        W24713   3.921  22.088  14.761
61155W        W24714   5.403  11.203   2.743
61156W        W24715  33.099  35.021  11.415
61157W        W24716  19.079  24.045   3.817
61158W        W24717   4.751   0.369  11.962
61159W        W24718   0.944   5.885   4.337
61160W        W24719  22.200  12.747   2.286
61161W        W24720   2.957  15.156  12.430
61162W        W24721  23.534  18.558   3.323
61163W        W24722  32.053  40.838   9.436
61164W        W24723   3.360  30.535  14.905
61165W        W24724  14.683  44.436  10.010
61166W        W24725  37.835  23.703   4.628
61167W        W24726  31.108  26.638  14.484
61168W        W24727  13.802  21.096   4.763
61169W        W24728  20.168   5.868   3.206
61170W        W24729  37.368  43.855   1.707
61171W        W24730  19.141  15.309  12.033
61172W        W24731  13.227  18.547  13.350
61173W        W24732   9.752  36.385   2.703
61174W        W24733   9.643  25.538   3.719
61175W        W24734  24.504   4.698  13.431
61176W        W24735   0.254  19.079  12.568
61177W        W24736  35.550  40.014   4.834
61178W        W24737  13.638  10.156  14.912
61179W        W24738  12.242  25.031  13.997
61180W        W24739   4.274  18.105  12.524
61181W        W24740  44.458   9.666   3.831
61182W        W24741  39.040  44.436   5.165
61183W        W24742  13.710  43.955   3.289
61184W        W24743   7.375   3.824   4.812
61185W        W24744  39.534  30.064   3.709
61186W        W24745  12.669  35.892   5.209
61187W        W24746  31.484  13.695  11.128
61188W        W24747  27.019  22.695  10.136
61189W        W24748  22.701  28.105   2.844
61190W        W24749   4.251  12.816  13.317
61191W        W24750  28.633  21.218  13.439
61192W        W24751  22.235  23.046  11.997
61193W        W24752  12.305  43.328   1.403
61194W        W24753   4.243  23.119  11.932
61195W        W24754  28.635  35.022   2.799
61196W        W24755   2.960   0.402   1.374
61197W        W24756  15.148  27.131  14.892
61198W        W24757  27.578  15.606  12.466
61199W        W24758  11.299  38.060   0.405
61200W        W24759  22.134  14.761   0.920
61201W        W24760   8.246  34.881   3.235
61202W        W24761  20.738  13.326  13.838
61203W        W24762  34.563  24.148   4.680
61204W        W24763  12.708  17.678  12.475
61205W        W24764  24.136  34.113   1.240
61206W        W24765  15.665   3.930   4.283
61207W        W24766  25.010  25.013   0.436
61208W        W24767  34.975  44.326  14.338
61209W        W24768  15.775  27.063   3.230
61210W        W24769  27.494  35.929   2.890
61211W        W24770  41.387  39.318  12.566
61212W        W24771  21.145   4.289   1.817
61213W        W24772   0.884  34.431   5.286
61214W        W24773  23.665   7.335  13.440
61215W        W24774  14.117  34.892   2.848
61216W        W24775  41.368  15.104   2.372
61217W        W24776   4.393  29.004   4.636
61218W        W24777  29.110   1.338   4.747
61219W        W24778  30.912  38.564  10.153
61220W        W24779  24.640  20.063  11.987
61221W        W24780   4.334  43.841   0.895
61222W        W24781  20.141   5.758   1.810
61223W        W24782  35.377  28.557  10.509
61224W        W24783  30.652  11.828  14.012
61225W        W24784  38.497  20.650   4.790
61226W        W24785  31.538   9.669   3.319
61227W        W24786  43.417  10.816   1.401
61228W        W24787  43.877   1.975  12.572
61229W        W24788   0.485  24.529  14.849
61230W        W24789  12.224  37.872   2.835
61231W        W24790  25.094  38.501   4.328
61232W        W24791  11.835  40.853  14.872
61233W        W24792  21.716  41.458  14.869
61234W        W24793  22.714  31.070   0.924
61235W        W24794  39.837   5.901  10.623
61236W        W24795   8.279  31.474   3.670
61237W        W24796   9.826   6.838  11.538
61238W        W24797  19.112  13.722  13.971
61239W        W24798  17.101  32.422  10.931
61240W        W24799  17.610  26.093  12.087
61241W        W24800  12.137  27.050   1.288
61242W        W24801  29.017   7.749  12.026
61243W        W24802  42.319  21.548   3.775
61244W        W24803   0.279  33.943  12.538
61245W        W24804  38.494  20.535  13.351
61246W        W24805  11.139   7.827  12.978
61247W        W24806  15.219  20.216   3.859
61248W        W24807   9.674  13.172   3.700
61249W        W24808   4.297  35.508   3.690
61250W        W24809  42.410  14.115  12.521
61251W        W24810   6.815  43.327  11.573
61252W        W24811  35.019  31.030   3.213
61253W        W24812  38.048  22.214   0.960
61254W        W24813  33.432   5.688   3.345
61255W        W24814  33.529   9.364  13.346
61256W        W24815  43.874   9.713  14.925
61257W        W24816   9.228   3.307  14.978
61258W        W24817  39.356  33.018   0.779
61259W        W24818  39.043  43.858  11.923
61260W        W24819  12.336  30.978   0.967
61261W        W24820  16.306  29.638  10.537
61262W        W24821  23.040   5.279   0.412
61263W        W24822  20.729  29.004  13.824
61264W        W24823  25.541  34.498   4.313
61265W        W24824  13.295   1.792  13.442
61266W        W24825  26.700  13.172   3.269
61267W        W24826   7.865   0.374   3.224
61268W        W24827  22.577  43.286  12.936
61269W        W24828  41.830   3.864   0.300
61270W        W24829  14.219  19.644  12.538
61271W        W24830  36.421  32.537   0.947
61272W        W24831  23.511  14.651   0.730
61273W        W24832  16.656  26.184   3.795
61274W        W24833  17.191  36.873   3.721
61275W        W24834  22.033  37.350  11.957
61276W        W24835   1.408  30.633   1.224
61277W        W24836  14.315  16.137  12.559
61278W        W24837  16.272   3.397   3.675
61279W        W24838  14.323  19.615   3.804
61280W        W24839  33.116  28.987   4.659
61281W        W24840   8.863  22.208  12.017
61282W        W24841  44.259   5.770   3.384
61283W        W24842  32.931   4.279  14.861
61284W        W24843  38.832  37.472   4.832
61285W        W24844  29.939  16.594   3.831
61286W        W24845  15.769  24.217   1.829
61287W        W24846  16.196  27.058  13.948
61288W        W24847   9.811   3.274  13.029
61289W        W24848  27.460  24.061   4.600
61290W        W24849  42.889  42.801   3.177
61291W        W24850   0.265  33.599   2.702
61292W        W24851  44.261  27.481   1.739
61293W        W24852  19.592  30.613   3.192
61294W        W24853  36.013   2.806   2.819
61295W        W24854  15.198   3.822  14.961
61296W        W24855  27.124  24.031  12.864
61297W        W24856  41.023  18.184  11.018
61298W        W24857  33.591  27.665   3.830
61299W        W24858   3.325  29.997   1.899
61300W        W24859  22.199  22.522   3.819
61301W        W24860  28.525  19.579  11.504
61302W        W24861  16.660  23.077   1.217
61303W        W24862  34.451   3.918   1.363
61304W        W24863   2.940  36.451  12.051
61305W        W24864  43.499  22.571   1.407
61306W        W24865   7.229  20.233   4.623
61307W        W24866  22.207   0.764   4.131
61308W        W24867  37.402  25.472  10.538
61309W        W24868  23.145   6.704   4.284
61310W        W24869  32.003  40.807   3.192
61311W        W24870  30.939  17.733  10.413
61312W        W24871  37.965  26.091   2.739
61313W        W24872  39.883   8.901   4.688
61314W        W24873  11.311  33.445   4.711
61315W        W24874   8.241  14.252  10.048
61316W        W24875  32.987  38.057   2.281
61317W        W24876   7.249  24.025  13.883
61318W        W24877  27.681  41.328   0.463
61319W        W24878  38.343  44.812   1.373
61320W        W24879  41.934  27.115   3.157
61321W        W24880  22.223  33.100  14.973
61322W        W24881  30.098  21.683  11.007
61323W        W24882  23.733  19.755  13.310
61324W        W24883  19.216  15.759  13.454
61325W        W24884  20.076  26.481  14.877
61326W        W24885  25.655  44.454  12.075
61327W        W24886  27.145  15.585   4.771
61328W        W24887  20.214  17.661   0.428
61329W        W24888  20.523  16.107   0.355
61330W        W24889  14.768   0.399  12.569
61331W        W24890  38.366  12.200  14.961
61332W        W24891  17.735   6.881   0.362
61333W        W24892  37.434  42.504   0.315
61334W        W24893  34.501   9.714  12.479
61335W        W24894  39.437  26.955   0.762
61336W        W24895  41.854  33.989   2.408
61337W        W24896  34.080  32.109  12.021
61338W        W24897  41.503  10.786  13.901
61339W        W24898  21.584  15.766   1.441
61340W        W24899  27.071  40.982  14.406
61341W        W24900  15.149  34.072  13.804
61342W        W24901  22.251  25.003  12.346
61343W        W24902  28.675  32.949  11.499
61344W        W24903  42.839  34.572  14.463
61345W        W24904   2.294   9.783   0.753
61346W        W24905  15.636  26.193   3.781
61347W        W24906  27.994  27.677   3.315
61348W        W24907  13.609  28.644   0.774
61349W        W24908   2.786  10.791  14.437
61350W        W24909  25.489   9.264  14.826
61351W        W24910  35.940   1.924   1.883
61352W        W24911  34.587  18.279  14.386
61353W        W24912   8.216  21.618   0.262
61354W        W24913  44.816  26.501  11.417
61355W        W24914   6.869  40.812   4.240
61356W        W24915  44.791   6.696  12.003
61357W        W24916  24.064  17.646   1.389
61358W        W24917  35.887  14.702  11.448
61359W        W24918   9.306   9.765  13.031
61360W        W24919  17.791   0.845   2.229
61361W        W24920  24.155  14.103  12.367
61362W        W24921  23.216  32.096   2.901
61363W        W24922   9.668   4.771   0.435
61364W        W24923  13.719  25.982   3.385
61365W        W24924  23.179  13.110   3.721
61366W        W24925  37.027   9.671  13.358
61367W        W24926  12.294  22.504   5.251
61368W        W24927  42.458  41.464  10.583
61369W        W24928   4.301  28.063   0.953
61370W        W24929  14.254   5.380  11.407
61371W        W24930  31.949  19.625   2.281
61372W        W24931   1.240  35.984   2.183
61373W        W24932  12.276  13.842  13.310
61374W        W24933  33.419   9.395   0.784
61375W        W24934  12.259  11.171  12.994
61376W        W24935  28.184  38.983  12.438
61377W        W24936   3.927  44.341  11.886
61378W        W24937  38.999  28.098   5.296
61379W        W24938  10.336  21.099   1.746
61380W        W24939   5.254   3.406  10.910
61381W        W24940  16.754  15.260  14.903
61382W        W24941  42.954  21.245   2.834
61383W        W24942  11.757   0.251   0.748
61384W        W24943  18.695  41.857  11.128
61385W        W24944  32.114   0.933   5.150
61386W        W24945  28.996  37.431   3.764
61387W        W24946  18.574  13.174  14.961
61388W        W24947  14.664  16.570   3.667
61389W        W24948  24.683  15.222  10.445
61390W        W24949  19.142   7.707   2.703
61391W        W24950   7.287  15.746  14.960
61392W        W24951  10.842  13.798   3.218
61393W        W24952  39.505  10.216  12.373
61394W        W24953  11.814   7.203   0.290
61395W        W24954  10.686  40.455   3.245
61396W        W24955  24.992  10.204   3.255
61397W        W24956  25.045  34.990  14.860
61398W        W24957  22.086  31.453   0.290
61399W        W24958  29.470   3.375   5.272
61400W        W24959  25.518  33.082   2.240
61401W        W24960  28.631  44.271   2.238
61402W        W24961  20.172  32.570   5.700
61403W        W24962  31.515  34.879   3.204
61404W        W24963  19.701  20.236  12.465
61405W        W24964  31.539  33.595   0.905
61406W        W24965   5.366  17.110   0.317
61407W        W24966  19.555   7.848   1.854
61408W        W24967  34.981  15.604   0.948
61409W        W24968  19.533   6.887  11.571
61410W        W24969   4.847  14.729  12.978
61411W        W24970  20.523  19.760   3.671
61412W        W24971  11.288  40.305   4.347
61413W        W24972  24.123  38.875   4.602
61414W        W24973  26.040  14.095  14.310
61415W        W24974  36.461  26.665   4.187
61416W        W24975   5.913  33.946  13.019
61417W        W24976  16.718   3.394  14.463
61418W        W24977  11.819   5.234  14.275
61419W        W24978  21.598  43.785  13.837
61420W        W24979   4.368  19.043   4.634
61421W        W24980  31.451  14.660   1.300
61422W        W24981   0.363  33.947  13.340
61423W        W24982  33.401  43.977   2.303
61424W        W24983  24.008   0.337   0.459
61425W        W24984  33.413  10.256  14.989
61426W        W24985  40.410  17.568   0.810
61427W        W24986  27.187  20.714   0.779
61428W        W24987  37.564  44.464   1.364
61429W        W24988  37.031  32.541  14.886
61430W        W24989  37.513  10.234   1.768
61431W        W24990  44.292  37.886   2.896
61432W        W24991   7.876   6.780   0.262
61433W        W24992  15.601  22.225  13.458
61434W        W24993  41.893   9.212  14.450
61435W        W24994  27.514  33.470  12.474
61436W        W24995  23.992  33.558  12.996
61437W        W24996  20.127  14.777   1.423
61438W        W24997  43.295   9.661  11.559
61439W        W24998  20.199   4.777   0.839
61440W        W24999   4.323  31.031  10.977
61441W        W25000  16.593  26.622   2.271
61442W        W25001  21.530  36.517  13.024
61443W        W25002   2.936   7.416  13.538
61444W        W25003  32.610  32.086   4.311
61445W        W25004  42.430  16.674  12.381
61446W        W25005   2.453   5.795  11.865
61447W        W25006  39.902   5.293  12.863
61448W        W25007  22.065  17.303  10.425
61449W        W25008  19.129   4.275  11.895
61450W        W25009  39.365   6.694  11.588
61451W        W25010  28.061  29.978   0.411
61452W        W25011  27.548  28.447  11.954
61453W        W25012   4.209  16.159   2.673
61454W        W25013  27.982  24.137  13.994
61455W        W25014  28.155  32.922  14.373
61456W        W25015  19.651  23.576   0.792
61457W        W25016  26.163  18.090  12.545
61458W        W25017   4.768  41.394   0.730
61459W        W25018   8.374   0.795   1.755
61460W        W25019  26.002  43.406   4.624
61461W        W25020  21.618  41.921  11.934
61462W        W25021  33.535  19.562  13.813
61463W        W25022  12.704  41.404  10.452
61464W        W25023  17.731  30.624  12.399
61465W        W25024  15.751  33.621  11.882
61466W        W25025  31.015  37.429   4.681
61467W        W25026  19.254  36.048   3.374
61468W        W25027   0.311  20.524  12.931
61469W        W25028  34.101  11.201  12.957
61470W        W25029  10.740  28.602  14.282
61471W        W25030  44.474  36.070   1.370
61472W        W25031   1.974   0.342  13.474
61473W        W25032  24.522  24.032   0.373
61474W        W25033  16.264  36.428  12.069
61475W        W25034  27.177  20.115   4.821
61476W        W25035  13.203  21.111  12.946
61477W        W25036  14.256  20.531   3.752
61478W        W25037  25.018  32.894   3.651
61479W        W25038  37.852  30.103  11.980
61480W        W25039  41.479   2.334   2.244
61481W        W25040   2.460  33.884   3.342
61482W        W25041  15.136  39.542  11.523
61483W        W25042  42.437  22.223  10.486
61484W        W25043   4.368  17.758  14.278
61485W        W25044  29.955  18.190  14.972
61486W        W25045  23.639  40.388   2.268
61487W        W25046  10.189   4.424   3.737
61488W        W25047  13.831  27.994   0.840
61489W        W25048  22.096  13.801   1.706
61490W        W25049   0.966  42.789  12.466
61491W        W25050   9.753  32.136   1.696
61492W        W25051   3.329  28.608   2.189
61493W        W25052  13.161   3.351  14.404
61494W        W25053   7.396  24.104   2.832
61495W        W25054  31.078   4.408   0.912
61496W        W25055   1.839  29.539   4.614
61497W        W25056  14.831  34.498  12.917
61498W        W25057  43.020  24.533  11.383
61499W        W25058  18.703  11.823   0.253
61500W        W25059  37.340  33.072  12.539
61501W        W25060  15.605  23.559   5.728
61502W        W25061  39.881  33.914   1.330
61503W        W25062  29.026  29.591  13.547
61504W        W25063  37.885  38.030   1.420
61505W        W25064   7.821  30.456   5.133
61506W        W25065  29.122  35.072  14.516
61507W        W25066  21.642  43.340   3.780
61508W        W25067  25.577   7.300   0.326
61509W        W25068  11.364  24.172   3.653
61510W        W25069  33.005  19.263   4.797
61511W        W25070  16.700  13.634  14.409
61512W        W25071  35.856  12.717   2.249
61513W        W25072  21.192  10.203  14.330
61514W        W25073  30.922  23.552  11.008
61515W        W25074  23.218  44.489  11.016
61516W        W25075  21.246  36.080   3.298
61517W        W25076  39.946  11.650   4.660
61518W        W25077  41.488  27.527   1.367
61519W        W25078  14.194   0.970   4.603
61520W        W25079  17.561  20.751   1.216
61521W        W25080   0.483  20.074   3.279
61522W        W25081  32.898  23.211   4.330
61523W        W25082  34.059  32.086  11.410
61524W        W25083  21.104  28.669  11.042
61525W        W25084  36.034  40.444   3.772
61526W        W25085  24.227  39.855  12.053
61527W        W25086   3.917  25.629   1.894
61528W        W25087  43.453  22.038   0.929
61529W        W25088   5.415  27.160   1.911
61530W        W25089   2.897  19.597   3.810
61531W        W25090  22.070  37.087  13.892
61532W        W25091  44.357  43.446   4.655
61533W        W25092  25.045  43.912  13.984
61534W        W25093  33.502  12.240  12.469
61535W        W25094  14.795  18.128  10.143
61536W        W25095  42.851  39.429   2.837
61537W        W25096  41.471  26.000   4.802
61538W        W25097  32.113  13.652  14.792
61539W        W25098   4.798  19.256   1.303
61540W        W25099  25.138  27.966  14.422
61541W        W25100  11.654  39.425  11.901
61542W        W25101  32.523  37.947   0.287
61543W        W25102  18.179  33.130   4.708
61544W        W25103  24.171  35.000   2.379
61545W        W25104   5.750   9.360   4.650
61546W        W25105  29.471  43.767  13.997
61547W        W25106  37.051  34.120  14.432
61548W        W25107  40.443   4.335   4.633
61549W        W25108  17.627  19.159   0.767
61550W        W25109  38.336   6.794  13.528
61551W        W25110  39.503  25.612   2.785
61552W        W25111  15.639  16.126   4.658
61553W        W25112   1.840  39.875  13.836
61554W        W25113  10.867  22.227   0.279
61555W        W25114   4.449   3.896  11.012
61556W        W25115   1.885  34.911  12.473
61557W        W25116  26.491   9.295   3.663
61558W        W25117  39.022   6.761   0.872
61559W        W25118  28.951   1.814   2.247
61560W        W25119  15.213  14.805  13.915
61561W        W25120  35.390  18.562  11.519
61562W        W25121  27.059  35.904   5.322
61563W        W25122  11.643  25.145   4.728
61564W        W25123   1.919   5.197  13.519
61565W        W25124   5.430  29.980   0.935
61566W        W25125  37.075   8.794  11.478
61567W        W25126  18.185   4.806  13.453
61568W        W25127  25.199  16.617   4.774
61569W        W25128  19.678  23.709   2.207
61570W        W25129  27.997  35.584  14.918
61571W        W25130  43.338  41.022   0.303
61572W        W25131  43.455  28.958   3.307
61573W        W25132   5.416   0.276  12.512
61574W        W25133  31.597  33.981  12.506
61575W        W25134  27.589   4.449  11.498
61576W        W25135  24.183   7.311  14.472
61577W        W25136  39.397  44.294   2.284
61578W        W25137  24.551   0.799   1.827
61579W        W25138  32.113  43.422  12.871
61580W        W25139  41.816  29.154  14.429
61581W        W25140  38.884  36.399   2.837
61582W        W25141   6.386  15.310  13.013
61583W        W25142  29.010  25.208   2.211
61584W        W25143  21.112   0.779  12.947
61585W        W25144   4.918  31.072   0.472
61586W        W25145   4.759   3.419  13.457
61587W        W25146   0.805  25.995   0.734
61588W        W25147  42.776  36.016  14.463
61589W        W25148  31.982   1.402   1.719
61590W        W25149  32.888  38.000  13.353
61591W        W25150  12.293  21.714  14.469
61592W        W25151  41.520  42.287  14.449
61593W        W25152  39.841  39.519   0.374
61594W        W25153   2.805   0.316  14.301
61595W        W25154  35.423  44.453   3.173
61596W        W25155  36.503   6.885  12.475
61597W        W25156  16.229   8.192  14.308
61598W        W25157  24.122  30.440   0.348
61599W        W25158  11.363  18.270   1.818
61600W        W25159   9.791  13.270   4.801
61601W        W25160  25.020  19.672  13.515
61602W        W25161   4.852  19.690  13.888
61603W        W25162  43.870  25.216  13.513
61604W        W25163  22.101   8.248   2.781
61605W        W25164  26.175  16.288  14.460
61606W        W25165  19.744  35.923   0.838
61607W        W25166  20.085  10.672  11.108
61608W        W25167  30.004  39.449   3.839
61609W        W25168  25.658  19.167  14.800
61610W        W25169  34.080   9.858  14.854
61611W        W25170   9.867  40.392   1.294
61612W        W25171  19.241  42.023  13.395
61613W        W25172   7.212  36.488   4.674
61614W        W25173  34.574  26.167   2.698
61615W        W25174  11.689  31.593  12.385
61616W        W25175  27.953  14.131   5.161
61617W        W25176  20.205  35.411  14.977
61618W        W25177   8.763  37.837  11.384
61619W        W25178  19.272  22.541   1.271
61620W        W25179  29.443   7.188   9.977
61621W        W25180   8.875  21.574  13.057
61622W        W25181  32.462   7.274  14.994
61623W        W25182  27.632  28.633   1.387
61624W        W25183   0.775  22.680   0.279
61625W        W25184  41.895  38.824   0.753
61626W        W25185   9.160  14.683   3.786
61627W        W25186   3.374   0.745  13.938
61628W        W25187  20.100   7.887  11.435
61629W        W25188  12.769  13.240   2.350
61630W        W25189   2.745  22.721  12.909
61631W        W25190  16.803  22.704  12.578
61632W        W25191   0.759  22.598   3.689
61633W        W25192  18.089  30.138   4.604
61634W        W25193   0.776  28.095  11.393
61635W        W25194  30.444   5.861  14.874
61636W        W25195  23.123   2.292   1.910
61637W        W25196   6.356  11.256  11.030
61638W        W25197  11.260   3.752   1.911
61639W        W25198  29.078  29.023  10.455
61640W        W25199   7.196  27.959  11.431
61641W        W25200  13.741  13.725   4.782
61642W        W25201  11.787   9.861  11.013
61643W        W25202  19.237  35.409   2.824
61644W        W25203   2.924  25.094   2.235
61645W        W25204  11.823  42.827   4.230
61646W        W25205   4.803  14.274   3.305
61647W        W25206  39.832  37.025  14.344
61648W        W25207  13.105  28.558  12.062
61649W        W25208  22.614  18.055  12.545
61650W        W25209  16.602   3.380  13.419
61651W        W25210  31.107   7.214  12.021
61652W        W25211   2.908  34.507  14.770
61653W        W25212  30.151  44.815  11.428
61654W        W25213  35.420  17.277   1.707
61655W        W25214  41.888  44.488   0.296
61656W        W25215  37.071  14.708   4.705
61657W        W25216  42.981  44.317   3.284
61658W        W25217   4.933  41.385  10.554
61659W        W25218  18.119  29.082  11.400
61660W        W25219   1.847  42.345   4.121
61661W        W25220   8.834   8.349  12.433
61662W        W25221  35.495  12.689   2.759
61663W        W25222  16.743  26.085  13.324
61664W        W25223  37.077  11.295  14.831
61665W        W25224   5.828  15.093  11.530
61666W        W25225  22.112  22.241   2.322
61667W        W25226  22.615   1.392   3.178
61668W        W25227  11.854  17.786  13.941
61669W        W25228  28.531  26.686  10.513
61670W        W25229  11.780  24.102  14.275
61671W        W25230  30.453  38.962   2.238
61672W        W25231   3.239  34.036   4.636
61673W        W25232  42.016  33.428  11.998
61674W        W25233  27.604   0.357  10.453
61675W        W25234   0.896   9.174  14.462
61676W        W25235  14.205  15.578   3.830
61677W        W25236  20.658  17.062   2.890
61678W        W25237  11.264   4.833  12.483
61679W        W25238  27.626  24.110   2.718
61680W        W25239  44.435  29.062   9.941
61681W        W25240  29.607  20.525   3.233
61682W        W25241   5.210  41.938   4.200
61683W        W25242  12.322  26.028  13.008
61684W        W25243   2.777  30.108   4.673
61685W        W25244  27.001  41.377   4.819
61686W        W25245  34.395  43.932   0.459
61687W        W25246  35.049  28.003   2.753
61688W        W25247  24.087  27.976   2.264
61689W        W25248  34.078  41.871   5.257
61690W        W25249  16.315  36.071  11.888
61691W        W25250  33.496  36.413   4.204
61692W        W25251  23.490   5.886  11.496
61693W        W25252  15.614   6.277   2.753
61694W        W25253   3.801   1.754  11.937
61695W        W25254  29.461  28.639  10.496
61696W        W25255  37.458  33.496   1.398
61697W        W25256  28.013  20.583   3.276
61698W        W25257  33.919  38.923  13.803
61699W        W25258   2.820  20.616  12.859
61700W        W25259  39.339  43.489   3.643
61701W        W25260  23.127  20.533   0.963
61702W        W25261  39.962  12.239   4.335
61703W        W25262   1.939   7.324   1.250
61704W        W25263  35.059  16.693  13.428
61705W        W25264   7.213  21.213   3.723
61706W        W25265  43.006  34.035  12.387
61707W        W25266   4.313   9.275   4.221
61708W        W25267   7.692   5.385   3.678
61709W        W25268  34.411  32.129  12.342
61710W        W25269  30.456  40.799   2.214
61711W        W25270   2.898  13.120   4.141
61712W        W25271   9.849  33.055   3.867
61713W        W25272  35.979   4.847   2.853
61714W        W25273   4.852   9.813   0.938
61715W        W25274  19.102  17.604  10.924
61716W        W25275   2.951  27.142  13.030
61717W        W25276  31.518  25.685  13.352
61718W        W25277  10.811  44.955   1.849
61719W        W25278  20.194  35.015  14.759
61720W        W25279   4.789  16.155   3.379
61721W        W25280  15.580  26.104   2.675
61722W        W25281   0.388  29.135   2.851
61723W        W25282  17.762  17.299   2.381
61724W        W25283   3.929  18.718   3.856
61725W        W25284  19.778  11.244  11.434
61726W        W25285  43.844  35.019  11.071
61727W        W25286   3.926   5.885   0.399
61728W        W25287  32.028   5.712  13.540
61729W        W25288  41.019  38.461   1.304
61730W        W25289  15.305  31.099  14.461
61731W        W25290   0.841   3.720  12.941
61732W        W25291  23.542  42.450   4.696
61733W        W25292  39.971  21.595   3.241
61734W        W25293  17.262  36.062  11.884
61735W        W25294  23.222  33.063   1.283
61736W        W25295   8.769   9.155  12.473
61737W        W25296   3.297  29.522   1.217
61738W        W25297  42.016   0.317   4.674
61739W        W25298  19.557  19.577   3.866
61740W        W25299  36.478  17.778   3.250
61741W        W25300  18.144  27.061   2.209
61742W        W25301   8.815  36.874  13.359
61743W        W25302  14.797  25.191   4.332
61744W        W25303  40.045  32.909  13.896
61745W        W25304  23.680   2.874   2.707
61746W        W25305   0.889  39.422   0.445
61747W        W25306   0.768  12.705  14.783
61748W        W25307   5.300  14.788  11.870
61749W        W25308  10.677   4.253  11.582
61750W        W25309  40.937  10.767   0.256
61751W        W25310  34.962   1.331   4.303
61752W        W25311  38.913  36.887   0.305
61753W        W25312  37.865  17.729  11.436
61754W        W25313  28.075  20.665   4.318
61755W        W25314  16.805  44.911  14.332
61756W        W25315   8.379   6.899   3.837
61757W        W25316   6.789  37.848  10.440
61758W        W25317  31.149  27.570   2.828
61759W        W25318  44.860  41.978  14.460
61760W        W25319  39.827   3.450  11.445
61761W        W25320   9.194  25.008   3.372
61762W        W25321  33.530  17.165   5.112
61763W        W25322  10.855  28.135  14.915
61764W        W25323  22.622  22.171   3.713
61765W        W25324  41.499  23.168  10.449
61766W        W25325  29.586  14.826   2.718
61767W        W25326  20.144  24.973   4.303
61768W        W25327  35.857  17.734   0.262
61769W        W25328   1.301  38.422  13.836
61770W        W25329   6.333  38.938   0.294
61771W        W25330   5.308  19.767  13.812
61772W        W25331  14.245  34.927  13.429
61773W        W25332   5.347  24.657  14.791
61774W        W25333  43.799  30.657  12.570
61775W        W25334  15.218  18.238  13.340
61776W        W25335   9.807  36.366   3.702
61777W        W25336  27.181  15.655  12.342
61778W        W25337   4.412  10.320   2.297
61779W        W25338  18.086  12.756   2.794
61780W        W25339  44.424  18.171  13.046
61781W        W25340   9.267  11.720  13.984
61782W        W25341  12.153   8.168   4.599
61783W        W25342   8.191  37.524   3.178
61784W        W25343  11.318  42.883  12.543
61785W        W25344   7.236   4.244  11.479
61786W        W25345  14.689  27.977  11.020
61787W        W25346  41.321  31.077  14.275
61788W        W25347  40.912  32.431  13.966
61789W        W25348  15.654  37.949   2.307
61790W        W25349   4.403   6.325  13.906
61791W        W25350  43.958  25.538  13.314
61792W        W25351  10.722  42.466   1.853
61793W        W25352  31.466  44.878  12.346
61794W        W25353  34.506  12.131  13.061
61795W        W25354  44.753  41.392   1.740
61796W        W25355  29.663  20.689   3.724
61797W        W25356  16.190  25.703  10.473
61798W        W25357  29.104  38.363   1.739
61799W        W25358  33.380  15.709  10.538
61800W        W25359  31.420  13.717   3.765
61801W        W25360  40.532  19.230  14.413
61802W        W25361  31.141  20.628  14.308
61803W        W25362   4.796  29.433   2.663
61804W        W25363  26.128  43.994   4.652
61805W        W25364   6.288  30.602  10.158
61806W        W25365  32.059  22.578   1.411
61807W        W25366  21.673   6.887  11.017
61808W        W25367   4.219  29.077  13.435
61809W        W25368  32.060   6.290   1.346
61810W        W25369  37.431   3.390  12.937
61811W        W25370  41.342  42.914   3.201
61812W        W25371   7.230  44.950   2.794
61813W        W25372  24.676   7.821  12.057
61814W        W25373   2.374  17.204   3.335
61815W        W25374  10.702   6.320  12.543
61816W        W25375   0.977  37.514  10.036
61817W        W25376   6.874  43.934   2.294
61818W        W25377  18.059   1.367   3.801
61819W        W25378   0.882  31.057   4.730
61820W        W25379  25.164  22.050   1.749
61821W        W25380  24.564   7.876  12.561
61822W        W25381  43.495  33.891   0.771
61823W        W25382   9.261  29.634  13.430
61824W        W25383  32.955  11.219  12.366
61825W        W25384  27.124   3.752  13.961
61826W        W25385  39.009  23.561  12.478
61827W        W25386  41.390   0.468   1.252
61828W        W25387   3.804  16.668  12.341
61829W        W25388  35.455  32.444   9.592
61830W        W25389  13.107  24.520   0.784
61831W        W25390  21.073  13.754   3.186
61832W        W25391   7.213  13.821   4.300
61833W        W25392  11.822  37.405   3.843
61834W        W25393  22.564  38.521   3.273
61835W        W25394  42.009  29.175  14.973
61836W        W25395   2.946  12.196  12.498
61837W        W25396  29.144  39.941   3.679
61838W        W25397  41.370  10.827   0.382
61839W        W25398   6.359  31.640  13.498
61840W        W25399   5.724  31.525  11.095
61841W        W25400   2.338  43.325  14.364
61842W        W25401  19.235  13.720   4.294
61843W        W25402  21.072  20.677   0.283
61844W        W25403   5.799  11.223   1.790
61845W        W25404  44.753  27.598  12.083
61846W        W25405   7.353  14.648   0.791
61847W        W25406  32.888  28.517   4.297
61848W        W25407  18.130  19.084  13.323
61849W        W25408  40.815  30.081  14.468
61850W        W25409  28.657   4.713  11.062
61851W        W25410  37.428  44.424   4.763
61852W        W25411  34.965  10.812  14.886
61853W        W25412   8.703   8.873  12.097
61854W        W25413  19.277   7.180  14.326
61855W        W25414  26.669   8.712  13.399
61856W        W25415   5.789   0.921   1.844
61857W        W25416  18.285  40.965  13.355
61858W        W25417  43.859  11.724  13.004
61859W        W25418   8.897  40.919   2.376
61860W        W25419  24.543  20.535   4.766
61861W        W25420  14.235  13.664   0.781
61862W        W25421   7.676  26.992  14.782
61863W        W25422  34.477  20.079  13.390
61864W        W25423  38.035  36.514  13.449
61865W        W25424  36.053   3.262   4.258
61866W        W25425  26.147   4.449  12.048
61867W        W25426  30.599  17.673   4.116
61868W        W25427  17.692  35.945  13.006
61869W        W25428  40.024  26.135   0.940
61870W        W25429  18.173  15.599   3.842
61871W        W25430   2.773  33.464   3.833
61872W        W25431  17.257  31.636  13.522
61873W        W25432  43.500  19.647   5.203
61874W        W25433  18.771  37.516  14.507
61875W        W25434  41.937  22.143   1.807
61876W        W25435  32.026  30.058  12.354
61877W        W25436  21.131   3.286   5.300
61878W        W25437  36.879  44.423   2.746
61879W        W25438  27.531  24.100  12.023
61880W        W25439  17.666  36.496   4.720
61881W        W25440  23.186   3.315   0.442
61882W        W25441   6.332  29.062   2.354
61883W        W25442   6.862  33.094  12.996
61884W        W25443   8.168  27.168  13.990
61885W        W25444   2.806  21.594  11.564
61886W        W25445  12.152  38.364   4.119
61887W        W25446  30.145  21.163  13.449
61888W        W25447   4.436  21.163   4.325
61889W        W25448  38.391  22.085  14.823
61890W        W25449  43.436  37.864  12.986
61891W        W25450  32.524  42.781  11.442
61892W        W25451   2.789  31.905  13.845
61893W        W25452   9.173  40.316  12.870
61894W        W25453  22.700  13.820  14.377
61895W        W25454   7.672  31.621  10.906
61896W        W25455   4.902  16.697   3.260
61897W        W25456  32.954  34.970  13.994
61898W        W25457  28.942  11.253  13.370
61899W        W25458   5.765   6.289   4.121
61900W        W25459   5.932  22.588   0.351
61901W        W25460  37.877  10.190  12.020
61902W        W25461  42.943   9.703  12.843
61903W        W25462  37.343  25.498  13.041
61904W        W25463  42.927  35.084  10.931
61905W        W25464   6.833  24.108   3.295
61906W        W25465  10.184  20.115  10.634
61907W        W25466  29.088  35.886   0.945
61908W        W25467  38.396  17.248   2.801
61909W        W25468  11.248  26.680   4.135
61910W        W25469   5.736  20.046  13.015
61911W        W25470  43.497  44.338   0.351
61912W        W25471   6.428  20.552   3.822
61913W        W25472  10.690   6.242  13.915
61914W        W25473   5.818   5.804  13.980
61915W        W25474  30.971  24.529   0.244
61916W        W25475  23.077  21.160   0.468
61917W        W25476   0.355   6.802  12.002
61918W        W25477  43.852   5.260  14.457
61919W        W25478  15.642  31.069   0.254
61920W        W25479  15.806  32.985  11.977
61921W        W25480  28.649   8.817  14.439
61922W        W25481  42.497  44.479   4.692
61923W        W25482  39.354  37.844   1.232
61924W        W25483  20.726  22.666   4.282
61925W        W25484  24.210   3.388  12.872
61926W        W25485   3.448   9.208  13.488
61927W        W25486   6.694  22.075  12.072
61928W        W25487  40.011  30.439   4.763
61929W        W25488  14.755  14.169   4.706
61930W        W25489   5.717  37.982   3.154
61931W        W25490   7.855  21.153   1.356
61932W        W25491  18.099  18.112  13.479
61933W        W25492  27.034  43.892   4.278
61934W        W25493  26.127  41.959  12.980
61935W        W25494   9.804  23.521   2.793
61936W        W25495  42.929   5.236  10.486
61937W        W25496  23.610  16.622  14.401
61938W        W25497  44.781  34.064   0.251
61939W        W25498  29.632  12.725   1.380
61940W        W25499  40.478  34.574  10.023
61941W        W25500  36.050  19.640  14.859
61942W        W25501   1.355  19.104   4.252
61943W        W25502  25.027  11.291   2.208
61944W        W25503  32.607  20.202   3.777
61945W        W25504   7.743  18.569  11.518
61946W        W25505   6.412   2.378  10.946
61947W        W25506  27.475  40.385  13.971
61948W        W25507  43.900  12.676  12.874
61949W        W25508  23.611   8.167   3.797
61950W        W25509   9.765  21.614   3.674
61951W        W25510   8.781  12.352   4.252
61952W        W25511  43.886  23.587  12.090
61953W        W25512  35.384  20.632   1.344
61954W        W25513  19.596  11.795  14.509
61955W        W25514   0.256  12.724   3.229
61956W        W25515  26.588   2.264   4.792
61957W        W25516  28.176  42.950  14.896
61958W        W25517  37.082  20.050   1.397
61959W        W25518  39.480  35.368   0.351
61960W        W25519  25.486   8.883   4.343
61961W        W25520  42.961  33.480  11.074
61962W        W25521  36.363   3.806  10.901
61963W        W25522  15.144  17.656   0.375
61964W        W25523  17.229  41.917  14.910
61965W        W25524  31.951  15.176  13.377
61966W        W25525  43.003  31.904   1.224
61967W        W25526  20.057  31.967  14.503
61968W        W25527  24.045  14.660   4.199
61969W        W25528   2.386  36.560  12.962
61970W        W25529  16.201  31.959   3.694
61971W        W25530  15.711  27.688  12.420
61972W        W25531  22.562  42.321   0.915
61973W        W25532  24.065  17.151  14.336
61974W        W25533  41.354  29.122  13.010
61975W        W25534  40.397   8.735  10.108
61976W        W25535  14.632  26.580   9.567
61977W        W25536   1.253  43.993  11.005
61978W        W25537  23.580  44.922  11.603
61979W        W25538  36.888   0.952  12.374
61980W        W25539  41.832  29.076  11.976
61981W        W25540   4.438   5.284  12.465
61982W        W25541  43.331  34.457   3.639
61983W        W25542  32.584  37.374   1.405
61984W        W25543  43.814  28.523   3.289
61985W        W25544  25.148  11.642   0.298
61986W        W25545  32.599  32.595   4.642
61987W        W25546  29.522  12.700  14.395
61988W        W25547  29.013  23.722  12.553
61989W        W25548  13.807   8.714  14.924
61990W        W25549  17.647  36.366   3.353
61991W        W25550  31.404  35.946  11.401
61992W        W25551  32.614  12.145  12.363
61993W        W25552  10.138  22.663   1.899
61994W        W25553  15.144   7.172  11.577
61995W        W25554  17.264  22.642  12.947
61996W        W25555  22.744  41.804   4.601
61997W        W25556  30.543  11.815   4.141
61998W        W25557  29.004   6.305  14.352
61999W        W25558  34.518  39.057   0.356
62000W        W25559  17.685  15.241  11.076
62001W        W25560  10.651  12.241   3.348
62002W        W25561  36.018  23.605  14.933
62003W        W25562  16.711  31.124   3.845
62004W        W25563  14.273  38.895  14.849
62005W        W25564   9.222   0.901   2.261
62006W        W25565  14.726  12.166   3.162
62007W        W25566  28.568   5.879  14.390
62008W        W25567  17.168  28.049  13.316
62009W        W25568   5.402  11.275  14.905
62010W        W25569   8.178  17.640   2.868
62011W        W25570  24.585  17.705   2.406
62012W        W25571  42.783  32.090  12.065
62013W        W25572  37.984  31.918   5.656
62014W        W25573  33.432   3.843  13.052
62015W        W25574   3.450   7.239  10.404
62016W        W25575  15.647  32.488  14.775
62017W        W25576  42.482   9.379   3.205
62018W        W25577  11.238  10.638   3.696
62019W        W25578  18.766  15.773   2.731
62020W        W25579  20.217  24.639   3.228
62021W        W25580  42.333  44.967  14.443
62022W        W25581  41.843  26.632  10.440
62023W        W25582  15.610  43.780  11.968
62024W        W25583  30.654  23.534  13.815
62025W        W25584  23.692  18.088   0.903
62026W        W25585  44.306  30.478  12.525
62027W        W25586  32.073  14.147   1.897
62028W        W25587  31.151  30.652  14.386
62029W        W25588  33.428   6.365   1.279
62030W        W25589  30.474  41.039  11.109
62031W        W25590  17.735  22.529  12.007
62032W        W25591  26.036   3.427  14.018
62033W        W25592  30.513  43.423  10.919
62034W        W25593  21.553  16.305   2.254
62035W        W25594  41.411  40.337  13.839
62036W        W25595   3.231  20.590   4.154
62037W        W25596  43.337   6.812  14.325
62038W        W25597  24.004  27.053   0.781
62039W        W25598  27.623   8.830  12.361
62040W        W25599  40.924  17.233  10.632
62041W        W25600  21.758  10.825   0.297
62042W        W25601   5.429  42.447  10.585
62043W        W25602  35.449   2.425   3.253
62044W        W25603  40.404  41.968  11.064
62045W        W25604  41.795  16.196   3.233
62046W        W25605  29.474  31.017  14.450
62047W        W25606   0.269  18.629  14.377
62048W        W25607  14.106  27.148   4.114
62049W        W25608  13.708  29.019  13.885
62050W        W25609   8.215   5.902  13.871
62051W        W25610  40.016  32.031  14.830
62052W        W25611  38.454  44.410  11.524
62053W        W25612  21.193  15.618   1.788
62054W        W25613  39.911  37.941  10.611
62055W        W25614  28.987  40.807   0.467
62056W        W25615  10.707  42.901   0.416
62057W        W25616  21.137  28.523   2.307
62058W        W25617   6.337  38.435   3.355
62059W        W25618  20.140   2.864   4.658
62060W        W25619  13.630  10.311  11.424
62061W        W25620  15.232   7.748  13.517
62062W        W25621  21.609  37.037   0.857
62063W        W25622  18.291   1.928  11.897
62064W        W25623   4.883  14.666  13.539
62065W        W25624  31.622   4.243  10.534
62066W        W25625   7.320  16.658   0.284
62067W        W25626  23.014  28.533  10.963
62068W        W25627  42.321  22.560   4.785
62069W        W25628   8.657  11.672   2.835
62070W        W25629   2.931  42.324  11.075
62071W        W25630  23.674  29.474   1.724
62072W        W25631   6.301  11.293  14.845
62073W        W25632   6.906  25.180   3.853
62074W        W25633   6.191  38.950  14.005
62075W        W25634  31.144  41.498   3.684
62076W        W25635  21.560  39.835   2.738
62077W        W25636  30.522   8.224  13.518
62078W        W25637  15.638   6.336  12.922
62079W        W25638  17.149  40.472   1.789
62080W        W25639   4.883  13.132   3.264
62081W        W25640   5.881   8.797  14.349
62082W        W25641  23.065   9.696  11.471
62083W        W25642   8.319  34.536  13.941
62084W        W25643  29.505  12.855  10.998
62085W        W25644  18.254  13.175   1.362
62086W        W25645  44.328  25.470  11.433
62087W        W25646   3.771  30.479   2.269
62088W        W25647  25.504  26.065  11.893
62089W        W25648   3.250  20.029   2.715
62090W        W25649  24.051  39.897   3.831
62091W        W25650  31.543  18.076  13.791
62092W        W25651  36.407  30.475  14.481
62093W        W25652  16.582  28.632  12.873
62094W        W25653  11.331  30.463   5.098
62095W        W25654  22.245   1.860  11.499
62096W        W25655   9.387  25.511  12.871
62097W        W25656   7.701   4.431   0.761
62098W        W25657  27.654  11.747   0.738
62099W        W25658  40.834  29.998  11.076
62100W        W25659  44.441   9.269   2.704
62101W        W25660  14.324  24.066  13.908
62102W        W25661   7.729   3.836   2.270
62103W        W25662  12.739  39.941  12.823
62104W        W25663  16.781   3.271  10.492
62105W        W25664  40.486  32.531  14.288
62106W        W25665  16.194  18.639  11.604
62107W        W25666  31.571  31.149   1.324
62108W        W25667   4.806   0.898  10.490
62109W        W25668  11.239  34.433   1.808
62110W        W25669   1.337   0.925   1.388
62111W        W25670   1.481  20.047  10.552
62112W        W25671   8.789  43.344   2.726
62113W        W25672  31.153   8.394   2.721
62114W        W25673  16.658  12.169  10.508
62115W        W25674  32.103  24.516  14.025
62116W        W25675  33.420  24.600  11.436
62117W        W25676  15.580  14.695   2.837
62118W        W25677  25.084  38.346   2.403
62119W        W25678   7.269  21.074   1.843
62120W        W25679  15.158  29.457  11.095
62121W        W25680  34.029  30.497  11.502
62122W        W25681  31.912  34.969   5.211
62123W        W25682  15.602  28.094   3.772
62124W        W25683  35.865  35.955  14.306
62125W        W25684  34.607   9.356   0.730
62126W        W25685   8.183  31.140   4.327
62127W        W25686  39.019  18.281   4.692
62128W        W25687  21.070  14.782   4.805
62129W        W25688   9.290  30.533  12.920
62130W        W25689  18.127   1.458  14.444
62131W        W25690  17.206   9.320  12.393
62132W        W25691  26.508   6.277  14.381
62133W        W25692   7.691  41.416  11.611
62134W        W25693  22.076  26.606   0.445
62135W        W25694   9.193  43.869  12.853
62136W        W25695  36.434   0.820   2.357
62137W        W25696  11.635  27.016  12.426
62138W        W25697  28.485  35.434  12.914
62139W        W25698  39.917  39.421  11.858
62140W        W25699  19.546  36.842   2.798
62141W        W25700  12.756  24.048   1.283
62142W        W25701   5.843  14.638  12.446
62143W        W25702   8.202   8.820   1.810
62144W        W25703  30.055  41.999   0.809
62145W        W25704  39.990   6.414   1.935
62146W        W25705  33.613  42.857  14.986
62147W        W25706   2.813  32.591   1.933
62148W        W25707  35.602  18.259  11.405
62149W        W25708  27.623  20.731   0.804
62150W        W25709  29.078  26.465   4.679
62151W        W25710  32.392  38.063  13.977
62152W        W25711  43.498  22.573   0.432
62153W        W25712  37.851  22.107   4.338
62154W        W25713  32.604  27.122   4.744
62155W        W25714   7.879   0.275  10.518
62156W        W25715  43.440  14.794   1.782
62157W        W25716  31.966  37.842   4.647
62158W        W25717  16.629  34.510   3.856
62159W        W25718  22.747  10.634   4.691
62160W        W25719   8.776   2.813  13.836
62161W        W25720  34.112  22.568  13.865
62162W        W25721  35.474   9.824   4.153
62163W        W25722  23.228  14.153   1.718
62164W        W25723  24.562  17.643   2.677
62165W        W25724  16.802  25.171  14.451
62166W        W25725  17.079  21.654  12.897
62167W        W25726  15.727  44.410  14.305
62168W        W25727  11.314  27.539   0.914
62169W        W25728  32.578  35.397   2.673
62170W        W25729   9.737  27.028   4.312
62171W        W25730   1.406   7.698   1.873
62172W        W25731   9.186  23.056   2.903
62173W        W25732   0.318  19.596  12.562
62174W        W25733  10.277  37.366   0.840
62175W        W25734  23.501  20.254  10.488
62176W        W25735  25.059   6.683  12.440
62177W        W25736  36.862  37.464  10.979
62178W        W25737  38.898   8.755   2.737
62179W        W25738  28.437  25.671   2.772
62180W        W25739   2.285  33.444   5.210
62181W        W25740   2.294  23.499   1.443
62182W        W25741  39.058  23.029   0.399
62183W        W25742  33.401  19.152  13.307
62184W        W25743  38.041  40.980   2.210
62185W        W25744  22.048  17.085   2.670
62186W        W25745  40.537  14.679   2.859
62187W        W25746  27.597   0.289   1.435
62188W        W25747   1.435  15.279   0.857
62189W        W25748   7.259   6.728   2.226
62190W        W25749  21.669  32.556   3.361
62191W        W25750  25.622  37.358  13.002
62192W        W25751  32.138  18.568   2.890
62193W        W25752  12.726  14.704  10.033
62194W        W25753  19.591  12.851  12.951
62195W        W25754  27.494  23.194   1.219
62196W        W25755  17.081  39.392   4.116
62197W        W25756  33.400   8.253   2.276
62198W        W25757  31.967  13.820   0.775
62199W        W25758  26.109   1.277   0.850
62200W        W25759  31.414  44.788   3.755
62201W        W25760  44.372   8.759  14.301
62202W        W25761  38.551  40.410   2.838
62203W        W25762   9.827  29.111  14.969
62204W        W25763  23.521  17.188  13.884
62205W        W25764   1.732  38.415  10.926
62206W        W25765  41.847   1.237   1.885
62207W        W25766  15.302  28.008  10.580
62208W        W25767   1.344  31.480   1.911
62209W        W25768  22.250  44.816   0.454
62210W        W25769  26.117   2.816   4.211
62211W        W25770  34.039  11.808   4.660
62212W        W25771  20.161  41.352   2.693
62213W        W25772  44.440   3.914  11.431
62214W        W25773   8.884  16.767   4.832
62215W        W25774  40.343  24.533   0.303
62216W        W25775  44.883  24.059  10.476
62217W        W25776  29.016  29.129   2.259
62218W        W25777  44.886  27.178   1.231
62219W        W25778   3.409   9.388   1.934
62220W        W25779  25.589   9.802   2.721
62221W        W25780  28.617  20.167  12.349
62222W        W25781  44.304  18.719  12.905
62223W        W25782   1.277  18.734   1.835
62224W        W25783  40.826  42.946   0.273
62225W        W25784   4.841  28.533  12.451
62226W        W25785  22.125  33.491  11.975
62227W        W25786   5.419  43.883  13.905
62228W        W25787  24.076   5.413   4.688
62229W        W25788  25.645  43.474   1.237
62230W        W25789  41.512  40.838  13.325
62231W        W25790  43.435  35.463   4.325
62232W        W25791  22.058  41.890  12.368
62233W        W25792   7.706  28.939  12.425
62234W        W25793   8.179  41.350  10.969
62235W        W25794  28.440  25.686  11.059
62236W        W25795   9.783  31.568   4.267
62237W        W25796   3.772  26.157   1.424
62238W        W25797  40.819   2.796  11.002
62239W        W25798  37.058   4.288  10.448
62240W        W25799  28.594   1.923  11.967
62241W        W25800  37.967  17.230  10.606
62242W        W25801  11.283  40.013   1.808
62243W        W25802  11.740  27.514  14.296
62244W        W25803  38.950   4.733  13.546
62245W        W25804  28.498  40.830  13.818
62246W        W25805  26.110  41.900  14.905
62247W        W25806  34.895   8.755   0.767
62248W        W25807  42.915  19.668  12.015
62249W        W25808  32.585   7.248  14.417
62250W        W25809   2.773  21.736   3.693
62251W        W25810   9.737   3.436  12.342
62252W        W25811  20.052   8.667  13.329
62253W        W25812  21.758  28.552  10.410
62254W        W25813   4.318  42.974  14.313
62255W        W25814  12.664   6.342  14.863
62256W        W25815  14.117  10.360   2.201
62257W        W25816  17.257  31.535   4.236
62258W        W25817   7.264   2.855   1.362
62259W        W25818  23.209  23.636   2.869
62260W        W25819  25.100  39.344  11.432
62261W        W25820  38.438   1.958  13.057
62262W        W25821  32.913  28.955  13.973
62263W        W25822   0.745  34.064   0.462
62264W        W25823  15.776  21.249   4.714
62265W        W25824   5.733   0.894  10.644
62266W        W25825  17.709  26.000  13.979
62267W        W25826  38.418   8.705  10.473
62268W        W25827   1.747  13.668  12.510
62269W        W25828   4.429   2.870   0.799
62270W        W25829  20.060  16.604   4.291
62271W        W25830   7.377  10.661  14.799
62272W        W25831  11.184  13.168   2.843
62273W        W25832   3.833  29.942  13.403
62274W        W25833   7.182  22.173  11.019
62275W        W25834   1.251   1.949   3.787
62276W        W25835  23.718  40.519   4.778
62277W        W25836  40.501  12.626  11.070
62278W        W25837  25.555  36.984   4.604
62279W        W25838  35.402   6.887  12.358
62280W        W25839  40.955  23.219  11.407
62281W        W25840  39.977   9.814   3.696
62282W        W25841  33.956  18.606   4.696
62283W        W25842  13.797  38.465   0.436
62284W        W25843  21.114  37.368   3.688
62285W        W25844  18.719  18.749   0.810
62286W        W25845  21.088  29.043   0.878
62287W        W25846  19.201   9.643  12.921
62288W        W25847  22.135  26.501   3.757
62289W        W25848  31.042  19.548  14.872
62290W        W25849  31.007   2.344   3.266
62291W        W25850   6.308  10.262  14.995
62292W        W25851  11.794  11.329   3.265
62293W        W25852  17.080  20.241  11.384
62294W        W25853   5.776  27.655   0.745
62295W        W25854  39.455   3.302  13.891
62296W        W25855   0.894  11.841   4.699
62297W        W25856  37.889   1.263  14.380
62298W        W25857  17.251  39.331   0.741
62299W        W25858  35.448  43.271   1.904
62300W        W25859  40.370  28.180  12.579
62301W        W25860   3.374  21.186   0.833
62302W        W25861  38.948  26.500   5.261
62303W        W25862  43.348  28.507  13.953
62304W        W25863   8.900   0.756   1.863
62305W        W25864  33.413  38.400  13.825
62306W        W25865  37.003   6.907   3.671
62307W        W25866  29.999   9.158   2.265
62308W        W25867  40.990   3.951   3.829
62309W        W25868  23.121  34.900   4.289
62310W        W25869  43.380  36.037   1.737
62311W        W25870  38.834  42.475   0.311
62312W        W25871  40.502  42.779  12.062
62313W        W25872  14.310  15.214  13.965
62314W        W25873   6.692  21.639  13.490
62315W        W25874  11.721   2.874   4.239
62316W        W25875  24.205   3.952   4.118
62317W        W25876   1.971  34.371   2.313
62318W        W25877  10.689  38.007  14.875
62319W        W25878   9.718  31.114   0.800
62320W        W25879  25.217  36.419  12.980
62321W        W25880  30.458  44.759   4.763
62322W        W25881  18.061   1.269   0.452
62323W        W25882  14.668   1.843  12.459
62324W        W25883  32.475   8.752   3.381
62325W        W25884  32.083  42.800  11.566
62326W        W25885   6.901  29.492  12.943
62327W        W25886  21.529  13.279   1.375
62328W        W25887  17.635  28.673  13.925
62329W        W25888  18.133  22.603  10.437
62330W        W25889  36.083  31.902   1.210
62331W        W25890  40.397  35.407   0.283
62332W        W25891  10.192  16.193   2.184
62333W        W25892  39.858  38.354   0.733
62334W        W25893  29.479  18.552   1.391
62335W        W25894  17.611  20.587   3.340
62336W        W25895  41.938  25.490  10.942
62337W        W25896  35.889  25.593   2.697
62338W        W25897   1.347  30.978   3.305
62339W        W25898  38.961  44.405   1.924
62340W        W25899  33.612  43.818  11.908
62341W        W25900  35.050  36.410  14.953
62342W        W25901  20.646   4.295   2.712
62343W        W25902  42.792  29.467  12.873
62344W        W25903  12.247  39.832   2.805
62345W        W25904   1.779   7.721  12.378
62346W        W25905   3.802   1.288  14.970
62347W        W25906  41.845  42.281   0.731
62348W        W25907  25.167  36.361  14.882
62349W        W25908  29.588   1.895   1.447
62350W        W25909  25.205   4.249   0.750
62351W        W25910  30.587  26.681  12.381
62352W        W25911  42.024  33.595  10.007
62353W        W25912   7.404  38.508   1.788
62354W        W25913   7.404  18.734  13.022
62355W        W25914  15.187   0.479  10.496
62356W        W25915   1.270  14.303  10.509
62357W        W25916  19.187  26.543  10.140
62358W        W25917   0.950   6.389  11.395
62359W        W25918  39.964  36.082   2.347
62360W        W25919  10.746   5.346   4.242
62361W        W25920   2.866  19.721  10.641
62362W        W25921  28.103  11.672  10.897
62363W        W25922  23.056  21.619   1.315
62364W        W25923  16.716  25.025   3.332
62365W        W25924  27.508  39.961   3.368
62366W        W25925  39.051  38.035  14.827
62367W        W25926  30.911  20.740   2.693
62368W        W25927  32.911  25.061  14.283
62369W        W25928  29.127  43.876  14.793
62370W        W25929  39.011  41.945  11.972
62371W        W25930  43.859   5.837   0.962
62372W        W25931  16.200  26.518   2.234
62373W        W25932  35.503  41.433  11.520
62374W        W25933  10.692   7.773   3.791
62375W        W25934  21.738  17.685   2.751
62376W        W25935  36.009  16.808   3.181
62377W        W25936  37.871  15.809   4.298
62378W        W25937   4.754  33.417  11.378
62379W        W25938  27.026   3.796   3.764
62380W        W25939   5.288  35.058   4.788
62381W        W25940   5.715  38.508   2.268
62382W        W25941  39.014   4.731  14.943
62383W        W25942  20.759  27.159   5.295
62384W        W25943  42.833  21.558  14.895
62385W        W25944   0.446   5.837   2.177
62386W        W25945  12.141   7.409   1.301
62387W        W25946  10.707   9.260  11.536
62388W        W25947  24.641  22.207   1.796
62389W        W25948  39.406  26.502  10.407
62390W        W25949   5.890  21.726  14.479
62391W        W25950   6.401  23.530  13.314
62392W        W25951  21.244  33.031  14.029
62393W        W25952  10.247  31.475   4.178
62394W        W25953  22.600  12.844  13.914
62395W        W25954  14.810  24.567  13.821
62396W        W25955  24.627  10.164  11.049
62397W        W25956  31.466  28.486   0.367
62398W        W25957  42.831  16.708   0.910
62399W        W25958  13.197   3.444  12.828
62400W        W25959  29.481   0.412  13.982
62401W        W25960  12.807  40.419   1.259
62402W        W25961  32.541  20.270  12.996
62403W        W25962   4.321  23.083  14.402
62404W        W25963  30.593  39.368   0.454
62405W        W25964  20.114  23.175   1.226
62406W        W25965  37.365  13.810  10.454
62407W        W25966  33.564   7.282  12.409
62408W        W25967  12.642  31.140  10.513
62409W        W25968  36.396  16.701  12.895
62410W        W25969   5.343  24.569   3.271
62411W        W25970  24.171  38.821  11.863
62412W        W25971   6.889  36.857   3.324
62413W        W25972  33.119   3.378  11.061
62414W        W25973  35.399   1.741   3.823
62415W        W25974  11.815  37.988   1.255
62416W        W25975   2.268  20.540   4.162
62417W        W25976   8.327  13.115  14.318
62418W        W25977  29.574  22.738   3.643
62419W        W25978  20.085   4.322  14.472
62420W        W25979  11.250   7.822   5.587
62421W        W25980  35.107  28.553   0.736
62422W        W25981   0.381  16.789  14.897
62423W        W25982  28.010  20.667   3.841
62424W        W25983  43.498  25.706   2.374
62425W        W25984  33.537  36.412  13.945
62426W        W25985  16.739  11.844   1.381
62427W        W25986  14.245  33.014  14.319
62428W        W25987   4.789  44.860   2.395
62429W        W25988   1.462  19.707   0.896
62430W        W25989  31.472  21.169  12.912
62431W        W25990  32.946  11.195  11.940
62432W        W25991  22.623   3.223   2.339
62433W        W25992  28.465  24.187  14.931
62434W        W25993  31.912  30.115  11.108
62435W        W25994  38.833  18.629  11.105
62436W        W25995  21.718  13.723   4.705
62437W        W25996  11.303   9.384  10.905
62438W        W25997  17.222  22.177   3.248
62439W        W25998   2.843  20.614   2.204
62440W        W25999  44.300  34.959   1.764
62441W        W26000  14.749  16.591   0.742
62442W        W26001   3.874  22.615  10.617
62443W        W26002  43.345  43.383   0.737
62444W        W26003   1.245  23.240   2.337
62445W        W26004   3.936  11.347  14.929
62446W        W26005  14.630  30.475  11.507
62447W        W26006  40.819  38.437   4.834
62448W        W26007   5.374   3.848  11.114
62449W        W26008  39.995  38.017   4.348
62450W        W26009  36.911  25.983  13.542
62451W        W26010  37.358  27.637   2.724
62452W        W26011  37.986  30.965   2.804
62453W        W26012  37.856   7.860  11.056
62454W        W26013   1.459  27.578  14.439
62455W        W26014  28.940   7.823  12.461
62456W        W26015  25.491  24.528   1.795
62457W        W26016   7.853   9.286   2.748
62458W        W26017  13.147  12.252   2.743
62459W        W26018  21.198   2.312  14.340
62460W        W26019  33.059  43.444   2.788
62461W        W26020  18.585  26.482  13.423
62462W        W26021  19.719  38.421  12.399
62463W        W26022  10.686   3.421   1.737
62464W        W26023  31.911   2.808   4.162
62465W        W26024  28.544  15.326   0.901
62466W        W26025   5.775   8.395  14.904
62467W        W26026   3.749  24.696   1.295
62468W        W26027  38.372  25.059   3.805
62469W        W26028   1.807   3.783   1.776
62470W        W26029  38.025   0.792  11.076
62471W        W26030  16.693  14.107   2.179
62472W        W26031   2.331  15.196   1.425
62473W        W26032  20.083  28.672  12.491
62474W        W26033  17.564   0.919   1.228
62475W        W26034  19.222  12.303  11.544
62476W        W26035  43.481  13.168  10.074
62477W        W26036   3.296  27.097   4.176
62478W        W26037  30.159  19.276   4.714
62479W        W26038  18.257  31.583   4.616
62480W        W26039  11.691   6.770   0.449
62481W        W26040  14.739   4.261   0.472
62482W        W26041  14.688  28.021  11.486
62483W        W26042  19.063   3.261  12.016
62484W        W26043  14.156  40.806  14.832
62485W        W26044  42.334   3.420   1.841
62486W        W26045  32.083   4.813  13.849
62487W        W26046  11.851  10.330  12.530
62488W        W26047  36.361  22.509  12.500
62489W        W26048  39.470   9.708   2.724
62490W        W26049  44.371  25.539  10.519
62491W        W26050  23.676  36.518   0.924
62492W        W26051  29.522  31.432   1.750
62493W        W26052  23.197  36.876  11.981
62494W        W26053  12.795  16.292  14.381
62495W        W26054  17.691   8.253   3.186
62496W        W26055  20.174  15.767   2.725
62497W        W26056  30.506  21.746   3.276
62498W        W26057  10.371   3.281   2.248
62499W        W26058  31.488  28.541  10.547
62500W        W26059  32.988  42.314  10.938
62501W        W26060  23.118  41.532  13.890
62502W        W26061  24.979  11.634  10.463
62503W        W26062  18.681  17.165   1.834
62504W        W26063  27.998  23.647  10.919
62505W        W26064  43.475   3.815   4.636
62506W        W26065   0.981  16.750  12.976
62507W        W26066   6.876   3.262   1.828
62508W        W26067  38.542   9.185  12.361
62509W        W26068   1.261  27.574   2.307
62510W        W26069  34.902  30.619  10.888
62511W        W26070   7.194  13.783   4.781
62512W        W26071  18.161  24.553  11.466
62513W        W26072  42.514  21.529  13.936
62514W        W26073   3.780  29.051   4.146
62515W        W26074  20.064  27.945  12.071
62516W        W26075  24.625  16.099   1.438
62517W        W26076   6.922  40.961   3.321
62518W        W26077  23.632   5.286  11.451
62519W        W26078   4.859  30.493   1.331
62520W        W26079  14.340  34.956  10.480
62521W        W26080  31.463  27.581   4.312
62522W        W26081  29.543   2.334   3.287
62523W        W26082  33.379  29.669  10.037
62524W        W26083  39.055  16.091   5.122
62525W        W26084  33.495  14.332   0.950
62526W        W26085  29.103  29.620   3.695
62527W        W26086  40.823   6.230   0.811
62528W        W26087   1.343  16.732   1.402
62529W        W26088  40.014  12.652   4.240
62530W        W26089  13.318  11.643   2.738
62531W        W26090   7.174   1.449  14.773
62532W        W26091   2.744  28.022   0.462
62533W        W26092   9.262   3.279   3.175
62534W        W26093  20.030   1.483  12.872
62535W        W26094  21.578  34.473  14.965
62536W        W26095  38.064   0.385  14.392
62537W        W26096  25.582  17.733  10.993
62538W        W26097  35.602  22.046  12.393
62539W        W26098   5.417   2.878   4.622
62540W        W26099  29.142  22.560   2.260
62541W        W26100   7.810   9.260  13.373
62542W        W26101  23.062  28.662  12.883
62543W        W26102  29.063  13.279  14.788
62544W        W26103  10.360  17.183   9.930
62545W        W26104  27.033  11.308   0.911
62546W        W26105  24.039   5.310   3.309
62547W        W26106   2.804  29.593  13.399
62548W        W26107  17.287   4.441   1.240
62549W        W26108  39.428  39.427  13.063
62550W        W26109  44.492   1.287  13.857
62551W        W26110   6.818  39.486   0.351
62552W        W26111  24.061  14.130   0.377
62553W        W26112   2.393   1.418  14.382
62554W        W26113  14.637  26.202   5.783
62555W        W26114   2.399  43.998  10.453
62556W        W26115  10.271   6.706  13.047
62557W        W26116  24.065  33.078  11.114
62558W        W26117  40.833  44.303  12.412
62559W        W26118  38.949  36.439  13.363
62560W        W26119   8.287  30.504  14.496
62561W        W26120  16.080  13.330   2.793
62562W        W26121  38.545   9.350  13.862
62563W        W26122  19.089  20.146   3.208
62564W        W26123  35.020   1.762   3.236
62565W        W26124  26.996  41.351  12.837
62566W        W26125  18.294  29.621   0.952
62567W        W26126  40.835  24.617  12.949
62568W        W26127  18.730   3.719  14.023
62569W        W26128  13.237  22.237   2.307
62570W        W26129   8.281  18.117   3.207
62571W        W26130  42.959  42.376  14.370
62572W        W26131  36.394  36.897   0.925
62573W        W26132  14.788  19.256  13.870
62574W        W26133  43.432  34.540  13.884
62575W        W26134  42.301   2.759   1.898
62576W        W26135  33.456   7.793  12.382
62577W        W26136   9.868  31.011   3.272
62578W        W26137   0.249  20.708  14.368
62579W        W26138  10.687   8.677  11.422
62580W        W26139   1.243  22.088  11.590
62581W        W26140  10.695   6.837   2.683
62582W        W26141  12.329  25.097  13.409
62583W        W26142   2.240  33.959   0.915
62584W        W26143  14.331   4.326  11.537
62585W        W26144   7.236  28.565  14.813
62586W        W26145  26.049  39.961  13.451
62587W        W26146   1.760  19.605  12.066
62588W        W26147   9.764  25.635  14.338
62589W        W26148  32.598  21.741  12.016
62590W        W26149  13.772  33.535   0.835
62591W        W26150  36.403   0.307  14.376
62592W        W26151   4.784  36.919   1.892
62593W        W26152  33.538  17.608  11.593
62594W        W26153  34.050  41.382   9.479
62595W        W26154  11.344  11.132   1.314
62596W        W26155  25.641   1.239   2.208
62597W        W26156  30.924  38.837   2.251
62598W        W26157  24.590  32.103   0.243
62599W        W26158  44.983  18.151   2.812
62600W        W26159   1.369   4.830   2.881
62601W        W26160  40.956   4.409   3.819
62602W        W26161  23.666  26.023   2.772
62603W        W26162  37.956   8.796  13.018
62604W        W26163  34.010  38.357   0.919
62605W        W26164   8.838  35.388   3.668
62606W        W26165  41.909   1.872  11.088
62607W        W26166  35.498   5.375   1.863
62608W        W26167  36.353   3.865   4.171
62609W        W26168  21.223   4.764  13.980
62610W        W26169  37.476  13.308  10.564
62611W        W26170  20.650  40.866  12.881
62612W        W26171  30.576   7.288   0.276
62613W        W26172   6.753  39.961   4.124
62614W        W26173   6.423  12.253  13.040
62615W        W26174  35.526  31.569   2.843
62616W        W26175  34.582   9.814   4.328
62617W        W26176  24.223  36.977   2.820
62618W        W26177  30.985  12.676   4.714
62619W        W26178  25.709  22.680   1.357
62620W        W26179  24.174  32.906  13.471
62621W        W26180  16.096   9.164   4.210
62622W        W26181   0.469  33.403  12.487
62623W        W26182  41.805   5.340   0.791
62624W        W26183  31.443   9.239   0.462
62625W        W26184  41.421   7.376  11.070
62626W        W26185   7.863  32.546  11.973
62627W        W26186  28.186  12.776  13.032
62628W        W26187  22.651   2.848   3.677
62629W        W26188  23.014   3.441  13.010
62630W        W26189   7.858  13.287  14.325
62631W        W26190  42.335   6.367  13.970
62632W        W26191  28.061  11.623  10.572
62633W        W26192  39.462  28.602   0.954
62634W        W26193  13.653   0.940   4.205
62635W        W26194  28.512  20.654  11.576
62636W        W26195   9.246  11.152   3.780
62637W        W26196  43.358  18.282  13.346
62638W        W26197  29.431  16.642  13.006
62639W        W26198  37.967   9.776  13.515
62640W        W26199   4.435  16.658  10.460
62641W        W26200   2.962  34.531   4.254
62642W        W26201   8.268  14.215   0.445
62643W        W26202  35.525  37.864   3.356
62644W        W26203  38.334   5.899   1.210
62645W        W26204  31.630   8.837  14.353
62646W        W26205  24.590   0.428  12.053
62647W        W26206  33.084  33.941   3.670
62648W        W26207  36.872   9.207   0.278
62649W        W26208  25.216   8.299  14.900
62650W        W26209  16.618  15.590   4.653
62651W        W26210  16.155  36.465  14.318
62652W        W26211  41.889   1.332  13.882
62653W        W26212  32.490  31.932   3.354
62654W        W26213  41.895   1.878  13.844
62655W        W26214  16.589  27.195   3.200
62656W        W26215  13.604  16.248   4.696
62657W        W26216  29.136  18.294  13.915
62658W        W26217   9.248  42.836  12.880
62659W        W26218  19.722  22.712   3.650
62660W        W26219  39.385  29.590   3.276
62661W        W26220  13.341  28.139   4.675
62662W        W26221   9.368  11.168  13.387
62663W        W26222  44.383  18.072  13.993
62664W        W26223  42.522  21.524   0.829
62665W        W26224  42.465  33.623   0.928
62666W        W26225  23.573  13.783   1.280
62667W        W26226  10.843  31.436   0.747
62668W        W26227  39.385  27.579  14.500
62669W        W26228  35.502  32.122  11.121
62670W        W26229  10.727  31.028   2.848
62671W        W26230  24.149   2.364   2.201
62672W        W26231  38.333  44.883   0.422
62673W        W26232   2.439  25.178   1.425
62674W        W26233  37.080  24.669   4.819
62675W        W26234  41.902  25.969  14.007
62676W        W26235  20.571  33.036   3.214
62677W        W26236  14.730  21.089   1.808
62678W        W26237  23.501  27.640   2.303
62679W        W26238  19.754  37.434  12.833
62680W        W26239  19.544  41.975   1.723
62681W        W26240  21.584  20.674   0.468
62682W        W26241  38.980  41.029   3.705
62683W        W26242  28.550  27.012  11.927
62684W        W26243  18.093   8.218   0.293
62685W        W26244   2.734   9.287   2.692
62686W        W26245  37.883  13.271   0.765
62687W        W26246  34.047  15.677   3.385
62688W        W26247  22.706  19.740  12.984
62689W        W26248  40.316  16.769   1.850
62690W        W26249   3.764  32.969  14.915
62691W        W26250   1.958  18.647   3.298
62692W        W26251  17.557   1.864   0.426
62693W        W26252  40.841  12.756  12.388
62694W        W26253   5.428  36.428  11.511
62695W        W26254  26.659  44.928  14.379
62696W        W26255  18.635   9.160   4.787
62697W        W26256  31.626   7.201  13.991
62698W        W26257   3.860  43.913  12.493
62699W        W26258   4.340  43.999  14.938
62700W        W26259  30.158  12.792  14.458
62701W        W26260  36.981  25.566   1.915
62702W        W26261  15.658  15.778  12.955
62703W        W26262  23.584  40.322  12.450
62704W        W26263  27.973  42.362  13.982
62705W        W26264  33.569  24.094  10.997
62706W        W26265  21.141  44.998   4.236
62707W        W26266   7.791   5.704   4.731
62708W        W26267  29.552  24.228   4.711
62709W        W26268  39.895  17.562   3.785
62710W        W26269  21.676  25.043   4.600
62711W        W26270   2.950  38.549  10.489
62712W        W26271  44.384  12.189  10.971
62713W        W26272  27.477  13.233   3.803
62714W        W26273  18.754  44.003  12.903
62715W        W26274  25.074  33.932  14.024
62716W        W26275  28.677  19.583   2.207
62717W        W26276   2.736  27.569   1.711
62718W        W26277  41.824  40.304  11.474
62719W        W26278   1.364  42.350   2.380
62720W        W26279   2.826  30.115   1.389
62721W        W26280  17.141  14.821  13.035
62722W        W26281  21.755  14.624   2.871
62723W        W26282  36.973  42.817  12.964
62724W        W26283  16.212  26.166   9.649
62725W        W26284   0.363   2.307  13.394
62726W        W26285   1.268  29.157  14.428
62727W        W26286  37.064  24.999  13.320
62728W        W26287  44.821  10.174   4.315
62729W        W26288  39.357  26.665  13.809
62730W        W26289  16.093  23.068   5.762
62731W        W26290  37.897  25.046   3.233
62732W        W26291  32.060  30.641   4.234
62733W        W26292  27.070  15.618  11.039
62734W        W26293  39.395  31.424   3.786
62735W        W26294  20.657  38.449   0.262
62736W        W26295  16.687  23.078   4.631
62737W        W26296   0.800   7.336   4.819
62738W        W26297  38.949  14.711   4.765
62739W        W26298  14.730  42.990  10.991
62740W        W26299  18.609  25.195   0.793
62741W        W26300   8.707  33.992  13.046
62742W        W26301   8.376  39.420  11.396
62743W        W26302  31.638   0.421   4.255
62744W        W26303  12.633  41.835   2.270
62745W        W26304  29.997  13.678   2.387
62746W        W26305  39.052   0.783  11.862
62747W        W26306  40.027  34.480   9.938
62748W        W26307  10.237   3.891   1.443
62749W        W26308  12.124  13.304   5.120
62750W        W26309  33.582  20.534   0.742
62751W        W26310  19.087  29.590   0.793
62752W        W26311  35.002  43.910   2.710
62753W        W26312   7.700  14.168  10.421
62754W        W26313   3.900  25.541  11.386
62755W        W26314  22.738  30.544  11.496
62756W        W26315  29.083  10.367   2.373
62757W        W26316   8.320  28.641  11.872
62758W        W26317  25.707  13.272  13.046
62759W        W26318  12.264  17.113   1.791
62760W        W26319  32.605  37.043  10.944
62761W        W26320  32.925  19.201   3.261
62762W        W26321   0.437  21.128   0.809
62763W        W26322  37.057  11.345   4.601
62764W        W26323  11.322  28.444   1.917
62765W        W26324  19.732   0.349  11.515
62766W        W26325  12.616  22.196  13.335
62767W        W26326  11.723   4.940  11.377
62768W        W26327  22.533   8.357   2.731
62769W        W26328  23.727  31.103   5.084
62770W        W26329  27.074  40.418   3.303
62771W        W26330  34.399  20.596  10.515
62772W        W26331   1.950  30.640   1.408
62773W        W26332   1.394  12.122   1.927
62774W        W26333  23.650   0.765  13.035
62775W        W26334   2.301  12.849  10.529
62776W        W26335  32.894  37.832  11.568
62777W        W26336  44.932   9.180   1.214
62778W        W26337  41.928  44.490  11.876
62779W        W26338  37.982  39.829   3.747
62780W        W26339   7.314  23.541   4.717
62781W        W26340  26.006  18.201   4.627
62782W        W26341  32.887  43.414  14.799
62783W        W26342  44.950  23.998  11.476
62784W        W26343  34.116   7.737   2.405
62785W        W26344  32.966  22.249  11.936
62786W        W26345  31.607  33.978   4.162
62787W        W26346  38.536  18.104   0.431
62788W        W26347  33.608   9.834   3.785
62789W        W26348  19.672  42.493  12.835
62790W        W26349  36.423  38.908  11.557
62791W        W26350   4.370  11.142   3.691
62792W        W26351  34.520   4.381   4.344
62793W        W26352  23.527  22.172   2.413
62794W        W26353  18.257  31.632  11.875
62795W        W26354   5.401  15.769  12.383
62796W        W26355  23.657  24.635  11.027
62797W        W26356   4.206  20.549   3.792
62798W        W26357   2.947  37.435  14.963
62799W        W26358   1.465  40.038   1.812
62800W        W26359  25.098  35.572  12.427
62801W        W26360   4.830   2.943  10.089
62802W        W26361  11.775   6.187  13.441
62803W        W26362   3.843  34.587   3.690
62804W        W26363  22.598  22.546   5.291
62805W        W26364  12.738  27.562   1.850
62806W        W26365  18.783  27.689  12.578
62807W        W26366   3.884  28.054  14.961
62808W        W26367   4.711   0.792   1.718
62809W        W26368  16.234  27.612  14.478
62810W        W26369   3.265  35.915   1.267
62811W        W26370  20.546  11.351  14.362
62812W        W26371  11.215  18.192  12.056
62813W        W26372  44.432  28.537  11.451
62814W        W26373   3.851  14.156  11.416
62815W        W26374  15.823  38.995  13.048
62816W        W26375  30.944  13.343   3.834
62817W        W26376  32.534  17.267  13.356
62818W        W26377  13.741   9.680   9.501
62819W        W26378  41.437  31.929   4.294
62820W        W26379  21.577  43.433  13.542
62821W        W26380  44.259  17.175   0.444
62822W        W26381  32.971  30.579   4.821
62823W        W26382  30.551  17.203   1.930
62824W        W26383  14.627  20.191  13.311
62825W        W26384  42.482  33.113  12.960
62826W        W26385   6.680  20.591  11.994
62827W        W26386  38.437  41.911  13.380
62828W        W26387  28.056  42.313   2.337
62829W        W26388  20.229  38.887  14.473
62830W        W26389  21.117  19.706   5.189
62831W        W26390  26.670  24.596  13.938
62832W        W26391  15.109  18.291  11.932
62833W        W26392  36.873  14.740   1.344
62834W        W26393  30.998   7.689  10.617
62835W        W26394   9.162  22.034   0.762
62836W        W26395  11.230   6.763   0.834
62837W        W26396  24.548  26.184  11.460
62838W        W26397  16.808  21.104  14.423
62839W        W26398  40.913   3.780   2.753
62840W        W26399  28.594   6.324  12.890
62841W        W26400  19.593  33.931  11.571
62842W        W26401  30.071  25.133   1.386
62843W        W26402   2.934   2.873  11.005
62844W        W26403  44.775  40.407  11.961
62845W        W26404  25.109  22.210  14.958
62846W        W26405   3.843  36.449   1.698
62847W        W26406  18.289  29.423  13.025
62848W        W26407  34.888  32.084   2.231
62849W        W26408  15.263  11.803  12.866
62850W        W26409  14.336   6.223  14.375
62851W        W26410  23.093   9.370   2.730
62852W        W26411  15.153  25.990  12.359
62853W        W26412  24.592  40.820   3.356
62854W        W26413  32.043  31.995   2.311
62855W        W26414   9.249  22.742   3.861
62856W        W26415  43.393  14.270   4.142
62857W        W26416   3.952  15.237   4.735
62858W        W26417  44.799  34.913  10.995
62859W        W26418   5.777  28.037   3.303
62860W        W26419   4.445  21.110  13.044
62861W        W26420   8.403  27.968  14.030
62862W        W26421  14.295   7.352  11.605
62863W        W26422   0.272  19.245   0.323
62864W        W26423  37.037  23.603  12.565
62865W        W26424   0.845  21.552  12.997
62866W        W26425  35.060  34.454   2.289
62867W        W26426  16.132  22.168   9.532
62868W        W26427   6.341  36.940  11.389
62869W        W26428  20.767  19.664  13.406
62870W        W26429  33.898  28.009   3.253
62871W        W26430  17.683  38.822  10.530
62872W        W26431   4.802  10.175   2.317
62873W        W26432   3.828   7.302  12.038
62874W        W26433  44.844  40.481   0.738
62875W        W26434   3.935   0.318   1.414
62876W        W26435  39.065  40.926   0.439
62877W        W26436  13.652  18.650   1.275
62878W        W26437  33.524   5.878   2.303
62879W        W26438  12.814  30.972  13.938
62880W        W26439  29.029  25.580  14.293
62881W        W26440  31.436  22.591   1.269
62882W        W26441  40.879   7.360  13.987
62883W        W26442  36.570  27.136   0.729
62884W        W26443  26.122   7.393  14.790
62885W        W26444  40.875  13.281   3.255
62886W        W26445  32.036  31.918  14.483
62887W        W26446  41.453  12.183   3.857
62888W        W26447   2.897  25.990  12.976
62889W        W26448  14.695  42.308   3.346
62890W        W26449  40.336   9.295   4.225
62891W        W26450  14.604  13.332  14.490
62892W        W26451  17.289  22.219  11.536
62893W        W26452   5.423  22.576  13.913
62894W        W26453  34.422   2.764  10.937
62895W        W26454  18.728  19.776  12.927
62896W        W26455  23.177  21.554  14.878
62897W        W26456  21.677  12.169   0.472
62898W        W26457  27.187  35.895  13.840
62899W        W26458   3.711  13.271   0.466
62900W        W26459  23.161   3.751   2.390
62901W        W26460  10.683   8.686   1.282
62902W        W26461  36.367   3.252   3.732
62903W        W26462  15.203  19.746  11.035
62904W        W26463  11.805   7.907   0.940
62905W        W26464   9.355   7.715   2.357
62906W        W26465  40.844  40.843  15.000
62907W        W26466  20.547  35.446  11.423
62908W        W26467   6.745   5.927   2.252
62909W        W26468  13.253  13.829   4.173
62910W        W26469  18.559  30.473  13.013
62911W        W26470  34.013  28.586  10.965
62912W        W26471  36.472  38.438   0.771
62913W        W26472  14.624  29.541   2.336
62914W        W26473  19.672   8.396  12.977
62915W        W26474  10.695  43.806  14.453
62916W        W26475  17.695  13.839  12.577
62917W        W26476  39.413   3.880  11.586
62918W        W26477  29.632  19.257  11.021
62919W        W26478  36.436   8.300   2.407
62920W        W26479   4.374  44.415   0.438
62921W        W26480  25.692   1.851   3.819
62922W        W26481  17.174  22.142  11.867
62923W        W26482  28.986   0.391   3.869
62924W        W26483  27.039   4.431   1.319
62925W        W26484  42.855   2.372   0.894
62926W        W26485   9.709  14.620   0.833
62927W        W26486  19.749   4.443  12.471
62928W        W26487  32.112   5.923   4.607
62929W        W26488  17.116  39.352   3.659
62930W        W26489  13.779  37.050   1.252
62931W        W26490  17.240  13.228   2.840
62932W        W26491   9.731  39.962  10.933
62933W        W26492  12.284   5.354   1.373
62934W        W26493   7.361  33.469   2.885
62935W        W26494  44.910  11.752  10.501
62936W        W26495   9.849   5.322  11.385
62937W        W26496  18.145  31.930   4.782
62938W        W26497  23.530  28.514   2.220
62939W        W26498   8.691  25.508   4.814
62940W        W26499  31.483   9.229   1.886
62941W        W26500  20.760   8.734  10.952
62942W        W26501   9.175  25.006  13.873
62943W        W26502  24.558  26.585   2.686
62944W        W26503  13.658  41.821  11.942
62945W        W26504  13.792  19.073  11.988
62946W        W26505   3.918   0.962   1.819
62947W        W26506  25.036  40.970  11.556
62948W        W26507   5.293  36.973   3.248
62949W        W26508  27.063   1.810   5.135
62950W        W26509  12.315  24.129   3.305
62951W        W26510  22.737  38.415  14.923
62952W        W26511  12.205  21.168  12.859
62953W        W26512   8.267  33.424   0.444
62954W        W26513  35.421   2.260   3.748
62955W        W26514  27.023  30.129  13.033
62956W        W26515   8.852  29.060   0.840
62957W        W26516  16.589   9.244   9.537
62958W        W26517  35.571   6.249   3.869
62959W        W26518   4.702  22.695  10.014
62960W        W26519  23.609  42.475  13.492
62961W        W26520   9.337   7.855   4.182
62962W        W26521  10.193   2.798  11.409
62963W        W26522   9.747  28.967   4.691
62964W        W26523  41.376  40.012  11.028
62965W        W26524  20.161   8.292   4.179
62966W        W26525  23.534  33.115   1.781
62967W        W26526  13.263  43.835  10.633
62968W        W26527  23.609  31.137   3.353
62969W        W26528  21.244  20.254   5.216
62970W        W26529  22.210  14.255   4.236
62971W        W26530  10.254  37.494  10.090
62972W        W26531  34.888   2.410  13.894
62973W        W26532  43.416  25.004  11.013
62974W        W26533  19.236  30.650   1.750
62975W        W26534  38.424  33.896  14.465
62976W        W26535  21.557  16.588   0.829
62977W        W26536  43.844  44.759   2.389
62978W        W26537  17.573   8.875   0.904
62979W        W26538  10.771  11.722   2.732
62980W        W26539  42.934   0.936  11.042
62981W        W26540  23.078   5.233   2.265
62982W        W26541  16.663   4.891   3.718
62983W        W26542  17.244   1.781   3.208
62984W        W26543  19.236  43.369  10.893
62985W        W26544  12.216  27.156   3.768
62986W        W26545  23.609  35.991   2.369
62987W        W26546  35.593   3.394   2.898
62988W        W26547  17.298  23.646  10.447
62989W        W26548  10.669   1.873  14.965
62990W        W26549  28.625   5.365  13.377
62991W        W26550  42.371  37.451   0.451
62992W        W26551  26.507  11.270   2.785
62993W        W26552   5.284  17.191   2.322
62994W        W26553   6.889  22.647  12.572
62995W        W26554  28.047  25.974  11.444
62996W        W26555  12.335  16.582  14.308
62997W        W26556  37.394  21.132   0.272
62998W        W26557  34.883  18.743  14.894
62999W        W26558  39.975  36.846  10.596
63000W        W26559  11.284  38.823  10.443
63001W        W26560  11.658  30.519   2.268
63002W        W26561  14.782  15.195  12.044
63003W        W26562   4.734  41.965  12.564
63004W        W26563  40.906  34.542   3.308
63005W        W26564  33.902   1.323   2.336
63006W        W26565  42.865  14.311   3.318
63007W        W26566   2.894  19.694   0.441
63008W        W26567  36.515  28.960  12.087
63009W        W26568  10.171  37.041  13.916
63010W        W26569  34.892  36.575  10.414
63011W        W26570  28.172   4.237   3.777
63012W        W26571  19.695  40.464  10.938
63013W        W26572   3.935   2.948   2.673
63014W        W26573  33.027   1.956   3.829
63015W        W26574   2.829  26.051  13.540
63016W        W26575  40.453   1.921  10.413
63017W        W26576  13.633  29.115   4.730
63018W        W26577  33.439  10.250   3.779
63019W        W26578   9.366  39.373   4.286
63020W        W26579   5.809  22.531   1.422
63021W        W26580  14.268  42.506   3.863
63022W        W26581   0.320  21.131  13.817
63023W        W26582  15.274   8.310   2.674
63024W        W26583  28.049  43.892  10.442
63025W        W26584  37.990  44.424   3.723
63026W        W26585  36.583  41.905  14.960
63027W        W26586  14.140  31.076   2.733
63028W        W26587  37.837  23.235  14.396
63029W        W26588  41.334   7.371  12.339
63030W        W26589  34.544  35.879   3.639
63031W        W26590  38.328  40.389   1.267
63032W        W26591  26.053  43.861   0.334
63033W        W26592  27.017  12.355   2.365
63034W        W26593   7.694  41.997   3.707
63035W        W26594   3.799   4.903   1.697
63036W        W26595  13.240  22.139   4.130
63037W        W26596  10.330  42.499  14.299
63038W        W26597  25.618  13.770   1.719
63039W        W26598  32.975  43.424   3.772
63040W        W26599  35.971  25.638  12.891
63041W        W26600  24.535  21.561   3.386
63042W        W26601  17.621  28.009   1.784
63043W        W26602  11.833  20.631   3.237
63044W        W26603  40.418   7.232  12.349
63045W        W26604  25.030   9.277   3.674
63046W        W26605  41.523  21.149   1.317
63047W        W26606  11.361  37.046  12.370
63048W        W26607  32.028  39.392   3.683
63049W        W26608  18.695  20.140  14.470
63050W        W26609  18.130  34.102   0.762
63051W        W26610  34.613  44.382   1.297
63052W        W26611  17.563  40.321  13.045
63053W        W26612  41.788  20.161  14.406
63054W        W26613  20.161  12.797   0.453
63055W        W26614  27.048  39.489   3.322
63056W        W26615  28.528  33.040   4.312
63057W        W26616  30.575   3.773   4.191
63058W        W26617  15.197  11.740   1.882
63059W        W26618  19.677  25.007  13.831
63060W        W26619  25.997   6.360  13.329
63061W        W26620  21.134  15.817   3.200
63062W        W26621   1.441  11.334  14.856
63063W        W26622   6.853  23.631   3.864
63064W        W26623   5.315   4.277   2.233
63065W        W26624   6.369  20.595   3.189
63066W        W26625  25.142  18.738   1.258
63067W        W26626  19.582  42.463  10.941
63068W        W26627  35.548  22.067  11.575
63069W        W26628  31.110  42.352  11.429
63070W        W26629   1.963  15.735   3.723
63071W        W26630  20.739  28.463   9.971
63072W        W26631   6.701  24.590   1.825
63073W        W26632  27.633  26.987  13.390
63074W        W26633  23.054   6.902  12.572
63075W        W26634   8.735   0.315  11.936
63076W        W26635  43.484  25.051  12.890
63077W        W26636  41.914  39.996  10.406
63078W        W26637  12.150   1.357   2.829
63079W        W26638  16.615  38.903   2.664
63080W        W26639  34.408   2.775   4.627
63081W        W26640   5.421  39.934   0.765
63082W        W26641  30.439  40.830  11.497
63083W        W26642  16.253  13.108  10.520
63084W        W26643   0.808  36.460  14.030
63085W        W26644  40.923  12.758   0.482
63086W        W26645  17.076  15.174   3.826
63087W        W26646  33.508   7.711  11.607
63088W        W26647  27.592  16.211  12.342
63089W        W26648  36.455  28.634  12.407
63090W        W26649  34.530  31.031   1.426
63091W        W26650  24.656  32.105  14.493
63092W        W26651  34.011  38.034  13.827
63093W        W26652  14.611  31.106   0.965
63094W        W26653  10.765  28.616  14.008
63095W        W26654  18.617  18.659   2.854
63096W        W26655  29.000  41.941  13.031
63097W        W26656   8.900  31.422   4.267
63098W        W26657  44.823  29.654   1.768
63099W        W26658  23.713  16.236   1.210
63100W        W26659  26.186   3.915   2.200
63101W        W26660   5.767  31.470  12.828
63102W        W26661  13.787   6.790   4.337
63103W        W26662  11.705  37.360  14.932
63104W        W26663  17.138  16.671  11.079
63105W        W26664   6.322  23.214   0.386
63106W        W26665   3.786  31.060  10.497
63107W        W26666  24.992  35.525  12.864
63108W        W26667   1.399   3.773  11.943
63109W        W26668  17.786  41.390  10.626
63110W        W26669  32.568   4.421  13.510
63111W        W26670  17.125  18.559  14.857
63112W        W26671   9.656  31.502   1.415
63113W        W26672   1.742  22.702  13.882
63114W        W26673  27.616  25.213  14.372
63115W        W26674  26.634   3.937  14.344
63116W        W26675   3.261   3.257  12.444
63117W        W26676  21.625  36.519  13.801
63118W        W26677  31.012   7.417  11.011
63119W        W26678   9.248  35.584   0.932
63120W        W26679  17.169  36.511  12.353
63121W        W26680  14.604  13.137   0.273
63122W        W26681  35.916  24.601   3.851
63123W        W26682  29.946  21.704  11.858
63124W        W26683  15.283  42.433   3.182
63125W        W26684  42.940   6.287   0.370
63126W        W26685  38.433  22.700  11.584
63127W        W26686   5.815   1.372  10.428
63128W        W26687   1.828  10.754   3.148
63129W        W26688  21.175  12.209  12.944
63130W        W26689  40.818  37.379  14.477
63131W        W26690  33.117  14.763  14.032
63132W        W26691  16.585  31.137  13.024
63133W        W26692   1.866  30.155   0.868
63134W        W26693  39.329  20.688  11.868
63135W        W26694  44.936  16.172  10.576
63136W        W26695  38.513   5.901   2.795
63137W        W26696  42.462  43.298  12.951
63138W        W26697   6.338  33.027  13.064
63139W        W26698  15.124  31.505   1.261
63140W        W26699   4.772   2.757   3.673
63141W        W26700   1.916   6.285  13.864
63142W        W26701  42.807  10.223   3.675
63143W        W26702  12.640   2.227  10.595
63144W        W26703  18.711  20.091  10.586
63145W        W26704  14.291  17.303   1.894
63146W        W26705   2.261   8.362  13.999
63147W        W26706  17.790   7.805  12.980
63148W        W26707  30.549  32.922  13.522
63149W        W26708  11.349   9.305   9.485
63150W        W26709  15.634   6.422  10.451
63151W        W26710  11.187  31.591   3.654
63152W        W26711  36.904   2.257  12.891
63153W        W26712  26.987  23.987  14.903
63154W        W26713  44.393  39.354  12.834
63155W        W26714   7.355  31.503  13.967
63156W        W26715  18.572  14.788  11.008
63157W        W26716  38.829   7.304  12.569
63158W        W26717   5.907   7.242  13.884
63159W        W26718  27.985  32.484  10.962
63160W        W26719  18.274   1.471   0.803
63161W        W26720  21.753  17.801  14.397
63162W        W26721  40.046  13.339   4.794
63163W        W26722   6.287   7.877  14.513
63164W        W26723  41.433  11.315   4.121
63165W        W26724  13.637  26.603   9.919
63166W        W26725  17.071   6.415  14.925
63167W        W26726   0.336  15.613   1.412
63168W        W26727  41.790  28.553  12.895
63169W        W26728  44.489   3.455  11.529
63170W        W26729  16.597  21.569   0.348
63171W        W26730  17.120   0.266  13.055
63172W        W26731   9.175  32.977   0.333
63173W        W26732  34.531   0.929   1.370
63174W        W26733  22.552   4.412   1.789
63175W        W26734  40.532  33.130  13.496
63176W        W26735  27.665  15.180   2.896
63177W        W26736  43.507  32.051   0.243
63178W        W26737  40.803  20.607  10.974
63179W        W26738  12.190  39.342  14.923
63180W        W26739  38.943   0.478  10.087
63181W        W26740  19.627  10.364  10.068
63182W        W26741  19.040   6.365  13.049
63183W        W26742  30.436  32.053  11.514
63184W        W26743  20.211  42.301  14.362
63185W        W26744  31.427  21.675   0.427
63186W        W26745   1.480  39.886   2.373
63187W        W26746   0.931  39.543   1.361
63188W        W26747  33.973   9.878   3.370
63189W        W26748  30.108   9.659   1.829
63190W        W26749   1.732   1.833  10.513
63191W        W26750   5.294  35.902   2.409
63192W        W26751  40.406  42.451  11.577
63193W        W26752  20.101  17.607   1.265
63194W        W26753  42.297  16.807   4.282
63195W        W26754  10.211   6.395   1.847
63196W        W26755  15.231  26.034  13.461
63197W        W26756  29.085  32.616  10.434
63198W        W26757   0.858  36.536   4.631
63199W        W26758  37.508  15.327   2.850
63200W        W26759  13.682  39.867  13.497
63201W        W26760  27.569  38.835  10.410
63202W        W26761  13.125  32.006   5.175
63203W        W26762  31.978   0.936  11.888
63204W        W26763  37.976  16.206  13.470
63205W        W26764  29.594  27.655   0.443
63206W        W26765  32.535   2.438  10.486
63207W        W26766  23.572  14.140   0.964
63208W        W26767  41.454  34.419  11.945
63209W        W26768   4.412  19.597  10.596
63210W        W26769   3.226  35.874  12.961
63211W        W26770  23.119  37.453   4.763
63212W        W26771  39.348  40.872  13.326
63213W        W26772  19.665  39.480  13.838
63214W        W26773  27.997  33.508  12.389
63215W        W26774  24.210  22.204   3.798
63216W        W26775  41.818  30.989   1.741
63217W        W26776   8.328  30.560  11.416
63218W        W26777  39.823  40.492  10.524
63219W        W26778  39.836  17.102   2.210
63220W        W26779  20.031  28.469  11.998
63221W        W26780  41.517  39.548   0.813
63222W        W26781  34.030  35.988   0.810
63223W        W26782  43.811  20.541   1.376
63224W        W26783  26.585  22.731  12.067
63225W        W26784  23.046   4.389  11.912
63226W        W26785  42.792  40.872  11.532
63227W        W26786   8.395  23.723  13.000
63228W        W26787   2.448   3.394   5.111
63229W        W26788   4.372   3.742   4.340
63230W        W26789  26.656  43.296  11.125
63231W        W26790  27.952   8.330  11.912
63232W        W26791  16.694  24.527  14.358
63233W        W26792   6.219  34.489   1.394
63234W        W26793  18.223  19.624  14.986
63235W        W26794  41.994  20.132   1.281
63236W        W26795  33.920  24.625   1.365
63237W        W26796  21.517  29.541   1.893
63238W        W26797  34.576  39.549   4.202
63239W        W26798  22.696  43.416  10.112
63240W        W26799  28.945  21.675   9.952
63241W        W26800   5.771  29.048   0.335
63242W        W26801   6.724  29.011   4.666
63243W        W26802  20.745  20.608  12.953
63244W        W26803  40.421  38.438   4.285
63245W        W26804  39.847  24.611   2.276
63246W        W26805   8.656  10.650  11.436
63247W        W26806  12.760  13.150  10.434
63248W        W26807  38.388   0.463   1.701
63249W        W26808  24.625   4.419   1.916
63250W        W26809  14.329  23.239   3.280
63251W        W26810  28.600  35.986   4.351
63252W        W26811  32.906  32.051  13.507
63253W        W26812  18.142   2.844   1.408
63254W        W26813  10.675  26.615  11.372
63255W        W26814  24.685  26.594  14.962
63256W        W26815   9.334  27.557  10.538
63257W        W26816  39.042  29.008   2.281
63258W        W26817  44.279   3.869  14.491
63259W        W26818   5.927  43.277  12.426
63260W        W26819  39.467  28.106  13.043
63261W        W26820  13.835   5.736   4.838
63262W        W26821  44.790  27.064   2.419
63263W        W26822   2.457  44.998   2.685
63264W        W26823  14.195   8.753   1.747
63265W        W26824  21.612  43.964  14.892
63266W        W26825  30.004  15.273  14.285
63267W        W26826  17.736  40.036  12.462
63268W        W26827  43.301  38.970  13.386
63269W        W26828   4.940  28.962  14.465
63270W        W26829  26.959  27.579  13.949
63271W        W26830  20.206  26.955   2.794
63272W        W26831  38.842  15.605   4.291
63273W        W26832   1.845  38.553   2.722
63274W        W26833  33.938   7.690  10.101
63275W        W26834  19.106  12.259   0.864
63276W        W26835  33.532  25.653  14.885
63277W        W26836  38.531  44.811   2.310
63278W        W26837  30.524  10.796   2.731
63279W        W26838  14.818  18.221   1.905
63280W        W26839  41.833  39.361  14.474
63281W        W26840  33.122   5.876  11.505
63282W        W26841  21.153  24.096  12.093
63283W        W26842   4.913  13.694  13.469
63284W        W26843   7.683  18.228  10.626
63285W        W26844  34.091  34.057  14.276
63286W        W26845   2.453  18.767  13.018
63287W        W26846  33.900  29.570  13.033
63288W        W26847  34.566   8.794   5.761
63289W        W26848  12.327  31.908   4.748
63290W        W26849   3.844  36.051  13.016
63291W        W26850  35.503   9.671   1.444
63292W        W26851  24.705  25.037   4.226
63293W        W26852   2.283  33.416  14.451
63294W        W26853  30.075   8.200  13.858
63295W        W26854  35.588   1.438  14.382
63296W        W26855   4.803  33.610  12.424
63297W        W26856  17.628   3.811   3.764
63298W        W26857   9.785  18.275   1.827
63299W        W26858   6.417  19.668   0.811
63300W        W26859  34.570  29.985   4.153
63301W        W26860  40.390  41.036   3.766
63302W        W26861  11.840  29.015  14.872
63303W        W26862  31.942   1.375  13.040
63304W        W26863   4.379   5.701  14.980
63305W        W26864  17.303  12.335  12.945
63306W        W26865   4.332  23.023  12.490
63307W        W26866  28.086   0.273  14.942
63308W        W26867  15.272   5.232   0.415
63309W        W26868  15.092  44.894   0.407
63310W        W26869  44.447  34.896  12.835
63311W        W26870  41.842  10.814  12.043
63312W        W26871   4.847   9.218   3.815
63313W        W26872  11.666  32.092   2.363
63314W        W26873  17.754  28.677   1.876
63315W        W26874  20.132  23.672   0.390
63316W        W26875  33.938  31.999  10.483
63317W        W26876  21.159   1.459  11.535
63318W        W26877  42.967  16.759   3.212
63319W        W26878  13.612  23.046  14.475
63320W        W26879  44.265  37.974   1.917
63321W        W26880  11.670  18.219   0.937
63322W        W26881   4.727  30.610  12.374
63323W        W26882  21.664  39.403  12.994
63324W        W26883  11.649  29.535  10.924
63325W        W26884   4.700  19.188  13.897
63326W        W26885   3.824  39.444   4.172
63327W        W26886   6.774  28.990   4.342
63328W        W26887  35.552  32.399   0.811
63329W        W26888   8.387  16.614  11.470
63330W        W26889  38.076  20.624  14.853
63331W        W26890  34.968  30.448  12.515
63332W        W26891  35.954  12.269  13.420
63333W        W26892   5.379  27.579  14.938
63334W        W26893  38.401  21.026  11.589
63335W        W26894  19.556  37.969   0.339
63336W        W26895  23.694  14.663   1.708
63337W        W26896   1.830  38.408  13.315
63338W        W26897   9.663  10.804  11.405
63339W        W26898  44.809  33.387   2.290
63340W        W26899  32.945  16.171  12.570
63341W        W26900  27.671  11.157   3.353
63342W        W26901  42.865  34.427   1.798
63343W        W26902  14.714  44.400  10.930
63344W        W26903  28.012  21.111   4.638
63345W        W26904   2.752   4.245   4.743
63346W        W26905  13.825  27.485   0.726
63347W        W26906  12.810   6.861   9.662
63348W        W26907  17.282  35.018  12.865
63349W        W26908  30.107  16.085   0.454
63350W        W26909  11.284   9.172   5.786
63351W        W26910  31.559   1.420  11.579
63352W        W26911  35.044  36.099   3.297
63353W        W26912  16.287  27.060  10.595
63354W        W26913  43.428  25.078   0.410
63355W        W26914  36.876  15.317   4.295
63356W        W26915  20.543   1.804   4.601
63357W        W26916  39.427  31.451   4.813
63358W        W26917  44.949  28.084   0.773
63359W        W26918  43.302  20.614  11.082
63360W        W26919  11.663  42.928   2.896
63361W        W26920  17.166  39.983  14.451
63362W        W26921  18.286   2.735  10.644
63363W        W26922  38.388   3.373  10.984
63364W        W26923   1.419   4.236   4.243
63365W        W26924  24.154  31.585   4.624
63366W        W26925  32.497  43.004  10.554
63367W        W26926  37.051  32.435  14.311
63368W        W26927  15.106   6.824   1.804
63369W        W26928  17.101  33.914  10.584
63370W        W26929  14.259  26.494  12.455
63371W        W26930  26.533  42.927  12.371
63372W        W26931   8.707  16.242   0.854
63373W        W26932  27.982  25.065  14.930
63374W        W26933  28.149  30.581   3.749
63375W        W26934  17.091  14.319  10.955
63376W        W26935  40.359  39.919  13.518
63377W        W26936   7.855  30.545   4.627
63378W        W26937  34.512  37.870   0.931
63379W        W26938   9.674  35.563  13.338
63380W        W26939  40.908  35.923   3.725
63381W        W26940  35.388  33.593   1.852
63382W        W26941  35.593  42.001  14.303
63383W        W26942  21.219  39.403  12.868
63384W        W26943  36.542  28.175   3.319
63385W        W26944  31.901  14.259  11.120
63386W        W26945  41.902   3.765   2.831
63387W        W26946  15.804  34.538  13.926
63388W        W26947  32.534  33.473  10.069
63389W        W26948  16.113  37.369  12.565
63390W        W26949   6.331   2.798  11.875
63391W        W26950   7.715  13.344  10.644
63392W        W26951  38.498  29.117   1.273
63393W        W26952  22.079  16.616   3.855
63394W        W26953  29.659  40.988  12.352
63395W        W26954   8.226  23.165   2.811
63396W        W26955  20.182  32.473   2.298
63397W        W26956  43.833  17.274   4.215
63398W        W26957  35.923  22.067  14.496
63399W        W26958  11.263  24.212  13.447
63400W        W26959  17.662  39.921   1.896
63401W        W26960  36.419  30.007  10.959
63402W        W26961  12.119  23.020  10.404
63403W        W26962   3.811  18.122  14.455
63404W        W26963  36.973  23.030  10.954
63405W        W26964   1.432   2.263  13.795
63406W        W26965  30.129   1.378  13.817
63407W        W26966   9.244  24.098  14.497
63408W        W26967  22.221  30.445   2.374
63409W        W26968  26.039  28.477  13.417
63410W        W26969  27.041  18.173  14.372
63411W        W26970  19.717   3.413  13.002
63412W        W26971  30.541  35.393  11.865
63413W        W26972  28.171  11.831   1.274
63414W        W26973   4.939  34.093   3.859
63415W        W26974   6.413  30.002  12.391
63416W        W26975  42.795   9.179  11.922
63417W        W26976  10.222  37.445  14.329
63418W        W26977  31.537  43.855  13.544
63419W        W26978  31.126   5.752  13.803
63420W        W26979  11.638   7.384  14.922
63421W        W26980  21.238  32.898   1.843
63422W        W26981  12.180  29.629  12.443
63423W        W26982  15.088  28.165   1.900
63424W        W26983  12.314   1.339  13.505
63425W        W26984  10.239  14.764  11.972
63426W        W26985   3.372  43.387   4.215
63427W        W26986  23.589   1.760  10.566
63428W        W26987  36.887  26.529  10.643
63429W        W26988  29.041  12.820   4.667
63430W        W26989  23.068   2.286   2.328
63431W        W26990  19.539  43.406   1.351
63432W        W26991   0.401  15.810  13.948
63433W        W26992  10.169  12.316  12.535
63434W        W26993  24.548   7.666   4.135
63435W        W26994  10.314  28.115   4.701
63436W        W26995  39.527  40.011   2.300
63437W        W26996  31.617   9.235   9.940
63438W        W26997   9.149  36.365   1.880
63439W        W26998  35.439  39.506   4.621
63440W        W26999  30.037  21.668   3.803
63441W        W27000  39.531  16.804   3.855
63442W        W27001  37.972  23.171   3.148
63443W        W27002  43.489  42.825  11.855
63444W        W27003  41.837  18.165   3.829
63445W        W27004  41.511   5.309   1.722
63446W        W27005  21.529  16.268  14.278
63447W        W27006  37.479  27.640  14.504
63448W        W27007  40.817   3.407   0.302
63449W        W27008  26.684  43.779  14.896
63450W        W27009  15.112   2.248   4.158
63451W        W27010  10.653  34.563  12.505
63452W        W27011  11.694   7.893  13.836
63453W        W27012  27.560  39.050   1.269
63454W        W27013  22.688  39.322   0.259
63455W        W27014  20.653  16.104   1.257
63456W        W27015  39.364  30.627  14.278
63457W        W27016  32.590  11.748   9.997
63458W        W27017  10.839  11.621   1.758
63459W        W27018  23.138  12.850  14.875
63460W        W27019  33.591  36.492   4.629
63461W        W27020  40.028  18.178  11.470
63462W        W27021   4.306   3.918   3.154
63463W        W27022  32.497   1.972   5.203
63464W        W27023  13.806  40.482   1.435
63465W        W27024  11.330  19.202  12.062
63466W        W27025  17.769   7.703   4.660
63467W        W27026  36.398  11.652  10.595
63468W        W27027  15.110  26.036  12.846
63469W        W27028   4.862  32.047   2.282
63470W        W27029  33.582  11.748   0.291
63471W        W27030  16.221  11.142  10.533
63472W        W27031  42.867  34.040   2.825
63473W        W27032   3.314  40.509  12.035
63474W        W27033  34.043  22.134   1.700
63475W        W27034  34.492  21.037  13.454
63476W        W27035  42.859  40.440  14.900
63477W        W27036  14.832  13.815   2.223
63478W        W27037  28.628  41.464   0.431
63479W        W27038  33.126  34.507  11.971
63480W        W27039  31.917  11.189   3.793
63481W        W27040  19.688  27.568  11.437
63482W        W27041  18.249  23.576  12.831
63483W        W27042   9.190  24.151  10.513
63484W        W27043  19.748  35.101   3.739
63485W        W27044  37.015  34.874   1.423
63486W        W27045  39.493  30.973  13.481
63487W        W27046  25.151  24.066  14.916
63488W        W27047   6.232  35.062   4.264
63489W        W27048  16.077  30.487   3.865
63490W        W27049  38.846   3.944  11.930
63491W        W27050  31.105   3.381  13.848
63492W        W27051   8.656  21.158  12.349
63493W        W27052   3.888   8.160   0.864
63494W        W27053  25.517  12.232  13.036
63495W        W27054  23.021   4.217  10.993
63496W        W27055  39.921  37.519   1.852
63497W        W27056   5.378  36.395  14.338
63498W        W27057   7.217  44.893  10.904
63499W        W27058   3.865  24.621   2.894
63500W        W27059  30.524  24.723   4.680
63501W        W27060  38.461  40.543  12.076
63502W        W27061  29.493  27.068  12.510
63503W        W27062  13.800   0.884   4.626
63504W        W27063   9.233   8.208   3.831
63505W        W27064  27.613  26.185   4.331
63506W        W27065   5.402   0.303   1.295
63507W        W27066  19.610  16.185   0.391
63508W        W27067   8.312   9.276  13.408
63509W        W27068  18.275  22.708   0.375
63510W        W27069  29.091  36.023  13.376
63511W        W27070  22.672  28.464   1.430
63512W        W27071   9.859  38.570  14.514
63513W        W27072  40.817  41.841   1.874
63514W        W27073  28.122  28.130   0.380
63515W        W27074  29.175  27.027   2.375
63516W        W27075  24.635  20.705   1.327
63517W        W27076  20.765  12.740   0.371
63518W        W27077  33.475  20.686  14.418
63519W        W27078  34.953  36.396   4.732
63520W        W27079  32.625   8.278   0.860
63521W        W27080  23.665  43.365   2.213
63522W        W27081  33.424  32.120  10.493
63523W        W27082  43.339  33.953  10.421
63524W        W27083  24.611  22.072   1.233
63525W        W27084  44.831  25.636   3.363
63526W        W27085   7.369  35.400  11.544
63527W        W27086  26.468  25.131  14.501
63528W        W27087  23.585  22.608   2.680
63529W        W27088  27.539  13.822  13.020
63530W        W27089   4.216  43.772   4.730
63531W        W27090  38.002   9.225   3.646
63532W        W27091   0.403  25.644  13.844
63533W        W27092  10.863   5.745   0.846
63534W        W27093  41.841  35.102  12.484
63535W        W27094  21.227   3.333   0.764
63536W        W27095  40.999  18.084   0.927
63537W        W27096   8.882  42.389  11.873
63538W        W27097   8.899  10.632   4.285
63539W        W27098  37.385  42.807   3.849
63540W        W27099  43.484  40.904   3.715
63541W        W27100   4.435  37.406  13.909
63542W        W27101   1.909  34.910   2.811
63543W        W27102  33.433  13.144   2.403
63544W        W27103  35.918  40.446  12.354
63545W        W27104  24.556  18.774  12.450
63546W        W27105   1.329  35.513  12.362
63547W        W27106  15.779   1.738   3.358
63548W        W27107   7.377  28.510   2.825
63549W        W27108  23.221  12.740   0.396
63550W        W27109  25.592  28.603  13.873
63551W        W27110  31.452  43.009   1.864
63552W        W27111  26.675   5.862   4.127
63553W        W27112   1.237  12.317   3.692
63554W        W27113  16.171  30.987   2.406
63555W        W27114  10.807  33.997   1.740
63556W        W27115  11.755  25.484  11.023
63557W        W27116  13.304  43.326  14.277
63558W        W27117  18.164  39.353   1.758
63559W        W27118  12.618  42.957  12.908
63560W        W27119  43.951  11.634   2.401
63561W        W27120   3.418  41.384  10.419
63562W        W27121  26.957  11.352   3.829
63563W        W27122  38.487  41.792  12.558
63564W        W27123  28.068  30.095  12.934
63565W        W27124  10.154  44.351  10.139
63566W        W27125  39.397   3.418   1.422
63567W        W27126   3.216  13.748   1.337
63568W        W27127  26.472  29.621  13.939
63569W        W27128  22.162  34.119  13.956
63570W        W27129  18.564  20.626   4.792
63571W        W27130  21.626   0.812  13.032
63572W        W27131  40.045  44.799  13.936
63573W        W27132  41.911   8.694   2.184
63574W        W27133  20.153  15.721  13.979
63575W        W27134   3.347  29.094   1.365
63576W        W27135  17.204  28.498   2.708
63577W        W27136  32.119   0.326   0.265
63578W        W27137  14.743  21.575   1.429
63579W        W27138  13.148  41.830   3.673
63580W        W27139  21.127   3.423   3.650
63581W        W27140  12.801  19.130   3.379
63582W        W27141  39.014  33.506   3.198
63583W        W27142   9.821   5.216   3.219
63584W        W27143  43.395   2.303  12.981
63585W        W27144  15.118   0.294  13.386
63586W        W27145  11.212  33.908   0.782
63587W        W27146   4.834  10.305  13.350
63588W        W27147  38.907  21.608  12.852
63589W        W27148  44.847  35.961   3.222
63590W        W27149  43.366   6.290  14.780
63591W        W27150  31.932   5.877  14.503
63592W        W27151  33.940  23.066   4.757
63593W        W27152   7.713  39.430  13.866
63594W        W27153  39.408  33.529   0.461
63595W        W27154  12.614  38.986   3.741
63596W        W27155  10.796  16.233   0.862
63597W        W27156  35.917  35.940   3.260
63598W        W27157  33.590  44.908   1.396
63599W        W27158   8.763   1.397  13.864
63600W        W27159  26.661  31.010  11.910
63601W        W27160  11.635  17.077   1.931
63602W        W27161  29.071  21.249   1.259
63603W        W27162   8.853  28.091   0.834
63604W        W27163  30.970  13.343  11.057
63605W        W27164   9.322  12.846  14.920
63606W        W27165  39.435  17.100  12.013
63607W        W27166  27.489  30.100  14.884
63608W        W27167  42.849   6.786  11.103
63609W        W27168  28.022  42.800   1.376
63610W        W27169  20.737   0.918  14.939
63611W        W27170   6.254  40.052  10.468
63612W        W27171  34.904  22.705  13.950
63613W        W27172  40.474  30.654  10.075
63614W        W27173  11.214  21.071  13.957
63615W        W27174  24.552  24.697   2.812
63616W        W27175  35.913   7.819   3.313
63617W        W27176  16.242  19.675   2.821
63618W        W27177  39.947  23.131   4.145
63619W        W27178  32.606  44.836  14.950
63620W        W27179  17.590  32.954  12.499
63621W        W27180  29.551  14.232  14.982
63622W        W27181  15.223  38.429  11.884
63623W        W27182  30.438  25.114  11.448
63624W        W27183  15.632  44.950  11.929
63625W        W27184   9.674  41.910  10.486
63626W        W27185  29.024  16.721   3.844
63627W        W27186  44.874  32.897   4.337
63628W        W27187  43.765  31.049  12.449
63629W        W27188  15.171  16.175  11.052
63630W        W27189  12.693  40.409  14.929
63631W        W27190  32.965   1.819   4.605
63632W        W27191  41.509  12.123  11.490
63633W        W27192  25.041  22.999   0.417
63634W        W27193  39.316  10.284   3.337
63635W        W27194  25.602  29.486  10.114
63636W        W27195   1.743  14.675   2.715
63637W        W27196  28.587  38.917   4.836
63638W        W27197  18.247  40.940  14.813
63639W        W27198  26.695  22.600   1.844
63640W        W27199  14.824  14.750   0.771
63641W        W27200  26.161   1.885  11.518
63642W        W27201  18.656  28.002   4.131
63643W        W27202  36.576  44.958  11.404
63644W        W27203  26.086  23.670   4.332
63645W        W27204  35.437  13.132   5.227
63646W        W27205   8.727  23.220   3.778
63647W        W27206  30.594  15.299  11.986
63648W        W27207  28.563   1.778   4.214
63649W        W27208  36.885  25.107  11.865
63650W        W27209  39.817  37.084  11.985
63651W        W27210   7.365  17.572   2.735
63652W        W27211  29.496  24.064  13.528
63653W        W27212   9.369  12.825   2.707
63654W        W27213   9.340  38.555   0.727
63655W        W27214  19.780  12.362   0.361
63656W        W27215  22.153  35.877  14.876
63657W        W27216  22.711   1.815   3.654
63658W        W27217  30.474  27.539  10.594
63659W        W27218  44.809   5.257  12.858
63660W        W27219  13.826  41.993  10.588
63661W        W27220  42.882  27.979  11.495
63662W        W27221  27.613  42.932   1.423
63663W        W27222  40.325  22.164   3.274
63664W        W27223  35.046  36.862  13.501
63665W        W27224  36.067  21.532  10.606
63666W        W27225  30.963  35.552   2.341
63667W        W27226  35.054  42.362   0.427
63668W        W27227  26.200  31.912  14.765
63669W        W27228  25.974  23.113   2.378
63670W        W27229  39.973  19.624   2.672
63671W        W27230  18.700  11.249   0.358
63672W        W27231   7.417  28.975  10.592
63673W        W27232   2.893  19.557  12.878
63674W        W27233  12.818   2.757   4.313
63675W        W27234  24.995   8.371  10.991
63676W        W27235  18.255  12.341   2.707
63677W        W27236  32.970  28.507  10.641
63678W        W27237  15.179   8.341  11.861
63679W        W27238   6.184  13.184  14.416
63680W        W27239  36.877  17.581   0.271
63681W        W27240  26.056  43.012   2.837
63682W        W27241   9.264   6.377   0.933
63683W        W27242  41.414  17.780   4.764
63684W        W27243  44.262   9.166   0.787
63685W        W27244  24.587   9.864   9.467
63686W        W27245  18.222  38.892   2.271
63687W        W27246  24.045  32.619  12.409
63688W        W27247  39.365  28.582   3.230
63689W        W27248  41.520  20.689   1.796
63690W        W27249   6.195   3.738   2.774
63691W        W27250  14.635  42.342   0.829
63692W        W27251  33.912  27.122  11.004
63693W        W27252  18.104   1.860  13.949
63694W        W27253  38.937  25.584   4.265
63695W        W27254  38.008   6.829  13.488
63696W        W27255  14.593  15.120   3.172
63697W        W27256   6.802  40.306   0.401
63698W        W27257  37.369  27.097   4.157
63699W        W27258   3.267  30.536   4.251
63700W        W27259  18.183  36.851   1.741
63701W        W27260  35.556  42.853   0.830
63702W        W27261  14.283  34.064   0.278
63703W        W27262  12.619   8.736  12.875
63704W        W27263  24.196  42.792   1.248
63705W        W27264  34.468  40.867   9.661
63706W        W27265  35.993  42.304   3.339
63707W        W27266   8.835  20.122  13.444
63708W        W27267  27.940  26.065  13.308
63709W        W27268  31.454   4.320   1.906
63710W        W27269   0.880   7.700  13.003
63711W        W27270  28.064  35.949   3.731
63712W        W27271  35.480   2.270   0.769
63713W        W27272   1.749   6.229  14.980
63714W        W27273   5.826   5.890   0.458
63715W        W27274  18.642   2.419  10.936
63716W        W27275   2.246  33.568  10.069
63717W        W27276  32.921  12.267   5.624
63718W        W27277   7.904  34.088  14.797
63719W        W27278  37.072   6.263  14.449
63720W        W27279  15.236   9.200  13.994
63721W        W27280  30.488  24.038   2.330
63722W        W27281  10.145  44.314  14.836
63723W        W27282   6.836   8.227  11.050
63724W        W27283   5.256  21.231   3.342
63725W        W27284  22.521  15.601   0.891
63726W        W27285  38.945  34.877   0.251
63727W        W27286  23.051  37.371   3.154
63728W        W27287  14.124  34.936   1.914
63729W        W27288  43.301   4.753   4.339
63730W        W27289  42.781  30.656   0.847
63731W        W27290  15.679  20.229  14.308
63732W        W27291  30.418  12.831  14.419
63733W        W27292  24.579  22.706   3.760
63734W        W27293   7.342  22.690   3.293
63735W        W27294   3.327   6.284  14.925
63736W        W27295  24.594  43.278   1.313
63737W        W27296  18.705  10.260  11.959
63738W        W27297  21.084  34.493   2.800
63739W        W27298   6.346  14.238  12.493
63740W        W27299  43.015  31.600  10.960
63741W        W27300  10.200  11.702   3.631
63742W        W27301  43.349   5.348  11.494
63743W        W27302  15.728  22.123  12.511
63744W        W27303   0.318  32.080  11.554
63745W        W27304  41.957  35.383  12.970
63746W        W27305  17.688  15.656  12.002
63747W        W27306  20.763   7.242  13.482
63748W        W27307  22.129   4.877   3.255
63749W        W27308   1.382  41.317   1.299
63750W        W27309   3.840  30.581  12.479
63751W        W27310  29.169   3.381   0.372
63752W        W27311  17.093   6.344  10.547
63753W        W27312  18.175  11.257   1.930
63754W        W27313  42.016  22.560   1.812
63755W        W27314  22.539  23.066   2.191
63756W        W27315  42.842  23.644   4.280
63757W        W27316  39.968  20.073  14.873
63758W        W27317   4.368  20.553  11.496
63759W        W27318  35.062  37.362   4.740
63760W        W27319  23.601   6.752  13.381
63761W        W27320  36.048  36.527  13.518
63762W        W27321  11.745  15.327  10.559
63763W        W27322   9.788  16.250  13.966
63764W        W27323  44.494  26.981   3.376
63765W        W27324   6.411  41.989  11.596
63766W        W27325  33.959  25.467  11.399
63767W        W27326  16.809  34.865  10.505
63768W        W27327   4.899  36.438  14.776
63769W        W27328  43.443  41.879   2.210
63770W        W27329  44.917  15.093  12.373
63771W        W27330  22.639  37.482  11.573
63772W        W27331  29.091  18.246  12.460
63773W        W27332  14.273  31.618  10.474
63774W        W27333  33.909  25.614   2.798
63775W        W27334  39.896   4.238  14.879
63776W        W27335   8.359  29.144   1.450
63777W        W27336  18.282  30.003  12.047
63778W        W27337  44.414  28.500   1.441
63779W        W27338  34.554  35.993  11.584
63780W        W27339   3.448  13.237  10.630
63781W        W27340  11.160  38.555   4.724
63782W        W27341   6.696  40.014   3.175
63783W        W27342  18.600  17.263  13.373
63784W        W27343  40.851  44.415  12.002
63785W        W27344  38.427  15.311   4.779
63786W        W27345  13.643  11.758   1.420
63787W        W27346   2.730  40.841   2.363
63788W        W27347   0.307   2.402   0.936
63789W        W27348   0.258  34.958  11.465
63790W        W27349  14.643  14.141   3.869
63791W        W27350  43.511  42.008  11.923
63792W        W27351  44.970   8.325  10.438
63793W        W27352  12.647  26.032   2.212
63794W        W27353   7.219  43.777  11.533
63795W        W27354  36.942   9.154   1.347
63796W        W27355  38.549  41.868  10.427
63797W        W27356  27.040   4.870  11.981
63798W        W27357  43.345  43.911   1.782
63799W        W27358  17.691   7.272  12.020
63800W        W27359  27.116  20.660   3.836
63801W        W27360  37.873  40.050   4.232
63802W        W27361  14.312  29.027  14.875
63803W        W27362   9.216  39.471  11.962
63804W        W27363   9.332  32.507  11.564
63805W        W27364  38.960  40.362   1.901
63806W        W27365  20.586   1.813  13.857
63807W        W27366  36.582   7.775  14.888
63808W        W27367   2.375  16.211   1.247
63809W        W27368  39.814  25.069  10.498
63810W        W27369   9.318   9.366  11.080
63811W        W27370  30.566  25.006   2.827
63812W        W27371  12.196   5.876   3.629
63813W        W27372  38.965  19.226  14.275
63814W        W27373  43.980  31.087  13.061
63815W        W27374  44.450   1.741  13.547
63816W        W27375  21.652  11.814   4.192
63817W        W27376  22.016  14.224  13.364
63818W        W27377  14.203  28.498  12.978
63819W        W27378  18.174  43.946   2.209
63820W        W27379  22.177  12.653   3.221
63821W        W27380  28.142  18.114  10.455
63822W        W27381  14.248  18.715  12.963
63823W        W27382   8.257   6.273  14.917
63824W        W27383   5.836  14.262  12.980
63825W        W27384   4.944  18.253  13.389
63826W        W27385  26.079  14.103   4.223
63827W        W27386  24.138   3.406   0.409
63828W        W27387  12.235   5.285   3.245
63829W        W27388  39.811   0.837  12.008
63830W        W27389  41.410  10.342   0.818
63831W        W27390   0.447  39.323   0.778
63832W        W27391  25.648  26.620  14.364
63833W        W27392  42.971  25.031  14.759
63834W        W27393   1.768  18.058   2.380
63835W        W27394  37.892   9.755  12.915
63836W        W27395   8.228  35.427  13.803
63837W        W27396  40.352  24.086  13.314
63838W        W27397  13.160   9.761  11.869
63839W        W27398  23.716  11.741   4.212
63840W        W27399  13.652  34.043   1.760
63841W        W27400  35.598  13.281  14.933
63842W        W27401  38.569  43.849  10.565
63843W        W27402  22.563  20.752   3.721
63844W        W27403   1.451  33.964  11.480
63845W        W27404  34.031  35.468   0.437
63846W        W27405  10.759   7.266  14.372
63847W        W27406  23.119  19.762   2.319
63848W        W27407   3.415  38.347  11.560
63849W        W27408  23.594  13.113   2.875
63850W        W27409   2.884  20.033   2.330
63851W        W27410  20.623  34.034  14.818
63852W        W27411  22.118  20.172   2.179
63853W        W27412   0.481  24.064   2.843
63854W        W27413  29.573  27.093  14.422
63855W        W27414  22.011  31.055  13.040
63856W        W27415  36.046  13.106   4.139
63857W        W27416  40.817   5.715   2.277
63858W        W27417  40.798  23.239   4.337
63859W        W27418   6.774  35.558   2.669
63860W        W27419  34.042   0.913   1.786
63861W        W27420  23.713  22.040  11.890
63862W        W27421  15.107  44.757   1.933
63863W        W27422  11.675  21.574  14.415
63864W        W27423  38.519  15.604  12.962
63865W        W27424  23.193  31.579  14.856
63866W        W27425   6.248  16.169   4.823
63867W        W27426   9.208  12.745   3.751
63868W        W27427  14.183  26.179  10.940
63869W        W27428   4.256  37.033   3.343
63870W        W27429  31.959  29.632   2.202
63871W        W27430  41.334  24.162   2.369
63872W        W27431  44.800  28.983  11.564
63873W        W27432  12.232  10.739   1.932
63874W        W27433  24.073   1.865   3.207
63875W        W27434  43.981  10.213  13.412
63876W        W27435  19.219  21.099   4.286
63877W        W27436  43.921   9.685  13.833
63878W        W27437  11.690  37.854  14.020
63879W        W27438  18.184   5.356   3.762
63880W        W27439  20.633   2.404  10.638
63881W        W27440   0.336  33.975   4.703
63882W        W27441   5.780  39.365  14.455
63883W        W27442  16.238  21.600   2.672
63884W        W27443  39.482  20.240   0.938
63885W        W27444  17.201  26.565  12.930
63886W        W27445  27.091   8.310   3.670
63887W        W27446  39.503   2.257   3.837
63888W        W27447  27.497   9.834   0.869
63889W        W27448   7.290   0.796   2.721
63890W        W27449  21.078   1.801  12.435
63891W        W27450  41.340   6.253   0.340
63892W        W27451  20.065  32.004   4.183
63893W        W27452  14.226  29.497   0.369
63894W        W27453  43.849  12.161   0.806
63895W        W27454  20.621  26.582   0.291
63896W        W27455   6.680   2.319  13.434
63897W        W27456  37.912  20.599   1.770
63898W        W27457   7.821  39.926   3.254
63899W        W27458  34.530  29.068  14.293
63900W        W27459  20.258   2.885   1.732
63901W        W27460  35.066  26.976   3.840
63902W        W27461  25.665   3.721   2.269
63903W        W27462  32.946  23.178  14.798
63904W        W27463  23.228  18.157  14.490
63905W        W27464  19.139  18.157  13.010
63906W        W27465   9.701   6.368   4.826
63907W        W27466  29.503  43.280  11.082
63908W        W27467  10.856  41.310  13.500
63909W        W27468  11.224   6.762   4.267
63910W        W27469   2.777   7.674  13.532
63911W        W27470  40.499  17.569  10.468
63912W        W27471   2.469  15.324   3.746
63913W        W27472  36.947  29.448  11.001
63914W        W27473  17.680  31.968  14.300
63915W        W27474  33.471  22.639   1.874
63916W        W27475   8.836  11.254   1.926
63917W        W27476  22.556  28.084  11.027
63918W        W27477  44.340  14.341  13.493
63919W        W27478   2.425  33.473   4.673
63920W        W27479  17.777   2.895   3.723
63921W        W27480   7.689   8.399  11.957
63922W        W27481  31.481  44.855  14.487
63923W        W27482  37.006  39.960  14.982
63924W        W27483   1.261  26.162   1.225
63925W        W27484  24.136   3.956   1.281
63926W        W27485  35.467   3.735  12.520
63927W        W27486  19.569   0.938   1.381
63928W        W27487  36.587   0.329   3.633
63929W        W27488  32.488  40.835   0.244
63930W        W27489  32.885   7.883   1.343
63931W        W27490  24.643   3.302  11.959
63932W        W27491  11.199  16.088   4.706
63933W        W27492  23.525  14.190   4.275
63934W        W27493   4.897  39.017   2.202
63935W        W27494  31.601   1.757   0.766
63936W        W27495   3.871  25.120   1.232
63937W        W27496  16.199  18.274  11.095
63938W        W27497   6.807  11.225  11.548
63939W        W27498  35.964   0.260  14.023
63940W        W27499  14.107  22.582  13.801
63941W        W27500  26.700  40.370  10.517
63942W        W27501  40.341  26.700  12.024
63943W        W27502  23.699   8.722  10.630
63944W        W27503  40.470  20.161  10.411
63945W        W27504  13.617  29.930  14.891
63946W        W27505  33.011  29.583   1.900
63947W        W27506  39.372   8.400   3.298
63948W        W27507  26.998  30.455  14.817
63949W        W27508  23.040  27.052   2.808
63950W        W27509  29.531  15.243  10.516
63951W        W27510  18.137  30.551   1.929
63952W        W27511  16.735  43.395  14.854
63953W        W27512   2.742  35.432   0.354
63954W        W27513  18.724  40.527   1.331
63955W        W27514   7.254  39.921  12.899
63956W        W27515   8.257  30.648   1.347
63957W        W27516  13.273  39.347   4.314
63958W        W27517  24.130  11.756   1.753
63959W        W27518  19.284  17.254  13.324
63960W        W27519  11.824  23.684  11.567
63961W        W27520   6.768  32.523  11.564
63962W        W27521  33.065  11.323  14.857
63963W        W27522  35.568   4.450  10.980
63964W        W27523  34.587   9.255  13.853
63965W        W27524  36.083   9.644  13.938
63966W        W27525  26.089  44.937  11.595
63967W        W27526  25.982  28.935  12.833
63968W        W27527   6.196  23.018   4.309
63969W        W27528  31.463  36.940   0.880
63970W        W27529  28.071  29.947  11.865
63971W        W27530  41.365  25.965  12.015
63972W        W27531  16.603   0.455   1.340
63973W        W27532   0.881   2.439  12.920
63974W        W27533  37.954  32.405   2.279
63975W        W27534  44.413  25.977  10.080
63976W        W27535  41.371  27.577   4.705
63977W        W27536  14.236  29.431  14.965
63978W        W27537  39.442  23.128  13.807
63979W        W27538  39.017  40.802   3.180
63980W        W27539  12.231  26.497   0.752
63981W        W27540  29.518  43.379  13.388
63982W        W27541   1.945   1.434  10.984
63983W        W27542   7.873  35.567   4.809
63984W        W27543  43.480   7.330   1.220
63985W        W27544   8.370  25.185   0.483
63986W        W27545  41.509  18.062  14.916
63987W        W27546  38.362  15.800   0.920
63988W        W27547  20.655  39.349  13.919
63989W        W27548  43.790  36.907  12.024
63990W        W27549  26.697  32.526  11.988
63991W        W27550  33.058  31.119  11.958
63992W        W27551  19.727   2.394  10.594
63993W        W27552  16.593  16.282  11.969
63994W        W27553   3.859   8.333  13.992
63995W        W27554  16.213  33.091  10.985
63996W        W27555  19.690  15.817   0.353
63997W        W27556  20.742  13.235   2.804
63998W        W27557  13.213  22.219  12.363
63999W        W27558  13.840  44.902   4.640
64000W        W27559  22.732  18.591  13.445
64001W        W27560  10.223  26.176   1.446
64002W        W27561  35.408  11.743   0.273
64003W        W27562  42.459  43.390   2.196
64004W        W27563  30.068  35.548   3.780
64005W        W27564  26.188   4.352  11.016
64006W        W27565  12.274  40.323   1.787
64007W        W27566  13.823  44.817   0.440
64008W        W27567  27.634  34.434   1.240
64009W        W27568  26.957  44.467  12.370
64010W        W27569  29.944  16.734   1.819
64011W        W27570   5.843  21.198  11.498
64012W        W27571   4.304   3.941  12.478
64013W        W27572   6.291  39.952   1.795
64014W        W27573  31.935  33.388   5.089
64015W        W27574  20.553  30.969   9.995
64016W        W27575  18.191  11.786  13.458
64017W        W27576   1.885  17.162  10.461
64018W        W27577   9.357  18.123   4.650
64019W        W27578  21.538  42.503   0.941
64020W        W27579   7.792   4.808  11.956
64021W        W27580  17.200  28.559   3.340
64022W        W27581  29.533   2.248   4.751
64023W        W27582   8.818   8.821   1.729
64024W        W27583   8.665  20.587   4.344
64025W        W27584   2.737  28.525   3.806
64026W        W27585  24.095   9.228  13.791
64027W        W27586  42.516   3.908   3.310
64028W        W27587  16.237   8.760   4.820
64029W        W27588  14.227  28.098  13.420
64030W        W27589  15.743   3.403  12.404
64031W        W27590  39.546  35.908   0.409
64032W        W27591  18.606   0.410  11.951
64033W        W27592  25.084  13.228  13.803
64034W        W27593  29.575  31.101   0.900
64035W        W27594  21.240  41.831  14.998
64036W        W27595  10.350   2.336   1.361
64037W        W27596  33.011  26.690   4.608
64038W        W27597  16.270  25.099  14.512
64039W        W27598   4.386   8.297  11.927
64040W        W27599   5.739  18.558   4.280
64041W        W27600  29.534  30.546   2.861
64042W        W27601  10.830  30.648   0.438
64043W        W27602  44.965   7.674  12.407
64044W        W27603  11.672  31.100  10.504
64045W        W27604  38.010   5.732   1.728
64046W        W27605  20.610  32.557   1.309
64047W        W27606  35.059  33.935  10.934
64048W        W27607  20.556  31.937  12.357
64049W        W27608   4.448  28.051   1.245
64050W        W27609  24.628  42.421   0.883
64051W        W27610  15.165   6.817   4.772
64052W        W27611  35.065  21.602  14.986
64053W        W27612  26.566  27.627  12.404
64054W        W27613  44.928  40.920  13.442
64055W        W27614  34.026  25.561   3.744
64056W        W27615   9.675  37.941   2.237
64057W        W27616  30.962   6.833  12.910
64058W        W27617   5.867  44.458  12.423
64059W        W27618  40.383   5.712   1.261
64060W        W27619  44.442  44.451  10.482
64061W        W27620  20.273  35.931  12.002
64062W        W27621  16.090  35.065   0.394
64063W        W27622  13.730   1.332  14.996
64064W        W27623  43.360  40.016  12.574
64065W        W27624  25.601  36.038   5.288
64066W        W27625   5.193  16.760   2.411
64067W        W27626  19.085   5.337   2.790
64068W        W27627  15.763  18.781  12.018
64069W        W27628  28.570  15.225  14.349
64070W        W27629  38.520  21.080   1.407
64071W        W27630  30.078  43.434  14.863
64072W        W27631  42.932  34.472  10.556
64073W        W27632  39.370  10.335  13.041
64074W        W27633  16.593  13.342   3.702
64075W        W27634  10.754  37.378  12.058
64076W        W27635  35.071  21.540   4.784
64077W        W27636  16.161  12.342   3.267
64078W        W27637  44.387  36.450   5.223
64079W        W27638   4.247  19.196  12.556
64080W        W27639  35.966  11.228   0.402
64081W        W27640  42.493  40.365  11.444
64082W        W27641   0.301   9.734   3.159
64083W        W27642  25.629   1.890  12.491
64084W        W27643   3.774   4.416   2.763
64085W        W27644  16.312   0.776  14.895
64086W        W27645   4.310  26.655   2.384
64087W        W27646  20.643  38.907   4.252
64088W        W27647  42.406  31.094  13.036
64089W        W27648   9.368   2.245  11.962
64090W        W27649  11.653  23.197   3.744
64091W        W27650  18.127  16.679  14.407
64092W        W27651  37.510   2.747  13.033
64093W        W27652   9.292   8.749  11.113
64094W        W27653  40.800   9.279  10.566
64095W        W27654  42.017  26.064  12.828
64096W        W27655  17.750  30.051   3.722
64097W        W27656  41.996  11.171   2.190
64098W        W27657   1.874  43.913  12.941
64099W        W27658  43.841  32.610   0.429
64100W        W27659  25.154  38.019  14.018
64101W        W27660  24.212  38.443  14.291
64102W        W27661  34.395  12.160   0.372
64103W        W27662  12.218  21.529  10.041
64104W        W27663  20.551  33.904  10.592
64105W        W27664  40.887  32.971  13.014
64106W        W27665  29.442  26.609   2.401
64107W        W27666   4.799  34.893   1.394
64108W        W27667   5.746  35.541   0.243
64109W        W27668  25.617  11.859  13.385
64110W        W27669  38.900  30.126  12.881
64111W        W27670  32.496  16.678   0.278
64112W        W27671  14.705  29.648   4.279
64113W        W27672  43.917   1.785  13.058
64114W        W27673   5.715  27.193  14.280
64115W        W27674  37.948  38.364   3.672
64116W        W27675  27.983  34.985  10.898
64117W        W27676   6.722  11.241  14.341
64118W        W27677  27.184  20.650  14.946
64119W        W27678  39.899  30.108  13.038
64120W        W27679  43.895   5.804  10.594
64121W        W27680  34.077  44.913  10.983
64122W        W27681  21.744  15.256   3.712
64123W        W27682  11.313  19.133   2.755
64124W        W27683  31.045  11.805   0.272
64125W        W27684  38.326  10.843   3.653
64126W        W27685  18.208   9.278  12.535
64127W        W27686  32.575  40.344  12.392
64128W        W27687  30.562  11.154  12.972
64129W        W27688  19.197  14.176  13.384
64130W        W27689  36.027  20.755  13.844
64131W        W27690  31.593  23.210   3.694
64132W        W27691  37.927  17.577  13.821
64133W        W27692   4.880  43.953  12.893
64134W        W27693  11.774  43.831   4.259
64135W        W27694  26.097  32.139  11.950
64136W        W27695  36.362  37.502   3.661
64137W        W27696   2.724  27.477   4.300
64138W        W27697   7.309  41.854  12.951
64139W        W27698   7.336  20.063   3.302
64140W        W27699  16.623  26.964   1.236
64141W        W27700  39.947  33.458  14.281
64142W        W27701  28.060  28.536   0.892
64143W        W27702  37.565   8.230   2.186
64144W        W27703   1.326   6.787   3.381
64145W        W27704  30.102  17.662   0.740
64146W        W27705  26.034  26.083  10.989
64147W        W27706  18.198  21.758   1.917
64148W        W27707  36.378   3.233  12.022
64149W        W27708  39.316   7.712   0.334
64150W        W27709   6.389   2.928   2.331
64151W        W27710   4.239  21.149   2.344
64152W        W27711  27.672   8.314  10.404
64153W        W27712   0.329   1.265  12.096
64154W        W27713  10.738  39.397  11.861
64155W        W27714  16.677  24.574  11.864
64156W        W27715  18.091   5.385   4.729
64157W        W27716   2.756  15.214  13.923
64158W        W27717  38.528  19.612  11.061
64159W        W27718  37.891  15.815  10.006
64160W        W27719  37.908  11.700  14.916
64161W        W27720   5.201   3.297  13.447
64162W        W27721  42.990   6.337   5.154
64163W        W27722   8.263  27.144   4.234
64164W        W27723  25.206  43.498  10.503
64165W        W27724  22.174  40.899   1.210
64166W        W27725   6.774  18.212  10.561
64167W        W27726  34.594  33.528   1.885
64168W        W27727  12.729  40.306   2.819
64169W        W27728   2.804  15.744   3.216
64170W        W27729  44.303  38.076   3.210
64171W        W27730  18.634  32.039  12.950
64172W        W27731   6.754   1.373   4.785
64173W        W27732  41.345  25.114  10.543
64174W        W27733  11.369  39.509  14.332
64175W        W27734   7.872  26.969   4.781
64176W        W27735  36.090  28.093  14.324
64177W        W27736  27.952  42.306  13.334
64178W        W27737  27.623  30.150  12.068
64179W        W27738  39.443  30.081  12.877
64180W        W27739  44.404  34.014  12.439
64181W        W27740   8.395  39.017  12.412
64182W        W27741  29.577  13.626  14.392
64183W        W27742  33.977   7.282   2.855
64184W        W27743  24.485   5.898  13.804
64185W        W27744  11.153  13.104   4.792
64186W        W27745  32.620  16.166  13.861
64187W        W27746  42.998  41.342  11.559
64188W        W27747  15.259   3.220   0.416
64189W        W27748  14.181  39.025  14.394
64190W        W27749   2.816  10.369   2.871
64191W        W27750  38.537  25.012  11.990
64192W        W27751  23.539  15.789  12.573
64193W        W27752   0.865  23.091   3.223
64194W        W27753  23.032  13.606  11.597
64195W        W27754  10.743  36.432  12.038
64196W        W27755   4.860  35.896  10.108
64197W        W27756  33.398  37.856  12.978
64198W        W27757  24.210  19.596   1.802
64199W        W27758   5.809  41.477  14.919
64200W        W27759  36.425  29.963  14.414
64201W        W27760  25.191  14.248   0.926
64202W        W27761  42.828  10.154   2.699
64203W        W27762  23.582  11.277   0.839
64204W        W27763   1.237  43.891   2.781
64205W        W27764   3.819   8.726  10.897
64206W        W27765  24.132   4.366  11.869
64207W        W27766  20.263  44.963  12.461
64208W        W27767  28.487  11.327   2.411
64209W        W27768  11.163   1.307   4.714
64210W        W27769  44.464  37.894  12.530
64211W        W27770  29.588   8.315   0.928
64212W        W27771   5.744  37.031  12.567
64213W        W27772  27.660  15.625  14.790
64214W        W27773  27.660  14.301   1.336
64215W        W27774  25.673  13.623   5.262
64216W        W27775  36.413  14.126  12.420
64217W        W27776  15.800  28.952  13.539
64218W        W27777  27.968  29.934  13.438
64219W        W27778  12.706  22.646   2.239
64220W        W27779  37.005  35.419  12.024
64221W        W27780  24.584  41.869  12.951
64222W        W27781   9.831   9.292  12.344
64223W        W27782  14.186  10.692   3.650
64224W        W27783  16.209  35.562  10.445
64225W        W27784  22.018  34.030   0.956
64226W        W27785  13.122  44.351  14.012
64227W        W27786  40.371  24.507  11.599
64228W        W27787  12.728  35.497   9.955
64229W        W27788  18.083  28.587   4.783
64230W        W27789  35.955  13.787  12.091
64231W        W27790   6.346   2.400  13.319
64232W        W27791  41.830  36.544   0.428
64233W        W27792  43.353  16.580   4.237
64234W        W27793  16.616  44.974   4.323
64235W        W27794  34.049  26.664  13.990
64236W        W27795  30.141  34.524   0.853
64237W        W27796  34.024  30.631  14.865
64238W        W27797  21.606  36.410   2.686
64239W        W27798   4.909  31.093  10.501
64240W        W27799  41.857  30.006   1.759
64241W        W27800  43.491  20.714  12.899
64242W        W27801   9.253  30.638  10.483
64243W        W27802   8.328  22.581   0.412
64244W        W27803  40.949  33.970  14.420
64245W        W27804   5.866   0.478  13.514
64246W        W27805  35.473   9.730   3.868
64247W        W27806  20.126  15.277   3.682
64248W        W27807  16.099  34.950  10.591
64249W        W27808  15.681  18.088   4.134
64250W        W27809   3.257  24.562   3.333
64251W        W27810  37.865  14.314  12.981
64252W        W27811  30.131   1.449   1.725
64253W        W27812   9.270  24.020   1.897
64254W        W27813  21.679   6.891  14.906
64255W        W27814   9.361  32.116   0.398
64256W        W27815  44.774  32.469  12.521
64257W        W27816  42.330  13.134  10.447
64258W        W27817  38.554  21.578   2.724
64259W        W27818  36.951  43.483  12.356
64260W        W27819  25.116  26.459  12.549
64261W        W27820  22.108  43.338  11.978
64262W        W27821   7.900  38.908   0.272
64263W        W27822  38.381   0.270  12.044
64264W        W27823  19.636  19.192   0.399
64265W        W27824  40.037  37.552  12.450
64266W        W27825  12.245  18.097   0.350
64267W        W27826   8.228   8.834  13.871
64268W        W27827   9.789  10.236   4.349
64269W        W27828  41.850   6.413  13.852
64270W        W27829  34.581  44.763   2.227
64271W        W27830  37.839  22.036   1.219
64272W        W27831  29.455  30.142  12.568
64273W        W27832  30.621  19.240   2.827
64274W        W27833   7.177  31.086  11.990
64275W        W27834  39.972  11.654  11.062
64276W        W27835  30.970  44.906  12.410
64277W        W27836  22.190  37.514   3.260
64278W        W27837  17.663  42.865  11.453
64279W        W27838  36.011  10.313  14.292
64280W        W27839   6.684  23.596   4.763
64281W        W27840  36.040   7.713  12.362
64282W        W27841  25.685  31.440   1.721
64283W        W27842  21.221  29.449  11.603
64284W        W27843  42.916  43.282   0.882
64285W        W27844   2.454  44.279  14.989
64286W        W27845  19.086  29.608   4.227
64287W        W27846   4.709  11.129  10.063
64288W        W27847  36.956  17.295   2.774
64289W        W27848  29.469  34.913  12.869
64290W        W27849  14.324  30.645  11.405
64291W        W27850  28.077  39.464  11.012
64292W        W27851   7.675  16.172   4.288
64293W        W27852  10.801  41.849   0.771
64294W        W27853  26.192  17.622  13.806
64295W        W27854  27.071  31.971   1.747
64296W        W27855   4.375  36.959   1.361
64297W        W27856  30.121  17.241  14.889
64298W        W27857  17.695  12.134  12.964
64299W        W27858  11.369  28.503  11.446
64300W        W27859  35.065  12.799  12.067
64301W        W27860  33.421  18.211  12.948
64302W        W27861  25.696  33.877   3.242
64303W        W27862  31.594   0.898   1.927
64304W        W27863  24.057  41.885  14.933
64305W        W27864  27.456  28.057  12.374
64306W        W27865  35.507  14.161   4.708
64307W        W27866   9.354  20.736   2.386
64308W        W27867  17.277   7.836   2.348
64309W        W27868  21.587   9.369  11.394
64310W        W27869  32.898  26.073  12.495
64311W        W27870  29.085  28.030  10.523
64312W        W27871  34.506   4.855  12.501
64313W        W27872  37.987  42.424  14.936
64314W        W27873  38.994  28.066  14.845
64315W        W27874   0.321  31.070   1.425
64316W        W27875  40.032  30.527   2.243
64317W        W27876  19.259  30.031   0.319
64318W        W27877   9.839  36.592  12.467
64319W        W27878  31.405  16.162   2.880
64320W        W27879  12.673  15.158  12.861
64321W        W27880   1.340  13.111  13.015
64322W        W27881  31.489  33.414  14.867
64323W        W27882  10.813   7.214   4.349
64324W        W27883  22.573  39.998   2.725
64325W        W27884   4.431  31.092  14.317
64326W        W27885  35.499  44.308  11.554
64327W        W27886  33.042  44.989  11.096
64328W        W27887  19.159  41.787   1.777
64329W        W27888  25.705  25.551   4.636
64330W        W27889  30.481  39.316   3.677
64331W        W27890   5.207  15.824  13.387
64332W        W27891  11.677   9.711  10.063
64333W        W27892  34.544  34.022   4.278
64334W        W27893  23.001   5.706  11.945
64335W        W27894  10.817  12.304  13.478
64336W        W27895  11.746  15.136  13.924
64337W        W27896  21.677   9.319   1.353
64338W        W27897  19.128  16.705   0.357
64339W        W27898  26.643   1.835   1.420
64340W        W27899  37.885   0.978  13.355
64341W        W27900  22.644   2.431   4.813
64342W        W27901  11.754  31.031   0.931
64343W        W27902  35.558  19.125   3.808
64344W        W27903  28.678  43.804   3.247
64345W        W27904  31.134  22.654   1.925
64346W        W27905  18.681  33.054   0.851
64347W        W27906  36.856   0.823   4.781
64348W        W27907   6.321   1.921   5.299
64349W        W27908  42.847   1.884  10.969
64350W        W27909  24.081  32.585  12.853
64351W        W27910  37.496  33.515   0.246
64352W        W27911  19.271  15.818   2.728
64353W        W27912   0.748  35.574  11.895
64354W        W27913  12.713   4.335  13.996
64355W        W27914   1.836  21.059   3.282
64356W        W27915  16.612  24.588   4.321
64357W        W27916  41.948   5.346  14.029
64358W        W27917  42.338  41.499   1.902
64359W        W27918  24.603  15.684  12.381
64360W        W27919  29.018   1.915   4.790
64361W        W27920  17.707  35.546  11.867
64362W        W27921   8.207  41.823   3.191
64363W        W27922  17.786  35.078   2.366
64364W        W27923  13.298  11.783  12.903
64365W        W27924  19.597  23.120   2.865
64366W        W27925  34.017  35.588  12.549
64367W        W27926  36.856  42.027   0.760
64368W        W27927  14.114  25.505  10.608
64369W        W27928  40.840  10.154   3.827
64370W        W27929  43.990  23.213   0.245
64371W        W27930  16.637  20.052   0.473
64372W        W27931  34.560  25.613   3.346
64373W        W27932   6.917  14.327  12.546
64374W        W27933  12.211  40.387   0.864
64375W        W27934   9.730  43.349  10.513
64376W        W27935   0.775  39.425   3.784
64377W        W27936  37.879  32.949  12.022
64378W        W27937  17.245  26.178  11.034
64379W        W27938  44.798  31.135  13.477
64380W        W27939   6.806  30.108  12.907
64381W        W27940  25.658   4.742  14.828
64382W        W27941  15.716  20.085   0.898
64383W        W27942   7.189  11.188   3.272
64384W        W27943  27.591  26.530  13.404
64385W        W27944  22.577  10.823  10.013
64386W        W27945  23.137   1.292   0.254
64387W        W27946  23.056  35.881   2.803
64388W        W27947  44.388  33.885  13.807
64389W        W27948  41.900   3.861   4.736
64390W        W27949  33.590  23.726  12.007
64391W        W27950  38.332  14.301   1.228
64392W        W27951   1.922  21.215  10.404
64393W        W27952  38.062  40.956  14.003
64394W        W27953  29.926  14.671   0.870
64395W        W27954  40.494  19.133   3.370
64396W        W27955  38.911  25.001   5.162
64397W        W27956   8.775  15.790   2.788
64398W        W27957  39.979  32.087  14.337
64399W        W27958  13.181   1.921   9.931
64400W        W27959   0.351  40.943  14.284
64401W        W27960   9.370  22.200  12.904
64402W        W27961  35.555  30.081  13.344
64403W        W27962  23.501  10.688  13.485
64404W        W27963  13.291  43.875   3.147
64405W        W27964  43.276  38.481   0.871
64406W        W27965  15.285  31.631   0.851
64407W        W27966  27.659  39.017   4.717
64408W        W27967  18.658   8.841   1.295
64409W        W27968   6.419   3.367  11.443
64410W        W27969  37.579  17.185  13.492
64411W        W27970  17.723   1.868   3.218
64412W        W27971  43.447  38.829   1.349
64413W        W27972   6.237  20.528  12.968
64414W        W27973  31.633  15.152   4.200
64415W        W27974  30.943  42.362  10.594
64416W        W27975  40.033   3.373  11.107
64417W        W27976  22.152  36.039  10.908
64418W        W27977  21.084   7.727   5.126
64419W        W27978  29.993  33.985   0.736
64420W        W27979  28.640  16.219  14.509
64421W        W27980  22.250  38.862   1.377
64422W        W27981  14.683  41.402   0.871
64423W        W27982  29.590  39.370   0.839
64424W        W27983  15.304  11.824  11.440
64425W        W27984  29.106  38.852  13.021
64426W        W27985   0.248  32.098  12.965
64427W        W27986  27.037  26.692   4.679
64428W        W27987  13.261  19.109   1.820
64429W        W27988   2.758   1.319   1.893
64430W        W27989  43.444  28.533  11.501
64431W        W27990  42.800  21.238  11.950
64432W        W27991  20.560   6.808   4.638
64433W        W27992  17.270  15.597   3.159
64434W        W27993  44.472  15.192   1.788
64435W        W27994  40.847  12.344  12.926
64436W        W27995  13.200  13.686   1.304
64437W        W27996  36.847   5.376  13.534
64438W        W27997  12.311  24.018   4.220
64439W        W27998  25.639  42.783  10.409
64440W        W27999   9.887  21.558  13.062
64441W        W28000  19.062  34.888   2.340
64442W        W28001  41.529  16.768   4.811
64443W        W28002  35.540  10.708   1.709
64444W        W28003  30.424  33.917  14.275
64445W        W28004  42.989  23.535   0.931
64446W        W28005  44.297  23.227   2.253
64447W        W28006  17.190  19.066   4.323
64448W        W28007  15.322  44.450   2.404
64449W        W28008  44.473  23.494  11.423
64450W        W28009  36.936  30.519  12.456
64451W        W28010   7.888   1.835  12.036
64452W        W28011   3.912   4.894  10.062
64453W        W28012  28.654  11.312   2.837
64454W        W28013  15.193  35.358  13.903
64455W        W28014  40.813  27.134   3.267
64456W        W28015  43.464  36.349  11.976
64457W        W28016  36.478   8.844   0.892
64458W        W28017   7.784   4.237  10.926
64459W        W28018  29.014   6.772   4.636
64460W        W28019  11.164  14.101  13.513
64461W        W28020   8.700  31.627  10.443
64462W        W28021  32.409  21.143  13.500
64463W        W28022   7.735   1.847  13.999
64464W        W28023  12.740  13.278   5.805
64465W        W28024  24.512  17.294   4.338
64466W        W28025  20.524  40.944  14.933
64467W        W28026  26.131   3.248   0.431
64468W        W28027  35.576  40.041   1.284
64469W        W28028  21.725  35.861  10.891
64470W        W28029  27.517   9.352  13.038
64471W        W28030  27.579  37.566  12.462
64472W        W28031  39.466   0.756  11.874
64473W        W28032  20.540  31.037   1.821
64474W        W28033  41.825  44.781  14.933
64475W        W28034  39.376  31.584   2.349
64476W        W28035  44.856   9.267   0.959
64477W        W28036   5.889   4.932  14.341
64478W        W28037  42.999  26.579   3.645
64479W        W28038  41.524  23.146  12.534
64480W        W28039  10.164  16.183  12.068
64481W        W28040   4.913  29.145   9.940
64482W        W28041  41.963  24.056   5.214
64483W        W28042  22.576   4.369   0.309
64484W        W28043  28.588  25.669   4.806
64485W        W28044   5.703   7.785   1.222
64486W        W28045  16.598   1.852   2.334
64487W        W28046  11.301  13.844  11.440
64488W        W28047  26.621  20.699  10.135
64489W        W28048  35.472  10.851  12.486
64490W        W28049  20.252  21.079  11.484
64491W        W28050  20.056  34.930  12.966
64492W        W28051  10.874  38.073  13.478
64493W        W28052  16.125  33.103   1.743
64494W        W28053   9.863  22.248   4.790
64495W        W28054  24.178  18.761   3.821
64496W        W28055  24.681  29.070   2.209
64497W        W28056   1.392  13.716  12.020
64498W        W28057  25.215  25.102  14.483
64499W        W28058  20.747  38.886   3.311
64500W        W28059  20.166  15.234  12.469
64501W        W28060  41.338  16.674   4.315
64502W        W28061  11.769  14.699   0.450
64503W        W28062   3.788  29.093   0.335
64504W        W28063  14.799  31.406  13.531
64505W        W28064  12.686  36.943   2.753
64506W        W28065  11.346  24.573   2.797
64507W        W28066  20.214  22.109  12.428
64508W        W28067   3.218  15.263  12.825
64509W        W28068  40.806  43.770  14.344
64510W        W28069  15.097   8.248  11.461
64511W        W28070  38.823  43.994  11.498
64512W        W28071  17.665  42.863  12.491
64513W        W28072  41.407  15.238   4.655
64514W        W28073   0.483  18.215  12.878
64515W        W28074  39.837  34.417  13.008
64516W        W28075   4.387  29.514  13.893
64517W        W28076   6.708  28.484   4.694
64518W        W28077   2.803   8.676  11.902
64519W        W28078  22.686  37.572  10.614
64520W        W28079  36.437  22.048   2.826
64521W        W28080   9.747   5.735   0.934
64522W        W28081  23.617  41.006   0.839
64523W        W28082  25.682  41.813   3.841
64524W        W28083  29.168   8.166   3.695
64525W        W28084   9.340  30.125  12.019
64526W        W28085  31.439  34.929  11.008
64527W        W28086  32.057  34.090   3.254
64528W        W28087   5.206  29.030   2.305
64529W        W28088  43.981  11.724  13.517
64530W        W28089  28.151  34.398  12.409
64531W        W28090  44.823   8.190   4.300
64532W        W28091  25.493  20.172  11.492
64533W        W28092  13.827  39.515   0.941
64534W        W28093  21.635  37.450  10.485
64535W        W28094  39.881  40.369  11.082
64536W        W28095  38.988  21.582   2.766
64537W        W28096  34.874   6.184  14.460
64538W        W28097   8.697  37.946   0.398
64539W        W28098   1.270  34.864  11.901
64540W        W28099  26.143  35.937   1.356
64541W        W28100  28.031  10.330  13.897
64542W        W28101  26.539  21.599   4.329
64543W        W28102   6.270  31.111   1.897
64544W        W28103   6.287  30.070   1.299
64545W        W28104  16.085   1.804   4.728
64546W        W28105  13.299   6.795   0.367
64547W        W28106  44.477  40.996  14.484
64548W        W28107  42.499  31.955  11.936
64549W        W28108  22.141  16.110  10.481
64550W        W28109   7.291  19.655   3.669
64551W        W28110   9.675  25.086  14.377
64552W        W28111  21.123  28.534   0.960
64553W        W28112  33.027  39.991   3.169
64554W        W28113  35.570   7.671  14.449
64555W        W28114  17.090  27.138  14.950
64556W        W28115  38.385  29.919   0.255
64557W        W28116   1.268  26.626   3.314
64558W        W28117  25.616  33.380   1.396
64559W        W28118  32.581  32.910   0.313
64560W        W28119  40.366   6.835   2.833
64561W        W28120   8.767  34.462   5.267
64562W        W28121  16.246  23.551   5.629
64563W        W28122  37.835   6.748   4.666
64564W        W28123  11.758  41.036  14.387
64565W        W28124  24.723  26.582  13.998
64566W        W28125  38.461   2.853  14.846
64567W        W28126  35.914  38.033   1.828
64568W        W28127  32.930  28.671   1.301
64569W        W28128  30.066  34.549  11.061
64570W        W28129  40.433  31.897   2.274
64571W        W28130  29.145  22.538   2.805
64572W        W28131  17.271   5.916  14.972
64573W        W28132   7.717  17.075   5.315
64574W        W28133  38.029  10.238  13.486
64575W        W28134  33.543  25.593  10.907
64576W        W28135  32.614  23.707  12.382
64577W        W28136  44.912  15.210  13.925
64578W        W28137   9.724  17.147  14.976
64579W        W28138  31.406  28.976  14.812
64580W        W28139  21.235  16.265  14.399
64581W        W28140  24.522  33.085  11.927
64582W        W28141  21.717  27.036   0.286
64583W        W28142  12.346  44.907   2.825
64584W        W28143  20.243  37.495  10.585
64585W        W28144  43.496  37.063  10.579
64586W        W28145  21.644  12.313   4.335
64587W        W28146  13.764  18.165  11.045
64588W        W28147  14.217  13.210  13.410
64589W        W28148   0.304  25.138  13.396
64590W        W28149   1.954  37.069  12.032
64591W        W28150   2.792   4.418   2.406
64592W        W28151  40.827  38.927  14.396
64593W        W28152  32.479   5.398   3.869
64594W        W28153  17.212  20.273   1.288
64595W        W28154  12.833  21.176   4.658
64596W        W28155  19.750  18.129  12.941
64597W        W28156  13.782  35.092   1.405
64598W        W28157  32.043  30.981  13.844
64599W        W28158  22.668   9.844  12.488
64600W        W28159   5.853  15.620  11.993
64601W        W28160  19.732  31.019  11.050
64602W        W28161  14.823  11.166   2.826
64603W        W28162   5.330   5.304   1.260
64604W        W28163   2.775  25.497   0.840
64605W        W28164  34.942  36.529  14.500
64606W        W28165  12.848  24.050   0.330
64607W        W28166  11.756  19.059  12.002
64608W        W28167  12.225   1.965  11.606
64609W        W28168  43.283  25.121  12.005
64610W        W28169  36.427   2.348  12.004
64611W        W28170   2.746  24.537  13.968
64612W        W28171  43.388  29.432  10.926
64613W        W28172  36.095  44.754  11.023
64614W        W28173   1.477  37.521   0.345
64615W        W28174  30.509  44.928   3.758
64616W        W28175  26.966  30.050   4.342
64617W        W28176  32.543  15.636   5.320
64618W        W28177   4.920  19.726   3.638
64619W        W28178  44.310   4.731  10.604
64620W        W28179  23.528  16.616   4.776
64621W        W28180  27.488  25.103   3.630
64622W        W28181   1.382  15.229   4.807
64623W        W28182  29.478  36.388  10.559
64624W        W28183   9.826  34.881   0.353
64625W        W28184   1.405  28.071  10.497
64626W        W28185   9.748  44.910  14.888
64627W        W28186  40.418  14.304  10.145
64628W        W28187  26.083  42.436  10.460
64629W        W28188  21.639  10.331  10.890
64630W        W28189  39.555   9.823   0.293
64631W        W28190  38.901   3.827   3.682
64632W        W28191   7.817  19.202  11.978
64633W        W28192  15.681  24.683  10.890
64634W        W28193  25.592  13.791  11.074
64635W        W28194  15.710  33.952  14.924
64636W        W28195  34.086  31.511   3.173
64637W        W28196   2.878  13.114  11.083
64638W        W28197  25.606  39.463   2.709
64639W        W28198  13.797  11.266   3.369
64640W        W28199  38.045  20.079  12.526
64641W        W28200  19.099  16.642   2.881
64642W        W28201  12.687  37.021  14.282
64643W        W28202  11.251   2.941  10.451
64644W        W28203  15.685  34.949  11.007
64645W        W28204   1.876  41.391   3.282
64646W        W28205  29.578   7.330  11.520
64647W        W28206  34.969  15.713  10.145
64648W        W28207  40.832  30.419  12.420
64649W        W28208  11.672   8.217   1.757
64650W        W28209  25.580   6.234  10.501
64651W        W28210  21.165  40.328   3.746
64652W        W28211   3.721   6.779   2.301
64653W        W28212  33.962   4.858   4.720
64654W        W28213  43.341  20.720   4.214
64655W        W28214  12.149  15.740   0.924
64656W        W28215  44.322  11.329   3.147
64657W        W28216  22.252  33.923  12.350
64658W        W28217  15.118  29.088  11.912
64659W        W28218  18.590   7.759   0.847
64660W        W28219  40.805  23.657   2.724
64661W        W28220  34.446  18.647  10.577
64662W        W28221   9.182   7.215  12.549
64663W        W28222   2.396  26.460   9.967
64664W        W28223  32.924   9.763  12.551
64665W        W28224  12.642  31.916   4.307
64666W        W28225   5.215   9.839   4.283
64667W        W28226  16.692   8.291  13.974
64668W        W28227  41.806  16.813  12.887
64669W        W28228   7.901  34.568  12.930
64670W        W28229  15.214  14.157   3.255
64671W        W28230  37.542  29.950   4.313
64672W        W28231  35.597  31.495  11.425
64673W        W28232  18.275   7.748   4.746
64674W        W28233  36.006  41.459  12.080
64675W        W28234   7.812  36.545   3.252
64676W        W28235   1.910  23.624  12.843
64677W        W28236  39.053  22.517   0.790
64678W        W28237  42.000  43.904   3.253
64679W        W28238  34.604   1.962  10.956
64680W        W28239  29.989  29.557   1.730
64681W        W28240   1.744  16.578  14.291
64682W        W28241  25.549  34.915   9.944
64683W        W28242  20.754  16.644  10.601
64684W        W28243  30.033  20.714  14.331
64685W        W28244  28.137  34.077   3.708
64686W        W28245  35.443  25.133  11.593
64687W        W28246   0.249  11.799   3.334
64688W        W28247  19.113  22.547  11.570
64689W        W28248  26.607  33.392   5.245
64690W        W28249  32.075  32.002   1.229
64691W        W28250  13.697  33.074  10.895
64692W        W28251   9.227  38.474  10.443
64693W        W28252  34.370  10.835  11.876
64694W        W28253  15.221  24.515   2.820
64695W        W28254  25.091   8.231   5.252
64696W        W28255  27.634  24.986   4.170
64697W        W28256  40.051   7.244  13.824
64698W        W28257  36.481   5.876  12.952
64699W        W28258  11.184   8.885   5.137
64700W        W28259  41.324   7.288  11.384
64701W        W28260  28.442  44.369   0.752
64702W        W28261  20.565  14.830  11.922
64703W        W28262  37.355  22.661  14.831
64704W        W28263   9.862  41.333  13.508
64705W        W28264  15.212  29.654  10.592
64706W        W28265  37.338   6.203   3.267
64707W        W28266  16.739  39.046   2.392
64708W        W28267  43.916  23.566  12.834
64709W        W28268   8.673  36.364  11.523
64710W        W28269  25.163  31.926  13.965
64711W        W28270   3.399  17.612  11.469
64712W        W28271  11.822  28.122   2.256
64713W        W28272   2.933  33.051   1.821
64714W        W28273  34.474   8.391  12.087
64715W        W28274  42.294   5.267   1.394
64716W        W28275  35.581   2.753  11.875
64717W        W28276  40.534  44.489  12.018
64718W        W28277  29.057  40.895  10.509
64719W        W28278  15.775   5.341  14.374
64720W        W28279  10.357   5.218  14.822
64721W        W28280   7.717  36.540  12.520
64722W        W28281  34.589  10.651  14.409
64723W        W28282   8.288  29.034  10.539
64724W        W28283  44.889  38.995   4.228
64725W        W28284  20.644  21.585  10.988
64726W        W28285   0.270  37.496   2.272
64727W        W28286  17.156  35.102  11.419
64728W        W28287  25.973  18.654  13.060
64729W        W28288   6.203   9.831  12.951
64730W        W28289  13.650  35.080   0.731
64731W        W28290  10.360  13.612  10.422
64732W        W28291  32.451  43.406   0.862
64733W        W28292  29.425  17.648  11.029
64734W        W28293   6.804  17.740  10.933
64735W        W28294  34.493  20.203   3.692
64736W        W28295   0.891  20.593   4.630
64737W        W28296  28.506  23.052   5.098
64738W        W28297  32.442  22.999  10.448
64739W        W28298  26.589  16.601  11.020
64740W        W28299   2.932  38.508   2.814
64741W        W28300   5.877  27.069   4.313
64742W        W28301  31.527  15.736  10.527
64743W        W28302  35.006   6.900  13.460
64744W        W28303  11.232  28.147  12.901
64745W        W28304  41.924  30.138  12.535
64746W        W28305  26.685  41.488   1.830
64747W        W28306  41.517  36.442   2.670
64748W        W28307  14.180   7.331  13.855
64749W        W28308   1.976  27.678  14.920
64750W        W28309  33.031  30.947   4.265
64751W        W28310  14.127  22.044  11.987
64752W        W28311  10.207  17.234  14.769
64753W        W28312  38.820  43.275   3.719
64754W        W28313  18.553  11.321  10.962
64755W        W28314  37.971  23.669   1.820
64756W        W28315  11.754  22.210  14.954
64757W        W28316   1.746  32.618   0.360
64758W        W28317   7.382  30.997  14.964
64759W        W28318  30.626  44.468  14.339
64760W        W28319  24.167  33.082   2.841
64761W        W28320  42.012  41.457   2.285
64762W        W28321   3.908  40.935   3.253
64763W        W28322   8.854  33.987  10.408
64764W        W28323   9.288  24.685  11.937
64765W        W28324  42.293   4.867   3.223
64766W        W28325  22.201  18.775  11.933
64767W        W28326  32.119  27.956  14.346
64768W        W28327  34.519  30.521  14.395
64769W        W28328  39.009   9.825   2.802
64770W        W28329   0.291  31.608   4.627
64771W        W28330  22.228  42.310  14.438
64772W        W28331   4.859  27.496  14.390
64773W        W28332  35.068   7.708  11.973
64774W        W28333   1.305   4.448   0.776
64775W        W28334  12.134   0.948  14.464
64776W        W28335  13.282  43.321  13.037
64777W        W28336  18.192  44.852   4.597
64778W        W28337  32.987  27.666  13.422
64779W        W28338  20.162   5.710  12.408
64780W        W28339  40.025  35.420  12.420
64781W        W28340  28.940  35.040  14.978
64782W        W28341   7.758  10.138  14.309
64783W        W28342  21.198  25.636  14.913
64784W        W28343  44.469  41.835   1.824
64785W        W28344   6.686   4.841  11.971
64786W        W28345   8.191  20.043   0.911
64787W        W28346  10.216  10.637  11.598
64788W        W28347  26.003  28.983   4.177
64789W        W28348  33.041  42.781  13.985
64790W        W28349  32.045  10.160   5.235
64791W        W28350  42.816  15.789  12.368
64792W        W28351  17.292  11.239  13.481
64793W        W28352  36.577   7.225   3.207
64794W        W28353   1.272  32.558   2.280
64795W        W28354  43.477  44.847  14.026
64796W        W28355  22.601  12.665  10.636
64797W        W28356  25.151  24.636   5.153
64798W        W28357  26.992   4.812   9.973
64799W        W28358   8.668  35.890   0.296
64800W        W28359  40.801  10.374   2.776
64801W        W28360   6.391  23.502  11.573
64802W        W28361  27.544  35.006  14.761
64803W        W28362  44.416  31.004   3.346
64804W        W28363  21.700  37.501   0.871
64805W        W28364  30.485  27.684  12.011
64806W        W28365  29.589  21.583   2.343
64807W        W28366  34.003  10.188  12.956
64808W        W28367  36.035  37.556  11.484
64809W        W28368   6.399  23.587   1.830
64810W        W28369  32.590  25.165   4.328
64811W        W28370  17.741  25.708   4.598
64812W        W28371  40.350  26.056   2.867
64813W        W28372   0.898  23.230   1.852
64814W        W28373  36.903  15.274  14.933
64815W        W28374   6.237  17.582   2.664
64816W        W28375  14.223   0.809   2.739
64817W        W28376  34.880  33.063  11.999
64818W        W28377  36.889   5.777   2.281
64819W        W28378  39.493  18.065   4.682
64820W        W28379  38.891   1.919  12.890
64821W        W28380  39.864  40.307  13.944
64822W        W28381  21.730  30.502  14.811
64823W        W28382  35.454  43.775  14.988
64824W        W28383  13.212  30.092   0.469
64825W        W28384  30.122  21.749  10.015
64826W        W28385   4.854  27.683  14.852
64827W        W28386  40.535  44.351   4.125
64828W        W28387  30.488  42.793  10.608
64829W        W28388  36.920  43.286  14.781
64830W        W28389   4.710  39.381   0.479
64831W        W28390   3.346  38.516   3.659
64832W        W28391  33.920  23.228   4.117
64833W        W28392  24.621   3.760  12.510
64834W        W28393  20.185  11.761  14.328
64835W        W28394  37.370   1.482  11.127
64836W        W28395  34.523  32.961   1.911
64837W        W28396   4.241  29.926   0.882
64838W        W28397  31.592   3.818   1.801
64839W        W28398  12.811  19.165   1.921
64840W        W28399  13.120  20.617  13.874
64841W        W28400  29.588  18.560  11.555
64842W        W28401  22.627  42.997   0.938
64843W        W28402   2.926  11.789  12.957
64844W        W28403  29.564  21.027  12.415
64845W        W28404  11.211  26.957   0.967
64846W        W28405  35.914   9.818  14.866
64847W        W28406   9.772  34.904  12.940
64848W        W28407  37.872  10.338   3.156
64849W        W28408  28.486  19.148   3.802
64850W        W28409  16.110  16.612   1.250
64851W        W28410  22.734  32.974   2.731
64852W        W28411  13.644  20.702  11.981
64853W        W28412  34.936  42.873   1.814
64854W        W28413  41.803  42.992  14.978
64855W        W28414   1.259  16.727   0.870
64856W        W28415  41.427  34.571   4.331
64857W        W28416   3.889  22.013   4.702
64858W        W28417   6.195  28.981   2.666
64859W        W28418  14.744  32.538  10.915
64860W        W28419  30.973  34.436  12.359
64861W        W28420  12.331  38.850   3.217
64862W        W28421   5.840  27.179   2.763
64863W        W28422  29.660  28.137  10.891
64864W        W28423  13.208  26.141  11.416
64865W        W28424  10.852   5.879  13.897
64866W        W28425  16.581   7.384  10.971
64867W        W28426  36.364  39.816  14.489
64868W        W28427   7.833  25.531  12.849
64869W        W28428  40.841  15.220   0.277
64870W        W28429   2.289  19.235   3.808
64871W        W28430   9.290  33.108   4.687
64872W        W28431  39.338  14.325   1.856
64873W        W28432  14.696  29.055   3.768
64874W        W28433  26.196  31.533  14.913
64875W        W28434  20.588  34.451   0.265
64876W        W28435   1.273  28.543   2.358
64877W        W28436  34.574  31.045  13.866
64878W        W28437   3.722  22.588  11.426
64879W        W28438  22.697  19.134   4.638
64880W        W28439  17.761  32.430  14.783
64881W        W28440   2.287  20.205   1.291
64882W        W28441   8.213  33.519   1.395
64883W        W28442  29.474  29.021  13.952
64884W        W28443  16.652  35.056  11.556
64885W        W28444   3.275  29.009   4.246
64886W        W28445  16.118  33.419  12.041
64887W        W28446   3.241   4.893   0.930
64888W        W28447  21.639   3.334   5.112
64889W        W28448  16.622  43.930   1.721
64890W        W28449  44.434  32.114  11.984
64891W        W28450  37.864   0.789   0.938
64892W        W28451  20.758  19.196   3.722
64893W        W28452   3.927   6.920   4.274
64894W        W28453  28.081  17.785  11.928
64895W        W28454  37.567  43.376  10.578
64896W        W28455  13.647  19.572   0.907
64897W        W28456  21.051  31.461  11.050
64898W        W28457  34.055  11.818  11.374
64899W        W28458   3.947   5.930  11.893
64900W        W28459  30.013  33.621  13.333
64901W        W28460   5.379  20.068   0.946
64902W        W28461  30.096  16.314   2.353
64903W        W28462  10.264  17.646   0.374
64904W        W28463  25.588  26.534  14.853
64905W        W28464  28.013  25.215   2.233
64906W        W28465  21.576  19.740   5.244
64907W        W28466   6.838  42.470   4.764
64908W        W28467  14.718  29.082   1.779
64909W        W28468   2.279  43.885  13.000
64910W        W28469   2.457  19.182  13.455
64911W        W28470  37.401  19.773  14.374
64912W        W28471   8.787   4.262   2.712
64913W        W28472   3.337   5.733   1.932
64914W        W28473   3.300   7.305  12.396
64915W        W28474  30.068  36.919  14.413
64916W        W28475  31.132   4.700   1.277
64917W        W28476  24.507  32.454   2.889
64918W        W28477  44.944  43.356  14.274
64919W        W28478  31.424  17.759  14.406
64920W        W28479   7.682  18.256   3.349
64921W        W28480   5.268  27.188   0.887
64922W        W28481  23.004  26.078  13.397
64923W        W28482   5.376  26.958   4.725
64924W        W28483  31.581  24.221  12.963
64925W        W28484  44.768   9.380  10.559
64926W        W28485   9.737  32.463  11.988
64927W        W28486  21.150   7.695  10.615
64928W        W28487  26.962  17.191  10.572
64929W        W28488  41.493  14.199  10.495
64930W        W28489   5.230  16.658  14.513
64931W        W28490  15.319  39.319  13.547
64932W        W28491  27.611  14.172  13.499
64933W        W28492  37.893  32.394   2.799
64934W        W28493  26.106  35.432   4.669
64935W        W28494  42.300  43.397   0.922
64936W        W28495  34.996  39.850  12.038
64937W        W28496  19.136  33.550  14.316
64938W        W28497  16.778   2.427   4.739
64939W        W28498  23.200  37.469   9.971
64940W        W28499  29.172  39.419  13.975
64941W        W28500   9.861   0.787   1.282
64942W        W28501  13.841  13.248   2.379
64943W        W28502   9.756  34.515   2.902
64944W        W28503  41.919  40.855   3.322
64945W        W28504  39.328  25.981   1.846
64946W        W28505   4.295  13.623  10.965
64947W        W28506   1.931   8.167  12.960
64948W        W28507  44.001  13.153  12.903
64949W        W28508  39.487  12.217  10.597
64950W        W28509  30.981   4.211   3.171
64951W        W28510  44.821   5.197  10.910
64952W        W28511   8.690   6.767  12.516
64953W        W28512  16.247  13.247   1.890
64954W        W28513   9.866  19.081   3.214
64955W        W28514   4.826  22.167  10.927
64956W        W28515  16.127  29.534  11.091
64957W        W28516  21.182  37.549   4.304
64958W        W28517  41.314   8.370  12.986
64959W        W28518  25.002  44.440  13.438
64960W        W28519  27.013  37.053  11.861
64961W        W28520   8.895  44.294  10.550
64962W        W28521  43.991  26.111   2.826
64963W        W28522   5.301  18.147   1.261
64964W        W28523  17.647   3.738  11.985
64965W        W28524  12.654   2.815   0.817
64966W        W28525  39.382   6.185   4.228
64967W        W28526   0.415  28.662   4.825
64968W        W28527  43.892  40.982  13.483
64969W        W28528  10.292  30.498   1.831
64970W        W28529  29.597  26.134  13.548
64971W        W28530  31.600  14.262   2.806
64972W        W28531  43.444  26.622   2.682
64973W        W28532  14.783  42.852   3.709
64974W        W28533  19.166   5.851   1.916
64975W        W28534  25.158  34.086   1.378
64976W        W28535  41.009  35.085   1.701
64977W        W28536  39.522  16.586  14.419
64978W        W28537  38.494  33.891  11.989
64979W        W28538  36.036   4.914  14.863
64980W        W28539  20.156   4.316  12.041
64981W        W28540   0.266   2.966  13.865
64982W        W28541  36.945  36.079  11.556
64983W        W28542  32.008  41.884   9.932
64984W        W28543  42.386  26.546  10.076
64985W        W28544  29.118   0.958   4.199
64986W        W28545  41.408  27.159  14.384
64987W        W28546  36.441  14.333  14.482
64988W        W28547   8.350  14.747   3.752
64989W        W28548  13.667  22.111  10.436
64990W        W28549  43.485   2.733  12.911
64991W        W28550  43.842  34.000   4.159
64992W        W28551  26.038  33.578   1.833
64993W        W28552  43.335  19.140   0.393
64994W        W28553  25.494  17.745   2.895
64995W        W28554  28.158  16.796   1.840
64996W        W28555  40.405  41.501  12.375
64997W        W28556   0.293  31.504  14.853
64998W        W28557  26.561  15.653  14.922
64999W        W28558   4.280  24.580  14.881
65000W        W28559  13.684  27.049  10.405
65001W        W28560  26.026  33.468   3.376
65002W        W28561   5.439  30.451   0.343
65003W        W28562  22.723   5.393  12.438
65004W        W28563  35.596  34.894   4.135
65005W        W28564  18.090  44.835  14.896
65006W        W28565  43.805  32.064  14.892
65007W        W28566   9.761   5.769   1.857
65008W        W28567  29.493   5.738  12.090
65009W        W28568  22.085   7.785   3.188
65010W        W28569  27.159  10.239  13.431
65011W        W28570  36.397  27.977  13.797
65012W        W28571   8.846   1.421   2.272
65013W        W28572  16.241   3.310  13.040
65014W        W28573  23.680  38.858   2.666
65015W        W28574  42.503  20.683  11.961
65016W        W28575  25.473  37.486   0.814
65017W        W28576  24.492   1.265  14.897
65018W        W28577  33.616  12.786  11.406
65019W        W28578  21.647  27.953  12.837
65020W        W28579  28.625  40.922   4.217
65021W        W28580  19.053  28.941   2.789
65022W        W28581  10.181  30.148  13.797
65023W        W28582  12.333  44.294   2.710
65024W        W28583  25.002   7.290  11.115
65025W        W28584  28.498  34.101   3.861
65026W        W28585  40.856   7.706   2.798
65027W        W28586  21.518  30.938   1.235
65028W        W28587   8.243  25.488   0.419
65029W        W28588  10.837   2.742  10.440
65030W        W28589  33.076  36.468  10.599
65031W        W28590   0.955   9.789   1.305
65032W        W28591   7.374  30.158  10.996
65033W        W28592   1.832  21.537  11.971
65034W        W28593  11.266  18.277   2.664
65035W        W28594  18.764   3.904   2.391
65036W        W28595  32.930  32.005  10.497
65037W        W28596  30.112  17.201  12.928
65038W        W28597  19.203  40.374   0.464
65039W        W28598   0.834  25.185  11.018
65040W        W28599  12.184  17.094  11.533
65041W        W28600   2.878  39.882   3.245
65042W        W28601   8.846  25.702   1.864
65043W        W28602   4.700  28.579  14.408
65044W        W28603  28.444  23.697  13.957
65045W        W28604  32.937  11.628  10.431
65046W        W28605  20.595  27.989   0.289
65047W        W28606  27.480  15.624   1.238
65048W        W28607  10.327  11.275   0.399
65049W        W28608  16.574  17.258   3.668
65050W        W28609  27.449  17.599   4.715
65051W        W28610  14.717   4.928   3.729
65052W        W28611   0.265  44.501  12.970
65053W        W28612   8.190   1.325  11.390
65054W        W28613  23.191  41.302   2.699
65055W        W28614  25.708   0.966   2.846
65056W        W28615   3.238  21.255   2.705
65057W        W28616  10.349  34.415   4.220
65058W        W28617   9.768   3.805   4.248
65059W        W28618  35.425  19.607  12.398
65060W        W28619  41.847  34.869  14.783
65061W        W28620  34.018  38.962   0.912
65062W        W28621  15.158   4.362  12.571
65063W        W28622  23.107  44.353   4.235
65064W        W28623   2.798  14.117  11.011
65065W        W28624  27.468  19.080   3.784
65066W        W28625  29.161  22.187   0.281
65067W        W28626  32.892  42.461   3.738
65068W        W28627  37.980  12.139  11.874
65069W        W28628  28.632  20.727   1.870
65070W        W28629  11.180   5.738   0.764
65071W        W28630  32.404  36.070   2.227
65072W        W28631  24.990  39.355   3.231
65073W        W28632  41.464  26.459  14.862
65074W        W28633   8.760  42.020   0.308
65075W        W28634  29.493  38.985   5.309
65076W        W28635  13.154   0.331   3.779
65077W        W28636   9.665  11.742  10.427
65078W        W28637  44.949  21.238   4.783
65079W        W28638   0.442  44.483  10.515
65080W        W28639  21.226   5.929  10.614
65081W        W28640   9.778  15.785  10.639
65082W        W28641  37.069   6.917  11.557
65083W        W28642  44.358  36.540   4.218
65084W        W28643  32.439   3.868   1.696
65085W        W28644  15.684   6.337   0.378
65086W        W28645   1.833   4.403  13.386
65087W        W28646   4.239  44.381  12.963
65088W        W28647  12.192  11.289   0.892
65089W        W28648  31.071  18.780   2.678
65090W        W28649  12.119  31.459  14.970
65091W        W28650  38.844  27.607   0.478
65092W        W28651  17.611  10.709   1.923
65093W        W28652  36.020   4.720   1.722
65094W        W28653  28.445  10.166  12.954
65095W        W28654  35.065  14.629   2.806
65096W        W28655  12.810  40.843  14.813
65097W        W28656  26.118   3.714   4.798
65098W        W28657  41.983  36.853   4.646
65099W        W28658  13.156  24.094  13.493
65100W        W28659  27.580  36.559   0.728
65101W        W28660  30.118  25.165   1.820
65102W        W28661  43.966  44.449   2.728
65103W        W28662  16.797  40.376   0.308
65104W        W28663  11.847  36.968  13.817
65105W        W28664  19.235   1.872  12.363
65106W        W28665   1.324  17.085   0.476
65107W        W28666  43.305   1.447  11.430
65108W        W28667   5.193  37.577   4.185
65109W        W28668  23.606  31.568  12.414
65110W        W28669  32.516  25.522   3.182
65111W        W28670  10.370  16.668   4.330
65112W        W28671  16.762  29.453   3.221
65113W        W28672  34.864  20.753   3.257
65114W        W28673  43.486  23.644  14.800
65115W        W28674  28.042  19.163   4.803
65116W        W28675   1.877  39.509   0.380
65117W        W28676  15.647  35.539   0.301
65118W        W28677  10.324  11.236  10.084
65119W        W28678   2.340  20.122   2.748
65120W        W28679  14.639  12.746   1.397
65121W        W28680  19.109  28.153   1.221
65122W        W28681  39.504  37.458   2.375
65123W        W28682  28.087  35.574  12.025
65124W        W28683   9.813  32.567  11.032
65125W        W28684  27.677  38.863  14.311
65126W        W28685  14.333  37.523   4.811
65127W        W28686   9.648  24.176  12.001
65128W        W28687  34.011  28.070   4.178
65129W        W28688  37.418  27.000   0.864
65130W        W28689  16.132   2.238  12.034
65131W        W28690   3.782  34.446   5.098
65132W        W28691  33.106  28.639   1.905
65133W        W28692  15.229  35.599   3.184
65134W        W28693  27.533  24.548   0.360
65135W        W28694  11.810  29.614  14.032
65136W        W28695  33.585  37.510  12.564
65137W        W28696  44.427  22.523  10.625
65138W        W28697  25.628  37.436  12.424
65139W        W28698  24.107  42.409   2.204
65140W        W28699   7.867  17.717  11.565
65141W        W28700  24.226  32.107  11.099
65142W        W28701   9.384  38.015   1.274
65143W        W28702   8.706  24.173   3.178
65144W        W28703   2.861  21.555  13.358
65145W        W28704  12.618  18.696   3.169
65146W        W28705   4.300  11.643  10.561
65147W        W28706  27.119  23.085   2.857
65148W        W28707  31.630  25.219  10.481
65149W        W28708   2.750  24.976   0.437
65150W        W28709  39.430  43.344   0.482
65151W        W28710  38.840  36.017   3.832
65152W        W28711  39.461  27.459  11.454
65153W        W28712  24.179  18.115  11.867
65154W        W28713  31.997  24.608   1.363
65155W        W28714  12.850  18.267  14.948
65156W        W28715  34.008  13.216  12.840
65157W        W28716  17.585  18.206  11.962
65158W        W28717  28.609  37.378   0.245
65159W        W28718  18.629  34.878  13.064
65160W        W28719  19.681  30.631   4.615
65161W        W28720  41.525   8.373   2.805
65162W        W28721   6.788  31.917  11.106
65163W        W28722  18.284  34.474  10.491
65164W        W28723  35.952  24.723  10.984
65165W        W28724  32.482  25.978  11.579
65166W        W28725  35.577   6.338   0.263
65167W        W28726  31.098  12.774  10.460
65168W        W28727  22.163  42.411  11.489
65169W        W28728  21.195  31.085   4.749
65170W        W28729   7.683  32.505  13.374
65171W        W28730  13.205  43.291   2.766
65172W        W28731   9.242  41.892   4.720
65173W        W28732  22.234  28.986   3.233
65174W        W28733  26.600  43.945  14.355
65175W        W28734  42.443  14.245  11.925
65176W        W28735  31.648  35.512  11.961
65177W        W28736  22.175  37.385   0.822
65178W        W28737  17.189  38.889  14.503
65179W        W28738  33.094   1.284  10.426
65180W        W28739  35.437  35.383   4.606
65181W        W28740  40.916   4.845  10.970
65182W        W28741   2.839  39.868   2.720
65183W        W28742  41.407  40.464  12.944
65184W        W28743  15.619  30.012  12.499
65185W        W28744   6.293  24.510   3.381
65186W        W28745  29.632   8.850   2.887
65187W        W28746  37.544  37.077   4.761
65188W        W28747   5.906  38.076  12.472
65189W        W28748  25.687  40.905   0.445
65190W        W28749  29.590   5.411  14.821
65191W        W28750  35.021   8.773  11.878
65192W        W28751   5.915  30.544   0.910
65193W        W28752  39.370  43.365  11.509
65194W        W28753  19.129   2.471   0.740
65195W        W28754  37.361  37.075  11.383
65196W        W28755  39.421  20.229   4.145
65197W        W28756  36.098  40.515  14.349
65198W        W28757  27.591  35.869   4.628
65199W        W28758   9.863   6.904   2.842
65200W        W28759   9.788   9.312   1.852
65201W        W28760  18.717  41.981   1.295
65202W        W28761   0.410  21.192   4.183
65203W        W28762  11.189  36.586   5.190
65204W        W28763   7.381  44.280   4.701
65205W        W28764  34.946  22.244   0.455
65206W        W28765  24.548   2.397   3.229
65207W        W28766  14.796  37.965   4.713
65208W        W28767  11.238   1.430  12.056
65209W        W28768  32.002  23.988  11.052
65210W        W28769  41.440  20.589   0.469
65211W        W28770  20.688  13.111  10.410
65212W        W28771  27.177   9.391   0.383
65213W        W28772  26.555  23.231  13.982
65214W        W28773  18.260  35.914   2.357
65215W        W28774  27.619   3.445   3.863
65216W        W28775  32.435  36.972  11.915
65217W        W28776  34.076  29.611  13.924
65218W        W28777  15.102  18.547   4.252
65219W        W28778   3.807  32.410  10.471
65220W        W28779  31.010  19.542  12.949
65221W        W28780  44.760   1.973   4.286
65222W        W28781  20.161  26.119   3.805
65223W        W28782  24.650  31.958   1.388
65224W        W28783  23.692  22.141   3.260
65225W        W28784  38.353  29.589  10.596
65226W        W28785   4.444   2.398   2.672
65227W        W28786   8.362   7.225   0.938
65228W        W28787   8.388  29.609   0.917
65229W        W28788  12.150  22.090  13.313
65230W        W28789   3.845  31.411  14.019
65231W        W28790  31.925  41.406   4.679
65232W        W28791  31.529  28.154  12.035
65233W        W28792  10.260   0.782  13.868
65234W        W28793   3.226  26.185  14.877
65235W        W28794  12.749   6.833   3.224
65236W        W28795  36.942  10.706  12.484
65237W        W28796   0.248  15.138   2.358
65238W        W28797  11.693  31.443  14.446
65239W        W28798  37.895  33.428  14.005
65240W        W28799   7.176  11.799  12.512
65241W        W28800  26.675   2.251  12.963
65242W        W28801  21.591   4.328  13.906
65243W        W28802  21.662   6.735  10.573
65244W        W28803  21.117  42.521   3.693
65245W        W28804  37.551   8.379   3.374
65246W        W28805  17.700   1.911  14.372
65247W        W28806  11.774  40.445   0.312
65248W        W28807   2.865  24.092  10.916
65249W        W28808  30.916  23.585   4.314
65250W        W28809   4.317  32.999   0.332
65251W        W28810  35.359  26.148   4.226
65252W        W28811  33.553   0.381   0.745
65253W        W28812  27.026   2.304  10.498
65254W        W28813  20.222  17.096  14.945
65255W        W28814   0.440   4.880  14.871
65256W        W28815  28.619  37.916   0.445
65257W        W28816  22.036   5.921  10.549
65258W        W28817  31.034  43.011   3.179
65259W        W28818  39.043   5.367   4.669
65260W        W28819  29.462  29.592  11.883
65261W        W28820  31.504  37.997  12.824
65262W        W28821  28.479  12.188  10.550
65263W        W28822  35.074   5.731  12.952
65264W        W28823  17.242  23.607   9.967
65265W        W28824  42.406  20.730  13.462
65266W        W28825  12.740  14.147   5.177
65267W        W28826   6.321  29.473   4.758
65268W        W28827   6.708  19.671   3.214
65269W        W28828   4.825  42.857  11.426
65270W        W28829  41.816   5.856   4.170
65271W        W28830   5.362  26.586   0.944
65272W        W28831  25.677  22.660  12.379
65273W        W28832  33.902  36.913   2.321
65274W        W28833  23.543  11.673   5.202
65275W        W28834  20.096  12.189   4.645
65276W        W28835  27.654  23.723  12.509
65277W        W28836  41.793  23.524   2.767
65278W        W28837  36.462   6.905   0.414
65279W        W28838  41.975  24.083  13.529
65280W        W28839   8.262   5.895  11.060
65281W        W28840   3.933  23.685   4.354
65282W        W28841  31.019  23.664   2.370
65283W        W28842   4.819  29.941   3.182
65284W        W28843   1.970  15.761  10.621
65285W        W28844  15.752  16.237   4.196
65286W        W28845  33.508  36.853   4.165
65287W        W28846  22.669  14.750   1.332
65288W        W28847  34.564  41.506  11.499
65289W        W28848  42.930  25.120   3.834
65290W        W28849  38.921  15.698  14.353
65291W        W28850   0.343  41.821   3.795
65292W        W28851  31.526  17.575   0.466
65293W        W28852  23.575  21.237  11.531
65294W        W28853   5.843   2.313   4.184
65295W        W28854  23.659  32.538  12.083
65296W        W28855  19.717   9.873  14.855
65297W        W28856  16.072  24.571   2.222
65298W        W28857  20.561  20.727  14.820
65299W        W28858  18.196  21.239  14.890
65300W        W28859  15.251  35.528   4.772
65301W        W28860   3.879   0.281   3.865
65302W        W28861  30.528  15.304   0.342
65303W        W28862   0.299  38.397  12.948
65304W        W28863   3.742  11.702  11.466
65305W        W28864  35.899  15.255  12.400
65306W        W28865   7.883  25.988   4.164
65307W        W28866   7.328  31.577   1.237
65308W        W28867  31.985  20.760  14.893
65309W        W28868  18.783  30.010  14.430
65310W        W28869  38.385   5.929  13.420
65311W        W28870   9.882  16.243   0.888
65312W        W28871   4.802  13.222   1.398
65313W        W28872  20.542  22.043   2.763
65314W        W28873   1.339   5.858  11.378
65315W        W28874   5.762  32.120  14.923
65316W        W28875  28.169  14.171   4.810
65317W        W28876   5.812   8.218   0.340
65318W        W28877  33.075  34.979   3.334
65319W        W28878  23.083  20.129   3.323
65320W        W28879  18.737  42.018  13.430
65321W        W28880  28.980  33.582   1.253
65322W        W28881  39.340  39.810  11.086
65323W        W28882   6.783   5.296  13.978
65324W        W28883  16.638  24.139   2.399
65325W        W28884   4.772  34.022  11.093
65326W        W28885  29.131  21.581  12.573
65327W        W28886  31.033  44.850   3.826
65328W        W28887  11.690  22.582  10.537
65329W        W28888  32.131  36.045  14.356
65330W        W28889   2.922  40.485   1.398
65331W        W28890  19.138   0.986   3.731
65332W        W28891  21.123  34.967  13.900
65333W        W28892  39.983  22.743   2.389
65334W        W28893  26.027  18.146   0.411
65335W        W28894  39.355  24.596  10.577
65336W        W28895  26.027  29.590  12.923
65337W        W28896   7.813  27.037   4.201
65338W        W28897  41.302  15.317   0.447
65339W        W28898  39.051  43.349  14.797
65340W        W28899   7.667  34.962  11.592
65341W        W28900  41.972  39.822   3.870
65342W        W28901  35.411  27.065  13.465
65343W        W28902   8.258   4.266   0.918
65344W        W28903  38.900  15.792   3.704
65345W        W28904  44.758  16.796   1.846
65346W        W28905  40.337  35.523  14.446
65347W        W28906  43.966  36.941   2.708
65348W        W28907   6.730  20.155  12.966
65349W        W28908  15.273  21.642   4.601
65350W        W28909  28.627  18.203  12.927
65351W        W28910  38.455  32.511  11.920
65352W        W28911  24.609  25.570  13.028
65353W        W28912  34.544  31.104  10.549
65354W        W28913  35.896  29.456  12.507
65355W        W28914   4.434  33.530   2.843
65356W        W28915   9.267  41.942   1.795
65357W        W28916  32.445  36.493  12.576
65358W        W28917   9.862  26.592   0.244
65359W        W28918  32.637  40.973  12.485
65360W        W28919  35.948  33.427   1.790
65361W        W28920   4.206   3.933  13.390
65362W        W28921   0.256   8.666  12.923
65363W        W28922  29.646  28.086  12.367
65364W        W28923  42.939  29.092   0.948
65365W        W28924  39.931  15.778  11.115
65366W        W28925  34.031  24.011   4.135
65367W        W28926  22.657   5.821  14.345
65368W        W28927   6.359  34.884   0.895
65369W        W28928  28.963   6.422  14.950
65370W        W28929   2.819  38.417  12.372
65371W        W28930  11.252  33.094  14.944
65372W        W28931  24.639  19.547   1.447
65373W        W28932  32.006  34.013   4.671
65374W        W28933  15.638   2.872  11.435
65375W        W28934  15.147  32.620  14.345
65376W        W28935   9.785  29.055  10.406
65377W        W28936   5.375  37.370  10.506
65378W        W28937  31.018   3.418   2.335
65379W        W28938  14.145  27.545  12.432
65380W        W28939  27.680  38.451   4.332
65381W        W28940  41.943  26.580   1.214
65382W        W28941  41.845  20.268   0.315
65383W        W28942  27.661  15.327   4.701
65384W        W28943  14.771  17.673  13.062
65385W        W28944  44.374   7.841  11.928
65386W        W28945  13.810   1.962   0.853
65387W        W28946  28.520  22.630  10.908
65388W        W28947  30.125  26.643   4.277
65389W        W28948  36.443  44.835  13.844
65390W        W28949   3.731  22.153   1.385
65391W        W28950  13.609  17.663  11.094
65392W        W28951  37.947  23.138  13.336
65393W        W28952  28.129   9.362   2.202
65394W        W28953  25.117   1.360   3.724
65395W        W28954   7.181  13.774   0.316
65396W        W28955  38.864   0.397  14.510
65397W        W28956  15.749  43.997   3.349
65398W        W28957  19.757  10.828   1.279
65399W        W28958  34.882  19.230  13.959
65400W        W28959  29.552  29.161   1.284
65401W        W28960  36.462  14.665  10.601
65402W        W28961  38.839  43.287  12.880
65403W        W28962  10.246  30.546   0.256
65404W        W28963  16.691  43.476   4.798
65405W        W28964   0.753  20.167   2.234
65406W        W28965  34.413  21.223  13.821
65407W        W28966  28.496   4.362   1.713
65408W        W28967   1.291  44.006   2.244
65409W        W28968  40.426  30.472   4.215
65410W        W28969  17.173   3.736  12.905
65411W        W28970  34.612   0.289   4.678
65412W        W28971  16.166   4.800   1.327
65413W        W28972  37.420  11.240  10.125
65414W        W28973  30.496  12.164  14.780
65415W        W28974   1.894   5.878  12.424
65416W        W28975  14.299  40.502  11.007
65417W        W28976  24.023  44.903  13.385
65418W        W28977  19.239  33.534  12.467
65419W        W28978  30.940  14.278   0.849
65420W        W28979  24.083  38.422   4.122
65421W        W28980  27.624  27.186   2.772
65422W        W28981  12.293  21.748  12.877
65423W        W28982  37.023  13.608  10.924
65424W        W28983  40.807  39.400  13.378
65425W        W28984  40.005   4.361  13.341
65426W        W28985   5.326  20.162   1.385
65427W        W28986   3.719   8.213  14.487
65428W        W28987  26.032  13.721  12.083
65429W        W28988  31.998  38.017   1.842
65430W        W28989  22.650  13.105   3.324
65431W        W28990  25.653  34.400  10.627
65432W        W28991  43.008  42.290   1.246
65433W        W28992  22.122  37.509   0.284
65434W        W28993   2.337  31.097  14.440
65435W        W28994  12.358   5.289   2.277
65436W        W28995  12.758  31.992  10.105
65437W        W28996   4.314  22.685  12.402
65438W        W28997   2.737  25.610   3.631
65439W        W28998   9.190   1.823   1.912
65440W        W28999  32.972  12.148   9.438
65441W        W29000  24.167  41.477   0.246
65442W        W29001  17.619  27.146   2.803
65443W        W29002  21.198  17.223  11.574
65444W        W29003  15.735   0.398   4.131
65445W        W29004   3.845  27.032  11.460
65446W        W29005  35.454  17.267   3.815
65447W        W29006  11.668   4.923   4.176
65448W        W29007  26.482  26.131  14.395
65449W        W29008   9.748   5.256   0.373
65450W        W29009  23.654   2.364  13.345
65451W        W29010  35.895  22.643  11.010
65452W        W29011  17.733  10.291  12.890
65453W        W29012  32.045  42.983  13.874
65454W        W29013  16.119   0.379   0.772
65455W        W29014   9.695  42.483   2.383
65456W        W29015  37.346  23.235   2.219
65457W        W29016  23.028  20.661   0.323
65458W        W29017  21.248  27.046   5.147
65459W        W29018  36.491  26.022   0.433
65460W        W29019  20.153  19.211   1.251
65461W        W29020  35.380  26.168   3.641
65462W        W29021  17.681  33.099   4.681
65463W        W29022  21.517  23.134   2.669
65464W        W29023  30.446  29.063   4.791
65465W        W29024   2.744  30.637  10.644
65466W        W29025  32.573   6.915   2.417
65467W        W29026  32.037  34.018  14.007
65468W        W29027  34.990  30.921  11.990
65469W        W29028   7.838   4.909   4.347
65470W        W29029   7.757  13.721  12.356
65471W        W29030  26.107  33.606  14.385
65472W        W29031  40.306  32.102  12.391
65473W        W29032   8.353  21.108   4.118
65474W        W29033  15.819  13.714   1.406
65475W        W29034  22.554  11.749  14.816
65476W        W29035  29.934  25.627   0.343
65477W        W29036  40.865  16.725   3.321
65478W        W29037  10.319   9.700   0.369
65479W        W29038  28.157  44.814   2.851
65480W        W29039  11.759  10.807  11.377
65481W        W29040  43.310  41.350   1.385
65482W        W29041  32.080  40.976  12.037
65483W        W29042  14.679  15.738  13.037
65484W        W29043   7.868  15.169   0.794
65485W        W29044  43.792  33.123  11.489
65486W        W29045  38.959  36.393  11.596
65487W        W29046   4.242  32.566  12.841
65488W        W29047  33.551  18.124   2.834
65489W        W29048   0.349  40.394  13.964
65490W        W29049  29.139  24.534   4.260
65491W        W29050  12.660  37.551  13.873
65492W        W29051  11.668  28.108   4.204
65493W        W29052  32.450  38.911  12.421
65494W        W29053  36.929  17.296  11.567
65495W        W29054  29.600  22.546  14.509
65496W        W29055   7.395   3.217   0.762
65497W        W29056  39.985  44.322   0.822
65498W        W29057   9.665  28.529   4.817
65499W        W29058  29.579  44.449  13.839
65500W        W29059   3.880  17.776  11.011
65501W        W29060  38.968  30.509  14.300
65502W        W29061  41.885  30.974  10.490
65503W        W29062  25.532   8.874  10.016
65504W        W29063  12.139  42.419  12.016
65505W        W29064  24.725  17.612  14.956
65506W        W29065  25.035  12.668  12.555
65507W        W29066  27.178   2.804  11.995
65508W        W29067  14.304  23.109  12.017
65509W        W29068  27.166  27.009  10.495
65510W        W29069   9.800  34.065   9.534
65511W        W29070  13.306  39.810   4.325
65512W        W29071  12.214  37.042   1.371
65513W        W29072  37.060  25.622   0.341
65514W        W29073  44.351  18.668  13.470
65515W        W29074  24.030  33.010   3.298
65516W        W29075  27.687  29.172   3.777
65517W        W29076  28.571  23.643  11.408
65518W        W29077  10.828  28.459   0.248
65519W        W29078  13.350   8.823   2.348
65520W        W29079  17.707  42.862   1.823
65521W        W29080  29.101  42.949   3.241
65522W        W29081  30.132  24.533  13.992
65523W        W29082  40.536  37.554   1.331
65524W        W29083  16.112   4.809  12.038
65525W        W29084  39.519   9.705  13.365
65526W        W29085  34.872  41.401  10.629
65527W        W29086   3.252  10.738  13.885
65528W        W29087  23.596   5.335  13.006
65529W        W29088  21.193  40.885  12.352
65530W        W29089  26.556   1.909  11.045
65531W        W29090  19.151  12.752  10.936
65532W        W29091   5.357   5.762  11.517
65533W        W29092   5.203  16.769   3.826
65534W        W29093  42.895  31.504   2.808
65535W        W29094  27.082  41.417   3.662
65536W        W29095  26.023  29.562  11.107
65537W        W29096  27.595  10.350  10.636
65538W        W29097  14.824  12.724  14.349
65539W        W29098   1.830  26.611  10.535
65540W        W29099  19.158  16.161   4.299
65541W        W29100  32.604  24.653  12.876
65542W        W29101  40.048  22.537  13.882
65543W        W29102  23.134  40.357  11.949
65544W        W29103   1.324   7.696   0.274
65545W        W29104   5.746  29.491  13.545
65546W        W29105  20.093  28.640   3.752
65547W        W29106  18.114  43.389  14.397
65548W        W29107  18.205   3.830   2.682
65549W        W29108  37.032  13.790  11.527
65550W        W29109  20.708  15.160  10.894
65551W        W29110  14.747  34.520  10.068
65552W        W29111  43.872  29.170   2.845
65553W        W29112  24.011   7.283   0.863
65554W        W29113  34.899  40.329  10.040
65555W        W29114  14.279  15.654  14.500
65556W        W29115  39.895   9.157  12.566
65557W        W29116  33.507  28.676  11.472
65558W        W29117   0.881  44.394  11.037
65559W        W29118  22.172   3.433   1.894
65560W        W29119  40.003  22.682  14.834
65561W        W29120   5.429  18.580   3.775
65562W        W29121   2.397  23.612   9.929
65563W        W29122  19.124  39.020   3.736
65564W        W29123  22.238   1.248   0.397
65565W        W29124  23.120  29.437   0.425
65566W        W29125  15.785  14.180  14.335
65567W        W29126   8.676   9.185   4.280
65568W        W29127  31.983  21.667  12.872
65569W        W29128  39.320  30.598   3.667
65570W        W29129  29.947  30.025  14.387
65571W        W29130  18.293  31.516  11.013
65572W        W29131  17.159   3.715   3.176
65573W        W29132  19.604  17.258   0.292
65574W        W29133  11.635  38.950  14.357
65575W        W29134  44.824  32.961   0.458
65576W        W29135  10.728  18.764  12.496
65577W        W29136  18.690  19.669   4.308
65578W        W29137  24.994  25.541   1.774
65579W        W29138  26.990  44.833  11.965
65580W        W29139  13.151  24.594  12.469
65581W        W29140  24.596  28.087   0.864
65582W        W29141  13.836  28.935   4.291
65583W        W29142  38.471   2.434  10.433
65584W        W29143  29.955  23.093  12.880
65585W        W29144   8.793  43.426   4.625
65586W        W29145  12.784   8.275   0.359
65587W        W29146  21.198  32.551  11.865
65588W        W29147  18.746   1.375   3.341
65589W        W29148  23.136  12.696  11.902
65590W        W29149  30.125  41.297   4.622
65591W        W29150  24.629  15.770  11.061
65592W        W29151  13.218  24.491   5.087
65593W        W29152  29.568   4.838   4.615
65594W        W29153   9.344  31.974  11.465
65595W        W29154  37.564  12.660   3.159
65596W        W29155  34.020  34.460  12.559
65597W        W29156   9.812  18.603   0.929
65598W        W29157  26.118   1.378   1.743
65599W        W29158  14.597  31.490   0.248
65600W        W29159  29.628  26.105   0.735
65601W        W29160   7.271   8.815  12.390
65602W        W29161   0.831  26.148  13.844
65603W        W29162  25.073   8.341  13.839
65604W        W29163   9.799   0.860   4.279
65605W        W29164  39.501  26.142   0.872
65606W        W29165   4.253  22.518   4.621
65607W        W29166  30.460   1.429   3.743
65608W        W29167  11.240  32.426  13.032
65609W        W29168  19.723   8.828  11.906
65610W        W29169  42.966  13.105   2.406
65611W        W29170   6.423  38.930   2.300
65612W        W29171  13.683  38.849   3.183
65613W        W29172  37.378  36.568  12.441
65614W        W29173  17.682  18.654  12.426
65615W        W29174  13.315  15.809  12.444
65616W        W29175  31.079   3.855  10.609
65617W        W29176  14.146  13.299  10.551
65618W        W29177  33.048  36.927   0.751
65619W        W29178  17.081  42.958  13.950
65620W        W29179   7.771  33.091  13.884
65621W        W29180  24.071  38.503   0.372
65622W        W29181  17.156  44.791  10.606
65623W        W29182  17.707  32.021  11.957
65624W        W29183   9.367  14.222   1.736
65625W        W29184  11.760  26.607   1.302
65626W        W29185  30.162   8.246   3.761
65627W        W29186  37.457  21.178   0.817
65628W        W29187  42.994  19.659   4.175
65629W        W29188  42.490  11.211  12.985
65630W        W29189  15.299  30.970   4.792
65631W        W29190  41.973  23.506   0.734
65632W        W29191  27.611  22.089   1.715
65633W        W29192  29.538  14.332   1.321
65634W        W29193  41.932  17.253   2.786
65635W        W29194  11.148  31.103   4.255
65636W        W29195  28.131   7.353  11.026
65637W        W29196  32.075   7.710   4.687
65638W        W29197  35.590  44.305  13.433
65639W        W29198  24.053  13.708   3.252
65640W        W29199  26.624   4.393  14.435
65641W        W29200  39.934  26.604  13.840
65642W        W29201  10.656  36.505   4.666
65643W        W29202  25.695   9.817   0.259
65644W        W29203  26.997   6.413  11.876
65645W        W29204   6.840  27.082  10.617
65646W        W29205  25.510   0.345  12.349
65647W        W29206  37.395  28.181   5.226
65648W        W29207  20.570  12.612  10.463
65649W        W29208   4.208  11.779  11.953
65650W        W29209  12.743   6.246   1.263
65651W        W29210   4.877  29.955  14.032
65652W        W29211  43.856  38.905   3.857
65653W        W29212  35.482  28.147  11.550
65654W        W29213  44.884  42.363   0.902
65655W        W29214  25.963  39.910   1.263
65656W        W29215   7.304  36.552   1.278
65657W        W29216  15.113  27.013  12.860
65658W        W29217  18.290  10.861   1.808
65659W        W29218  19.693  31.123  10.121
65660W        W29219  41.492  29.006   0.307
65661W        W29220  21.616  18.570  13.043
65662W        W29221   5.836  12.752  13.912
65663W        W29222  25.046  42.024   1.279
65664W        W29223  21.518  28.532   5.130
65665W        W29224  26.641  11.141  11.916
65666W        W29225  25.658  14.789  10.551
65667W        W29226   5.916   0.401  14.907
65668W        W29227  25.009  15.646   0.936
65669W        W29228  37.343  10.328  11.462
65670W        W29229  37.368  14.712  12.845
65671W        W29230  31.999  17.722  14.776
65672W        W29231  43.967  32.124  13.012
65673W        W29232  27.164  39.863   3.291
65674W        W29233  16.681  41.434  12.479
65675W        W29234  23.186  29.542  12.840
65676W        W29235  16.592  32.553  10.576
65677W        W29236  23.229  44.974   1.241
65678W        W29237  35.477  20.581  11.432
65679W        W29238   6.295  33.044   2.387
65680W        W29239  24.552  12.201   4.699
65681W        W29240  25.158  17.151  14.763
65682W        W29241   2.939  32.137  14.898
65683W        W29242  41.934  18.597  13.035
65684W        W29243  27.976  13.324  14.998
65685W        W29244  42.524  40.544  14.993
65686W        W29245   0.898  30.142   3.849
65687W        W29246  16.290  25.600  11.898
65688W        W29247  11.219  34.939  13.375
65689W        W29248  38.339  36.050   3.722
65690W        W29249  44.425   1.832   9.985
65691W        W29250  41.940  25.040   3.165
65692W        W29251  11.361  22.650  11.103
65693W        W29252  30.491  42.314   2.847
65694W        W29253  32.424  36.533  11.897
65695W        W29254  32.479  25.701   1.740
65696W        W29255  25.038   9.302  13.825
65697W        W29256  19.705  19.284  11.011
65698W        W29257  44.972  26.063  13.937
65699W        W29258  37.412  15.656   1.855
65700W        W29259  35.477  35.044   3.353
65701W        W29260   5.436  35.557   2.898
65702W        W29261  38.960  28.110  11.583
65703W        W29262  20.246  10.845   0.301
65704W        W29263  25.984  35.076  14.798
65705W        W29264  31.430  20.702   3.762
65706W        W29265  32.997   9.376  13.830
65707W        W29266  21.748   3.838   2.334
65708W        W29267  23.026   0.437  13.046
65709W        W29268  36.470  18.265   4.186
65710W        W29269  43.500  39.331  10.609
65711W        W29270  35.488   2.959  11.093
65712W        W29271  20.091  28.953  12.928
65713W        W29272  11.360  40.914   2.374
65714W        W29273  37.909  40.846  14.388
65715W        W29274  29.938  21.651  10.642
65716W        W29275   0.979   3.870  10.454
65717W        W29276  38.882   8.182   1.351
65718W        W29277  16.128  25.476   0.755
65719W        W29278  38.525  14.298   2.188
65720W        W29279  33.622  14.231  14.863
65721W        W29280  25.576  15.101  13.471
65722W        W29281  12.276  12.811   4.600
65723W        W29282  39.317  35.866   4.178
65724W        W29283   7.745  15.189   0.319
65725W        W29284  20.578   6.700  12.924
65726W        W29285  35.954  29.960   1.789
65727W        W29286   2.419  44.966  12.477
65728W        W29287   7.190  34.525   3.159
65729W        W29288  37.083  18.573   1.769
65730W        W29289   0.273  19.547  11.984
65731W        W29290  24.188  30.521   1.898
65732W        W29291  19.230  25.593  14.816
65733W        W29292   8.401  30.552   2.749
65734W        W29293  24.653  35.068  13.546
65735W        W29294  31.058  34.900  11.510
65736W        W29295  11.358  42.983  12.914
65737W        W29296  18.268  42.342   3.260
65738W        W29297  24.981  25.112  11.441
65739W        W29298  13.834  27.470  10.611
65740W        W29299  34.875  19.624   0.394
65741W        W29300  16.255  34.462  14.349
65742W        W29301   8.245  33.473   2.726
65743W        W29302   2.345  17.293   1.254
65744W        W29303  37.037  32.007   1.371
65745W        W29304  37.017   8.396  12.080
65746W        W29305  28.044  44.798   4.137
65747W        W29306  41.479  11.192   3.381
65748W        W29307  33.498  16.175   3.651
65749W        W29308  31.050  41.005  13.547
65750W        W29309  29.151  24.187   0.743
65751W        W29310  16.209  16.793   4.806
65752W        W29311  17.567  33.550  13.314
65753W        W29312  18.239  27.102   1.807
65754W        W29313  44.886  22.153   4.633
65755W        W29314   3.716  18.209  13.521
65756W        W29315  12.281  30.141  14.017
65757W        W29316  28.086  24.004   3.188
65758W        W29317  22.593  30.907   1.366
65759W        W29318  10.768  43.807   3.353
65760W        W29319   4.314  32.430   3.855
65761W        W29320  28.952  22.107  11.046
65762W        W29321  35.372  13.653  14.433
65763W        W29322  11.130  30.424  14.998
65764W        W29323  26.172   5.855  12.015
65765W        W29324  18.657   1.922  13.864
65766W        W29325  15.784  13.772  12.072
65767W        W29326  13.342  16.293   4.770
65768W        W29327  19.234  28.499  11.016
65769W        W29328  29.520   9.880  14.861
65770W        W29329   7.218  41.410   3.263
65771W        W29330  34.895  44.337  13.823
65772W        W29331  20.104  35.532   1.272
65773W        W29332  25.208  32.434   3.862
65774W        W29333  26.545  19.170  12.549
65775W        W29334  43.365  15.226  12.485
65776W        W29335  31.925  33.100   4.284
65777W        W29336  22.736  42.851   4.277
65778W        W29337  31.570  35.966   4.638
65779W        W29338  26.554  16.677  12.050
65780W        W29339  42.438   2.306  13.989
65781W        W29340  23.717  10.733  12.384
65782W        W29341  26.096  43.365  14.901
65783W        W29342  44.289  11.182   0.435
65784W        W29343  10.159  14.745  12.578
65785W        W29344  40.522  43.422  13.452
65786W        W29345  12.176   6.911  11.488
65787W        W29346  10.374  26.954  11.542
65788W        W29347  44.850  43.453  11.118
65789W        W29348  12.205   8.385   0.329
65790W        W29349  13.742   7.702  14.353
65791W        W29350  31.646   7.340   3.856
65792W        W29351  28.023  44.928  13.482
65793W        W29352  11.796  35.968   3.206
65794W        W29353   5.863  20.696  12.003
65795W        W29354  27.672   5.806  12.552
65796W        W29355  33.076  36.499   1.752
65797W        W29356  15.710   7.361   2.339
65798W        W29357  42.330  25.688  14.846
65799W        W29358   1.461  18.070  14.823
65800W        W29359  41.029  33.498  10.992
65801W        W29360  26.969  28.014   1.292
65802W        W29361  42.300  32.501   3.279
65803W        W29362  26.527   4.768   0.313
65804W        W29363   1.283   8.403   3.667
65805W        W29364   3.922  31.913  12.358
65806W        W29365   6.412  10.721   3.763
65807W        W29366  29.971  38.380   5.093
65808W        W29367  18.076   5.897   1.756
65809W        W29368   4.401  34.868  14.361
65810W        W29369  43.012  11.680   2.745
65811W        W29370   3.789   4.359  14.370
65812W        W29371  14.651  19.537   9.948
65813W        W29372  24.092   5.756  11.984
65814W        W29373  28.148  33.616  11.408
65815W        W29374   3.807   3.940   4.148
65816W        W29375  17.690  19.699   4.205
65817W        W29376  38.354  24.716   2.267
65818W        W29377  13.621  21.575   1.863
65819W        W29378  28.152  21.106  14.994
65820W        W29379   6.257  39.496  14.925
65821W        W29380  42.340  34.564   2.416
65822W        W29381  41.441   9.832   2.342
65823W        W29382  35.862  22.677   1.381
65824W        W29383  37.030  23.618   3.320
65825W        W29384  29.981  39.909   0.397
65826W        W29385  19.545  29.560   2.325
65827W        W29386   9.395  10.694  10.127
65828W        W29387  39.057  23.590   2.267
65829W        W29388   8.664  33.124  12.574
65830W        W29389  17.068  29.926   4.784
65831W        W29390   9.791  26.647  12.540
65832W        W29391   3.731  16.153  12.056
65833W        W29392  16.750  33.881  10.524
65834W        W29393  36.482  15.323   0.732
65835W        W29394  30.123  14.792   4.764
65836W        W29395  41.373  41.848   3.780
65837W        W29396  28.442  33.508   1.277
65838W        W29397  24.647  31.449   0.401
65839W        W29398  44.759  13.678  11.900
65840W        W29399   3.786  41.525   2.683
65841W        W29400   3.852  12.218   2.679
65842W        W29401  17.216  17.165   4.623
65843W        W29402  30.459   6.289  10.477
65844W        W29403  29.453  30.426  11.057
65845W        W29404  41.929  22.637   3.237
65846W        W29405  20.683   3.418   1.861
65847W        W29406   9.856  43.360  12.045
65848W        W29407   6.411  14.819  14.895
65849W        W29408  17.220  11.150  11.499
65850W        W29409  32.997  31.438   2.797
65851W        W29410  38.970   8.402  12.389
65852W        W29411   4.702  15.583  11.457
65853W        W29412  41.947  41.435  10.925
65854W        W29413  31.125  29.636   0.851
65855W        W29414  17.098   8.832  13.859
65856W        W29415   8.241  32.611   2.226
65857W        W29416  16.627   3.331   3.801
65858W        W29417   5.426  11.825  11.077
65859W        W29418  44.978  29.636  14.290
65860W        W29419   7.388   5.729  13.933
65861W        W29420  36.907  34.991   0.419
65862W        W29421  35.039   5.923  14.319
65863W        W29422  35.425   7.256  12.837
65864W        W29423  44.400   0.982   0.247
65865W        W29424   5.708  44.881  13.479
65866W        W29425   7.843  17.578  12.391
65867W        W29426  40.874  29.578  13.334
65868W        W29427   5.391  12.137   0.295
65869W        W29428  11.177   9.853   3.807
65870W        W29429   7.804   5.879   0.785
65871W        W29430  32.459   3.382   5.228
65872W        W29431  40.502  20.158  14.776
65873W        W29432  37.571  17.695   4.352
65874W        W29433  36.359  39.920   4.192
65875W        W29434  13.829  26.460   3.311
65876W        W29435   2.256  10.343  10.888
65877W        W29436   0.369  20.632  13.325
65878W        W29437  33.514  28.115  11.903
65879W        W29438  38.860   3.336   1.448
65880W        W29439   3.736   1.256   4.141
65881W        W29440  40.826   3.231  13.487
65882W        W29441  38.933  36.072   2.336
65883W        W29442  36.074   3.429   4.759
65884W        W29443  23.596  22.604  13.798
65885W        W29444   3.867   4.929  11.995
65886W        W29445  36.989   5.805   3.213
65887W        W29446  36.935   2.384   1.922
65888W        W29447  10.755  38.336  14.976
65889W        W29448   5.432   3.285   2.882
65890W        W29449  16.098  36.574  13.939
65891W        W29450  40.882  41.838  11.501
65892W        W29451  17.225   9.318   1.895
65893W        W29452  18.768  40.958   0.277
65894W        W29453   1.935   6.742  12.021
65895W        W29454   9.889  18.711  12.366
65896W        W29455   9.152  29.044  11.490
65897W        W29456   9.789  31.466   1.852
65898W        W29457  36.089   2.443  13.307
65899W        W29458  32.490  29.101  12.357
65900W        W29459  17.701  40.313  10.636
65901W        W29460   7.877   3.932  14.824
65902W        W29461  12.232  29.048   1.815
65903W        W29462  10.705   2.364  13.423
65904W        W29463  16.284  39.518   2.842
65905W        W29464   9.651  16.310  12.339
65906W        W29465   1.473  19.669  10.538
65907W        W29466  13.247  31.598   3.192
65908W        W29467   4.827  30.445  14.329
65909W        W29468  10.837  10.852   2.316
65910W        W29469  39.001  28.125   3.768
65911W        W29470  10.679  25.531  14.406
65912W        W29471  22.735  19.553   0.443
65913W        W29472  39.903  26.988   1.821
65914W        W29473  20.261  30.943  13.960
65915W        W29474  43.467  34.589   4.240
65916W        W29475  15.246   5.343   0.867
65917W        W29476  10.230   0.449  11.941
65918W        W29477   2.776  44.292   4.155
65919W        W29478  22.171  33.997  12.830
65920W        W29479   9.657  33.061  14.816
65921W        W29480   2.419   7.780   0.434
65922W        W29481   1.248  38.361  12.989
65923W        W29482   8.303  43.881  11.926
65924W        W29483  36.422  16.163  13.377
65925W        W29484   7.340   9.877  12.052
65926W        W29485   6.342  17.071  13.841
65927W        W29486   4.423  26.160  10.547
65928W        W29487   6.748  38.907   4.320
65929W        W29488  21.697  21.233   2.879
65930W        W29489  17.795  35.559  13.364
65931W        W29490   6.771  25.641  13.064
65932W        W29491  19.653  29.668  13.520
65933W        W29492  21.231  38.822  10.969
65934W        W29493  42.859  38.879   1.848
65935W        W29494  31.134  31.997  12.921
65936W        W29495  19.075  40.813   1.320
65937W        W29496   1.857  17.792  14.416
65938W        W29497  32.459   5.381   4.721
65939W        W29498  13.160  16.808   1.834
65940W        W29499  26.541  32.125  13.845
65941W        W29500  22.136   1.788   1.732
65942W        W29501   9.180  35.420   1.408
65943W        W29502  12.613  11.216  11.860
65944W        W29503  28.607   0.853  13.892
65945W        W29504  19.274  35.404   0.481
65946W        W29505  15.648  14.638   0.250
65947W        W29506  34.614   2.792  13.429
65948W        W29507  44.434  23.134  10.986
65949W        W29508   3.777  31.599   2.701
65950W        W29509   8.401   3.834   0.365
65951W        W29510  36.850   0.897  14.881
65952W        W29511  22.616  36.062  10.098
65953W        W29512  37.036  15.603  11.100
65954W        W29513  40.449   1.818  14.369
65955W        W29514  37.031   8.716  13.976
65956W        W29515  13.265  40.337  12.398
65957W        W29516  38.978  23.114  14.413
65958W        W29517  18.192   3.884  10.615
65959W        W29518  28.940  41.314   4.612
65960W        W29519  25.546  36.929   3.846
65961W        W29520  20.222  31.567   0.948
65962W        W29521  24.609  23.711  10.466
65963W        W29522  23.579   5.922   4.264
65964W        W29523  26.028  29.571  10.483
65965W        W29524  16.673  23.608  13.409
65966W        W29525  40.822  33.394   0.378
65967W        W29526  34.581   7.275   1.307
65968W        W29527  25.613  12.727   9.551
65969W        W29528  43.791   6.204   3.869
65970W        W29529  19.203  43.958   3.168
65971W        W29530  10.755  31.586  13.953
65972W        W29531  20.720   0.953  13.487
65973W        W29532  43.421   9.220   0.775
65974W        W29533  29.453   8.199  11.877
65975W        W29534  23.589  19.240   0.366
65976W        W29535  35.365   4.351  13.384
65977W        W29536  38.071   7.244  11.933
65978W        W29537   8.885  39.934   1.448
65979W        W29538  34.944  14.133   1.370
65980W        W29539  35.511  19.650   2.865
65981W        W29540   1.787  34.368   3.711
65982W        W29541  17.209  12.706   5.171
65983W        W29542  41.424  23.083  12.018
65984W        W29543  13.278  32.592  14.357
65985W        W29544  43.403  33.608  11.550
65986W        W29545   3.755   1.846   4.154
65987W        W29546  37.413  13.234   0.835
65988W        W29547   4.286  24.579   0.947
65989W        W29548  36.976  10.176   2.181
65990W        W29549  33.542  35.073   4.313
65991W        W29550  23.046  10.274  11.983
65992W        W29551  23.612  10.177   2.282
65993W        W29552  27.658  22.689   1.920
65994W        W29553   8.290  41.342   4.170
65995W        W29554  19.719  31.098  12.971
65996W        W29555   5.269  44.864  10.496
65997W        W29556  35.479   1.251  11.952
65998W        W29557  24.150  30.450  12.509
65999W        W29558   1.787   4.930   1.888
66000W        W29559  13.325  35.084  11.085
66001W        W29560  35.102  23.600   4.124
66002W        W29561  12.639  43.387  13.420
66003W        W29562  37.869  37.443   3.666
66004W        W29563  21.168  27.117   1.716
66005W        W29564  10.773  34.459   3.152
66006W        W29565   8.721  35.062  13.028
66007W        W29566  39.340  16.608   0.944
66008W        W29567  23.726  41.886  13.804
66009W        W29568  30.535  42.006   1.815
66010W        W29569   0.405   9.330   3.782
66011W        W29570  31.523  13.278   4.178
66012W        W29571  36.065  35.475   1.395
66013W        W29572   4.245  42.017  10.508
66014W        W29573   4.878  23.558   2.734
66015W        W29574  29.120   5.207  11.929
66016W        W29575  44.971   6.762   0.936
66017W        W29576  25.069  39.965  14.490
66018W        W29577  22.116   6.755  11.901
66019W        W29578  22.632  33.525  10.465
66020W        W29579  24.071  17.695   3.261
66021W        W29580   2.965  19.771  13.402
66022W        W29581  27.593  40.365  14.794
66023W        W29582   5.326  22.995   2.684
66024W        W29583   1.883  14.245   0.409
66025W        W29584  43.860  29.445   2.857
66026W        W29585  35.366  27.112  12.972
66027W        W29586   5.263  41.361   3.835
66028W        W29587  31.592  35.589  13.389
66029W        W29588  43.364  36.097  10.919
66030W        W29589   1.790  26.480  14.829
66031W        W29590  12.744   2.446  14.381
66032W        W29591   6.706  14.305  14.481
66033W        W29592   7.352   2.357   0.315
66034W        W29593  24.689  14.772  14.793
66035W        W29594  34.373  18.097  13.351
66036W        W29595  35.101  21.185  13.893
66037W        W29596  23.067   2.841  14.465
66038W        W29597  20.193  14.262  12.927
66039W        W29598   0.443  43.824   3.376
66040W        W29599  13.616   7.186  12.859
66041W        W29600  30.100  44.967   3.687
66042W        W29601  12.257  36.420  14.818
66043W        W29602  35.561   8.777   0.301
66044W        W29603   1.468  39.474  12.929
66045W        W29604  34.067   3.389   4.737
66046W        W29605  15.264   4.224   4.646
66047W        W29606  13.151   4.928  13.546
66048W        W29607  27.657  31.435   0.356
66049W        W29608  39.409  23.649   1.768
66050W        W29609   1.779  16.201   1.821
66051W        W29610  44.409   4.366  14.788
66052W        W29611  18.071  40.472  11.875
66053W        W29612  41.440  43.906  11.003
66054W        W29613  41.297  41.943   2.331
66055W        W29614   7.669   0.774   0.738
66056W        W29615   9.202  10.224   2.248
66057W        W29616  16.673  11.185   0.295
66058W        W29617  43.450   0.461   1.859
66059W        W29618  23.128  34.080   0.244
66060W        W29619  31.553  30.644   2.271
66061W        W29620   5.902  40.821  10.948
66062W        W29621  39.322  44.765  14.837
66063W        W29622   1.396  17.696  14.873
66064W        W29623  33.388  25.469   4.223
66065W        W29624  38.938   5.311   2.320
66066W        W29625  36.401  32.595  12.437
66067W        W29626   7.299  43.869  11.104
66068W        W29627   8.846  20.603   2.886
66069W        W29628  21.259  44.880   0.388
66070W        W29629  20.193  40.820   2.852
66071W        W29630  18.064  11.319   0.917
66072W        W29631  14.767  32.928   1.768
66073W        W29632  27.975  23.191   2.291
66074W        W29633  20.028  11.188   0.905
66075W        W29634  40.926  40.944  10.586
66076W        W29635  27.011  12.808  13.820
66077W        W29636  39.342  21.240   2.287
66078W        W29637  34.926  42.775  11.530
66079W        W29638   1.347  16.733   0.430
66080W        W29639  20.101   5.230  14.804
66081W        W29640  42.946  22.016  10.444
66082W        W29641  39.955   3.326  14.767
66083W        W29642   7.326  11.717  13.309
66084W        W29643  26.080  38.522  12.052
66085W        W29644  22.509   4.775  14.946
66086W        W29645   8.793  25.024   3.691
66087W        W29646  28.162  25.138  11.918
66088W        W29647  29.595  25.077   4.195
66089W        W29648   4.208   2.893  10.610
66090W        W29649  27.066  15.319   2.725
66091W        W29650  44.785   2.795  12.958
66092W        W29651  15.809  43.419  13.027
66093W        W29652   1.322   5.863   1.265
66094W        W29653  16.233  32.978  14.276
66095W        W29654   4.934   3.910   3.246
66096W        W29655  31.145  15.242   1.846
66097W        W29656  25.992  13.143   0.745
66098W        W29657  36.014  24.688   0.268
66099W        W29658   9.343  15.314   3.765
66100W        W29659  11.776  15.205   3.869
66101W        W29660  10.772  28.961   3.678
66102W        W29661  41.807  11.269   3.227
66103W        W29662   7.714   0.376  11.128
66104W        W29663   1.737   4.313   2.403
66105W        W29664   6.357  18.050  11.053
66106W        W29665  31.053   6.820  13.473
66107W        W29666  40.983  37.009   0.768
66108W        W29667   0.494  38.980  13.344
66109W        W29668  25.625  19.610  14.780
66110W        W29669  23.045   5.701  11.022
66111W        W29670   8.676  25.172  13.470
66112W        W29671  42.374  44.991   2.793
66113W        W29672  11.326  29.996   2.202
66114W        W29673  16.134   5.397  14.808
66115W        W29674   2.274  40.893  13.863
66116W        W29675  21.666  29.424  11.440
66117W        W29676  43.921  12.802  13.858
66118W        W29677  42.428   3.298   4.734
66119W        W29678  20.239  44.792  14.831
66120W        W29679   5.904  12.680  10.956
66121W        W29680  37.437  29.436   4.732
66122W        W29681  11.828  23.164   2.395
66123W        W29682  39.904   7.719   3.702
66124W        W29683   3.410  22.223   1.722
66125W        W29684   1.476  13.747  12.353
66126W        W29685  26.999  41.959  14.763
66127W        W29686  42.893  18.109  12.875
66128W        W29687   4.936  19.697   0.379
66129W        W29688   2.439  35.890   5.317
66130W        W29689   1.815  23.032  12.902
66131W        W29690   6.403  28.086  11.520
66132W        W29691   3.777  28.572  13.354
66133W        W29692  32.919  30.089   1.373
66134W        W29693  18.662  21.221   2.323
66135W        W29694  21.230   1.766  13.995
66136W        W29695  29.542  13.754   3.156
66137W        W29696  34.574   8.173  11.004
66138W        W29697  38.879  24.133   2.870
66139W        W29698  19.256   9.786  12.550
66140W        W29699  25.186  35.404  11.489
66141W        W29700  17.078  17.277  11.978
66142W        W29701  20.631  42.422   3.717
66143W        W29702  13.698  39.822   1.879
66144W        W29703  20.645  29.105   1.220
66145W        W29704  39.987  43.923   1.252
66146W        W29705  21.732  36.090  13.494
66147W        W29706  40.416  15.295  13.840
66148W        W29707  23.685  36.361   3.823
66149W        W29708  32.002  26.702  10.439
66150W        W29709  36.019  27.000   4.212
66151W        W29710  14.696  41.005  13.471
66152W        W29711  12.359  40.859   1.790
66153W        W29712  35.406  12.629   0.829
66154W        W29713  36.945  10.191  11.991
66155W        W29714  43.417   5.238   1.697
66156W        W29715  23.182  15.613   1.225
66157W        W29716  42.397  37.523   2.804
66158W        W29717   5.807  41.945  10.504
66159W        W29718  29.669  23.043  10.493
66160W        W29719   1.801   4.432  13.056
66161W        W29720  38.886  12.706   2.701
66162W        W29721  17.647  35.854  13.909
66163W        W29722  43.308  39.482   4.266
66164W        W29723  42.311  10.381  10.416
66165W        W29724  16.088  31.402   3.664
66166W        W29725  44.471  21.638   0.465
66167W        W29726  40.381   0.787   0.801
66168W        W29727  42.977  18.744   2.696
66169W        W29728  40.050  35.864   4.802
66170W        W29729  26.037   9.216   0.363
66171W        W29730  11.678  24.633   2.791
66172W        W29731  35.893   8.847   4.652
66173W        W29732  22.719  23.125  10.897
66174W        W29733  15.256   8.743   3.736
66175W        W29734  21.533  20.220   4.786
66176W        W29735  42.024   6.408  13.028
66177W        W29736   5.400  25.503   1.796
66178W        W29737  37.885   9.367   3.341
66179W        W29738  30.941  12.783   3.365
66180W        W29739   4.445  34.388   2.331
66181W        W29740  21.636  33.129  14.779
66182W        W29741   4.841  37.564  11.077
66183W        W29742  37.037  36.415  12.971
66184W        W29743  23.994  26.041   1.738
66185W        W29744   8.683   0.354  14.856
66186W        W29745  18.130   3.409   3.290
66187W        W29746  41.934  13.176   2.874
66188W        W29747  16.794  42.417  12.005
66189W        W29748   3.435  16.578  13.015
66190W        W29749  26.042  31.626  12.535
66191W        W29750   6.237   1.483   3.730
66192W        W29751  36.951  28.022   3.708
66193W        W29752  11.797  25.148  11.991
66194W        W29753   2.907  25.976  11.575
66195W        W29754  27.181  35.599   4.123
66196W        W29755  36.384  27.123   1.331
66197W        W29756  43.368   8.747   1.241
66198W        W29757  25.158  28.152   4.235
66199W        W29758  26.560  32.058   4.684
66200W        W29759  29.486  22.105  12.842
66201W        W29760  37.054  15.710  13.462
66202W        W29761  19.778  38.413  11.906
66203W        W29762  43.281  39.420   4.780
66204W        W29763  33.548  26.462  13.365
66205W        W29764  11.785   3.383   5.148
66206W        W29765  16.746  27.941  13.481
66207W        W29766  21.145  28.573  12.080
66208W        W29767  33.905  11.701   3.357
66209W        W29768  33.058   8.851   1.824
66210W        W29769  42.499  44.939  13.312
66211W        W29770   2.230   2.443  13.035
66212W        W29771  37.963  29.621   4.807
66213W        W29772  33.057  40.833  11.414
66214W        W29773  18.641   0.954   3.714
66215W        W29774  40.880   7.901  12.420
66216W        W29775  38.011  10.248  13.005
66217W        W29776  32.625  27.101   4.125
66218W        W29777   2.765  36.911  12.493
66219W        W29778  33.603  23.552  12.352
66220W        W29779  13.337  20.678   5.090
66221W        W29780  14.133  38.925   2.696
66222W        W29781   5.735  19.044  11.596
66223W        W29782   1.272  22.672   4.610
66224W        W29783   5.830  34.481  13.311
66225W        W29784  32.046  35.078  11.895
66226W        W29785  28.966  20.728   1.243
66227W        W29786  16.181   3.339  11.874
66228W        W29787  31.097   1.878   1.257
66229W        W29788  31.926  21.046   4.765
66230W        W29789  23.639  29.424   9.500
66231W        W29790  38.899  40.820  10.578
66232W        W29791  19.595  22.076   3.706
66233W        W29792  12.273  11.722   1.740
66234W        W29793   4.857  15.191   0.816
66235W        W29794   8.850  33.952   4.216
66236W        W29795  41.343  18.090  14.414
66237W        W29796  35.578   9.878   2.193
66238W        W29797  23.660  25.115  11.012
66239W        W29798  34.029  44.483   2.285
66240W        W29799   0.277  34.584  11.530
66241W        W29800  28.165  24.154  10.442
66242W        W29801  43.900   2.373   1.730
66243W        W29802   6.782  13.273   4.728
66244W        W29803   2.801  14.168   1.818
66245W        W29804  35.899  22.707  14.878
66246W        W29805  41.939  10.291   1.303
66247W        W29806  26.479   8.695  11.496
66248W        W29807   2.768   8.893   0.855
66249W        W29808  37.487  32.953   3.870
66250W        W29809   9.365  14.662  14.951
66251W        W29810  16.160  31.528   1.239
66252W        W29811   4.914  24.140  11.375
66253W        W29812   9.816  38.075   0.941
66254W        W29813  43.914   7.830   1.339
66255W        W29814  10.785  25.507  12.546
66256W        W29815  37.069  21.757   1.847
66257W        W29816   2.425   7.232   1.892
66258W        W29817  11.137  43.351  14.499
66259W        W29818   3.861  22.611   4.341
66260W        W29819  21.079  33.541   3.838
66261W        W29820   9.210   5.365   1.753
66262W        W29821  16.114  16.226  12.543
66263W        W29822   4.700  14.733  10.505
66264W        W29823  18.570  42.294   0.744
66265W        W29824   6.790   6.370  12.041
66266W        W29825  34.455  27.193   4.262
66267W        W29826   8.347   4.912  14.803
66268W        W29827  33.560  40.486   4.808
66269W        W29828  23.211   7.841   3.689
66270W        W29829  43.843  39.341   1.233
66271W        W29830  40.984  41.444  13.474
66272W        W29831  12.715  13.315   0.895
66273W        W29832  41.812  41.370   1.220
66274W        W29833  15.612  37.925   3.234
66275W        W29834   9.363   1.451   4.828
66276W        W29835  22.555  35.445   4.144
66277W        W29836  15.118  37.982  13.320
66278W        W29837   3.410  21.583   2.293
66279W        W29838  42.497   1.919   3.676
66280W        W29839  24.192   6.303   5.239
66281W        W29840   3.368  34.409  14.423
66282W        W29841  29.970  35.548   2.872
66283W        W29842  35.095  42.957  10.132
66284W        W29843  21.133  21.122  13.460
66285W        W29844   4.327  26.060  11.601
66286W        W29845  24.681  21.069   1.450
66287W        W29846  14.590  27.466   3.291
66288W        W29847  43.995   3.904   0.261
66289W        W29848   8.160  31.510  10.504
66290W        W29849  27.567  40.052  14.434
66291W        W29850  17.738  28.052   3.207
66292W        W29851   2.264  32.575  11.900
66293W        W29852  15.114  17.221   3.381
66294W        W29853  29.512  24.980  11.877
66295W        W29854   4.724   3.747  11.083
66296W        W29855  16.089  27.138  10.955
66297W        W29856   8.306   1.380  12.006
66298W        W29857   5.828  15.642   4.143
66299W        W29858  24.010  24.657  12.048
66300W        W29859   7.219  42.500  11.484
66301W        W29860  37.357   3.889  13.456
66302W        W29861  22.027  34.927  13.396
66303W        W29862  15.591  40.348   5.170
66304W        W29863  43.933  42.895   0.313
66305W        W29864  40.404  34.947  14.871
66306W        W29865  38.515  12.337   4.814
66307W        W29866  37.015  20.096  12.411
66308W        W29867  26.460  10.780  14.416
66309W        W29868  39.427   5.840  12.889
66310W        W29869   3.323  18.621   0.431
66311W        W29870  17.788  34.939  11.371
66312W        W29871  21.715  33.915  10.422
66313W        W29872   9.229  16.651  12.050
66314W        W29873   5.415  12.824   4.690
66315W        W29874  40.484  18.280   3.677
66316W        W29875  37.456  19.114  13.404
66317W        W29876   3.815  37.888   1.417
66318W        W29877  19.715   1.331  11.879
66319W        W29878  28.646   9.202   3.798
66320W        W29879  12.247  28.457  11.084
66321W        W29880  41.001  19.245   0.410
66322W        W29881  41.308  10.173  12.901
66323W        W29882  36.544  25.520  12.986
66324W        W29883  40.311  12.696   2.359
66325W        W29884   3.439  35.480  10.595
66326W        W29885  23.036  21.175  12.362
66327W        W29886  12.181  16.130  12.385
66328W        W29887  25.527  44.913  14.964
66329W        W29888  44.909  35.549   4.724
66330W        W29889  21.150   7.229   4.266
66331W        W29890  11.644   9.241   0.362
66332W        W29891  18.228   4.230   4.734
66333W        W29892  28.067  22.700   0.764
66334W        W29893  41.311  35.594  11.095
66335W        W29894  23.013   8.363  12.944
66336W        W29895  29.041   7.248   0.362
66337W        W29896  44.809  35.455  14.946
66338W        W29897  21.543   1.419   0.249
66339W        W29898  14.613   2.871   3.867
66340W        W29899  38.881  28.465   3.718
66341W        W29900  13.620  13.775  12.578
66342W        W29901  13.247  21.750   2.374
66343W        W29902  17.645   2.304   0.862
66344W        W29903   3.413  42.908  11.857
66345W        W29904   0.456  15.274  10.643
66346W        W29905  10.841  31.128  12.354
66347W        W29906   9.264  33.625   4.777
66348W        W29907  25.963  44.380   4.834
66349W        W29908  36.589  33.392  13.897
66350W        W29909  13.802  12.333  14.511
66351W        W29910  22.558  39.366  13.990
66352W        W29911   5.892  23.080  14.482
66353W        W29912  44.007  28.020  13.944
66354W        W29913   9.695  20.546   2.782
66355W        W29914   4.313  22.228   1.697
66356W        W29915  42.920  35.040   2.774
66357W        W29916  10.199  24.197   4.317
66358W        W29917  38.477  26.034  13.326
66359W        W29918   7.274   7.384   4.317
66360W        W29919  30.500  10.213  12.077
66361W        W29920  10.312   3.945   2.194
66362W        W29921  10.342  42.481   0.900
66363W        W29922  43.782  35.925   2.190
66364W        W29923   0.984  37.934   3.752
66365W        W29924  21.662  33.502   2.822
66366W        W29925  37.087  11.734  12.511
66367W        W29926  27.104  10.181   3.629
66368W        W29927  32.079  21.203  10.990
66369W        W29928   4.260  27.102  13.053
66370W        W29929  38.880  23.620  11.019
66371W        W29930  14.302  26.569   2.387
66372W        W29931  30.617  40.893   0.773
66373W        W29932  31.939   2.844   0.877
66374W        W29933  29.092  10.756   0.446
66375W        W29934  24.984  12.237  12.037
66376W        W29935  17.113   7.232  13.801
66377W        W29936  25.697  33.404   0.864
66378W        W29937  37.542   1.834   0.248
66379W        W29938  14.687   6.894  11.407
66380W        W29939   2.338  44.303   1.765
66381W        W29940  16.630  32.465   4.307
66382W        W29941  16.598  23.635   1.285
66383W        W29942  37.942  19.188  13.024
66384W        W29943  31.575  39.826   2.804
66385W        W29944  28.961  13.175   0.300
66386W        W29945   3.733   4.747  11.487
66387W        W29946  31.996  34.429  11.885
66388W        W29947   1.455   7.313   0.421
66389W        W29948   8.373   8.182  11.972
66390W        W29949   3.921   0.257  11.972
66391W        W29950  33.423  43.775  11.442
66392W        W29951  32.139  15.589  13.501
66393W        W29952  27.583  21.089   9.925
66394W        W29953  28.140  20.242   1.411
66395W        W29954  25.644  21.516   0.943
66396W        W29955  17.755   5.359  13.413
66397W        W29956   3.423  21.155  12.443
66398W        W29957  22.580  29.029   4.673
66399W        W29958  21.711  28.991   4.241
66400W        W29959  14.820   7.211   3.342
66401W        W29960   0.339  28.185   2.198
66402W        W29961  44.405  41.000  12.059
66403W        W29962  20.750  42.894   0.808
66404W        W29963  44.975  13.691   0.370
66405W        W29964  14.826  37.010  14.994
66406W        W29965  13.775  29.485  11.435
66407W        W29966  40.971  26.033  13.432
66408W        W29967  30.422   1.822   3.666
66409W        W29968  11.134  22.076   2.364
66410W        W29969  13.606  27.482  13.377
66411W        W29970  33.896  42.470   2.392
66412W        W29971  16.790  37.027   2.306
66413W        W29972  43.413  37.897  12.491
66414W        W29973  42.402   1.447   4.345
66415W        W29974  23.142  16.217  12.969
66416W        W29975  31.582  28.617   4.302
66417W        W29976  11.252  18.168  13.369
66418W        W29977  38.562  42.469   0.959
66419W        W29978  39.386  41.962  13.511
66420W        W29979   0.969  15.631   0.335
66421W        W29980  19.159  39.010   2.375
66422W        W29981  37.885  30.026   3.349
66423W        W29982  40.926  16.667   0.940
66424W        W29983  22.066  28.530   4.321
66425W        W29984  38.927   8.300   3.684
66426W        W29985   5.808   3.249   3.727
66427W        W29986  24.104  15.196   1.865
66428W        W29987   2.307   7.242  11.454
66429W        W29988  26.628  35.575   1.859
66430W        W29989  31.554  39.418  10.471
66431W        W29990  35.391   6.339  12.073
66432W        W29991  12.142  10.650  11.070
66433W        W29992  27.532   0.805  13.397
66434W        W29993  16.229   8.675   0.932
66435W        W29994  34.515   7.897  13.986
66436W        W29995   4.867  34.933   0.307
66437W        W29996  34.510  23.187   0.363
66438W        W29997  36.951  26.479   2.385
66439W        W29998  42.305   8.842   1.859
66440W        W29999  39.825   2.293   4.729
66441W        W30000  44.945  30.434  13.802
66442W        W30001  22.601  44.949   1.264
66443W        W30002  11.282   7.703   1.239
66444W        W30003  12.816  25.981  14.352
66445W        W30004  25.115  28.032   2.270
66446W        W30005  42.028  24.024   4.783
66447W        W30006   4.890  31.464  11.597
66448W        W30007  11.366   5.398   2.269
66449W        W30008  26.497  24.025  13.920
66450W        W30009  34.885  33.987  11.596
66451W        W30010  29.083  26.191   1.916
66452W        W30011   4.348  11.655  12.515
66453W        W30012  20.599  38.992   1.429
66454W        W30013  44.493  31.613  14.804
66455W        W30014  20.202  13.789   3.229
66456W        W30015  27.051  38.915   1.782
66457W        W30016  17.771  22.633  12.385
66458W        W30017  10.155  13.675  13.545
66459W        W30018  23.580  28.634   0.416
66460W        W30019   4.340   7.906  12.480
66461W        W30020  16.219   0.386   0.273
66462W        W30021  25.986  27.618   0.786
66463W        W30022  17.716  28.487  13.342
66464W        W30023  43.462  14.250  13.059
66465W        W30024  33.477   5.252   2.866
66466W        W30025  13.680   4.239   3.306
66467W        W30026  26.513   5.253  10.502
66468W        W30027  39.342  15.257  11.986
66469W        W30028  12.611  33.441  13.313
66470W        W30029  16.087  38.923  14.014
66471W        W30030  16.736  32.490   1.446
66472W        W30031  31.095  41.336   4.680
66473W        W30032  39.998   1.477   0.392
66474W        W30033  30.068  10.276  12.984
66475W        W30034  18.565  26.205  12.038
66476W        W30035  34.601  27.451  10.995
66477W        W30036   5.915  35.465   0.912
66478W        W30037   3.400  19.233   1.428
66479W        W30038  28.519   4.428  13.016
66480W        W30039  41.414   9.744   3.317
66481W        W30040  20.245  19.642   0.447
66482W        W30041   1.937  19.045  13.416
66483W        W30042  11.704  12.281  14.970
66484W        W30043  14.760   2.737  12.994
66485W        W30044   1.869   6.818  12.464
66486W        W30045  22.639  44.488  12.055
66487W        W30046  19.251  43.890  14.973
66488W        W30047  43.348  20.765  14.371
66489W        W30048  18.179  35.025   2.827
66490W        W30049  32.424   3.416  12.572
66491W        W30050   1.483   1.465   3.793
66492W        W30051   0.831  14.609  12.902
66493W        W30052   6.315   6.333  11.379
66494W        W30053  32.507  38.396   1.298
66495W        W30054  21.112  34.939   0.272
66496W        W30055  16.687  27.578  11.528
66497W        W30056  43.278   3.255  12.922
66498W        W30057  26.043  19.059   1.356
66499W        W30058  40.421  30.955   1.362
66500W        W30059  30.538  28.110   4.625
66501W        W30060   8.674   6.722   4.653
66502W        W30061  10.223  12.767   3.744
66503W        W30062  31.968  43.989  13.370
66504W        W30063   9.886  35.486   0.256
66505W        W30064  37.403   6.774   4.271
66506W        W30065  16.099  15.149   0.872
66507W        W30066  10.851   4.405  11.961
66508W        W30067  27.597   2.322   1.899
66509W        W30068  28.148  24.553  12.975
66510W        W30069  32.395  40.910   1.240
66511W        W30070  30.426  13.169  10.942
66512W        W30071  24.662  13.278  12.545
66513W        W30072  37.394  44.887   0.422
66514W        W30073   5.869  36.515  13.381
66515W        W30074  38.343   1.816   0.379
66516W        W30075   2.290  15.191  14.760
66517W        W30076   6.887  30.108  13.451
66518W        W30077   1.456  27.080  12.353
66519W        W30078   6.341  24.519  14.334
66520W        W30079  37.361  19.537   1.769
66521W        W30080  10.800  35.864   2.197
66522W        W30081  18.075  14.606   0.352
66523W        W30082  35.890  18.240   1.273
66524W        W30083  44.375  42.786   4.115
66525W        W30084  39.446  33.886   4.663
66526W        W30085  24.065  33.446   4.169
66527W        W30086  39.412   1.332  11.574
66528W        W30087  34.391   4.910  13.959
66529W        W30088  22.152  13.165   1.783
66530W        W30089   3.455   5.371   3.722
66531W        W30090  44.973   3.718  12.473
66532W        W30091  42.960  42.391  11.069
66533W        W30092  42.416  11.237  13.913
66534W        W30093  17.224  20.584  10.635
66535W        W30094  17.196  39.814  13.827
66536W        W30095  27.556  11.792  14.005
66537W        W30096  37.055   6.679  14.498
66538W        W30097  11.326  36.976   3.856
66539W        W30098   3.237  24.067   0.888
66540W        W30099   9.200  10.691  11.564
66541W        W30100   7.732  17.598  14.453
66542W        W30101  34.584  35.373   3.823
66543W        W30102  19.236   0.941   0.346
66544W        W30103  14.822  28.085   3.211
66545W        W30104  28.607  29.427  12.901
66546W        W30105   9.827   7.719  13.326
66547W        W30106  13.663  44.477  14.394
66548W        W30107  39.921  21.591   3.643
66549W        W30108  42.976  41.873   0.262
66550W        W30109   6.336  24.516  13.010
66551W        W30110   1.968   1.273   1.909
66552W        W30111  36.953  27.496   4.609
66553W        W30112  28.677   5.327  12.971
66554W        W30113  36.564  28.589  13.512
66555W        W30114  23.986  38.001  13.504
66556W        W30115  40.852  20.689   1.371
66557W        W30116  42.967  41.918   3.762
66558W        W30117   2.808  20.261   0.836
66559W        W30118   5.384  21.063  10.965
66560W        W30119  35.886   4.414   2.202
66561W        W30120  10.171  41.944   0.917
66562W        W30121   8.352  36.407  13.395
66563W        W30122  20.664  42.028  13.509
66564W        W30123   1.938  24.047   2.774
66565W        W30124  16.811  38.487   3.654
66566W        W30125  39.483   6.234   3.275
66567W        W30126  28.639  29.959  12.539
66568W        W30127  28.649  26.698  12.045
66569W        W30128  34.520  25.086  11.448
66570W        W30129  34.118  10.814  14.927
66571W        W30130  41.001  31.546  14.506
66572W        W30131  26.487   1.959   4.655
66573W        W30132  34.074  42.783   4.183
66574W        W30133  12.832  31.482  12.525
66575W        W30134  21.552   9.821   3.171
66576W        W30135  31.624  35.397  14.436
66577W        W30136  20.548  17.230   0.887
66578W        W30137  33.018  44.270   4.354
66579W        W30138  36.509  38.559  12.364
66580W        W30139  28.139  35.603   2.286
66581W        W30140  40.031  17.670  11.603
66582W        W30141   6.690  26.954  12.866
66583W        W30142  31.537   3.835  10.593
66584W        W30143   4.241  10.278  13.397
66585W        W30144  21.173   2.887  11.033
66586W        W30145   9.209  30.520   4.133
66587W        W30146  37.088   7.356  13.385
66588W        W30147  23.734  23.694   9.939
66589W        W30148   6.269  34.552  11.916
66590W        W30149  12.135  27.070  10.950
66591W        W30150  39.003  31.151  14.381
66592W        W30151   6.748  38.971   4.691
66593W        W30152   7.341   2.907  10.995
66594W        W30153  15.241  11.865   3.183
66595W        W30154  30.053  25.648  10.921
66596W        W30155  37.877  25.610   3.150
66597W        W30156  43.962  15.298  13.951
66598W        W30157  23.105  21.233  10.580
66599W        W30158  29.567  32.584   3.366
66600W        W30159  41.389   5.722  13.958
66601W        W30160   2.228  43.944  11.517
66602W        W30161  11.804  25.660  14.978
66603W        W30162  32.569   6.793  13.930
66604W        W30163  34.891   4.794  13.926
66605W        W30164  19.147  19.753  13.435
66606W        W30165  14.124   8.733   2.341
66607W        W30166  34.403  28.968   1.346
66608W        W30167   7.739  30.472   2.412
66609W        W30168  12.843  33.406   2.714
66610W        W30169  10.735  28.961  11.582
66611W        W30170  20.544  29.443  13.857
66612W        W30171   1.947  41.963  14.360
66613W        W30172  42.488  44.310  13.472
66614W        W30173  20.667  34.955   4.820
66615W        W30174  32.634  11.185  12.887
66616W        W30175  40.898  44.837  13.312
66617W        W30176  34.001  34.594   0.774
66618W        W30177  28.508  20.718  10.428
66619W        W30178  37.852  10.284   4.726
66620W        W30179   8.837  23.670  10.499
66621W        W30180   8.316  19.766   2.262
66622W        W30181  20.631  33.973  12.823
66623W        W30182  24.492  32.934  10.642
66624W        W30183  41.983   4.379   4.652
66625W        W30184  24.094  21.716  13.051
66626W        W30185   2.254   7.742   4.213
66627W        W30186  10.333   9.349  11.060
66628W        W30187   4.755   6.264  10.916
66629W        W30188  16.689  11.262   2.675
66630W        W30189   3.219  15.224  11.048
66631W        W30190   8.355  43.799   3.212
66632W        W30191  41.870  15.157   1.749
66633W        W30192  18.755  28.066  12.423
66634W        W30193   1.904   8.220   2.684
66635W        W30194  44.359  36.881   0.480
66636W        W30195  12.340  12.355   0.423
66637W        W30196  34.050  18.132   0.263
66638W        W30197  17.307  22.150  12.495
66639W        W30198   2.410   9.869   4.243
66640W        W30199  33.046  12.847  12.480
66641W        W30200  27.604  19.617  14.470
66642W        W30201  41.956  28.648   0.308
66643W        W30202   6.773  23.708   1.367
66644W        W30203  26.988  17.178  13.910
66645W        W30204  16.586  30.965   2.364
66646W        W30205  24.185  16.164  14.924
66647W        W30206  33.397  11.211   2.671
66648W        W30207  31.112  38.000   0.337
66649W        W30208  11.793   4.331   2.892
66650W        W30209  20.693  26.572  10.924
66651W        W30210  19.541  42.929   4.811
66652W        W30211  14.815  42.353  13.820
66653W        W30212  38.047  38.506   0.882
66654W        W30213  38.917  10.308   1.824
66655W        W30214  41.306  42.955  11.963
66656W        W30215   1.878  34.117   0.351
66657W        W30216   8.670  38.030   1.822
66658W        W30217   9.221  10.663  10.435
66659W        W30218  41.487   9.791   1.332
66660W        W30219  22.137  19.070  11.953
66661W        W30220  23.091   4.222   3.366
66662W        W30221  25.100  35.900  11.100
66663W        W30222   5.730  33.924  14.348
66664W        W30223  28.064   8.295   0.410
66665W        W30224  44.280  35.987  13.814
66666W        W30225   8.389  36.956  10.608
66667W        W30226   4.364  38.976  10.965
66668W        W30227  24.712   8.874   5.128
66669W        W30228  19.736   5.275   0.737
66670W        W30229   5.738  28.118  12.001
66671W        W30230  14.139  34.480  14.348
66672W        W30231   3.814  24.586  13.416
66673W        W30232  29.472  14.247   3.748
66674W        W30233  40.860   7.737  13.417
66675W        W30234  16.238  37.457  10.576
66676W        W30235  35.403  24.588  11.933
66677W        W30236   5.762   3.348   5.092
66678W        W30237  17.179  25.053  13.825
66679W        W30238  43.454  15.660  10.579
66680W        W30239   4.931  10.194  10.626
66681W        W30240  44.466  43.937   4.257
66682W        W30241   8.789   0.362  12.512
66683W        W30242   6.313   8.678  14.878
66684W        W30243  40.455  43.393  11.871
66685W        W30244  13.228  12.134   2.272
66686W        W30245  37.385   1.974  11.536
66687W        W30246  18.767  33.025  12.878
66688W        W30247  11.361   1.936   2.328
66689W        W30248  43.308  36.928   2.380
66690W        W30249  10.826  42.014  11.510
66691W        W30250  41.478   5.430   2.355
66692W        W30251  20.041  41.921   0.751
66693W        W30252   4.410  41.837  13.331
66694W        W30253   5.698  20.262   2.247
66695W        W30254  19.536  37.065  12.045
66696W        W30255   4.871  15.640   4.689
66697W        W30256  26.082  31.482   0.794
66698W        W30257  30.940  21.755   1.392
66699W        W30258   6.421   4.740  13.904
66700W        W30259  30.504  34.974   2.278
66701W        W30260  35.067  25.631  14.463
66702W        W30261   5.726  34.506   3.697
66703W        W30262  37.996   8.184  12.028
66704W        W30263  34.013  13.716  14.941
66705W        W30264  26.127  34.427   2.777
66706W        W30265  19.110   2.950  13.986
66707W        W30266  13.331  18.605  12.909
66708W        W30267  44.933  30.434  14.989
66709W        W30268  16.691  35.888   3.719
66710W        W30269  42.359  31.546   2.728
66711W        W30270  44.291   9.252   4.759
66712W        W30271   5.692  17.732  12.342
66713W        W30272  12.186  32.935   2.714
66714W        W30273   8.880  24.618  14.386
66715W        W30274  44.889  28.438   0.298
66716W        W30275  25.058   6.348  13.326
66717W        W30276  14.794  42.822   3.158
66718W        W30277  12.813  35.506   2.745
66719W        W30278  30.636   8.160   0.793
66720W        W30279  34.370  15.120   3.639
66721W        W30280  20.198   4.907   0.443
66722W        W30281   0.476  22.131   3.759
66723W        W30282   8.396  12.268  14.984
66724W        W30283  18.081  11.676   4.617
66725W        W30284  14.730  33.075   1.332
66726W        W30285  25.063  20.134  12.829
66727W        W30286  32.070  19.240   0.448
66728W        W30287  41.882  26.696  11.972
66729W        W30288   1.298   7.261  14.962
66730W        W30289  11.150   4.742   3.694
66731W        W30290  11.834  30.061   4.160
66732W        W30291  10.821  18.260   3.773
66733W        W30292   9.276  41.503   0.377
66734W        W30293   9.361  12.758  13.318
66735W        W30294   3.901   4.264  14.892
66736W        W30295   4.913  37.031   3.835
66737W        W30296  36.457  26.518  12.978
66738W        W30297  31.970   3.825   4.644
66739W        W30298  29.620  37.027  11.966
66740W        W30299  15.598   6.838  11.888
66741W        W30300  28.664  43.381   4.634
66742W        W30301  10.239   2.857  12.531
66743W        W30302  12.214  31.492  13.918
66744W        W30303  27.458  17.680  14.766
66745W        W30304  22.566   1.962   3.294
66746W        W30305   4.935  25.560  14.912
66747W        W30306  30.075  35.494   0.765
66748W        W30307  13.146   1.740  10.611
66749W        W30308  39.934  41.370  11.601
66750W        W30309   7.709  31.909   2.728
66751W        W30310  26.195  23.084   3.162
66752W        W30311  20.095  22.038  12.016
66753W        W30312  30.424  26.682  13.513
66754W        W30313  11.699   7.844   1.730
66755W        W30314  22.135  43.391  14.973
66756W        W30315  14.122  14.730   4.665
66757W        W30316   1.957   8.759  14.785
66758W        W30317  31.517  41.003   4.301
66759W        W30318  14.626  31.032  13.995
66760W        W30319  42.801   4.373   2.380
66761W        W30320  33.961  22.032   3.340
66762W        W30321  13.150  25.673   1.769
66763W        W30322   2.409  13.241  14.954
66764W        W30323  38.042   9.732  10.632
66765W        W30324  34.007  25.711  12.070
66766W        W30325  14.607  28.943   0.254
66767W        W30326  22.177   4.372   1.877
66768W        W30327  21.093   3.880  13.023
66769W        W30328   4.246  41.383  12.401
66770W        W30329  37.956  35.022   2.241
66771W        W30330  22.237   2.820  14.296
66772W        W30331  12.623  35.873  13.944
66773W        W30332  44.798  29.558  11.910
66774W        W30333  20.599  39.843  10.528
66775W        W30334   3.328  10.212   2.802
66776W        W30335   3.757  30.119   2.353
66777W        W30336  43.346   3.769   3.254
66778W        W30337  29.529  41.335  10.477
66779W        W30338   7.217   2.748  13.986
66780W        W30339  31.450  37.547   3.630
66781W        W30340  37.437  14.280   2.388
66782W        W30341  18.170  17.280   2.736
66783W        W30342   1.468   2.268  12.961
66784W        W30343   1.336  25.045  10.963
66785W        W30344  31.537  29.541  13.885
66786W        W30345  43.360  29.461   1.274
66787W        W30346  38.355  26.998   4.252
66788W        W30347  22.105  44.348   4.747
66789W        W30348  19.715   2.291   2.340
66790W        W30349  12.185  26.995  12.533
66791W        W30350   7.765  35.462   3.317
66792W        W30351   1.924  31.921  11.887
66793W        W30352   7.672  12.206   3.819
66794W        W30353   0.371  17.727   0.962
66795W        W30354  10.637  28.956  13.955
66796W        W30355   6.285  43.820   0.945
66797W        W30356  39.905  35.863  12.576
66798W        W30357  28.174  31.001   0.246
66799W        W30358  40.309  31.485   2.216
66800W        W30359  17.095  40.010   0.376
66801W        W30360  22.666  17.154   1.727
66802W        W30361  10.655   1.320   1.700
66803W        W30362  14.237  10.233   1.281
66804W        W30363   2.234  24.028   3.305
66805W        W30364   9.216   7.177  10.475
66806W        W30365  14.595  24.658   1.925
66807W        W30366  41.983  38.485  14.387
66808W        W30367   3.361  28.031  11.108
66809W        W30368  26.128  25.099   4.287
66810W        W30369   1.370  32.015  11.104
66811W        W30370   6.812  15.116  12.004
66812W        W30371  33.950  29.153   0.758
66813W        W30372  15.250  41.937   4.597
66814W        W30373  11.316   4.221  12.413
66815W        W30374  27.125  30.992   2.234
66816W        W30375  24.146  39.482  14.880
66817W        W30376  12.635  21.736   1.245
66818W        W30377   6.738  13.334   4.346
66819W        W30378  44.002   9.875   3.689
66820W        W30379  25.609   9.874  14.012
66821W        W30380  30.929  14.260   4.249
66822W        W30381   0.975   0.923   0.456
66823W        W30382  19.216  24.549  12.934
66824W        W30383  30.139  20.238  11.984
66825W        W30384  40.356  38.839  14.029
66826W        W30385  18.262  13.725   4.633
66827W        W30386  28.521  28.102  14.824
66828W        W30387  14.654  20.648   3.847
66829W        W30388  36.096  32.529   0.785
66830W        W30389  27.517  10.138   4.260
66831W        W30390  19.112   7.209  10.920
66832W        W30391   3.904   7.869   3.863
66833W        W30392   9.327  32.012   4.803
66834W        W30393   4.791  26.059   4.609
66835W        W30394   1.290  10.796  11.475
66836W        W30395  24.659  35.868  12.433
66837W        W30396  23.697  34.476  14.828
66838W        W30397  38.331  35.567   4.661
66839W        W30398  29.165  34.947  11.456
66840W        W30399  33.591  13.789   2.262
66841W        W30400  22.578  43.009   4.644
66842W        W30401  27.594   2.847  12.562
66843W        W30402  42.788  38.017  10.529
66844W        W30403  32.413  25.532  13.044
66845W        W30404  30.576  12.713   1.440
66846W        W30405  11.154  44.902   4.336
66847W        W30406   8.338  31.429  14.418
66848W        W30407  30.012  11.333  11.867
66849W        W30408   7.874  24.139  11.956
66850W        W30409   0.922  10.748   1.770
66851W        W30410   9.182  20.153   1.737
66852W        W30411  28.486  17.238  12.488
66853W        W30412  32.634  37.085  11.409
66854W        W30413   3.265  40.424   2.900
66855W        W30414  16.746   7.400   1.248
66856W        W30415  19.141  40.383   4.718
66857W        W30416  42.887   2.230   3.773
66858W        W30417   8.835  25.523   5.321
66859W        W30418  12.174  42.874   3.258
66860W        W30419  36.493  37.500   4.299
66861W        W30420  16.682  23.211  11.419
66862W        W30421   7.765  26.051   0.966
66863W        W30422   9.756   5.715  14.963
66864W        W30423  20.583   7.911   1.313
66865W        W30424  34.473  26.546  11.515
66866W        W30425  38.873  31.083  12.914
66867W        W30426  36.031  31.595   2.184
66868W        W30427  15.716   6.223   4.333
66869W        W30428  29.074  35.059  10.953
66870W        W30429  36.945  34.000  13.819
66871W        W30430  34.052   9.199   1.833
66872W        W30431  32.618   3.847   4.125
66873W        W30432   8.675  28.448   2.214
66874W        W30433  34.424   6.892   5.234
66875W        W30434  12.799  44.309  10.999
66876W        W30435  19.656  31.037   5.195
66877W        W30436  44.881   7.194  10.625
66878W        W30437   8.390  35.544  14.828
66879W        W30438  44.892  14.754   1.230
66880W        W30439  20.656  42.509   0.905
66881W        W30440  12.747  32.097  12.009
66882W        W30441  33.481  25.512   2.315
66883W        W30442   3.753   1.351  10.974
66884W        W30443   6.286  37.885  14.981
66885W        W30444  41.456  21.048   5.289
66886W        W30445  28.083  32.593   3.829
66887W        W30446  36.073  18.174  13.434
66888W        W30447  24.658  40.467   3.842
66889W        W30448  43.908  39.932   0.330
66890W        W30449   8.398  41.873  14.990
66891W        W30450   4.857  35.039  11.531
66892W        W30451  28.450  21.263   0.863
66893W        W30452  34.040  39.811  10.573
66894W        W30453  39.933  17.200  12.873
66895W        W30454   7.260   0.900   1.416
66896W        W30455   5.717  30.574  11.033
66897W        W30456  12.743  28.019   0.261
66898W        W30457  40.979  19.059   0.763
66899W        W30458   3.342  24.528  13.057
66900W        W30459  10.352  21.218   3.250
66901W        W30460  13.332  37.859  11.465
66902W        W30461  29.527   4.723  11.524
66903W        W30462   5.847  32.056  14.414
66904W        W30463  12.281  44.785   0.755
66905W        W30464  23.093   0.965  11.966
66906W        W30465  16.671  20.124  13.484
66907W        W30466  24.030   8.796   0.915
66908W        W30467  40.037   1.950   2.213
66909W        W30468  20.585  24.533  10.538
66910W        W30469  34.046  28.441   1.741
66911W        W30470   0.759  19.615  14.291
66912W        W30471  13.790  38.007  11.388
66913W        W30472  11.304  26.158   3.276
66914W        W30473   4.401  15.197   4.618
66915W        W30474   9.881  43.890  13.018
66916W        W30475   7.879  21.166   0.866
66917W        W30476  15.088  10.202  10.585
66918W        W30477  34.070  19.551  13.364
66919W        W30478  18.208   3.226  12.845
66920W        W30479  43.789  37.340  12.889
66921W        W30480  28.471  16.679   2.789
66922W        W30481   2.809  33.499   4.141
66923W        W30482  12.831   6.390  13.834
66924W        W30483  22.539   2.779  12.013
66925W        W30484  19.065  32.115   2.287
66926W        W30485   0.764  29.976  12.020
66927W        W30486  35.097   9.367  10.949
66928W        W30487  25.150  39.467  11.908
66929W        W30488   5.348  23.631  14.356
66930W        W30489   9.160  29.443  13.793
66931W        W30490  24.611  25.139   0.243
66932W        W30491   4.267  16.226  13.909
66933W        W30492  30.105   0.932   2.782
66934W        W30493  33.608   0.838   0.364
66935W        W30494  43.441  39.363  12.506
66936W        W30495  15.628  14.230  13.816
66937W        W30496   2.889  18.072  14.495
66938W        W30497  40.546  32.911   3.677
66939W        W30498   6.791  11.853   1.820
66940W        W30499  18.654  17.175   5.190
66941W        W30500  30.970  20.713   2.288
66942W        W30501  12.703  10.840  14.912
66943W        W30502  27.974  25.135  11.461
66944W        W30503  28.528  38.060  11.375
66945W        W30504  40.949  22.249  11.578
66946W        W30505  41.978  16.654   4.217
66947W        W30506   9.365  30.143   3.375
66948W        W30507  20.726  38.936   0.285
66949W        W30508   7.677  11.797  11.411
66950W        W30509   8.899  14.311   1.890
66951W        W30510  12.832   5.868   0.907
66952W        W30511  38.051  21.679   4.780
66953W        W30512  42.503  26.589   1.237
66954W        W30513  36.355  25.167   5.286
66955W        W30514  27.576   4.248   4.693
66956W        W30515  31.564  37.876   9.667
66957W        W30516   6.834  12.122   2.726
66958W        W30517   2.467  42.441  10.616
66959W        W30518  28.097  20.219   0.860
66960W        W30519  32.624  18.093  13.376
66961W        W30520  42.967  12.805   3.792
66962W        W30521  38.984  30.082  13.809
66963W        W30522  20.531  35.487  11.049
66964W        W30523  38.918  28.634   1.742
66965W        W30524  17.644  26.481   2.697
66966W        W30525  32.507   1.733   3.664
66967W        W30526  23.207  41.501   1.824
66968W        W30527  26.169   1.254  11.448
66969W        W30528  12.620  16.311  10.448
66970W        W30529  21.165   5.214  10.571
66971W        W30530   3.461  27.086   1.797
66972W        W30531  35.457  38.034   0.460
66973W        W30532   4.235  20.162  14.876
66974W        W30533  12.356  43.863  11.982
66975W        W30534   2.344   3.346  12.824
66976W        W30535   1.807  34.605   1.215
66977W        W30536  24.546  18.254  11.060
66978W        W30537  38.465   4.380  11.517
66979W        W30538   7.874  34.517   3.686
66980W        W30539   5.370  11.212  14.487
66981W        W30540  17.123  17.788   2.214
66982W        W30541   5.796  24.014   2.683
66983W        W30542  31.512   9.697  13.326
66984W        W30543  42.478  39.825  13.507
66985W        W30544  37.887  43.772   4.674
66986W        W30545  31.004  16.779   4.252
66987W        W30546   3.444   7.896   2.310
66988W        W30547  28.628  39.507   3.304
66989W        W30548  33.952   2.318  13.795
66990W        W30549   6.870  13.256  11.406
66991W        W30550  32.598  31.139  13.904
66992W        W30551   8.705   2.775   1.816
66993W        W30552  40.528  15.798  13.808
66994W        W30553   9.158   6.680   2.786
66995W        W30554  36.990   7.220  14.379
66996W        W30555  29.668  40.548   2.358
66997W        W30556   8.757  36.347   4.339
66998W        W30557  28.003  16.306   3.867
66999W        W30558  30.028  28.550  13.991
67000W        W30559  37.449  14.780   0.321
67001W        W30560  33.528  36.477  12.035
67002W        W30561  15.159   2.949  14.939
67003W        W30562  10.681  14.657   3.743
67004W        W30563  38.381  43.998  12.398
67005W        W30564   8.675   9.336  14.310
67006W        W30565  12.148  30.495   1.715
67007W        W30566  12.633  19.141  14.762
67008W        W30567  37.441  14.677  12.573
67009W        W30568  42.423  44.764   1.355
67010W        W30569  27.575  24.129  10.975
67011W        W30570  11.724  34.375  12.018
67012W        W30571  28.131  24.553  13.954
67013W        W30572   9.166   0.955   3.377
67014W        W30573  23.597  10.349   4.153
67015W        W30574   4.885  22.644   1.762
67016W        W30575  17.771  40.919   2.678
67017W        W30576   9.690   7.763  11.408
67018W        W30577  22.013  25.968   4.656
67019W        W30578   9.264  25.087  10.575
67020W        W30579  42.343  40.471   0.348
67021W        W30580   4.944  13.332   2.411
67022W        W30581  11.800  25.564   3.690
67023W        W30582   5.341   2.428   4.239
67024W        W30583   0.801  39.007  10.041
67025W        W30584  33.920  35.385  13.432
67026W        W30585  38.031  39.365  14.014
67027W        W30586  28.930  19.779   3.649
67028W        W30587   6.881  21.709   3.376
67029W        W30588  43.967  16.155  12.888
67030W        W30589  19.173  36.587  13.378
67031W        W30590  38.851  26.537   0.257
67032W        W30591  44.010  34.089   2.780
67033W        W30592   2.932   0.782  12.064
67034W        W30593  29.646   6.196   1.437
67035W        W30594  14.803  42.335  14.983
67036W        W30595  23.626   8.877  13.354
67037W        W30596  25.089  19.258  11.900
67038W        W30597  41.966  16.117  11.492
67039W        W30598  18.698   6.200   1.869
67040W        W30599   1.307   8.663   2.342
67041W        W30600  15.760  16.577   2.341
67042W        W30601  16.732   3.306  13.833
67043W        W30602  40.405  23.084   2.248
67044W        W30603  33.918  39.351   2.801
67045W        W30604  12.215  10.831   2.849
67046W        W30605  14.726   3.867   2.248
67047W        W30606  42.938  31.403   4.242
67048W        W30607  22.669  38.945   2.320
67049W        W30608  41.439   8.895  11.474
67050W        W30609  14.608  44.270   4.282
67051W        W30610  36.073  14.657   4.824
67052W        W30611  44.836   9.882  12.342
67053W        W30612  35.407  22.679   2.268
67054W        W30613  17.787  34.083  13.034
67055W        W30614   2.227  11.252  11.028
67056W        W30615  31.092  19.576   3.256
67057W        W30616  41.954  41.795   2.414
67058W        W30617  22.601  21.135  14.425
67059W        W30618  24.141  36.958   0.329
67060W        W30619   5.691  32.923  14.494
67061W        W30620  12.853  13.130   2.777
67062W        W30621  17.785  27.000   4.790
67063W        W30622  38.881  12.690  14.907
67064W        W30623   6.312  35.547  14.832
67065W        W30624   5.896  24.172  13.861
67066W        W30625  43.413   7.408   1.843
67067W        W30626  40.048  16.158  14.759
67068W        W30627  24.533  42.368   0.389
67069W        W30628  15.655  33.515  14.359
67070W        W30629  29.661  41.820   3.158
67071W        W30630  38.981  14.214  11.978
67072W        W30631  16.736   1.261   4.340
67073W        W30632  34.406  40.039  12.937
67074W        W30633  40.313  23.699  11.887
67075W        W30634  31.568   4.331   2.699
67076W        W30635  41.442  28.096   5.161
67077W        W30636  30.424   1.261  14.930
67078W        W30637  29.580  26.687  11.573
67079W        W30638  29.463  25.006   1.735
67080W        W30639  33.609   1.825   0.920
67081W        W30640  24.071  20.151   2.285
67082W        W30641  13.611  24.039   4.251
67083W        W30642   2.312  14.798   3.759
67084W        W30643  30.580  24.597  13.919
67085W        W30644   1.249   3.281  10.482
67086W        W30645  32.041  32.885  14.834
67087W        W30646  10.318   4.437   2.780
67088W        W30647  22.247  29.046  14.999
67089W        W30648  12.831   9.833  11.032
67090W        W30649   1.468   4.844  11.977
67091W        W30650  41.297  27.690  12.474
67092W        W30651  15.580  22.619  11.879
67093W        W30652  20.220   0.924   4.204
67094W        W30653   5.823  30.978   2.397
67095W        W30654  30.142  20.197  13.064
67096W        W30655  34.468   2.316   2.780
67097W        W30656  28.479  24.021   3.145
67098W        W30657   7.350  25.014  13.312
67099W        W30658   0.835  24.569  10.603
67100W        W30659  35.504  23.523  14.450
67101W        W30660   2.459  22.130  11.382
67102W        W30661  21.228  13.162   0.459
67103W        W30662   1.936  40.392   0.885
67104W        W30663  22.008   4.773   4.225
67105W        W30664  20.266  43.969   0.459
67106W        W30665  42.394  41.811  12.005
67107W        W30666  35.908  26.561   1.918
67108W        W30667  16.245  37.381   2.366
67109W        W30668  42.979  41.855   4.214
67110W        W30669  12.645  13.282   3.840
67111W        W30670  15.740   4.353  13.527
67112W        W30671  43.450  38.938  13.852
67113W        W30672  12.678  41.906  12.983
67114W        W30673  24.049   5.204   0.305
67115W        W30674  43.368   0.799   1.297
67116W        W30675   2.466  18.679   0.400
67117W        W30676  36.368  44.304  12.074
67118W        W30677   9.847  28.945  13.820
67119W        W30678  12.255   6.182   2.233
67120W        W30679  37.894   8.720   4.711
67121W        W30680   8.248   9.199   0.465
67122W        W30681   2.464   5.845   1.393
67123W        W30682  19.584  29.510  12.479
67124W        W30683  41.007   3.428   1.867
67125W        W30684   3.274  26.977  14.880
67126W        W30685  28.027  26.672  14.857
67127W        W30686  20.715  31.487  12.502
67128W        W30687  43.348   8.364   1.438
67129W        W30688  28.143   2.420   3.716
67130W        W30689  27.506   0.876   3.759
67131W        W30690  38.997  43.500  12.525
67132W        W30691   0.343  36.515  14.459
67133W        W30692  13.144  13.329   2.891
67134W        W30693   0.309  33.583  14.510
67135W        W30694  40.917   2.768   4.813
67136W        W30695  34.962   4.809   2.364
67137W        W30696  20.197  34.473   2.375
67138W        W30697  17.254   6.861  12.864
67139W        W30698   4.229  33.555  13.319
67140W        W30699  40.444  32.428   4.769
67141W        W30700  18.545   5.383   1.268
67142W        W30701  29.168  23.696   3.708
67143W        W30702  44.910  42.303  13.822
67144W        W30703  24.176  35.360   4.690
67145W        W30704  28.526  10.263  11.573
67146W        W30705  42.848  29.616   2.293
67147W        W30706  16.667  44.320  14.414
67148W        W30707  31.942   4.401  14.806
67149W        W30708   7.286  40.464  14.366
67150W        W30709  27.027  38.437  10.505
67151W        W30710  21.209  13.827   3.810
67152W        W30711   0.846  31.009  10.101
67153W        W30712  19.266  29.050   4.749
67154W        W30713  38.837   7.270   0.273
67155W        W30714  15.749  30.516   3.204
67156W        W30715   7.837   9.777  11.122
67157W        W30716   0.339  31.598  10.416
67158W        W30717  31.481  41.406  11.953
67159W        W30718  12.749  13.191   4.600
67160W        W30719  12.616  18.065   0.856
67161W        W30720   8.815   1.347   0.749
67162W        W30721  40.330  12.677  13.839
67163W        W30722  14.269   5.266  14.471
67164W        W30723  19.683  16.106  12.939
67165W        W30724  14.096  35.031   3.742
67166W        W30725  43.311  18.731   3.673
67167W        W30726   2.403   0.484   4.692
67168W        W30727   1.973   5.711  11.896
67169W        W30728   0.916   5.828  12.347
67170W        W30729  27.688  39.878   4.151
67171W        W30730  23.155  31.591  14.023
67172W        W30731  32.578  36.359  13.003
67173W        W30732  25.073  19.681  10.934
67174W        W30733  11.268  22.105   0.924
67175W        W30734  12.354   4.232   0.745
67176W        W30735   1.935  40.461   1.228
67177W        W30736   0.874  23.490  10.517
67178W        W30737  14.706  15.168  13.523
67179W        W30738  13.711  12.712   0.324
67180W        W30739  42.525  14.187  11.022
67181W        W30740  37.014  12.291   4.227
67182W        W30741  13.201  28.516  12.966
67183W        W30742  33.489   6.425  14.434
67184W        W30743  22.042  37.472   1.707
67185W        W30744   5.872  40.308   1.243
67186W        W30745  37.467  39.855   1.309
67187W        W30746  27.984  18.169  14.787
67188W        W30747  10.800  25.986  12.009
67189W        W30748  30.557  23.067   0.783
67190W        W30749  41.044  21.193  13.523
67191W        W30750  13.162  15.152   1.253
67192W        W30751  23.094  37.953   3.676
67193W        W30752   3.405   9.764  13.854
67194W        W30753  40.446  20.259   4.671
67195W        W30754  21.604  12.751  11.513
67196W        W30755  12.192  33.537   2.207
67197W        W30756   0.848   6.803  13.368
67198W        W30757  41.011  19.647   2.886
67199W        W30758  27.961  18.580  11.957
67200W        W30759  44.280  18.579  11.473
67201W        W30760  13.285  25.568   2.784
67202W        W30761  16.265   9.683   4.749
67203W        W30762  44.822   4.924   3.689
67204W        W30763  42.024  14.338  14.291
67205W        W30764  34.051   9.828   4.234
67206W        W30765  44.481  11.650   2.205
67207W        W30766  21.704  39.529  11.033
67208W        W30767  29.657  29.618   9.961
67209W        W30768  16.245  28.062   0.461
67210W        W30769  21.122  11.680   1.694
67211W        W30770   9.287  19.672  12.850
67212W        W30771   0.408   1.830   1.860
67213W        W30772   4.739  26.952  12.511
67214W        W30773  39.876   7.339  10.469
67215W        W30774  16.688  29.439  12.968
67216W        W30775  32.580  20.130  13.888
67217W        W30776  34.098  24.207   2.668
67218W        W30777  36.552  23.664  11.402
67219W        W30778  16.680  24.032  13.956
67220W        W30779  10.221  26.159   4.300
67221W        W30780  19.657  21.024  12.445
67222W        W30781  38.954  13.224   0.480
67223W        W30782  30.972  37.361   3.868
67224W        W30783   1.420   5.818   3.285
67225W        W30784  44.397  42.921  12.551
67226W        W30785  25.627  42.865   0.332
67227W        W30786   4.743   5.916   4.269
67228W        W30787   2.898  15.631  13.800
67229W        W30788  25.668  29.451   0.339
67230W        W30789  38.023  39.439  12.383
67231W        W30790  21.114   3.850   3.742
67232W        W30791  31.075   9.227   2.795
67233W        W30792   6.843   9.305   1.791
67234W        W30793  18.249   8.258   1.887
67235W        W30794  16.091  18.630   2.690
67236W        W30795  40.517  25.656   1.325
67237W        W30796  28.532  17.189   0.282
67238W        W30797  39.555  36.065   3.277
67239W        W30798  29.565  14.186  13.018
67240W        W30799  22.172   4.708   2.762
67241W        W30800  34.556   0.785   4.685
67242W        W30801  28.958  10.247  14.882
67243W        W30802  19.244  36.947   3.312
67244W        W30803  38.380  10.172  14.400
67245W        W30804  31.504  11.805  11.997
67246W        W30805   3.738  26.501   0.905
67247W        W30806  15.317  26.664  12.968
67248W        W30807  24.139  42.860  14.415
67249W        W30808  13.215  35.977  11.550
67250W        W30809  24.722  44.821   4.183
67251W        W30810  32.890  11.714   3.755
67252W        W30811  17.723  16.655   3.182
67253W        W30812  20.547  38.485  14.852
67254W        W30813  24.694   2.284  13.972
67255W        W30814  34.453  29.063   4.247
67256W        W30815  25.713  18.245   2.872
67257W        W30816  44.318  43.308  10.037
67258W        W30817  12.756  30.525  12.959
67259W        W30818  12.731  16.614  14.514
67260W        W30819  13.693  25.697   0.755
67261W        W30820  44.976  40.925   3.788
67262W        W30821  15.231  35.973   3.837
67263W        W30822  12.855  39.929   4.690
67264W        W30823  35.400  34.905  14.887
67265W        W30824  25.071  43.920   0.933
67266W        W30825   5.427  26.502  12.580
67267W        W30826  28.999  18.637  10.916
67268W        W30827   0.446  44.956   0.856
67269W        W30828  22.701  17.613  10.573
67270W        W30829  44.303   7.889   3.703
67271W        W30830  20.061   1.977  13.042
67272W        W30831  28.589  18.695  14.449
67273W        W30832  36.513  34.509   2.780
67274W        W30833  40.995   9.691  11.464
67275W        W30834  44.370  22.685   2.673
67276W        W30835   3.914  37.379   3.148
67277W        W30836   7.238   5.881   3.795
67278W        W30837   8.878  40.492   4.351
67279W        W30838  31.987  12.682  14.024
67280W        W30839  10.805   2.366   4.604
67281W        W30840  32.440  18.608  11.067
67282W        W30841   3.268  26.599   1.287
67283W        W30842  44.763  43.920  14.417
67284W        W30843  36.498  44.398  13.401
67285W        W30844   0.490  37.511   4.622
67286W        W30845  39.356   1.755  13.494
67287W        W30846  21.671   8.294  11.588
67288W        W30847  44.373  30.445   4.697
67289W        W30848   4.288  14.175  11.592
67290W        W30849   4.715  18.220   4.721
67291W        W30850  26.611  14.618  13.487
67292W        W30851   6.298  40.485  14.891
67293W        W30852   4.778   2.448  11.984
67294W        W30853  42.449  14.687   1.226
67295W        W30854  27.964  20.660  14.949
67296W        W30855  26.171   3.451   0.778
67297W        W30856  28.072  11.756  11.501
67298W        W30857  40.880  18.055   1.299
67299W        W30858  42.399  22.061  12.913
67300W        W30859   7.748  29.607   1.277
67301W        W30860  36.390  28.103   4.202
67302W        W30861  14.773  35.971   0.325
67303W        W30862  12.813  43.356  10.422
67304W        W30863  30.064  16.294  12.955
67305W        W30864  20.224  42.827  12.861
67306W        W30865  14.324  32.979  14.972
67307W        W30866  30.161  10.160  11.465
67308W        W30867  31.096  36.014  13.942
67309W        W30868  44.482  28.590   2.368
67310W        W30869  10.250  30.588  13.520
67311W        W30870  32.406  32.550  14.319
67312W        W30871  40.932  32.080   0.959
67313W        W30872  36.908  13.725  14.962
67314W        W30873   8.289  36.562  10.931
67315W        W30874   1.275  44.923  10.475
67316W        W30875  27.459  16.282   3.349
67317W        W30876  26.610  34.436   1.842
67318W        W30877   3.716   9.249   3.181
67319W        W30878  24.065  22.107  10.528
67320W        W30879  28.629  16.629  11.506
67321W        W30880  34.427  43.961  11.948
67322W        W30881  18.566  39.839  13.358
67323W        W30882   0.966  44.427   3.320
67324W        W30883   7.243  28.999  14.285
67325W        W30884  24.193  28.530   2.279
67326W        W30885  43.273  41.383  12.958
67327W        W30886   8.716  31.570  14.004
67328W        W30887  28.436  35.428   4.281
67329W        W30888  25.113  13.113   0.789
67330W        W30889  27.152  36.065   3.840
67331W        W30890  43.509  23.620  11.920
67332W        W30891   1.467  20.622  10.956
67333W        W30892  14.761  16.673  14.480
67334W        W30893  26.496  27.621  14.950
67335W        W30894  21.223  28.128   9.466
67336W        W30895   3.339  11.708  14.776
67337W        W30896  44.463  29.497  14.377
67338W        W30897  16.165  37.910   2.768
67339W        W30898  33.028  39.547  13.496
67340W        W30899  28.040  15.674  11.514
67341W        W30900  28.645  43.410  10.571
67342W        W30901  34.888  27.504  14.963
67343W        W30902   9.647  41.035  12.519
67344W        W30903  25.016  12.732  10.015
67345W        W30904   8.184  39.402   2.242
67346W        W30905  40.023  16.584   0.875
67347W        W30906  32.490  31.969  13.951
67348W        W30907  11.792  26.113  14.852
67349W        W30908  14.100  33.967   0.956
67350W        W30909  35.058  36.075  14.303
67351W        W30910  44.943   8.692   0.404
67352W        W30911   4.432  12.347   1.891
67353W        W30912   6.787  28.578   1.906
67354W        W30913   6.330   8.326  12.478
67355W        W30914   7.786  35.002   0.736
67356W        W30915  35.894  28.952   1.788
67357W        W30916   9.246  27.518  13.457
67358W        W30917  40.434  29.016  10.041
67359W        W30918   3.439  36.920   2.769
67360W        W30919  17.124  27.081  12.509
67361W        W30920  33.500  31.136   2.404
67362W        W30921   5.731  23.171  10.429
67363W        W30922  37.843   3.401  11.421
67364W        W30923  35.549  23.110  12.423
67365W        W30924   2.898  26.177   4.720
67366W        W30925  44.447   7.284   1.374
67367W        W30926   3.816  32.473  11.997
67368W        W30927  25.061   6.207   0.769
67369W        W30928  22.721   5.415  10.159
67370W        W30929  42.523  22.073   2.387
67371W        W30930  29.919   3.752   1.700
67372W        W30931  14.195   2.289  13.795
67373W        W30932  19.721  39.872   4.266
67374W        W30933  43.823  43.407  11.898
67375W        W30934   5.722  24.685  13.420
67376W        W30935  33.520  23.104   0.879
67377W        W30936  21.656   8.887  14.786
67378W        W30937  34.552  40.509   4.287
67379W        W30938  16.146  36.958  13.395
67380W        W30939  44.442  42.898   1.752
67381W        W30940  20.768  32.131  10.475
67382W        W30941  31.912  32.541  12.998
67383W        W30942   6.822  41.472  11.487
67384W        W30943   6.870  17.157  14.951
67385W        W30944  30.032  21.087   1.445
67386W        W30945  29.128  15.095   4.237
67387W        W30946   5.263  38.054  11.969
67388W        W30947  13.271  30.947  11.481
67389W        W30948   9.692  29.446   2.815
67390W        W30949  10.759  18.124  11.993
67391W        W30950  28.013  23.172  13.889
67392W        W30951   4.760  16.802   4.306
67393W        W30952  18.103  13.682   0.883
67394W        W30953  16.184  41.905   0.325
67395W        W30954  44.462  43.837   0.856
67396W        W30955  36.847  24.132   0.319
67397W        W30956  39.395  27.184  10.902
67398W        W30957  16.669  41.790  14.458
67399W        W30958  11.313  43.796   4.624
67400W        W30959  18.630   6.767  13.041
67401W        W30960  23.227  21.538   2.894
67402W        W30961  15.629  37.567  14.867
67403W        W30962  43.325   1.913  14.285
67404W        W30963   3.945  33.385  12.040
67405W        W30964  39.539  21.049   4.221
67406W        W30965   1.477  26.087  14.927
67407W        W30966  35.422  30.475   3.687
67408W        W30967   8.367   8.900  14.875
67409W        W30968  20.067  28.176   3.793
67410W        W30969  19.260   3.842   4.824
67411W        W30970   6.391  30.103   2.755
67412W        W30971  44.949  41.950   2.719
67413W        W30972  17.244  37.052  13.013
67414W        W30973  40.431   7.681   0.748
67415W        W30974  40.968  10.808   1.221
67416W        W30975  31.959  39.422   0.266
67417W        W30976  33.417  13.180  11.083
67418W        W30977  43.402   8.201  11.016
67419W        W30978   1.976  19.721  14.413
67420W        W30979  29.423  21.751  11.945
67421W        W30980  18.569  27.561  14.937
67422W        W30981  38.516  33.001  13.499
67423W        W30982  18.788   8.735   4.690
67424W        W30983  27.059  25.134   1.794
67425W        W30984   2.800  42.338   1.284
67426W        W30985  39.904  35.583   1.874
67427W        W30986  37.064  39.877   3.387
67428W        W30987  19.044  11.259   0.951
67429W        W30988  44.485  14.199   3.724
67430W        W30989  17.078  16.281  13.002
67431W        W30990   0.250  16.308  11.039
67432W        W30991  16.319  28.996   0.261
67433W        W30992  18.545   4.737  11.382
67434W        W30993  21.035  27.631   1.251
67435W        W30994   3.443  32.433  13.866
67436W        W30995  32.051   6.828  14.345
67437W        W30996   3.914  36.073   2.380
67438W        W30997  29.925  40.861   0.739
67439W        W30998  21.624  36.439   0.321
67440W        W30999  19.777  31.052   0.792
67441W        W31000  18.627  20.585   2.759
67442W        W31001  17.614   8.192   3.730
67443W        W31002  19.595   7.220   2.240
67444W        W31003  37.362  24.589   4.744
67445W        W31004  29.151   4.394  13.850
67446W        W31005  44.469  21.666  10.542
67447W        W31006  27.151   7.218  12.548
67448W        W31007  34.613  10.814  10.128
67449W        W31008  19.717  12.722   1.289
67450W        W31009   8.193  23.022  14.411
67451W        W31010  42.367  22.133   2.876
67452W        W31011   4.792  20.751   0.899
67453W        W31012  19.095  43.378   0.444
67454W        W31013  23.548  34.951   0.409
67455W        W31014  16.162  14.638  12.550
67456W        W31015  38.419   7.788   3.757
67457W        W31016  27.101   7.404  13.410
67458W        W31017  27.973  33.905   4.663
67459W        W31018  38.064  13.735  13.991
67460W        W31019  27.981  39.520   0.825
67461W        W31020  27.065   6.787  11.128
67462W        W31021  29.121  22.029   2.179
67463W        W31022  10.713  19.130  10.909
67464W        W31023  32.627  22.207   1.218
67465W        W31024  10.308   7.275  12.391
67466W        W31025  11.708  31.550   0.393
67467W        W31026  28.466  39.400  14.423
67468W        W31027  39.982  39.489   1.382
67469W        W31028   1.324  38.933  13.041
67470W        W31029  35.932  18.212  12.546
67471W        W31030  42.984  35.887   4.344
67472W        W31031   1.300   4.367   1.397
67473W        W31032  12.628  34.082  11.394
67474W        W31033  13.260  35.972   2.691
67475W        W31034  44.856  13.290  12.574
67476W        W31035  11.223  43.769  14.459
67477W        W31036  28.650   5.695   3.303
67478W        W31037   0.886  35.992   5.154
67479W        W31038  20.127  32.464  13.411
67480W        W31039  36.927  42.347   0.739
67481W        W31040   1.789  41.321  11.969
67482W        W31041  26.702  36.592  11.482
67483W        W31042  22.704  22.612   0.338
67484W        W31043  40.445  43.953   4.257
67485W        W31044  28.522  44.870  11.553
67486W        W31045  15.630   3.761  10.636
67487W        W31046   9.164  13.158   2.850
67488W        W31047  14.271  25.670   1.887
67489W        W31048  39.006  14.609   4.296
67490W        W31049   6.835  33.452   0.390
67491W        W31050  41.811  28.154   2.827
67492W        W31051   5.808   5.786   1.348
67493W        W31052  41.403  35.442  14.830
67494W        W31053   4.299  30.161  10.582
67495W        W31054  28.598  29.603  11.569
67496W        W31055  33.947  26.584   4.693
67497W        W31056  27.469  32.408   3.734
67498W        W31057  42.382  16.231  14.897
67499W        W31058  40.821  30.655   2.855
67500W        W31059   2.393   9.349   0.914
67501W        W31060   6.842  20.746   2.413
67502W        W31061  26.062  30.583  12.842
67503W        W31062  39.815  36.456   2.206
67504W        W31063  37.381  43.337  13.925
67505W        W31064  38.950  40.307  12.522
67506W        W31065  37.981  32.466   3.706
67507W        W31066  38.527  36.405   5.124
67508W        W31067  27.593   0.293   3.756
67509W        W31068  27.997  21.544   5.798
67510W        W31069  36.557  36.986   2.696
67511W        W31070  22.216  19.179  11.585
67512W        W31071   3.940   7.295  13.308
67513W        W31072  22.647  15.706  10.432
67514W        W31073  35.900  16.685  10.445
67515W        W31074  25.060  37.472   4.777
67516W        W31075   1.311  10.147   4.317
67517W        W31076  23.501   1.845  13.523
67518W        W31077  28.471  43.359  12.989
67519W        W31078  13.628  32.458   2.273
67520W        W31079  27.663  25.089   1.249
67521W        W31080   7.367  33.534  13.370
67522W        W31081   1.893  18.622   2.248
67523W        W31082  15.254  37.878  10.614
67524W        W31083  12.129  25.637  10.433
67525W        W31084  31.602  30.022   2.265
67526W        W31085  16.795  19.638  12.016
67527W        W31086   9.674   2.764  10.898
67528W        W31087   4.390  20.572  13.317
67529W        W31088  30.106  31.604   3.855
67530W        W31089  12.670  25.478   2.237
67531W        W31090  38.047  43.796   3.669
67532W        W31091   1.317  12.158  12.951
67533W        W31092  43.478  20.111   3.836
67534W        W31093   9.151  40.483   2.784
67535W        W31094  44.502   7.795  14.775
67536W        W31095   7.310  39.888   2.887
67537W        W31096  31.985   3.849  14.773
67538W        W31097  22.206  43.953  14.366
67539W        W31098  30.931  31.099  11.544
67540W        W31099  17.082  29.959   2.739
67541W        W31100  10.708  34.390   0.261
67542W        W31101   6.304  37.556   4.800
67543W        W31102  13.681  24.182  12.564
67544W        W31103  35.975  14.282   0.404
67545W        W31104   7.238  14.274  11.469
67546W        W31105  33.108  31.403  11.395
67547W        W31106   8.167   1.755  11.583
67548W        W31107  30.052   6.291   2.307
67549W        W31108   6.760   1.911   1.440
67550W        W31109  32.967  40.366  11.449
67551W        W31110  26.017  28.616  13.825
67552W        W31111  19.208  13.145   4.287
67553W        W31112  43.335   3.356   4.747
67554W        W31113   4.804  34.612  14.501
67555W        W31114  23.111   4.805  13.815
67556W        W31115  30.998  42.879  12.039
67557W        W31116  11.736  17.203   2.798
67558W        W31117  34.903   9.295  11.475
67559W        W31118  19.269   3.733   1.395
67560W        W31119  13.803  21.606  10.135
67561W        W31120  31.930   8.861  13.511
67562W        W31121  36.582  35.422  13.362
67563W        W31122  14.261  19.608  14.469
67564W        W31123  12.248   6.339  13.416
67565W        W31124  29.660  43.477  11.920
67566W        W31125  35.088  44.264   2.363
67567W        W31126  34.369  17.582  13.799
67568W        W31127  32.915  18.618   2.274
67569W        W31128  44.826   6.298  10.097
67570W        W31129   4.901  30.524   1.718
67571W        W31130  10.687  14.198   1.839
67572W        W31131  10.203  36.911  14.306
67573W        W31132   1.787  23.569   3.366
67574W        W31133   6.183  13.247  13.354
67575W        W31134   1.275  20.539  12.933
67576W        W31135   4.817   2.721  10.489
67577W        W31136   1.787  43.989   0.934
67578W        W31137   8.274  31.474  11.051
67579W        W31138  11.732  20.701  13.794
67580W        W31139  16.797  12.182  13.338
67581W        W31140  33.058  44.418   3.234
67582W        W31141  39.351  44.478   3.265
67583W        W31142  37.981  19.573  12.898
67584W        W31143  19.084   4.277  13.540
67585W        W31144  36.392  37.859  14.429
67586W        W31145  20.741  28.443  11.880
67587W        W31146  15.737  22.745  12.495
67588W        W31147   4.370  10.176  10.901
67589W        W31148   3.880  39.315  14.898
67590W        W31149  17.730   2.848   4.149
67591W        W31150   9.371  10.857  14.003
67592W        W31151  18.743  39.339  11.526
67593W        W31152  13.610  14.697   0.732
67594W        W31153  26.141   8.351  10.956
67595W        W31154  32.001  10.281   2.792
67596W        W31155  40.534   3.343  13.394
67597W        W31156   5.838  36.571   3.734
67598W        W31157   8.287  12.714  11.964
67599W        W31158  14.295   9.336   1.380
67600W        W31159   0.896  29.957   3.263
67601W        W31160   7.234  41.792  13.839
67602W        W31161   5.216   5.237  10.637
67603W        W31162  33.516  33.876  11.863
67604W        W31163  20.620  22.747   0.954
67605W        W31164   6.827  22.047  10.959
67606W        W31165   2.424   9.723  10.423
67607W        W31166  20.051  36.529  14.927
67608W        W31167  21.228  23.156   1.451
67609W        W31168  44.925  35.873  14.892
67610W        W31169  23.568  16.664   4.308
67611W        W31170  33.448   0.847   4.695
67612W        W31171  15.263  29.168  11.433
67613W        W31172  23.724  44.261  10.461
67614W        W31173  24.564  27.976  12.423
67615W        W31174  38.923  42.973  13.846
67616W        W31175   7.228   5.876  11.936
67617W        W31176  43.478  35.013   2.744
67618W        W31177   8.654  32.971   4.125
67619W        W31178  36.552  15.783   4.254
67620W        W31179   4.736  26.662   0.318
67621W        W31180  26.955  14.168   4.335
67622W        W31181  28.013  14.811  11.531
67623W        W31182  22.037  31.646  10.897
67624W        W31183  39.967   1.368   4.667
67625W        W31184   6.199  15.267  14.419
67626W        W31185  43.947  17.684  10.624
67627W        W31186  11.373  25.662   0.271
67628W        W31187  22.064  35.982  13.472
67629W        W31188   5.355  27.585   2.893
67630W        W31189  44.482  29.111  10.557
67631W        W31190  37.028   3.843  14.851
67632W        W31191  37.991   1.792  14.487
67633W        W31192  20.219   3.864  14.831
67634W        W31193  14.319  31.600  12.512
67635W        W31194  29.118   7.204  11.114
67636W        W31195  15.755  27.041   2.734
67637W        W31196  25.042  15.259   1.776
67638W        W31197  41.374  17.128   3.294
67639W        W31198  11.775  14.265  10.158
67640W        W31199   0.750  17.742  12.536
67641W        W31200   3.911  39.370   4.679
67642W        W31201  18.257  28.106  13.794
67643W        W31202  31.908  32.016   0.821
67644W        W31203  44.946  26.073  12.445
67645W        W31204   7.747   6.241  12.031
67646W        W31205   7.291  21.206   4.673
67647W        W31206   6.237   6.780   0.416
67648W        W31207  14.770  26.590   5.644
67649W        W31208  43.333   1.311  12.431
67650W        W31209  41.912  31.923  14.418
67651W        W31210  29.067  33.045  11.382
67652W        W31211  30.105  15.798  12.513
67653W        W31212  38.553   9.736  12.953
67654W        W31213  34.938  29.049   1.222
67655W        W31214  16.687   0.370   3.174
67656W        W31215   2.813  28.071  13.414
67657W        W31216  20.251  15.186  14.960
67658W        W31217  29.535  34.532  11.599
67659W        W31218   5.827  20.636  12.864
67660W        W31219  28.071  26.563  10.461
67661W        W31220  25.148  44.446  13.048
67662W        W31221  14.605  10.219   2.729
67663W        W31222  20.180  11.712   2.220
67664W        W31223  38.405  23.597  13.885
67665W        W31224   3.885  13.174   0.802
67666W        W31225  33.417  10.789  12.020
67667W        W31226  28.947   2.835   2.205
67668W        W31227  31.912  15.734   5.232
67669W        W31228  12.739   8.396   2.246
67670W        W31229  20.185   5.287  11.027
67671W        W31230  15.654  18.082  14.438
67672W        W31231   8.800  25.012  12.949
67673W        W31232  18.732  23.106  13.970
67674W        W31233  18.224  41.026  12.886
67675W        W31234  12.731  23.045   2.372
67676W        W31235  40.975  38.408   0.861
67677W        W31236  23.080  13.342  14.473
67678W        W31237   3.345  13.291  10.955
67679W        W31238  17.204  44.293  14.295
67680W        W31239  37.026  38.528  14.336
67681W        W31240  26.056  32.099   2.181
67682W        W31241  33.557  22.078   3.366
67683W        W31242  36.577  31.514   2.229
67684W        W31243  33.009   7.275   2.824
67685W        W31244  36.529  15.326   2.295
67686W        W31245  38.342  39.884  11.083
67687W        W31246  13.131  25.699  14.820
67688W        W31247   6.754  12.230  12.020
67689W        W31248  42.332  39.982  12.001
67690W        W31249  19.179   4.815   4.177
67691W        W31250   3.717  39.460  10.484
67692W        W31251   5.917  22.051  11.090
67693W        W31252  35.995   9.789   2.717
67694W        W31253  22.171   6.365  12.351
67695W        W31254  31.050  25.517  11.003
67696W        W31255  23.109  32.461   4.119
67697W        W31256  34.390   1.460   4.766
67698W        W31257  40.438  11.253   4.130
67699W        W31258  21.176  23.221  14.839
67700W        W31259  42.478  37.394  14.894
67701W        W31260  25.612  33.100  11.958
67702W        W31261  37.892  41.973   4.150
67703W        W31262  37.003  39.433   3.844
67704W        W31263  25.581  13.141   2.245
67705W        W31264  24.586  32.997  11.399
67706W        W31265  34.513  33.123  13.340
67707W        W31266  30.094   5.319  10.946
67708W        W31267  38.564  22.160  11.447
67709W        W31268  37.996  29.997   0.902
67710W        W31269   0.788  21.131  14.348
67711W        W31270   1.452  39.982  13.493
67712W        W31271  24.027   4.892   2.879
67713W        W31272  10.371  13.125  11.056
67714W        W31273  21.561  35.888  12.919
67715W        W31274  26.507   3.340   3.343
67716W        W31275  17.079   5.375   0.732
67717W        W31276  28.988  36.006   3.182
67718W        W31277  33.997  10.664  12.519
67719W        W31278  20.720  17.085  11.541
67720W        W31279  40.534  11.673  10.079
67721W        W31280  23.099   8.696  12.892
67722W        W31281  17.249   0.393  14.284
67723W        W31282   5.365  32.464   0.760
67724W        W31283  31.422  21.061   2.761
67725W        W31284  40.923  28.663   2.390
67726W        W31285  42.361   4.297   0.382
67727W        W31286   8.268   7.204  12.999
67728W        W31287   0.302   5.898  14.418
67729W        W31288  12.249   0.935  12.992
67730W        W31289  34.498  26.189   4.130
67731W        W31290  15.667  32.467   0.835
67732W        W31291   8.746  32.456  14.333
67733W        W31292  12.826   4.868  11.916
67734W        W31293  39.385  21.733   0.894
67735W        W31294  11.363  40.961  14.906
67736W        W31295  39.434  10.346  11.405
67737W        W31296   7.182   0.922  12.499
67738W        W31297  34.967  43.383  12.824
67739W        W31298   3.285  34.884  13.468
67740W        W31299  30.458  31.056   3.228
67741W        W31300  22.677  11.852   0.876
67742W        W31301  32.948  10.748  14.365
67743W        W31302  30.486  19.631  13.496
67744W        W31303  16.749  19.604  10.966
67745W        W31304  29.087  32.504  12.355
67746W        W31305  26.998  29.995  12.095
67747W        W31306  12.184  33.506  10.961
67748W        W31307  17.083  19.633  12.043
67749W        W31308   3.344  21.063   5.288
67750W        W31309  10.693  30.003   4.210
67751W        W31310   9.842  13.645   0.335
67752W        W31311   3.444  15.182   4.771
67753W        W31312   3.384  15.750  10.629
67754W        W31313  38.445   7.854  13.981
67755W        W31314  26.192   3.766   3.640
67756W        W31315  32.605   0.920  12.397
67757W        W31316  34.924  36.913   1.281
67758W        W31317  36.898  25.614  14.819
67759W        W31318  27.072  32.986   4.113
67760W        W31319  42.925  34.881  11.595
67761W        W31320  38.005  12.330   0.832
67762W        W31321  13.630   2.764   3.234
67763W        W31322   0.951  24.040  11.088
67764W        W31323  18.566  24.582   4.219
67765W        W31324  28.150   7.836   4.769
67766W        W31325  28.440   1.470   2.334
67767W        W31326  35.454  23.121   3.711
67768W        W31327  19.627  40.048  11.545
67769W        W31328  10.329  15.589  12.441
67770W        W31329   5.690  37.888   4.298
67771W        W31330   8.746  29.550   2.385
67772W        W31331  35.535  39.843   4.263
67773W        W31332  42.912  29.491   4.305
67774W        W31333   5.760   3.952  10.957
67775W        W31334  13.811  22.707  13.441
67776W        W31335  14.123  30.649   3.233
67777W        W31336   2.870  22.054   2.197
67778W        W31337  41.365  30.436  12.427
67779W        W31338  37.413  25.968   0.755
67780W        W31339   1.911  28.175  12.025
67781W        W31340  37.945   3.268  11.032
67782W        W31341  19.717  27.463  14.316
67783W        W31342  27.022  39.936   4.124
67784W        W31343  10.785   8.861  14.004
67785W        W31344  26.609  18.563  14.338
67786W        W31345  35.364  28.555   3.361
67787W        W31346   8.206   1.349   1.801
67788W        W31347  11.752   5.720  12.413
67789W        W31348  35.445  30.945   0.941
67790W        W31349   1.938  29.155  13.538
67791W        W31350  33.522  15.233   4.714
67792W        W31351  42.285  10.349   3.659
67793W        W31352  34.014  23.601   2.319
67794W        W31353  37.577  39.319   4.232
67795W        W31354  36.069   9.656   3.286
67796W        W31355  21.250  12.686   2.273
67797W        W31356  17.606   5.772   0.304
67798W        W31357   7.409  35.974   1.761
67799W        W31358  29.035  42.884  12.046
67800W        W31359  28.466  19.102   2.358
67801W        W31360   2.834  42.929   4.784
67802W        W31361   8.686  11.624  10.543
67803W        W31362   9.343  24.209   2.807
67804W        W31363  30.058  40.441   0.379
67805W        W31364  13.158   8.373   3.868
67806W        W31365  32.038  34.970   1.279
67807W        W31366  38.928  26.627  11.577
67808W        W31367  24.689  24.981  13.495
67809W        W31368  19.132  20.028  10.415
67810W        W31369   5.802  24.087   0.418
67811W        W31370  37.366  34.374   0.469
67812W        W31371  40.456  35.587   4.198
67813W        W31372  29.063  17.709  12.426
67814W        W31373  26.029  24.524   0.883
67815W        W31374  26.475  29.082   2.679
67816W        W31375  12.762  32.489   4.627
67817W        W31376  22.161  34.067  10.504
67818W        W31377   1.273  19.060   0.867
67819W        W31378  28.946  31.484   2.669
67820W        W31379   0.279  39.975  11.491
67821W        W31380   7.184  25.509  12.943
67822W        W31381  18.768  44.478   4.177
67823W        W31382  35.545  31.043   3.805
67824W        W31383  42.367  36.555   3.772
67825W        W31384  39.009  23.707   3.689
67826W        W31385  41.855  32.515  14.763
67827W        W31386   7.672   1.871  10.475
67828W        W31387   6.684   2.399   4.268
67829W        W31388  41.361  24.540  11.087
67830W        W31389   3.327  22.630   2.699
67831W        W31390  37.514  30.054  11.975
67832W        W31391   7.799   0.296   0.393
67833W        W31392   9.290  38.823  11.995
67834W        W31393  44.818  24.212  12.431
67835W        W31394  13.281  12.835  11.380
67836W        W31395   1.732   2.463   3.255
67837W        W31396   0.425   5.893   3.835
67838W        W31397  36.409  16.658   1.907
67839W        W31398  22.177   4.307   0.746
67840W        W31399  25.501  37.476  13.802
67841W        W31400  38.907  26.562  10.149
67842W        W31401   9.198  36.366  10.630
67843W        W31402  23.088  10.785   3.792
67844W        W31403  32.561  26.582  13.955
67845W        W31404  25.160  22.180   1.389
67846W        W31405  13.293  20.127  11.020
67847W        W31406  39.017  24.644   3.165
67848W        W31407   8.658   2.257  14.772
67849W        W31408   1.374  11.678   3.346
67850W        W31409  22.697  26.693   3.629
67851W        W31410   9.197  35.464   1.839
67852W        W31411   1.927  34.999  12.892
67853W        W31412   4.365  25.986   0.908
67854W        W31413  32.548   0.954   1.922
67855W        W31414  15.316  44.902  14.327
67856W        W31415   7.785  17.777   3.380
67857W        W31416   2.466  22.534  14.912
67858W        W31417  39.858  20.207  10.999
67859W        W31418  11.162  34.595  10.404
67860W        W31419  28.173   8.405  10.547
67861W        W31420  21.615   4.388  13.014
67862W        W31421  39.386  27.976  13.310
67863W        W31422  33.128  22.559   4.717
67864W        W31423  22.045  38.475   2.710
67865W        W31424  31.461  28.932  11.981
67866W        W31425  44.799   3.813  10.424
67867W        W31426  17.071  18.234  13.024
67868W        W31427  38.038   2.876   0.384
67869W        W31428  13.328   7.380  13.410
67870W        W31429  16.290   0.766   3.695
67871W        W31430  17.606  19.711   1.409
67872W        W31431  43.970   2.801  12.917
67873W        W31432  19.754  16.803  14.326
67874W        W31433  34.925  39.552  10.956
67875W        W31434  40.838  18.566   2.278
67876W        W31435  24.611  28.676  13.059
67877W        W31436   9.330  16.234  12.539
67878W        W31437  40.018  42.332  13.340
67879W        W31438  44.778  25.659   0.430
67880W        W31439  11.186  36.371  10.926
67881W        W31440  40.306  18.728   4.228
67882W        W31441  15.765  21.082  14.974
67883W        W31442   2.315  23.690  13.982
67884W        W31443  43.428   3.328  11.994
67885W        W31444  27.610  38.343  14.904
67886W        W31445  41.999  35.961  13.930
67887W        W31446  29.059   9.371  14.932
67888W        W31447  16.116  42.434   4.134
67889W        W31448  27.632  40.011   0.435
67890W        W31449  30.924  29.925  11.439
67891W        W31450   2.865   5.206  10.898
67892W        W31451  16.709  16.133   4.336
67893W        W31452  40.924   8.719  13.539
67894W        W31453  40.398   5.697   2.820
67895W        W31454  35.408   9.393  13.821
67896W        W31455   7.390  18.155  14.925
67897W        W31456  28.050  43.790   3.266
67898W        W31457  38.540  22.216   3.292
67899W        W31458  34.553  31.595  14.980
67900W        W31459  31.115   4.849   1.834
67901W        W31460   3.266  27.979   2.894
67902W        W31461  33.905   5.710   1.355
67903W        W31462   7.266  42.877  13.407
67904W        W31463  15.646  17.639   2.319
67905W        W31464  14.770  18.717   3.258
67906W        W31465  32.032  26.660   1.801
67907W        W31466  13.214  12.669  14.960
67908W        W31467  39.003  14.685   0.379
67909W        W31468  40.492  37.566   3.268
67910W        W31469   0.783  36.946   1.253
67911W        W31470  20.580  39.539   2.829
67912W        W31471   0.283  41.800   0.793
67913W        W31472  21.652  38.995  12.565
67914W        W31473  19.069  30.462  13.828
67915W        W31474  24.569  16.625  11.530
67916W        W31475   0.265   2.347   2.851
67917W        W31476   5.821  30.614  13.796
67918W        W31477  23.559  34.441  12.471
67919W        W31478  24.607  19.719  12.975
67920W        W31479  31.091  33.574   2.667
67921W        W31480   9.362  35.963  13.371
67922W        W31481  15.190   6.909   4.147
67923W        W31482  44.426  15.777  11.937
67924W        W31483  34.103  20.626   2.370
67925W        W31484  43.910   1.887   0.257
67926W        W31485  21.124  31.422   4.830
67927W        W31486  20.685  13.281   4.705
67928W        W31487  17.178  42.364   1.823
67929W        W31488  40.473  43.419   2.765
67930W        W31489  24.191   7.375  12.521
67931W        W31490  32.628  41.403   3.710
67932W        W31491  27.608   6.310  10.956
67933W        W31492   7.351  32.555   1.347
67934W        W31493  36.957  11.312  12.544
67935W        W31494  28.657  36.922   3.787
67936W        W31495  26.119  13.677   4.644
67937W        W31496  23.109  15.721  11.023
67938W        W31497   3.811  25.604   2.385
67939W        W31498  30.082  27.536  12.499
67940W        W31499   8.856  40.865  10.413
67941W        W31500   2.427  26.578  12.017
67942W        W31501  44.302  36.088   5.249
67943W        W31502  19.714  31.921  12.038
67944W        W31503  12.673   0.317  14.902
67945W        W31504   4.352   7.276   1.754
67946W        W31505  16.218  14.649  13.363
67947W        W31506   4.880  11.845  14.359
67948W        W31507  14.270  25.161  14.895
67949W        W31508  14.292  29.169  13.828
67950W        W31509  30.139  32.042   0.878
67951W        W31510  23.561  20.261  14.413
67952W        W31511   2.232  35.985   3.659
67953W        W31512  13.697   1.308  14.420
67954W        W31513  40.419  20.686   4.151
67955W        W31514  12.662  19.046  11.117
67956W        W31515  25.071  31.424  13.407
67957W        W31516   4.440   1.255  13.063
67958W        W31517  36.432   8.184  11.514
67959W        W31518   5.298  38.911   1.286
67960W        W31519  36.476  41.844   5.320
67961W        W31520   8.326  24.156  10.431
67962W        W31521  37.355  17.620   2.799
67963W        W31522  23.525  32.626   2.885
67964W        W31523  29.609  39.021   1.390
67965W        W31524   7.791  15.724  11.010
67966W        W31525  28.624  41.344  12.536
67967W        W31526  30.563  17.077  14.308
67968W        W31527  13.344  43.771  13.932
67969W        W31528  24.084   2.919  13.828
67970W        W31529  28.010  22.143   4.237
67971W        W31530  23.690  40.529  12.033
67972W        W31531  33.010  36.028   3.152
67973W        W31532   7.311  33.938  12.476
67974W        W31533  34.039  41.365   4.817
67975W        W31534  29.966  24.072   4.314
67976W        W31535   4.762   7.717   3.262
67977W        W31536   6.822  38.987  11.479
67978W        W31537  12.210  30.045  11.959
67979W        W31538  37.851  34.962   0.954
67980W        W31539  42.862  28.026   4.622
67981W        W31540  43.802  19.226   0.960
67982W        W31541  21.650  11.858  10.421
67983W        W31542  25.637  28.054   1.815
67984W        W31543   5.805  28.505   2.221
67985W        W31544  17.098   5.851   3.862
67986W        W31545  44.416  19.669   3.244
67987W        W31546  36.435  11.632  11.398
67988W        W31547  26.047  10.664   3.837
67989W        W31548  13.124  25.713  13.343
67990W        W31549  36.949  34.389  11.500
67991W        W31550  38.338  38.519   4.744
67992W        W31551  13.173  43.344   4.316
67993W        W31552  28.126  10.318   3.688
67994W        W31553   0.959  19.663  13.414
67995W        W31554  13.138  41.879   2.832
67996W        W31555  15.281  12.666   0.785
67997W        W31556  24.523   2.858  12.362
67998W        W31557  38.368  38.058   2.769
67999W        W31558  39.921  36.901   4.604
68000W        W31559  36.471  24.019  13.502
68001W        W31560   6.842  24.593  14.374
68002W        W31561  29.148   7.685   2.352
68003W        W31562  32.511  10.223   1.235
68004W        W31563  31.044  29.146   3.651
68005W        W31564   4.416  40.493  11.093
68006W        W31565  19.609  33.513  11.900
68007W        W31566   6.393  25.685   1.816
68008W        W31567  33.888   8.845   1.394
68009W        W31568  44.311  24.639  14.863
68010W        W31569   9.736   6.189  14.277
68011W        W31570  26.088  31.147   1.366
68012W        W31571   3.279  17.598  13.892
68013W        W31572  18.234  22.038  10.984
68014W        W31573  26.008  40.013   3.209
68015W        W31574  31.586   5.898   1.767
68016W        W31575  20.690  18.145   3.307
68017W        W31576   5.873  40.981   4.247
68018W        W31577  25.103  21.692   2.326
68019W        W31578  29.434  11.320  13.337
68020W        W31579  25.555  41.871   4.644
68021W        W31580  16.769  34.001   3.661
68022W        W31581  30.945  15.127  14.000
68023W        W31582  38.876  34.885  10.495
68024W        W31583   8.819  20.200   0.764
68025W        W31584   9.681   1.937   2.680
68026W        W31585   6.740  39.023   2.883
68027W        W31586   7.417  31.470   2.715
68028W        W31587   9.379   5.844   3.823
68029W        W31588  17.728  10.743   4.243
68030W        W31589  17.670  41.786   2.710
68031W        W31590  37.074  36.431  13.487
68032W        W31591   0.827   8.897   0.835
68033W        W31592  22.234  23.534   1.274
68034W        W31593  32.980  34.462  10.556
68035W        W31594  24.632  39.005   4.786
68036W        W31595  22.031   6.756  12.856
68037W        W31596  20.252  22.038  14.345
68038W        W31597  35.027  16.615  13.063
68039W        W31598  29.167  41.379   0.787
68040W        W31599  12.740  22.027   3.634
68041W        W31600  37.852   3.828   0.852
68042W        W31601  25.163  24.603  10.913
68043W        W31602   7.771  27.955  13.319
68044W        W31603   6.863  43.935  12.567
68045W        W31604   1.767  22.229  12.358
68046W        W31605  28.183   1.952  11.020
68047W        W31606  14.315  24.483  11.486
68048W        W31607  43.296   4.707  10.061
68049W        W31608  22.745  19.227  11.436
68050W        W31609  26.592  18.261  13.915
68051W        W31610  40.035   4.847   4.328
68052W        W31611  25.173  40.844   4.117
68053W        W31612  37.897  39.041  14.970
68054W        W31613   3.889  10.256  10.563
68055W        W31614   6.184   4.705   4.788
68056W        W31615   5.348  24.539   1.337
68057W        W31616   4.741  23.092  11.045
68058W        W31617  40.480  41.869  12.476
68059W        W31618  26.608  29.626   2.712
68060W        W31619  11.288  19.702   2.803
68061W        W31620  33.416   3.239  14.979
68062W        W31621  29.498  32.443  13.480
68063W        W31622  10.184  14.651  14.410
68064W        W31623  19.268  36.560   1.715
68065W        W31624  19.084   5.302  12.828
68066W        W31625  40.433  43.818  13.903
68067W        W31626  38.469   0.329  13.478
68068W        W31627  12.332  10.765  12.492
68069W        W31628  14.331  15.129   1.228
68070W        W31629  32.520  40.447   0.727
68071W        W31630  24.984  12.719  10.432
68072W        W31631   2.414  28.454  12.824
68073W        W31632   1.893   7.848   4.224
68074W        W31633  31.039   0.387   0.768
68075W        W31634  21.034  44.499   4.598
68076W        W31635  42.293  32.905  10.532
68077W        W31636   5.899  26.022   0.731
68078W        W31637   2.451  32.606  12.446
68079W        W31638  17.168  41.903  14.316
68080W        W31639  32.420  37.991  14.477
68081W        W31640  37.480   0.387  12.926
68082W        W31641  33.055   7.815   0.395
68083W        W31642   7.370  27.956   1.432
68084W        W31643  38.981  40.878  13.813
68085W        W31644  44.898   4.341   2.401
68086W        W31645  18.690   9.843  14.391
68087W        W31646   7.320   8.879   5.248
68088W        W31647  20.768  40.034  12.843
68089W        W31648  27.035  36.584   3.744
68090W        W31649   3.276  44.792  11.450
68091W        W31650  27.469  41.493   1.826
68092W        W31651  35.853  28.146  14.984
68093W        W31652   4.777  29.156   3.708
68094W        W31653  21.190  32.525   2.254
68095W        W31654  19.107  35.860   4.686
68096W        W31655  15.114  27.151   1.736
68097W        W31656   4.405   6.847   1.359
68098W        W31657  43.959   2.464   3.786
68099W        W31658  22.105  24.156  13.899
68100W        W31659  37.039  10.254  10.933
68101W        W31660  38.386   1.828   4.717
68102W        W31661   8.361  21.555   3.314
68103W        W31662   9.682  24.549   0.937
68104W        W31663   6.891  24.496   1.318
68105W        W31664  33.461  44.895   2.890
68106W        W31665  27.997   5.211   4.704
68107W        W31666  25.098  34.521   3.217
68108W        W31667  32.521  42.818   3.267
68109W        W31668  35.031  37.053  13.937
68110W        W31669  25.146  28.047   2.700
68111W        W31670  19.121  31.425  12.409
68112W        W31671   9.350  12.307   0.964
68113W        W31672  16.168  41.013  11.872
68114W        W31673  20.099  33.933   1.358
68115W        W31674   3.340  29.101  14.832
68116W        W31675  43.389  35.894   5.228
68117W        W31676  15.256  34.394  11.007
68118W        W31677  35.404   1.839  14.395
68119W        W31678   4.851  36.099  13.534
68120W        W31679  11.315   0.345   2.675
68121W        W31680  43.389  12.660   4.219
68122W        W31681  11.334  13.647   2.754
68123W        W31682  42.927   5.796  12.567
68124W        W31683  35.461  25.642   0.745
68125W        W31684  36.373   2.963  11.105
68126W        W31685  27.483  40.918   0.307
68127W        W31686  25.983  12.717   2.261
68128W        W31687  20.562   2.388  11.103
68129W        W31688   4.931  16.190  12.048
68130W        W31689  43.354  24.182  14.916
68131W        W31690  27.593  21.670   3.251
68132W        W31691  29.519   6.341   0.911
68133W        W31692   7.753   8.336   1.286
68134W        W31693  34.471  31.115  13.426
68135W        W31694  23.517  22.720  14.761
68136W        W31695  10.808  11.319   1.720
68137W        W31696   5.862  44.487   2.282
68138W        W31697  37.451  28.122   3.311
68139W        W31698  21.698  12.188  12.955
68140W        W31699  16.611  40.871   1.839
68141W        W31700  13.707  41.382   1.359
68142W        W31701  18.657   3.431  12.929
68143W        W31702  16.713   9.198   0.323
68144W        W31703  21.168  27.500   4.837
68145W        W31704  19.662  28.057   0.374
68146W        W31705  43.457  27.126   2.735
68147W        W31706  27.610  12.631  10.054
68148W        W31707  17.637  10.373  11.468
68149W        W31708  11.832   9.648   1.428
68150W        W31709  40.362  13.814   2.245
68151W        W31710  14.689  24.635   1.305
68152W        W31711  44.499  24.512  12.570
68153W        W31712   3.762  44.356  13.915
68154W        W31713  32.994  34.099   4.165
68155W        W31714   7.818  14.747  11.412
68156W        W31715  10.644  37.990  13.950
68157W        W31716   4.836  32.574  14.431
68158W        W31717  33.946  28.615   4.661
68159W        W31718  15.821   8.893  13.409
68160W        W31719  38.477  11.302  11.887
68161W        W31720  33.431  36.955   3.711
68162W        W31721  34.886  13.749  14.760
68163W        W31722   6.892  23.988  11.515
68164W        W31723   7.224  38.350  11.067
68165W        W31724   2.241   5.366  13.813
68166W        W31725  13.179  11.249   3.256
68167W        W31726  19.061  33.050   3.856
68168W        W31727  44.783  31.122   0.859
68169W        W31728   4.875   9.200   2.725
68170W        W31729  40.876  27.062   2.252
68171W        W31730  15.276  22.562   0.841
68172W        W31731  16.209  36.063   4.140
68173W        W31732   0.485  23.513   2.410
68174W        W31733  21.667  19.551   1.895
68175W        W31734   1.307  13.729  14.910
68176W        W31735  11.691  21.050   1.409
68177W        W31736  22.130  13.321  13.874
68178W        W31737  28.639  13.678   2.844
68179W        W31738  22.710  35.009  14.985
68180W        W31739  42.431  38.961  11.066
68181W        W31740  40.034   4.238   2.788
68182W        W31741  44.006  31.504   4.132
68183W        W31742   0.917  16.188  13.545
68184W        W31743  19.171   9.154  10.507
68185W        W31744  38.006  37.968   1.908
68186W        W31745   6.791  25.485  13.343
68187W        W31746  36.411  21.567  11.960
68188W        W31747  13.728  34.889   2.871
68189W        W31748  41.333  29.573  11.090
68190W        W31749   3.229  12.712   2.697
68191W        W31750  22.650  31.113   1.800
68192W        W31751  23.733  12.117   3.690
68193W        W31752  42.312  31.642  10.905
68194W        W31753  19.199   1.423  14.975
68195W        W31754  34.935  17.626   4.195
68196W        W31755  28.538  22.582  14.790
68197W        W31756   3.403  34.093   3.313
68198W        W31757  22.567  15.801  12.422
68199W        W31758   9.344   4.716   5.283
68200W        W31759  10.769  24.007  10.429
68201W        W31760  31.601  36.565   3.698
68202W        W31761   3.245   8.851  14.905
68203W        W31762  24.570  30.105   0.943
68204W        W31763  41.322   7.238  11.896
68205W        W31764  31.064  39.976   1.922
68206W        W31765  23.514   3.361   2.290
68207W        W31766  26.486   1.267   4.221
68208W        W31767   0.459   1.416  12.866
68209W        W31768  33.616  42.335  14.911
68210W        W31769  19.592  26.668   4.646
68211W        W31770  16.081  30.153   2.851
68212W        W31771   7.679  37.069  13.800
68213W        W31772  32.119  24.079  10.641
68214W        W31773   6.202  13.196   4.677
68215W        W31774   5.837  37.523   2.830
68216W        W31775  34.091  21.071  14.836
68217W        W31776  27.663  37.482   1.447
68218W        W31777  41.360  39.348   0.306
68219W        W31778  36.859  41.523   1.381
68220W        W31779   1.846  36.388   1.336
68221W        W31780  38.442  43.804  13.817
68222W        W31781  20.619  22.197   0.355
68223W        W31782  34.606  17.656   2.276
68224W        W31783  29.034   0.476  14.438
68225W        W31784  17.220  19.537  12.882
68226W        W31785   1.354  36.421   1.894
68227W        W31786  14.117  41.336  14.321
68228W        W31787  22.123  12.851  10.007
68229W        W31788  18.605  30.108  11.937
68230W        W31789  16.118  19.209  13.906
68231W        W31790  17.668  16.683   1.801
68232W        W31791  31.023  41.491   0.920
68233W        W31792  42.840  18.633   1.831
68234W        W31793  20.673  21.134  13.324
68235W        W31794  13.255   3.895  11.115
68236W        W31795  38.991  25.018   1.921
68237W        W31796  20.616   0.895  12.522
68238W        W31797   0.380  34.992   2.834
68239W        W31798  21.044  42.486  12.854
68240W        W31799  32.039  18.715  13.472
68241W        W31800   7.782  36.493   1.449
68242W        W31801   2.381   2.397   0.324
68243W        W31802  30.461  31.020   0.410
68244W        W31803  10.861  24.671   1.877
68245W        W31804  26.195  37.984   2.418
68246W        W31805  17.640  41.528   2.203
68247W        W31806  31.141  30.154  10.892
68248W        W31807  17.657  44.269   0.841
68249W        W31808  31.079  21.070   0.295
68250W        W31809  13.328  28.651  10.565
68251W        W31810   3.417  20.760   0.896
68252W        W31811  36.881   7.669   0.937
68253W        W31812  22.633  39.525   1.833
68254W        W31813  38.544  42.464   4.610
68255W        W31814  38.523   5.810  10.985
68256W        W31815  31.994   5.746  10.586
68257W        W31816  22.029  20.030   0.767
68258W        W31817  12.667  11.168   2.876
68259W        W31818   6.263  30.079   0.273
68260W        W31819  24.085   7.409  13.806
68261W        W31820  17.137   1.307   0.262
68262W        W31821  38.532  42.977   4.254
68263W        W31822  35.551  30.062  13.984
68264W        W31823  10.704  19.197  12.028
68265W        W31824  16.696  39.509   4.259
68266W        W31825  27.645  20.597   4.245
68267W        W31826  16.775  43.502  10.453
68268W        W31827  13.765   0.956   2.378
68269W        W31828  26.019  40.392   2.333
68270W        W31829   0.468  33.963  14.479
68271W        W31830  28.108   1.416   1.901
68272W        W31831  10.695  33.959  11.603
68273W        W31832  36.558  33.029   4.342
68274W        W31833  41.978  14.131  13.390
68275W        W31834  20.133   3.301  10.055
68276W        W31835  15.798  36.081   0.929
68277W        W31836  30.508   0.397  13.404
68278W        W31837   0.877   4.743   0.311
68279W        W31838  21.074   9.744   4.775
68280W        W31839  19.653  15.668  14.450
68281W        W31840  16.097  37.053   3.809
68282W        W31841  13.775   6.228   2.710
68283W        W31842   4.426  13.785  11.469
68284W        W31843  22.501   7.874   2.692
68285W        W31844  16.161  15.803  12.056
68286W        W31845  29.576   3.377   3.351
68287W        W31846  11.274   5.713   2.893
68288W        W31847  28.935  16.259  14.281
68289W        W31848  28.146   3.415  11.520
68290W        W31849  35.982  13.115  10.583
68291W        W31850  30.428   8.236   3.218
68292W        W31851   7.391  44.382  13.360
68293W        W31852  26.036   2.238  12.545
68294W        W31853  29.019  17.796   0.759
68295W        W31854  18.149  15.628  11.519
68296W        W31855  16.657  42.350  12.920
68297W        W31856  44.847  10.734  11.067
68298W        W31857  22.675  44.297  14.944
68299W        W31858  44.415  32.903  11.126
68300W        W31859  35.561   7.878   0.379
68301W        W31860  31.118  37.843   9.442
68302W        W31861   5.690  23.638  10.608
68303W        W31862   1.904  23.082  12.423
68304W        W31863  37.922  29.041   2.793
68305W        W31864  41.861  11.352  10.608
68306W        W31865  20.249  15.588   1.720
68307W        W31866  15.232   9.290   1.377
68308W        W31867  43.405  36.416  14.507
68309W        W31868  43.394   5.793  14.417
68310W        W31869  22.194  18.060   3.680
68311W        W31870  30.478   5.319   4.309
68312W        W31871   8.830  42.826  13.033
68313W        W31872   9.676  39.352   0.269
68314W        W31873   4.279  28.638  12.579
68315W        W31874   6.230  32.110  14.909
68316W        W31875   0.427  23.154   3.335
68317W        W31876  25.659   2.912   1.880
68318W        W31877  13.794  25.673   4.655
68319W        W31878   7.405  12.155  10.907
68320W        W31879   1.773  32.554   2.794
68321W        W31880  44.436  11.271  14.787
68322W        W31881  11.715  20.703   1.895
68323W        W31882  28.477  22.024   1.227
68324W        W31883  33.977  20.552  12.872
68325W        W31884  29.146   6.847   3.652
68326W        W31885   0.781   4.255  10.620
68327W        W31886   2.813  35.388   0.831
68328W        W31887   5.843  17.565  14.449
68329W        W31888  40.958   2.241  10.525
68330W        W31889  35.861  16.796  10.950
68331W        W31890  28.149   6.409  12.031
68332W        W31891  35.569  37.337   2.368
68333W        W31892  41.510   9.366   1.838
68334W        W31893  15.112   7.725   3.656
68335W        W31894  40.833  40.422  11.556
68336W        W31895  40.546  30.586  13.025
68337W        W31896  27.102  16.631   0.872
68338W        W31897  27.564  18.718   2.331
68339W        W31898  23.676   2.750  11.464
68340W        W31899  37.451  34.928   4.120
68341W        W31900  38.429   7.766   0.893
68342W        W31901  24.101  13.252  14.344
68343W        W31902  27.566  28.564  11.606
68344W        W31903  40.038  34.964  14.460
68345W        W31904  30.614  31.405  13.928
68346W        W31905   7.737  28.958  13.360
68347W        W31906  39.476  29.541  10.044
68348W        W31907  19.169  12.683  10.429
68349W        W31908  14.146   9.241  11.038
68350W        W31909  25.508  41.378  14.291
68351W        W31910  27.479   4.717   0.307
68352W        W31911  35.881  37.397  12.875
68353W        W31912  13.671  11.827  11.594
68354W        W31913  35.591   3.359  11.373
68355W        W31914  32.907  34.453   2.814
68356W        W31915  30.031  10.259   3.328
68357W        W31916  27.990   2.909   0.246
68358W        W31917  16.253  22.650  11.517
68359W        W31918  18.661  17.740   1.351
68360W        W31919  23.614  31.616   2.306
68361W        W31920  22.086  18.214  12.035
68362W        W31921  41.370  34.454   1.795
68363W        W31922  42.945  16.200   3.340
68364W        W31923  13.191   4.767  10.902
68365W        W31924   9.806   2.880   0.936
68366W        W31925  15.769  18.750   0.385
68367W        W31926  43.485  17.186  14.429
68368W        W31927  28.104  25.217   0.820
68369W        W31928  28.012  23.219   5.657
68370W        W31929  31.053  37.875   1.861
68371W        W31930  39.456  10.241  14.477
68372W        W31931  36.419  23.180   4.175
68373W        W31932   1.853   0.955  12.982
68374W        W31933  21.166   1.827  14.483
68375W        W31934   2.310  30.655  14.876
68376W        W31935  36.096  22.032  14.024
68377W        W31936  23.601  23.149   0.298
68378W        W31937   4.929   9.734   3.377
68379W        W31938   1.243  30.422  13.048
68380W        W31939  15.092  39.859   4.746
68381W        W31940  19.128  18.783  11.042
68382W        W31941  41.028  29.064  13.908
68383W        W31942  32.032  17.748  11.968
68384W        W31943  37.350  28.129  13.417
68385W        W31944  41.352   2.364   3.265
68386W        W31945   5.397  24.578  14.429
68387W        W31946   1.415  36.452  14.279
68388W        W31947  33.915  19.597  14.857
68389W        W31948  12.125   8.393   5.606
68390W        W31949  17.297  17.078  14.924
68391W        W31950   9.233   3.829   1.237
68392W        W31951   0.933  22.243   2.839
68393W        W31952  21.230  15.687  13.966
68394W        W31953  39.876  23.550  12.551
68395W        W31954  19.553   2.843  14.810
68396W        W31955  36.429   4.319   0.770
68397W        W31956  43.319  11.305  11.055
68398W        W31957   6.871  18.130  11.958
68399W        W31958   0.271  36.392  12.845
68400W        W31959  40.353   4.777  10.545
68401W        W31960   7.705  25.990   3.377
68402W        W31961  23.693  21.194  10.542
68403W        W31962  30.414  24.680  14.303
68404W        W31963  35.504  14.759  13.397
68405W        W31964  29.479  21.691   4.635
68406W        W31965  39.893  10.871   3.359
68407W        W31966  25.686  24.129   2.795
68408W        W31967  20.524   9.314  13.016
68409W        W31968  40.511  21.589  11.106
68410W        W31969  39.479   0.926  12.976
68411W        W31970  35.005   5.391   1.836
68412W        W31971  12.786  33.489  10.000
68413W        W31972   5.382  34.424   4.666
68414W        W31973  26.031  29.455  13.852
68415W        W31974  30.109  10.204   0.280
68416W        W31975  33.438  15.125  13.900
68417W        W31976  20.091  28.055  14.784
68418W        W31977  43.832  25.617   0.367
68419W        W31978  36.008  32.558  13.986
68420W        W31979  37.457  22.219  11.541
68421W        W31980  35.890  31.899  14.493
68422W        W31981  16.614  20.657  11.419
68423W        W31982   8.681  20.534  12.906
68424W        W31983  34.971  29.169   9.987
68425W        W31984  13.634   3.918   2.679
68426W        W31985   0.914  10.684   0.869
68427W        W31986   5.291  31.115  14.885
68428W        W31987  11.766  28.621  14.446
68429W        W31988  28.178  14.756  13.367
68430W        W31989  30.933   7.820  14.286
68431W        W31990  21.581   0.480   1.303
68432W        W31991  41.964   6.236  10.902
68433W        W31992  37.452  12.639  10.102
68434W        W31993   1.745  15.655  13.327
68435W        W31994  44.266  10.375   4.699
68436W        W31995  23.236   0.464  11.015
68437W        W31996  39.981  37.878   1.389
68438W        W31997   4.738  22.020   0.845
68439W        W31998  13.158  21.074   2.290
68440W        W31999  29.630  31.598  14.501
68441W        W32000   9.227   1.297   0.439
68442W        W32001   7.242  16.723  12.027
68443W        W32002  26.467  11.745   1.838
68444W        W32003  28.060  28.508  13.341
68445W        W32004   5.273  44.896  11.585
68446W        W32005  30.492   1.483  14.348
68447W        W32006  21.025  17.209   1.399
68448W        W32007  31.443  28.097   2.870
68449W        W32008  32.931   6.285   2.380
68450W        W32009   0.255   1.270   0.439
68451W        W32010  17.142  26.668   5.301
68452W        W32011  13.657  35.017  13.343
68453W        W32012  18.655   9.153  14.761
68454W        W32013  11.692  20.089  14.782
68455W        W32014   1.903  37.383   2.195
68456W        W32015  25.188  44.278   1.758
68457W        W32016  44.891  14.279   3.704
68458W        W32017  33.947  31.107  12.511
68459W        W32018  31.442  18.173  10.552
68460W        W32019  26.985  41.518   1.246
68461W        W32020  29.931   9.395  14.849
68462W        W32021  44.322  11.744  11.529
68463W        W32022  39.362  43.825  12.566
68464W        W32023  17.157   6.253  13.899
68465W        W32024  23.515   5.330  10.988
68466W        W32025  14.141   2.358  14.452
68467W        W32026  43.335  14.182   0.474
68468W        W32027   9.838  15.821  13.998
68469W        W32028   9.272  12.161   1.405
68470W        W32029   0.432  20.059   0.340
68471W        W32030  25.972  11.219  14.501
68472W        W32031   1.396  24.003  13.907
68473W        W32032  33.603  39.029   0.280
68474W        W32033   2.774  32.489  10.900
68475W        W32034   1.437  21.616  13.055
68476W        W32035  29.963  15.742   2.825
68477W        W32036  41.324   4.749   2.413
68478W        W32037  15.097  18.182  13.871
68479W        W32038  21.734   1.254  13.803
68480W        W32039  43.782  28.559  13.481
68481W        W32040   7.303  12.326  10.443
68482W        W32041  19.647  37.569   4.750
68483W        W32042  26.621  41.444   3.655
68484W        W32043  26.087  15.785   0.287
68485W        W32044  34.932  12.177  11.454
68486W        W32045  25.128  13.641   3.363
68487W        W32046   6.919  43.017  12.849
68488W        W32047  40.511  12.142  14.835
68489W        W32048  23.516  23.518   4.808
68490W        W32049  43.431  39.944   2.765
68491W        W32050  32.604   4.836  10.083
68492W        W32051  28.007  39.520  12.567
68493W        W32052  19.257  36.505   0.262
68494W        W32053  14.162   5.728   3.210
68495W        W32054  17.124  30.590   2.845
68496W        W32055  16.703  24.545  12.958
68497W        W32056  26.139  44.864  13.960
68498W        W32057   3.923  25.128  14.960
68499W        W32058  40.029  14.622   0.741
68500W        W32059  22.173  32.140   4.190
68501W        W32060   7.694  41.366   2.294
68502W        W32061  28.553   3.382   2.261
68503W        W32062   6.425   2.850   0.901
68504W        W32063  30.920  30.483   1.300
68505W        W32064  13.746  13.738  13.519
68506W        W32065  14.606  38.498  11.597
68507W        W32066   9.702  19.256   0.941
68508W        W32067  44.892  39.925   3.689
68509W        W32068  26.522  14.702   2.739
68510W        W32069  16.643  12.823  11.856
68511W        W32070   7.695   0.426  11.565
68512W        W32071   0.347   5.847  10.595
68513W        W32072  36.418  39.453  13.518
68514W        W32073   5.389   3.887  13.793
68515W        W32074  11.131  40.828  11.905
68516W        W32075  13.290  42.520  13.490
68517W        W32076   3.847  36.409  13.315
68518W        W32077   2.362  36.490  11.041
68519W        W32078  15.776  31.451  12.875
68520W        W32079  18.669   2.287  12.958
68521W        W32080   7.894  27.182  11.442
68522W        W32081   5.424  26.506   1.922
68523W        W32082  32.510  29.621   9.951
68524W        W32083  13.770  34.955   0.413
68525W        W32084   6.841  13.201  12.949
68526W        W32085  27.174  24.974  10.936
68527W        W32086  13.138  33.419   4.208
68528W        W32087  23.630   3.771  14.392
68529W        W32088  32.897  33.624  14.911
68530W        W32089  23.665  30.526   2.773
68531W        W32090  43.336  16.124   3.238
68532W        W32091  12.801  16.641   0.441
68533W        W32092  21.168   4.759  13.492
68534W        W32093   0.306  27.574   0.361
68535W        W32094  12.361   2.849   4.203
68536W        W32095  12.630  31.592  11.542
68537W        W32096   5.822  33.570   0.270
68538W        W32097  42.410  18.251  12.064
68539W        W32098  11.842   7.685  14.305
68540W        W32099   0.477  34.461  13.387
68541W        W32100  23.230  17.724   0.402
68542W        W32101   2.805   6.702  12.543
68543W        W32102  33.989  38.424  13.530
68544W        W32103  31.988  31.647  14.874
68545W        W32104  15.205  10.688   1.296
68546W        W32105  17.638  24.572  12.507
68547W        W32106  17.142   7.745   0.907
68548W        W32107  40.505  43.811   0.351
68549W        W32108  27.633  42.954   3.865
68550W        W32109  17.601  37.375   1.339
68551W        W32110   5.837   0.341  12.068
68552W        W32111  43.986  41.809   0.320
68553W        W32112  14.283  20.633  11.116
68554W        W32113  13.605  23.566   4.804
68555W        W32114  25.093  25.559  14.030
68556W        W32115  43.860  43.378   0.372
68557W        W32116   6.293  25.692  14.317
68558W        W32117  40.054   5.397   0.848
68559W        W32118  43.431  38.025   3.743
68560W        W32119  40.308   9.754  12.474
68561W        W32120   7.799  33.621  14.509
68562W        W32121   9.703   4.827   4.740
68563W        W32122  39.018  41.372  14.902
68564W        W32123  27.499  10.808   3.164
68565W        W32124   2.783  23.593  12.410
68566W        W32125  31.494  17.186  10.530
68567W        W32126  44.813   2.252  11.611
68568W        W32127  21.656  24.031   1.715
68569W        W32128  39.407  37.491   3.870
68570W        W32129   4.925  33.438  12.901
68571W        W32130   7.299  13.293   0.243
68572W        W32131  34.555  13.256  11.922
68573W        W32132  29.598  38.568   2.231
68574W        W32133  14.325  22.102   3.273
68575W        W32134   6.295  43.006   3.723
68576W        W32135  29.474  41.420   0.255
68577W        W32136  39.044  21.576   0.342
68578W        W32137  31.915  32.073  11.512
68579W        W32138  21.606  27.111  14.355
68580W        W32139  24.155  15.246   3.654
68581W        W32140   1.276  30.501   3.278
68582W        W32141  28.074  34.930   1.258
68583W        W32142   1.300  15.200   3.329
68584W        W32143  11.223   4.330   3.754
68585W        W32144   8.665  43.370  10.634
68586W        W32145  17.214  14.821   1.441
68587W        W32146   8.312   4.859  13.393
68588W        W32147  38.462  43.451  13.913
68589W        W32148  23.609  21.040  13.421
68590W        W32149   2.362  13.179  11.906
68591W        W32150  40.879  34.912  14.323
68592W        W32151  30.579  29.105   0.905
68593W        W32152   8.840   5.839   0.278
68594W        W32153  20.123  28.160  14.376
68595W        W32154  33.509  38.961   4.284
68596W        W32155  34.398  14.601  12.404
68597W        W32156   1.446  35.479  14.371
68598W        W32157   7.412  31.059   0.384
68599W        W32158  17.600  36.956  12.980
68600W        W32159   5.244  15.277   4.196
68601W        W32160  32.537  19.726  12.418
68602W        W32161  38.417   7.743  10.594
68603W        W32162  20.738   5.404  14.793
68604W        W32163  33.567  38.513  13.489
68605W        W32164  12.742  11.722  13.790
68606W        W32165  43.969  36.569   1.701
68607W        W32166   8.372  29.436  13.876
68608W        W32167  34.893  44.431   0.798
68609W        W32168  18.585  29.160   2.236
68610W        W32169  20.167  20.178   0.746
68611W        W32170  27.165   0.407   3.294
68612W        W32171   5.434   8.853   3.686
68613W        W32172  21.559  27.972   5.620
68614W        W32173  40.978   6.823   3.718
68615W        W32174  22.557  14.163   0.429
68616W        W32175   4.335  16.696  14.868
68617W        W32176  34.092  28.076  11.015
68618W        W32177  25.083   4.755  13.883
68619W        W32178  37.531  42.369  14.910
68620W        W32179  19.213  42.880   4.825
68621W        W32180  21.579   7.778   0.377
68622W        W32181  17.150   1.799   0.963
68623W        W32182  29.492  23.226  13.797
68624W        W32183  34.116  27.607   1.379
68625W        W32184   4.834  23.065   3.717
68626W        W32185   0.777  21.743   4.149
68627W        W32186  42.436  12.753  12.866
68628W        W32187  14.751  28.443   3.286
68629W        W32188  29.121   1.916   1.847
68630W        W32189   6.335  31.938  12.835
68631W        W32190  42.404  40.938   0.398
68632W        W32191  37.563  11.798   2.383
68633W        W32192  21.673   1.848   5.261
68634W        W32193  15.683  27.037  11.108
68635W        W32194  40.445  40.893   3.301
68636W        W32195  44.849  34.053   0.804
68637W        W32196  12.629  40.308   3.830
68638W        W32197  36.013  42.288  11.448
68639W        W32198  19.597   0.864  13.055
68640W        W32199  12.659  27.063   4.769
68641W        W32200  32.972  44.923  12.376
68642W        W32201   7.411  21.179  13.412
68643W        W32202  34.593  21.548  11.913
68644W        W32203  28.984  33.459  14.832
68645W        W32204  18.212   7.794  14.777
68646W        W32205  12.720  38.383   2.210
68647W        W32206  39.400  36.026   1.324
68648W        W32207  26.621  33.451   1.423
68649W        W32208  43.893  18.127  11.929
68650W        W32209  19.081  15.208  12.539
68651W        W32210  32.142  19.579   4.131
68652W        W32211  32.059   1.442  11.029
68653W        W32212  30.127  18.732  11.016
68654W        W32213  26.060  18.205   1.377
68655W        W32214   4.266  15.129  13.853
68656W        W32215  10.171   5.893   4.125
68657W        W32216  15.114  38.407  12.882
68658W        W32217   0.251  20.672   1.378
68659W        W32218  16.156  22.230  10.900
68660W        W32219  14.772  22.156  13.959
68661W        W32220   0.285   4.743   1.752
68662W        W32221  35.106  14.168  10.910
68663W        W32222   8.885   2.446  12.955
68664W        W32223  20.535  37.529  11.111
68665W        W32224  21.149  14.696   2.824
68666W        W32225   0.886  16.133   0.865
68667W        W32226  22.691  29.519  12.006
68668W        W32227  11.828  36.592   1.293
68669W        W32228   0.763   1.820   4.312
68670W        W32229  40.017  26.030   1.341
68671W        W32230   2.426  27.945  10.641
68672W        W32231  24.541  17.602  11.985
68673W        W32232  30.100   2.817  10.437
68674W        W32233  11.211   2.406   3.813
68675W        W32234  24.600  12.288   3.858
68676W        W32235  21.573   5.719  11.922
68677W        W32236  31.925  37.503  11.471
68678W        W32237  16.152   4.444  14.422
68679W        W32238  25.030  17.781  10.946
68680W        W32239   6.848   9.153   2.868
68681W        W32240  30.613  33.909   3.833
68682W        W32241  35.957  42.338   2.216
68683W        W32242  21.686   5.836   3.745
68684W        W32243   2.736  33.435  10.888
68685W        W32244  28.023  35.103  12.022
68686W        W32245  40.319  23.565   2.702
68687W        W32246  29.056  23.094   1.369
68688W        W32247  25.652   9.783   3.182
68689W        W32248  29.571  17.702  14.867
68690W        W32249  12.820  44.778  14.924
68691W        W32250   6.194  35.952  11.476
68692W        W32251  16.095   0.384  12.838
68693W        W32252  38.358  17.285   2.239
68694W        W32253  35.401   2.785  12.983
68695W        W32254  28.044  12.781  13.322
68696W        W32255  26.628  44.400   0.811
68697W        W32256  29.479  42.345  10.904
68698W        W32257  22.106   7.202   2.218
68699W        W32258   9.803  14.740  11.087
68700W        W32259  17.615  21.092   9.964
68701W        W32260  25.596  23.587   1.436
68702W        W32261  27.552  27.068   1.299
68703W        W32262  41.474  34.064   4.817
68704W        W32263  44.368  25.203  10.118
68705W        W32264  39.509  26.620  12.563
68706W        W32265   4.741  37.906  12.516
68707W        W32266   2.962  33.033   0.883
68708W        W32267  36.526  28.660   1.798
68709W        W32268  21.032  10.359  12.996
68710W        W32269  26.986  39.350   0.367
68711W        W32270  35.443  39.968  14.509
68712W        W32271   9.667  35.394   4.193
68713W        W32272   9.812  18.626   0.340
68714W        W32273  27.144  19.613  14.290
68715W        W32274  25.672  24.638   1.403
68716W        W32275  43.993  27.541  10.623
68717W        W32276  20.152  36.363  11.108
68718W        W32277   5.219  25.161   1.893
68719W        W32278  31.013  20.187   3.782
68720W        W32279  42.028  26.133   1.863
68721W        W32280   2.729  43.847   3.639
68722W        W32281  26.664  30.480  10.525
68723W        W32282  43.458  10.811   4.247
68724W        W32283   4.893  32.399  14.805
68725W        W32284  32.034  23.551  11.486
68726W        W32285  12.752   9.791  13.310
68727W        W32286  36.480  27.471   4.719
68728W        W32287  20.681   4.833   2.271
68729W        W32288  21.028  31.982  10.007
68730W        W32289  37.419  32.546  13.906
68731W        W32290  38.024  39.438   1.706
68732W        W32291  36.998  43.389   0.319
68733W        W32292  41.524  39.548  14.982
68734W        W32293  40.872  13.142  14.917
68735W        W32294  38.978   6.737   1.788
68736W        W32295  32.087  23.013   4.344
68737W        W32296  34.064  42.428  10.913
68738W        W32297  20.664  28.030   1.231
68739W        W32298   5.702  23.627   2.304
68740W        W32299  22.728  27.070   0.843
68741W        W32300  29.065  30.908  14.880
68742W        W32301  25.559   4.330  11.105
68743W        W32302  19.118  38.071   1.265
68744W        W32303  27.613  12.779   2.818
68745W        W32304  38.908  15.228   4.604
68746W        W32305  42.017  24.992   3.817
68747W        W32306  21.564  31.543   0.450
68748W        W32307  18.287   8.760   0.760
68749W        W32308  20.110   9.799  11.994
68750W        W32309  23.667  16.697  14.914
68751W        W32310  20.634  31.526   1.853
68752W        W32311  38.958  14.709  10.419
68753W        W32312  26.543  42.822  11.948
68754W        W32313  10.867  43.312  12.981
68755W        W32314  19.534   1.744  10.936
68756W        W32315  15.178  21.196   1.767
68757W        W32316  29.171  36.468   3.289
68758W        W32317  33.047  10.271   3.725
68759W        W32318   6.790  25.186  10.957
68760W        W32319   6.890  21.171   2.250
68761W        W32320  43.803  23.201  14.948
68762W        W32321   5.884  11.800  12.838
68763W        W32322  18.136  12.779  10.558
68764W        W32323  23.733  10.722   1.736
68765W        W32324  16.666  33.572   2.768
68766W        W32325  20.074  44.806  13.918
68767W        W32326  11.211  35.016  11.083
68768W        W32327   9.869  11.805   5.803
68769W        W32328  15.722  34.499   0.850
68770W        W32329  31.557  30.048   3.270
68771W        W32330  39.865  39.557   4.686
68772W        W32331  38.997  15.688   2.763
68773W        W32332  23.722  11.677  10.114
68774W        W32333  32.563   7.289  12.858
68775W        W32334  38.419   5.809  11.510
68776W        W32335  43.806  15.245   3.178
68777W        W32336  29.963   8.323  12.957
68778W        W32337  22.602  37.473   3.828
68779W        W32338  36.578  28.453   4.767
68780W        W32339  19.198  19.629   0.423
68781W        W32340  30.516  22.025  13.320
68782W        W32341   9.193  33.624   3.834
68783W        W32342   0.373  10.821   3.734
68784W        W32343  21.027  26.684  12.067
68785W        W32344  28.460   3.832   2.275
68786W        W32345  38.852   4.824  10.966
68787W        W32346  35.439   7.865   3.782
68788W        W32347   4.370  42.960  14.838
68789W        W32348  22.727  42.488  12.387
68790W        W32349   4.352  41.395  10.540
68791W        W32350   1.820  34.588  12.475
68792W        W32351  20.537  31.542   3.817
68793W        W32352   4.711   5.845   4.704
68794W        W32353  38.426  17.597  10.887
68795W        W32354  21.091  19.618  10.544
68796W        W32355  43.847  17.204  11.905
68797W        W32356  40.531  13.113  13.803
68798W        W32357  27.012  37.520   1.707
68799W        W32358  38.074  18.732  11.593
68800W        W32359  33.438  37.901   2.373
68801W        W32360  34.941  20.578   1.230
68802W        W32361  29.567  22.707   0.270
68803W        W32362  12.236  38.393   3.299
68804W        W32363  24.693  40.375  12.572
68805W        W32364  43.005  15.667   0.377
68806W        W32365   0.261  17.671  11.387
68807W        W32366  22.589  23.592  11.999
68808W        W32367  37.368   1.974  13.928
68809W        W32368  24.634   3.336   4.699
68810W        W32369  34.094  17.236   3.222
68811W        W32370  32.402  36.993  13.896
68812W        W32371  17.235  41.904   1.703
68813W        W32372  41.453  24.501  10.517
68814W        W32373  40.377  14.792  13.823
68815W        W32374  11.830   7.417  10.943
68816W        W32375  25.104  30.645   4.353
68817W        W32376  26.050  27.197  14.952
68818W        W32377  32.992  39.504  12.464
68819W        W32378  44.763  36.482  12.876
68820W        W32379  11.256  32.896  12.950
68821W        W32380   4.317   4.710   4.225
68822W        W32381  21.099  12.716   2.816
68823W        W32382  29.035   1.861  14.031
68824W        W32383  25.200   9.888  10.125
68825W        W32384  26.048  15.165   4.662
68826W        W32385  35.525   4.292  14.510
68827W        W32386   7.754  36.974   0.431
68828W        W32387  26.701  14.130  12.489
68829W        W32388  19.085  35.484   3.380
68830W        W32389  34.508   7.672  14.408
68831W        W32390  38.893   0.442   4.801
68832W        W32391  18.656   2.411   4.251
68833W        W32392  32.992  15.583   1.282
68834W        W32393   0.909  31.401   2.702
68835W        W32394   1.246  23.141   0.311
68836W        W32395   4.236   6.191   4.120
68837W        W32396  11.306  25.610  13.382
68838W        W32397  28.176  34.080  13.808
68839W        W32398  16.204  24.531  11.907
68840W        W32399  33.614   8.196  11.910
68841W        W32400  30.497  21.187   4.336
68842W        W32401  28.064  18.283  14.398
68843W        W32402  41.977  33.049  10.914
68844W        W32403  27.652   7.769  13.505
68845W        W32404  11.373  23.104   2.240
68846W        W32405  28.021  18.139   4.754
68847W        W32406   4.279  34.016   3.346
68848W        W32407  38.507  10.746  11.969
68849W        W32408  25.516  16.310  10.551
68850W        W32409  31.485  14.633   2.301
68851W        W32410  22.575  42.447   4.224
68852W        W32411  34.003   6.689   5.278
68853W        W32412  19.640  38.365  10.980
68854W        W32413  18.171  12.850  11.902
68855W        W32414  12.281   5.333   3.857
68856W        W32415  35.019  28.160  13.542
68857W        W32416  43.360   6.791   1.931
68858W        W32417  25.029   9.244  10.624
68859W        W32418   2.905   3.230   0.464
68860W        W32419  38.068  38.517  12.072
68861W        W32420   9.174  29.595  11.011
68862W        W32421   9.342   8.285  11.977
68863W        W32422   3.823  33.943  12.572
68864W        W32423  42.020  24.047  10.605
68865W        W32424  10.667  26.998   2.823
68866W        W32425   4.931  28.449   4.268
68867W        W32426  35.109  11.632   4.209
68868W        W32427  33.467  33.586  14.338
68869W        W32428  25.157   4.897  11.452
68870W        W32429  10.199  36.993   2.247
68871W        W32430   3.872   5.810  10.532
68872W        W32431   4.378   7.888  11.983
68873W        W32432  38.338  23.629   3.228
68874W        W32433   3.772  32.634   0.347
68875W        W32434  39.965  21.638   1.263
68876W        W32435   4.733   5.933  10.991
68877W        W32436  35.986   1.472   0.465
68878W        W32437  39.374  17.797  14.451
68879W        W32438   5.421  35.971  13.059
68880W        W32439   9.284  16.580   4.335
68881W        W32440  21.042  25.485   1.926
68882W        W32441  41.449  37.359   2.213
68883W        W32442   7.781  26.168  11.498
68884W        W32443  22.504  38.487  11.949
68885W        W32444   0.934  27.657  12.916
68886W        W32445  44.989  24.195   2.778
68887W        W32446   6.746  34.954   0.350
68888W        W32447  24.109   5.344  11.452
68889W        W32448   4.260  21.683   0.786
68890W        W32449  17.302  32.468   4.745
68891W        W32450  40.905  34.949   2.814
68892W        W32451  27.081  36.485  12.558
68893W        W32452   9.821  20.257  14.376
68894W        W32453  44.941  32.011  14.839
68895W        W32454  16.180  15.577  11.447
68896W        W32455   9.395  30.070   4.655
68897W        W32456   9.285  41.425  14.759
68898W        W32457  27.086  20.235   3.213
68899W        W32458  19.258  25.614  11.000
68900W        W32459  33.070  33.403  12.407
68901W        W32460  16.129  22.711  10.636
68902W        W32461  22.644  21.228   9.954
68903W        W32462  25.197  36.098  11.900
68904W        W32463   0.857  32.601  10.616
68905W        W32464  25.475  22.068  13.354
68906W        W32465   2.438   2.440   3.852
68907W        W32466  22.598  14.735   0.318
68908W        W32467  28.613  38.398  14.424
68909W        W32468  36.972  40.526   2.304
68910W        W32469  42.333  38.489   3.696
68911W        W32470  10.642  14.643  12.508
68912W        W32471  12.715  12.843   0.836
68913W        W32472  22.071  21.259  13.382
68914W        W32473   7.690  37.549  14.315
68915W        W32474   1.450  27.582   3.200
68916W        W32475  19.771  15.680   3.713
68917W        W32476  39.391  12.183   0.940
68918W        W32477  23.639   7.344   0.787
68919W        W32478  18.287  44.946  10.955
68920W        W32479  31.931  26.184   3.774
68921W        W32480  19.708  28.957  10.585
68922W        W32481   1.737  42.500   1.311
68923W        W32482   0.860  30.015   2.864
68924W        W32483  17.084  11.268   1.450
68925W        W32484   1.824  35.996  12.511
68926W        W32485  37.574  25.696   0.862
68927W        W32486  40.481  42.284   1.820
68928W        W32487  30.954  20.052  11.528
68929W        W32488  30.457   7.324   1.820
68930W        W32489   5.255  43.367   1.440
68931W        W32490  37.969  13.287   2.278
68932W        W32491  34.423   9.866   0.778
68933W        W32492  25.028  34.006  12.968
68934W        W32493  28.140  23.164   5.147
68935W        W32494  43.910  36.085  10.549
68936W        W32495   8.267  28.559   1.743
68937W        W32496  18.295   3.763  12.579
68938W        W32497  10.374  41.972  12.425
68939W        W32498   4.220  21.579   3.811
68940W        W32499  32.063  34.463  11.072
68941W        W32500  41.854   6.920  13.927
68942W        W32501  19.165  34.458   2.395
68943W        W32502  14.743  26.023   4.208
68944W        W32503  28.642  17.689  12.824
68945W        W32504  32.398  14.802  12.067
68946W        W32505  36.872  30.594  11.458
68947W        W32506  11.346  18.618  14.893
68948W        W32507  35.895  14.143   2.772
68949W        W32508  35.915  15.723   1.328
68950W        W32509   9.654   8.252   2.699
68951W        W32510  37.507   3.769   3.777
68952W        W32511  30.038  32.994  14.437
68953W        W32512  18.088  37.872   1.930
68954W        W32513  21.573   6.265  10.918
68955W        W32514  16.312  39.913   0.803
68956W        W32515  25.562  19.736   4.249
68957W        W32516  30.594  27.563   3.194
68958W        W32517  12.211  18.289  13.456
68959W        W32518   2.272   3.831  13.860
68960W        W32519  41.481  30.937  10.922
68961W        W32520   6.915  17.267  14.452
68962W        W32521  24.570   1.963  13.371
68963W        W32522  42.503  35.420   3.670
68964W        W32523  17.293  31.446  12.575
68965W        W32524  19.099   0.327   4.284
68966W        W32525  23.530  33.512  12.563
68967W        W32526  42.807  29.562  11.530
68968W        W32527  27.648  18.588  14.919
68969W        W32528  44.980   2.458   3.343
68970W        W32529  37.048  11.319   1.931
68971W        W32530  32.606  37.925  13.343
68972W        W32531  28.031  39.538   4.649
68973W        W32532   6.773  16.715  12.357
68974W        W32533  28.586  40.814  14.841
68975W        W32534  11.797  15.728   1.700
68976W        W32535  26.078  19.127  11.021
68977W        W32536  23.092   2.782  10.529
68978W        W32537   5.845  38.492   3.799
68979W        W32538  18.567  42.890   3.708
68980W        W32539  35.967   6.889   4.324
68981W        W32540  33.931  16.318   4.131
68982W        W32541  31.443  39.997   4.284
68983W        W32542  12.277   2.236  14.853
68984W        W32543  42.977  20.141   0.429
68985W        W32544  23.577  24.082   2.824
68986W        W32545  13.332  14.204  13.377
68987W        W32546  35.443  31.618   5.124
68988W        W32547   5.350  42.353   0.842
68989W        W32548  24.654  16.632   1.439
68990W        W32549   6.717   9.206   4.325
68991W        W32550  44.808  42.014   0.328
68992W        W32551  22.062  19.682   3.859
68993W        W32552   4.249  28.679   4.177
68994W        W32553   4.757   6.700   4.730
68995W        W32554   6.714   8.900   0.850
68996W        W32555  19.182  41.488   1.371
68997W        W32556  42.946  16.772   4.311
68998W        W32557  31.143  13.148   4.199
68999W        W32558  31.138   9.849   3.853
69000W        W32559  14.139   4.775   4.255
69001W        W32560  22.549  41.341   4.351
69002W        W32561  31.463  40.009  11.611
69003W        W32562  19.696  22.129  12.061
69004W        W32563   0.886   4.706  13.946
69005W        W32564   0.904  29.979  14.830
69006W        W32565  33.099  32.971  14.326
69007W        W32566  33.391  36.058  11.417
69008W        W32567  24.583  24.571  14.364
69009W        W32568  30.452   0.311  13.834
69010W        W32569  25.701  33.890  11.031
69011W        W32570  33.999  43.334   1.859
69012W        W32571  33.035  32.064   2.799
69013W        W32572  38.913   6.798  10.072
69014W        W32573  26.636  40.452  14.448
69015W        W32574  29.051  32.577  13.392
69016W        W32575  32.906  37.927   3.741
69017W        W32576  19.772  16.671   2.313
69018W        W32577  20.210   5.894  13.844
69019W        W32578  14.808  42.866  10.438
69020W        W32579  44.882   8.401   2.312
69021W        W32580  38.975  17.089  14.821
69022W        W32581  14.220  20.592   1.856
69023W        W32582  15.704  21.217  13.547
69024W        W32583  28.509  21.261  13.040
69025W        W32584  33.019  13.751   2.397
69026W        W32585  41.452  16.673  12.558
69027W        W32586  26.137  11.189   1.794
69028W        W32587  44.416   7.282   0.482
69029W        W32588   7.818  27.576  13.453
69030W        W32589  40.487   3.301   2.714
69031W        W32590  34.054   1.973   4.193
69032W        W32591  12.350  32.509   2.898
69033W        W32592  37.393   5.257  11.962
69034W        W32593  44.286  29.959  13.041
69035W        W32594  40.041  10.383  12.404
69036W        W32595  17.730  24.674   0.389
69037W        W32596  18.268  32.525   0.389
69038W        W32597  23.682  22.559  12.892
69039W        W32598   3.330  18.059  12.003
69040W        W32599   2.308  43.917   3.207
69041W        W32600  43.009   8.387  13.358
69042W        W32601  16.598   8.368   5.090
69043W        W32602  17.287   2.844  12.050
69044W        W32603  11.793  37.379   3.248
69045W        W32604  26.511   1.890  11.900
69046W        W32605  11.775  23.186  13.006
69047W        W32606  39.486  44.499   0.843
69048W        W32607  19.727  28.661  10.150
69049W        W32608   3.716  27.561  12.874
69050W        W32609   8.245  37.924   0.331
69051W        W32610  30.600   9.356   3.171
69052W        W32611   2.951   0.885   3.153
69053W        W32612  12.271  10.276   0.354
69054W        W32613  44.325  36.966  12.071
69055W        W32614  20.631  27.970  13.055
69056W        W32615  40.896  34.576   0.926
69057W        W32616  25.152   5.932   0.460
69058W        W32617  24.088   6.719   3.351
69059W        W32618  40.949  28.976  14.962
69060W        W32619   0.878  17.294  12.557
69061W        W32620  37.518  10.276  13.460
69062W        W32621  21.243  32.017  13.958
69063W        W32622  43.979   3.342   2.796
69064W        W32623  44.347  21.230  10.409
69065W        W32624  15.688  39.535  13.484
69066W        W32625  42.961   3.368  10.118
69067W        W32626  12.662  31.009   0.452
69068W        W32627  17.214  12.324   2.869
69069W        W32628  13.621  37.861   2.865
69070W        W32629  17.290  16.083  13.467
69071W        W32630  30.104  30.023  10.894
69072W        W32631  20.191   7.304  13.515
69073W        W32632  42.468  25.672   4.730
69074W        W32633  35.433  16.761  12.378
69075W        W32634  20.065   3.729   0.854
69076W        W32635  38.355  24.643   1.740
69077W        W32636  27.947  39.473   4.164
69078W        W32637   3.290  33.894   2.391
69079W        W32638  11.266  32.049   0.726
69080W        W32639  17.194  31.625  10.541
69081W        W32640  16.671  28.107   1.247
69082W        W32641  12.236  42.427   3.846
69083W        W32642  33.584  27.600  14.487
69084W        W32643  25.027  32.582   1.376
69085W        W32644  16.275   3.800  13.440
69086W        W32645  26.016  21.070   9.497
69087W        W32646  18.757   7.240  10.417
69088W        W32647   7.889  42.801   0.752
69089W        W32648   7.417  14.644  14.792
69090W        W32649   4.343  28.485   2.872
69091W        W32650   3.325   2.252  14.908
69092W        W32651  29.426  35.911   3.197
69093W        W32652  34.955  14.787  11.426
69094W        W32653  44.490   7.670   2.330
69095W        W32654  40.388  34.406  13.438
69096W        W32655  43.866  24.685  13.970
69097W        W32656  35.441  13.766  11.022
69098W        W32657  43.500  10.721   2.847
69099W        W32658  35.903  39.998  13.310
69100W        W32659  10.807  36.055  11.394
69101W        W32660  37.542   9.837   4.219
69102W        W32661  12.616   7.369  13.006
69103W        W32662  36.492   7.320   2.807
69104W        W32663  28.453  31.932   2.396
69105W        W32664  11.205  43.795   3.637
69106W        W32665  29.527  41.480   3.725
69107W        W32666  10.701   9.273  13.060
69108W        W32667  37.511  35.492   1.404
69109W        W32668   8.734   3.287  12.412
69110W        W32669  32.449  33.531  11.863
69111W        W32670  37.864  35.911   5.215
69112W        W32671   0.890  43.858   3.263
69113W        W32672  31.621  25.510   4.735
69114W        W32673  33.911  20.147  12.461
69115W        W32674  25.210   5.388   1.424
69116W        W32675  38.430  42.390  11.467
69117W        W32676  11.205  33.915   1.288
69118W        W32677  32.454  15.091  11.517
69119W        W32678  21.524   3.275  13.453
69120W        W32679  29.952  13.200   4.793
69121W        W32680  14.269   5.909   4.720
69122W        W32681  38.406   4.942   1.916
69123W        W32682   9.362   0.842  10.463
69124W        W32683  37.463  16.290  11.385
69125W        W32684   1.437  21.113   1.324
69126W        W32685  13.705  41.307  14.345
69127W        W32686  36.008  38.507  11.558
69128W        W32687  40.021  17.105  10.996
69129W        W32688   5.356  32.959  11.560
69130W        W32689  21.046  32.066  12.916
69131W        W32690  44.434  13.778   1.337
69132W        W32691  10.712  22.586   0.778
69133W        W32692  35.531  22.613   0.873
69134W        W32693  30.033  11.159   1.312
69135W        W32694  18.190  23.215  10.961
69136W        W32695  14.296  22.687   5.675
69137W        W32696  20.051   9.708   2.832
69138W        W32697   0.422  41.042  12.444
69139W        W32698  16.643  18.209   0.400
69140W        W32699  17.275   0.978   1.721
69141W        W32700  32.972   0.261  13.792
69142W        W32701   0.796  20.082  14.325
69143W        W32702  25.219  15.723  11.581
69144W        W32703  14.227  29.946   1.330
69145W        W32704  35.452   4.921  13.445
69146W        W32705  35.099   3.795  14.996
69147W        W32706   8.241  43.870   4.660
69148W        W32707   0.300   7.341   3.681
69149W        W32708  39.845   9.153  13.335
69150W        W32709   8.656  36.962  12.982
69151W        W32710  11.643   0.863   1.782
69152W        W32711  15.179   9.349   2.327
69153W        W32712  42.506  44.837  12.965
69154W        W32713  41.305  32.959   3.758
69155W        W32714  19.041  27.965   9.440
69156W        W32715  32.957  16.226  13.032
69157W        W32716  38.049  23.234  14.021
69158W        W32717  32.531  33.946  12.893
69159W        W32718   9.789   7.321   2.681
69160W        W32719  16.619   2.358   1.713
69161W        W32720  23.539   6.341   1.821
69162W        W32721  36.425  12.739  13.947
69163W        W32722  14.789   6.341   1.759
69164W        W32723  14.191  38.941   3.852
69165W        W32724  41.537  24.721  13.894
69166W        W32725  20.711  10.273  11.089
69167W        W32726  14.704   9.646  14.415
69168W        W32727  21.184   3.451   3.374
69169W        W32728   3.865  19.199  12.987
69170W        W32729  15.763  35.956  14.366
69171W        W32730  29.137  44.897   0.784
69172W        W32731  16.160  42.852   0.745
69173W        W32732  42.868  26.109  11.879
69174W        W32733  30.077  15.203   2.723
69175W        W32734   8.391   8.805   3.827
69176W        W32735  39.956  25.605  11.525
69177W        W32736   4.306  23.205  11.544
69178W        W32737  19.663   0.300  12.962
69179W        W32738  44.276  15.579   4.218
69180W        W32739   0.745  23.666  12.394
69181W        W32740  38.928  37.904   1.698
69182W        W32741  38.532  37.468  13.925
69183W        W32742  14.101  36.946  11.092
69184W        W32743  43.492   5.739   3.177
69185W        W32744  25.150  39.951  14.004
69186W        W32745  41.512  34.441  11.017
69187W        W32746  24.706  34.051  10.923
69188W        W32747  36.912  37.565  10.480
69189W        W32748  18.618  23.032   3.703
69190W        W32749  19.128   9.822   2.802
69191W        W32750   6.787  39.331  11.526
69192W        W32751  42.474  19.193   0.846
69193W        W32752   1.953  43.798  10.891
69194W        W32753   5.933  36.885  14.001
69195W        W32754  27.007  28.137  12.400
69196W        W32755  21.698   0.792   2.237
69197W        W32756  36.567  20.694  14.886
69198W        W32757   3.890   4.849   4.820
69199W        W32758  15.227  43.016   0.285
69200W        W32759  38.456  17.748  12.948
69201W        W32760  42.812  26.666   2.818
69202W        W32761   5.272  29.037  14.974
69203W        W32762  44.825  31.534  10.906
69204W        W32763  38.061   4.389  11.091
69205W        W32764   6.184   4.279  12.517
69206W        W32765   2.799  29.152  10.893
69207W        W32766   6.702  40.507  12.372
69208W        W32767  10.192  30.101  14.486
69209W        W32768   0.489  35.034  10.523
69210W        W32769  44.402  27.952   3.822
69211W        W32770  23.589  27.451  11.430
69212W        W32771  18.553  30.595   0.291
69213W        W32772  18.114  40.909  13.891
69214W        W32773  44.853  17.149   2.305
69215W        W32774  29.922  34.042  11.086
69216W        W32775   7.177  18.568   2.321
69217W        W32776  12.747  24.094   3.257
69218W        W32777  15.640  21.054  14.470
69219W        W32778  36.932  22.132  13.506
69220W        W32779  41.444  16.315  11.961
69221W        W32780  28.533   5.699   2.330
69222W        W32781  43.274  20.118   2.893
69223W        W32782  31.430   1.471   2.675
69224W        W32783  18.270  20.716  12.475
69225W        W32784  28.162  23.603  14.349
69226W        W32785  15.256  20.571  13.539
69227W        W32786   5.439  39.012  13.819
69228W        W32787  30.548   2.318   3.715
69229W        W32788   4.940  10.257   4.817
69230W        W32789   0.283  22.726  10.512
69231W        W32790  34.496   2.451  12.385
69232W        W32791  27.949   6.210   4.819
69233W        W32792   8.738  10.313  13.954
69234W        W32793  27.106  11.791   4.824
69235W        W32794  27.019  26.526   5.171
69236W        W32795  43.305  33.130  14.887
69237W        W32796  27.625  42.887   3.276
69238W        W32797   9.696  33.941  13.399
69239W        W32798  20.523  30.502  12.392
69240W        W32799  18.084  30.026  11.098
69241W        W32800  13.333   4.941   3.347
69242W        W32801  23.201  22.224   1.280
69243W        W32802  15.629  40.922  11.029
69244W        W32803  44.812  36.436  14.504
69245W        W32804  24.044  43.481   4.829
69246W        W32805  24.629  21.709  11.090
69247W        W32806  20.099  30.570   0.289
69248W        W32807  30.132   6.416  14.855
69249W        W32808  34.378  26.560  12.833
69250W        W32809   7.238  17.122   2.204
69251W        W32810  27.490   7.757  11.438
69252W        W32811  18.072  44.773  11.859
69253W        W32812  28.657   9.714  14.509
69254W        W32813   9.337   3.739   2.290
69255W        W32814   0.982  24.121  13.926
69256W        W32815  24.656  19.046  10.492
69257W        W32816  11.138   7.706  14.901
69258W        W32817  25.115  34.903   5.209
69259W        W32818  37.432  19.587   4.609
69260W        W32819   3.450  14.734  12.832
69261W        W32820  15.185   1.366   1.384
69262W        W32821  29.132  43.889   2.688
69263W        W32822   6.301  21.610   4.191
69264W        W32823  21.690   8.816  14.396
69265W        W32824  35.869  30.989  14.013
69266W        W32825  35.870  14.322  11.960
69267W        W32826  33.084   4.787  11.483
69268W        W32827  44.378  19.538   0.847
69269W        W32828  17.127   0.430   3.250
69270W        W32829  39.827  40.848  14.936
69271W        W32830  23.097  37.363   0.944
69272W        W32831   5.373  16.668  12.482
69273W        W32832   2.791  36.431   3.821
69274W        W32833  15.591   7.203  12.033
69275W        W32834  16.311  14.749  12.872
69276W        W32835   1.811  42.916   4.264
69277W        W32836   4.370  24.536  12.998
69278W        W32837  31.109   5.693  14.414
69279W        W32838  38.380  37.041   1.212
69280W        W32839  38.557  26.078  14.960
69281W        W32840  35.414   7.824   2.889
69282W        W32841  32.143  40.418  11.488
69283W        W32842  10.686  22.642   1.798
69284W        W32843  12.305  42.929   1.825
69285W        W32844  38.930  22.169  10.578
69286W        W32845  43.305  14.109   1.831
69287W        W32846  13.201  22.506  12.489
69288W        W32847  30.655  30.053   3.825
69289W        W32848  12.277  38.503   0.869
69290W        W32849  19.121  34.920  14.341
69291W        W32850  38.419  28.036  10.584
69292W        W32851   2.915  20.605  12.079
69293W        W32852   1.376  18.662   1.277
69294W        W32853  14.325  12.355   1.809
69295W        W32854  27.529  11.732   3.683
69296W        W32855  10.289  33.513  13.030
69297W        W32856   0.397  11.840  11.903
69298W        W32857  15.287   6.348  11.048
69299W        W32858  17.800  25.553   3.153
69300W        W32859  18.786  21.092  13.403
69301W        W32860  27.515   5.761  13.970
69302W        W32861  13.258  32.474   3.154
69303W        W32862  44.853  29.522   2.744
69304W        W32863  23.552  39.917  12.415
69305W        W32864  36.554  31.539   3.851
69306W        W32865   8.398  15.251   4.788
69307W        W32866  23.675  28.998   9.965
69308W        W32867   2.847  32.528  12.981
69309W        W32868  16.806  19.641  14.426
69310W        W32869  39.858  12.191  11.447
69311W        W32870  43.992  25.965   3.372
69312W        W32871  21.041  40.008   1.806
69313W        W32872  35.462  17.143  12.529
69314W        W32873  12.628   8.241  13.544
69315W        W32874  31.415  34.924  11.983
69316W        W32875  33.104  19.542   3.310
69317W        W32876  12.843  35.389   1.863
69318W        W32877  30.521  32.479  13.538
69319W        W32878  35.512   2.343  12.062
69320W        W32879  22.092  11.184   0.961
69321W        W32880  43.283   5.776  12.895
69322W        W32881  13.722  42.323   2.725
69323W        W32882  32.512  28.581  11.487
69324W        W32883   8.718  11.131  11.591
69325W        W32884   1.874  15.742   1.916
69326W        W32885  33.548  25.182  12.007
69327W        W32886  12.330  40.828  13.863
69328W        W32887  24.576  40.547   4.152
69329W        W32888  38.874   8.716   0.437
69330W        W32889  37.085   9.383   2.198
69331W        W32890  21.147  18.684   3.365
69332W        W32891  33.130  22.590  11.106
69333W        W32892  15.181  13.201   1.379
69334W        W32893  35.561  28.615   0.359
69335W        W32894  34.600  30.512   3.259
69336W        W32895   0.292  35.975  13.538
69337W        W32896   4.438  13.276   4.247
69338W        W32897  21.026   4.933  11.504
69339W        W32898  23.165   6.381  10.530
69340W        W32899   7.817  13.298  13.410
69341W        W32900  32.573  34.392   3.326
69342W        W32901  18.262  33.515  14.959
69343W        W32902  26.697  41.012   3.259
69344W        W32903  27.030  14.616  10.952
69345W        W32904   1.939  37.504  13.946
69346W        W32905  18.631   9.828   1.237
69347W        W32906  38.883  44.917  11.106
69348W        W32907  27.641  14.632  14.774
69349W        W32908   1.733  30.015   2.805
69350W        W32909   3.759   2.288  14.840
69351W        W32910  18.094  26.512   1.876
69352W        W32911  37.409  19.178   1.429
69353W        W32912   1.914  31.567   0.885
69354W        W32913  34.071  10.379   0.730
69355W        W32914  38.988  12.834  14.285
69356W        W32915  23.126  27.632  12.955
69357W        W32916   7.819  28.946  11.908
69358W        W32917   4.266  39.885   0.244
69359W        W32918  20.270  13.764  10.418
69360W        W32919  32.512  27.464   4.755
69361W        W32920  32.914  39.938   0.894
69362W        W32921  36.974  26.678   4.124
69363W        W32922  40.975   2.772   0.947
69364W        W32923  24.203  13.806   3.710
69365W        W32924  30.491  20.667   4.680
69366W        W32925  11.369  18.568   2.207
69367W        W32926  13.654   2.334   0.754
69368W        W32927   9.302  36.869   2.267
69369W        W32928  17.277  11.846   3.280
69370W        W32929  23.204   8.181  11.519
69371W        W32930   4.439  44.469   2.191
69372W        W32931  26.138   1.957   2.199
69373W        W32932   9.696  15.161   2.802
69374W        W32933  24.070  10.152   1.783
69375W        W32934  26.953   0.456   2.236
69376W        W32935  34.406  43.488   2.758
69377W        W32936  41.000  43.969  11.373
69378W        W32937  41.029   2.955  12.958
69379W        W32938  15.224  36.963   3.249
69380W        W32939  23.104  10.211   2.332
69381W        W32940   0.961  35.564  13.872
69382W        W32941  41.334  40.013   3.849
69383W        W32942   2.454   3.312   2.876
69384W        W32943   4.867  44.916  13.889
69385W        W32944  12.767   8.865   0.810
69386W        W32945  26.951  38.951   4.194
69387W        W32946   1.287  18.649   3.226
69388W        W32947  43.455  12.769   2.774
69389W        W32948   4.827  12.811   3.839
69390W        W32949   6.711   0.415  11.544
69391W        W32950   2.836   7.741  11.374
69392W        W32951  18.092   2.337   2.351
69393W        W32952  12.851  37.418   3.864
69394W        W32953   4.301  20.726   4.307
69395W        W32954  13.232  39.042   9.995
69396W        W32955  18.138  28.493   0.833
69397W        W32956  19.698  30.156  13.866
69398W        W32957  30.950   8.849  11.503
69399W        W32958  18.791  17.264  11.587
69400W        W32959  17.121  41.915   1.425
69401W        W32960  18.702  28.518  12.836
69402W        W32961  20.750  42.368  14.934
69403W        W32962  42.001  25.679  14.766
69404W        W32963  31.062  25.049  12.994
69405W        W32964  43.319   0.259   2.280
69406W        W32965  44.473  36.935   4.700
69407W        W32966  20.072   1.442   1.417
69408W        W32967  40.822  24.048  12.059
69409W        W32968   7.254   9.718  14.311
69410W        W32969  14.631   5.301   4.123
69411W        W32970   2.270   2.758   2.376
69412W        W32971  34.398   7.670  14.978
69413W        W32972  33.624  33.915   0.402
69414W        W32973  42.780  23.733   0.245
69415W        W32974  23.092   8.846   4.704
69416W        W32975  36.040  21.117   4.297
69417W        W32976  21.126  25.184  14.897
69418W        W32977  19.112   7.414   2.197
69419W        W32978  34.102  13.253  14.798
69420W        W32979  44.446  30.450  13.377
69421W        W32980  35.877   9.194   4.138
69422W        W32981  22.538   7.820  10.888
69423W        W32982  23.153  30.486   3.201
69424W        W32983  40.981  25.981  12.536
69425W        W32984  25.572  26.029  13.377
69426W        W32985  22.240  24.075   1.866
69427W        W32986  22.700  42.316  13.383
69428W        W32987  30.154  36.386   2.785
69429W        W32988  20.155   5.818   4.620
69430W        W32989  22.044  35.564   4.273
69431W        W32990  43.992  16.261  11.999
69432W        W32991  43.409  20.681  12.459
69433W        W32992  42.845   0.822  13.317
69434W        W32993  43.914  44.480   4.326
69435W        W32994  38.488  42.004   2.250
69436W        W32995  31.634   7.773   0.320
69437W        W32996  13.805  20.627   1.891
69438W        W32997  24.577  26.082   3.211
69439W        W32998   5.828  22.189   3.246
69440W        W32999  10.762  43.322  10.978
69441W        W33000   4.307  37.520  11.542
69442W        W33001  32.044  32.634  11.464
69443W        W33002  28.097  23.597   2.413
69444W        W33003  31.059  35.561   4.636
69445W        W33004  22.571   8.861   2.765
69446W        W33005  40.343  24.040   5.138
69447W        W33006   5.810  40.334  10.457
69448W        W33007  19.567  14.674   1.299
69449W        W33008  42.359  41.484   3.781
69450W        W33009  21.651  14.319  13.902
69451W        W33010  41.338  10.870  14.403
69452W        W33011  12.850  14.301   1.811
69453W        W33012   9.148  38.942  10.561
69454W        W33013  15.769   4.891  12.344
69455W        W33014   2.340  19.055  12.960
69456W        W33015   0.468  44.821   1.849
69457W        W33016  37.499  27.073  12.505
69458W        W33017  36.463  23.647   2.187
69459W        W33018  33.557   3.258   0.845
69460W        W33019  42.424  33.076   1.363
69461W        W33020   7.195  31.964   2.902
69462W        W33021  26.065  30.498  14.843
69463W        W33022   3.282   6.422   2.343
69464W        W33023  32.971  23.217  12.954
69465W        W33024   5.791  35.947  13.318
69466W        W33025  18.178  16.567  14.953
69467W        W33026   4.445  30.621   3.768
69468W        W33027  22.683  10.186  14.895
69469W        W33028  33.899  19.661  11.877
69470W        W33029  28.506  33.122  12.408
69471W        W33030  22.078  10.646   3.685
69472W        W33031  15.155  11.134  14.765
69473W        W33032  11.819   9.644  13.810
69474W        W33033  18.117  33.061   0.479
69475W        W33034   0.881  18.612   3.356
69476W        W33035   5.284  33.020  14.979
69477W        W33036  15.756  36.956  13.827
69478W        W33037  34.870  23.181   1.849
69479W        W33038  14.613  18.147  13.957
69480W        W33039   7.863  34.395   4.270
69481W        W33040  23.143   6.735  14.364
69482W        W33041   7.677  14.099  10.936
69483W        W33042  18.257   0.877  14.887
69484W        W33043   8.739  26.178  14.828
69485W        W33044  29.109  32.391   0.425
69486W        W33045  35.858   6.904  10.484
69487W        W33046  43.407  15.586   0.465
69488W        W33047  24.636   4.300  11.459
69489W        W33048  40.882  37.033   2.217
69490W        W33049  14.320  12.267   4.628
69491W        W33050  40.899  32.439   9.521
69492W        W33051  18.624  29.066   0.336
69493W        W33052   4.804  44.989  11.922
69494W        W33053  35.894  37.436   0.779
69495W        W33054   0.865  17.101  13.028
69496W        W33055   6.737  43.500   0.342
69497W        W33056  37.453  37.941  13.837
69498W        W33057   2.786   9.872   3.244
69499W        W33058  19.658  20.602   3.233
69500W        W33059  23.019  40.383  14.323
69501W        W33060  22.683  35.907   3.267
69502W        W33061  33.474  24.608   1.359
69503W        W33062  39.052  36.852   1.409
69504W        W33063  23.214  44.781  10.415
69505W        W33064  25.646  42.971  14.436
69506W        W33065  16.588   8.402   0.821
69507W        W33066  21.245  21.585  11.595
69508W        W33067  42.486  28.133   0.442
69509W        W33068   1.326  34.571  12.398
69510W        W33069  29.477  35.367  12.921
69511W        W33070   9.814  16.572   0.417
69512W        W33071   8.393  21.255  13.033
69513W        W33072  16.160   0.286  14.460
69514W        W33073  43.349  41.890  13.364
69515W        W33074   7.712  25.152   1.273
69516W        W33075  15.745   8.873   5.184
69517W        W33076   7.703   5.693  11.581
69518W        W33077  30.619  24.697  10.491
69519W        W33078  29.952  23.144   5.672
69520W        W33079  14.629  17.710   0.457
69521W        W33080  42.472  30.455  11.120
69522W        W33081  33.948  15.235   2.887
69523W        W33082  27.996  30.987  13.500
69524W        W33083   9.254  36.041   0.262
69525W        W33084  28.037  32.397   0.284
69526W        W33085  21.604  36.056  11.454
69527W        W33086  36.520  24.480   4.597
69528W        W33087  12.846   5.787  14.302
69529W        W33088  13.659  44.829  11.892
69530W        W33089  29.076   4.877   3.740
69531W        W33090  44.795  44.847   4.661
69532W        W33091  23.143  36.982  10.629
69533W        W33092  23.643  26.990  13.532
69534W        W33093  41.033  15.792   0.397
69535W        W33094  16.751  40.395  14.859
69536W        W33095  17.215  23.684  14.503
69537W        W33096  26.657  33.047  11.962
69538W        W33097   8.321  19.205  10.942
69539W        W33098  38.019  42.520  10.993
69540W        W33099  39.019   1.268  12.043
69541W        W33100  34.481  26.962   0.395
69542W        W33101  28.639  28.472   1.783
69543W        W33102  11.702   4.711   0.757
69544W        W33103   2.762  11.779  12.083
69545W        W33104   3.352  37.454   4.710
69546W        W33105  16.758   6.745  12.532
69547W        W33106  38.483  26.680  13.006
69548W        W33107  12.207   6.748   4.319
69549W        W33108  42.018  19.183  14.804
69550W        W33109  26.020  23.024  14.454
69551W        W33110  24.664  42.820   2.885
69552W        W33111  18.103  31.999   1.901
69553W        W33112  33.407  41.936  14.489
69554W        W33113  30.162  24.677   4.209
69555W        W33114  44.306   9.257  11.495
69556W        W33115  18.711  24.178   2.189
69557W        W33116   0.945  33.115   3.287
69558W        W33117  15.663  11.175  12.075
69559W        W33118  44.497  28.530   1.874
69560W        W33119  12.802  22.250  10.620
69561W        W33120  11.725   5.247   0.453
69562W        W33121   4.303  40.026  11.373
69563W        W33122  11.643   0.446  14.811
69564W        W33123  43.977   3.313   2.311
69565W        W33124   2.909  29.463  11.513
69566W        W33125  27.016  34.896  12.414
69567W        W33126  41.323  14.683  14.371
69568W        W33127   0.480  20.121  12.901
69569W        W33128  21.110  16.766   2.774
69570W        W33129  40.833  39.319   1.805
69571W        W33130  28.949  25.993  12.428
69572W        W33131  28.009  12.712   2.855
69573W        W33132  23.239  43.414   1.746
69574W        W33133  17.257  32.417   3.826
69575W        W33134  15.725  23.102  12.980
69576W        W33135  41.949  21.211   1.766
69577W        W33136  19.627   6.189   2.242
69578W        W33137  22.100   1.460  11.050
69579W        W33138  20.124  25.042   3.630
69580W        W33139  15.635  25.022  14.807
69581W        W33140  28.956  37.523   4.309
69582W        W33141   3.347  37.016  10.981
69583W        W33142  17.111  20.115   4.209
69584W        W33143  25.068  38.543  13.822
69585W        W33144  16.658  19.557  13.333
69586W        W33145  23.693  26.461   3.687
69587W        W33146  33.960   0.388   2.334
69588W        W33147  19.181  33.962  14.359
69589W        W33148  22.136   2.773  10.472
69590W        W33149  22.998  27.110  12.089
69591W        W33150  40.859   6.772  14.962
69592W        W33151  40.032   5.261   1.399
69593W        W33152  32.940  15.656   3.827
69594W        W33153  10.347  18.078  12.434
69595W        W33154  41.439   1.257   1.319
69596W        W33155  17.074  14.641   4.193
69597W        W33156  13.680  21.596   3.289
69598W        W33157   2.827   7.269   4.244
69599W        W33158  25.113  11.671   5.285
69600W        W33159  40.045  34.538  13.926
69601W        W33160   4.903   2.951  12.531
69602W        W33161  39.836  10.224   1.220
69603W        W33162   2.879  42.862  12.831
69604W        W33163  10.878  27.599   4.309
69605W        W33164   1.284   2.806   1.292
69606W        W33165  35.862  36.361   2.849
69607W        W33166  25.028  35.026   3.804
69608W        W33167   6.420  36.883   0.292
69609W        W33168  26.640  28.001  13.546
69610W        W33169  33.978  14.830  12.394
69611W        W33170  14.762  30.452   9.999
69612W        W33171  42.900  35.573  11.953
69613W        W33172  19.073  34.610  12.339
69614W        W33173   7.804  44.465  11.384
69615W        W33174  22.017  18.628   3.307
69616W        W33175  22.210   0.748  12.013
69617W        W33176  23.158  39.384  12.414
69618W        W33177   7.715   5.372   2.286
69619W        W33178  34.407  26.957   4.801
69620W        W33179  25.709  31.978   5.233
69621W        W33180  40.945  30.925   4.806
69622W        W33181  35.030   0.776   4.717
69623W        W33182  16.266  18.565  10.561
69624W        W33183  25.684  22.180   4.263
69625W        W33184  30.467  36.450  12.905
69626W        W33185   7.413  41.959  12.028
69627W        W33186  37.369  33.493   0.883
69628W        W33187  16.301   4.435  10.476
69629W        W33188  31.413  14.208   1.916
69630W        W33189  40.376   3.378  10.951
69631W        W33190  15.195  43.964   4.705
69632W        W33191  25.123  37.465  12.530
69633W        W33192  40.418  32.427  12.083
69634W        W33193  37.514  29.965  10.957
69635W        W33194   8.898   4.932   4.814
69636W        W33195  24.138  32.902   0.855
69637W        W33196  38.502  36.517  10.508
69638W        W33197  10.804  12.171  11.524
69639W        W33198  24.016  17.102   5.129
69640W        W33199  38.849  23.502   0.782
69641W        W33200  26.006  33.919   0.343
69642W        W33201  29.444  30.544   4.629
69643W        W33202   9.857  18.670  14.985
69644W        W33203  17.586  18.278  13.950
69645W        W33204  42.495  37.911   4.159
69646W        W33205  44.372  23.550   3.804
69647W        W33206  43.924  11.192  10.455
69648W        W33207  25.685  31.082  11.105
69649W        W33208  21.158  42.888   1.381
69650W        W33209  32.595   0.890   0.375
69651W        W33210   7.826  24.146   3.853
69652W        W33211   3.418  38.359  10.468
69653W        W33212   0.379   0.825  12.872
69654W        W33213  17.592  42.800  10.020
69655W        W33214  20.534  10.706   4.773
69656W        W33215  15.711  44.835   3.856
69657W        W33216  11.623  26.004   0.404
69658W        W33217   4.262  39.420  12.014
69659W        W33218  37.991  33.491  12.903
69660W        W33219  24.988  35.015   1.306
69661W        W33220  30.615  28.475  13.033
69662W        W33221   9.285  17.690  11.441
69663W        W33222   1.786  22.595   4.640
69664W        W33223  31.491   0.401   2.274
69665W        W33224  10.258  44.281  14.474
69666W        W33225  20.071   1.934   9.934
69667W        W33226   2.383  43.999   2.716
69668W        W33227  16.733   7.721  12.853
69669W        W33228  16.211  33.897  10.462
69670W        W33229   5.744  31.089   3.709
69671W        W33230   4.834  22.042  14.967
69672W        W33231  38.952  22.209   0.468
69673W        W33232  38.385  33.465  13.511
69674W        W33233  44.948   4.779  13.335
69675W        W33234   5.326  42.302   1.346
69676W        W33235   4.309   0.298   4.699
69677W        W33236  24.655  24.687  11.549
69678W        W33237   9.807  13.809   2.748
69679W        W33238  15.634  41.456   1.433
69680W        W33239  38.894  23.574   0.286
69681W        W33240  41.945  42.378   3.202
69682W        W33241  39.554  23.099   2.210
69683W        W33242  44.394  22.069   4.198
69684W        W33243   1.322  33.438   0.865
69685W        W33244  25.157  41.901  11.000
69686W        W33245   6.814  22.229  14.475
69687W        W33246  44.364  19.582   4.825
69688W        W33247  35.044  37.037  10.614
69689W        W33248   4.763  13.781  10.636
69690W        W33249   1.350  12.636   3.152
69691W        W33250  43.301  36.018  12.933
69692W        W33251  42.906   1.330  14.010
69693W        W33252   2.259  13.245  11.591
69694W        W33253  12.219  22.150   2.264
69695W        W33254   1.776   2.340   1.815
69696W        W33255  16.678  22.039   0.833
69697W        W33256  42.506  40.981  13.327
69698W        W33257  35.439  12.715  14.454
69699W        W33258   5.837  28.448   1.798
69700W        W33259  10.714  34.085  12.895
69701W        W33260   2.733  39.429   1.754
69702W        W33261   1.359  26.130  13.900
69703W        W33262   0.426  38.892  12.520
69704W        W33263  39.485  30.944  14.874
69705W        W33264  16.604  43.450  13.987
69706W        W33265  11.766  34.875  13.347
69707W        W33266   7.198  18.254  12.915
69708W        W33267  39.985  43.464   4.744
69709W        W33268  26.616   9.358   1.912
69710W        W33269   1.250  14.233  14.484
69711W        W33270  11.192  36.404  11.975
69712W        W33271  19.642  17.265   1.910
69713W        W33272  40.314  41.362  10.420
69714W        W33273  19.664  13.350  12.879
69715W        W33274   6.220  43.984  12.064
69716W        W33275  21.152  23.689  13.058
69717W        W33276  12.657  25.710  13.860
69718W        W33277  17.700  30.105  10.901
69719W        W33278  12.248  39.340   4.276
69720W        W33279   2.247  29.101  13.924
69721W        W33280  33.512  35.993  14.307
69722W        W33281  30.581  33.607  12.838
69723W        W33282   0.398  31.001   3.151
69724W        W33283  23.087  12.725   3.147
69725W        W33284  10.230   4.298  11.075
69726W        W33285  24.671  22.034   0.402
69727W        W33286  28.012  13.708   2.731
69728W        W33287  21.019   2.443   4.616
69729W        W33288   5.927  22.666  11.376
69730W        W33289   4.317   4.339  11.911
69731W        W33290   5.750  13.708  11.552
69732W        W33291  10.632  42.486   3.673
69733W        W33292   6.827  10.199  14.818
69734W        W33293  28.544  28.443   4.294
69735W        W33294   1.811   8.680   4.282
69736W        W33295  16.211  19.160  14.769
69737W        W33296   3.885  16.713  11.975
69738W        W33297  34.953  35.909   4.707
69739W        W33298  40.501  19.137   2.282
69740W        W33299   7.262  17.562  12.832
69741W        W33300  24.975  31.441   0.898
69742W        W33301  18.571  18.091  10.474
69743W        W33302   9.712  10.200  13.531
69744W        W33303  44.799   9.748  11.913
69745W        W33304   7.400  16.100  13.922
69746W        W33305   7.827  30.499   0.840
69747W        W33306  27.089   8.329   2.363
69748W        W33307  37.876   0.446  11.395
69749W        W33308   6.705  41.987  11.589
69750W        W33309  19.553  42.959  12.423
69751W        W33310  31.912   8.792   1.846
69752W        W33311  35.377  11.224   1.334
69753W        W33312  41.812   1.280  13.464
69754W        W33313  30.154  37.930  11.056
69755W        W33314  14.595  15.725   1.287
69756W        W33315   7.816  41.495   4.321
69757W        W33316  18.565  25.633   4.672
69758W        W33317   6.812  41.467   4.340
69759W        W33318  23.159  13.121   1.724
69760W        W33319   6.845  23.134   0.411
69761W        W33320   1.405  22.103   4.728
69762W        W33321  38.391   0.283   4.163
69763W        W33322  30.549  28.142  14.372
69764W        W33323  18.117   0.834   2.417
69765W        W33324  38.907  26.146  14.281
69766W        W33325  32.081  38.056  12.077
69767W        W33326  37.875  32.397  10.926
69768W        W33327  10.804  26.548   2.829
69769W        W33328  41.446   7.816   1.247
69770W        W33329  35.438  37.927  14.383
69771W        W33330  24.014  44.317   0.813
69772W        W33331  29.029  39.056  13.960
69773W        W33332  19.106  42.366   2.403
69774W        W33333  21.261  13.805   2.217
69775W        W33334   2.459  22.529  11.875
69776W        W33335   0.481  41.440   3.647
69777W        W33336  44.327  25.971  13.845
69778W        W33337   9.860  29.636  10.633
69779W        W33338  17.774  24.542   3.155
69780W        W33339  26.469  24.695   1.726
69781W        W33340  16.143  39.840   0.380
69782W        W33341  29.014  28.614   1.340
69783W        W33342  13.273   4.265  12.528
69784W        W33343  36.987  33.986  12.920
69785W        W33344  31.612   7.720  13.050
69786W        W33345  16.613  22.613   1.812
69787W        W33346  20.668  36.569  10.964
69788W        W33347  10.262   1.337  12.022
69789W        W33348  41.032  22.067  12.887
69790W        W33349  25.078  31.092  10.480
69791W        W33350  35.898  25.032  13.446
69792W        W33351  19.598  29.141  14.001
69793W        W33352  13.832  22.191   4.147
69794W        W33353   2.467  12.674   2.794
69795W        W33354  39.485  34.982   0.333
69796W        W33355  39.050  42.981   0.320
69797W        W33356   8.283  33.530  12.526
69798W        W33357  11.838  24.036   4.333
69799W        W33358  20.716   5.791   2.788
69800W        W33359  41.873  18.758  12.519
69801W        W33360   1.304   9.865   4.153
69802W        W33361  39.851  37.863  11.441
69803W        W33362  20.029  16.254   4.181
69804W        W33363   3.245  26.044  12.012
69805W        W33364  33.974  19.173  14.877
69806W        W33365   9.304  19.274  14.809
69807W        W33366  14.811  19.717  14.968
69808W        W33367  35.986  10.379   1.903
69809W        W33368  13.672  31.098   1.336
69810W        W33369  13.213  30.944  11.068
69811W        W33370   8.320  19.695   1.730
69812W        W33371   5.368   6.852   2.727
69813W        W33372  15.814   9.709  13.526
69814W        W33373  36.479  28.967  14.327
69815W        W33374  22.040  36.020   4.718
69816W        W33375  35.065  44.270  14.957
69817W        W33376  25.617  38.835  13.340
69818W        W33377  17.649  14.674  14.012
69819W        W33378   6.780  25.596   0.815
69820W        W33379  35.108  18.228   1.766
69821W        W33380  16.237   8.297  13.859
69822W        W33381  24.718  42.507   3.314
69823W        W33382   7.748  28.655  14.312
69824W        W33383  26.491  31.500   1.306
69825W        W33384  25.185  10.648   2.746
69826W        W33385  35.020  30.489   3.823
69827W        W33386  41.019  10.870  14.792
69828W        W33387  33.389  18.252  13.853
69829W        W33388  40.394  32.897   4.335
69830W        W33389  11.729  40.545   5.212
69831W        W33390   4.924  14.697   3.659
69832W        W33391  29.027   2.955   0.396
69833W        W33392  33.932  29.593  11.999
69834W        W33393   4.286  40.933  11.080
69835W        W33394  21.079  39.531  12.078
69836W        W33395  15.701  38.045  11.971
69837W        W33396  27.687   3.222  10.406
69838W        W33397  19.089  19.742  12.043
69839W        W33398  36.388  34.081  12.042
69840W        W33399   6.866  35.002   4.714
69841W        W33400  14.669   4.439   3.835
69842W        W33401  30.502  19.191  12.345
69843W        W33402  19.152  25.975   3.772
69844W        W33403  42.884  12.148   0.335
69845W        W33404   6.719  29.998   0.451
69846W        W33405  38.467  18.206  14.031
69847W        W33406   8.665   7.306  10.419
69848W        W33407  30.004  37.365  14.390
69849W        W33408  32.616  34.002  11.123
69850W        W33409  17.198  13.230  12.921
69851W        W33410  26.550  23.119  13.471
69852W        W33411   6.375   4.424   4.278
69853W        W33412   7.196   4.934  13.424
69854W        W33413  43.458   1.876  11.927
69855W        W33414  40.374   7.191  14.842
69856W        W33415  43.859  17.254   4.619
69857W        W33416  40.391  25.639   4.222
69858W        W33417  20.539  26.986  13.805
69859W        W33418  25.166   8.387  14.509
69860W        W33419  23.070  11.214   2.412
69861W        W33420  31.114  18.227  13.372
69862W        W33421  43.955  39.897  12.871
69863W        W33422  19.240  33.016   4.614
69864W        W33423   0.855   2.452  10.471
69865W        W33424  40.349  43.779  12.965
69866W        W33425  37.339  22.744   0.815
69867W        W33426  21.715  38.950   1.416
69868W        W33427  17.186  11.199  10.451
69869W        W33428  39.005  35.373   3.315
69870W        W33429  30.435  44.352  14.984
69871W        W33430  23.718  24.681  10.489
69872W        W33431  12.785  33.483   4.619
69873W        W33432  23.083  44.857  13.900
69874W        W33433  36.403  25.082   2.709
69875W        W33434  43.819  31.046  14.785
69876W        W33435  17.091  18.158  12.036
69877W        W33436  37.533  11.623   1.346
69878W        W33437  21.141  37.383  14.955
69879W        W33438  16.620   4.840   0.964
69880W        W33439  26.649  30.940  10.414
69881W        W33440  19.191  13.162   1.426
69882W        W33441   5.879  31.452   1.415
69883W        W33442  44.972  33.096   1.273
69884W        W33443  32.947  21.263   1.331
69885W        W33444  26.600  10.258  12.514
69886W        W33445   7.681  13.634  14.352
69887W        W33446  23.100   1.398   1.774
69888W        W33447  18.200  34.378   1.352
69889W        W33448   4.930  28.034   4.328
69890W        W33449  44.913   7.857   4.744
69891W        W33450   1.361  40.471   3.170
69892W        W33451  39.505   6.234  10.427
69893W        W33452  39.865  33.018   2.739
69894W        W33453  36.460   4.410  10.520
69895W        W33454  12.759  27.144  13.867
69896W        W33455   0.766  43.375  13.871
69897W        W33456  40.548  41.390   1.386
69898W        W33457   4.272  14.711   3.669
69899W        W33458  11.311  32.553  11.986
69900W        W33459  34.072  10.778   4.227
69901W        W33460  16.811  12.714  10.460
69902W        W33461  32.912  38.933   1.819
69903W        W33462   7.781   1.796   3.687
69904W        W33463   9.703  34.895  10.957
69905W        W33464  26.537   8.672   0.831
69906W        W33465  39.941   7.312   4.774
69907W        W33466  44.841  32.040   3.867
69908W        W33467  36.926  27.998   1.874
69909W        W33468  39.971  24.608  10.447
69910W        W33469  27.111  44.417   0.367
69911W        W33470  11.153  36.013   5.731
69912W        W33471  11.286  12.815   4.660
69913W        W33472   2.734  20.544  13.338
69914W        W33473  10.288   0.266  12.354
69915W        W33474  23.664  35.032  10.951
69916W        W33475  12.356  44.916  12.399
69917W        W33476  41.314  38.428  11.406
69918W        W33477   0.815  40.823   1.831
69919W        W33478  34.871   9.756  14.844
69920W        W33479  12.663  30.912  11.424
69921W        W33480  21.023  34.054   0.770
69922W        W33481  13.169  32.919  10.602
69923W        W33482  14.828   5.370  11.568
69924W        W33483   3.769  43.333   3.689
69925W        W33484  30.006  37.948   2.392
69926W        W33485   8.832  34.000  11.878
69927W        W33486  20.217   6.311   0.863
69928W        W33487  35.031   4.732  13.447
69929W        W33488  22.675  20.067  13.921
69930W        W33489  30.540  10.739  11.888
69931W        W33490  14.731  17.202   1.337
69932W        W33491  23.177  11.179   0.421
69933W        W33492  23.684  27.585  13.380
69934W        W33493  16.663   9.296   3.377
69935W        W33494  44.783  43.005   0.352
69936W        W33495   5.404  36.554   4.306
69937W        W33496  23.008  15.740  14.301
69938W        W33497   5.290  15.095   3.684
69939W        W33498   1.402   1.794   0.366
69940W        W33499  28.568  13.199   1.777
69941W        W33500   0.381  28.643  10.437
69942W        W33501  27.688  29.096   4.783
69943W        W33502  10.268  19.154  12.374
69944W        W33503  29.029  24.481  12.829
69945W        W33504   7.223  41.332  12.514
69946W        W33505  19.273  25.544  12.028
69947W        W33506  17.651  13.157   0.965
69948W        W33507  10.666   8.366  14.344
69949W        W33508  17.731  18.193  12.569
69950W        W33509   0.489  39.027   1.827
69951W        W33510   0.938  17.256   3.234
69952W        W33511  14.112  23.651  12.544
69953W        W33512  35.875  10.764   0.359
69954W        W33513  18.254  35.398  14.963
69955W        W33514   7.376  20.205  10.624
69956W        W33515  12.703  14.742   0.374
69957W        W33516  20.673  36.558   0.828
69958W        W33517  44.273  39.901   4.660
69959W        W33518  35.958  30.465   3.845
69960W        W33519  16.753  34.055  11.070
69961W        W33520  35.519   5.199  12.868
69962W        W33521  38.841  11.828   3.364
69963W        W33522   5.377  15.681   2.716
69964W        W33523  23.097   3.727   1.831
69965W        W33524  13.307  44.965  11.923
69966W        W33525  10.272  21.220  10.134
69967W        W33526   9.286  15.777   0.841
69968W        W33527  13.786   4.290  13.975
69969W        W33528   2.422  19.189   0.817
69970W        W33529  40.513   0.979  14.900
69971W        W33530  32.010  18.238   3.354
69972W        W33531  26.107  42.954  10.922
69973W        W33532  25.705   8.798   0.316
69974W        W33533  10.777  18.187   5.212
69975W        W33534  28.118  44.346   1.698
69976W        W33535   4.233  25.660   3.333
69977W        W33536  32.128  33.496  11.515
69978W        W33537  39.418  24.589  13.824
69979W        W33538   7.278  43.340  14.954
69980W        W33539  38.841   0.910  11.517
69981W        W33540  38.570  26.056   3.835
69982W        W33541  12.285   7.361   0.744
69983W        W33542  21.231   2.793   0.294
69984W        W33543  40.486   4.330  14.335
69985W        W33544   4.379  34.007  11.470
69986W        W33545   1.812   8.205   2.357
69987W        W33546  41.433   9.302   2.292
69988W        W33547  34.990   3.871  10.919
69989W        W33548  29.945   1.765  12.398
69990W        W33549  20.160  18.715  11.940
69991W        W33550  34.894   8.802  10.945
69992W        W33551  41.434  36.044   4.305
69993W        W33552  17.577  40.040  13.528
69994W        W33553  22.692  12.663   3.632
69995W        W33554  38.369  13.675   1.884
69996W        W33555  26.459  15.294  12.471
69997W        W33556  28.970  41.959   0.331
69998W        W33557  29.995  25.178  12.494
69999W        W33558  29.009   2.456   1.820
70000W        W33559   5.212   2.260  11.967
70001W        W33560   3.434  22.647   5.238
70002W        W33561  14.767  11.367   3.278
70003W        W33562  28.650  23.075  14.885
70004W        W33563  43.280  40.315  12.359
70005W        W33564  24.515  27.525  12.920
70006W        W33565   4.762  24.647  12.933
70007W        W33566   4.705  38.908  14.460
70008W        W33567  38.344   0.828   1.909
70009W        W33568  12.829   5.899  13.907
70010W        W33569  25.019  27.623   3.812
70011W        W33570  43.779  14.743  10.440
70012W        W33571  21.646   4.274   4.163
70013W        W33572  17.700  28.443   3.297
70014W        W33573  41.435  41.312   4.771
70015W        W33574  28.105   6.834  11.393
70016W        W33575  31.588  10.346  13.994
70017W        W33576  11.868  30.058  11.607
70018W        W33577  42.876  32.127  10.906
70019W        W33578  16.656  38.999  14.022
70020W        W33579   1.478   3.398  10.978
70021W        W33580  15.752  38.982   0.300
70022W        W33581  30.110   6.854  10.918
70023W        W33582  23.572   4.893   0.440
70024W        W33583   4.259  31.110   3.761
70025W        W33584   2.404  18.745  13.425
70026W        W33585  26.976  30.617   3.735
70027W        W33586   4.380   9.221   1.750
70028W        W33587  22.657  11.240  10.015
70029W        W33588   3.417  16.665  13.482
70030W        W33589   4.296  35.948   0.892
70031W        W33590   1.949   8.754   3.656
70032W        W33591  40.973  37.369  13.996
70033W        W33592   9.216  11.149  13.034
70034W        W33593  32.890   1.873  12.446
70035W        W33594  24.195   8.738   2.749
70036W        W33595  12.335   0.301   4.668
70037W        W33596   2.252   5.835  10.415
70038W        W33597   3.294  14.676   3.716
70039W        W33598  30.083  44.262   3.855
70040W        W33599  22.110   9.276   3.360
70041W        W33600  42.862  18.290   3.267
70042W        W33601   7.803  34.027   4.184
70043W        W33602  11.638  16.291  14.952
70044W        W33603  13.817  27.001   4.687
70045W        W33604  16.137  36.540  10.432
70046W        W33605  42.016   3.828   3.644
70047W        W33606  38.472  18.550   3.268
70048W        W33607  29.473  43.451  13.813
70049W        W33608  22.007  30.108   0.386
70050W        W33609   8.262  24.544   4.189
70051W        W33610   2.795   5.260   0.896
70052W        W33611   0.335  37.339   0.409
70053W        W33612  35.895   3.771  14.277
70054W        W33613  18.626   6.863   0.423
70055W        W33614  26.579  40.915  14.805
70056W        W33615  40.942  31.998  11.883
70057W        W33616  40.823  27.049   2.710
70058W        W33617  31.585   2.891  13.432
70059W        W33618   4.242   5.366  14.015
70060W        W33619  29.011  10.176  14.410
70061W        W33620  21.159   3.909   1.734
70062W        W33621  28.450   5.256   4.757
70063W        W33622  38.047  39.381   0.442
70064W        W33623  25.652  35.108   4.252
70065W        W33624  16.596  13.132  14.983
70066W        W33625  32.047  38.427   2.812
70067W        W33626  27.530  25.669   3.307
70068W        W33627   8.721   1.876   2.823
70069W        W33628  15.176  34.483   4.605
70070W        W33629   9.834   0.394  12.968
70071W        W33630   7.182  39.336   0.423
70072W        W33631  32.981   3.443   0.906
70073W        W33632   2.443  31.520  12.575
70074W        W33633  32.888  25.567   0.851
70075W        W33634   9.151  43.347   4.821
70076W        W33635  32.895  27.962  13.370
70077W        W33636   9.670  41.889   3.844
70078W        W33637   6.818  19.776  11.467
70079W        W33638  26.554  25.148  12.425
70080W        W33639  24.555  20.157   1.289
70081W        W33640  31.099  11.763  10.996
70082W        W33641  23.212  26.173  14.839
70083W        W33642  36.031   8.738  11.996
70084W        W33643  35.434  38.564   4.702
70085W        W33644  40.414   9.791  11.083
70086W        W33645  16.701   7.756  11.501
70087W        W33646  29.636  21.181  13.944
70088W        W33647  19.557   7.807   4.217
70089W        W33648   6.850  42.800   3.672
70090W        W33649  40.917  26.015   0.938
70091W        W33650  41.937   3.241   3.204
70092W        W33651  38.970  35.479   9.656
70093W        W33652  23.604  28.602   4.764
70094W        W33653  33.078  13.212   4.331
70095W        W33654   7.773   0.337   4.829
70096W        W33655  40.016  11.684  13.877
70097W        W33656   8.691  14.305   9.601
70098W        W33657  29.137  34.920   3.697
70099W        W33658   5.769   0.920   3.676
70100W        W33659  30.007  10.746  13.483
70101W        W33660  13.318  15.100  12.976
70102W        W33661  20.174  44.893   4.352
70103W        W33662  29.093  28.150   3.247
70104W        W33663  23.627  33.984   2.373
70105W        W33664  37.394  26.090   4.252
70106W        W33665  27.079  43.392  10.611
70107W        W33666  32.922  33.527   2.284
70108W        W33667  32.891   2.434   1.929
70109W        W33668   2.326  40.884  13.438
70110W        W33669  25.609  29.636  14.989
70111W        W33670  16.170  13.331  11.601
70112W        W33671  13.665   4.271  10.918
70113W        W33672  23.524  36.030  12.366
70114W        W33673  19.653  29.506   4.331
70115W        W33674  30.467   5.757   2.249
70116W        W33675  13.179  16.638   2.901
70117W        W33676   6.388  11.790  13.954
70118W        W33677  30.533   1.825   3.328
70119W        W33678  11.769  33.050  10.445
70120W        W33679  28.487  11.250   0.779
70121W        W33680  15.112  23.503  10.922
70122W        W33681   2.308  34.061  11.573
70123W        W33682  27.026  25.171  14.508
70124W        W33683  27.025   7.905  11.988
70125W        W33684  24.601  44.365  12.947
70126W        W33685  12.765  44.774   3.296
70127W        W33686  40.400   2.799   3.342
70128W        W33687  36.452  41.356  13.404
70129W        W33688  15.782  17.581   0.412
70130W        W33689  13.739  20.535   2.771
70131W        W33690   3.934  28.665   4.277
70132W        W33691   4.825  32.618  12.838
70133W        W33692  37.523  13.683   3.313
70134W        W33693  35.878   1.893  10.603
70135W        W33694  19.117  38.338   4.632
70136W        W33695   1.277  10.745   2.695
70137W        W33696  12.695   9.275   0.859
70138W        W33697  27.057  18.745   0.286
70139W        W33698  24.157   7.902  12.033
70140W        W33699  17.226  13.672  13.366
70141W        W33700  42.353  31.435   0.779
70142W        W33701  27.449   8.306   4.119
70143W        W33702  26.024  30.013  13.317
70144W        W33703  12.834   3.863  11.877
70145W        W33704  10.870  43.899   2.900
70146W        W33705   9.386  17.240   4.276
70147W        W33706  35.388  14.208  11.480
70148W        W33707  29.441  28.502  14.416
70149W        W33708  21.640  21.079   4.785
70150W        W33709  14.330  29.150   0.827
70151W        W33710  43.322   7.898   1.445
70152W        W33711  44.279  31.630   3.780
70153W        W33712  41.923  16.689   4.783
70154W        W33713  44.842  12.186  11.573
70155W        W33714  22.504  33.095  10.448
70156W        W33715  39.546  32.538   3.187
70157W        W33716  12.219  23.596  14.357
70158W        W33717   5.857   7.369   1.932
70159W        W33718  29.996  42.915  10.999
70160W        W33719  21.629  32.545  11.875
70161W        W33720   7.201  38.484  13.317
70162W        W33721  37.971  10.318   4.316
70163W        W33722   7.181  38.996  14.935
70164W        W33723  28.085  27.689   3.710
70165W        W33724  31.977  30.013  12.926
70166W        W33725  39.020  34.949  12.967
70167W        W33726  13.746  17.134  14.007
70168W        W33727  28.949  13.758   0.409
70169W        W33728  33.416  10.232   0.319
70170W        W33729  39.907  39.911   1.776
70171W        W33730  22.631  18.760  12.898
70172W        W33731  37.374  28.145  11.860
70173W        W33732  27.097  43.493   3.276
70174W        W33733  24.497  38.861  11.900
70175W        W33734   7.232  13.134   3.263
70176W        W33735  12.321   8.241  12.553
70177W        W33736  12.298  28.531  10.561
70178W        W33737  35.096  42.316   0.815
70179W        W33738  35.455  36.535   4.834
70180W        W33739  20.707  10.699   0.346
70181W        W33740  20.196   0.879   2.701
70182W        W33741  11.203  11.651  11.056
70183W        W33742  42.388  28.649  12.422
70184W        W33743  30.607  33.926  10.905
70185W        W33744  10.770   5.337   0.921
70186W        W33745  11.750  16.706   0.776
70187W        W33746  13.634   9.220   2.258
70188W        W33747  18.686  21.223   5.158
70189W        W33748   9.736   6.844  13.378
70190W        W33749  26.621  23.702   0.379
70191W        W33750  35.489  41.381   4.335
70192W        W33751  35.600   6.249   4.647
70193W        W33752   5.319  29.039  12.533
70194W        W33753  26.647   6.261   3.670
70195W        W33754   7.839  23.089  10.978
70196W        W33755  16.687  18.570   3.718
70197W        W33756   4.910  43.885  12.533
70198W        W33757  33.413  25.005  10.573
70199W        W33758  14.752   6.382   3.148
70200W        W33759   3.270  26.569  14.437
70201W        W33760  10.845   1.790   3.764
70202W        W33761  30.059  40.362   3.178
70203W        W33762  19.145  37.868  14.416
70204W        W33763  11.692   6.185   4.626
70205W        W33764  27.523  26.071  14.996
70206W        W33765   7.286  30.489   0.784
70207W        W33766  37.999  35.469   1.228
70208W        W33767   3.810  34.035   3.724
70209W        W33768  40.985  41.926  10.940
70210W        W33769   3.861  22.505  11.866
70211W        W33770  33.039  36.348   2.797
70212W        W33771  31.451  15.694   0.308
70213W        W33772  29.063  41.873  10.580
70214W        W33773  38.047  15.293  10.892
70215W        W33774  41.899  20.134   4.794
70216W        W33775   9.704  21.064  11.894
70217W        W33776   1.477  37.411  13.528
70218W        W33777  32.604  44.363  12.037
70219W        W33778  22.556  33.564   1.718
70220W        W33779  35.930   4.354   3.671
70221W        W33780   2.875  29.458  10.579
70222W        W33781  28.105  16.620   3.187
70223W        W33782   5.395   1.972   3.379
70224W        W33783  20.680  15.772  13.937
70225W        W33784  30.447  40.340   3.253
70226W        W33785  35.510  44.487  11.946
70227W        W33786  42.847  26.667  11.581
70228W        W33787  11.678  21.096  13.821
70229W        W33788  19.553  25.050   3.238
70230W        W33789  16.094  13.698   3.254
70231W        W33790  36.001  28.033   3.301
70232W        W33791  12.751  23.516   2.292
70233W        W33792  27.447  25.214   9.959
70234W        W33793  43.826  29.919   3.205
70235W        W33794  19.653  33.080  12.581
70236W        W33795  28.063  43.819  13.852
70237W        W33796  32.947  17.304  14.983
70238W        W33797   5.240  42.864   3.164
70239W        W33798  36.899  33.074   2.710
70240W        W33799  34.467   4.320  13.505
70241W        W33800   0.746  27.178  11.546
70242W        W33801  16.799  27.952  14.838
70243W        W33802   1.484  40.426  14.929
70244W        W33803  20.226  21.062  14.300
70245W        W33804  24.158  26.494   1.213
70246W        W33805   2.778   1.477   2.273
70247W        W33806  37.494  35.870  12.544
70248W        W33807  19.585  34.016  13.896
70249W        W33808  33.432  27.030  10.524
70250W        W33809  37.434  30.152   2.855
70251W        W33810  12.845  19.673   4.823
70252W        W33811   5.916  21.561  11.980
70253W        W33812  21.255   1.855   0.324
70254W        W33813  34.488  42.977  11.065
70255W        W33814   1.943  16.601  12.027
70256W        W33815  12.813  32.927   3.718
70257W        W33816  15.322  40.009   0.863
70258W        W33817  29.150  29.427  10.640
70259W        W33818  36.393   1.366   1.446
70260W        W33819  26.672   2.734   0.885
70261W        W33820  41.429   0.950  11.900
70262W        W33821  12.246  17.279   0.874
70263W        W33822   1.751  31.490   2.389
70264W        W33823   0.289  26.648  12.427
70265W        W33824  42.401  13.173  13.369
70266W        W33825  13.767  41.399   3.780
70267W        W33826  25.025  13.234  12.390
70268W        W33827  41.292  40.869  11.855
70269W        W33828   2.848   7.173   1.698
70270W        W33829  22.723   8.195   2.208
70271W        W33830   5.831   9.172  13.034
70272W        W33831  17.760  12.190  13.820
70273W        W33832   3.878  32.064  10.033
70274W        W33833  30.496  40.435   2.387
70275W        W33834   7.268  22.654  10.420
70276W        W33835  35.501  20.266   0.366
70277W        W33836  42.404  11.138  11.386
70278W        W33837  30.571  25.473  14.983
70279W        W33838  25.548  22.057  12.045
70280W        W33839  41.889   3.309   3.650
70281W        W33840  40.838  17.693  11.883
70282W        W33841  44.461  30.069   4.143
70283W        W33842  39.487   2.330   2.869
70284W        W33843   0.332   5.794  12.970
70285W        W33844  20.147  25.095  13.901
70286W        W33845  22.729  40.992  11.451
70287W        W33846  34.092  25.016  11.573
70288W        W33847  28.085  22.541  12.070
70289W        W33848   5.897  37.882   1.716
70290W        W33849  27.187   4.315   4.338
70291W        W33850  20.639   1.756  12.563
70292W        W33851  39.015  36.423  13.816
70293W        W33852  30.544  26.018  10.609
70294W        W33853   5.296  41.308  12.982
70295W        W33854  42.810  26.112  10.902
70296W        W33855  41.906  19.763  10.550
70297W        W33856  16.099  33.501   0.425
70298W        W33857  32.538  17.759  10.492
70299W        W33858  29.991  21.700   1.235
70300W        W33859  36.969  24.165   3.818
70301W        W33860  18.684  28.107  11.047
70302W        W33861  42.330  12.633  11.974
70303W        W33862  20.231   8.704   0.447
70304W        W33863  23.233  36.569  13.931
70305W        W33864   2.812   5.790   0.483
70306W        W33865   9.842  39.982   0.464
70307W        W33866  33.100  36.393  14.439
70308W        W33867   9.325  11.359   5.145
70309W        W33868  44.293  20.142  10.557
70310W        W33869  26.620   6.300  14.929
70311W        W33870  32.633  38.985  11.375
70312W        W33871  32.113  24.087   2.211
70313W        W33872  10.339  23.128   4.604
70314W        W33873   2.363  37.954  11.593
70315W        W33874  13.281  20.133  11.602
70316W        W33875  44.783  35.941   1.740
70317W        W33876  27.541  22.237   0.471
70318W        W33877  29.479  42.945  12.365
70319W        W33878  41.538  33.030  12.865
70320W        W33879  34.887  10.154  12.422
70321W        W33880  36.062  32.545   4.159
70322W        W33881  33.927  14.124   3.183
70323W        W33882  31.620   7.356   1.745
70324W        W33883  32.632   4.443   3.792
70325W        W33884  20.039  10.814   4.730
70326W        W33885  44.839  31.970  12.422
70327W        W33886  36.037   3.339  13.365
70328W        W33887   8.304  15.594  10.636
70329W        W33888  36.416  12.856   0.772
70330W        W33889   8.759  21.167  10.515
70331W        W33890  23.991  38.909  10.574
70332W        W33891  30.966  22.500  10.948
70333W        W33892  25.199  27.529   0.850
70334W        W33893  36.587  28.680   3.238
70335W        W33894  16.202  20.070   3.269
70336W        W33895  36.456  15.673  10.635
70337W        W33896   6.856  43.969   4.616
70338W        W33897  17.201  21.726   2.682
70339W        W33898  42.515  27.066   1.266
70340W        W33899  31.899  29.571  13.544
70341W        W33900  27.964  18.561   0.456
70342W        W33901  19.103  32.520   2.803
70343W        W33902  31.593   8.723  10.477
70344W        W33903  43.917  13.121  13.865
70345W        W33904  40.350   6.892   1.393
70346W        W33905   5.439  22.198   1.812
70347W        W33906  31.910  29.639   1.921
70348W        W33907   6.690   3.749  13.502
70349W        W33908  29.953  26.088   3.154
70350W        W33909   6.727  32.100  14.504
70351W        W33910  28.671  40.414  14.773
70352W        W33911  18.605  13.189  13.395
70353W        W33912  33.978  22.236   0.380
70354W        W33913  23.508  18.763  13.016
70355W        W33914  34.046  40.328   4.195
70356W        W33915  25.094   8.900  13.354
70357W        W33916  43.464  44.505   1.282
70358W        W33917  23.234  18.591   3.256
70359W        W33918  43.941   5.371   4.835
70360W        W33919  31.574  37.977   5.215
70361W        W33920  19.595  15.677   3.288
70362W        W33921   6.680  20.159  12.416
70363W        W33922   2.340   1.937   3.733
70364W        W33923  14.272  24.138   2.408
70365W        W33924  40.941  18.654   2.710
70366W        W33925  29.474  24.499  12.866
70367W        W33926  14.812  26.497   4.128
70368W        W33927  13.238  32.986   3.350
70369W        W33928  14.758   7.751   3.384
70370W        W33929  31.487  32.402   3.270
70371W        W33930   2.934   4.361   1.397
70372W        W33931  32.502   3.849  10.643
70373W        W33932  25.678  38.050  13.878
70374W        W33933  43.836  33.575   4.284
70375W        W33934  31.011  43.984   0.304
70376W        W33935  41.814  38.545   3.655
70377W        W33936  32.505  21.120  11.976
70378W        W33937   2.752  14.311  13.438
70379W        W33938  40.004   3.834  13.522
70380W        W33939  11.702  29.663   2.345
70381W        W33940  38.477  36.008   3.254
70382W        W33941  27.948  39.360   2.848
70383W        W33942  25.558   8.766  11.123
70384W        W33943  30.915   9.224   3.352
70385W        W33944   8.393   1.890   2.387
70386W        W33945  41.039  35.956   0.899
70387W        W33946  23.218  20.552   2.194
70388W        W33947   6.904  34.004   3.839
70389W        W33948  42.780   7.276   2.897
70390W        W33949  36.460  19.628   9.932
70391W        W33950  12.325  22.070  12.382
70392W        W33951  13.252   5.895   9.646
70393W        W33952  22.591  24.023   4.745
70394W        W33953  42.512  19.721  13.428
70395W        W33954   2.403  42.790  10.908
70396W        W33955   4.703  11.322  11.060
70397W        W33956  12.848   1.869  10.888
70398W        W33957   1.454  30.060   4.144
70399W        W33958  23.720  22.515   5.285
70400W        W33959  43.274  10.675   3.242
70401W        W33960  39.997  34.116  14.280
70402W        W33961  41.900  41.989  13.450
70403W        W33962  22.168  16.112   0.872
70404W        W33963  18.746  36.888  11.440
70405W        W33964  10.343  23.093   2.405
70406W        W33965   9.715  43.991  14.838
70407W        W33966   1.931  30.965   0.964
70408W        W33967  32.102  12.819   1.412
70409W        W33968  13.121  31.019   0.761
70410W        W33969   4.852  25.496   4.349
70411W        W33970  42.945   6.849  14.833
70412W        W33971   1.856  20.202  10.889
70413W        W33972   8.880  12.739   2.287
70414W        W33973  27.578  40.988  14.283
70415W        W33974  34.552  15.189   0.800
70416W        W33975  30.006  17.255  12.342
70417W        W33976  20.179  26.132   0.867
70418W        W33977  12.797  37.381   1.338
70419W        W33978  24.634  22.077  14.975
70420W        W33979   4.328  36.547  13.059
70421W        W33980   1.800  16.683  13.449
70422W        W33981  26.003   6.197   0.906
70423W        W33982  43.379  13.328  11.052
70424W        W33983  33.041  16.593  13.956
70425W        W33984  15.647  39.017   1.359
70426W        W33985  42.992  29.518   5.151
70427W        W33986  26.047  23.057  12.088
70428W        W33987  33.400  20.197   3.865
70429W        W33988  12.743  44.997   1.269
70430W        W33989  22.222  11.136   2.340
70431W        W33990  27.486  14.710  14.417
70432W        W33991   5.852  31.042   2.891
70433W        W33992   6.235   1.257  10.426
70434W        W33993  44.807  21.244  13.953
70435W        W33994  22.171  24.543   0.391
70436W        W33995  14.820   3.890   0.422
70437W        W33996  25.187   2.404  13.977
70438W        W33997  25.966  30.593   1.726
70439W        W33998  14.186  17.587   0.265
70440W        W33999   4.358   8.678   4.821
70441W        W34000  25.657  10.161  13.004
70442W        W34001  16.145  19.637   2.301
70443W        W34002  12.663  23.120   3.209
70444W        W34003   5.690  22.606  14.840
70445W        W34004   8.203  10.849   0.290
70446W        W34005   9.289   1.291  14.778
70447W        W34006  40.947  22.207  13.317
70448W        W34007  12.142  15.299   0.944
70449W        W34008  19.644  35.527   1.720
70450W        W34009  10.204  19.779  12.425
70451W        W34010  24.502  29.064  13.907
70452W        W34011  16.135  35.538   2.244
70453W        W34012  31.631  27.978  13.489
70454W        W34013  25.068  17.147   3.320
70455W        W34014  25.027  25.696  10.484
70456W        W34015   3.750  30.577  10.968
70457W        W34016  37.986  19.213   1.365
70458W        W34017   5.229   2.731   1.857
70459W        W34018  24.550   0.760  14.376
70460W        W34019  39.039  17.094  13.837
70461W        W34020  15.264   9.692  13.954
70462W        W34021   5.334  29.088   4.283
70463W        W34022  41.356  36.351  13.467
70464W        W34023   0.944   8.368   2.787
70465W        W34024   5.689  27.106   3.796
70466W        W34025  29.424  41.439   2.805
70467W        W34026  42.026  39.468   0.807
70468W        W34027  41.383  34.455   3.324
70469W        W34028  18.775   3.874   1.920
70470W        W34029   7.748  20.132  12.471
70471W        W34030  32.611  34.927   1.386
70472W        W34031  18.225  35.378   0.958
70473W        W34032  41.999  12.297   0.746
70474W        W34033  16.696   2.337  13.857
70475W        W34034  28.616  17.294  13.972
70476W        W34035  36.410   0.395   2.899
70477W        W34036   1.961   4.812   0.800
70478W        W34037  19.627  26.159  12.998
70479W        W34038  18.262  25.505   2.723
70480W        W34039  36.070   1.432  11.999
70481W        W34040  15.284  21.746   1.364
70482W        W34041  14.159   8.347  11.066
70483W        W34042  14.619  32.582  14.977
70484W        W34043  42.934  24.075  10.562
70485W        W34044  36.366  24.193  11.933
70486W        W34045  44.406  12.137   4.694
70487W        W34046  20.695  24.699   4.199
70488W        W34047  37.856  27.528  10.905
70489W        W34048  25.585  19.748   4.764
70490W        W34049  36.966  39.911   4.166
70491W        W34050   9.838   0.905  10.466
70492W        W34051   7.809  24.149  14.995
70493W        W34052  34.881  32.414   1.365
70494W        W34053  17.253  38.372  13.888
70495W        W34054  41.328  17.071   4.191
70496W        W34055  14.668  34.439   4.779
70497W        W34056  27.999   4.841   3.257
70498W        W34057  17.244  18.056  13.541
70499W        W34058  16.707  20.720  12.857
70500W        W34059   1.872  24.504  12.955
70501W        W34060  41.479  28.063   2.712
70502W        W34061  32.888  38.986   1.214
70503W        W34062   2.269  16.206  12.461
70504W        W34063  10.266  31.496  12.551
70505W        W34064   5.246   4.797  11.127
70506W        W34065  27.956  31.957  12.390
70507W        W34066   4.819  31.615  13.494
70508W        W34067   8.370  44.781  10.979
70509W        W34068  19.598  12.259   4.143
70510W        W34069  14.736  16.154   1.703
70511W        W34070  17.299  27.157  14.276
70512W        W34071  38.551   6.787   4.731
70513W        W34072  19.663  14.783  12.070
70514W        W34073  12.803  43.919   4.176
70515W        W34074  38.865  33.895   2.753
70516W        W34075  29.065  37.510   2.794
70517W        W34076   1.904  10.633  13.945
70518W        W34077  10.308  15.108   4.786
70519W        W34078   7.283  28.530   1.266
70520W        W34079  11.136  35.036   1.900
70521W        W34080  25.507  10.326  12.475
70522W        W34081   5.789  43.277  13.025
70523W        W34082  34.995  31.448   2.735
70524W        W34083  37.031  42.010   2.755
70525W        W34084  25.072  36.033  13.988
70526W        W34085  29.158  32.475   3.160
70527W        W34086  16.192  29.930   4.283
70528W        W34087  19.185  18.783  13.402
70529W        W34088   9.183   1.798  12.943
70530W        W34089   1.888  28.080   1.738
70531W        W34090  29.116  18.573  14.897
70532W        W34091  29.120   8.709  10.986
70533W        W34092  28.978  35.031  13.494
70534W        W34093  30.914   3.861  11.030
70535W        W34094  38.954  40.307  10.520
70536W        W34095   2.330  18.645   1.279
70537W        W34096  44.867  39.898   2.814
70538W        W34097  28.966  29.051   1.785
70539W        W34098  31.521   5.767  12.025
70540W        W34099  25.548  27.612   4.636
70541W        W34100  26.661  30.500   3.197
70542W        W34101  30.412   4.416   1.781
70543W        W34102  29.585  28.969   4.748
70544W        W34103  33.915  15.729   4.718
70545W        W34104  29.159  29.577   4.641
70546W        W34105  36.853  30.114   4.339
70547W        W34106  41.040  29.038  11.472
70548W        W34107  43.442  16.243   3.828
70549W        W34108  11.837  34.472  11.078
70550W        W34109  20.738  13.219   4.255
70551W        W34110  37.347   4.911  14.927
70552W        W34111  43.908  10.237   1.323
70553W        W34112  24.033   8.248  12.501
70554W        W34113  40.489  37.382   2.799
70555W        W34114  10.169  13.691  11.498
70556W        W34115  20.158   8.382  11.057
70557W        W34116   6.777  34.064   3.214
70558W        W34117  25.204  16.257   3.682
70559W        W34118  17.648   5.270   1.353
70560W        W34119  43.973   5.718  13.423
70561W        W34120  13.674  26.581  11.045
70562W        W34121  35.925   8.822   3.789
70563W        W34122  24.486  15.596  14.800
70564W        W34123  41.484   5.356  11.053
70565W        W34124  31.512  37.968   3.343
70566W        W34125  25.579  26.623  13.337
70567W        W34126  39.425  40.812  13.869
70568W        W34127  32.999  17.280  11.037
70569W        W34128  33.578   4.215   3.221
70570W        W34129  41.999  19.585   4.327
70571W        W34130  22.075  37.393  12.362
70572W        W34131   1.892  36.547  13.051
70573W        W34132  16.595   7.692  14.831
70574W        W34133   5.264  21.565  11.112
70575W        W34134   4.227  32.439   2.276
70576W        W34135  34.450  27.647   3.753
70577W        W34136   1.259   7.171   1.789
70578W        W34137  43.271   1.956   4.342
70579W        W34138  29.065  21.165   2.344
70580W        W34139  36.428  18.703   1.437
70581W        W34140  12.135  19.072   3.384
70582W        W34141   7.309  32.413  13.798
70583W        W34142  41.893  36.363   1.271
70584W        W34143  32.919  15.620  10.427
70585W        W34144  36.437  21.733   4.630
70586W        W34145  22.135  14.301  11.979
70587W        W34146  12.260  21.541  12.065
70588W        W34147  24.564  22.250  14.016
70589W        W34148   2.387  32.523  11.588
70590W        W34149  26.025  21.095   5.201
70591W        W34150  18.651  20.588   3.818
70592W        W34151  39.547  43.418   2.818
70593W        W34152  41.923  21.716   4.804
70594W        W34153  31.944  28.955  11.479
70595W        W34154  30.424   9.878  12.823
70596W        W34155   3.829  11.762   0.750
70597W        W34156   9.177  21.239   1.218
70598W        W34157   8.178  34.058   9.465
70599W        W34158  29.057  26.084  13.989
70600W        W34159  15.760  35.008  14.985
70601W        W34160  26.158  21.734   2.186
70602W        W34161  13.181  18.078  11.047
70603W        W34162  39.438  25.195  12.011
70604W        W34163  28.092   6.291  13.363
70605W        W34164   4.259  23.143  10.952
70606W        W34165  24.680  32.919   1.244
70607W        W34166   6.270  24.057  11.075
70608W        W34167  14.266  14.298   4.785
70609W        W34168   8.729  10.343  14.790
70610W        W34169  13.824  11.131  10.564
70611W        W34170  15.770  31.126  11.424
70612W        W34171  21.586  33.889  12.035
70613W        W34172  41.498   2.762   1.927
70614W        W34173  23.684   3.240  14.842
70615W        W34174  35.471   7.887   2.246
70616W        W34175  42.976  24.039  11.076
70617W        W34176  21.687  35.012  13.483
70618W        W34177   5.222   5.709  13.462
70619W        W34178   5.366  38.432   2.358
70620W        W34179   8.676  35.977  10.119
70621W        W34180   7.410  12.300   3.744
70622W        W34181  30.914  18.084  11.382
70623W        W34182  21.606   1.373   0.758
70624W        W34183  15.083  15.270  13.018
70625W        W34184  23.161  43.452   3.642
70626W        W34185  29.480  27.144  10.946
70627W        W34186   5.812  24.076  11.878
70628W        W34187  28.074  31.553   0.306
70629W        W34188  22.700  38.460   2.194
70630W        W34189  29.612  20.175   3.347
70631W        W34190  24.539  43.441   2.875
70632W        W34191   6.773   2.310   1.361
70633W        W34192  37.084  24.027  12.435
70634W        W34193   3.752  40.329  11.930
70635W        W34194   6.903   6.908   1.300
70636W        W34195  19.555   4.307  11.906
70637W        W34196  36.956  35.453  13.508
70638W        W34197  37.964  17.109   2.810
70639W        W34198  26.094   3.266  14.970
70640W        W34199  31.002  13.659   3.224
70641W        W34200   5.328  43.963   2.786
70642W        W34201   1.358  19.044  13.950
70643W        W34202  13.313  42.942  11.078
70644W        W34203   0.333  25.174  12.438
70645W        W34204  22.226  28.086  10.903
70646W        W34205  11.289  36.048  11.465
70647W        W34206  37.954  12.644   3.789
70648W        W34207  11.247  31.604  12.948
70649W        W34208  43.997  29.657   0.847
70650W        W34209  23.599  24.603   0.285
70651W        W34210  23.155  15.143  13.412
70652W        W34211  27.529  20.701  11.875
70653W        W34212  24.084  31.403  11.000
70654W        W34213  30.646  31.079   1.739
70655W        W34214   6.717   8.372  12.515
70656W        W34215  22.694  26.166  14.762
70657W        W34216   2.309   7.234  12.574
70658W        W34217  12.691  42.464   2.290
70659W        W34218  15.682  24.216   2.848
70660W        W34219  36.530   0.492  13.481
70661W        W34220  11.168  15.808   1.888
70662W        W34221   6.766  34.952  14.815
70663W        W34222  23.104  19.663  14.858
70664W        W34223  29.174  25.058   2.729
70665W        W34224  42.348  22.526  10.549
70666W        W34225  41.918  18.688   3.161
70667W        W34226  42.486  32.631  11.555
70668W        W34227  21.730  35.445   4.603
70669W        W34228   0.346  42.813   4.809
70670W        W34229  20.582  16.650   4.324
70671W        W34230  40.051  42.996   1.759
70672W        W34231  14.762  35.079   4.256
70673W        W34232  18.103  11.149   3.366
70674W        W34233  32.957  11.750  13.348
70675W        W34234   8.377   2.815   3.638
70676W        W34235  29.497   1.413  14.828
70677W        W34236  41.515  17.307  12.339
70678W        W34237   0.887  31.966  10.893
70679W        W34238   9.721  39.512  11.029
70680W        W34239  25.009  11.742   3.316
70681W        W34240  23.518  34.041  11.610
70682W        W34241  24.528  41.399  14.987
70683W        W34242  35.044  21.034   0.431
70684W        W34243  26.640  31.424   0.431
70685W        W34244  22.249  26.095   2.233
70686W        W34245  17.265   3.924   1.855
70687W        W34246  25.168  20.154   3.345
70688W        W34247  34.904   8.272   5.127
70689W        W34248  24.694  42.861  12.468
70690W        W34249   3.919  20.099   1.838
70691W        W34250  18.115  27.028  13.390
70692W        W34251  25.064  11.660  11.885
70693W        W34252  39.030  41.820   2.298
70694W        W34253  32.590  20.608  10.528
70695W        W34254  10.303  41.925  11.001
70696W        W34255  42.441   0.296  14.824
70697W        W34256  17.200  18.743  14.393
70698W        W34257  18.133   6.730  11.945
70699W        W34258  17.756   5.775  12.487
70700W        W34259  39.023  35.860   1.729
70701W        W34260  28.572  26.998   2.290
70702W        W34261  38.532  22.208   3.679
70703W        W34262  17.127  19.574   3.380
70704W        W34263  23.678   2.949   0.882
70705W        W34264  21.098  20.240   2.377
70706W        W34265   4.438  25.574   4.769
70707W        W34266  42.374  18.753  14.963
70708W        W34267  38.541   5.310  10.924
70709W        W34268   9.319  32.558  12.530
70710W        W34269  24.148  17.661   0.899
70711W        W34270  38.008  23.137   0.960
70712W        W34271  24.152  22.735   3.773
70713W        W34272  43.787  36.382  13.852
70714W        W34273  36.018  30.659  12.577
70715W        W34274   6.896  22.157  14.986
70716W        W34275   5.806  13.340  12.392
70717W        W34276  12.756  35.575  14.443
70718W        W34277  15.141  13.784   3.798
70719W        W34278  18.729  31.042   2.830
70720W        W34279  30.145  33.929  10.539
70721W        W34280  22.181  36.478  14.275
70722W        W34281  12.190  40.378   4.599
70723W        W34282  32.498  27.951   0.322
70724W        W34283  23.002  15.317   4.159
70725W        W34284  28.937  15.583   1.305
70726W        W34285  44.424  43.976   1.735
70727W        W34286   0.957  30.494  12.419
70728W        W34287  11.639  36.957  12.920
70729W        W34288  16.783   2.462   2.821
70730W        W34289  15.185  14.794   2.226
70731W        W34290  42.311  19.544   0.777
70732W        W34291  44.864  28.968   0.831
70733W        W34292   5.318   1.375  12.533
70734W        W34293  23.090  40.851  10.996
70735W        W34294   6.714   6.733   1.800
70736W        W34295  36.396  34.970   3.323
70737W        W34296  42.443  44.260   0.907
70738W        W34297  33.997  25.008   2.842
70739W        W34298   4.312   0.795  13.429
70740W        W34299  30.951  10.862  13.947
70741W        W34300   2.306  41.422   0.934
70742W        W34301   1.867  33.506  10.636
70743W        W34302  29.983  36.347   1.273
70744W        W34303  13.750   8.347  14.311
70745W        W34304  20.138   9.350   1.448
70746W        W34305  17.652  21.262  12.082
70747W        W34306  34.903  41.987   4.253
70748W        W34307  41.480   4.879  14.764
70749W        W34308   4.768  16.688  14.421
70750W        W34309  20.704   6.273   1.378
70751W        W34310  13.158  40.314  14.761
70752W        W34311  24.505  11.853  14.275
70753W        W34312  32.025  34.497   0.367
70754W        W34313  16.312  17.695  14.316
70755W        W34314   3.388  41.941  10.965
70756W        W34315   2.274  20.534   2.748
70757W        W34316   0.448  15.169  14.355
70758W        W34317   5.752  13.246  11.106
70759W        W34318  34.592  19.079  14.438
70760W        W34319  30.124   2.343  14.954
70761W        W34320  36.870  38.894  10.948
70762W        W34321  33.090  20.246  10.438
70763W        W34322   9.740  10.202  11.548
70764W        W34323  28.154  26.172   0.362
70765W        W34324  44.937  27.605  13.459
70766W        W34325  19.740  31.928  14.507
70767W        W34326  39.968  42.867  12.846
70768W        W34327   2.852  12.785   3.738
70769W        W34328  29.489   4.830  14.308
70770W        W34329  13.613  20.114   2.897
70771W        W34330  10.168  31.427   5.214
70772W        W34331  38.394  35.871   0.794
70773W        W34332  42.985  24.520   0.409
70774W        W34333   7.173   3.774  12.046
70775W        W34334  36.040  11.842   4.334
70776W        W34335  38.399  19.053  12.371
70777W        W34336  39.012  12.852  13.999
70778W        W34337   3.409  25.025   0.901
70779W        W34338   3.827  17.757  13.335
70780W        W34339  22.189   3.220   2.763
70781W        W34340  17.671   5.714  14.366
70782W        W34341   0.970   7.195   3.856
70783W        W34342  22.658  11.221   2.340
70784W        W34343   3.947   8.871   2.240
70785W        W34344  34.503   2.366  12.938
70786W        W34345  22.509  24.201   9.946
70787W        W34346  31.129  28.620   2.883
70788W        W34347   9.168  20.525  12.437
70789W        W34348   2.322   0.431   4.251
70790W        W34349  16.145  14.176  12.029
70791W        W34350  43.006  21.642   2.193
70792W        W34351  40.346   8.182   0.292
70793W        W34352  26.016  11.722  13.366
70794W        W34353   9.371  34.557  14.031
70795W        W34354  13.260  13.112   2.349
70796W        W34355  37.058  13.633   3.223
70797W        W34356   5.224  10.754  14.783
70798W        W34357  29.996   2.304   1.694
70799W        W34358  10.185  18.662  13.818
70800W        W34359   4.250  42.450  13.518
70801W        W34360  35.855  26.616   2.683
70802W        W34361  11.314   2.409  13.484
70803W        W34362   4.404  25.707  11.979
70804W        W34363  10.306  21.227  14.331
70805W        W34364  25.056  23.159   2.822
70806W        W34365  12.176   1.452  12.851
70807W        W34366  23.078  30.027   0.357
70808W        W34367  41.368  18.178   2.792
70809W        W34368  15.116  43.841   1.727
70810W        W34369  28.579  22.510  14.329
70811W        W34370  22.142  38.047  13.846
70812W        W34371  22.681   2.825  10.465
70813W        W34372  33.004  23.722   2.207
70814W        W34373  27.469  37.918  12.832
70815W        W34374  17.111  18.169   4.779
70816W        W34375  18.235  19.744   0.413
70817W        W34376  42.970   3.358  10.425
70818W        W34377  37.511  19.729  12.975
70819W        W34378  19.229   9.776  14.949
70820W        W34379  31.438  30.075  14.498
70821W        W34380  16.268  19.124   0.812
70822W        W34381  24.070  17.630   0.308
70823W        W34382  26.117  19.642  14.411
70824W        W34383  43.825  34.932  12.471
70825W        W34384  14.102  36.914   0.461
70826W        W34385  22.208  36.089   2.244
70827W        W34386  25.151  41.447   0.841
70828W        W34387   4.768  33.060   4.784
70829W        W34388  43.868  42.869  10.540
70830W        W34389   3.441  33.618   3.303
70831W        W34390  39.548  32.635   0.956
70832W        W34391  15.687  12.789   1.245
70833W        W34392  34.074   3.273   1.438
70834W        W34393   0.460  39.894  13.011
70835W        W34394  13.142  20.267  13.493
70836W        W34395  39.431  11.138   0.285
70837W        W34396  14.207  41.931  14.030
70838W        W34397  14.681   6.730   2.244
70839W        W34398  24.108  12.676  11.565
70840W        W34399  19.262  20.737  10.629
70841W        W34400   5.225   0.276   3.351
70842W        W34401  25.045   2.919   2.708
70843W        W34402  21.680  39.894  10.903
70844W        W34403  20.748  42.456   2.291
70845W        W34404  35.967   8.823  14.853
70846W        W34405  37.498  10.232   2.842
70847W        W34406  30.141  28.961   2.405
70848W        W34407   9.791  13.714   1.435
70849W        W34408  13.179  25.208   2.706
70850W        W34409  42.445  23.128  11.494
70851W        W34410   2.814  13.637  10.581
70852W        W34411  18.167  12.638   0.416
70853W        W34412  18.747   9.295   3.290
70854W        W34413  27.066  39.858  14.849
70855W        W34414  28.131  26.021   2.808
70856W        W34415  43.447  35.057  10.641
70857W        W34416  36.890  27.183   3.288
70858W        W34417  40.992  15.153   3.356
70859W        W34418  13.206  27.002  10.912
70860W        W34419  37.909  39.812   0.386
70861W        W34420   1.342  20.707  14.493
70862W        W34421  21.656   2.925  12.946
70863W        W34422  24.087  16.249   3.348
70864W        W34423  20.028  38.433  14.357
70865W        W34424  13.141  42.325   2.288
70866W        W34425   5.325  31.596  12.043
70867W        W34426  25.021  13.694   2.318
70868W        W34427  21.660  21.701   0.256
70869W        W34428  27.036   9.269  11.457
70870W        W34429  30.517  12.738   2.218
70871W        W34430  13.272  32.058   4.661
70872W        W34431  35.574  34.442   2.683
70873W        W34432  17.692  33.119   1.844
70874W        W34433   0.374  37.997   3.715
70875W        W34434  38.470  12.741   1.789
70876W        W34435  17.223  22.557  10.576
70877W        W34436  35.019  41.457  12.899
70878W        W34437  26.135  37.502   4.175
70879W        W34438  20.631  36.042  12.090
70880W        W34439  22.141   4.786   1.741
70881W        W34440  30.636   7.204   3.194
70882W        W34441  13.217  13.661  10.967
70883W        W34442  38.962  34.919   3.737
70884W        W34443  36.967  39.438  10.532
70885W        W34444   8.234  23.062   3.690
70886W        W34445  15.722  29.587  11.053
70887W        W34446  24.571  16.306  13.863
70888W        W34447  34.438  17.203  12.059
70889W        W34448  25.100  11.664   5.581
70890W        W34449  37.353  36.965   1.765
70891W        W34450  20.715  12.675   3.662
70892W        W34451  12.842  33.917  10.626
70893W        W34452   1.744  41.400  11.115
70894W        W34453  35.056  13.246  10.992
70895W        W34454  40.983  10.227   4.787
70896W        W34455   7.820  41.462   5.199
70897W        W34456  39.509  17.266  14.903
70898W        W34457  27.161  13.726   1.358
70899W        W34458  14.097   9.714  10.936
70900W        W34459   2.935  15.592  10.913
70901W        W34460  20.648   9.867   2.791
70902W        W34461   1.960   6.393  12.081
70903W        W34462   2.256  13.296   1.799
70904W        W34463  13.270  39.058  13.889
70905W        W34464  39.836  16.118   3.172
70906W        W34465  15.773  38.386   2.335
70907W        W34466  14.122  11.191   0.336
70908W        W34467  38.949  25.699  13.540
70909W        W34468  21.607   0.753   2.751
70910W        W34469  22.195  19.256  14.921
70911W        W34470  42.320  28.105  11.104
70912W        W34471   5.870  18.602   0.415
70913W        W34472   2.245  41.825   1.709
70914W        W34473   2.295  21.643  14.914
70915W        W34474  16.758  22.141   1.426
70916W        W34475   8.377  19.680  12.057
70917W        W34476  41.027  43.425   3.724
70918W        W34477  42.478   7.416   1.835
70919W        W34478  37.984  27.056   2.310
70920W        W34479  44.907  31.911   3.329
70921W        W34480  21.706  11.197  11.876
70922W        W34481  17.712   6.802   1.830
70923W        W34482  15.585  44.872  14.903
70924W        W34483   9.162  38.025  10.641
70925W        W34484  19.233  27.599   2.281
70926W        W34485  25.705   9.245   0.874
70927W        W34486  26.031   4.272   3.726
70928W        W34487  15.319  11.364  10.545
70929W        W34488  38.930  40.358   0.268
70930W        W34489  30.469  44.796  12.578
70931W        W34490   5.253  35.044   0.399
70932W        W34491  34.014  26.541   0.750
70933W        W34492   1.248  28.082   4.650
70934W        W34493   0.917  34.585  10.917
70935W        W34494  43.805  17.593  14.029
70936W        W34495  32.546  29.447  14.842
70937W        W34496  40.429  29.060  14.800
70938W        W34497  19.756  44.273   0.767
70939W        W34498  29.922   4.427  11.926
70940W        W34499  35.494  40.978   4.208
70941W        W34500   2.950  15.670  13.309
70942W        W34501  11.725  18.233  12.921
70943W        W34502   6.251  44.324  11.903
70944W        W34503  38.022  14.590  13.847
70945W        W34504  12.170  10.211  10.897
70946W        W34505  37.384  18.680   4.634
70947W        W34506  21.746  36.855   0.380
70948W        W34507  15.267   3.226  13.043
70949W        W34508  18.236  32.536  11.491
70950W        W34509  32.500   4.747  11.606
70951W        W34510  40.533  42.901   1.438
70952W        W34511  24.721  36.521   1.799
70953W        W34512  15.785  36.470   4.201
70954W        W34513   3.295  20.063   1.726
70955W        W34514  32.114  31.982  13.418
70956W        W34515  20.182  23.600  15.000
70957W        W34516  33.988  36.464   3.252
70958W        W34517  28.570  29.567  13.464
70959W        W34518  34.051   3.787   3.387
70960W        W34519  39.466  43.441   3.190
70961W        W34520  34.888  42.922  11.071
70962W        W34521  18.132  19.163   3.763
70963W        W34522   2.400  14.227   2.731
70964W        W34523  16.633  21.706  11.075
70965W        W34524  10.646   6.765  11.472
70966W        W34525  13.829   5.359   1.299
70967W        W34526  22.678  10.277   5.155
70968W        W34527  39.906  44.000  14.838
70969W        W34528  29.608  41.844  11.462
70970W        W34529  30.932  38.386   3.643
70971W        W34530  18.051  30.910  12.075
70972W        W34531  41.477  34.001   1.285
70973W        W34532   0.984  41.386   5.238
70974W        W34533   4.929  25.475   1.733
70975W        W34534  38.354  16.215   3.755
70976W        W34535   9.281  33.475   2.862
70977W        W34536  29.480  25.085   3.641
70978W        W34537  35.509  34.488   3.206
70979W        W34538   9.211  33.948  14.928
70980W        W34539  32.962   8.336   4.137
70981W        W34540  35.878  17.087   2.357
70982W        W34541  35.971   4.862  14.393
70983W        W34542   5.430  16.073   0.927
70984W        W34543  30.072  19.174  11.003
70985W        W34544  22.027   5.865  11.416
70986W        W34545   0.849  13.799  11.067
70987W        W34546  27.616  10.303   1.840
70988W        W34547   9.175   2.359  13.050
70989W        W34548  40.325  26.079  13.918
70990W        W34549  28.947  43.839   0.801
70991W        W34550  17.196  40.859   1.374
70992W        W34551  39.491   4.765   1.747
70993W        W34552  41.004  18.631  12.041
70994W        W34553   9.337  18.278   2.389
70995W        W34554  37.952  16.172   0.782
70996W        W34555   8.794  33.914   9.571
70997W        W34556  39.016  24.640  14.395
70998W        W34557   0.288   6.693  10.574
70999W        W34558  30.051  32.402  13.384
71000W        W34559  44.452  27.500   4.597
71001W        W34560  17.305  25.547  13.952
71002W        W34561  31.012   8.670  11.930
71003W        W34562  23.194  43.318   2.328
71004W        W34563   6.202   1.387   3.359
71005W        W34564  17.719  25.067  10.636
71006W        W34565  17.307  10.195   0.927
71007W        W34566  24.150  28.679   1.407
71008W        W34567   8.231  18.780  12.506
71009W        W34568  33.977  39.002  14.797
71010W        W34569  10.191   1.370  12.901
71011W        W34570   4.763  21.024  12.549
71012W        W34571  44.885  19.622  14.856
71013W        W34572   9.348  18.207  11.393
71014W        W34573  24.518  13.203  10.488
71015W        W34574  22.513  13.614  12.032
71016W        W34575   4.428  18.776  14.334
71017W        W34576  24.553   6.789   2.792
71018W        W34577  43.280  26.502   3.638
71019W        W34578  15.643  14.678  13.974
71020W        W34579  16.693  10.292   4.299
71021W        W34580  40.906  21.689   3.280
71022W        W34581  23.699   4.305  11.587
71023W        W34582  25.071  26.487   2.810
71024W        W34583   0.466  10.211   1.324
71025W        W34584   2.786  22.091  10.427
71026W        W34585   4.728  27.176  11.107
71027W        W34586  36.470  43.372   3.629
71028W        W34587   7.407   0.375  14.344
71029W        W34588  20.124  19.158   4.346
71030W        W34589   9.764  44.477   4.234
71031W        W34590  35.894   9.650  12.451
71032W        W34591  15.161   3.329   5.210
71033W        W34592  15.201  34.927  14.977
71034W        W34593  31.991  34.023  10.512
71035W        W34594  25.007  35.898   0.899
71036W        W34595  41.445   0.483  12.512
71037W        W34596  21.096  36.419   2.852
71038W        W34597  28.518  30.952  11.530
71039W        W34598   0.352  26.577  14.910
71040W        W34599  14.671   9.310  14.360
71041W        W34600   8.683  19.623   1.284
71042W        W34601  33.916  28.518  14.931
71043W        W34602  31.083  42.789   5.291
71044W        W34603   5.268   7.744   4.620
71045W        W34604  43.312  44.436  14.826
71046W        W34605  37.373   0.755  14.888
71047W        W34606  17.674  30.546   4.352
71048W        W34607  19.749  40.459   4.253
71049W        W34608  36.539  25.146   3.640
71050W        W34609  35.527  27.613   0.405
71051W        W34610  26.513  20.631  14.294
71052W        W34611   6.342  29.476  12.578
71053W        W34612  35.503  15.246  13.395
71054W        W34613  27.641  38.354  13.823
71055W        W34614  28.130  28.521  14.515
71056W        W34615  27.042   0.444   4.789
71057W        W34616  22.199  18.259   2.200
71058W        W34617  39.516  32.633   3.702
71059W        W34618  21.031  25.153   2.297
71060W        W34619   4.716  40.472  10.444
71061W        W34620  13.846  14.772  11.127
71062W        W34621  31.579  29.622   2.276
71063W        W34622  34.593   3.370  14.280
71064W        W34623  11.223  13.702   0.294
71065W        W34624  21.587   9.770  13.539
71066W        W34625   9.856  33.109  12.488
71067W        W34626  24.048  38.072   2.209
71068W        W34627  26.193  13.203   3.172
71069W        W34628  33.903  12.711  11.077
71070W        W34629  24.562  43.354   1.882
71071W        W34630  42.895  20.696  11.483
71072W        W34631   0.777  12.720  11.030
71073W        W34632  41.865   1.385   3.254
71074W        W34633   7.758  29.110   0.872
71075W        W34634  18.687   6.181  12.426
71076W        W34635  32.550  37.934   3.727
71077W        W34636  32.476  24.536   3.734
71078W        W34637  23.109  37.527   1.730
71079W        W34638   0.431  12.841   4.158
71080W        W34639  37.489  30.430   2.688
71081W        W34640  10.774  29.638   0.281
71082W        W34641  28.147  22.113  11.070
71083W        W34642  34.530  24.166   1.731
71084W        W34643  19.661  42.315   0.302
71085W        W34644  17.742  24.128  10.469
71086W        W34645  27.990  18.625   0.929
71087W        W34646  29.553  30.423   3.821
71088W        W34647  30.558  44.476   4.221
71089W        W34648  27.550  41.475  11.394
71090W        W34649  43.281  23.022  13.062
71091W        W34650  18.716  33.069   4.238
71092W        W34651  23.020   6.846   1.386
71093W        W34652  28.092  33.132  11.953
71094W        W34653  37.514  38.332  13.503
71095W        W34654  34.978  24.989   3.820
71096W        W34655  39.880  10.177  13.438
71097W        W34656  44.480  11.146  13.025
71098W        W34657  34.978  16.197   0.818
71099W        W34658  31.492  35.959   3.721
71100W        W34659  44.410  44.462  10.953
71101W        W34660  30.124  23.050  12.405
71102W        W34661  37.030  30.962  13.328
71103W        W34662  35.513  43.007   5.149
71104W        W34663  44.907  32.930   4.628
71105W        W34664  36.441   5.882   0.245
71106W        W34665   6.747  14.135   3.278
71107W        W34666  39.053   2.295   1.727
71108W        W34667  11.693  27.683  14.917
71109W        W34668  23.105  19.682  12.962
71110W        W34669  42.513  28.511   1.395
71111W        W34670  22.596   6.919   4.235
71112W        W34671  26.145  24.512   4.231
71113W        W34672  33.433  21.560   4.710
71114W        W34673  36.869   4.330  13.836
71115W        W34674  25.604  10.191  11.048
71116W        W34675  41.473  44.887   1.807
71117W        W34676  29.649  19.125   3.244
71118W        W34677  13.674   4.348  12.871
71119W        W34678   9.685  26.989  11.464
71120W        W34679  43.966   1.289   4.657
71121W        W34680  30.433  37.373  11.876
71122W        W34681  38.947   7.289  11.881
71123W        W34682  13.737   0.840   1.852
71124W        W34683   4.736  42.944  12.500
71125W        W34684  29.170  27.083   3.355
71126W        W34685  38.440  32.011   2.800
71127W        W34686  28.105  30.023  11.483
71128W        W34687  40.962  25.109  11.534
71129W        W34688  28.968  35.534   4.258
71130W        W34689  21.564   9.748   0.448
71131W        W34690  38.469  28.111   2.244
71132W        W34691  34.938  41.361   1.441
71133W        W34692  30.595  21.018   0.315
71134W        W34693  11.780  21.117   4.699
71135W        W34694  43.453  43.841   0.872
71136W        W34695  37.486   2.803  10.473
71137W        W34696  36.527  37.567   1.218
71138W        W34697  10.184  23.715  13.850
71139W        W34698  44.324  38.512  10.509
71140W        W34699  10.364  18.714  13.441
71141W        W34700  10.275  19.087   1.384
71142W        W34701   1.861  31.607  10.923
71143W        W34702  40.546  27.954   0.353
71144W        W34703  42.805   1.369  14.427
71145W        W34704  10.195  23.007   9.945
71146W        W34705  20.127  22.172   4.308
71147W        W34706  25.537   4.740  13.862
71148W        W34707  44.420  28.621  10.590
71149W        W34708  42.798  19.545  11.110
71150W        W34709  18.227  32.888   2.242
71151W        W34710   9.761  17.226  10.534
71152W        W34711   5.748  34.075   0.477
71153W        W34712  17.226  26.137   1.739
71154W        W34713  13.327  26.581  13.372
71155W        W34714   3.439  13.219  13.511
71156W        W34715  16.689   4.743   2.231
71157W        W34716  10.819   1.308  11.425
71158W        W34717  22.746  20.176   4.687
71159W        W34718  18.687  12.153   4.158
71160W        W34719   7.904  17.281  10.968
71161W        W34720  29.612  10.834  10.424
71162W        W34721  38.460   2.385   2.299
71163W        W34722  35.572   4.237  14.919
71164W        W34723  25.151  29.640  13.514
71165W        W34724  27.124  37.437  14.425
71166W        W34725  24.719  30.143   1.405
71167W        W34726  31.047  31.976  10.069
71168W        W34727  29.631   3.790  12.867
71169W        W34728  20.219  30.914  10.444
71170W        W34729  33.579  42.909  14.348
71171W        W34730  42.306  32.609  12.007
71172W        W34731  10.815   4.234   2.785
71173W        W34732  21.622  40.004  13.462
71174W        W34733   1.967   6.249   3.723
71175W        W34734  36.915  20.053  11.536
71176W        W34735  20.046  27.603   4.150
71177W        W34736  27.529  37.874  13.510
71178W        W34737  31.979  29.037  12.887
71179W        W34738  36.089   1.318  10.634
71180W        W34739  16.213  32.586   2.231
71181W        W34740  29.042  11.742   3.791
71182W        W34741  21.514  44.432  12.567
71183W        W34742  31.503  13.174   1.878
71184W        W34743  33.447  23.077  10.939
71185W        W34744   6.192  32.142   4.800
71186W        W34745  32.408  31.529  10.533
71187W        W34746  26.990  21.096   0.877
71188W        W34747   1.352  34.879   4.732
71189W        W34748  31.615  32.565  13.870
71190W        W34749  19.534  26.507  10.889
71191W        W34750   5.253  20.112   4.173
71192W        W34751  16.657   7.337  14.371
71193W        W34752  29.026  24.151  12.888
71194W        W34753  15.305  33.072   3.825
71195W        W34754  25.468   0.466   4.665
71196W        W34755   6.765  36.463  13.349
71197W        W34756  13.163   9.161   0.393
71198W        W34757   4.923   6.759  13.054
71199W        W34758   7.677  17.258   4.797
71200W        W34759  25.136  43.515   4.351
71201W        W34760  33.991  39.474  13.350
71202W        W34761  38.329   5.928   0.259
71203W        W34762  11.851  21.243  12.508
71204W        W34763   9.887  14.647   9.637
71205W        W34764  39.382   8.837  12.923
71206W        W34765   5.838   8.372   4.291
71207W        W34766  35.387  12.762  10.981
71208W        W34767  40.384   0.913   2.227
71209W        W34768  24.604  10.160  12.420
71210W        W34769  32.600  31.447   2.864
71211W        W34770  38.490  28.154  13.838
71212W        W34771   8.748   1.293   4.743
71213W        W34772  16.087  29.590  12.527
71214W        W34773  43.836  41.850  12.423
71215W        W34774  40.307  36.363  11.561
71216W        W34775  29.984  25.050  13.517
71217W        W34776  18.635   4.783  14.487
71218W        W34777  17.779   7.195  11.469
71219W        W34778   9.269  22.131  13.451
71220W        W34779  10.739  42.885   2.403
71221W        W34780  37.446  42.012   4.308
71222W        W34781  40.993  33.031  11.528
71223W        W34782  13.137   3.894  12.049
71224W        W34783  40.993  23.675  14.369
71225W        W34784  18.091  23.022  12.571
71226W        W34785  38.053   0.288   4.208
71227W        W34786   2.837  36.011  12.539
71228W        W34787   6.759   8.174   2.342
71229W        W34788  25.563   2.463  13.917
71230W        W34789  34.474   3.395  11.117
71231W        W34790  31.064  29.082  12.935
71232W        W34791  36.924  31.939   0.735
71233W        W34792  44.843  43.375  12.939
71234W        W34793  35.499  30.973  13.336
71235W        W34794  33.434  43.414   0.800
71236W        W34795  31.013  29.638  11.952
71237W        W34796  30.513   5.278  11.430
71238W        W34797  19.213  12.357   3.777
71239W        W34798  18.132  31.014   3.288
71240W        W34799  22.618  19.144   0.776
71241W        W34800  22.146  15.692   4.316
71242W        W34801  20.138   3.839   4.598
71243W        W34802   4.270  41.500   4.746
71244W        W34803  34.592   5.375  14.851
71245W        W34804  13.762  32.551  12.828
71246W        W34805   3.428  44.421   3.204
71247W        W34806  15.194  36.027  13.873
71248W        W34807  14.246  34.062   3.280
71249W        W34808   6.729  41.435  10.980
71250W        W34809  28.592  25.564  11.408
71251W        W34810  27.586  38.502   3.364
71252W        W34811  41.464  11.787  11.401
71253W        W34812   0.476  36.481  12.481
71254W        W34813  17.726  32.500  11.956
71255W        W34814  39.534  21.090   1.871
71256W        W34815  22.743  18.574   4.765
71257W        W34816  32.083   5.375  11.001
71258W        W34817  22.141   3.791   3.775
71259W        W34818   9.766  12.279   4.149
71260W        W34819  14.324  29.606   4.715
71261W        W34820  35.377  10.260   1.854
71262W        W34821  32.081  21.549  14.983
71263W        W34822  32.013  18.272   0.837
71264W        W34823  12.314   9.719  14.398
71265W        W34824  32.441  29.650  10.944
71266W        W34825  40.828  16.237  14.922
71267W        W34826  10.266  39.881   0.250
71268W        W34827   1.817  35.003  14.476
71269W        W34828   2.365  13.658   4.705
71270W        W34829   6.832  27.525  11.945
71271W        W34830  31.997  42.842   4.353
71272W        W34831  18.256  39.429  14.415
71273W        W34832   4.778  33.989   1.252
71274W        W34833  40.501  22.024   3.708
71275W        W34834  41.919   2.756  14.290
71276W        W34835  31.029  17.673  14.792
71277W        W34836   5.785   7.720  11.925
71278W        W34837  40.442   8.297  11.444
71279W        W34838  22.628   8.795  13.419
71280W        W34839  19.253   6.698   2.820
71281W        W34840  11.318   6.234   4.203
71282W        W34841  10.755  19.202  13.792
71283W        W34842   8.702  30.077   2.354
71284W        W34843  21.592  23.586   0.480
71285W        W34844  13.628  18.610  11.022
71286W        W34845  24.589  22.085   3.856
71287W        W34846   8.780  30.646  14.989
71288W        W34847  12.142  42.365  11.605
71289W        W34848  19.062  16.628   3.713
71290W        W34849  39.482  19.674  10.986
71291W        W34850  26.642  29.129  13.465
71292W        W34851  26.534  41.451  14.763
71293W        W34852  23.182   0.779   1.849
71294W        W34853  31.961  11.818   1.268
71295W        W34854  32.918  39.360  14.445
71296W        W34855  35.087   5.364   4.306
71297W        W34856  43.960  28.485  10.491
71298W        W34857  17.734   0.858  12.478
71299W        W34858   2.759   4.794  10.636
71300W        W34859  40.815  12.357   1.778
71301W        W34860  35.489   7.767  13.480
71302W        W34861   7.668  31.087   3.754
71303W        W34862  10.756  37.508  12.845
71304W        W34863  22.201   1.400  14.805
71305W        W34864  27.951  16.275   1.280
71306W        W34865  28.471  34.504   4.165
71307W        W34866   6.817  26.105  13.967
71308W        W34867  14.666   5.867   1.893
71309W        W34868  44.393  11.811  12.878
71310W        W34869  29.518   4.224   2.339
71311W        W34870  32.527  28.607   0.827
71312W        W34871  44.978  30.065  14.968
71313W        W34872  25.015  22.534  14.355
71314W        W34873  39.463  36.989   4.823
71315W        W34874  33.599  20.220  13.489
71316W        W34875  35.528   6.278   1.841
71317W        W34876  35.974  28.939  13.966
71318W        W34877  33.956   2.929   3.236
71319W        W34878   7.171  16.262   0.816
71320W        W34879  34.114   1.762  11.932
71321W        W34880  41.921  29.090  13.374
71322W        W34881   6.383  15.759   1.315
71323W        W34882  27.985   8.838  14.415
71324W        W34883   5.235  42.505   2.292
71325W        W34884  32.623  27.584  13.539
71326W        W34885  28.032  34.536   1.370
71327W        W34886  28.069  37.351   2.802
71328W        W34887  17.130  24.677   1.791
71329W        W34888  24.155  40.395   9.973
71330W        W34889  42.357   2.372  11.857
71331W        W34890  32.128   3.834  11.594
71332W        W34891  10.284  29.583   3.284
71333W        W34892   0.390   8.327   2.895
71334W        W34893  43.993   0.408  12.953
71335W        W34894  12.674  15.637   0.765
71336W        W34895  32.610   8.212  14.909
71337W        W34896  18.636  44.762  13.885
71338W        W34897   8.688   5.814  11.926
71339W        W34898  18.764  17.207   2.366
71340W        W34899  39.392  27.036  10.476
71341W        W34900   9.219  17.565  12.520
71342W        W34901  24.212  15.694  11.487
71343W        W34902  23.703  24.977  13.917
71344W        W34903  29.590  34.902   4.226
71345W        W34904   9.730  20.548   1.903
71346W        W34905   6.217  15.601   2.719
71347W        W34906  18.770  44.448   2.832
71348W        W34907  42.436   2.228  10.605
71349W        W34908  32.045  38.965   3.240
71350W        W34909  14.625   9.278   1.907
71351W        W34910  41.852  27.465   1.236
71352W        W34911  22.218  33.458  13.309
71353W        W34912   0.871  38.564   0.730
71354W        W34913  33.483  36.991   0.804
71355W        W34914  34.918   9.755   1.317
71356W        W34915  31.936  39.486  13.484
71357W        W34916  19.096  20.554  11.553
71358W        W34917  14.825  23.611   1.378
71359W        W34918   7.809  13.641  13.450
71360W        W34919  27.559  12.790  10.992
71361W        W34920  27.959  22.507  14.497
71362W        W34921  23.142   0.481  10.423
71363W        W34922  22.043  21.097   0.778
71364W        W34923   6.344  30.032  11.473
71365W        W34924  41.515   4.379  13.861
71366W        W34925  24.035  33.003  13.027
71367W        W34926   8.681  13.125   2.674
71368W        W34927  19.202   6.279   2.778
71369W        W34928   6.355   3.225   1.363
71370W        W34929  17.617  37.464  12.937
71371W        W34930   8.281  26.458   9.925
71372W        W34931  14.784  30.638  11.981
71373W        W34932   6.375  10.802   2.760
71374W        W34933  44.376  25.581   0.787
71375W        W34934  39.456  41.414  12.020
71376W        W34935  39.441  36.593   4.609
71377W        W34936  21.135  22.146   1.246
71378W        W34937  28.594   0.252  11.431
71379W        W34938  32.952   8.727  10.439
71380W        W34939  43.926  30.069  10.633
71381W        W34940  20.587   1.303   1.353
71382W        W34941  18.624  10.297   4.675
71383W        W34942   9.367  25.985  14.788
71384W        W34943  11.163  38.838   1.862
71385W        W34944   8.666  42.812   3.719
71386W        W34945  34.439   3.834   4.118
71387W        W34946  18.604  17.785  10.992
71388W        W34947  40.914  17.174  11.869
71389W        W34948  36.016  31.038   4.718
71390W        W34949  25.690  15.273   4.208
71391W        W34950  30.422   6.304   5.158
71392W        W34951  22.142  14.615   3.176
71393W        W34952   3.352  34.048  13.881
71394W        W34953  24.011  28.120   5.304
71395W        W34954  17.743  40.350   4.747
71396W        W34955  35.509  15.596  14.016
71397W        W34956   2.768  30.531   4.709
71398W        W34957  36.543  13.693  14.928
71399W        W34958  34.923  35.860  13.987
71400W        W34959  29.078  36.891   3.232
71401W        W34960  16.601  16.654  12.344
71402W        W34961  12.685  29.603  10.951
71403W        W34962  34.399  28.029   1.213
71404W        W34963  31.042   7.179   9.938
71405W        W34964  17.162  33.093   4.642
71406W        W34965  29.658  40.447   4.779
71407W        W34966   2.762   6.844  13.419
71408W        W34967   1.360  36.942  14.809
71409W        W34968  10.682  44.872   2.183
71410W        W34969   9.343  31.485   1.745
71411W        W34970  27.181  23.501  12.984
71412W        W34971  42.975  18.666  10.584
71413W        W34972  30.440  14.221   1.851
71414W        W34973  29.637  40.848  11.505
71415W        W34974  41.953  16.601  11.872
71416W        W34975  24.109   6.706   0.823
71417W        W34976  13.324  36.918   4.611
71418W        W34977  38.570   8.346  12.356
71419W        W34978  18.097  25.672   4.212
71420W        W34979  19.189   9.170  12.945
71421W        W34980  29.948  36.879  12.084
71422W        W34981  17.757   0.414   4.346
71423W        W34982  11.721  37.974   2.237
71424W        W34983  28.112  21.737   9.507
71425W        W34984  12.787  32.010   3.703
71426W        W34985  18.709   8.216   1.334
71427W        W34986  22.024  24.707  11.885
71428W        W34987  17.766  43.425   1.306
71429W        W34988  31.042  20.122  14.513
71430W        W34989  35.490   9.285  11.881
71431W        W34990  35.376   1.415  13.528
71432W        W34991  18.620  25.526   1.340
71433W        W34992  43.916  41.475   0.455
71434W        W34993   4.833   5.869  13.395
71435W        W34994  10.806  21.220   2.213
71436W        W34995   5.735  40.815  14.796
71437W        W34996  23.633   7.711   3.675
71438W        W34997  10.280  23.171   1.918
71439W        W34998  15.266   6.775  11.466
71440W        W34999  30.141  20.543   2.365
71441W        W35000  14.289   5.335  10.094
71442W        W35001  18.153  10.305  11.964
71443W        W35002  39.314  30.574   2.400
71444W        W35003  43.289   3.728   0.795
71445W        W35004  36.961  27.184   2.901
71446W        W35005  34.965  36.069  11.995
71447W        W35006  27.522  25.520   3.710
71448W        W35007  25.161  27.131   2.755
71449W        W35008  39.027  12.651   3.768
71450W        W35009   3.752  18.585  10.596
71451W        W35010   4.835  13.188   5.096
71452W        W35011  16.129  40.802  11.074
71453W        W35012  16.175  30.924   4.229
71454W        W35013  29.115  37.420  14.383
71455W        W35014   9.387  13.797   2.372
71456W        W35015  33.512  37.914   4.745
71457W        W35016  38.881  10.247  12.096
71458W        W35017  15.687  15.268  10.017
71459W        W35018   7.230   3.790  12.829
71460W        W35019  40.386  35.094   4.347
71461W        W35020  32.515  24.108  11.010
71462W        W35021   5.426  30.019  14.978
71463W        W35022  34.102  16.596   2.886
71464W        W35023  22.028  40.377  14.436
71465W        W35024  22.692  25.654  11.557
71466W        W35025  19.284  19.072   0.360
71467W        W35026  17.746   8.258   2.797
71468W        W35027  21.525  14.735   0.460
71469W        W35028   0.773  32.055   2.767
71470W        W35029  13.735  39.353  12.499
71471W        W35030  37.859  21.089   9.993
71472W        W35031  31.455  15.634   1.356
71473W        W35032  17.247  10.733  14.808
71474W        W35033  28.544  31.034  12.095
71475W        W35034  19.577  32.600   0.474
71476W        W35035  42.359  39.423  12.079
71477W        W35036  44.409  18.585   5.264
71478W        W35037  28.956  12.281   1.935
71479W        W35038  32.512  42.360  13.408
71480W        W35039  29.920  43.827   3.285
71481W        W35040   2.935   0.895   3.690
71482W        W35041  32.912  23.174  10.568
71483W        W35042  18.050  44.877   2.365
71484W        W35043  37.468  16.575   4.351
71485W        W35044  21.615  14.186   0.838
71486W        W35045  42.810  16.249  14.849
71487W        W35046  19.214  43.800   3.801
71488W        W35047  20.604  12.671  13.541
71489W        W35048  13.171  28.599  14.327
71490W        W35049  39.344  30.153   2.357
71491W        W35050  14.813  32.594   1.862
71492W        W35051  22.124  24.511   3.370
71493W        W35052  30.083   9.746   4.752
71494W        W35053  41.524  30.638  11.886
71495W        W35054   2.342  22.245  10.433
71496W        W35055  42.955   6.408   2.189
71497W        W35056  33.481  17.265   0.905
71498W        W35057  37.412  35.984  13.334
71499W        W35058  43.504  40.950  11.429
71500W        W35059  30.085  42.321  11.954
71501W        W35060   6.721  14.278  12.051
71502W        W35061  16.214  34.088   0.749
71503W        W35062  13.811  31.983   0.417
71504W        W35063   3.262  21.696  13.867
71505W        W35064  11.770  23.143  13.435
71506W        W35065  22.127  28.175  13.527
71507W        W35066  36.519  23.496   1.440
71508W        W35067  25.187  25.196   1.699
71509W        W35068   4.232  16.786   1.281
71510W        W35069  20.711  29.175   0.387
71511W        W35070  18.670  38.355  11.950
71512W        W35071   0.820  36.434   3.781
71513W        W35072  37.553   9.246  14.859
71514W        W35073  43.954  25.673  12.468
71515W        W35074  24.088  36.567   1.913
71516W        W35075  20.665  31.408  12.934
71517W        W35076  24.523  25.492  11.064
71518W        W35077  42.328  36.864  14.333
71519W        W35078  40.499   0.787   2.863
71520W        W35079   5.407  11.774   0.927
71521W        W35080   8.242   2.884  10.628
71522W        W35081   4.762  17.298   3.384
71523W        W35082  32.906  14.721   3.267
71524W        W35083  20.114  36.519  14.322
71525W        W35084  37.017   5.259  12.035
71526W        W35085  36.071  11.245   3.304
71527W        W35086  39.396  29.459   1.817
71528W        W35087  26.572  22.523   0.865
71529W        W35088  38.379  36.504   0.956
71530W        W35089  43.771  30.066  11.893
71531W        W35090  38.332   1.364   3.351
71532W        W35091   4.817  33.399   0.274
71533W        W35092  31.557  40.451  11.394
71534W        W35093   5.219  10.190  10.936
71535W        W35094  39.895  22.084  12.355
71536W        W35095  26.063  30.553  11.105
71537W        W35096  36.459  22.149  13.987
71538W        W35097   9.213  39.840   4.261
71539W        W35098  23.166  31.911   4.683
71540W        W35099  37.888  38.883  11.056
71541W        W35100   7.906  35.858   3.146
71542W        W35101  38.900  35.436   1.899
71543W        W35102  23.062  31.641   5.288
71544W        W35103   8.274  31.614   4.802
71545W        W35104   9.756  36.046   1.313
71546W        W35105  12.774  34.097   3.635
71547W        W35106  36.854  14.794   0.273
71548W        W35107  21.128  28.561  10.008
71549W        W35108  27.155  43.999   4.746
71550W        W35109  21.572   2.379   4.713
71551W        W35110   4.439  23.700   4.649
71552W        W35111  29.117  25.084   1.406
71553W        W35112  21.554  22.109  13.056
71554W        W35113   5.264   5.729  12.017
71555W        W35114  15.821   8.182   3.759
71556W        W35115  15.277  35.588   0.758
71557W        W35116  32.140  41.841   0.756
71558W        W35117  41.463  11.868   2.814
71559W        W35118   6.422  32.522  11.982
71560W        W35119  36.503  28.570  12.869
71561W        W35120  33.075  11.755  12.870
71562W        W35121  31.059   9.391  13.546
71563W        W35122  41.994   1.901  14.502
71564W        W35123   4.759   3.272   3.670
71565W        W35124   7.743  44.475   2.898
71566W        W35125  15.601   9.691  11.003
71567W        W35126  22.508  27.991   3.667
71568W        W35127  38.400  25.000   1.309
71569W        W35128  10.653   4.204   4.273
71570W        W35129  44.916  33.507   3.836
71571W        W35130  26.629  25.625  10.146
71572W        W35131  17.153  13.187  12.478
71573W        W35132   2.387  38.054   3.857
71574W        W35133  42.022  28.510   1.377
71575W        W35134  44.983  38.525   3.850
71576W        W35135  40.543   1.428  13.031
71577W        W35136  32.045  25.680   4.800
71578W        W35137  32.406  10.735   2.416
71579W        W35138   7.860  41.530  12.021
71580W        W35139  29.606   0.977  13.037
71581W        W35140  41.893  10.321  11.556
71582W        W35141  24.544  10.856  13.005
71583W        W35142  33.572   2.804  12.015
71584W        W35143   6.251  40.891  14.008
71585W        W35144  10.247   0.320   0.802
71586W        W35145  32.931  16.213  14.390
71587W        W35146  40.465  17.212   2.287
71588W        W35147   5.214   8.286   4.217
71589W        W35148  22.506   0.340  12.892
71590W        W35149  13.699  31.925  11.090
71591W        W35150   7.876   6.760  13.814
71592W        W35151   6.231  20.146   2.734
71593W        W35152  39.900  15.201   3.182
71594W        W35153  30.073  25.185  10.415
71595W        W35154  27.036  38.525   0.447
71596W        W35155  27.549  26.626  10.002
71597W        W35156  30.587  28.109  12.932
71598W        W35157   6.191  10.722  12.496
71599W        W35158   1.477  11.168  14.369
71600W        W35159  25.566  13.631  10.639
71601W        W35160  31.001  40.949  12.067
71602W        W35161  16.235  18.224   1.775
71603W        W35162  26.461  29.427  13.469
71604W        W35163  17.594  16.791   2.710
71605W        W35164  33.032  26.019   0.748
71606W        W35165  29.158  23.011   2.700
71607W        W35166  22.700  40.400  12.498
71608W        W35167  19.117  11.716  13.994
71609W        W35168  19.554  18.185  13.823
71610W        W35169  28.012  35.866  11.870
71611W        W35170  16.753  13.113   1.756
71612W        W35171   8.301   1.460  12.943
71613W        W35172  34.979   4.276   0.400
71614W        W35173  39.494  43.815  10.463
71615W        W35174  10.821   5.712  10.514
71616W        W35175  28.184  15.633   2.358
71617W        W35176  16.093  42.314  11.413
71618W        W35177  33.947   6.346   0.911
71619W        W35178  13.712  35.991  12.970
71620W        W35179   0.435  30.500  11.571
71621W        W35180   6.334  10.649  13.499
71622W        W35181  37.474  31.577   2.791
71623W        W35182  19.770   6.343  11.056
71624W        W35183  30.548  25.976   3.849
71625W        W35184  22.680  36.420   4.134
71626W        W35185   9.232  28.575   1.833
71627W        W35186  32.452  25.639  13.791
71628W        W35187  36.347  14.303  10.888
71629W        W35188  24.054  34.022  10.421
71630W        W35189  35.104  22.638   4.696
71631W        W35190  18.081  26.672   3.288
71632W        W35191   2.397  19.757   2.247
71633W        W35192   3.291  44.335   5.108
71634W        W35193  20.187  35.860   9.947
71635W        W35194  25.505   7.171  10.630
71636W        W35195  39.322   8.714  14.494
71637W        W35196   1.732  38.508   0.926
71638W        W35197  37.358  17.765   1.212
71639W        W35198  14.797   4.266   2.865
71640W        W35199  18.260  34.488  13.317
71641W        W35200  44.771   1.801  14.030
71642W        W35201   2.401   0.434   2.700
71643W        W35202  38.538  29.167   0.912
71644W        W35203   4.706   4.342   2.889
71645W        W35204  39.040   4.334   1.384
71646W        W35205   8.739  33.073   2.257
71647W        W35206  33.419  20.730   4.168
71648W        W35207   2.378  38.454   1.779
71649W        W35208  23.092  41.793   2.687
71650W        W35209   5.265  17.776   2.320
71651W        W35210  28.665  39.558   1.399
71652W        W35211  25.621  32.933  10.974
71653W        W35212   1.277  43.916  12.972
71654W        W35213  22.085  38.058   0.294
71655W        W35214   4.229  23.598   3.777
71656W        W35215  39.485  35.513   0.860
71657W        W35216  39.853  25.545  12.480
71658W        W35217   4.368   4.280   0.298
71659W        W35218  42.369  18.545   0.734
71660W        W35219  23.144  24.047   0.964
71661W        W35220  14.231   0.350   3.322
71662W        W35221  35.013   0.893   1.349
71663W        W35222  13.342   4.890  12.827
71664W        W35223  25.589   2.432  14.993
71665W        W35224  10.336  12.771   1.916
71666W        W35225  28.109  29.072  12.076
71667W        W35226  32.577  25.005   1.321
71668W        W35227   3.305   5.430  13.807
71669W        W35228  15.579   6.716  11.520
71670W        W35229  39.058   0.882   3.227
71671W        W35230  35.555  42.025   1.711
71672W        W35231  41.315  37.958   1.741
71673W        W35232  44.952  22.058  12.487
71674W        W35233  39.855  27.138  14.969
71675W        W35234  26.606  38.025   1.922
71676W        W35235  10.750  16.757   0.369
71677W        W35236  43.325   9.300  12.568
71678W        W35237  24.658  38.033  12.068
71679W        W35238  22.521  36.562   0.747
71680W        W35239  29.473  41.827  10.096
71681W        W35240  29.123  21.698  14.893
71682W        W35241  30.035   7.225   2.379
71683W        W35242  17.195   2.369   4.345
71684W        W35243  41.817   6.802   2.360
71685W        W35244  16.157  21.145   0.399
71686W        W35245  32.987  36.460  12.423
71687W        W35246   2.891  19.129  10.932
71688W        W35247   7.378  36.955  11.992
71689W        W35248   3.722  34.396   2.682
71690W        W35249   0.934  22.739   4.182
71691W        W35250  28.952  37.410  10.540
71692W        W35251   3.921  22.081  13.351
71693W        W35252  10.831  27.468   0.943
71694W        W35253   8.839   6.311  13.840
71695W        W35254  44.992  34.983   4.753
71696W        W35255  16.689  26.525  11.552
71697W        W35256  12.360  37.419  14.418
71698W        W35257  11.816  27.514   2.852
71699W        W35258   6.791   8.834  12.024
71700W        W35259  21.564  21.091  14.830
71701W        W35260  36.583   2.423   3.746
71702W        W35261  25.055  43.368  14.968
71703W        W35262  42.903  27.128  11.104
71704W        W35263  21.729  15.822   1.873
71705W        W35264   6.209  38.902  14.812
71706W        W35265  25.047  44.306  13.840
71707W        W35266  37.016  39.460   4.145
71708W        W35267   4.436  18.775  14.995
71709W        W35268  44.818  33.441   3.213
71710W        W35269  28.584  28.607  14.798
71711W        W35270  13.802  24.699   2.851
71712W        W35271  31.969  34.490  11.490
71713W        W35272  17.264  42.887   1.412
71714W        W35273  25.470  23.063  10.996
71715W        W35274   5.881  19.755   1.274
71716W        W35275  20.598  10.374  12.908
71717W        W35276   3.336  34.897   3.326
71718W        W35277  40.425   9.359  12.568
71719W        W35278  41.018  10.648  14.312
71720W        W35279  32.025  37.025   0.927
71721W        W35280  22.111  41.306  12.552
71722W        W35281   9.686  44.925   1.351
71723W        W35282  30.440  43.381  13.376
71724W        W35283   6.250  34.909  10.549
71725W        W35284  21.538  25.512   3.671
71726W        W35285  37.437  34.957  14.459
71727W        W35286  12.363  28.625  11.869
71728W        W35287   8.300   3.409   2.834
71729W        W35288  29.935  44.307   4.719
71730W        W35289  36.916  28.542  11.969
71731W        W35290  35.871  17.574   4.182
71732W        W35291  33.459  37.410   0.470
71733W        W35292  19.069  38.983  13.041
71734W        W35293  21.749  28.084   3.368
71735W        W35294  43.871  29.041  10.966
71736W        W35295  42.810  16.258  11.434
71737W        W35296  29.611   6.189  11.516
71738W        W35297  35.864  35.045  12.530
71739W        W35298  27.975   0.965  11.579
71740W        W35299  14.711  34.447  14.016
71741W        W35300  35.511  32.464  13.318
71742W        W35301   7.409  15.288  11.101
71743W        W35302  41.323   3.749   3.182
71744W        W35303  20.751  32.066   0.342
71745W        W35304   4.264  18.271   3.763
71746W        W35305  26.694   8.792  11.064
71747W        W35306  38.328   3.335   4.207
71748W        W35307  21.727  27.088   1.248
71749W        W35308   3.437  28.173   5.108
71750W        W35309  33.976   0.904  11.944
71751W        W35310   0.938  14.610  12.375
71752W        W35311  15.270   1.965  11.922
71753W        W35312  40.312  43.441   4.727
71754W        W35313  32.099  22.583   3.362
71755W        W35314  34.564  10.303  10.949
71756W        W35315  20.097  20.201   4.213
71757W        W35316   9.723  23.585  14.783
71758W        W35317  43.366  15.716   2.819
71759W        W35318   3.749  30.032  14.005
71760W        W35319  26.640   1.854  13.034
71761W        W35320  38.524  21.647   0.820
71762W        W35321  34.109  12.791   1.283
71763W        W35322   2.425  38.955  14.031
71764W        W35323  17.656  17.294  10.465
71765W        W35324  43.974  14.151  14.824
71766W        W35325   2.281  16.663   2.895
71767W        W35326  18.684   1.812   4.120
71768W        W35327  40.887  24.512   4.806
71769W        W35328  20.215   1.309   0.335
71770W        W35329  31.441   2.362   4.809
71771W        W35330   7.245   5.258  12.373
71772W        W35331   1.469   8.898  14.351
71773W        W35332  39.388  16.795   4.825
71774W        W35333  33.434  12.777  12.962
71775W        W35334   9.336  12.240  12.985
71776W        W35335  31.014  12.659  14.369
71777W        W35336  10.250  21.658  13.359
71778W        W35337   0.850  23.502  13.013
71779W        W35338  44.396   1.934   3.368
71780W        W35339  32.124  25.047  10.546
71781W        W35340  37.027   3.303   1.831
71782W        W35341  12.739  34.084   1.906
71783W        W35342  10.369  42.428  13.059
71784W        W35343  23.733  27.107   1.731
71785W        W35344   9.676  27.978  13.961
71786W        W35345   7.791  26.514   0.451
71787W        W35346  15.307  14.217   0.287
71788W        W35347  16.713  12.264  12.957
71789W        W35348  25.592  28.673   3.302
71790W        W35349  29.992  15.601  11.110
71791W        W35350   1.397  32.530  12.409
71792W        W35351  10.276  36.420   1.272
71793W        W35352   1.853   2.277  13.032
71794W        W35353  23.179  39.841  14.351
71795W        W35354  35.498  44.800   2.249
71796W        W35355   0.379   9.868  14.891
71797W        W35356  44.801  23.670  12.933
71798W        W35357  24.047  44.885  14.490
71799W        W35358   6.321  40.873  12.423
71800W        W35359  34.093  41.423  10.565
71801W        W35360   1.325   4.215  10.588
71802W        W35361   0.397  28.065  11.899
71803W        W35362  25.598  14.689   2.232
71804W        W35363  40.335  35.527  13.321
71805W        W35364  14.649  31.117  11.556
71806W        W35365  30.450  32.610  11.928
71807W        W35366  26.701  39.525  12.080
71808W        W35367  25.080   6.752   0.398
71809W        W35368  23.165   0.786   9.938
71810W        W35369  32.959   2.905  13.859
71811W        W35370  33.587   6.377   2.354
71812W        W35371  31.617  31.971   2.742
71813W        W35372  26.583  16.589   1.717
71814W        W35373  20.733  16.146  14.002
71815W        W35374  32.051  33.023   2.306
71816W        W35375  16.216   2.908  11.480
71817W        W35376  20.142  20.234  14.761
71818W        W35377  42.835  26.592   4.836
71819W        W35378  21.592  25.188   0.820
71820W        W35379  34.523  36.943   0.914
71821W        W35380  21.205  42.304  10.532
71822W        W35381   7.764  10.271  13.992
71823W        W35382  27.150  15.317   3.291
71824W        W35383  20.130  38.966  14.863
71825W        W35384  28.624  24.673   0.759
71826W        W35385  10.804  17.276   3.858
71827W        W35386  40.463  26.544  13.877
71828W        W35387  43.420  15.220   0.303
71829W        W35388   7.820  40.483  11.434
71830W        W35389  32.133  12.853   4.115
71831W        W35390   9.832  42.804   3.711
71832W        W35391  12.735  29.920  12.387
71833W        W35392   7.684  32.567   1.753
71834W        W35393   8.861  37.830  14.359
71835W        W35394  42.522  14.757  12.885
71836W        W35395   3.896  24.097   2.681
71837W        W35396  39.009  22.031  13.398
71838W        W35397  18.113  28.073  14.902
71839W        W35398  24.981  22.589  13.943
71840W        W35399  23.162  23.071   3.272
71841W        W35400  34.496  34.566  10.618
71842W        W35401  29.651   5.264   1.437
71843W        W35402  24.023  10.750   2.814
71844W        W35403  34.926   5.860  11.378
71845W        W35404  40.335  40.398   3.348
71846W        W35405  25.007  16.251  14.908
71847W        W35406  14.320  26.036  14.436
71848W        W35407   9.389   4.906  14.854
71849W        W35408  28.671   0.976   3.236
71850W        W35409  40.034  29.054   1.810
71851W        W35410  17.716  16.171   2.848
71852W        W35411  11.790  11.705  13.930
71853W        W35412  32.072  10.231   0.356
71854W        W35413  28.096   5.690   0.331
71855W        W35414  14.693  37.873   3.242
71856W        W35415  25.004  37.989  11.961
71857W        W35416  36.570  11.173  10.457
71858W        W35417  44.968  10.836  13.487
71859W        W35418  20.248  40.960  11.467
71860W        W35419  26.203  18.610  14.446
71861W        W35420  32.419  16.614   3.781
71862W        W35421   7.865   9.324   1.266
71863W        W35422  14.687  17.201   2.664
71864W        W35423  10.732   4.448   2.350
71865W        W35424  35.408   6.212   2.777
71866W        W35425  25.540  30.120   1.237
71867W        W35426  33.440  43.429  11.877
71868W        W35427  37.450  39.019   4.330
71869W        W35428   8.287  37.388   5.141
71870W        W35429  10.208  13.299  12.393
71871W        W35430  34.414  12.357   4.180
71872W        W35431  29.455  32.042   4.299
71873W        W35432   7.410  15.744   3.808
71874W        W35433  33.424  27.194   3.372
71875W        W35434  27.962   9.806  11.899
71876W        W35435  34.476  18.713   0.373
71877W        W35436  35.458  18.122   3.329
71878W        W35437  11.818  19.708   1.750
71879W        W35438  19.267  38.340   0.844
71880W        W35439  10.877  17.191   4.309
71881W        W35440   7.688  36.920  12.420
71882W        W35441  36.897  10.832  14.853
71883W        W35442  25.142  28.114   0.878
71884W        W35443  30.522  20.085   3.816
71885W        W35444   1.270  22.133  12.353
71886W        W35445  35.473  23.703  13.486
71887W        W35446  34.508  19.104  11.914
71888W        W35447  27.055  20.725   4.258
71889W        W35448  31.521   3.899  11.576
71890W        W35449  30.040  30.058   4.242
71891W        W35450   6.332  27.016   4.686
71892W        W35451   6.334  10.755  11.923
71893W        W35452  35.458  26.646   3.375
71894W        W35453  15.591  40.922   3.808
71895W        W35454   8.692   0.981  12.836
71896W        W35455  32.041  44.759   3.225
71897W        W35456  25.011  16.121  12.476
71898W        W35457   3.365   1.254   2.210
71899W        W35458  34.993  24.653   2.771
71900W        W35459  34.971  21.177  11.049
71901W        W35460  41.802  29.486   4.333
71902W        W35461   1.254  10.769  13.900
71903W        W35462  32.066  32.509  13.998
71904W        W35463  29.660  23.553   4.631
71905W        W35464   6.726   6.399  11.033
71906W        W35465   0.963   3.353   2.781
71907W        W35466  27.113  22.724   0.936
71908W        W35467  22.071   3.794   1.811
71909W        W35468   3.751  32.576  14.368
71910W        W35469  23.604   6.349   4.318
71911W        W35470  20.613   8.761   2.327
71912W        W35471  39.384  24.512  11.984
71913W        W35472   8.188  44.777   3.264
71914W        W35473  36.092  19.247  11.025
71915W        W35474  32.072  26.628  12.954
71916W        W35475  42.878   7.822   3.641
71917W        W35476  20.044   3.903  10.494
71918W        W35477  21.689  29.945  14.347
71919W        W35478  36.458  38.903  10.645
71920W        W35479  18.645  30.956  10.482
71921W        W35480  36.012   9.339  12.851
71922W        W35481   0.424  35.506   3.855
71923W        W35482  20.589  30.455   0.963
71924W        W35483  29.170   7.388  14.940
71925W        W35484   1.841  40.051   1.858
71926W        W35485  28.041  25.602  13.885
71927W        W35486  34.584  39.320   3.212
71928W        W35487  12.637   1.257  11.095
71929W        W35488  14.122   1.958  12.363
71930W        W35489   8.695  17.614   3.183
71931W        W35490  14.149  26.544  13.357
71932W        W35491  41.915   2.388  10.565
71933W        W35492  12.796  12.154  14.508
71934W        W35493  32.116   1.742  11.503
71935W        W35494  23.532  34.917  13.033
71936W        W35495   3.301   8.662   1.398
71937W        W35496  31.015  23.672  13.372
71938W        W35497  37.580  41.879   3.662
71939W        W35498   8.750  36.354   0.250
71940W        W35499  42.812  41.499   0.389
71941W        W35500  33.526  42.379  12.504
71942W        W35501  25.633  13.716   2.854
71943W        W35502  26.164  12.307  10.955
71944W        W35503  26.058  13.159  13.335
71945W        W35504  38.855  44.362  12.015
71946W        W35505  26.467  38.336  12.436
71947W        W35506   8.831  31.986   1.407
71948W        W35507  14.306   7.218  10.490
71949W        W35508  23.173  35.885   2.192
71950W        W35509  11.838   0.858   0.407
71951W        W35510  36.951  20.764   4.719
71952W        W35511  41.486  15.137   2.869
71953W        W35512   7.837  36.923  11.881
71954W        W35513  35.415   2.330   1.372
71955W        W35514   4.393  22.719  11.105
71956W        W35515   1.930  17.579   1.296
71957W        W35516  12.818  42.935   0.286
71958W        W35517   1.281  37.911   3.690
71959W        W35518  27.636  31.969  13.804
71960W        W35519  24.076  33.482   5.303
71961W        W35520  22.080   7.680   4.737
71962W        W35521  30.081  16.730  11.385
71963W        W35522  12.351  24.550   3.310
71964W        W35523  16.788   0.791  13.971
71965W        W35524  27.542   5.799  14.759
71966W        W35525  17.266  14.243  10.115
71967W        W35526  42.323  23.699  12.888
71968W        W35527   1.944   5.730   3.178
71969W        W35528  12.132   8.332  13.819
71970W        W35529  23.043  10.198  11.004
71971W        W35530   2.870  26.648  14.466
71972W        W35531  19.752  38.329  14.925
71973W        W35532  16.569   3.735  14.860
71974W        W35533  44.931  32.058  13.475
71975W        W35534  31.438  32.026  13.376
71976W        W35535  24.676   0.269  12.363
71977W        W35536  22.191  29.104  11.479
71978W        W35537   0.376  41.030  10.463
71979W        W35538   6.351  14.700   3.220
71980W        W35539  32.108  30.049  10.551
71981W        W35540  24.642  12.665   1.271
71982W        W35541  11.171  35.939   9.507
71983W        W35542  16.663  13.709  11.125
71984W        W35543  11.154  37.580  12.934
71985W        W35544   4.914  25.664  11.894
71986W        W35545  43.953  40.443  14.011
71987W        W35546   3.268  32.119  12.906
71988W        W35547  24.607  36.388  13.463
71989W        W35548  12.695  31.584   1.353
71990W        W35549  22.204   1.376  13.480
71991W        W35550   1.790  25.662   3.208
71992W        W35551  26.077  22.640   3.319
71993W        W35552  27.601  27.053  13.978
71994W        W35553  38.430  19.099   1.856
71995W        W35554  34.465  24.191   4.163
71996W        W35555  16.315  40.052   3.211
71997W        W35556   9.196   7.341   2.846
71998W        W35557  33.431  10.796  12.973
71999W        W35558   9.183  18.152   0.841
72000W        W35559   9.224  25.094   2.836
72001W        W35560  40.832  36.478  14.344
72002W        W35561  28.528  40.837   5.180
72003W        W35562  43.491  24.504   3.163
72004W        W35563  13.146  24.017   2.214
72005W        W35564  40.304  36.586   3.659
72006W        W35565  18.555  40.916   0.762
72007W        W35566  22.630  27.503  12.417
72008W        W35567   3.777  28.967  12.359
72009W        W35568  40.029   0.759  13.009
72010W        W35569   6.747  28.146  10.405
72011W        W35570  23.108  25.052  13.351
72012W        W35571  34.932  41.368  13.512
72013W        W35572   8.261  12.838  10.137
72014W        W35573  25.105  25.072  13.034
72015W        W35574  41.795  21.185   4.705
72016W        W35575  15.596  43.935  11.081
72017W        W35576  22.112  16.226  12.063
72018W        W35577  43.452   4.815   2.762
72019W        W35578  40.481  27.479   3.161
72020W        W35579  38.041  28.621   3.691
72021W        W35580  34.521   0.440   0.960
72022W        W35581  27.082  41.883   1.904
72023W        W35582  15.317  31.568  10.970
72024W        W35583   4.317   1.307  14.002
72025W        W35584  24.682  26.105   3.713
72026W        W35585  26.053   8.791  14.941
72027W        W35586   5.256  17.284  12.987
72028W        W35587   4.316  18.098   4.238
72029W        W35588   2.783  19.129   1.430
72030W        W35589   8.398  42.880  14.955
72031W        W35590   9.234  39.839   3.165
72032W        W35591  22.747  10.297  10.086
72033W        W35592  20.715  42.513  12.870
72034W        W35593  31.591   8.172  13.387
72035W        W35594  34.937  40.048  10.936
72036W        W35595  33.613   7.207  13.461
72037W        W35596  34.502  25.119  13.005
72038W        W35597   0.420   4.871  10.125
72039W        W35598  11.296   3.950  14.993
72040W        W35599  25.966  29.171  13.401
72041W        W35600   9.325  44.875   1.727
72042W        W35601  34.972  33.469   0.915
72043W        W35602   2.931  43.980  14.937
72044W        W35603   9.812  42.320  10.452
72045W        W35604   3.798  13.261  11.015
72046W        W35605  32.595  21.095  14.288
72047W        W35606  43.464   1.758   0.424
72048W        W35607  36.025   6.897  12.951
72049W        W35608  24.974  40.407  11.500
72050W        W35609  32.589  28.022  10.011
72051W        W35610   7.785  38.342  11.602
72052W        W35611   8.276   8.893   1.435
72053W        W35612  20.586  37.876  13.884
72054W        W35613   2.245  36.013   2.389
72055W        W35614  40.872  32.116   3.186
72056W        W35615  18.219  12.340   3.358
72057W        W35616  22.044  18.095  13.002
72058W        W35617   6.824  19.554  13.543
72059W        W35618   2.944  44.377   4.770
72060W        W35619  26.957   0.899   3.806
72061W        W35620  29.590  21.038   2.330
72062W        W35621  22.507  27.953  14.507
72063W        W35622   5.884  20.535  10.537
72064W        W35623  21.148  44.277  10.502
72065W        W35624  17.782   3.342  13.986
72066W        W35625  33.620  44.791  11.993
72067W        W35626  14.196  19.623   0.483
72068W        W35627  14.784  19.753   0.320
72069W        W35628  10.324   6.207  11.447
72070W        W35629   1.244   3.379  13.405
72071W        W35630  14.202   3.753  11.875
72072W        W35631   7.271  30.106   2.862
72073W        W35632   4.699  20.535   3.383
72074W        W35633  31.558  37.391  12.874
72075W        W35634  10.791  33.625   3.322
72076W        W35635  22.654  35.593  11.456
72077W        W35636   3.300   4.712   9.953
72078W        W35637   3.839  14.328   1.257
72079W        W35638   5.734  42.469   3.193
72080W        W35639  30.474  35.999   3.645
72081W        W35640   0.381  27.166   2.266
72082W        W35641  32.497   2.277  11.080
72083W        W35642   8.826  40.839   1.308
72084W        W35643  29.061  19.737  13.452
72085W        W35644  22.999  26.573   4.181
72086W        W35645  41.294  43.945  12.931
72087W        W35646   3.378  19.223   0.766
72088W        W35647   1.262  41.007  14.918
72089W        W35648  17.243  15.662  12.880
72090W        W35649  41.870  44.988   1.343
72091W        W35650   7.219  31.460   4.265
72092W        W35651  41.014  17.779   0.283
72093W        W35652  25.212  32.458  11.867
72094W        W35653  44.826   3.865  13.907
72095W        W35654   8.236   5.279   3.207
72096W        W35655  10.207  26.616   2.693
72097W        W35656  19.078  30.488  11.074
72098W        W35657  21.165   7.341   0.406
72099W        W35658  21.129  10.295   0.954
72100W        W35659   8.798  26.044  11.007
72101W        W35660  37.510  32.140   3.352
72102W        W35661  41.368  13.793   4.652
72103W        W35662   9.274  12.723   0.967
72104W        W35663  27.026  38.878  11.952
72105W        W35664  16.670  21.585   2.673
72106W        W35665  20.244  41.875   0.265
72107W        W35666   1.472  25.071   3.360
72108W        W35667  27.468  10.138  13.000
72109W        W35668  14.605  26.042   2.805
72110W        W35669  28.169  25.550   5.201
72111W        W35670  43.842  29.616   4.141
72112W        W35671  14.310  15.656   2.836
72113W        W35672  19.584  29.943   4.315
72114W        W35673  34.426   1.237  12.937
72115W        W35674  21.539  28.931  14.845
72116W        W35675  13.350  23.197  14.931
72117W        W35676  44.785   4.866  13.799
72118W        W35677  43.837  34.953  12.889
72119W        W35678   8.791  12.188   1.248
72120W        W35679  34.441  26.669   2.703
72121W        W35680  18.554  42.964   4.205
72122W        W35681  35.922   2.433  12.515
72123W        W35682   4.821   2.458  11.447
72124W        W35683  29.668  41.476   1.294
72125W        W35684  23.702  22.639   0.328
72126W        W35685   3.902  43.952   1.829
72127W        W35686   6.265  28.560   2.338
72128W        W35687  39.484  19.700  11.386
72129W        W35688   5.247  23.510  10.627
72130W        W35689  39.868  43.362   2.673
72131W        W35690   0.956   9.370   4.301
72132W        W35691   5.393  28.173  13.504
72133W        W35692  28.644  31.035   3.382
72134W        W35693  42.290  31.627   2.181
72135W        W35694   0.342   8.791   1.934
72136W        W35695  29.067  37.940   3.766
72137W        W35696   9.368  31.521   3.673
72138W        W35697  10.156   6.840   1.873
72139W        W35698  37.521   0.373   2.826
72140W        W35699  37.994  33.415  11.941
72141W        W35700  43.953  16.579  13.010
72142W        W35701  33.573  39.012   2.674
72143W        W35702  13.629  34.462   0.913
72144W        W35703  23.683  10.260   0.307
72145W        W35704  16.640  19.632   3.180
72146W        W35705  38.889  15.680  13.923
72147W        W35706  33.917  22.684   1.860
72148W        W35707  34.518   9.746   0.479
72149W        W35708  35.602  33.053  13.847
72150W        W35709   8.208  30.577   0.872
72151W        W35710   8.326   0.427  12.063
72152W        W35711  15.750  41.508   2.286
72153W        W35712  41.935  31.445   4.608
72154W        W35713  24.167  24.687  11.417
72155W        W35714   2.339  14.766   3.166
72156W        W35715  44.366  15.253   9.978
72157W        W35716  24.608  43.846   1.746
72158W        W35717  16.604  19.559  13.833
72159W        W35718  35.933  21.643   3.683
72160W        W35719  33.482  30.550  13.468
72161W        W35720  13.250  32.413   2.900
72162W        W35721  11.361  20.541   1.413
72163W        W35722  42.450  42.858  13.988
72164W        W35723   8.315   2.326   3.339
72165W        W35724  44.774  41.387   1.403
72166W        W35725  30.555  18.730   1.406
72167W        W35726   5.821  21.255   3.228
72168W        W35727   1.836   5.396  11.505
72169W        W35728  30.458   2.956  14.372
72170W        W35729  37.958  18.605   3.677
72171W        W35730  29.145  21.027   1.815
72172W        W35731  28.452   9.854   2.226
72173W        W35732  40.013   7.342   4.171
72174W        W35733  35.524  33.939  10.900
72175W        W35734  16.244   4.854   2.186
72176W        W35735  14.792  42.882   4.754
72177W        W35736  29.583  37.967   1.822
72178W        W35737  34.916  25.701   2.841
72179W        W35738  32.024  11.731  10.635
72180W        W35739   9.334   0.435  14.504
72181W        W35740  38.912  40.547  12.902
72182W        W35741   7.272  42.373  12.902
72183W        W35742   0.872  13.648   2.244
72184W        W35743   4.715   8.870   1.314
72185W        W35744  36.890  31.595  14.292
72186W        W35745  26.686  44.840   2.200
72187W        W35746  34.060   5.381  14.821
72188W        W35747  22.225  30.521  11.513
72189W        W35748   0.961  11.868  12.930
72190W        W35749   3.426  35.575  12.531
72191W        W35750  43.394  20.038  11.081
72192W        W35751  17.636  35.858  12.453
72193W        W35752   7.245  32.526  11.598
72194W        W35753  17.748  17.065  12.490
72195W        W35754  30.121  22.531  13.328
72196W        W35755   8.797  31.540  14.447
72197W        W35756   8.342  40.000   4.184
72198W        W35757  33.594   8.351   0.475
72199W        W35758  35.442  24.991   1.933
72200W        W35759  16.225  32.428  10.608
72201W        W35760  20.588  19.123  13.793
72202W        W35761  41.794  42.837   3.796
72203W        W35762  42.345   3.777  10.932
72204W        W35763  27.068  10.359  11.588
72205W        W35764  43.866   3.742   1.345
72206W        W35765  31.054  16.222   0.351
72207W        W35766  43.508  41.487   2.303
72208W        W35767  35.867  36.387   3.672
72209W        W35768  18.709   7.702   0.457
72210W        W35769   9.174   7.365   0.868
72211W        W35770  26.489  22.727  11.042
72212W        W35771  21.617  32.413   4.809
72213W        W35772  10.653   8.349  13.007
72214W        W35773  12.126   7.336   2.790
72215W        W35774   8.225  18.231  13.995
72216W        W35775  23.494  23.666   3.247
72217W        W35776  23.169  44.492   3.791
72218W        W35777   0.347  22.699   4.297
72219W        W35778  29.635   2.336  14.312
72220W        W35779  19.602  21.130   5.298
72221W        W35780   5.788  26.615   1.899
72222W        W35781  28.154  14.701   4.290
72223W        W35782  18.252  21.040  14.017
72224W        W35783   7.873  12.758   1.851
72225W        W35784   6.329  14.675  12.830
72226W        W35785  10.384  29.151  12.445
72227W        W35786  23.732  28.146  13.036
72228W        W35787  20.266   3.420  11.098
72229W        W35788   6.769  11.841  11.459
72230W        W35789   3.223  28.053  11.488
72231W        W35790  10.863  15.145   0.904
72232W        W35791  28.076  27.945   1.718
72233W        W35792  22.061  33.111  12.830
72234W        W35793  40.823  26.690   3.675
72235W        W35794  33.946  43.500  13.462
72236W        W35795  29.110  38.513  12.393
72237W        W35796   4.806  38.975   4.628
72238W        W35797  42.330  24.669   3.295
72239W        W35798  44.779  43.838   2.829
72240W        W35799  40.847  25.562  14.871
72241W        W35800  31.043   8.214  14.790
72242W        W35801  11.225  10.382  14.469
72243W        W35802  34.950   4.240   1.316
72244W        W35803  29.608  42.859  10.015
72245W        W35804  23.207   9.851   4.809
72246W        W35805  12.182  15.660   5.570
72247W        W35806  23.188  38.867  10.016
72248W        W35807  32.098  40.877   0.330
72249W        W35808  21.030  44.935  13.885
72250W        W35809  30.095  30.419  11.105
72251W        W35810  26.549   3.730   0.758
72252W        W35811   7.906  10.790  11.046
72253W        W35812   4.349  31.945   0.903
72254W        W35813  26.165   5.801   2.845
72255W        W35814  26.556  20.100   2.677
72256W        W35815  40.911  35.958  10.910
72257W        W35816  28.645  30.109  13.926
72258W        W35817   4.700  20.122  10.593
72259W        W35818  15.648   1.973  10.623
72260W        W35819  11.778  40.838  11.520
72261W        W35820  43.418   9.753   1.836
72262W        W35821  35.109  22.538  13.351
72263W        W35822  32.575  43.909   2.694
72264W        W35823  27.691  32.509  13.016
72265W        W35824  39.019  38.520  14.772
72266W        W35825  18.106   4.868  11.422
72267W        W35826  14.213  32.098   2.780
72268W        W35827  24.584   6.721  14.321
72269W        W35828  25.673  14.803  11.989
72270W        W35829  43.417  41.319   3.272
72271W        W35830  34.085  14.256  14.031
72272W        W35831  17.151   2.350  12.823
72273W        W35832  27.008   9.365  13.877
72274W        W35833  42.354  34.558  14.772
72275W        W35834  37.050  28.159  10.998
72276W        W35835  33.006  41.808   1.900
72277W        W35836   4.914  21.139   1.398
72278W        W35837  35.476   8.314  10.446
72279W        W35838  19.112  12.126  12.002
72280W        W35839  35.024   2.908   1.877
72281W        W35840  13.827  23.109  11.115
72282W        W35841   5.829  35.465   4.229
72283W        W35842  11.351  28.618   0.312
72284W        W35843  34.612  14.814  14.783
72285W        W35844   5.876  22.133   0.908
72286W        W35845  19.754  37.402   3.861
72287W        W35846   1.268   0.828  12.465
72288W        W35847  42.524   2.835  13.494
72289W        W35848  28.997  11.708   3.173
72290W        W35849  28.628  16.114   1.909
72291W        W35850  23.528   2.244   1.708
72292W        W35851  25.637  32.489   2.297
72293W        W35852  31.935   0.465   0.737
72294W        W35853  12.631  18.766   0.358
72295W        W35854  38.047  19.136  13.909
72296W        W35855   4.752  32.940  14.829
72297W        W35856   0.819   6.202   1.721
72298W        W35857  28.976   2.809  13.453
72299W        W35858  33.609  34.416   0.818
72300W        W35859  28.574  37.469  12.924
72301W        W35860  39.041  26.132  14.902
72302W        W35861  35.875   4.936   4.280
72303W        W35862  13.263  19.618  13.360
72304W        W35863  21.600  10.280   2.855
72305W        W35864  19.156   3.797  13.390
72306W        W35865  22.628  31.573   2.864
72307W        W35866   6.280  41.809   4.737
72308W        W35867  41.491  41.536  11.513
72309W        W35868  35.521  28.091  11.069
72310W        W35869  29.958  35.367  13.038
72311W        W35870  42.330   9.735  14.770
72312W        W35871  12.173   4.413  11.588
72313W        W35872  10.180  16.607   4.763
72314W        W35873  25.590  40.534   1.927
72315W        W35874  41.433  40.048  13.007
72316W        W35875  39.458  11.260  13.430
72317W        W35876  42.936  30.544  10.486
72318W        W35877  14.284  25.087   1.357
72319W        W35878  15.201   7.747  12.481
72320W        W35879  32.064  30.537  13.315
72321W        W35880  28.030  18.054  13.837
72322W        W35881  28.609  41.896   1.245
72323W        W35882  28.022   0.298   1.747
72324W        W35883  14.750  22.141  11.858
72325W        W35884  42.451   1.748  14.970
72326W        W35885  38.431  40.022  13.897
72327W        W35886   8.265   0.768   3.660
72328W        W35887  33.398   5.279  12.943
72329W        W35888   1.322  21.170   4.615
72330W        W35889  31.083   6.881  11.126
72331W        W35890   8.802  31.033   2.796
72332W        W35891  43.846  39.915   2.860
72333W        W35892   7.346   8.239   4.713
72334W        W35893   7.684  32.963   1.725
72335W        W35894  21.739  14.140   1.849
72336W        W35895  34.936  32.576   9.602
72337W        W35896  16.624  15.208   4.152
72338W        W35897  20.595  35.578   1.731
72339W        W35898  24.183  28.933  11.544
72340W        W35899  27.609   6.741  10.464
72341W        W35900   4.916  21.590  12.939
72342W        W35901  23.726  24.068   5.150
72343W        W35902  22.049  39.915  10.473
72344W        W35903  34.496  28.643   0.331
72345W        W35904  40.866  28.642  12.489
72346W        W35905  43.962  13.152  14.329
72347W        W35906  12.698  44.293   3.641
72348W        W35907  40.050  26.694   0.876
72349W        W35908  25.594  42.009   3.267
72350W        W35909  13.769  36.435   5.241
72351W        W35910   4.330   2.793  11.105
72352W        W35911  34.575  31.505   1.297
72353W        W35912  35.081  29.602  12.488
72354W        W35913  20.549   1.464  13.814
72355W        W35914  33.570  12.259   3.264
72356W        W35915  25.184   2.780   0.416
72357W        W35916  41.508  44.807  13.848
72358W        W35917  36.420  37.573   4.641
72359W        W35918   0.477  25.219  13.963
72360W        W35919   3.333  29.589  13.851
72361W        W35920  24.179  41.036   4.669
72362W        W35921   7.337  23.674   1.881
72363W        W35922  25.173   2.746  11.507
72364W        W35923  35.020  22.625   0.254
72365W        W35924  12.838   5.206   4.151
72366W        W35925  10.654  22.501  14.407
72367W        W35926  20.265   2.855   1.388
72368W        W35927  25.491  34.967   0.369
72369W        W35928  31.014  37.961  11.465
72370W        W35929  31.436  22.634   3.688
72371W        W35930  27.486  40.418  12.569
72372W        W35931  24.639   5.329  13.541
72373W        W35932  37.992   7.674   0.443
72374W        W35933  17.191  35.101   2.356
72375W        W35934  15.823   7.779   1.934
72376W        W35935  22.713  20.107   3.704
72377W        W35936  36.057  43.966   0.330
72378W        W35937  25.086  26.089  12.983
72379W        W35938   0.893  40.475   0.472
72380W        W35939  14.196   8.326   3.375
72381W        W35940  22.114  17.727  11.127
72382W        W35941  34.599  21.720   2.739
72383W        W35942  38.512  26.989  12.075
72384W        W35943  42.932   3.398   1.382
72385W        W35944  18.232  35.419   3.839
72386W        W35945  41.455  23.113  14.472
72387W        W35946  32.591  36.522   2.393
72388W        W35947  22.132  20.160  13.325
72389W        W35948  42.021  33.105   1.255
72390W        W35949  13.172  18.170  13.028
72391W        W35950   3.258   6.280   3.696
72392W        W35951   9.719  26.964  14.907
72393W        W35952  34.518   9.290  10.489
72394W        W35953  26.032  33.877  12.061
72395W        W35954  24.988  16.674  11.084
72396W        W35955  37.081  15.291   2.858
72397W        W35956  38.940  37.368   2.666
72398W        W35957   3.385  10.172   0.763
72399W        W35958  29.528  35.456  14.783
72400W        W35959  30.024   7.805  11.096
72401W        W35960  38.860  10.771   2.318
72402W        W35961   0.754  29.001  11.499
72403W        W35962  34.875   3.904   1.773
72404W        W35963   3.794  21.638  10.984
72405W        W35964   3.956  20.706  14.495
72406W        W35965  43.279  14.663  12.966
72407W        W35966  41.375   9.311  11.388
72408W        W35967  14.214  41.871  13.457
72409W        W35968  16.721   1.809   2.662
72410W        W35969  23.662  11.771   2.805
72411W        W35970  19.188   4.804  14.855
72412W        W35971   9.371  24.528  10.506
72413W        W35972  31.897  28.606  10.461
72414W        W35973   3.769   8.388   1.250
72415W        W35974  16.743  11.770  10.597
72416W        W35975  18.671  27.188   3.790
72417W        W35976  24.985  29.471   5.286
72418W        W35977  35.943  12.713   1.767
72419W        W35978  43.479  23.984  11.995
72420W        W35979  18.691  37.554  11.456
72421W        W35980  23.052   4.699  11.472
72422W        W35981   5.697  33.015   4.261
72423W        W35982  18.602  44.284  13.969
72424W        W35983   1.267  19.598  12.823
72425W        W35984  40.952  21.757  10.494
72426W        W35985  33.416  31.516   0.384
72427W        W35986  24.186  24.692   4.149
72428W        W35987  22.070  32.920  11.939
72429W        W35988  26.474  41.002   2.825
72430W        W35989  39.553  12.840   4.771
72431W        W35990  11.843   3.744  11.964
72432W        W35991  30.124  32.925   3.681
72433W        W35992  12.792   9.749  14.375
72434W        W35993  14.784  21.627   0.246
72435W        W35994  25.689  30.500   2.686
72436W        W35995  32.060  41.449  10.072
72437W        W35996  36.013   2.958  10.966
72438W        W35997  44.391  37.851   2.215
72439W        W35998  42.840  14.231  10.921
72440W        W35999  33.380  32.094  12.878
72441W        W36000  37.896  15.096  11.421
72442W        W36001  43.008  40.472   3.828
72443W        W36002   1.377  44.425   3.769
72444W        W36003   2.927  38.951  10.623
72445W        W36004   7.705  22.207   2.368
72446W        W36005  18.199  16.294  10.934
72447W        W36006  37.971  16.215   1.318
72448W        W36007  44.948  20.647  13.028
72449W        W36008  38.370  34.615   4.817
72450W        W36009   5.866   3.365   3.382
72451W        W36010   2.303  13.635  12.840
72452W        W36011   7.380   0.968   3.819
72453W        W36012  10.689  14.153   2.407
72454W        W36013  15.678  22.235   4.782
72455W        W36014   8.802  39.560   3.813
72456W        W36015  23.061  26.613  10.935
72457W        W36016  31.078  37.976  14.416
72458W        W36017  44.916  14.176   2.696
72459W        W36018   2.900  38.536  13.892
72460W        W36019  34.529   4.902  13.511
72461W        W36020   1.367  19.624   2.796
72462W        W36021  23.666  16.225   4.713
72463W        W36022  33.556  14.269   2.687
72464W        W36023   9.186  33.519  11.559
72465W        W36024  13.340  17.710  12.568
72466W        W36025  25.984   4.746   1.223
72467W        W36026  23.674  25.195   2.851
72468W        W36027  22.745  27.656   1.844
72469W        W36028   5.893  37.522  13.427
72470W        W36029  38.949  22.713   3.828
72471W        W36030   2.766  14.298   4.635
72472W        W36031  27.451  42.479  14.491
72473W        W36032  13.656   7.790   4.637
72474W        W36033  26.159  30.912   3.765
72475W        W36034   7.686  44.834   0.406
72476W        W36035  32.006  21.631  12.554
72477W        W36036  22.716  22.062   2.398
72478W        W36037  39.515  21.673  12.930
72479W        W36038  43.914  38.351  12.379
72480W        W36039  17.757  36.490  13.970
72481W        W36040  29.430  22.513   4.667
72482W        W36041  10.780   1.413  12.073
72483W        W36042   7.308  19.591  11.019
72484W        W36043   7.750  24.547  13.425
72485W        W36044  34.400   8.666  12.385
72486W        W36045   5.909  44.308  14.310
72487W        W36046  24.672  10.181  11.893
72488W        W36047   9.646  19.102   3.863
72489W        W36048  17.259  21.744   0.756
72490W        W36049  41.863  14.330   4.797
72491W        W36050  13.245   4.429   4.774
72492W        W36051  10.342   8.324   1.836
72493W        W36052  20.113  36.537   2.412
72494W        W36053  29.133   0.826   2.897
72495W        W36054  27.687  27.581  12.433
72496W        W36055  37.040  19.692   0.869
72497W        W36056  33.452  37.986   2.736
72498W        W36057  33.545  21.675  12.888
72499W        W36058  11.332  13.203   2.296
72500W        W36059   5.300   5.711   4.290
72501W        W36060  14.218   7.266   4.774
72502W        W36061  17.666   1.905  12.558
72503W        W36062  23.129  20.138  10.492
72504W        W36063   7.369  32.123  11.430
72505W        W36064  44.351   1.936   2.247
72506W        W36065  11.292   6.334   3.745
72507W        W36066  10.322   3.781  10.096
72508W        W36067  21.139  35.957  13.462
72509W        W36068  32.484  43.380  11.023
72510W        W36069  28.041  30.975   4.341
72511W        W36070  29.972  35.025  12.088
72512W        W36071   9.163  34.973   0.730
72513W        W36072  13.770   6.739   2.400
72514W        W36073   0.911  25.565  12.060
72515W        W36074  23.655   2.387  11.869
72516W        W36075  33.554  29.606  14.892
72517W        W36076  39.942  27.581   4.695
72518W        W36077  15.655  23.716  12.577
72519W        W36078  26.475  27.152   0.274
72520W        W36079  29.612  15.637   5.129
72521W        W36080  22.662  22.569   2.184
72522W        W36081  27.077  44.318  14.867
72523W        W36082  19.688  37.009   0.743
72524W        W36083   2.932  15.772  12.425
72525W        W36084  26.097  12.752   3.857
72526W        W36085   4.326  38.497   3.755
72527W        W36086  20.072  39.385  11.045
72528W        W36087   7.782  14.306  11.559
72529W        W36088  29.109  26.972  11.952
72530W        W36089  15.217   5.275  10.580
72531W        W36090  30.545  41.412   3.215
72532W        W36091   9.877   4.926   2.794
72533W        W36092  34.924  20.140   4.143
72534W        W36093  13.165  30.648   3.367
72535W        W36094  21.612   6.243  13.415
72536W        W36095  32.545  28.974   0.393
72537W        W36096  16.236  17.658  11.475
72538W        W36097   0.312  35.961   4.120
72539W        W36098  36.966  11.859  13.927
72540W        W36099  25.189  42.467  10.435
72541W        W36100  32.548  24.006   2.726
72542W        W36101  26.090  13.139   2.178
72543W        W36102   5.348  31.514   3.705
72544W        W36103  28.929  39.525   4.322
72545W        W36104  23.206  42.507  11.932
72546W        W36105  23.635  43.799  10.446
72547W        W36106  20.669   2.395  14.935
72548W        W36107  26.663   8.889   4.641
72549W        W36108   6.414   2.785  10.009
72550W        W36109  27.651  23.627   5.254
72551W        W36110  32.487   5.903  12.921
72552W        W36111   8.659  33.565  13.456
72553W        W36112  32.961  13.653  13.006
72554W        W36113  26.064  38.992   3.253
72555W        W36114   0.875  42.858  10.457
72556W        W36115  23.597  26.482  13.406
72557W        W36116  11.176  27.977   3.345
72558W        W36117  24.611  33.942   2.380
72559W        W36118  17.194   9.800   1.758
72560W        W36119  25.136  29.445   1.838
72561W        W36120  44.010  18.647  10.491
72562W        W36121  12.801   3.937   1.819
72563W        W36122   6.402  17.737   4.157
72564W        W36123  18.775  24.569   0.286
72565W        W36124  15.287  20.679  11.998
72566W        W36125  14.187  25.970  12.986
72567W        W36126  37.563   0.344  13.833
72568W        W36127  26.112   7.393   1.226
72569W        W36128  40.941  20.590  14.341
72570W        W36129  36.478   8.239  10.442
72571W        W36130  38.951  31.453   4.155
72572W        W36131  30.085  32.026   4.171
72573W        W36132  43.285  16.569  12.512
72574W        W36133   9.888  41.320   4.653
72575W        W36134  38.898   5.850   1.745
72576W        W36135  28.025  36.398   1.897
72577W        W36136  24.005  37.550  12.892
72578W        W36137   7.737  21.627  11.431
72579W        W36138  21.260  19.046  12.027
72580W        W36139   0.895   4.843   4.667
72581W        W36140  34.996  20.054   0.339
72582W        W36141   1.381  19.643   0.420
72583W        W36142  29.449  25.660  14.031
72584W        W36143  18.633  39.054   0.810
72585W        W36144   9.150  38.909   3.357
72586W        W36145  24.725  11.308   3.301
72587W        W36146  44.932  18.105  14.380
72588W        W36147   3.270  21.517   1.870
72589W        W36148  26.143   4.297   3.166
72590W        W36149  25.103  18.281  12.981
72591W        W36150  38.868  16.639  11.427
72592W        W36151  33.947  44.331   4.778
72593W        W36152  14.219  25.977   0.732
72594W        W36153  24.664  20.531   1.695
72595W        W36154  44.345  35.358   2.850
72596W        W36155  15.811   2.385   4.160
72597W        W36156  29.055   3.426  11.576
72598W        W36157  13.125  26.106  10.471
72599W        W36158  23.019  31.062   4.808
72600W        W36159  41.299  12.268  12.380
72601W        W36160  19.121  13.740  11.384
72602W        W36161  39.560  38.350   4.793
72603W        W36162   3.440  33.518  12.823
72604W        W36163  24.714  34.538   1.834
72605W        W36164   6.399  26.662  14.987
72606W        W36165  28.982  15.199  13.823
72607W        W36166  22.540   4.920   3.170
72608W        W36167  42.801  21.613  10.627
72609W        W36168  23.641  36.404  13.348
72610W        W36169   8.223  16.210  14.392
72611W        W36170  42.974   3.348   3.841
72612W        W36171  30.430   6.861   4.778
72613W        W36172   2.908  37.843   4.674
72614W        W36173  32.966  43.442  12.578
72615W        W36174  17.592  11.282  14.403
72616W        W36175  28.551  37.001   2.885
72617W        W36176  11.667   8.386  11.438
72618W        W36177  43.365  19.155  12.078
72619W        W36178  17.178  19.095   1.326
72620W        W36179  37.478  37.983  14.809
72621W        W36180  28.013  34.402   2.365
72622W        W36181  21.673  44.997   2.359
72623W        W36182  21.731  13.698   0.778
72624W        W36183  24.540  32.932  12.879
72625W        W36184   0.338  22.203   1.369
72626W        W36185  33.519  10.669   3.761
72627W        W36186  20.746  14.189   0.342
72628W        W36187  21.129   2.415   0.837
72629W        W36188  30.123   4.721  11.486
72630W        W36189  38.020   9.203   2.747
72631W        W36190  40.304  18.724   2.738
72632W        W36191  34.925  16.577   1.422
72633W        W36192   4.934   5.353   2.208
72634W        W36193   2.912  20.734   3.258
72635W        W36194  23.005   5.321   3.351
72636W        W36195  44.788   1.396   2.787
72637W        W36196  13.331  34.420   0.307
72638W        W36197  32.591  17.161   3.735
72639W        W36198  18.229  16.297  12.342
72640W        W36199  21.063  19.745   3.827
72641W        W36200  28.438  11.174  12.476
72642W        W36201   6.735  21.175   1.412
72643W        W36202  31.940   8.400  13.366
72644W        W36203   8.334  42.010  12.825
72645W        W36204  25.499  12.249   0.261
72646W        W36205  23.021  30.090   1.394
72647W        W36206  18.283   9.696   2.391
72648W        W36207  35.905   0.957  12.981
72649W        W36208  21.691   6.677   2.860
72650W        W36209  37.497  31.960   2.386
72651W        W36210  19.604   3.285   0.473
72652W        W36211  20.603  31.554   3.380
72653W        W36212   4.723  34.466   9.946
72654W        W36213  26.482  41.466  12.368
72655W        W36214  14.159  40.815   0.424
72656W        W36215  34.435  25.008  10.629
72657W        W36216  16.238  23.551   2.713
72658W        W36217  19.278  33.018  10.517
72659W        W36218   6.922  13.718  12.390
72660W        W36219  13.812  43.932  12.439
72661W        W36220   0.954  31.950   4.824
72662W        W36221   8.800  15.214   1.701
72663W        W36222  35.003   0.816   0.444
72664W        W36223  35.991   2.267  11.433
72665W        W36224  25.581   4.919  10.490
72666W        W36225  28.050  23.077   1.764
72667W        W36226  14.785  44.433  13.438
72668W        W36227  38.398  36.499   0.406
72669W        W36228   7.389   2.326   5.318
72670W        W36229  39.386  44.341  11.955
72671W        W36230  14.168  22.185  14.807
72672W        W36231   0.756  14.177   0.375
72673W        W36232  40.980  14.643   3.716
72674W        W36233  38.904  34.084  12.544
72675W        W36234  27.527  33.546  12.989
72676W        W36235  39.322   7.262  14.376
72677W        W36236  27.084   2.765  14.822
72678W        W36237  26.115   0.308  13.825
72679W        W36238  24.105  43.485  12.930
72680W        W36239  32.035  15.153   0.832
72681W        W36240   8.815   0.742   1.316
72682W        W36241  12.704   9.830  10.645
72683W        W36242  19.572  14.200  12.568
72684W        W36243   9.169  22.023   3.856
72685W        W36244  39.036   8.869   0.783
72686W        W36245  28.489  35.543   3.336
72687W        W36246  25.619  40.980  12.381
72688W        W36247  30.004  30.519   1.302
72689W        W36248  25.552  21.627   0.287
72690W        W36249   0.332  13.821  12.057
72691W        W36250  19.698  10.780   3.211
72692W        W36251  26.579   7.398  13.909
72693W        W36252   8.804  31.628  10.921
72694W        W36253  21.207  37.379  12.471
72695W        W36254  44.299  35.399   1.751
72696W        W36255  31.459  38.847   3.161
72697W        W36256  27.998   7.888  14.437
72698W        W36257  31.611  28.155  13.004
72699W        W36258  34.027  38.036  14.930
72700W        W36259  42.449  24.669  11.607
72701W        W36260   6.423   6.921  13.928
72702W        W36261  31.631  37.383   3.350
72703W        W36262  15.252  13.171  11.530
72704W        W36263   2.789  28.166  13.917
72705W        W36264  35.911  36.033   2.787
72706W        W36265  43.428  36.452   2.814
72707W        W36266   8.832  30.951  11.389
72708W        W36267  18.735  18.277   3.635
72709W        W36268   9.243  36.440   0.883
72710W        W36269   5.241  40.548   4.737
72711W        W36270  16.694  40.462  11.609
72712W        W36271  12.849  32.099  10.575
72713W        W36272  11.866  21.121   0.874
72714W        W36273  21.633  29.039  13.955
72715W        W36274  33.492  35.960   2.199
72716W        W36275  23.208  33.408  14.459
72717W        W36276   8.708  21.198  14.407
72718W        W36277  37.388   9.822  11.988
72719W        W36278  36.954  35.068   4.740
72720W        W36279  14.325  18.262  14.803
72721W        W36280  13.160  13.147   1.900
72722W        W36281   1.357  35.443  10.992
72723W        W36282  30.597  16.225   1.334
72724W        W36283   3.808  20.125   0.815
72725W        W36284   7.738  11.695   2.375
72726W        W36285   7.744  34.493   1.286
72727W        W36286  44.850  15.119   3.263
72728W        W36287   9.737   2.904  13.814
72729W        W36288  38.017  41.852  12.548
72730W        W36289  41.961  19.270   3.697
72731W        W36290  35.105   6.892  10.586
72732W        W36291  11.312  40.537   2.685
72733W        W36292  35.917  34.097  11.873
72734W        W36293  16.106  11.685   0.900
72735W        W36294  16.289  33.876  12.988
72736W        W36295   4.728  26.049  12.512
72737W        W36296  12.659  10.347   2.298
72738W        W36297  22.639  35.387   4.708
72739W        W36298  20.104  26.984  14.872
72740W        W36299  10.821  23.223  11.576
72741W        W36300  43.437   4.850  11.976
72742W        W36301  24.670  36.086  12.959
72743W        W36302  23.137   4.366   4.604
72744W        W36303  15.299   4.372  13.334
72745W        W36304   7.801  30.548   2.863
72746W        W36305  22.576  20.735   3.197
72747W        W36306  25.119  22.637   4.180
72748W        W36307   7.185  29.621   1.322
72749W        W36308  26.629  12.331  13.392
72750W        W36309  43.914   9.668   0.932
72751W        W36310   6.917  43.500  10.988
72752W        W36311  44.491   5.715  14.431
72753W        W36312   6.205  42.498  12.862
72754W        W36313  40.967  16.104  11.005
72755W        W36314  31.980  11.181  10.590
72756W        W36315  35.106  40.896   4.292
72757W        W36316   1.932  40.802  13.017
72758W        W36317   2.838  44.865   2.249
72759W        W36318  18.684  15.186  10.480
72760W        W36319  37.533  16.706  13.950
72761W        W36320  41.508  33.607   1.332
72762W        W36321  10.266  39.894  10.431
72763W        W36322   9.214   6.295  11.605
72764W        W36323  12.323  34.063   2.879
72765W        W36324   0.970  40.036   0.249
72766W        W36325   2.758  28.044   4.759
72767W        W36326  31.141  28.529   3.848
72768W        W36327  23.538   7.748   0.961
72769W        W36328   9.710  28.439  12.377
72770W        W36329  35.427  33.099  11.556
72771W        W36330   8.794  13.249   0.467
72772W        W36331  34.045   2.383  14.278
72773W        W36332  27.105   8.858   3.652
72774W        W36333   0.814   8.792  10.929
72775W        W36334  12.300  29.020  12.039
72776W        W36335   2.387  35.429   0.884
72777W        W36336  16.680  11.675  13.017
72778W        W36337   8.728  26.688   2.789
72779W        W36338  20.051  13.733  14.986
72780W        W36339  24.567  42.866  10.494
72781W        W36340  41.801  14.221  11.009
72782W        W36341  25.573   8.793   3.743
72783W        W36342  32.515   7.255   2.314
72784W        W36343  38.819  24.098   4.651
72785W        W36344   5.278  23.058   0.444
72786W        W36345  23.706  26.549  12.002
72787W        W36346  33.472   0.980  12.420
72788W        W36347  25.092  21.028   2.720
72789W        W36348  19.595  25.696  14.024
72790W        W36349  28.606  21.597   5.106
72791W        W36350  28.546  37.845  12.939
72792W        W36351  12.646  30.142  14.789
72793W        W36352  12.714  42.951   2.188
72794W        W36353  25.475  34.977  12.020
72795W        W36354  18.132  12.728  11.506
72796W        W36355  13.184   5.793   2.883
72797W        W36356  12.739  19.174   0.458
72798W        W36357  39.383  37.339  14.496
72799W        W36358  17.155  31.098   0.787
72800W        W36359  16.594  39.043   0.300
72801W        W36360   7.688  43.456  14.830
72802W        W36361   0.922  24.179   2.854
72803W        W36362  37.509  23.676   3.767
72804W        W36363   5.418  28.135   1.721
72805W        W36364  34.608  12.687   0.895
72806W        W36365  34.384   5.864  14.402
72807W        W36366  11.265  16.767   1.863
72808W        W36367  18.199  28.492  14.399
72809W        W36368  23.532  39.983   0.450
72810W        W36369  19.236  21.243  11.947
72811W        W36370  29.495  17.297   5.197
72812W        W36371  40.810  26.701  10.976
72813W        W36372  21.673   3.722   3.829
72814W        W36373  18.094   5.778  13.493
72815W        W36374  43.410  19.742   4.746
72816W        W36375   6.861  22.999   2.823
72817W        W36376   6.234  28.579  11.485
72818W        W36377   0.767   0.249   2.202
72819W        W36378  22.727  38.039   0.927
72820W        W36379  19.722   1.345  11.572
72821W        W36380  35.493  28.969   3.736
72822W        W36381  44.323  10.227  10.140
72823W        W36382  23.146  33.130   3.820
72824W        W36383   1.370  42.455  13.466
72825W        W36384  27.644   0.277  11.491
72826W        W36385  40.026  20.556   4.810
72827W        W36386  22.711   3.352   2.778
72828W        W36387   6.241  40.799   2.381
72829W        W36388  35.399  30.048  12.919
72830W        W36389  24.665  40.847   3.698
72831W        W36390  32.056  15.221  11.050
72832W        W36391  34.953  16.572  11.480
72833W        W36392  41.863   7.237   4.122
72834W        W36393  39.811  43.462   3.204
72835W        W36394  17.104  22.137   4.284
72836W        W36395  38.549  39.847   4.677
72837W        W36396  14.751  33.986   1.927
72838W        W36397  17.765  33.927   0.470
72839W        W36398  17.713  13.162   0.306
72840W        W36399   2.428  20.223   3.269
72841W        W36400  20.669  22.555  14.871
72842W        W36401  21.090  43.338   0.444
72843W        W36402  39.021  42.406   1.241
72844W        W36403  21.644  33.913   3.285
72845W        W36404  42.311  26.512   3.220
72846W        W36405  20.566  23.625   4.676
72847W        W36406  41.852  15.244  10.946
72848W        W36407  43.006  39.476   3.246
72849W        W36408  41.444   4.302  14.871
72850W        W36409  27.469  18.193   0.429
72851W        W36410  40.523  44.932   1.810
72852W        W36411  43.941  39.473  10.437
72853W        W36412  24.683  30.916  12.860
72854W        W36413  15.788   1.909   1.374
72855W        W36414  23.984   5.858   4.255
72856W        W36415  19.693  30.627   9.997
72857W        W36416  32.926  32.124  11.386
72858W        W36417  20.671   2.827   4.837
72859W        W36418   1.823   5.747  10.578
72860W        W36419  27.117  24.524   1.694
72861W        W36420  29.575  28.994   0.466
72862W        W36421  36.422  24.010   1.444
72863W        W36422  16.616  38.384  13.918
72864W        W36423  28.104   4.326  12.361
72865W        W36424  23.680  20.139   3.769
72866W        W36425  26.639  37.352  12.572
72867W        W36426  31.059  29.921   0.919
72868W        W36427  29.521   9.677   0.807
72869W        W36428   4.204  23.194  13.373
72870W        W36429   5.201   5.312  13.492
72871W        W36430  29.481  23.681   5.239
72872W        W36431  23.695  17.228  14.847
72873W        W36432  23.114  26.625   2.733
72874W        W36433  14.113  41.912   5.290
72875W        W36434  20.702  13.773   4.619
72876W        W36435  26.672  23.693   2.820
72877W        W36436  10.327  25.015   3.829
72878W        W36437  23.029   3.305  11.488
72879W        W36438  10.172  23.700  11.601
72880W        W36439  21.146  15.209  10.603
72881W        W36440  22.009  32.413   9.639
72882W        W36441  14.781   9.170  10.595
72883W        W36442  35.450  11.154  13.890
72884W        W36443  24.983   4.326  14.999
72885W        W36444  23.649  41.926   0.863
72886W        W36445  40.549  12.782   3.292
72887W        W36446  12.664  27.072  12.454
72888W        W36447  25.009  25.516   2.295
72889W        W36448   2.303  39.015  12.524
72890W        W36449  26.672   0.273  11.955
72891W        W36450  35.517  18.141   3.646
72892W        W36451  36.082  43.296   0.876
72893W        W36452  20.199  16.103  12.837
72894W        W36453  34.604  35.514  14.475
72895W        W36454   9.789  11.256  10.013
72896W        W36455  17.169   7.819  12.036
72897W        W36456  25.628  19.623   0.843
72898W        W36457   3.829  37.420  14.929
72899W        W36458  21.224  30.432  13.891
72900W        W36459   1.940  35.894   2.284
72901W        W36460  37.568  13.741   3.792
72902W        W36461  40.369   7.288  13.879
72903W        W36462  17.246  30.986  11.949
72904W        W36463  24.630  23.656  13.366
72905W        W36464  35.865  35.446   4.665
72906W        W36465  15.587  40.326   1.422
72907W        W36466   4.894  25.681  11.399
72908W        W36467   8.390  21.062   2.225
72909W        W36468  37.950  14.209   4.156
72910W        W36469  21.160  38.404  13.416
72911W        W36470   2.232  35.075   0.728
72912W        W36471  14.665  12.712   3.187
72913W        W36472   5.717  39.951   0.937
72914W        W36473  44.353   0.758  11.552
72915W        W36474  34.489  22.174  11.055
72916W        W36475  35.477  41.298   0.839
72917W        W36476  38.863   1.969  10.956
72918W        W36477  26.627  33.894   3.763
72919W        W36478  19.712  27.616   0.949
72920W        W36479  37.064  44.494   3.682
72921W        W36480  18.577  38.557  11.570
72922W        W36481  43.375   0.274  14.927
72923W        W36482  18.709  23.679   9.949
72924W        W36483  17.159   6.876   2.344
72925W        W36484   6.247  16.612  14.769
72926W        W36485  32.030  40.814  11.075
72927W        W36486   8.315  34.467  12.359
72928W        W36487  14.807   4.252   1.240
72929W        W36488  34.507  39.029  13.365
72930W        W36489  30.959  25.577  12.074
72931W        W36490  28.073  18.124  12.576
72932W        W36491  10.178  34.555   3.635
72933W        W36492  13.844   6.683  12.414
72934W        W36493   7.796  30.061   1.778
72935W        W36494  31.947  34.535   4.154
72936W        W36495  36.441  32.143  14.394
72937W        W36496  40.034  43.436  14.001
72938W        W36497   5.315   6.771   0.847
72939W        W36498  36.884  12.848   1.389
72940W        W36499  12.237  42.022   4.172
72941W        W36500  35.573  43.452   4.659
72942W        W36501  17.568  42.392   4.133
72943W        W36502  23.138  21.637  10.954
72944W        W36503   2.787  41.392  11.466
72945W        W36504  24.521  20.122  13.863
72946W        W36505  24.676  15.295  14.423
72947W        W36506  18.204  43.839  13.361
72948W        W36507  12.843  12.703   3.332
72949W        W36508  36.580  37.405  12.573
72950W        W36509  34.120  38.920  14.296
72951W        W36510   4.926   5.302   3.804
72952W        W36511  16.143   3.351  10.406
72953W        W36512  26.185   5.825   3.806
72954W        W36513  17.744  41.526  12.423
72955W        W36514  17.718   6.907  12.440
72956W        W36515  39.840  16.665  14.842
72957W        W36516  32.137   2.294   5.265
72958W        W36517  27.003  11.843   1.409
72959W        W36518  29.930   8.268  12.057
72960W        W36519  30.958   7.179   1.325
72961W        W36520  12.357  32.532   4.238
72962W        W36521   1.302  17.087  10.920
72963W        W36522  41.955  12.639  11.031
72964W        W36523  44.437  28.126   5.139
72965W        W36524  31.040  36.411   2.362
72966W        W36525  34.030  12.814  12.988
72967W        W36526  23.172  18.159  13.980
72968W        W36527  34.575  14.808   1.419
72969W        W36528  36.588  13.224  11.540
72970W        W36529  24.537  37.990   0.436
72971W        W36530  37.970  21.712   4.284
72972W        W36531   3.310  29.068  13.986
72973W        W36532  15.205  31.999  13.890
72974W        W36533  43.866   9.354  14.906
72975W        W36534  30.565  41.443   0.355
72976W        W36535  11.186   6.334   1.905
72977W        W36536  41.383  39.957  13.331
72978W        W36537  34.050   1.848  12.413
72979W        W36538  24.122  43.474   4.149
72980W        W36539  20.228   7.910   3.806
72981W        W36540  43.915   2.874   1.812
72982W        W36541  22.710  12.798  14.368
72983W        W36542  31.928   9.322  11.484
72984W        W36543  29.592   9.279  12.416
72985W        W36544  44.936  19.718  12.850
72986W        W36545  37.439  24.997  11.095
72987W        W36546  36.022  21.026  14.401
72988W        W36547   9.213  18.261  10.974
72989W        W36548  28.558   3.742  11.126
72990W        W36549   9.678  14.617   5.236
72991W        W36550  28.106  25.103   1.770
72992W        W36551  15.773  19.107   0.793
72993W        W36552  38.917   0.750   2.893
72994W        W36553  16.137   8.669  12.381
72995W        W36554   9.746   0.756  14.785
72996W        W36555  41.996  12.335  11.023
72997W        W36556  13.811  40.472  14.430
72998W        W36557  14.136  19.144   4.274
72999W        W36558  28.962   8.693  10.576
73000W        W36559  14.829   5.844  12.356
73001W        W36560  23.692   0.764  11.556
73002W        W36561   5.889  36.904   4.821
73003W        W36562  33.921  44.805   1.352
73004W        W36563   1.456  17.787   4.630
73005W        W36564  11.279  19.104   3.787
73006W        W36565  31.152  26.558  10.063
73007W        W36566   7.211   0.949   4.792
73008W        W36567  12.285  25.214   2.242
73009W        W36568  40.916  24.524   1.368
73010W        W36569  11.150  35.383   0.790
73011W        W36570   4.793   0.934   5.254
73012W        W36571  22.132  24.200  11.889
73013W        W36572  37.023  31.968  14.911
73014W        W36573   3.874   9.190   4.276
73015W        W36574  42.940   4.349   2.706
73016W        W36575  30.151  22.087  11.971
73017W        W36576  44.007  31.616   0.815
73018W        W36577  29.006  41.862  12.398
73019W        W36578  42.387  13.252  12.457
73020W        W36579  42.973  19.047   1.423
73021W        W36580  21.512   2.452   4.215
73022W        W36581  32.543  19.658  12.950
73023W        W36582  31.973  39.556   0.790
73024W        W36583  37.480  27.562  12.361
73025W        W36584  35.033  27.036  12.916
73026W        W36585  24.133  31.443   0.481
73027W        W36586  13.231  23.659  10.901
73028W        W36587  42.873   0.742   4.756
73029W        W36588   0.747  14.322   5.179
73030W        W36589  39.030   9.294   3.305
73031W        W36590  44.957  39.945   0.950
73032W        W36591   4.302  27.979   1.782
73033W        W36592  44.950  26.957   0.315
73034W        W36593   6.821  23.136  12.060
73035W        W36594  38.037   9.701  12.034
73036W        W36595  36.543  26.182   0.933
73037W        W36596   4.377   5.317   2.722
73038W        W36597   5.425  22.733   0.957
73039W        W36598  27.133   5.427  14.390
73040W        W36599  19.654   1.414  13.512
73041W        W36600  40.409  29.664  13.835
73042W        W36601  18.163  37.412  11.908
73043W        W36602  27.500   4.929   2.313
73044W        W36603  37.396   3.812   3.207
73045W        W36604  19.577  33.514   0.864
73046W        W36605  15.652  13.760   2.821
73047W        W36606   7.865   1.341  12.516
73048W        W36607  39.504  39.022  13.858
73049W        W36608  43.368  20.568   2.843
73050W        W36609  43.351  22.713  11.535
73051W        W36610  25.195   6.368   3.183
73052W        W36611   3.796  25.629  13.845
73053W        W36612   2.746  10.226  10.998
73054W        W36613  25.099  20.635  14.982
73055W        W36614  44.786   3.860  12.013
73056W        W36615  13.607  36.955   3.217
73057W        W36616  19.702  36.423   0.891
73058W        W36617   2.958  35.574   3.853
73059W        W36618  37.581   0.855  11.990
73060W        W36619  11.343  41.848   0.432
73061W        W36620  27.007  23.199  14.350
73062W        W36621   5.399  19.229  12.963
73063W        W36622   8.713  12.132   2.255
73064W        W36623   3.396  19.564  14.835
73065W        W36624  16.289  24.111   1.876
73066W        W36625  16.302   4.415   4.739
73067W        W36626  15.646  34.990  14.397
73068W        W36627  27.988  33.080  13.321
73069W        W36628  10.655  30.024   2.402
73070W        W36629   4.403  35.379   3.208
73071W        W36630  16.734  32.435   0.840
73072W        W36631   7.679  24.029   1.707
73073W        W36632  29.644  13.204  11.956
73074W        W36633   7.260  42.488   4.261
73075W        W36634  32.594  14.818   1.366
73076W        W36635  38.564   5.194  12.549
73077W        W36636  25.594  11.707  13.028
73078W        W36637  37.923   6.322   1.787
73079W        W36638  19.210  15.304   4.617
73080W        W36639  43.476  18.125   2.330
73081W        W36640  21.743  26.658  10.036
73082W        W36641   0.861  40.884  14.447
73083W        W36642  10.255  44.786   3.335
73084W        W36643  24.534  28.523   2.410
73085W        W36644  32.139  18.724   0.391
73086W        W36645  39.949  29.428  14.923
73087W        W36646   2.910   0.483   3.653
73088W        W36647  34.032  38.055  10.431
73089W        W36648  40.420  14.655   1.250
73090W        W36649  19.698   5.766  10.420
73091W        W36650  24.026  29.482   0.358
73092W        W36651  17.630  20.583  14.452
73093W        W36652  30.078   1.828   0.952
73094W        W36653  10.193  23.677  11.916
73095W        W36654   4.239  31.554   3.380
73096W        W36655   3.420  40.882   3.184
73097W        W36656   6.727  42.450  12.411
73098W        W36657  25.182   6.912  14.324
73099W        W36658  12.244   5.806  10.429
73100W        W36659  25.027  17.207  13.834
73101W        W36660  21.165   0.868  14.281
73102W        W36661  19.211  25.138  10.931
73103W        W36662  27.112  26.015   4.345
73104W        W36663   3.804   6.741   3.322
73105W        W36664  23.127  34.997  12.058
73106W        W36665  27.643  10.260   5.117
73107W        W36666  21.066  32.889   2.205
73108W        W36667  44.293  36.439  11.997
73109W        W36668  40.391  32.520   5.784
73110W        W36669  14.729  29.629  10.981
73111W        W36670  17.149  24.692  14.968
73112W        W36671  22.724  38.867  13.513
73113W        W36672  21.067  26.463   3.771
73114W        W36673  15.732  34.006  10.472
73115W        W36674  42.501  28.107   2.349
73116W        W36675  26.040  29.461   0.343
73117W        W36676  10.325  16.169  11.434
73118W        W36677  24.985  23.096  11.546
73119W        W36678  32.104   4.360   3.705
73120W        W36679  41.967  40.549  13.946
73121W        W36680  37.375   8.697  13.387
73122W        W36681  30.105  34.045   3.276
73123W        W36682   4.311  16.688  11.101
73124W        W36683   8.296  32.054   1.428
73125W        W36684  30.576  19.681  14.987
73126W        W36685  11.738  36.357  14.031
73127W        W36686  43.471  27.056  14.031
73128W        W36687  17.741  27.947   4.658
73129W        W36688  33.993  10.144  14.996
73130W        W36689  28.124  33.621   0.880
73131W        W36690  37.874  44.791   0.946
73132W        W36691  18.617  42.282  11.959
73133W        W36692  30.937  23.205   4.194
73134W        W36693  42.989  14.736   3.843
73135W        W36694  21.070   8.341  12.004
73136W        W36695  41.030  34.025  14.826
73137W        W36696   9.217  36.073  10.429
73138W        W36697   1.290  35.917   0.467
73139W        W36698  28.171   0.347  13.324
73140W        W36699   1.376  40.873  13.791
73141W        W36700  15.712  12.127  10.478
73142W        W36701  13.349  41.502  11.881
73143W        W36702  20.053  11.148   1.909
73144W        W36703   3.823  39.881  10.643
73145W        W36704   2.294  24.701  11.539
73146W        W36705  15.265  40.390   3.770
73147W        W36706  14.651  38.848   2.373
73148W        W36707  13.165  42.795   4.663
73149W        W36708  19.041   5.792  12.987
73150W        W36709  14.699   0.789  13.896
73151W        W36710  20.061  44.830   1.907
73152W        W36711  17.568  29.951  11.587
73153W        W36712   5.929  40.464  14.383
73154W        W36713   2.448   8.884   5.247
73155W        W36714  35.053  34.420  12.947
73156W        W36715   6.747  17.184   4.676
73157W        W36716  26.198  26.962   4.711
73158W        W36717  32.974  24.158  11.427
73159W        W36718  22.213  23.017   4.238
73160W        W36719  26.063   5.733  12.571
73161W        W36720  28.967  35.934  14.975
73162W        W36721  23.523  34.085   1.696
73163W        W36722  10.292  35.007  11.955
73164W        W36723  28.609  24.198  13.881
73165W        W36724  41.530  33.610  13.447
73166W        W36725  25.976  25.995  10.483
73167W        W36726   4.313   4.293   4.160
73168W        W36727  37.368  14.308   3.720
73169W        W36728  17.753  31.522   3.364
73170W        W36729  11.662   2.289   0.863
73171W        W36730  35.374   3.393  11.104
73172W        W36731  12.230   6.823   0.790
73173W        W36732  21.658  24.587  11.095
73174W        W36733  27.535   9.657  13.009
73175W        W36734  39.010  21.148  12.983
73176W        W36735  14.754   9.305   3.350
73177W        W36736  17.136  26.986   4.791
73178W        W36737  32.472  12.342  13.376
73179W        W36738   3.716  44.410   4.224
73180W        W36739  22.636  42.298  14.401
73181W        W36740  35.464  34.416   2.389
73182W        W36741  21.705  37.900  14.428
73183W        W36742  23.552  20.755  12.481
73184W        W36743  30.116  10.312   2.674
73185W        W36744  34.035  13.164   2.219
73186W        W36745  30.141  33.507   4.203
73187W        W36746  36.465   7.249   3.854
73188W        W36747  18.662  42.390   3.629
73189W        W36748  28.476   7.295  14.455
73190W        W36749   7.743  34.095  13.541
73191W        W36750  14.763  30.915  12.457
73192W        W36751  33.927  35.431   1.744
73193W        W36752  28.593  35.576  10.989
73194W        W36753  10.678  28.181   3.838
73195W        W36754  42.974  34.022  12.978
73196W        W36755   2.930  43.810  13.374
73197W        W36756  28.972   6.740  12.845
73198W        W36757   2.720  21.142   4.333
73199W        W36758  34.409   5.431   1.307
73200W        W36759  12.283   7.362  12.566
73201W        W36760  13.157  15.275  11.963
73202W        W36761   0.912   5.401   1.701
73203W        W36762  21.037   2.462   5.246
73204W        W36763   1.817  11.255   3.240
73205W        W36764  13.621  21.743   1.252
73206W        W36765  37.856   5.367   3.644
73207W        W36766  34.435  10.736   4.175
73208W        W36767  33.889  27.676   3.757
73209W        W36768  15.773  19.569  11.550
73210W        W36769  22.125  13.256   2.763
73211W        W36770   1.307   3.852   2.214
73212W        W36771  22.079  14.671   0.476
73213W        W36772  20.735  27.955   2.206
73214W        W36773  13.132   6.316  14.962
73215W        W36774  42.317  36.353  11.460
73216W        W36775   7.228  44.372   1.743
73217W        W36776  13.739   1.915   1.751
73218W        W36777   6.312   3.827  10.470
73219W        W36778  29.452  38.986   2.313
73220W        W36779  16.793  44.373  14.811
73221W        W36780  35.920  39.962   3.674
73222W        W36781   0.452  31.112  14.995
73223W        W36782  14.779  39.460  12.008
73224W        W36783   6.887  33.952  14.864
73225W        W36784   5.290   4.863   0.459
73226W        W36785  22.051  12.185   5.166
73227W        W36786   4.774   6.296   3.236
73228W        W36787  41.957  35.960   4.719
73229W        W36788  23.500  14.719   2.699
73230W        W36789   9.376  23.680  11.921
73231W        W36790  24.688  12.757  13.478
73232W        W36791  19.661  30.657   1.772
73233W        W36792  29.967   5.319  10.553
73234W        W36793  36.939   5.883   1.349
73235W        W36794  32.460  32.133   2.880
73236W        W36795   6.415  15.137   4.210
73237W        W36796  16.695  35.379   1.935
73238W        W36797  19.635  24.501   4.296
73239W        W36798  30.099   7.841   4.125
73240W        W36799  21.526  22.128   4.281
73241W        W36800  14.606  12.176  12.368
73242W        W36801  11.810  32.618   3.363
73243W        W36802  20.195  35.085  11.982
73244W        W36803  12.635  14.636  12.087
73245W        W36804  13.640  21.094   1.739
73246W        W36805  21.193  44.448   1.305
73247W        W36806  42.840  30.657  14.424
73248W        W36807  16.103  42.389  10.946
73249W        W36808   9.683  37.494   3.655
73250W        W36809  42.016  17.558   1.382
73251W        W36810  41.366  11.234  14.403
73252W        W36811  11.323   3.803   4.137
73253W        W36812  29.426  28.956   0.907
73254W        W36813  39.488  11.771  11.541
73255W        W36814  39.451   8.844  12.476
73256W        W36815   9.850  17.284  10.898
73257W        W36816  37.059   4.889   1.230
73258W        W36817  15.760  28.059   4.833
73259W        W36818  31.565  27.992   4.680
73260W        W36819  39.500   8.222   0.305
73261W        W36820  20.256   1.808  11.415
73262W        W36821  27.126  11.844  12.989
73263W        W36822  38.405  34.063  11.497
73264W        W36823  31.533   8.393   0.382
73265W        W36824  42.848  40.353  13.338
73266W        W36825  40.305  13.834  12.544
73267W        W36826  12.766  12.843  11.073
73268W        W36827  43.454  34.449  10.960
73269W        W36828  16.594   2.470  11.987
73270W        W36829  31.973  13.172   3.359
73271W        W36830  31.985  31.971   3.296
73272W        W36831  24.211   2.319  14.418
73273W        W36832  24.496  38.480  14.395
73274W        W36833   6.320  21.237   9.995
73275W        W36834   0.281   3.915   1.416
73276W        W36835  40.369  25.609  11.544
73277W        W36836   9.221   1.443   1.350
73278W        W36837  18.127  39.422   1.422
73279W        W36838  29.099  25.996  11.607
73280W        W36839  25.622  21.252  13.919
73281W        W36840   6.764  14.250   3.870
73282W        W36841   6.426  40.862   3.791
73283W        W36842  12.180  38.042   1.752
73284W        W36843   8.873  26.057  13.435
73285W        W36844  20.713  44.428   1.353
73286W        W36845  24.079  44.967   4.624
73287W        W36846  21.753   2.961  10.631
73288W        W36847  36.019  35.551   0.361
73289W        W36848  18.645  13.218   2.804
73290W        W36849  20.536  19.096  11.461
73291W        W36850   1.731  38.066   0.872
73292W        W36851  20.698  25.016   3.323
73293W        W36852  33.956  29.056  13.866
73294W        W36853  13.785  15.091   3.797
73295W        W36854  43.890  29.007  13.470
73296W        W36855  10.684  23.228   4.125
73297W        W36856  12.183  35.902   4.733
73298W        W36857   5.813  24.492  11.036
73299W        W36858  44.437  17.072   4.304
73300W        W36859  24.980  15.683   1.903
73301W        W36860  15.586  15.598   3.257
73302W        W36861  31.136  11.825  14.418
73303W        W36862  21.621   4.837   4.206
73304W        W36863  10.739  13.229  13.426
73305W        W36864   8.900  35.950  13.008
73306W        W36865  18.195   1.891   1.782
73307W        W36866  34.573  10.800   1.243
73308W        W36867  21.730  25.641   2.835
73309W        W36868  39.975  29.924  12.447
73310W        W36869  18.608  11.748  11.027
73311W        W36870  27.560   9.256  12.073
73312W        W36871  11.308  23.723  11.572
73313W        W36872  11.630  33.906  12.567
73314W        W36873   7.334  19.759   1.739
73315W        W36874  33.909  16.653  14.299
73316W        W36875  14.126  25.051   3.373
73317W        W36876  38.517  44.377   1.245
73318W        W36877  14.776  29.649   3.694
73319W        W36878  12.815  34.475  12.352
73320W        W36879  41.488  33.611   4.190
73321W        W36880  44.932  42.451   3.722
73322W        W36881  10.801  43.357  10.637
73323W        W36882  24.058   2.955  14.848
73324W        W36883   8.803  22.154   3.322
73325W        W36884   8.834  28.178  11.094
73326W        W36885  12.272  26.037  14.900
73327W        W36886  33.941  33.393   4.203
73328W        W36887  30.046   4.921   3.795
73329W        W36888  35.378  28.045  12.898
73330W        W36889  27.190  25.200   4.810
73331W        W36890  30.506  30.965   4.295
73332W        W36891  34.534   5.397  11.437
73333W        W36892  37.529  33.561   3.265
73334W        W36893   1.405   6.399  10.490
73335W        W36894  14.745  17.709  12.559
73336W        W36895  28.109  13.211   4.809
73337W        W36896   1.786  43.414  13.905
73338W        W36897  38.509   9.257  10.986
73339W        W36898  15.239  41.293   4.713
73340W        W36899  43.373   2.877   0.882
73341W        W36900  15.161  14.137   1.402
73342W        W36901  27.499  26.189  13.335
73343W        W36902  11.642  33.053   4.775
73344W        W36903  29.130   6.880  10.966
73345W        W36904   2.428   2.468  11.448
73346W        W36905  33.926  22.648  14.978
73347W        W36906  43.796  37.073  13.022
73348W        W36907  43.496  29.579   3.347
73349W        W36908  16.578  15.606  12.544
73350W        W36909  32.022  17.148   1.817
73351W        W36910  18.635  23.014   2.292
73352W        W36911  31.108  29.135  11.535
73353W        W36912  31.986  42.992  12.487
73354W        W36913  36.024  23.208   0.750
73355W        W36914  30.973  31.447  12.489
73356W        W36915  13.742  12.154   2.832
73357W        W36916  19.682  33.459  11.064
73358W        W36917  17.101  25.619  12.859
73359W        W36918  10.248   7.844   4.678
73360W        W36919  11.732  31.900  13.428
73361W        W36920  38.472  35.439  10.020
73362W        W36921  12.341  42.029  12.479
73363W        W36922  10.811  41.796   4.740
73364W        W36923   4.262  28.516  13.029
73365W        W36924  14.630  12.635  10.542
73366W        W36925  18.094  18.116  10.456
73367W        W36926  29.653  34.038   2.224
73368W        W36927  27.995   1.327  12.490
73369W        W36928   5.311   8.293  11.569
73370W        W36929  27.074  21.574  10.889
73371W        W36930   5.392  34.104  13.940
73372W        W36931   0.791  24.094  14.861
73373W        W36932  33.977  29.095  10.604
73374W        W36933  32.559  23.002   4.353
73375W        W36934  14.332  10.737  10.529
73376W        W36935  12.723  25.153  11.004
73377W        W36936  36.550  22.126  11.938
73378W        W36937  15.134  29.582  11.554
73379W        W36938  10.877  19.229  14.304
73380W        W36939   1.779   2.752   2.231
73381W        W36940  22.556  30.144   4.117
73382W        W36941  27.590  17.757   4.345
73383W        W36942   2.920  24.536   1.291
73384W        W36943   7.381   6.418   0.939
73385W        W36944   0.778  43.378   4.310
73386W        W36945  29.435   1.905   2.202
73387W        W36946  31.533  13.775   1.831
73388W        W36947  10.764  12.821  11.502
73389W        W36948  26.653  26.555  12.495
73390W        W36949   1.272  14.284  11.025
73391W        W36950  26.160  41.905  10.462
73392W        W36951  10.684   2.955  10.979
73393W        W36952  11.316  25.626   2.264
73394W        W36953  22.646  32.591  12.404
73395W        W36954   0.979   0.422  11.465
73396W        W36955   5.353  44.283   4.351
73397W        W36956  21.546  43.959   3.864
73398W        W36957   1.382   9.659  12.011
73399W        W36958  44.469  26.048  11.507
73400W        W36959  32.064  18.672  11.858
73401W        W36960   6.922  34.509  13.911
73402W        W36961   3.312  39.974  10.973
73403W        W36962  41.403  40.881  11.553
73404W        W36963  31.571  34.452   1.314
73405W        W36964  18.769  23.122  13.009
73406W        W36965   0.865  39.411   0.954
73407W        W36966  16.774  26.107   4.756
73408W        W36967  36.996  14.787  13.927
73409W        W36968  12.754  11.834   1.423
73410W        W36969  15.299  27.122   0.831
73411W        W36970  24.567  34.589   3.840
73412W        W36971  15.187  43.805  12.362
73413W        W36972  27.162  33.409   1.428
73414W        W36973   3.393   5.271  14.819
73415W        W36974  35.507  16.793  14.374
73416W        W36975  18.093  28.094   4.609
73417W        W36976  35.464  38.034  14.772
73418W        W36977  21.636  23.063   0.921
73419W        W36978  41.409   8.330   1.354
73420W        W36979  28.049  28.538   2.834
73421W        W36980  40.431   6.307  10.583
73422W        W36981  16.622  22.613   3.679
73423W        W36982   0.399  14.201  11.385
73424W        W36983  28.984   0.854   3.232
73425W        W36984  25.178   7.840   2.206
73426W        W36985  27.012   5.249   0.796
73427W        W36986   1.880  35.092   0.913
73428W        W36987  16.194  27.129  12.899
73429W        W36988  21.179  37.017   4.822
73430W        W36989  12.254   6.910   1.246
73431W        W36990  25.676  37.483  10.039
73432W        W36991  22.620  34.600  11.498
73433W        W36992  25.516  31.556   3.299
73434W        W36993  43.810  31.137  11.900
73435W        W36994  19.142  41.799   2.694
73436W        W36995  13.123  29.498  11.454
73437W        W36996  43.494  30.566   9.998
73438W        W36997  18.572  41.813  12.975
73439W        W36998  17.623   3.363   0.467
73440W        W36999   3.270  34.603  14.892
73441W        W37000  40.534  19.546   5.197
73442W        W37001   4.700  25.663   9.959
73443W        W37002  33.621  30.992  11.377
73444W        W37003  21.576   9.376   0.386
73445W        W37004  38.933   4.305  14.397
73446W        W37005  38.959  18.680  14.010
73447W        W37006  23.190  27.174  12.966
73448W        W37007  38.414  32.563   0.834
73449W        W37008  33.570  21.127   3.661
73450W        W37009  31.617  42.912  10.433
73451W        W37010  42.459  12.787  13.516
73452W        W37011  20.195   4.804   3.743
73453W        W37012  18.636  12.650  12.348
73454W        W37013  25.079  18.076   2.669
73455W        W37014  30.930   9.789   1.416
73456W        W37015   7.281   0.862   2.262
73457W        W37016  44.860  14.227  12.958
73458W        W37017  34.981  25.050  11.870
73459W        W37018  35.427   4.841   2.409
73460W        W37019  36.374   3.343  13.814
73461W        W37020  30.044   3.851  14.776
73462W        W37021   6.812  33.885   1.414
73463W        W37022   0.967  26.099  10.604
73464W        W37023   0.917  14.282   4.185
73465W        W37024  13.641  29.028   1.258
73466W        W37025  35.999  34.524  11.527
73467W        W37026  16.254  27.599   0.449
73468W        W37027  27.983  29.615  13.880
73469W        W37028  17.772  27.603  14.003
73470W        W37029   5.691  10.235  14.457
73471W        W37030  31.897  25.655  14.295
73472W        W37031  26.618  12.645  10.592
73473W        W37032  12.186  21.635   4.657
73474W        W37033   0.490   5.348   1.871
73475W        W37034  43.876   9.356   1.899
73476W        W37035  27.033  24.662   3.353
73477W        W37036   7.872  21.208  12.010
73478W        W37037  22.012   9.155   4.117
73479W        W37038   3.330   7.767  10.443
73480W        W37039   5.697   5.348   1.362
73481W        W37040  23.552  21.047   4.281
73482W        W37041   5.867  22.015  13.540
73483W        W37042  34.978  19.752  12.412
73484W        W37043  24.089  24.979  11.473
73485W        W37044  22.705  19.654   4.816
73486W        W37045  25.180  35.579   1.227
73487W        W37046   5.744  18.788   2.846
73488W        W37047   8.787  26.610   0.846
73489W        W37048  24.203   9.352   2.693
73490W        W37049   9.878   5.838  11.501
73491W        W37050   8.850   9.219   4.676
73492W        W37051  24.564  30.047  10.945
73493W        W37052  41.977  22.106  13.896
73494W        W37053  40.380  44.344  10.505
73495W        W37054  26.087  18.222  10.962
73496W        W37055  39.848  20.736  11.003
73497W        W37056  16.194   3.849   4.610
73498W        W37057  27.458  25.590   4.121
73499W        W37058  13.172  41.342  10.133
73500W        W37059  14.640  26.687  14.763
73501W        W37060  36.353  22.153   1.210
73502W        W37061  35.060  32.026   1.918
73503W        W37062  35.002   6.357   4.276
73504W        W37063  28.483  22.720  11.442
73505W        W37064   7.272  43.400   1.280
73506W        W37065  13.211  43.960  13.395
73507W        W37066  26.033  36.075  10.442
73508W        W37067  25.218  29.997   2.181
73509W        W37068  27.597  37.394   0.859
73510W        W37069   9.878  16.652   5.130
73511W        W37070  36.095   1.411  14.785
73512W        W37071   0.865  30.452  10.144
73513W        W37072  41.849  19.231   0.849
73514W        W37073   2.234  32.406  12.959
73515W        W37074  36.403   5.804  10.913
73516W        W37075  10.680  12.336   1.797
73517W        W37076  18.292   4.706   4.709
73518W        W37077   2.372   6.204  11.023
73519W        W37078  24.049  43.928   0.773
73520W        W37079  31.905  28.499  14.357
73521W        W37080   7.727   0.921  11.384
73522W        W37081   8.173  38.958   3.654
73523W        W37082   6.224   5.915   3.656
73524W        W37083   7.802  19.156   4.186
73525W        W37084  36.914  32.441  13.058
73526W        W37085  44.753   2.254  12.984
73527W        W37086   4.265  38.479  10.911
73528W        W37087   0.474  21.257   0.351
73529W        W37088  40.372   8.336  14.954
73530W        W37089  31.903  38.068  13.042
73531W        W37090  43.397  18.162  12.966
73532W        W37091  20.033  24.009   0.744
73533W        W37092  27.575  40.959  11.876
73534W        W37093  11.658   1.927   4.760
73535W        W37094  42.474  29.596   4.295
73536W        W37095  12.225  32.127  12.074
73537W        W37096  18.563  19.179  12.543
73538W        W37097   5.252  44.824   3.275
73539W        W37098   7.840  41.917   0.789
73540W        W37099   2.898  42.320  12.911
73541W        W37100   8.791   2.453   4.738
73542W        W37101  25.086   2.386   3.639
73543W        W37102  34.010  15.708   1.277
73544W        W37103   7.246   1.797  11.587
73545W        W37104  16.223  34.987   4.752
73546W        W37105   6.777  15.790   2.250
73547W        W37106  36.999   5.274   1.749
73548W        W37107  32.086  40.929   4.186
73549W        W37108  13.282   9.777   4.826
73550W        W37109  24.057  44.373  11.858
73551W        W37110  32.120   7.268   3.340
73552W        W37111  13.603  15.228   0.861
73553W        W37112  16.763  43.490  11.945
73554W        W37113  38.959   6.886   4.305
73555W        W37114   7.695   0.341  14.883
73556W        W37115   0.458  30.591   1.912
73557W        W37116   6.340  43.277  14.496
73558W        W37117  12.619   6.762  11.862
73559W        W37118  32.460  36.514  13.829
73560W        W37119  44.441  25.589  10.945
73561W        W37120  20.648  27.605  11.047
73562W        W37121  29.633  41.359   1.905
73563W        W37122  39.532   0.823   1.288
73564W        W37123  21.735  31.955   3.859
73565W        W37124  26.165  40.491   1.852
73566W        W37125   3.222  21.649  13.049
73567W        W37126   3.443  10.375  12.357
73568W        W37127  33.531  32.915   3.334
73569W        W37128   0.902  12.237   0.374
73570W        W37129   8.867  36.431   4.796
73571W        W37130   7.906  37.028   1.814
73572W        W37131  43.823  19.206   0.471
73573W        W37132  31.618   7.745  14.027
73574W        W37133   0.863  34.113   3.755
73575W        W37134  28.540   7.888  14.446
73576W        W37135  21.701  15.255   0.284
73577W        W37136  42.912  21.055   0.866
73578W        W37137   0.977  11.360  12.836
73579W        W37138  20.195  10.229   4.647
73580W        W37139  30.421  10.267  14.403
73581W        W37140  10.829  32.977   1.216
73582W        W37141  40.310   4.426  11.109
73583W        W37142  35.393   1.893  13.431
73584W        W37143   1.392   7.706  13.923
73585W        W37144  16.685  15.587   1.807
73586W        W37145  40.536  33.405  11.110
73587W        W37146   3.258  12.176  11.504
73588W        W37147  44.854  20.697   1.407
73589W        W37148  43.479   8.200   3.738
73590W        W37149  10.289  44.837   4.598
73591W        W37150  33.445  41.309   2.735
73592W        W37151  26.481  17.767  13.493
73593W        W37152  32.886  29.040   3.287
73594W        W37153  40.444  35.922  10.470
73595W        W37154  19.710  38.434   3.709
73596W        W37155  12.805   0.984   4.724
73597W        W37156  30.570  23.540  12.381
73598W        W37157  15.704  16.669   0.449
73599W        W37158  23.683   2.878  12.068
73600W        W37159   2.403  42.786   1.874
73601W        W37160  33.572  29.952   3.734
73602W        W37161  17.629  41.529  13.514
73603W        W37162  36.370  21.151   2.312
73604W        W37163   9.283  23.574  11.610
73605W        W37164  35.466  29.615  14.917
73606W        W37165  32.047  16.587   2.866
73607W        W37166  17.131   3.729  10.407
73608W        W37167   7.334  10.643   1.316
73609W        W37168  11.736  25.625  12.488
73610W        W37169  39.815   2.325  14.379
73611W        W37170  38.834   9.697   3.348
73612W        W37171  21.742  36.914   1.839
73613W        W37172  35.065   6.288   2.735
73614W        W37173  25.652  31.450   2.700
73615W        W37174  31.063  22.723  12.534
73616W        W37175   7.198  19.067  11.594
73617W        W37176  44.943   9.819   3.239
73618W        W37177  29.094  25.511   1.237
73619W        W37178  38.838  35.588  13.948
73620W        W37179  30.033   0.924  12.970
73621W        W37180   2.848  25.625   0.483
73622W        W37181  12.301  20.655  13.489
73623W        W37182  30.618  44.795  14.003
73624W        W37183   9.827  30.489  11.067
73625W        W37184  30.098  33.997   0.399
73626W        W37185  34.113   9.348  12.521
73627W        W37186  27.645  25.516  14.324
73628W        W37187  30.611  36.482  14.440
73629W        W37188  39.010  25.046  12.902
73630W        W37189  16.215  12.661   2.258
73631W        W37190  13.302   2.796   0.310
73632W        W37191  16.085  25.208  12.909
73633W        W37192  10.826   8.380  14.932
73634W        W37193  31.028  32.600   0.385
73635W        W37194  27.041  18.777   2.761
73636W        W37195  42.459  38.408   0.754
73637W        W37196  43.784  11.132  12.424
73638W        W37197  11.805  11.296   4.699
73639W        W37198  36.519   6.309  13.820
73640W        W37199  39.352  28.636  13.012
73641W        W37200   8.783  12.282   4.716
73642W        W37201  12.817  28.520   3.832
73643W        W37202  23.524  28.073   4.832
73644W        W37203   7.325  31.455   3.807
73645W        W37204   2.413  37.939   0.468
73646W        W37205  40.413  36.566   1.448
73647W        W37206  17.763  15.648   3.654
73648W        W37207  14.284   5.247   0.903
73649W        W37208  22.680   9.182  14.404
73650W        W37209  44.819  22.091   1.444
73651W        W37210  39.842  40.333   3.828
73652W        W37211  26.978  22.205   4.690
73653W        W37212  28.018  33.008   3.846
73654W        W37213   7.814  42.497   3.745
73655W        W37214  19.146  13.757  14.811
73656W        W37215  27.991  42.360  12.455
73657W        W37216   5.872  12.631  11.547
73658W        W37217  42.012  30.011  13.447
73659W        W37218  31.089  24.979   1.419
73660W        W37219  29.036  19.600   2.274
73661W        W37220  11.681  33.410  10.899
73662W        W37221  40.419  27.003  11.475
73663W        W37222  10.790  31.116  11.553
73664W        W37223  25.205   6.739  12.852
73665W        W37224  33.527  23.993   5.170
73666W        W37225  34.882  28.010  10.557
73667W        W37226  10.828  38.819   2.669
73668W        W37227   0.817  20.582  14.761
73669W        W37228  15.645   2.364   1.210
73670W        W37229  25.581  17.767   0.331
73671W        W37230   0.482   6.799  13.856
73672W        W37231  20.212   2.733   2.742
73673W        W37232  12.272   7.774  11.568
73674W        W37233  17.174  31.001   3.384
73675W        W37234  11.666   1.462  13.501
73676W        W37235  10.351  39.932   2.682
73677W        W37236  31.116   3.881  14.391
73678W        W37237  16.626  34.520   4.819
73679W        W37238  17.188  39.332  14.938
73680W        W37239   2.965  19.171   2.401
73681W        W37240  17.719   2.433   2.372
73682W        W37241  36.895  24.629  12.860
73683W        W37242  17.586   2.324   1.388
73684W        W37243  19.175   0.868   4.824
73685W        W37244  18.050  41.344   1.751
73686W        W37245  22.034  27.526  12.039
73687W        W37246  22.051   1.246  13.955
73688W        W37247   9.770   7.874   1.261
73689W        W37248  17.674   3.379  14.996
73690W        W37249  13.819   1.931  13.851
73691W        W37250  26.068   4.296   4.238
73692W        W37251  30.133  42.508   0.766
73693W        W37252  44.403  31.955  13.950
73694W        W37253   2.275  31.466   2.751
73695W        W37254  29.049  19.216  12.060
73696W        W37255  22.715  31.629  12.476
73697W        W37256  28.104  26.961   1.888
73698W        W37257  16.148  18.208  12.986
73699W        W37258  12.614  32.562  14.771
73700W        W37259  31.922  30.450   3.350
73701W        W37260  39.930   5.739  12.030
73702W        W37261  23.054  42.952   2.250
73703W        W37262  38.453  15.279  14.285
73704W        W37263  20.030  28.043  11.557
73705W        W37264  23.708  14.721   0.467
73706W        W37265   2.752   1.802  13.357
73707W        W37266   7.907  42.375   4.142
73708W        W37267  34.094  26.110  14.346
73709W        W37268  21.220   8.833  10.479
73710W        W37269  14.248  35.490   4.235
73711W        W37270  10.182  38.534   4.821
73712W        W37271   1.434  20.116   4.274
73713W        W37272  18.625  32.096  12.043
73714W        W37273   2.361  23.705   4.249
73715W        W37274  39.966  32.575  13.362
73716W        W37275  13.639   9.740  13.361
73717W        W37276  40.496  28.561   3.338
73718W        W37277  18.280   6.824  13.027
73719W        W37278   3.855  25.036   0.262
73720W        W37279  34.980  15.172  12.528
73721W        W37280   6.378  16.096  12.406
73722W        W37281  28.963   3.947   0.439
73723W        W37282   6.685  16.702  14.359
73724W        W37283  10.822  33.453  10.002
73725W        W37284  24.977  42.440  14.448
73726W        W37285  30.557  35.107  11.975
73727W        W37286  28.946  11.356   4.781
73728W        W37287  17.062  37.999   1.828
73729W        W37288  24.219  30.559   0.895
73730W        W37289  28.637   9.325   4.254
73731W        W37290   4.890  37.551  12.044
73732W        W37291  15.102  37.388   2.852
73733W        W37292  16.183  41.455   3.763
73734W        W37293  14.742  22.133   1.786
73735W        W37294  39.459  33.616  10.950
73736W        W37295  36.055  28.568  12.011
73737W        W37296  40.005   0.272  14.946
73738W        W37297  29.959  18.716  11.497
73739W        W37298  44.832  40.988  11.881
73740W        W37299  28.509  12.327   3.300
73741W        W37300  20.199  42.430  13.992
73742W        W37301   5.907   9.203  10.978
73743W        W37302   8.182   7.175  11.431
73744W        W37303  27.590   9.184  10.474
73745W        W37304  37.465  12.707   3.727
73746W        W37305  19.094   9.767  10.477
73747W        W37306  18.607  36.027   3.370
73748W        W37307   1.271   7.700  13.019
73749W        W37308  33.425   2.866   2.224
73750W        W37309  11.672  15.761   2.669
73751W        W37310  26.200   6.809  11.857
73752W        W37311  41.521  30.540   1.325
73753W        W37312  38.885   4.735   1.307
73754W        W37313  42.903  26.077   1.424
73755W        W37314  32.584  10.240   4.124
73756W        W37315  19.256  21.707  12.558
73757W        W37316  43.916  43.512   4.353
73758W        W37317   8.290  27.658  10.532
73759W        W37318  31.433  40.943   2.845
73760W        W37319  11.785  26.631  14.988
73761W        W37320  37.051  22.118   3.716
73762W        W37321  39.364  27.667   0.807
73763W        W37322  34.069   2.789  11.483
73764W        W37323   3.845   0.359  14.957
73765W        W37324  20.105  23.581  12.414
73766W        W37325  35.939  11.247   2.402
73767W        W37326  43.453   9.723  13.511
73768W        W37327  41.789   1.276  10.967
73769W        W37328  43.336  33.121  11.530
73770W        W37329  24.139  34.382   4.211
73771W        W37330  32.408  44.874   4.184
73772W        W37331  36.864  20.690   1.696
73773W        W37332  15.120   4.393  11.914
73774W        W37333   1.973   7.689   2.179
73775W        W37334  27.996  24.229  12.379
73776W        W37335  15.716  26.628   1.380
73777W        W37336  43.514  14.835   4.741
73778W        W37337   0.799  36.050  12.562
73779W        W37338   9.205  16.218  12.068
73780W        W37339  26.556  11.253   3.760
73781W        W37340   5.337  31.548  14.305
73782W        W37341  44.848  16.804   1.451
73783W        W37342  29.122   5.209  12.970
73784W        W37343  42.468  20.684   1.319
73785W        W37344   4.700   8.315  11.434
73786W        W37345  21.088  24.003   3.343
73787W        W37346  44.380  18.667  10.568
73788W        W37347  37.864  36.053  13.812
73789W        W37348  39.915  16.120  13.441
73790W        W37349  15.673  39.519   4.764
73791W        W37350  37.457  29.637  14.410
73792W        W37351  13.742  29.977  13.926
73793W        W37352  11.167  37.513  13.897
73794W        W37353  37.424   0.932   1.859
73795W        W37354  15.089  41.393   0.413
73796W        W37355   4.725  26.642  14.899
73797W        W37356  10.727  40.940  14.915
73798W        W37357  31.524   7.228   1.285
73799W        W37358  15.696   7.190   2.802
73800W        W37359  11.315  10.865   3.160
73801W        W37360  30.509  30.089  11.489
73802W        W37361  15.161  43.464  11.079
73803W        W37362  39.046   1.968   5.190
73804W        W37363   4.205  31.623  14.869
73805W        W37364   5.363   1.448   0.378
73806W        W37365  40.838  38.527  12.479
73807W        W37366   8.847   2.322  14.417
73808W        W37367  10.291  32.059  11.434
73809W        W37368  13.624   6.866   4.717
73810W        W37369   5.321  15.249  11.455
73811W        W37370  30.618  22.053   1.790
73812W        W37371  44.297  34.922   2.224
73813W        W37372  26.655   9.724   5.233
73814W        W37373   3.777  23.579   3.325
73815W        W37374  15.767  43.378   2.680
73816W        W37375  29.607  32.958   4.179
73817W        W37376   7.762  15.704  12.930
73818W        W37377   5.695  19.092   0.757
73819W        W37378   3.256  17.723  12.552
73820W        W37379  25.671   8.658  13.327
73821W        W37380   8.802  17.166  10.915
73822W        W37381   8.245  19.568  10.986
73823W        W37382  10.851   0.318  13.432
73824W        W37383  26.977  14.188  14.424
73825W        W37384  19.165  34.056  14.823
73826W        W37385  34.439   8.354   2.735
73827W        W37386  36.007  19.208   3.161
73828W        W37387   4.943   6.412  14.287
73829W        W37388   3.868  15.663  13.015
73830W        W37389   2.923  16.181  14.937
73831W        W37390   8.753  28.436  10.534
73832W        W37391  21.676   1.434  14.362
73833W        W37392  40.053  30.591  13.893
73834W        W37393  26.609  29.053  11.855
73835W        W37394  41.532  41.882   0.835
73836W        W37395  19.754  15.187  14.759
73837W        W37396  20.037   4.913  14.890
73838W        W37397  40.028  34.921   0.284
73839W        W37398  27.581  43.864  14.318
73840W        W37399  15.595  37.937  10.505
73841W        W37400  35.060  12.741   2.843
73842W        W37401   8.236  16.184   5.083
73843W        W37402   8.858  11.313   0.482
73844W        W37403  24.145  25.469  13.996
73845W        W37404   4.715  29.933  12.575
73846W        W37405  21.030   0.453  12.027
73847W        W37406  24.099  15.721  14.774
73848W        W37407  13.772  41.860   2.374
73849W        W37408  14.662  24.537   2.211
73850W        W37409  41.520  19.210   4.644
73851W        W37410   3.739  34.909   1.745
73852W        W37411  41.992  24.209   1.293
73853W        W37412  25.139  43.014  14.367
73854W        W37413  14.625  21.585  11.963
73855W        W37414  38.039  30.118   1.721
73856W        W37415   2.824  22.072   3.688
73857W        W37416  14.622  35.076  11.905
73858W        W37417  19.214  19.063   3.741
73859W        W37418   8.198  18.546  12.081
73860W        W37419  44.388   3.892  14.994
73861W        W37420  23.103   9.364  13.353
73862W        W37421   5.234  23.137   1.806
73863W        W37422  28.513  38.536  13.925
73864W        W37423  19.739  44.844   2.292
73865W        W37424  27.614  29.591   3.714
73866W        W37425  19.274  35.449  14.285
73867W        W37426  13.324  36.905   2.403
73868W        W37427  16.263  34.487  14.997
73869W        W37428   2.888   1.285  13.882
73870W        W37429  41.443  15.793   4.321
73871W        W37430   6.415  38.033   0.479
73872W        W37431  12.712  36.554  11.047
73873W        W37432  41.488  17.638  11.555
73874W        W37433  39.843  32.563   3.283
73875W        W37434  16.119   6.846  10.445
73876W        W37435  10.158  37.028   4.181
73877W        W37436  16.749  13.140   4.786
73878W        W37437  39.051  30.638   3.859
73879W        W37438  16.242  34.959   0.950
73880W        W37439  37.840  31.472   3.269
73881W        W37440  40.538   0.314  11.102
73882W        W37441   1.293   8.289  13.508
73883W        W37442  38.501  42.453   4.309
73884W        W37443  32.516  11.714  11.589
73885W        W37444   8.873  20.236   3.325
73886W        W37445  38.891  36.983  12.515
73887W        W37446   0.279  17.191   3.850
73888W        W37447  20.658  16.609  11.946
73889W        W37448  37.083   6.223  10.442
73890W        W37449   8.209  34.376   1.415
73891W        W37450  42.025  24.041  10.153
73892W        W37451  44.411  42.869  13.319
73893W        W37452   8.160   2.732  12.078
73894W        W37453   2.905   9.649   1.240
73895W        W37454  21.686  32.032  12.460
73896W        W37455  32.957  23.569  14.406
73897W        W37456  34.009  17.761   4.296
73898W        W37457  31.561  25.199  12.008
73899W        W37458  35.003  35.066   2.207
73900W        W37459   4.404  17.158  13.045
73901W        W37460  29.577   6.857  13.911
73902W        W37461  31.436  10.250  14.857
73903W        W37462  10.775  15.305   3.372
73904W        W37463  44.423   8.202  11.957
73905W        W37464  26.689  26.568   5.198
73906W        W37465  13.838   5.911   5.136
73907W        W37466  43.427  37.440   4.686
73908W        W37467   2.411  32.126   0.765
73909W        W37468   7.353   5.287  14.879
73910W        W37469  42.979  17.113   3.295
73911W        W37470  33.381  10.711   1.823
73912W        W37471  10.823  16.720   2.315
73913W        W37472  13.817  27.652   0.440
73914W        W37473  12.210  28.664   3.320
73915W        W37474  16.081  17.112  12.376
73916W        W37475  41.500  37.899   3.832
73917W        W37476  11.825   1.835  10.510
73918W        W37477  13.305  15.775   3.177
73919W        W37478  30.488   8.300  14.881
73920W        W37479  36.050  22.075   2.834
73921W        W37480  17.737  38.820   4.167
73922W        W37481  23.537  25.007  13.404
73923W        W37482  43.352  37.507   3.213
73924W        W37483   8.260  27.691   4.343
73925W        W37484   6.391   6.339   3.173
73926W        W37485  26.476  29.123   9.965
73927W        W37486  26.495  25.468   3.650
73928W        W37487  41.296  29.445  13.363
73929W        W37488  11.290  11.663   2.194
73930W        W37489  43.955   2.844  11.949
73931W        W37490  12.768   1.326  10.511
73932W        W37491  18.199  21.634  12.446
73933W        W37492   9.317   5.764  10.506
73934W        W37493  24.631  29.136   2.852
73935W        W37494  44.362  20.569  11.451
73936W        W37495   3.946   6.750  12.881
73937W        W37496   7.199  21.034  11.557
73938W        W37497  36.503  42.293   1.328
73939W        W37498  44.286  30.158  14.401
73940W        W37499   7.370  10.774  12.029
73941W        W37500  11.775   4.918   5.305
73942W        W37501   4.209  29.595  12.534
73943W        W37502  16.729  15.279   2.222
73944W        W37503  25.527  21.098  11.588
73945W        W37504  39.870   9.765  12.556
73946W        W37505   4.204  11.859   2.415
73947W        W37506  16.716  42.517  14.414
73948W        W37507  36.959  30.532   3.339
73949W        W37508   8.372  15.779  12.553
73950W        W37509  34.475  12.162  10.591
73951W        W37510  26.038   3.826   1.277
73952W        W37511   1.425  12.232  11.585
73953W        W37512  30.151   6.403  12.012
73954W        W37513   7.220   3.399  10.507
73955W        W37514  25.184  37.516   3.284
73956W        W37515  29.533   1.807   0.847
73957W        W37516  23.647  40.010  10.573
73958W        W37517  13.283  27.613   4.161
73959W        W37518  21.062  20.731   4.663
73960W        W37519   1.808  15.227  14.800
73961W        W37520  38.392  16.748  11.872
73962W        W37521  11.256  11.752   0.812
73963W        W37522  15.140  22.736  14.829
73964W        W37523  19.098  27.511   4.794
73965W        W37524  37.845   4.226   0.451
73966W        W37525  19.581  44.975  10.903
73967W        W37526  14.601  37.995   1.287
73968W        W37527  26.206   8.655  13.927
73969W        W37528  40.866  36.473  13.452
73970W        W37529  41.328   5.910  14.505
73971W        W37530  14.150  16.209   1.301
73972W        W37531  24.152   8.885   9.955
73973W        W37532  11.657  41.998  13.047
73974W        W37533  39.036  33.050  14.933
73975W        W37534  42.476  22.027   0.962
73976W        W37535   2.254  10.845   4.765
73977W        W37536  40.965  30.915  11.605
73978W        W37537   0.408   7.328  14.513
73979W        W37538  33.533  12.755   4.666
73980W        W37539   0.918  28.172  14.018
73981W        W37540  32.897  21.236  12.957
73982W        W37541  22.099  16.761  14.474
73983W        W37542   6.202  35.070  12.016
73984W        W37543   4.266  21.616   2.418
73985W        W37544  43.347  27.989  11.565
73986W        W37545   8.319  25.630  10.565
73987W        W37546  11.245   1.318   0.377
73988W        W37547  36.452  10.804   1.799
73989W        W37548  31.642  10.328  11.521
73990W        W37549  37.499  12.262  11.426
73991W        W37550  41.974  41.014   1.716
73992W        W37551   7.211   6.202   3.706
73993W        W37552  33.060   2.744   0.957
73994W        W37553  15.227   0.282  14.470
73995W        W37554  29.175  28.186   3.829
73996W        W37555  20.193  33.007  12.862
73997W        W37556  33.505  27.529  13.855
73998W        W37557  11.743  12.320   0.867
73999W        W37558   6.862  19.654   5.179
74000W        W37559  13.694  23.541  13.474
74001W        W37560  19.584  26.131  14.301
74002W        W37561  39.445  23.681  14.454
74003W        W37562  11.845  22.689   1.329
74004W        W37563  25.985  19.660  11.420
74005W        W37564  24.596  29.111   3.354
74006W        W37565  33.584  36.997  13.477
74007W        W37566  16.610  28.946   0.333
74008W        W37567  23.494   3.792   0.444
74009W        W37568   8.180   0.871   3.154
74010W        W37569   0.283  33.093   1.353
74011W        W37570  19.626  36.063  14.787
74012W        W37571   2.805  21.034   2.761
74013W        W37572  31.626   5.799   2.366
74014W        W37573  10.753  13.717   4.281
74015W        W37574  29.062  12.136  11.083
74016W        W37575  37.993  13.173   3.315
74017W        W37576  30.616  30.907  13.443
74018W        W37577  27.014  13.829  10.427
74019W        W37578  25.012  31.558   2.232
74020W        W37579   0.456   4.880  10.568
74021W        W37580  35.979  42.359   4.644
74022W        W37581  22.640   9.707  14.836
74023W        W37582  36.533   4.205  12.569
74024W        W37583  38.342  16.724   1.748
74025W        W37584  43.989  18.658  11.565
74026W        W37585   7.212  20.091  11.099
74027W        W37586   6.692   2.844   1.933
74028W        W37587  42.832  14.246   2.812
74029W        W37588  43.793  24.545  12.872
74030W        W37589  16.175   2.810   2.781
74031W        W37590   7.346  35.446   4.765
74032W        W37591  41.465  38.015  14.930
74033W        W37592   2.721   9.387  10.900
74034W        W37593   0.282  31.564   0.827
74035W        W37594  29.116  28.450   2.320
74036W        W37595  29.470  27.447  10.940
74037W        W37596  19.216  22.628  11.006
74038W        W37597  17.601  17.211   0.951
74039W        W37598  24.975   4.359  11.087
74040W        W37599  18.224   6.901  14.303
74041W        W37600  39.815   3.812  12.535
74042W        W37601  21.631  20.675   4.643
74043W        W37602   5.821  41.318   4.753
74044W        W37603  44.450   1.394  11.604
74045W        W37604  38.555  42.865   0.436
74046W        W37605  39.376  25.505   3.707
74047W        W37606  12.281   9.674  12.010
74048W        W37607   4.444   7.777  11.042
74049W        W37608  13.637  29.111   2.699
74050W        W37609  14.212  44.760  14.464
74051W        W37610  32.417  39.056   3.289
74052W        W37611  16.595   8.199  14.289
74053W        W37612  32.948   8.770  11.450
74054W        W37613  10.759  35.046   3.198
74055W        W37614  42.907   5.306   3.309
74056W        W37615  35.546  42.431  11.111
74057W        W37616  40.876  17.584   4.167
74058W        W37617  37.006  15.247  11.010
74059W        W37618  43.305   6.911  13.434
74060W        W37619  32.549  15.151  14.454
74061W        W37620   4.380  43.903   4.209
74062W        W37621  41.456  29.489  14.935
74063W        W37622  33.009  11.749   0.760
74064W        W37623  22.686  24.598   3.189
74065W        W37624  22.234   9.771   0.808
74066W        W37625  19.667  32.124   2.713
74067W        W37626   8.836   7.172   2.280
74068W        W37627  33.539  18.296   0.367
74069W        W37628   8.825  24.535   0.886
74070W        W37629   0.332   1.739  12.864
74071W        W37630  12.790  12.801   2.313
74072W        W37631  35.878  22.579  13.424
74073W        W37632  22.078  33.939   2.341
74074W        W37633   2.370  10.366   2.851
74075W        W37634   4.857  21.687   9.957
74076W        W37635  38.437  14.688  11.962
74077W        W37636  14.184  28.010   0.950
74078W        W37637  17.281   4.259  12.445
74079W        W37638  33.462  16.713   3.679
74080W        W37639  15.236  13.173   2.222
74081W        W37640  38.025  17.268   2.200
74082W        W37641   2.768  13.701   1.747
74083W        W37642  19.054  15.666  13.013
74084W        W37643  42.331  12.643  14.011
74085W        W37644   5.370  15.262   2.294
74086W        W37645  40.540  39.016   1.772
74087W        W37646  13.253  11.234  11.955
74088W        W37647  10.231  11.747  14.859
74089W        W37648  38.911  25.634  12.957
74090W        W37649  37.903  36.495  10.005
74091W        W37650  28.964  12.153   3.242
74092W        W37651  10.664  23.167  13.340
74093W        W37652  21.727  40.810  11.594
74094W        W37653   8.894  27.059  13.886
74095W        W37654  26.495  29.462  11.007
74096W        W37655  44.418  40.955   4.334
74097W        W37656  12.766  10.259   5.313
74098W        W37657  22.621  32.446  13.857
74099W        W37658  11.146  30.539   3.212
74100W        W37659  34.597  21.191  11.589
74101W        W37660  44.982  39.471   2.800
74102W        W37661   3.328   6.847  11.006
74103W        W37662   8.699  17.200   4.658
74104W        W37663  38.826   8.175  11.127
74105W        W37664  11.793  42.410  11.503
74106W        W37665   7.724  34.006   3.289
74107W        W37666   4.769  39.945  14.415
74108W        W37667  26.996  40.939   3.211
74109W        W37668  42.462  13.151  13.019
74110W        W37669  31.610  40.971  10.110
74111W        W37670  35.858   9.237  14.456
74112W        W37671   2.847  35.862  13.986
74113W        W37672  39.878  12.162   2.216
74114W        W37673  13.686  25.060   3.789
74115W        W37674   8.233  38.947  11.437
74116W        W37675  18.745   3.426   0.287
74117W        W37676  14.338   3.286   3.825
74118W        W37677  34.556   0.371   2.890
74119W        W37678  25.562  21.757  11.069
74120W        W37679  15.125  33.547   3.217
74121W        W37680   9.218  12.799   2.241
74122W        W37681  13.249   1.243  11.515
74123W        W37682  26.572   4.779  14.980
74124W        W37683  22.200  30.585  11.935
74125W        W37684  29.530   0.977  14.352
74126W        W37685  36.475   5.899   4.777
74127W        W37686  37.354  39.381  12.954
74128W        W37687  25.541   7.231  13.030
74129W        W37688  27.112  24.220  11.103
74130W        W37689  33.414  12.679   2.385
74131W        W37690  22.658  19.679  10.495
74132W        W37691   6.191  21.542   4.742
74133W        W37692  26.079  37.875  12.361
74134W        W37693  34.091  38.487  12.562
74135W        W37694   6.894  20.050   3.728
74136W        W37695  26.001   5.770  10.579
74137W        W37696  17.697  43.860   1.365
74138W        W37697   0.770  16.272  14.314
74139W        W37698  40.423   7.731  13.424
74140W        W37699  38.052  39.369   0.772
74141W        W37700  33.593  12.175  10.109
74142W        W37701  28.002  31.511   1.894
74143W        W37702   8.405  19.209  12.444
74144W        W37703   7.338  31.596   4.766
74145W        W37704  41.396  24.116   4.598
74146W        W37705  39.831  18.580  11.932
74147W        W37706  43.919  26.650  13.053
74148W        W37707  34.943   7.856   3.208
74149W        W37708  44.387   9.214   3.842
74150W        W37709  25.587  23.532  13.922
74151W        W37710   8.864  33.041   1.293
74152W        W37711  17.186  14.267   5.241
74153W        W37712  38.466  44.941   1.900
74154W        W37713  37.914  34.987  14.306
74155W        W37714  40.503  26.186   0.817
74156W        W37715  17.607  20.665   2.881
74157W        W37716  36.036  37.940  11.559
74158W        W37717  42.875  40.858  14.837
74159W        W37718   4.269  39.520  14.486
74160W        W37719  33.975  43.372  11.009
74161W        W37720  19.059  37.529  11.042
74162W        W37721  39.947  11.863   2.332
74163W        W37722  22.197  28.075  14.852
74164W        W37723   2.350   3.437   1.860
74165W        W37724  26.650  16.738  13.821
74166W        W37725  24.226  40.499   2.801
74167W        W37726  36.002  10.683   4.244
74168W        W37727  21.256  43.487   3.847
74169W        W37728   0.406  33.584  13.513
74170W        W37729  10.823   0.955  13.394
74171W        W37730   9.846  41.908  12.903
74172W        W37731   2.776  23.514  14.317
74173W        W37732  12.133  31.497  11.868
74174W        W37733  38.008   5.298   1.398
74175W        W37734   8.176  26.955  10.600
74176W        W37735   0.794  39.431   2.761
74177W        W37736   9.255   1.294   3.259
74178W        W37737   6.211  20.717   2.241
74179W        W37738  21.040  17.567  12.532
74180W        W37739  42.932  43.380   1.797
74181W        W37740  19.571   9.817  11.487
74182W        W37741  34.533  40.499   5.257
74183W        W37742  29.163   8.671   0.254
74184W        W37743  36.540  38.917   2.212
74185W        W37744  30.921  35.576  12.558
74186W        W37745  38.985  28.053  13.941
74187W        W37746  11.170  28.150   0.924
74188W        W37747  30.132  37.004   4.748
74189W        W37748  27.119  32.496  13.844
74190W        W37749  27.061  34.396  10.032
74191W        W37750   8.264  23.494  11.490
74192W        W37751  39.389   4.431   2.268
74193W        W37752  15.167   2.260  14.353
74194W        W37753  25.133  41.490   2.848
74195W        W37754   4.751  42.523  12.530
74196W        W37755  22.201  22.250  13.516
74197W        W37756   4.711  35.416   2.223
74198W        W37757   0.881  13.131   0.351
74199W        W37758  38.372  15.281   2.722
74200W        W37759  28.106  12.803   2.313
74201W        W37760  39.438   3.923   1.843
74202W        W37761  29.085  34.520   4.241
74203W        W37762  16.110   8.168   5.249
74204W        W37763  18.679  27.588   1.853
74205W        W37764  29.534  25.118   2.680
74206W        W37765   1.379  23.045   4.202
74207W        W37766  19.696  17.143  14.954
74208W        W37767  31.533   3.418   2.697
74209W        W37768  25.521  44.937  12.025
74210W        W37769  11.335   8.287  13.057
74211W        W37770  13.276  20.187   0.841
74212W        W37771  43.328  34.900  11.040
74213W        W37772  18.235  14.720  11.122
74214W        W37773   3.260  36.982   4.188
74215W        W37774  17.575  33.031   2.222
74216W        W37775   3.303   6.243  12.544
74217W        W37776  43.506  39.905  14.785
74218W        W37777  28.011   6.696   3.685
74219W        W37778  29.587   4.790  10.926
74220W        W37779  38.555  37.525  12.961
74221W        W37780  33.098   2.445  12.951
74222W        W37781  25.051   5.347   0.951
74223W        W37782  14.133  23.526  11.955
74224W        W37783  15.688  19.770  14.498
74225W        W37784   9.884  44.472   1.905
74226W        W37785   8.365  16.283   2.701
74227W        W37786  27.990  35.584   1.322
74228W        W37787  16.227  26.668   3.240
74229W        W37788  44.781  10.212  14.353
74230W        W37789  37.453  40.368  13.902
74231W        W37790  34.605   8.307  12.579
74232W        W37791  33.080  26.572   4.173
74233W        W37792  39.389  44.785   3.783
74234W        W37793  13.274  19.640   0.831
74235W        W37794  28.594  12.840   1.362
74236W        W37795   0.965  20.721   0.753
74237W        W37796  43.433  16.173  13.029
74238W        W37797  29.058  31.927   0.812
74239W        W37798  13.701  25.494  11.452
74240W        W37799   6.712  35.394   1.429
74241W        W37800  19.653  34.025  14.501
74242W        W37801  12.346   6.256   3.671
74243W        W37802  35.853  31.463  11.514
74244W        W37803  26.159   6.758   3.724
74245W        W37804  13.202  39.410   2.241
74246W        W37805  26.507  13.829   3.361
74247W        W37806  20.066  26.518   3.831
74248W        W37807   7.720  35.001   4.178
74249W        W37808   4.877  32.926  14.276
74250W        W37809  26.143  29.129  11.396
74251W        W37810   1.798  38.442   0.289
74252W        W37811  29.984  35.524   1.820
74253W        W37812  38.882  19.176  12.425
74254W        W37813  43.811   1.926   4.647
74255W        W37814  11.158  28.674   4.699
74256W        W37815  38.485  25.615   1.756
74257W        W37816   2.804  17.732   0.432
74258W        W37817   3.260  19.041   2.283
74259W        W37818  18.068  35.554   2.314
74260W        W37819   9.665  33.990   3.694
74261W        W37820  42.376  22.721  11.457
74262W        W37821  28.136  42.349  11.974
74263W        W37822  17.649  10.374  10.425
74264W        W37823  29.555   1.437   3.299
74265W        W37824  18.176   2.965  13.400
74266W        W37825  28.494   3.310   3.720
74267W        W37826  26.505  42.010   0.469
74268W        W37827  33.946   1.349   0.866
74269W        W37828  22.128  33.558  12.459
74270W        W37829   8.308  33.888  10.515
74271W        W37830  36.420  17.651  14.307
74272W        W37831  24.002   4.733   1.239
74273W        W37832  31.592  34.550   4.269
74274W        W37833  36.069   8.401  14.019
74275W        W37834  31.513   0.810   0.276
74276W        W37835  41.983  37.860  13.545
74277W        W37836  20.199  23.114  14.406
74278W        W37837   1.337  37.424   2.855
74279W        W37838   7.895  17.592  11.039
74280W        W37839  33.459  14.194   4.172
74281W        W37840  28.597  11.735  10.980
74282W        W37841  31.901  30.550   3.849
74283W        W37842  25.094  20.617   0.801
74284W        W37843  38.943  32.445   1.842
74285W        W37844  27.659  34.912   1.391
74286W        W37845  14.634   6.851  13.384
74287W        W37846   9.777  42.917   1.904
74288W        W37847   1.851   1.436   4.266
74289W        W37848  11.326  42.426   1.756
74290W        W37849   2.957  33.087  12.985
74291W        W37850  36.048   2.940  13.915
74292W        W37851   5.292   4.806  14.432
74293W        W37852   8.208  30.490  12.365
74294W        W37853   9.648   2.776  12.374
74295W        W37854  21.020  31.898   0.479
74296W        W37855  23.578  25.071   0.867
74297W        W37856  44.505  20.720   4.755
74298W        W37857  24.653  37.988   1.749
74299W        W37858   8.207  34.883  10.432
74300W        W37859   9.772  43.859   3.308
74301W        W37860  15.786  10.677  14.903
74302W        W37861  20.072   6.873  14.497
74303W        W37862  39.852  11.359  10.480
74304W        W37863   9.314  33.890   3.737
74305W        W37864  29.560  22.550   3.342
74306W        W37865   1.379   3.804   1.753
74307W        W37866  17.193  34.529   1.383
74308W        W37867  13.238   0.318   3.284
74309W        W37868  21.553  13.792   2.364
74310W        W37869  24.569  35.513   2.776
74311W        W37870  31.622  35.498  10.919
74312W        W37871  34.949   3.414   0.281
74313W        W37872   6.894   7.264   0.407
74314W        W37873   3.286   5.745   1.362
74315W        W37874  20.116  34.079   4.604
74316W        W37875  29.168  30.948  10.568
74317W        W37876  32.062  15.714   1.783
74318W        W37877   9.790  22.997   4.120
74319W        W37878  25.107  14.771   1.397
74320W        W37879  18.255   6.245   3.253
74321W        W37880  32.052  25.060  12.875
74322W        W37881   0.855  25.147  13.887
74323W        W37882   6.427   5.830  12.869
74324W        W37883  12.768   3.461  12.541
74325W        W37884  33.426  11.180   1.867
74326W        W37885   7.906  39.538   4.645
74327W        W37886  26.118  30.555  10.619
74328W        W37887  43.429  33.394  11.878
74329W        W37888   7.875   0.880   2.272
74330W        W37889  18.545  38.535  14.868
74331W        W37890  17.107  26.105   0.482
74332W        W37891  41.518   6.813   1.888
74333W        W37892  23.236  36.861   0.953
74334W        W37893   4.294  18.052   4.631
74335W        W37894   3.872  34.485   1.932
74336W        W37895  19.704  22.238   4.245
74337W        W37896  23.582  31.898  14.436
74338W        W37897  29.029  44.406  12.555
74339W        W37898  18.293  42.896   2.875
74340W        W37899  19.611  15.590  14.760
74341W        W37900  17.626  42.459   0.782
74342W        W37901  25.209  28.596   0.900
74343W        W37902  24.206  44.442  12.414
74344W        W37903  38.378  35.984   5.197
74345W        W37904  17.676  10.180  12.406
74346W        W37905  23.007  44.844  14.959
74347W        W37906  19.247   5.810   2.204
74348W        W37907  37.437  18.271  12.908
74349W        W37908   9.820  12.331   2.351
74350W        W37909  13.187  16.794   1.348
74351W        W37910  28.456  41.998  10.496
74352W        W37911  30.123  23.711  13.480
74353W        W37912  36.381   6.856   2.752
74354W        W37913   3.447   5.830   3.859
74355W        W37914   3.770   1.882   2.879
74356W        W37915  17.214  19.592   0.821
74357W        W37916  32.033  32.914  13.898
74358W        W37917  14.800  38.075  10.530
74359W        W37918  16.290   1.448  12.468
74360W        W37919  31.572  42.896   1.234
74361W        W37920  20.064   6.779  12.408
74362W        W37921  14.810  34.594   1.860
74363W        W37922   3.858   2.329  13.451
74364W        W37923  12.160   4.833   2.845
74365W        W37924  22.195   8.241  11.380
74366W        W37925  44.845  14.694  13.013
74367W        W37926  21.181  18.095   2.275
74368W        W37927  16.107  41.947  14.315
74369W        W37928  16.294  17.098   4.253
74370W        W37929  15.625   5.781   1.774
74371W        W37930   1.479   4.867   1.934
74372W        W37931  13.262   5.778  14.923
74373W        W37932  33.407  11.361  14.506
74374W        W37933  37.452  32.101  12.084
74375W        W37934  37.065  10.257   2.740
74376W        W37935  15.791  38.880  13.791
74377W        W37936  41.319   7.725  12.447
74378W        W37937   8.807   8.304   2.238
74379W        W37938  28.980  36.547  10.599
74380W        W37939  18.556  40.408  10.531
74381W        W37940  38.009  32.536   1.759
74382W        W37941  38.429  19.103  13.358
74383W        W37942   2.786  21.552   4.221
74384W        W37943  26.066   7.678  14.791
74385W        W37944  20.591  24.721  10.936
74386W        W37945  38.495  34.115   1.378
74387W        W37946  29.010  40.351   2.758
74388W        W37947  12.830  36.522  12.577
74389W        W37948  13.314  21.631   3.340
74390W        W37949  30.634  15.778  11.449
74391W        W37950   5.262   0.762  14.449
74392W        W37951  19.200  18.193   0.750
74393W        W37952  27.475  31.936  12.498
74394W        W37953   1.345  13.142   1.437
74395W        W37954  14.140  36.921  13.333
74396W        W37955  22.573  17.171  12.070
74397W        W37956  18.061  11.356   4.655
74398W        W37957   3.399  24.603   0.424
74399W        W37958   6.847  13.762  13.829
74400W        W37959  25.044  23.588   9.931
74401W        W37960  33.052  20.236  12.516
74402W        W37961  34.872  13.720   1.810
74403W        W37962  21.566  22.194   1.266
74404W        W37963  40.502   3.927   2.396
74405W        W37964   6.788  16.705   2.408
74406W        W37965   2.310  37.504   4.174
74407W        W37966  44.884  20.226   3.650
74408W        W37967  28.119   3.949  12.993
74409W        W37968   0.960  11.639  11.378
74410W        W37969  39.027   1.826  10.130
74411W        W37970  33.048  34.428  11.558
74412W        W37971  26.561   0.469   0.927
74413W        W37972  21.731   8.300  14.950
74414W        W37973   8.386  33.605  11.458
74415W        W37974  26.083  42.936  13.861
74416W        W37975  18.724   1.372  12.473
74417W        W37976   3.713   4.280  11.555
74418W        W37977  17.633  39.489  10.531
74419W        W37978   8.693   0.481   4.283
74420W        W37979   3.785  28.026  13.414
74421W        W37980  29.508  36.391   0.904
74422W        W37981  30.414   5.777  13.404
74423W        W37982  33.563  20.224   4.804
74424W        W37983  27.541  39.528   1.893
74425W        W37984  22.706  36.592  11.398
74426W        W37985  27.655  10.850  13.495
74427W        W37986  31.524  33.111   1.768
74428W        W37987  30.611   9.750  11.004
74429W        W37988  41.349  10.737   3.788
74430W        W37989  43.341  29.094   0.263
74431W        W37990  23.613  10.229  13.401
74432W        W37991  18.247  42.378   3.775
74433W        W37992  15.117  41.889  11.397
74434W        W37993   5.216  18.243   2.203
74435W        W37994  36.076  27.666   3.347
74436W        W37995  11.801   1.368   1.832
74437W        W37996  44.858  16.300   0.418
74438W        W37997  42.823  29.160   1.744
74439W        W37998  13.841  37.486  14.363
74440W        W37999  41.436  44.354  14.869
74441W        W38000  19.203  21.049  12.564
74442W        W38001  31.971  18.551   3.794
74443W        W38002   5.277  23.142  12.547
74444W        W38003  28.509   9.165  10.564
74445W        W38004  42.370   7.264  10.455
74446W        W38005   6.753  28.636  11.094
74447W        W38006  23.567  30.058  11.083
74448W        W38007  27.461  24.223  12.906
74449W        W38008  37.946  10.661   3.827
74450W        W38009  40.478  42.963   2.747
74451W        W38010  35.430   8.696   2.240
74452W        W38011  35.386  19.593   3.789
74453W        W38012  15.581  31.575  11.931
74454W        W38013  28.036  37.579  14.309
74455W        W38014   5.271  21.043   3.786
74456W        W38015  16.153  13.838   1.434
74457W        W38016  26.683  33.483  12.074
74458W        W38017  28.063   9.748   2.778
74459W        W38018  21.053  36.372   4.218
74460W        W38019  34.383   4.941  11.913
74461W        W38020  10.168   6.253   4.694
74462W        W38021  19.250  15.157   1.295
74463W        W38022  36.456  16.161   1.419
74464W        W38023  28.047  17.773   4.162
74465W        W38024  20.755  14.746  12.527
74466W        W38025   5.794   8.813   4.646
74467W        W38026  12.768  20.132  12.088
74468W        W38027   7.863  42.425  10.895
74469W        W38028   2.839  19.704  14.397
74470W        W38029  24.550  40.975   2.668
74471W        W38030  39.331  14.337  10.462
74472W        W38031   6.679  25.068  10.411
74473W        W38032  39.417  42.954   2.799
74474W        W38033   8.303  34.488  11.531
74475W        W38034   8.381  34.487  11.960
74476W        W38035  22.032   0.819   3.272
74477W        W38036  25.029  30.950  12.076
74478W        W38037  10.195   5.214   3.665
74479W        W38038   4.427  39.061   1.327
74480W        W38039  15.323   8.283  13.426
74481W        W38040  10.847   1.317  12.411
74482W        W38041  32.077  22.529  11.860
74483W        W38042  43.886  39.511  11.921
74484W        W38043   8.304  37.440  14.292
74485W        W38044  40.434   5.293  11.381
74486W        W38045  35.932  40.043  11.893
74487W        W38046   0.983  34.445   3.190
74488W        W38047   4.295  10.646   0.436
74489W        W38048  25.530  39.834  10.615
74490W        W38049   7.237  36.030   3.219
74491W        W38050  35.953   3.304  10.903
74492W        W38051   2.926   7.406  11.078
74493W        W38052  37.041  35.436   4.809
74494W        W38053  29.944  36.407  13.829
74495W        W38054  42.397  10.151  14.908
74496W        W38055   9.806  19.655  12.927
74497W        W38056  33.113  30.498   2.761
74498W        W38057  26.995   1.354  13.360
74499W        W38058  31.142  18.616  11.597
74500W        W38059  42.025  25.181  14.984
74501W        W38060  15.589   5.272   4.187
74502W        W38061  28.562  34.558  12.054
74503W        W38062  31.401  26.953  11.512
74504W        W38063  30.032  38.367  12.520
74505W        W38064  39.032  24.146  11.950
74506W        W38065  41.473  36.963  13.864
74507W        W38066  13.800   6.278   4.706
74508W        W38067   8.393  43.979  11.549
74509W        W38068   3.377   2.362  10.970
74510W        W38069  16.229  20.266   3.656
74511W        W38070  21.033  12.736   3.182
74512W        W38071   8.708   1.308  11.447
74513W        W38072  26.989  28.068  10.595
74514W        W38073  20.092   1.287  14.920
74515W        W38074  24.010   4.710  13.403
74516W        W38075  39.450  10.674  10.512
74517W        W38076  43.469  36.460   0.274
74518W        W38077  37.576   0.428   0.318
74519W        W38078   1.365  23.990   2.696
74520W        W38079  44.333  36.865  10.498
74521W        W38080  41.797  23.079  14.439
74522W        W38081  33.499  26.033   0.372
74523W        W38082  25.600   3.358   2.222
74524W        W38083  10.773  38.891   4.751
74525W        W38084  19.091  12.806   4.747
74526W        W38085  11.687  16.661   3.245
74527W        W38086   8.785   6.228   4.220
74528W        W38087   5.771  32.403  13.844
74529W        W38088   2.268  31.424   1.398
74530W        W38089  12.654  16.127  13.064
74531W        W38090  44.888   7.808  13.854
74532W        W38091  29.447  13.633  10.576
74533W        W38092   3.437  26.684   4.732
74534W        W38093  25.528  32.610   0.838
74535W        W38094  17.221   9.718   3.781
74536W        W38095   9.827  18.590  12.911
74537W        W38096  11.300   7.771   1.860
74538W        W38097   8.227  19.244   3.307
74539W        W38098   6.744  23.561  11.575
74540W        W38099  25.576  13.216   0.903
74541W        W38100  38.393  24.049   1.379
74542W        W38101  29.512  37.526  10.489
74543W        W38102  35.996  11.794   0.310
74544W        W38103  43.879  22.572  12.392
74545W        W38104  44.287  27.185   2.689
74546W        W38105  19.139  29.135   9.936
74547W        W38106   4.828  33.086   1.261
74548W        W38107  20.716  33.527  10.601
74549W        W38108  33.101  13.258  14.306
74550W        W38109  10.317  12.740   2.389
74551W        W38110  23.603   3.865  12.841
74552W        W38111   0.893  30.429   1.285
74553W        W38112  29.519  29.563   4.146
74554W        W38113  21.537  32.542   1.382
74555W        W38114  16.674  44.352  11.480
74556W        W38115   5.760  12.233  10.994
74557W        W38116  40.801   3.347  10.566
74558W        W38117  15.107  12.329  11.582
74559W        W38118   8.733  21.647  10.621
74560W        W38119   6.428  25.712  12.919
74561W        W38120  19.630  41.411  11.064
74562W        W38121  44.966  23.034  11.857
74563W        W38122  27.664  11.795  14.448
74564W        W38123  18.635   2.956   1.385
74565W        W38124  10.792  39.431  12.404
74566W        W38125   2.265  40.373  13.894
74567W        W38126  24.217  38.369   2.308
74568W        W38127   0.272  13.702   1.286
74569W        W38128  31.059   4.407  12.090
74570W        W38129  10.319   8.362  14.302
74571W        W38130  25.149   8.729   1.313
74572W        W38131  20.746  14.327  12.463
74573W        W38132  42.962   4.238  11.027
74574W        W38133  44.303  15.174  12.431
74575W        W38134  41.824   0.406   1.353
74576W        W38135  33.103  26.550  14.412
74577W        W38136  31.627  40.004   2.260
74578W        W38137  21.191   7.872  13.852
74579W        W38138  14.158  23.645   2.260
74580W        W38139  28.529  41.429   1.778
74581W        W38140  43.295  13.119  10.599
74582W        W38141  37.499  34.036  10.145
74583W        W38142  36.474   1.977  10.587
74584W        W38143   7.737  11.262   2.249
74585W        W38144   8.387  14.314   2.273
74586W        W38145   5.926  15.150   0.417
74587W        W38146   0.839   8.339   4.257
74588W        W38147   2.340  19.570  10.452
74589W        W38148  30.947  41.294   9.975
74590W        W38149   6.362  12.181  11.974
74591W        W38150  26.172  41.382   3.257
74592W        W38151  21.686  24.703  11.391
74593W        W38152  13.191  28.664   3.321
74594W        W38153  10.683  24.578   3.645
74595W        W38154  34.938  12.264   0.372
74596W        W38155  26.491  32.535   3.862
74597W        W38156  43.388  17.693   2.787
74598W        W38157  35.886  36.084   3.641
74599W        W38158  28.561  28.671   1.231
74600W        W38159  19.273  12.181  10.961
74601W        W38160  14.788  37.530   5.164
74602W        W38161  39.813  22.096  10.927
74603W        W38162   6.184  40.527   4.700
74604W        W38163  10.297   0.827   0.739
74605W        W38164  14.254  13.754  11.128
74606W        W38165  24.068   4.423   0.443
74607W        W38166   6.251  42.346   0.327
74608W        W38167   7.274  14.327  12.378
74609W        W38168  19.241  10.854   4.756
74610W        W38169  32.072  36.083  12.879
74611W        W38170  42.942  18.564   4.708
74612W        W38171  28.116  11.198   5.217
74613W        W38172   8.178  40.872  14.888
74614W        W38173   5.347  34.389  11.582
74615W        W38174  10.707  12.693   1.315
74616W        W38175   7.757  28.946  14.804
74617W        W38176  42.419  19.731   3.785
74618W        W38177   2.327  24.180   3.780
74619W        W38178   2.736  20.140  12.439
74620W        W38179  12.804  18.093  11.948
74621W        W38180  43.299  10.235  13.526
74622W        W38181  20.668  33.094   0.379
74623W        W38182   2.787  20.049  14.997
74624W        W38183  14.751  33.066  12.006
74625W        W38184   4.423  15.215  10.970
74626W        W38185  22.152  31.002  13.929
74627W        W38186  13.196  18.234   2.803
74628W        W38187  19.104  29.528   4.733
74629W        W38188  43.990  34.025  10.892
74630W        W38189  20.044  16.773  11.097
74631W        W38190   3.784  30.644  13.872
74632W        W38191  43.436   6.750   2.664
74633W        W38192  27.465  19.235   1.797
74634W        W38193  15.599  39.868  13.531
74635W        W38194  22.153   1.779  14.782
74636W        W38195  41.939  42.520  13.000
74637W        W38196  28.011  40.370  13.447
74638W        W38197  39.476   1.877   1.406
74639W        W38198  23.101  27.992   0.832
74640W        W38199  32.142  27.607  11.457
74641W        W38200  36.389  44.457   4.233
74642W        W38201  18.143  10.648  14.007
74643W        W38202  33.966  42.460   1.348
74644W        W38203  14.667  17.207  14.419
74645W        W38204  23.511  18.194  10.940
74646W        W38205  35.012  32.435   1.793
74647W        W38206  11.233   8.807   4.343
74648W        W38207  12.201  33.980  11.018
74649W        W38208  43.386  17.134   0.466
74650W        W38209  12.676  39.812   4.305
74651W        W38210  27.148  43.945   0.462
74652W        W38211  10.724  25.147  13.853
74653W        W38212  11.836   0.943  14.029
74654W        W38213  11.703   8.323   0.296
74655W        W38214  20.631  36.425  11.499
74656W        W38215   5.766  42.864  14.770
74657W        W38216   4.281  29.477  13.450
74658W        W38217  23.993  34.407  10.040
74659W        W38218  24.135  20.156   2.787
74660W        W38219  20.635  13.259   1.398
74661W        W38220   7.731  27.013  11.895
74662W        W38221  34.562  36.417   3.680
74663W        W38222  23.009  18.269   2.888
74664W        W38223  44.462  18.588   2.379
74665W        W38224  13.129  33.475   4.683
74666W        W38225  15.258  30.467   0.464
74667W        W38226  24.711  28.624   4.287
74668W        W38227   4.293  16.106   4.156
74669W        W38228  28.160  34.014  14.993
74670W        W38229  16.688  38.026   2.841
74671W        W38230  39.387  43.767   4.244
74672W        W38231  26.069  23.160  13.364
74673W        W38232   8.358  27.073  14.851
74674W        W38233  26.964   5.832   2.677
74675W        W38234  35.952  37.563  10.135
74676W        W38235  26.529  23.234   2.304
74677W        W38236  24.108  10.209  11.541
74678W        W38237   4.812  16.170   1.433
74679W        W38238  19.592  39.559   1.792
74680W        W38239  35.496  26.609  10.609
74681W        W38240  35.950  26.996   1.355
74682W        W38241  15.328   4.300  11.040
74683W        W38242   7.872  27.010   2.727
74684W        W38243  41.012  37.982  12.961
74685W        W38244  14.299  20.195  12.575
74686W        W38245  34.957  31.983  12.977
74687W        W38246   1.908  14.689   3.665
74688W        W38247  15.189  32.434   3.362
74689W        W38248  29.664   4.888  14.775
74690W        W38249  40.016  13.700  13.866
74691W        W38250  10.228  31.992  11.964
74692W        W38251  11.323   8.744   1.212
74693W        W38252  32.943   4.716   0.903
74694W        W38253  25.155   8.240   1.246
74695W        W38254   1.976   8.262  14.344
74696W        W38255  29.471  26.962  12.849
74697W        W38256  10.774  24.024   4.209
74698W        W38257  29.492  17.783   3.147
74699W        W38258  32.431  28.141  10.946
74700W        W38259  43.278  14.337  14.999
74701W        W38260   5.303   0.271   1.862
74702W        W38261  40.837   3.297   4.721
74703W        W38262  17.746   4.380  13.369
74704W        W38263  21.625  32.537  13.859
74705W        W38264  15.155  19.137   2.775
74706W        W38265  10.709   4.781  12.439
74707W        W38266  19.273  23.139   3.349
74708W        W38267  19.067  38.046   3.739
74709W        W38268  18.641  34.553  12.909
74710W        W38269  24.092  29.589  14.481
74711W        W38270  39.885  30.970   3.153
74712W        W38271   9.833   3.903  12.551
74713W        W38272  18.579  12.137   2.679
74714W        W38273  13.777  29.475  14.861
74715W        W38274  36.477  12.228   2.802
74716W        W38275   9.263  15.632  14.485
74717W        W38276  34.517  19.083   1.930
74718W        W38277  26.021  18.169  10.531
74719W        W38278   5.217  12.750  14.870
74720W        W38279  20.054  44.868  14.465
74721W        W38280  19.724  35.474  10.470
74722W        W38281   8.343  39.542  12.537
74723W        W38282   2.784  26.630  10.994
74724W        W38283  17.264  41.309  11.872
74725W        W38284  30.924  28.146   1.916
74726W        W38285  39.012  20.583   2.287
74727W        W38286  34.470  26.461   4.139
74728W        W38287  42.944  29.532  14.832
74729W        W38288  32.937  21.158  12.530
74730W        W38289   2.820  20.621   4.651
74731W        W38290  12.851  13.322   5.246
74732W        W38291  33.400  22.146  14.296
74733W        W38292  30.972  20.554   1.711
74734W        W38293  25.576  38.990  10.128
74735W        W38294  13.319  31.998   2.769
74736W        W38295  38.009  40.417  14.502
74737W        W38296  11.295  30.908   2.185
74738W        W38297  11.686  25.502   2.820
74739W        W38298  23.566  39.937   3.705
74740W        W38299  34.869  24.724  14.825
74741W        W38300  10.739   1.976  11.866
74742W        W38301  12.793  22.009  12.900
74743W        W38302   8.673  29.979  12.478
74744W        W38303  44.268  19.067  11.896
74745W        W38304  42.519   6.743  13.795
74746W        W38305  11.155   0.853  14.870
74747W        W38306  40.343  10.206  13.438
74748W        W38307  23.213   4.934  10.928
74749W        W38308   1.850   9.656   1.904
74750W        W38309  37.915  42.404  14.422
74751W        W38310   1.317  16.711   2.847
74752W        W38311  11.181   8.654   0.861
74753W        W38312   1.381  22.656  13.397
74754W        W38313  26.014   5.401  13.530
74755W        W38314  27.009  21.639  13.351
74756W        W38315  38.362  15.594  11.053
74757W        W38316  26.512  35.466  14.761
74758W        W38317  41.391  31.452   3.318
74759W        W38318  40.898  10.219  13.486
74760W        W38319  42.788   9.840  14.920
74761W        W38320  21.742  22.066  10.644
74762W        W38321  22.140  23.002   4.673
74763W        W38322  38.434  37.509  14.780
74764W        W38323  26.130   4.362  14.861
74765W        W38324  34.529  20.524  14.425
74766W        W38325  19.143  38.009   4.214
74767W        W38326  16.221  27.674   0.801
74768W        W38327  32.899  26.167  14.030
74769W        W38328  40.887  21.144   3.726
74770W        W38329  40.902  15.091   1.343
74771W        W38330  39.318  34.007   1.901
74772W        W38331  34.560  23.548   3.632
74773W        W38332  12.302  11.793  14.848
74774W        W38333  20.238  30.561   9.503
74775W        W38334  44.364  12.222  11.466
74776W        W38335  27.640  44.476  11.115
74777W        W38336  34.420  28.496   0.897
74778W        W38337  31.039   6.307   0.444
74779W        W38338  11.254  34.000  10.125
74780W        W38339  22.717  31.909  11.412
74781W        W38340   2.364  24.175  14.927
74782W        W38341  36.486  44.449  11.380
74783W        W38342   7.780   9.854   4.819
74784W        W38343  22.618  35.958   0.925
74785W        W38344  35.378   6.222  14.447
74786W        W38345   9.731  20.062   2.399
74787W        W38346  27.080  19.615  14.018
74788W        W38347  43.371  17.084   2.823
74789W        W38348  43.004   7.257  11.890
74790W        W38349  35.904  32.478   1.798
74791W        W38350  15.730  30.519   2.255
74792W        W38351   3.315   4.328  11.504
74793W        W38352  20.219   7.299  11.109
74794W        W38353   4.209  14.217   0.752
74795W        W38354  26.618  32.494  13.528
74796W        W38355  22.574  41.795   4.287
74797W        W38356  40.421  17.155  11.503
74798W        W38357   8.404  10.666   0.785
74799W        W38358   8.386   2.408  13.435
74800W        W38359  42.368   6.239   3.768
74801W        W38360   0.898  24.672  10.890
74802W        W38361   5.247  42.475  14.472
74803W        W38362  10.293   8.374  13.543
74804W        W38363   1.771   4.294   0.812
74805W        W38364   2.271  33.421  13.892
74806W        W38365  23.533  29.661   5.200
74807W        W38366  17.629  34.433   1.379
74808W        W38367  32.078  10.733  11.402
74809W        W38368  17.280  30.605  11.534
74810W        W38369  13.133  24.638  13.819
74811W        W38370  41.412  34.439  14.006
74812W        W38371  36.077  17.193   4.129
74813W        W38372  22.211  25.597  10.601
74814W        W38373  38.509  41.032   4.834
74815W        W38374  32.013  12.179   2.864
74816W        W38375  30.527  22.134   1.300
74817W        W38376  30.535  24.616  14.892
74818W        W38377  17.593  34.101   3.382
74819W        W38378  17.689  25.987  12.835
74820W        W38379   9.786  25.560  12.426
74821W        W38380  32.090  36.017   0.738
74822W        W38381  14.163  28.125  13.820
74823W        W38382  19.623  13.279  10.468
74824W        W38383  21.603  36.907  14.972
74825W        W38384  30.595   3.835  13.313
74826W        W38385  36.516   4.854   3.201
74827W        W38386   5.777  37.831   3.675
74828W        W38387  32.034  22.641  13.482
74829W        W38388  20.611  27.957   1.866
74830W        W38389  11.780  18.069   3.383
74831W        W38390  27.141  40.968  13.369
74832W        W38391  41.849   7.385  12.361
74833W        W38392  12.252  26.676  13.388
74834W        W38393  32.551  15.266  12.912
74835W        W38394  33.039  21.638  12.900
74836W        W38395  34.863  39.876  13.359
74837W        W38396  28.501  29.624   3.698
74838W        W38397   7.293   1.446  13.974
74839W        W38398   9.381  27.075  11.454
74840W        W38399  11.632  10.141   1.390
74841W        W38400  17.302  10.152   1.353
74842W        W38401  24.069  44.404  14.840
74843W        W38402  18.140  25.569   2.363
74844W        W38403  40.460  31.435   0.444
74845W        W38404   2.300  25.122   0.886
74846W        W38405  35.087  24.094   5.099
74847W        W38406  25.587  36.898   4.237
74848W        W38407   1.268   1.960  14.352
74849W        W38408  36.573  18.092  12.423
74850W        W38409   3.762   5.784   3.324
74851W        W38410  14.820  13.215   2.331
74852W        W38411   3.777  27.639  14.417
74853W        W38412  16.611  16.646   0.923
74854W        W38413  28.490   8.273   2.337
74855W        W38414  38.916  37.014   3.778
74856W        W38415   3.915  19.764   5.090
74857W        W38416  27.045  13.105   0.919
74858W        W38417  18.053  22.531   0.794
74859W        W38418  40.814  31.457  11.936
74860W        W38419   5.854  26.078   2.720
74861W        W38420  21.205  28.056   2.882
74862W        W38421  29.586  43.820   3.151
74863W        W38422  15.610   9.665  11.528
74864W        W38423  22.098  31.973   0.900
74865W        W38424  18.113  29.545  14.796
74866W        W38425  10.777  25.589   3.282
74867W        W38426  27.979  14.732   1.822
74868W        W38427  16.757  15.791   0.333
74869W        W38428  15.820  41.388  12.353
74870W        W38429   3.791   8.735  12.437
74871W        W38430  23.171   2.338   3.302
74872W        W38431  34.896  31.554  13.347
74873W        W38432  38.464  43.475  12.010
74874W        W38433   8.330  41.380  11.525
74875W        W38434   4.746  16.204   0.353
74876W        W38435  35.863  40.869  13.942
74877W        W38436  21.059  43.404   2.380
74878W        W38437   8.367  30.082  12.480
74879W        W38438  27.157  16.766  11.859
74880W        W38439  22.519  38.442  10.132
74881W        W38440  33.386   9.191   1.734
74882W        W38441  33.469  20.216   2.371
74883W        W38442  23.596  31.454  11.931
74884W        W38443   6.782   7.366  14.494
74885W        W38444  44.393  31.047   5.130
74886W        W38445  41.538  14.744  11.469
74887W        W38446  38.059  18.560   1.399
74888W        W38447  31.450  40.047  12.463
74889W        W38448   3.857  13.825   2.892
74890W        W38449  33.930  24.646  14.975
74891W        W38450  31.608  32.088  12.013
74892W        W38451  29.118  41.932   2.755
74893W        W38452  43.936   7.771   4.115
74894W        W38453  15.598  26.177  12.869
74895W        W38454  33.968  31.631   4.302
74896W        W38455  34.874   0.459   0.243
74897W        W38456  31.137  19.778   3.654
74898W        W38457  23.528  34.500   4.812
74899W        W38458   9.738  22.685   1.784
74900W        W38459   7.771   0.263  13.491
74901W        W38460  13.343  15.125  10.889
74902W        W38461  43.928  18.287   3.162
74903W        W38462  32.960  34.437   3.721
74904W        W38463   1.785  30.467   1.935
74905W        W38464   1.974   1.818   4.808
74906W        W38465   0.439  27.592  10.570
74907W        W38466  30.983  18.264  14.831
74908W        W38467  21.582  10.288   3.175
74909W        W38468   4.377   5.755  13.402
74910W        W38469  31.463  34.015   4.761
74911W        W38470  42.894  17.264   2.291
74912W        W38471  15.156   0.255   2.355
74913W        W38472  41.314   5.763   4.283
74914W        W38473  43.461  28.964  11.052
74915W        W38474   8.210  24.039   2.875
74916W        W38475   6.206  25.032   2.321
74917W        W38476   5.771  40.833  14.477
74918W        W38477   0.407   8.798  12.458
74919W        W38478  14.333  31.627  13.986
74920W        W38479  42.465  12.826   1.285
74921W        W38480  30.550   6.299   3.385
74922W        W38481  27.192   8.678  12.984
74923W        W38482  18.555   3.788   2.812
74924W        W38483  20.723  38.539   1.795
74925W        W38484   5.218  22.038   2.900
74926W        W38485  42.490  11.640   2.212
74927W        W38486   5.730   6.375   2.244
74928W        W38487  26.115  40.946   1.231
74929W        W38488  44.979  27.548  13.993
74930W        W38489  21.560  31.572   5.159
74931W        W38490  15.744  17.759  14.362
74932W        W38491  11.634  42.417   1.400
74933W        W38492   9.740  15.582   1.770
74934W        W38493  29.038  35.966  12.454
74935W        W38494  18.731   8.309  12.950
74936W        W38495  29.923  22.057   3.727
74937W        W38496  14.713  25.041   0.871
74938W        W38497   5.426  30.578   1.418
74939W        W38498  16.730  14.665   0.465
74940W        W38499   4.386  29.613  14.961
74941W        W38500  40.892   5.336  14.838
74942W        W38501  42.378  10.327   4.775
74943W        W38502  12.813   8.882   3.288
74944W        W38503   9.209   7.773  14.304
74945W        W38504  35.482   2.898  12.545
74946W        W38505  19.167  20.565  12.992
74947W        W38506  17.579  21.685   4.710
74948W        W38507  15.256  20.191  11.112
74949W        W38508   2.229  14.647   0.961
74950W        W38509  27.643   7.877   1.720
74951W        W38510  15.745   0.454  11.492
74952W        W38511  14.292   1.241  13.826
74953W        W38512  11.270  31.475  10.929
74954W        W38513  42.481  23.688   1.801
74955W        W38514   9.240  13.160  14.512
74956W        W38515  17.089  35.532   2.285
74957W        W38516  40.033   0.887   0.307
74958W        W38517  12.301  10.265   3.377
74959W        W38518   8.351  11.354  12.069
74960W        W38519  17.614  30.651   2.245
74961W        W38520  40.909   2.276   3.320
74962W        W38521  32.037  28.435   3.667
74963W        W38522   1.847  15.590  12.888
74964W        W38523   3.901  12.143   1.432
74965W        W38524  34.974  19.238   2.371
74966W        W38525  36.552  27.544   0.844
74967W        W38526   5.707  44.774  14.996
74968W        W38527  40.824  31.642  10.938
74969W        W38528  21.598  25.066  13.463
74970W        W38529  35.477  38.355   2.672
74971W        W38530  36.548  19.099   2.674
74972W        W38531  21.722   9.236   3.638
74973W        W38532   7.257  15.639  12.502
74974W        W38533  38.458  39.447   3.713
74975W        W38534  21.089  28.128  10.989
74976W        W38535   0.962   4.389   4.316
74977W        W38536  18.122  22.672   3.660
74978W        W38537  16.776   0.335  14.482
74979W        W38538  41.437  41.388   4.264
74980W        W38539  28.610  33.569   3.365
74981W        W38540   4.391  41.912   1.694
74982W        W38541  18.264  22.546   2.410
74983W        W38542   2.948   2.227   0.327
74984W        W38543  34.890  25.014  11.417
74985W        W38544  23.033  25.018  10.514
74986W        W38545  17.234   3.364   0.372
74987W        W38546  24.098  13.150   1.819
74988W        W38547  10.828  37.442   2.750
74989W        W38548  30.601   8.716   1.412
74990W        W38549  12.257  26.659   2.832
74991W        W38550   4.747  14.306   0.846
74992W        W38551  17.208  12.257   0.468
74993W        W38552  43.340   1.394   3.226
74994W        W38553  28.030  22.652  12.346
74995W        W38554  22.128  30.955  11.493
74996W        W38555   7.907  33.576  11.013
74997W        W38556  13.760  22.689  11.092
74998W        W38557  11.657  23.048   3.236
74999W        W38558  30.430  32.593  14.416
75000W        W38559  32.925  27.063   0.918
75001W        W38560   5.220  35.361  13.907
75002W        W38561  23.734  36.424   4.702
75003W        W38562  23.498   9.183   0.968
75004W        W38563   8.285  11.753  11.461
75005W        W38564   4.424   0.967   3.247
75006W        W38565  30.577  39.359  13.917
75007W        W38566  32.965  12.331   2.290
75008W        W38567  10.155   2.400   0.798
75009W        W38568  44.886  26.599   1.884
75010W        W38569  41.978  13.105   3.718
75011W        W38570   4.235  36.578   1.210
75012W        W38571  30.949  15.294  13.009
75013W        W38572  11.144  31.086   3.685
75014W        W38573  12.757   1.795  13.812
75015W        W38574  37.887  42.923   3.384
75016W        W38575  43.498  20.559   1.710
75017W        W38576   4.260  12.212  13.892
75018W        W38577  27.084   1.947  12.021
75019W        W38578  44.447   5.735   1.755
75020W        W38579  38.423  21.755   2.276
75021W        W38580   6.363  31.965  10.556
75022W        W38581   9.299  21.524   4.194
75023W        W38582  29.461  23.086   1.876
75024W        W38583  15.641  30.960  11.102
75025W        W38584  24.488   5.319   1.703
75026W        W38585  20.652  29.492   3.206
75027W        W38586   1.256  40.478  10.901
75028W        W38587   1.953  34.468   4.229
75029W        W38588  28.094  15.785   1.424
75030W        W38589  42.392   6.841   3.727
75031W        W38590  12.715  20.144   1.353
75032W        W38591   9.664   3.374  14.894
75033W        W38592  30.425  32.529  12.580
75034W        W38593  10.725   6.690  13.828
75035W        W38594  26.483  34.909   3.323
75036W        W38595  33.419   2.246   2.213
75037W        W38596  14.257  29.435  12.391
75038W        W38597   5.318  16.192  10.433
75039W        W38598  23.666  29.501   9.954
75040W        W38599  38.433  17.070   0.948
75041W        W38600  36.084   5.313  11.967
75042W        W38601   8.684  19.672   4.124
75043W        W38602  13.668  40.482   4.139
75044W        W38603   9.301  43.449   2.411
75045W        W38604   5.880  15.818  10.585
75046W        W38605  13.268  11.221  14.979
75047W        W38606  43.911  15.146   1.392
75048W        W38607   4.784  37.067  14.334
75049W        W38608   1.954  32.527  12.537
75050W        W38609  27.038   2.887   1.854
75051W        W38610  28.547  10.262   1.341
75052W        W38611   2.849   1.770  12.860
75053W        W38612  14.664  13.697   4.355
75054W        W38613  32.519  16.127  14.904
75055W        W38614  22.129  13.278  13.394
75056W        W38615  40.880  35.056  10.441
75057W        W38616  41.440  26.581  11.014
75058W        W38617  40.375  31.558  12.837
75059W        W38618   3.728   3.439  11.912
75060W        W38619  30.085  28.153   0.801
75061W        W38620  28.627  36.585   0.288
75062W        W38621  22.114  28.559   2.288
75063W        W38622  20.079   6.687  11.560
75064W        W38623  15.703  23.579  14.933
75065W        W38624  14.676  36.017  11.551
75066W        W38625  30.600   1.300  11.861
75067W        W38626  12.143  27.685  11.497
75068W        W38627  41.969   8.778   4.743
75069W        W38628  18.279  34.451  14.379
75070W        W38629  16.258  35.924  14.317
75071W        W38630  20.169  12.855   1.838
75072W        W38631  31.000  18.661   1.763
75073W        W38632  33.897  40.845   3.321
75074W        W38633  17.163   5.812   2.226
75075W        W38634  17.210   7.343  11.073
75076W        W38635  32.499  17.670   4.598
75077W        W38636  33.388  31.628   0.827
75078W        W38637  30.054  39.005   1.280
75079W        W38638  19.746  44.780  12.967
75080W        W38639  19.249  35.521  13.377
75081W        W38640   8.166  24.120   4.811
75082W        W38641  23.236  18.643  14.298
75083W        W38642  34.892  31.985  14.868
75084W        W38643  10.305  26.163   0.334
75085W        W38644  38.468   3.742  11.858
75086W        W38645  30.955  11.621  12.391
75087W        W38646   4.214  30.533  12.441
75088W        W38647  32.916  38.389   9.998
75089W        W38648  38.554  25.190   3.315
75090W        W38649   5.302  42.843  12.996
75091W        W38650  38.023  19.265  10.475
75092W        W38651  39.399   0.412   4.136
75093W        W38652   1.409  31.473  11.453
75094W        W38653  34.061  18.261  13.346
75095W        W38654  16.202   2.357   4.701
75096W        W38655  43.945  36.045   3.376
75097W        W38656  43.844  10.799  13.819
75098W        W38657   6.704  29.650  13.969
75099W        W38658  13.241  17.632   2.877
75100W        W38659  10.669   8.168   3.184
75101W        W38660   4.357  21.133  11.424
75102W        W38661   4.854  34.033  10.146
75103W        W38662  42.989  36.976  10.984
75104W        W38663  38.427  19.230  10.920
75105W        W38664  10.662  34.094   4.248
75106W        W38665   2.893  24.566  12.898
75107W        W38666  34.375   0.396  12.466
75108W        W38667   5.864  35.004   2.371
75109W        W38668  25.144   0.989   1.418
75110W        W38669   8.793  33.962   0.432
75111W        W38670  26.994  42.434   1.395
75112W        W38671   8.687  28.488  14.942
75113W        W38672  30.619  34.951   4.744
75114W        W38673   9.199  13.349  13.465
75115W        W38674  22.047  27.487  10.441
75116W        W38675  41.400  10.684   3.182
75117W        W38676   0.480  42.842  14.941
75118W        W38677  10.240  39.951  11.459
75119W        W38678  25.170  41.044   3.263
75120W        W38679  21.044  30.454  11.104
75121W        W38680  26.481  11.651  10.453
75122W        W38681  28.518  29.168  12.017
75123W        W38682  31.434  16.315   1.421
75124W        W38683  37.450  33.943   3.811
75125W        W38684  18.127   1.258   2.879
75126W        W38685  36.964   5.918  13.052
75127W        W38686  16.569  27.482   4.166
75128W        W38687  16.168   8.204   1.730
75129W        W38688  44.774  12.676  10.492
75130W        W38689  40.822  13.655   4.241
75131W        W38690  31.962  24.698  13.034
75132W        W38691  30.445  29.670   4.837
75133W        W38692  33.060  40.455  14.830
75134W        W38693  14.202   5.340  13.030
75135W        W38694   5.693  40.350   3.333
75136W        W38695  33.553  26.124   3.313
75137W        W38696   0.859  37.070   2.680
75138W        W38697  20.157  22.134   1.913
75139W        W38698  37.833  22.639  13.006
75140W        W38699  14.281   5.816   0.331
75141W        W38700  42.984  30.657   2.252
75142W        W38701  19.692  28.042   4.694
75143W        W38702  32.597  29.595   2.828
75144W        W38703  40.869  11.360  13.881
75145W        W38704   8.396  42.503  14.376
75146W        W38705  18.728  15.659  13.063
75147W        W38706  43.280  12.292  11.372
75148W        W38707  36.571  40.842   2.319
75149W        W38708  37.460   8.299   4.187
75150W        W38709  14.653  12.655  13.844
75151W        W38710   2.885  25.560  10.549
75152W        W38711  43.875  12.620   2.246
75153W        W38712  18.759  34.863   2.194
75154W        W38713  22.555  33.594   9.979
75155W        W38714   3.297  23.608  10.594
75156W        W38715   7.231  31.547   1.717
75157W        W38716  18.661  44.900  10.449
75158W        W38717  14.804  42.372  14.287
75159W        W38718   9.274  41.418   0.883
75160W        W38719  20.243  10.708  11.985
75161W        W38720  11.356  15.795  13.030
75162W        W38721  39.938  27.588  11.047
75163W        W38722  35.370  32.608   3.197
75164W        W38723  26.578  26.159  11.600
75165W        W38724  16.160  30.918  14.456
75166W        W38725   7.302  21.098  12.948
75167W        W38726  41.961  34.977  13.502
75168W        W38727  21.036  12.846  13.308
75169W        W38728  10.258  27.610   2.806
75170W        W38729  12.357  42.992   0.456
75171W        W38730  17.138  11.283   4.260
75172W        W38731  30.077  14.621  12.905
75173W        W38732  27.615   5.907  13.375
75174W        W38733  35.469  20.623   2.863
75175W        W38734  39.031  25.614  11.466
75176W        W38735  34.583   6.394   1.769
75177W        W38736  44.308  12.827  13.447
75178W        W38737  27.546   9.671   4.126
75179W        W38738  41.910  24.584   3.746
75180W        W38739   8.749  25.082  13.933
75181W        W38740  36.069  35.056   2.790
75182W        W38741  32.087   5.860  12.477
75183W        W38742  27.990  13.338   2.771
75184W        W38743  14.831  26.567   0.839
75185W        W38744  37.084  24.000   1.259
75186W        W38745  31.593   9.201  11.877
75187W        W38746  20.702  37.898  10.477
75188W        W38747   9.724  26.197  13.020
75189W        W38748  13.280  19.123  13.320
75190W        W38749  20.625  33.981  13.835
75191W        W38750  18.757  12.289  10.954
75192W        W38751   7.414   2.368  14.849
75193W        W38752   0.432  31.491   3.809
75194W        W38753  18.559  10.295   0.371
75195W        W38754   5.419   3.793  10.635
75196W        W38755   8.404   3.926   4.262
75197W        W38756   6.724   0.478   4.778
75198W        W38757  37.838  31.947   0.891
75199W        W38758  12.745   1.879  11.492
75200W        W38759  44.914  19.613  12.545
75201W        W38760   9.752  27.970  10.624
75202W        W38761  18.780  23.056   0.370
75203W        W38762  44.274  25.023   1.899
75204W        W38763  19.234  30.501  14.895
75205W        W38764   8.300  35.883  14.991
75206W        W38765   1.470  33.584   4.730
75207W        W38766  27.462   2.952  13.482
75208W        W38767  27.058   5.407   1.255
75209W        W38768  35.995  19.545  14.433
75210W        W38769  15.649  17.698  12.091
75211W        W38770  26.966  32.025  11.938
75212W        W38771  41.957  30.491   1.744
75213W        W38772   4.299   1.898  12.388
75214W        W38773  26.156   2.758   3.853
75215W        W38774   0.422   6.328   0.915
75216W        W38775   8.209  32.127   0.884
75217W        W38776   8.714  44.466   0.846
75218W        W38777  35.072  34.072   2.799
75219W        W38778  44.399  29.572  14.852
75220W        W38779   0.449  20.566   3.349
75221W        W38780  22.590  32.481  14.934
75222W        W38781  25.713  36.468  14.316
75223W        W38782  44.985  24.145  11.974
75224W        W38783  33.046  22.699   2.205
75225W        W38784  38.857  30.050   3.269
75226W        W38785  20.656  25.175   1.934
75227W        W38786  10.223  19.732  14.448
75228W        W38787  15.157  37.931   3.828
75229W        W38788  36.579  26.104   1.835
75230W        W38789  35.971  11.310  14.968
75231W        W38790   8.816  38.451   1.260
75232W        W38791  14.752  11.227  14.351
75233W        W38792  20.765  33.544  11.111
75234W        W38793   3.887  35.106   3.234
75235W        W38794  21.209  26.088  12.026
75236W        W38795   9.839  29.935   0.734
75237W        W38796  34.979  40.003   0.752
75238W        W38797  28.166  25.550  11.057
75239W        W38798  39.439   4.891   0.480
75240W        W38799  21.544  19.553  14.816
75241W        W38800  31.094  11.833   2.834
75242W        W38801   5.744   8.706  14.923
75243W        W38802  16.226  34.033   3.160
75244W        W38803  20.712  30.463   2.357
75245W        W38804  17.777  38.542   1.314
75246W        W38805  43.880  41.899   3.804
75247W        W38806   1.318  42.478   0.765
75248W        W38807   8.220  32.918   3.852
75249W        W38808  31.037  16.763  11.895
75250W        W38809  14.317  27.003   4.636
75251W        W38810  22.717  24.088  12.425
75252W        W38811  26.605  32.536  14.880
75253W        W38812   4.235  16.794   0.338
75254W        W38813   3.805  21.019   4.741
75255W        W38814  32.120  42.870   1.287
75256W        W38815  38.355  23.161  10.636
75257W        W38816  32.891  11.744  11.411
75258W        W38817   1.868  42.416  13.307
75259W        W38818  19.593  32.404  12.989
75260W        W38819  43.952  32.112  10.923
75261W        W38820  16.313  38.468   4.766
75262W        W38821  26.694  20.600   1.376
75263W        W38822  35.972  19.156  13.923
75264W        W38823  11.762  36.893   5.261
75265W        W38824  40.842  14.772  13.389
75266W        W38825  30.465  40.358   0.316
75267W        W38826   6.796  12.307  12.870
75268W        W38827  13.612   2.462  13.313
75269W        W38828  42.316  18.116   2.416
75270W        W38829  27.468  30.119   0.935
75271W        W38830  11.636  21.514  12.929
75272W        W38831  21.515  13.764  10.524
75273W        W38832  28.016  11.743  13.470
75274W        W38833   8.276  19.650   0.334
75275W        W38834  31.904  12.137   1.808
75276W        W38835  21.758  12.682  13.960
75277W        W38836  32.975  26.090  14.759
75278W        W38837  28.064  43.780   2.752
75279W        W38838  36.481  14.254   1.318
75280W        W38839  12.166  36.459  12.361
75281W        W38840  38.364  24.974  10.592
75282W        W38841  36.556   6.416  10.466
75283W        W38842  31.069   0.763   0.324
75284W        W38843  12.651   6.724   4.811
75285W        W38844  21.696   2.878   0.365
75286W        W38845  12.298  33.541   0.274
75287W        W38846  28.950  40.359  12.574
75288W        W38847   7.377  22.144   0.462
75289W        W38848  32.101  35.363   0.469
75290W        W38849  32.915  16.255  10.985
75291W        W38850  26.161  32.032   0.960
75292W        W38851  36.090  34.473  13.955
75293W        W38852  33.019  19.133   1.239
75294W        W38853   1.924  25.579   4.292
75295W        W38854  13.314  35.105   4.145
75296W        W38855   2.375  16.737  14.441
75297W        W38856   3.312  19.549  13.433
75298W        W38857  21.125   0.743   3.165
75299W        W38858  28.013  15.249   1.889
75300W        W38859  30.068  22.725   4.189
75301W        W38860   7.863  35.575  11.603
75302W        W38861   1.851  21.546  10.983
75303W        W38862  39.514  37.380   0.302
75304W        W38863  15.582  40.990  13.808
75305W        W38864  31.912  10.857  10.996
75306W        W38865  26.138   2.950   1.854
75307W        W38866  13.263  14.677  11.502
75308W        W38867  17.235   5.899   2.830
75309W        W38868   9.178  23.697  10.946
75310W        W38869   8.321  32.989  13.988
75311W        W38870  30.133   7.327  12.481
75312W        W38871   3.241  11.312   0.885
75313W        W38872  18.653  22.077   1.263
75314W        W38873  30.950  11.681   1.326
75315W        W38874  44.957  37.035  11.566
75316W        W38875   3.731  42.383  12.960
75317W        W38876  33.494  15.652  13.312
75318W        W38877  24.596   4.820  11.996
75319W        W38878  11.142  12.689  13.486
75320W        W38879  11.680  13.188  14.777
75321W        W38880  23.157   5.714  12.898
75322W        W38881  23.226  22.660  13.422
75323W        W38882  16.169  27.568   1.802
75324W        W38883  11.816  36.440   3.768
75325W        W38884  43.782   4.330  14.009
75326W        W38885  11.370  32.627  13.939
75327W        W38886  42.325   8.332   0.419
75328W        W38887  11.175  18.291  14.782
75329W        W38888  26.109  26.510  12.869
75330W        W38889  29.475  11.651  10.967
75331W        W38890  20.663  31.959   4.627
75332W        W38891   0.976   6.677  14.392
75333W        W38892  11.765  27.018  12.911
75334W        W38893  13.240  44.309  11.079
75335W        W38894   7.718  42.342   0.839
75336W        W38895   1.800   3.459  11.942
75337W        W38896  30.101  26.986   0.264
75338W        W38897   0.921  25.565   1.699
75339W        W38898   0.834  32.909   4.158
75340W        W38899  13.691   4.237   0.428
75341W        W38900  13.724  28.129   4.641
75342W        W38901  36.552   6.205   2.737
75343W        W38902  33.882  26.619   3.773
75344W        W38903   6.862  30.507  10.904
75345W        W38904  30.133  38.392  10.549
75346W        W38905  27.993   4.914  11.529
75347W        W38906  30.145  18.636   0.372
75348W        W38907  18.606  38.986   2.681
75349W        W38908  28.104  19.703   4.670
75350W        W38909   7.877  38.911   4.123
75351W        W38910  22.711   0.340  10.958
75352W        W38911  40.312  40.542  12.865
75353W        W38912  39.984  22.145   4.304
75354W        W38913  38.525  44.261   3.685
75355W        W38914   8.288  36.474  13.807
75356W        W38915  42.505  23.032  10.430
75357W        W38916  17.558  26.557   4.678
75358W        W38917  38.491  27.597   3.336
75359W        W38918  29.465  15.209  14.516
75360W        W38919   4.315  13.782  13.344
75361W        W38920  35.103  28.124   0.395
75362W        W38921   1.791   8.857   3.156
75363W        W38922  44.855  13.198  11.113
75364W        W38923   4.326   2.793  13.510
75365W        W38924   3.396   0.415  13.960
75366W        W38925  19.077  12.679  14.794
75367W        W38926   4.751  36.547  12.061
75368W        W38927  42.455  18.766  12.016
75369W        W38928   5.285  21.626   3.220
75370W        W38929   7.754  21.171   9.920
75371W        W38930  35.588   5.743  14.402
75372W        W38931  33.044  10.323   0.743
75373W        W38932  13.254  29.105   3.374
75374W        W38933  12.733  43.391   4.671
75375W        W38934  41.513  26.990  11.979
75376W        W38935  16.569  34.971   3.848
75377W        W38936  24.083   0.364   1.873
75378W        W38937  18.660  19.625   2.344
75379W        W38938  28.178  28.644   0.370
75380W        W38939  35.447  32.522  11.976
75381W        W38940  37.559  31.083  12.906
75382W        W38941  28.062  15.098   3.659
75383W        W38942  37.997  24.529   3.815
75384W        W38943   0.852   3.778   2.274
75385W        W38944  14.208  13.633   0.261
75386W        W38945  35.517  19.225  14.337
75387W        W38946  25.623   6.749   4.782
75388W        W38947  33.577  19.546   1.905
75389W        W38948  25.053  44.903  13.458
75390W        W38949  38.934  26.574   1.861
75391W        W38950  16.723   3.449  11.953
75392W        W38951  24.194  37.572  10.469
75393W        W38952  39.420  15.663   3.753
75394W        W38953   3.760   8.863   3.249
75395W        W38954   0.309  43.969   4.777
75396W        W38955   2.409  29.482   3.687
75397W        W38956   0.928   3.449   1.403
75398W        W38957   7.274  15.699   5.181
75399W        W38958  14.126  33.120  12.400
75400W        W38959  29.483  33.380  13.063
75401W        W38960  28.181   0.948  12.995
75402W        W38961  16.204  42.022   3.321
75403W        W38962  15.126  20.166  11.969
75404W        W38963  39.918  13.678   0.880
75405W        W38964  35.892  28.474  13.492
75406W        W38965  20.274  43.338  12.461
75407W        W38966  26.175  44.933  13.357
75408W        W38967  27.159   9.754   4.300
75409W        W38968   7.373   3.717  11.433
75410W        W38969  44.318  26.496  13.795
75411W        W38970  31.608  35.038  12.495
75412W        W38971  21.670  34.973   3.820
75413W        W38972  10.707  29.545   2.225
75414W        W38973  10.300  32.080   1.785
75415W        W38974   2.421   9.367   1.763
75416W        W38975  21.711  31.062   0.866
75417W        W38976  44.288   5.716   0.877
75418W        W38977  26.023  36.392  14.511
75419W        W38978  33.899  39.937   0.338
75420W        W38979  30.074  34.570  14.976
75421W        W38980  24.068  31.471  12.960
75422W        W38981  17.586  12.617  14.798
75423W        W38982  26.576  10.259  11.916
75424W        W38983  30.650  38.478   0.295
75425W        W38984   7.327  24.175  12.854
75426W        W38985   2.458  24.122  10.588
75427W        W38986  37.923  31.988   2.292
75428W        W38987  12.732  31.121  12.909
75429W        W38988   9.822  13.756   4.184
75430W        W38989  26.996  16.608   3.646
75431W        W38990   1.417   0.973  14.895
75432W        W38991   1.851   3.417  12.523
75433W        W38992  17.261   5.275   2.286
75434W        W38993  21.596   7.857  10.925
75435W        W38994  36.093  12.669  10.433
75436W        W38995  29.078  30.942  11.911
75437W        W38996   9.371  31.628   0.336
75438W        W38997  16.083  20.522  11.950
75439W        W38998  38.820  27.478   2.755
75440W        W38999   3.852  25.630  12.579
75441W        W39000   8.203   4.324   1.750
75442W        W39001  31.434   7.179   3.284
75443W        W39002   8.333  17.693  11.537
75444W        W39003   4.340  34.995   3.797
75445W        W39004  34.906  34.548  12.532
75446W        W39005  40.874  32.472  10.462
75447W        W39006  16.105  15.756   3.177
75448W        W39007   7.742  28.966  10.597
75449W        W39008  40.010  26.585  10.416
75450W        W39009  25.147   0.335   3.833
75451W        W39010  31.937   3.439   0.330
75452W        W39011  43.991   5.311  10.942
75453W        W39012  30.490  33.884   0.250
75454W        W39013  37.977   6.247   4.730
75455W        W39014  16.784  17.583  14.942
75456W        W39015  38.361  29.999   2.208
75457W        W39016  20.672  44.393  14.814
75458W        W39017  14.110  36.850  12.485
75459W        W39018  35.035  12.783   3.808
75460W        W39019   7.239  40.822  10.897
75461W        W39020  44.786  39.429   1.907
75462W        W39021   7.257  14.769   5.224
75463W        W39022  21.591  42.839   3.173
75464W        W39023  27.542  32.620  13.361
75465W        W39024   1.880  26.476   2.729
75466W        W39025  41.037   8.701  12.558
75467W        W39026   2.909   5.413  13.030
75468W        W39027  29.054  15.167  10.644
75469W        W39028  22.051  11.726  14.019
75470W        W39029  27.578   8.788  12.886
75471W        W39030   3.773   3.797   2.669
75472W        W39031  31.554  35.468  12.393
75473W        W39032  41.394  19.263   4.197
75474W        W39033  21.579  36.416  11.412
75475W        W39034  33.407   2.934  11.481
75476W        W39035  32.447  16.707   0.849
75477W        W39036   2.872  39.435  11.600
75478W        W39037  40.389  29.441   1.343
75479W        W39038  30.983  39.041   3.229
75480W        W39039  35.918  31.602  12.568
75481W        W39040  11.320  25.058   3.742
75482W        W39041  37.898   8.236   0.378
75483W        W39042   2.244   5.392   3.729
75484W        W39043  33.584   4.735  10.898
75485W        W39044  18.217   7.715   2.832
75486W        W39045   2.398   5.224   4.836
75487W        W39046  42.314   4.919  13.325
75488W        W39047  26.053  20.229   0.939
75489W        W39048  41.464  44.894   3.691
75490W        W39049  38.378  19.093  11.386
75491W        W39050  24.995  40.412   2.214
75492W        W39051  17.587   7.184   4.211
75493W        W39052   7.398  29.497  11.568
75494W        W39053  12.206  31.615  14.397
75495W        W39054  21.569  18.560   4.762
75496W        W39055  33.963   8.399  12.836
75497W        W39056   9.732   6.710  10.920
75498W        W39057  33.509   2.429  12.830
75499W        W39058  26.602  34.470   2.196
75500W        W39059  13.648  23.142   3.664
75501W        W39060  11.324  13.337  14.384
75502W        W39061  14.184  10.727   2.764
75503W        W39062  43.329  29.990   3.672
75504W        W39063  27.470  40.417  11.384
75505W        W39064   9.255  22.063   1.390
75506W        W39065  36.096  11.767  12.830
75507W        W39066  33.940  42.777  14.291
75508W        W39067   5.885  11.861   0.880
75509W        W39068  25.622  26.066   1.340
75510W        W39069  11.143  26.694  11.101
75511W        W39070   6.684  28.658  13.044
75512W        W39071  24.578   7.696  12.859
75513W        W39072  19.148  31.926  13.793
75514W        W39073   5.865  22.658   1.752
75515W        W39074  33.904  25.534   1.314
75516W        W39075  40.475  31.458  14.867
75517W        W39076  18.274  40.329   3.793
75518W        W39077  22.731   3.378   4.179
75519W        W39078   1.387  18.125   3.841
75520W        W39079  15.808  29.127  14.848
75521W        W39080  17.716  25.654  12.976
75522W        W39081  18.274  19.630  13.822
75523W        W39082  32.397  11.776   5.259
75524W        W39083  28.165  28.141  14.448
75525W        W39084  15.786   2.347   0.856
75526W        W39085  41.389   0.769   4.803
75527W        W39086   8.227   4.440  10.417
75528W        W39087   1.804  19.759   3.775
75529W        W39088  26.112   5.888   4.255
75530W        W39089  24.994  33.537   1.817
75531W        W39090  42.295  16.155   0.877
75532W        W39091   1.968  28.536   0.394
75533W        W39092  27.655  12.359   0.363
75534W        W39093   5.750  30.128   4.700
75535W        W39094  33.437  22.094  13.457
75536W        W39095  17.091  35.551   0.890
75537W        W39096  24.600  14.591  11.460
75538W        W39097   4.882   4.347  13.054
75539W        W39098   2.306  31.104   2.416
75540W        W39099  11.232  21.050  14.884
75541W        W39100   6.720  28.037  14.853
75542W        W39101   6.387  42.900   1.294
75543W        W39102  19.143  34.103   4.697
75544W        W39103  15.703   5.379   1.383
75545W        W39104  29.523  21.741   0.936
75546W        W39105  28.054  16.185   4.136
75547W        W39106  37.490   5.269   1.830
75548W        W39107  27.944  18.228   0.899
75549W        W39108  32.408   4.332  10.600
75550W        W39109  10.639   3.854  11.067
75551W        W39110   6.851  30.637  13.400
75552W        W39111  35.920   9.242   3.805
75553W        W39112  38.424  24.161   3.812
75554W        W39113  26.658  34.492  11.419
75555W        W39114  31.444  16.787   4.118
75556W        W39115  27.047  39.876  11.451
75557W        W39116  42.975  13.788  12.997
75558W        W39117   7.353  12.229  12.415
75559W        W39118  44.988  40.539  10.529
75560W        W39119  10.775  17.175   1.916
75561W        W39120   5.236  38.385  11.927
75562W        W39121  27.125  15.628   2.845
75563W        W39122  12.734  27.466   0.736
75564W        W39123  26.051  43.853   4.245
75565W        W39124  14.144  41.918   4.271
75566W        W39125  18.557   3.359  12.544
75567W        W39126  33.600   6.725   1.740
75568W        W39127   1.935   5.254   2.862
75569W        W39128  10.775  43.318   0.901
75570W        W39129   2.466   8.759   2.383
75571W        W39130  17.577  43.357  12.949
75572W        W39131  21.248  31.046   5.225
75573W        W39132   0.343  33.582   3.351
75574W        W39133  28.099   0.948  12.416
75575W        W39134  26.630  44.409   4.631
75576W        W39135   0.323  26.165   3.844
75577W        W39136  31.456  16.647  14.422
75578W        W39137  17.740  22.507  14.800
75579W        W39138  23.734  13.662   0.821
75580W        W39139  41.355   8.257  14.001
75581W        W39140  44.350  15.739  11.480
75582W        W39141  32.065   7.810   0.410
75583W        W39142   0.911  31.987   5.152
75584W        W39143  23.090  37.021  12.567
75585W        W39144  10.302  38.529   1.841
75586W        W39145  34.048   5.411   3.711
75587W        W39146  39.467  13.250   2.297
75588W        W39147  21.622  13.250  13.397
75589W        W39148  43.910  34.438   0.375
75590W        W39149  29.501  36.032  12.406
75591W        W39150  43.414   5.696  10.516
75592W        W39151  11.768  42.360  13.828
75593W        W39152  37.038   8.232   4.699
75594W        W39153  22.735  16.213  10.518
75595W        W39154  12.287  36.485  11.025
75596W        W39155   7.733  18.767   1.364
75597W        W39156  29.669   1.357  11.522
75598W        W39157   3.728  33.908   4.643
75599W        W39158  34.917  30.967   0.400
75600W        W39159  16.623  11.302   1.861
75601W        W39160   9.888  10.863  13.546
75602W        W39161   8.306  14.225   4.679
75603W        W39162   8.836  28.038   1.810
75604W        W39163  38.516  10.760  12.428
75605W        W39164   1.410   1.856   3.329
75606W        W39165  15.818  25.025  10.471
75607W        W39166  31.521   4.401   1.218
75608W        W39167  29.075  27.457  13.509
75609W        W39168  26.084  19.733  12.947
75610W        W39169   0.339  42.290   0.246
75611W        W39170  15.590  17.697   3.729
75612W        W39171   7.188  34.059   1.853
75613W        W39172  26.038  15.299  11.082
75614W        W39173  19.246  14.710   4.339
75615W        W39174  20.103  42.363   3.299
75616W        W39175   6.820   6.283   0.268
75617W        W39176  35.863  14.703   1.757
75618W        W39177  35.095  25.967  14.876
75619W        W39178   9.323  34.991   9.537
75620W        W39179  28.666  21.699  14.999
75621W        W39180  21.256  29.542   2.761
75622W        W39181   7.390   5.315  14.331
75623W        W39182   3.842  18.678  13.937
75624W        W39183  42.883  13.798   4.735
75625W        W39184   8.246  25.031   2.790
75626W        W39185   7.206  15.705   1.756
75627W        W39186   3.264   5.741  11.083
75628W        W39187  10.741  37.073  12.342
75629W        W39188   4.398  33.113  12.028
75630W        W39189   6.890  34.958   2.416
75631W        W39190   3.752  13.745  13.046
75632W        W39191   4.802  12.729  10.459
75633W        W39192  11.240  25.211  11.534
75634W        W39193  29.017  39.334  13.330
75635W        W39194  24.170  20.065   4.620
75636W        W39195  40.991  34.955   0.366
75637W        W39196  29.485  16.295  11.420
75638W        W39197  43.773  42.435   2.892
75639W        W39198  37.950   5.789   2.228
75640W        W39199  14.275  34.030   2.811
75641W        W39200   1.744   9.785  13.051
75642W        W39201  39.058  44.451  11.034
75643W        W39202  10.246  34.609   1.850
75644W        W39203  34.574   7.414  11.967
75645W        W39204   7.838  10.196  11.888
75646W        W39205   7.375  21.556   4.237
75647W        W39206  42.017  43.314   1.758
75648W        W39207  16.104  43.018   4.133
75649W        W39208  16.294  43.926  11.103
75650W        W39209  41.908   1.483  12.369
75651W        W39210   5.909   4.780  12.980
75652W        W39211  37.508   4.339  13.472
75653W        W39212  23.139   0.390  13.828
75654W        W39213  11.715   8.808  13.474
75655W        W39214  20.212  32.934  13.891
75656W        W39215  11.765  32.097   5.306
75657W        W39216  34.528   1.470  14.489
75658W        W39217  32.533  32.956   3.347
75659W        W39218  42.428  38.543  12.895
75660W        W39219  10.771  13.316   2.769
75661W        W39220   5.726  36.908  10.641
75662W        W39221  31.973  10.258   0.878
75663W        W39222  19.672  38.454   4.252
75664W        W39223  39.867  32.933  12.051
75665W        W39224  21.037  30.653   0.340
75666W        W39225  34.982  39.848  14.004
75667W        W39226  16.684  36.553  11.095
75668W        W39227  34.118  41.483  13.411
75669W        W39228  40.971   5.323   3.254
75670W        W39229  41.349  17.264   3.722
75671W        W39230  17.600  10.843  13.791
75672W        W39231  23.531   5.400  14.423
75673W        W39232  27.466   0.378   2.335
75674W        W39233   5.384   8.686   0.790
75675W        W39234   7.353  30.060   4.252
75676W        W39235  33.087   1.847   0.392
75677W        W39236  17.233  26.032   2.876
75678W        W39237  22.081   1.376  12.017
75679W        W39238   5.368   8.254  13.024
75680W        W39239   2.967  19.651  11.093
75681W        W39240   1.257  11.279  12.918
75682W        W39241  17.575  15.301   1.728
75683W        W39242  22.226   9.734   4.794
75684W        W39243  11.631  19.181  14.793
75685W        W39244  14.804  25.124   5.319
75686W        W39245  44.762  37.537  10.593
75687W        W39246  39.438  39.343  14.412
75688W        W39247  44.427  30.429  11.902
75689W        W39248   5.835  40.906  12.897
75690W        W39249  26.167   9.811  14.451
75691W        W39250  25.560  29.169   0.738
75692W        W39251  18.092  34.078   2.903
75693W        W39252  26.147   9.254  10.939
75694W        W39253   1.458  20.204   0.952
75695W        W39254   7.325  37.349   3.740
75696W        W39255  17.564  15.798  13.999
75697W        W39256  12.227  10.835   4.208
75698W        W39257  30.077   7.711  14.944
75699W        W39258  16.570  17.658  13.437
75700W        W39259  40.368  27.133   1.734
75701W        W39260  27.471   8.833  13.936
75702W        W39261  33.016  20.034   1.767
75703W        W39262  40.536  15.780  10.484
75704W        W39263  44.808  32.546   3.857
75705W        W39264   3.370  24.220  10.449
75706W        W39265  22.251  26.091  14.465
75707W        W39266  41.474  11.154  12.053
75708W        W39267  11.851  39.927  11.083
75709W        W39268  25.218  17.078  11.103
75710W        W39269  38.898  36.972   2.898
75711W        W39270  40.534  11.360   3.363
75712W        W39271   6.332  44.814  10.614
75713W        W39272  11.773  28.645  12.958
75714W        W39273  39.925  25.193   4.266
75715W        W39274  26.653  38.938  13.964
75716W        W39275  13.223  13.318  11.098
75717W        W39276  28.566   7.257  10.430
75718W        W39277  10.280   5.866  12.990
75719W        W39278  23.086  43.337  11.946
75720W        W39279  20.048   3.951  11.440
75721W        W39280  33.104  30.466  11.607
75722W        W39281  16.655   9.762   3.688
75723W        W39282  39.951  40.376   1.883
75724W        W39283   6.252   5.692  12.006
75725W        W39284  22.565  10.657  12.540
75726W        W39285  18.759  38.542   0.830
75727W        W39286  13.135  26.147   0.956
75728W        W39287  38.909  25.014   4.244
75729W        W39288  34.491  25.621   0.251
75730W        W39289  39.992   7.200   2.205
75731W        W39290  10.329  40.396   0.736
75732W        W39291   0.886  36.525   1.222
75733W        W39292   0.936  23.082   4.665
75734W        W39293  20.134  14.661  14.323
75735W        W39294  37.876  23.196   2.180
75736W        W39295  32.010   5.410  14.991
75737W        W39296  24.506  29.518  12.434
75738W        W39297  22.706  28.066   2.317
75739W        W39298  43.309  18.291  12.558
75740W        W39299   7.865  39.984  13.451
75741W        W39300   4.337  41.340  14.392
75742W        W39301  19.572  20.603   1.922
75743W        W39302  18.599  36.955   0.866
75744W        W39303   5.273   8.338   0.445
75745W        W39304   2.906  28.996  12.425
75746W        W39305  14.290   9.816  13.920
75747W        W39306  36.079  13.633   0.785
75748W        W39307  44.468  12.738   2.383
75749W        W39308  39.941  29.548   2.309
75750W        W39309  42.887   7.756  13.539
75751W        W39310  39.912  37.070  13.954
75752W        W39311   9.389  27.998   0.937
75753W        W39312  28.665   7.406  11.030
75754W        W39313  25.168  21.663  12.920
75755W        W39314  36.967  41.974   1.886
75756W        W39315   7.717  10.834   2.806
75757W        W39316  30.133  12.622  14.997
75758W        W39317  20.715  33.999   1.701
75759W        W39318  39.980  29.524   0.903
75760W        W39319  28.586   7.758   4.214
75761W        W39320   4.320  40.354   2.903
75762W        W39321  39.411   9.787  12.919
75763W        W39322  15.810   3.447   0.863
75764W        W39323  33.921  29.023  13.024
75765W        W39324  31.608  12.132  14.340
75766W        W39325   5.693  24.601   4.124
75767W        W39326   8.197  17.109   2.386
75768W        W39327  27.986   7.382  12.830
75769W        W39328  14.757   1.354  11.507
75770W        W39329  42.464   2.807  12.443
75771W        W39330  30.064  32.036  10.546
75772W        W39331  31.622  30.981   3.289
75773W        W39332  37.443   1.385  13.484
75774W        W39333  11.706  40.861   3.843
75775W        W39334  16.753  13.612  12.373
75776W        W39335  11.341  23.509   2.687
75777W        W39336  33.609  29.529   0.448
75778W        W39337  18.736  16.772   2.843
75779W        W39338  16.072  39.018   1.738
75780W        W39339  13.346  34.605  11.546
75781W        W39340  26.031  36.887  11.412
75782W        W39341   7.717  27.506   0.315
75783W        W39342  21.517  10.176   4.695
75784W        W39343  21.257  36.433  14.931
75785W        W39344  44.977  34.570  11.940
75786W        W39345  22.514   9.206   3.312
75787W        W39346  28.114  15.120   0.921
75788W        W39347  31.552  19.135  11.420
75789W        W39348  25.089  12.343  13.830
75790W        W39349  12.647  24.992  11.449
75791W        W39350  28.183  35.043   2.802
75792W        W39351  35.365  13.264   9.954
75793W        W39352  25.019  13.790  13.398
75794W        W39353  38.910  34.068  14.826
75795W        W39354  10.817  41.873   1.848
75796W        W39355  39.318  42.858   3.817
75797W        W39356  10.863  16.728   5.662
75798W        W39357  36.065  13.166  13.548
75799W        W39358   5.343  19.117   3.317
75800W        W39359  44.367  28.102   3.326
75801W        W39360  26.494  42.394  12.827
75802W        W39361  25.966   4.331  12.471
75803W        W39362  28.532  41.334  14.806
75804W        W39363  32.127   5.369   1.701
75805W        W39364  19.689  31.989   3.383
75806W        W39365  42.289  30.461   3.870
75807W        W39366   2.736   9.342   4.248
75808W        W39367   8.275  28.038   0.908
75809W        W39368  15.709   6.277  14.482
75810W        W39369  39.384   8.779   3.221
75811W        W39370  21.121   4.341  10.933
75812W        W39371  17.746  12.325   4.796
75813W        W39372   3.432  13.179   2.728
75814W        W39373   9.791   3.741  13.461
75815W        W39374  43.766   4.370   0.371
75816W        W39375  15.093  21.737   3.360
75817W        W39376  43.297  14.286  11.991
75818W        W39377   9.658   9.718  11.982
75819W        W39378   8.866  33.600  11.972
75820W        W39379  20.199  16.258   2.265
75821W        W39380  37.575  23.020  11.600
75822W        W39381  28.128  15.734  13.917
75823W        W39382  41.523  13.651   3.246
75824W        W39383  12.254  40.476  13.919
75825W        W39384   7.403  14.284  14.922
75826W        W39385  28.055  41.320  10.492
75827W        W39386  21.633  28.090  10.532
75828W        W39387   5.764  29.453   1.350
75829W        W39388  10.190  30.085   3.269
75830W        W39389  44.939  15.266  11.609
75831W        W39390   9.358   8.823  12.522
75832W        W39391  40.320  26.087  12.974
75833W        W39392   1.267   0.317  13.384
75834W        W39393  32.140  33.015   4.617
75835W        W39394  13.146  11.771  12.539
75836W        W39395  29.453  11.762  10.411
75837W        W39396  38.014   2.362  12.950
75838W        W39397  26.574  16.129  11.993
75839W        W39398   2.256   3.887   0.448
75840W        W39399  41.890  25.629   2.400
75841W        W39400  11.838  11.237  14.483
75842W        W39401  43.998  10.186   4.347
75843W        W39402  31.943  25.020  14.870
75844W        W39403  42.320  18.773  10.574
75845W        W39404  18.204  32.517   3.295
75846W        W39405  17.686  26.687  10.986
75847W        W39406  37.546  41.800  11.408
75848W        W39407  33.049   0.369  11.569
75849W        W39408  15.807   9.157  11.944
75850W        W39409  25.967  23.495   1.729
75851W        W39410  23.224  36.045  12.462
75852W        W39411  21.196  35.382   0.405
75853W        W39412   9.849  27.051  14.007
75854W        W39413  24.550  20.753   0.377
75855W        W39414  37.978  40.495  13.419
75856W        W39415  23.519  26.621   3.240
75857W        W39416  29.512  22.085   1.338
75858W        W39417  37.025  21.714  14.466
75859W        W39418  26.484  38.897   3.231
75860W        W39419   0.951   3.375  10.147
75861W        W39420  24.004  26.524  10.154
75862W        W39421  40.030   5.266  12.048
75863W        W39422  22.166   7.791  11.125
75864W        W39423  13.244  39.860   4.748
75865W        W39424  19.608  10.727   2.225
75866W        W39425   8.832  38.919   1.729
75867W        W39426  44.352  17.656  11.417
75868W        W39427  20.099   3.355  13.943
75869W        W39428  18.672  36.901   4.317
75870W        W39429  12.265  39.402  10.462
75871W        W39430  23.225  31.597   0.352
75872W        W39431  19.045   7.711   4.745
75873W        W39432  24.196  37.547  13.461
75874W        W39433  32.973   7.250   3.162
75875W        W39434  14.162  21.104   4.330
75876W        W39435  35.588  24.025   0.880
75877W        W39436   0.376   2.753  12.873
75878W        W39437  26.597  11.819   3.223
75879W        W39438  34.589  26.102   3.306
75880W        W39439  17.690  35.388   2.270
75881W        W39440  44.503  42.316   2.720
75882W        W39441  32.600  30.043   4.254
75883W        W39442  44.851  15.740   0.472
75884W        W39443  10.652  34.414   2.256
75885W        W39444  14.598  39.833   2.266
75886W        W39445   6.861  27.019   0.384
75887W        W39446  33.056  22.029  10.405
75888W        W39447  34.896  37.430   3.172
75889W        W39448   1.887  20.638  10.475
75890W        W39449  34.971  11.629  14.881
75891W        W39450   1.777   5.277  14.841
75892W        W39451  17.585  31.964  10.542
75893W        W39452   9.201  28.667  10.407
75894W        W39453  27.564  10.759   1.857
75895W        W39454   7.405  37.877  13.976
75896W        W39455  25.073  24.082  13.024
75897W        W39456  17.730   1.433  12.934
75898W        W39457  32.514   2.833  10.408
75899W        W39458  23.169   2.354  12.538
75900W        W39459  12.614  27.653  12.559
75901W        W39460  40.898  13.605  10.589
75902W        W39461  37.019  10.769   4.139
75903W        W39462  25.591  41.798  11.108
75904W        W39463   3.363   8.900   4.145
75905W        W39464  27.105  16.225  13.003
75906W        W39465  32.401  27.090  13.991
75907W        W39466  33.986  27.073  11.373
75908W        W39467  10.637  20.645   0.965
75909W        W39468  35.866  44.292  13.856
75910W        W39469  22.693  39.019  14.312
75911W        W39470  44.887  38.932  10.535
75912W        W39471  32.523  19.719   5.154
75913W        W39472   9.710   5.299  13.856
75914W        W39473  19.741  18.545  13.826
75915W        W39474  29.040  39.922   2.284
75916W        W39475  27.977  35.498  11.372
75917W        W39476  39.058  25.040  13.838
75918W        W39477   5.395  21.695   0.448
75919W        W39478  11.743  16.107   1.912
75920W        W39479  15.666  34.371   4.272
75921W        W39480  26.481  40.417   1.888
75922W        W39481  40.849   0.361   2.745
75923W        W39482  15.738  36.391   1.713
75924W        W39483   4.323  15.635   3.658
75925W        W39484   6.224  16.641   3.773
75926W        W39485  35.542   5.422  14.316
75927W        W39486  36.588  37.863  12.059
75928W        W39487  43.875  16.103  10.484
75929W        W39488  29.925  32.046  14.318
75930W        W39489  15.697  12.290   0.262
75931W        W39490  40.336  34.035  13.464
75932W        W39491  16.757   1.762  11.941
75933W        W39492  23.100  33.468  11.388
75934W        W39493  30.039  21.525   3.182
75935W        W39494  16.256  15.264  12.537
75936W        W39495  21.147  21.566   0.753
75937W        W39496  27.079  35.915   2.691
75938W        W39497  43.319  34.390   4.705
75939W        W39498  22.630   4.342  11.445
75940W        W39499   5.866  32.599   4.278
75941W        W39500  35.378  26.511   4.710
75942W        W39501   5.278   6.356  11.434
75943W        W39502  22.649  34.996  11.506
75944W        W39503  36.397  18.771   2.898
75945W        W39504  22.504  12.205   3.682
75946W        W39505  17.683  34.483  11.487
75947W        W39506   2.379  10.223  14.293
75948W        W39507  15.681  32.940   1.279
75949W        W39508  44.823  13.185  11.873
75950W        W39509   4.887  30.598  12.954
75951W        W39510  30.637   4.319  13.429
75952W        W39511  40.394  18.206  12.873
75953W        W39512   8.685  41.843  12.873
75954W        W39513  43.894  20.719  12.365
75955W        W39514  19.083  32.531   1.217
75956W        W39515  12.325  44.773  14.023
75957W        W39516   6.907  20.676   0.403
75958W        W39517   3.384  16.080   1.246
75959W        W39518   2.883  29.449   1.336
75960W        W39519  42.392   5.365   4.330
75961W        W39520  33.608  10.655  10.126
75962W        W39521   0.284  19.592   4.628
75963W        W39522  16.636  24.021   0.354
75964W        W39523  38.058  37.964   3.781
75965W        W39524  16.570  39.449  12.546
75966W        W39525  26.673  37.921  14.891
75967W        W39526  25.613  27.132   0.427
75968W        W39527  30.618  42.290   0.474
75969W        W39528  21.644  29.164  11.376
75970W        W39529  22.185   6.858  14.423
75971W        W39530  21.082   3.735  11.401
75972W        W39531  39.040  41.438  11.479
75973W        W39532  39.991  16.781  11.450
75974W        W39533  34.507   0.984   1.763
75975W        W39534  24.088  43.990  13.496
75976W        W39535  38.466  10.668  10.624
75977W        W39536  13.284  11.742  14.824
75978W        W39537  11.810  20.569  11.543
75979W        W39538   0.927  18.246   1.847
75980W        W39539  38.504   5.303   4.212
75981W        W39540  39.361  32.445   4.133
75982W        W39541  25.652  31.436   2.315
75983W        W39542  39.393  19.223  13.479
75984W        W39543  19.231  18.215  13.310
75985W        W39544  26.002   8.389  10.520
75986W        W39545  25.194   7.760  11.906
75987W        W39546   1.936  37.054   2.296
75988W        W39547  10.788  36.875   4.706
75989W        W39548  11.318  19.561  12.842
75990W        W39549  43.296  33.911  14.407
75991W        W39550  32.090   5.285  13.841
75992W        W39551   7.886  36.366  14.327
75993W        W39552  38.410  20.690  10.483
75994W        W39553   3.788  36.938  14.894
75995W        W39554  14.165  44.365   1.340
75996W        W39555  43.928  10.309   2.697
75997W        W39556  17.695   9.270  12.953
75998W        W39557  32.091  34.086  13.355
75999W        W39558  12.135  20.751  12.890
76000W        W39559  29.085  16.161   1.917
76001W        W39560  36.039  18.546  14.474
76002W        W39561  24.183  31.972   1.869
76003W        W39562  21.641   9.741  10.589
76004W        W39563  36.994  37.382  12.967
76005W        W39564  11.290  41.358  12.955
76006W        W39565  34.010  15.266  14.913
76007W        W39566   7.898   5.309   4.256
76008W        W39567  37.499  28.179  11.425
76009W        W39568   2.762   6.334   1.752
76010W        W39569  33.026  32.924  12.835
76011W        W39570   3.735  43.334  11.980
76012W        W39571  43.396   8.166   4.707
76013W        W39572  37.467   4.225  13.970
76014W        W39573  44.386  41.928   0.761
76015W        W39574   0.355   8.775  14.875
76016W        W39575  37.377   2.451  11.003
76017W        W39576  18.136   9.334   0.289
76018W        W39577  20.739   3.827  12.406
76019W        W39578   8.392   9.378   1.420
76020W        W39579  42.845  10.713  13.015
76021W        W39580  32.548  23.209   3.754
76022W        W39581  35.001  30.912  12.457
76023W        W39582  21.243   2.250   4.148
76024W        W39583  31.408  43.276  13.901
76025W        W39584  17.774   3.436   2.858
76026W        W39585   1.851  19.192  11.424
76027W        W39586   2.739  31.447  11.608
76028W        W39587  20.086   6.868   3.150
76029W        W39588  44.863   9.291  14.028
76030W        W39589  21.235  20.626   2.798
76031W        W39590  37.967  35.479   1.838
76032W        W39591  36.581  34.611  14.469
76033W        W39592  36.853   7.363  11.885
76034W        W39593  44.259  39.523   1.703
76035W        W39594  23.013  11.780   9.988
76036W        W39595   3.846   4.874   3.834
76037W        W39596   8.249   3.285  12.448
76038W        W39597  20.672  41.906  14.013
76039W        W39598   7.351  17.195   0.313
76040W        W39599   3.222  34.390   4.676
76041W        W39600  21.543  33.887   0.361
76042W        W39601  30.114  41.393  11.090
76043W        W39602  28.099  38.897  10.901
76044W        W39603  35.365  24.027  13.801
76045W        W39604  18.074   6.317   0.798
76046W        W39605  40.048  37.469   3.265
76047W        W39606  32.449  33.443   3.662
76048W        W39607  28.946  43.419  13.334
76049W        W39608  29.638   3.938   3.331
76050W        W39609   8.385   5.225   2.675
76051W        W39610  12.153  16.762  10.980
76052W        W39611  11.272  19.614  13.403
76053W        W39612  41.456  39.874   1.915
76054W        W39613   0.863  29.661  12.498
76055W        W39614  25.621  27.606  12.013
76056W        W39615   4.764  43.347  11.464
76057W        W39616   4.212  44.916  14.766
76058W        W39617  28.648  23.532   3.245
76059W        W39618  13.208   0.796   4.779
76060W        W39619  31.067  27.459  12.418
76061W        W39620   3.405  29.003   2.835
76062W        W39621  16.706  14.189  10.546
76063W        W39622  33.970  11.142   1.759
76064W        W39623  12.741  34.609  13.835
76065W        W39624  12.213   5.752  14.892
76066W        W39625  13.786  32.973   4.155
76067W        W39626  28.528   8.869   4.344
76068W        W39627   6.426  37.849   2.698
76069W        W39628  24.063   2.347  12.571
76070W        W39629   7.327  32.056  12.093
76071W        W39630   3.906  37.922  14.459
76072W        W39631  29.144  18.756   1.732
76073W        W39632   6.691  21.213   0.927
76074W        W39633  34.428  38.846   3.305
76075W        W39634  20.194   4.219   1.727
76076W        W39635  41.911   5.435   1.749
76077W        W39636  15.600  30.593   9.979
76078W        W39637  15.645   6.258   0.825
76079W        W39638   0.371   1.819   3.765
76080W        W39639  39.491  40.381   1.370
76081W        W39640  21.159  16.609  14.925
76082W        W39641  34.965  30.569   0.294
76083W        W39642  21.117  38.376   2.407
76084W        W39643   2.918   6.386   3.279
76085W        W39644  19.627  26.495  10.540
76086W        W39645  33.942   9.870  12.418
76087W        W39646   4.783  40.426   2.194
76088W        W39647  34.978  33.945   0.826
76089W        W39648  35.478  21.611   4.726
76090W        W39649  42.987  34.383   4.660
76091W        W39650  34.502  15.294  13.981
76092W        W39651  35.418  22.241   2.314
76093W        W39652  28.097  26.590  11.113
76094W        W39653  18.236  39.055   1.908
76095W        W39654  38.863  32.965   3.739
76096W        W39655  43.995  28.523   2.361
76097W        W39656  39.368  41.819  14.011
76098W        W39657  35.963   2.879   4.311
76099W        W39658   0.797  27.554  12.381
76100W        W39659  12.206  41.439   2.187
76101W        W39660  15.758  43.939  11.412
76102W        W39661  37.468  19.545   4.143
76103W        W39662  29.532  23.688   1.228
76104W        W39663  44.316  17.699   1.904
76105W        W39664  32.394   6.295  11.043
76106W        W39665  21.636   7.774  11.924
76107W        W39666  15.131  33.566   0.397
76108W        W39667  17.100  37.023  11.512
76109W        W39668   2.917  17.061   3.699
76110W        W39669  29.017  36.062   1.289
76111W        W39670  44.474  32.600   0.457
76112W        W39671   8.351  23.702  10.482
76113W        W39672  23.522  18.109  10.592
76114W        W39673  27.973  19.154  10.508
76115W        W39674  30.936  41.357  14.964
76116W        W39675  31.962  24.040  12.970
76117W        W39676  40.859   1.744  10.513
76118W        W39677   3.781  35.463   4.165
76119W        W39678  20.644   9.696   2.419
76120W        W39679  11.738   1.366   0.318
76121W        W39680  25.053   8.326  13.354
76122W        W39681  27.466  42.916  11.074
76123W        W39682   3.813  35.390  14.971
76124W        W39683   5.211  12.671  12.374
76125W        W39684  20.213  21.039   1.228
76126W        W39685  33.469   6.783  11.001
76127W        W39686  26.024  17.780   3.858
76128W        W39687  29.103  20.722   4.184
76129W        W39688  24.610  12.228  10.597
76130W        W39689  31.616   3.442  12.021
76131W        W39690  31.946   9.347  13.840
76132W        W39691  19.617  28.497  11.515
76133W        W39692  23.542   1.247  12.086
76134W        W39693  10.378   8.320   3.364
76135W        W39694  27.050  28.564  13.033
76136W        W39695   3.288  23.516   0.746
76137W        W39696  22.121  19.762  13.045
76138W        W39697  24.979  16.746  12.347
76139W        W39698  32.607  25.491   4.300
76140W        W39699  10.265  11.354   4.658
76141W        W39700  11.773  37.566   0.443
76142W        W39701  19.588  22.059  14.479
76143W        W39702   4.733  25.964   0.244
76144W        W39703  29.041  44.356  14.927
76145W        W39704   5.262  16.734  11.468
76146W        W39705  35.524   8.170   4.118
76147W        W39706  25.109  35.871   0.305
76148W        W39707  34.384  33.125  11.050
76149W        W39708  35.476  15.315   4.175
76150W        W39709   9.301  42.879   0.444
76151W        W39710  19.580   5.688  11.519
76152W        W39711  34.874   2.290  12.912
76153W        W39712  18.061   1.344  13.847
76154W        W39713  15.665  27.515  10.921
76155W        W39714  15.183  44.402  13.414
76156W        W39715  25.200  30.989   1.855
76157W        W39716  15.195  22.106  10.553
76158W        W39717  38.850  44.355   3.815
76159W        W39718   6.833  14.128   5.146
76160W        W39719  19.704   0.899   1.811
76161W        W39720   8.830   1.874   2.230
76162W        W39721  40.541  37.988  14.330
76163W        W39722  22.599  25.962   2.691
76164W        W39723   4.794   7.218   4.178
76165W        W39724   4.759  26.520  13.011
76166W        W39725  21.598  14.707  11.452
76167W        W39726  17.111  40.420   0.810
76168W        W39727   6.793   1.873   2.243
76169W        W39728  34.027  19.587  11.479
76170W        W39729  11.746  26.083  12.959
76171W        W39730  19.576  29.952  14.972
76172W        W39731  18.760  32.963   1.307
76173W        W39732  42.379  34.454   1.728
76174W        W39733   7.772   5.428  12.955
76175W        W39734  21.071  14.221  14.987
76176W        W39735  11.132   6.878   4.774
76177W        W39736  21.696  14.258  14.806
76178W        W39737  14.833   5.376  10.003
76179W        W39738   5.202  34.372  11.880
76180W        W39739  32.131  42.499   3.204
76181W        W39740  39.365   3.872   2.397
76182W        W39741  12.725  16.302   3.318
76183W        W39742   3.346  18.076   0.899
76184W        W39743   6.307  43.955  14.784
76185W        W39744  39.034  42.422  12.373
76186W        W39745  34.511  31.029   4.814
76187W        W39746  29.096  19.096   0.472
76188W        W39747  38.896  13.161  12.358
76189W        W39748  35.498   0.951   3.689
76190W        W39749  21.716   4.884   1.430
76191W        W39750  18.764  44.448  11.992
76192W        W39751  16.196  12.817   3.820
76193W        W39752  39.926  27.963   4.155
76194W        W39753  44.458  32.125  12.428
76195W        W39754  18.164  35.028   4.217
76196W        W39755   2.418  16.655   1.211
76197W        W39756  24.099  43.889  12.084
76198W        W39757  25.054  10.324   3.839
76199W        W39758  18.711  22.020  14.017
76200W        W39759  43.815   7.320  11.956
76201W        W39760  43.305  20.159  12.953
76202W        W39761   1.965   7.210   4.248
76203W        W39762  34.091  43.391   2.902
76204W        W39763  42.866  29.628   0.782
76205W        W39764   6.754  29.148  13.848
76206W        W39765  28.662   6.217  11.930
76207W        W39766  14.326  39.409  13.336
76208W        W39767  40.369   0.871   1.283
76209W        W39768  36.447  23.556  12.965
76210W        W39769  36.078  24.141  12.945
76211W        W39770  11.853  36.506   4.730
76212W        W39771  13.768   6.913  12.006
76213W        W39772  19.213   2.930   4.731
76214W        W39773  38.044  20.746   4.340
76215W        W39774  10.670  43.771  11.101
76216W        W39775  24.621  30.652   1.905
76217W        W39776  23.684   8.808  14.901
76218W        W39777  13.725  28.434  11.091
76219W        W39778  10.819  43.964  10.510
76220W        W39779   7.879  30.611   4.231
76221W        W39780  43.351   5.340  10.639
76222W        W39781  33.545  32.466   3.332
76223W        W39782   5.385  44.303  10.433
76224W        W39783   9.838  20.065  12.399
76225W        W39784  24.990  28.949   2.199
76226W        W39785  24.111  31.103   1.309
76227W        W39786   3.264  11.657  11.017
76228W        W39787  43.807  18.625  11.938
76229W        W39788  26.560  13.715   2.675
76230W        W39789  31.474   4.911   0.405
76231W        W39790  34.583  15.112  14.858
76232W        W39791  29.662   6.209  14.448
76233W        W39792  39.025   5.805  12.040
76234W        W39793  17.169   6.694   0.888
76235W        W39794   6.862  23.594   2.235
76236W        W39795  11.832  38.899   4.755
76237W        W39796  34.368  41.324   3.341
76238W        W39797   5.816  17.081   3.800
76239W        W39798  36.452  41.462   2.894
76240W        W39799  16.214  29.976  12.567
76241W        W39800  17.291  37.465   1.751
76242W        W39801  10.761  14.622   0.745
76243W        W39802   2.884  35.922  14.876
76244W        W39803  43.947  23.545  14.935
76245W        W39804  15.723  35.001  11.518
76246W        W39805  33.483  34.951  12.827
76247W        W39806  33.890  16.624  11.414
76248W        W39807  26.036  15.783   5.128
76249W        W39808  22.537  31.541  13.879
76250W        W39809  14.184  29.517  14.334
76251W        W39810  24.577  37.467  13.453
76252W        W39811   1.293   6.335   1.332
76253W        W39812  33.539  18.225  10.922
76254W        W39813  10.234  14.103   3.303
76255W        W39814  43.350  33.544   1.832
76256W        W39815  29.977  28.105   2.894
76257W        W39816  21.521  38.389   4.608
76258W        W39817  20.074  23.732  14.368
76259W        W39818  18.257   3.856   0.823
76260W        W39819   3.848  22.638   3.148
76261W        W39820  21.757  42.939   5.101
76262W        W39821  29.443  30.654  11.955
76263W        W39822  42.290  30.438  11.881
76264W        W39823  36.916   1.297  14.765
76265W        W39824  27.623  39.406   4.150
76266W        W39825  44.937  18.111   3.208
76267W        W39826   5.900  17.075  14.978
76268W        W39827  32.948  41.317  11.941
76269W        W39828  36.375  23.524   3.663
76270W        W39829   7.676  16.268  14.894
76271W        W39830  44.778  27.687   4.130
76272W        W39831  30.140  39.013   5.292
76273W        W39832  25.054  23.627  14.938
76274W        W39833  14.796  43.393   2.395
76275W        W39834  19.232  29.053  14.863
76276W        W39835  15.694  32.110  10.062
76277W        W39836  10.635  13.169  13.842
76278W        W39837  44.758  33.624  10.550
76279W        W39838  11.699  31.432  13.415
76280W        W39839  23.016  17.667  14.760
76281W        W39840  10.347  38.344  10.499
76282W        W39841  11.699   7.679   4.234
76283W        W39842  29.508   3.826  12.533
76284W        W39843  32.107  30.114   0.890
76285W        W39844  27.093  21.237   5.240
76286W        W39845  11.652  43.485   2.214
76287W        W39846  11.348  27.990   2.840
76288W        W39847   3.719  13.823   1.838
76289W        W39848   1.316   8.828  11.535
76290W        W39849   3.422  41.888   4.749
76291W        W39850  41.968  33.971  11.397
76292W        W39851  19.220  18.158   2.363
76293W        W39852  14.267  28.105   4.733
76294W        W39853  43.875  19.601   0.248
76295W        W39854  37.037  44.940  13.310
76296W        W39855   3.947   0.918  14.469
76297W        W39856  10.300  13.744   4.115
76298W        W39857  13.250  31.112  14.348
76299W        W39858  36.013  38.459   3.362
76300W        W39859   0.960  17.642   2.712
76301W        W39860  15.281  24.653   1.273
76302W        W39861  33.925  39.383  13.993
76303W        W39862  14.626   2.328  14.403
76304W        W39863  33.458  15.207   0.929
76305W        W39864  19.247   6.271   1.428
76306W        W39865  33.014   7.273  11.391
76307W        W39866  18.105  34.090  13.930
76308W        W39867  29.605  14.306  12.031
76309W        W39868   2.246  26.647   5.319
76310W        W39869  33.498  11.344  10.546
76311W        W39870   1.464  32.060  13.844
76312W        W39871  24.626  25.981   4.274
76313W        W39872  21.132  39.424  13.507
76314W        W39873   6.327  17.286   1.328
76315W        W39874  31.536  22.217  14.884
76316W        W39875  28.061  33.417   1.264
76317W        W39876  26.604  30.540  12.829
76318W        W39877  19.706  34.054   2.781
76319W        W39878  27.572   1.453  11.999
76320W        W39879  26.150   2.943   2.663
76321W        W39880  25.157   1.740   2.400
76322W        W39881  44.930  22.098  14.303
76323W        W39882  30.598  23.677  14.884
76324W        W39883  28.936   4.335   1.262
76325W        W39884  15.250  12.330  13.806
76326W        W39885  32.018  25.051   4.790
76327W        W39886  12.661   8.874  11.460
76328W        W39887  23.062  19.715  10.604
76329W        W39888  43.811  44.956  11.036
76330W        W39889  42.950  34.394  12.405
76331W        W39890   1.916  14.306   3.632
76332W        W39891  11.667  22.132   2.287
76333W        W39892  31.943   7.390   4.710
76334W        W39893   6.917   9.680   4.699
76335W        W39894   9.693  36.985  12.384
76336W        W39895  35.861  35.367   4.151
76337W        W39896  20.566  10.186   2.219
76338W        W39897   0.392   4.871   0.736
76339W        W39898  44.895  19.715   1.355
76340W        W39899  38.542  15.239  11.011
76341W        W39900  13.154   1.937   3.155
76342W        W39901   7.910   4.744  14.410
76343W        W39902  28.045  37.012  10.509
76344W        W39903  39.893  11.804  11.581
76345W        W39904   7.810  12.339  11.010
76346W        W39905  20.052  13.778  12.345
76347W        W39906  37.449  38.418  13.839
76348W        W39907  43.296   9.269  14.792
76349W        W39908  43.016  18.286   1.448
76350W        W39909   8.748  21.095  11.472
76351W        W39910   1.826  33.577  12.049
76352W        W39911  23.032  21.048   1.708
76353W        W39912   1.811  37.944   0.305
76354W        W39913  39.834  31.547   1.932
76355W        W39914  25.524  36.556   3.284
76356W        W39915   3.822   8.223  12.931
76357W        W39916  13.743  22.103  11.508
76358W        W39917   3.291  26.533   2.296
76359W        W39918  37.431   8.820  11.095
76360W        W39919  32.110  18.684   3.329
76361W        W39920  30.931  10.294  10.968
76362W        W39921  32.969  17.127   2.771
76363W        W39922  14.240  37.878   0.956
76364W        W39923  33.089  17.071  12.904
76365W        W39924   5.887  20.600   3.216
76366W        W39925   2.379  37.966   4.289
76367W        W39926  32.554  25.171  14.899
76368W        W39927  28.177  16.173  10.543
76369W        W39928   4.814  31.497   1.420
76370W        W39929   4.842   3.945   0.964
76371W        W39930  38.523  21.731  12.555
76372W        W39931  35.068   6.897  12.546
76373W        W39932  20.670  36.857   4.226
76374W        W39933  19.242   8.711  13.927
76375W        W39934  30.584  34.929   3.780
76376W        W39935   3.750  43.954   0.293
76377W        W39936  11.812  11.804  13.470
76378W        W39937   5.919  23.570   0.320
76379W        W39938  36.075   3.314  12.855
76380W        W39939  15.761  17.563   3.155
76381W        W39940  34.481   6.318   0.802
76382W        W39941  24.139  28.169  13.899
76383W        W39942   3.929  33.079   3.302
76384W        W39943   6.270  13.319  13.982
76385W        W39944  31.021   0.418   4.816
76386W        W39945   9.749  18.292  11.434
76387W        W39946   0.927   9.335   1.392
76388W        W39947  39.314  12.139  14.514
76389W        W39948  35.907  18.631   1.263
76390W        W39949  36.427  44.830   3.850
76391W        W39950   6.761  12.818  12.854
76392W        W39951  29.433  38.546   3.834
76393W        W39952  35.102  42.960  14.980
76394W        W39953  34.505   3.933  10.545
76395W        W39954   5.274  35.852  11.929
76396W        W39955  37.550  33.949   1.802
76397W        W39956  40.450  27.067  11.966
76398W        W39957  39.936  26.118  10.971
76399W        W39958   5.380  17.117   4.679
76400W        W39959   8.699  23.132  13.395
76401W        W39960  17.701   1.324   2.250
76402W        W39961  23.026  23.147  14.764
76403W        W39962  15.683  11.343  13.323
76404W        W39963  38.493  12.764   0.939
76405W        W39964  15.734   2.934  13.463
76406W        W39965   3.925  17.114   2.864
76407W        W39966  13.214  34.881  11.395
76408W        W39967  44.958   6.225   3.696
76409W        W39968  28.649  14.298  11.048
76410W        W39969  33.548   7.244   1.836
76411W        W39970  16.120  19.149   3.208
76412W        W39971  26.096  31.140   0.364
76413W        W39972  14.828  11.139   1.934
76414W        W39973  44.008  20.766   0.737
76415W        W39974  10.356  35.095   2.819
76416W        W39975  10.240  43.508   4.781
76417W        W39976  15.757  25.969  14.495
76418W        W39977  14.109  34.005   5.322
76419W        W39978  10.727  19.579  12.010
76420W        W39979  29.536  10.752   3.266
76421W        W39980  10.872  30.100   1.386
76422W        W39981   4.290  11.148  13.022
76423W        W39982  24.604  15.099   1.865
76424W        W39983   7.206  33.953   3.723
76425W        W39984  35.915  36.565   1.393
76426W        W39985  23.630  37.854   3.283
76427W        W39986  13.114  43.000  12.434
76428W        W39987  24.565  17.075   2.271
76429W        W39988   9.871  15.752  14.375
76430W        W39989  34.521   7.200   0.338
76431W        W39990  25.666  44.290   1.429
76432W        W39991   7.836  22.586  13.045
76433W        W39992  10.726  31.465   3.676
76434W        W39993  40.525  21.158   3.170
76435W        W39994  11.789  16.685  11.999
76436W        W39995   2.298  22.682   0.929
76437W        W39996  40.450  34.484   3.715
76438W        W39997  29.645  14.224   3.327
76439W        W39998  28.593  43.793   2.250
76440W        W39999  23.110  19.638  11.956
76441W        W40000  12.345  12.657  10.495
76442W        W40001   5.829  33.874  12.008
76443W        W40002  22.667  37.835  14.980
76444W        W40003   3.357  16.097  11.569
76445W        W40004  14.743   8.292  14.326
76446W        W40005  23.714   3.332   1.290
76447W        W40006  40.892  41.314   0.865
76448W        W40007  41.535  31.642   0.828
76449W        W40008  40.852  13.644   2.683
76450W        W40009   1.332   8.738  11.063
76451W        W40010  16.265   8.256   0.290
76452W        W40011  11.230   4.378   1.880
76453W        W40012  38.074  11.352  10.472
76454W        W40013  22.626  31.114  14.833
76455W        W40014   4.325  11.697  13.033
76456W        W40015  37.043  27.018   0.788
76457W        W40016  24.071  11.816   3.210
76458W        W40017   0.908  37.855  14.025
76459W        W40018  39.388  35.061  11.434
76460W        W40019  15.282  30.051  14.985
76461W        W40020   4.237   5.438   4.615
76462W        W40021   4.822  11.751   2.356
76463W        W40022  13.732   8.384  12.498
76464W        W40023  43.881  17.288  11.426
76465W        W40024  30.064  39.816   3.214
76466W        W40025  35.902  26.092  13.919
76467W        W40026  11.269  18.790  10.620
76468W        W40027   3.440  21.086   2.377
76469W        W40028   0.359  14.657   3.283
76470W        W40029  28.654   5.337  12.065
76471W        W40030   9.849  38.940   3.344
76472W        W40031   0.492  40.852  13.980
76473W        W40032  15.785  13.692  11.046
76474W        W40033  22.718  16.611  14.788
76475W        W40034  15.111  11.788   1.410
76476W        W40035  43.924  11.231  13.391
76477W        W40036  10.153  14.689   2.379
76478W        W40037  16.293   7.412  14.381
76479W        W40038  24.056  34.957  13.875
76480W        W40039  40.313  42.394  10.494
76481W        W40040   8.368  22.524  11.606
76482W        W40041   7.299   8.799   1.346
76483W        W40042  10.783  26.046  12.995
76484W        W40043  38.017  42.519   2.729
76485W        W40044   4.869   7.265   4.656
76486W        W40045  15.301  12.304  12.422
76487W        W40046  41.316  25.101  13.990
76488W        W40047  31.934  14.817   4.336
76489W        W40048  13.690  22.227  14.397
76490W        W40049   9.316  24.078   0.307
76491W        W40050   1.760  38.049  13.036
76492W        W40051  30.058  38.525  12.073
76493W        W40052  41.874  31.598  14.018
76494W        W40053  15.751   3.709   3.380
76495W        W40054  15.250  28.597   0.745
76496W        W40055  26.687  20.528   0.312
76497W        W40056  33.508  11.294  14.996
76498W        W40057  25.608   5.270  13.984
76499W        W40058  25.986  16.576   4.176
76500W        W40059  29.976  14.130   4.177
76501W        W40060  26.160  28.972  12.511
76502W        W40061  22.637  12.684   1.431
76503W        W40062   1.425   5.218   2.729
76504W        W40063  23.199  36.522   2.374
76505W        W40064  24.524   7.329   0.308
76506W        W40065  43.832   1.933   3.640
76507W        W40066  38.979  16.621  11.904
76508W        W40067   5.230  42.901  14.412
76509W        W40068  11.705   6.886  14.956
76510W        W40069  12.309  27.940   0.318
76511W        W40070  28.018  14.114  12.959
76512W        W40071  39.342   0.302  12.936
76513W        W40072  12.629  37.005   3.776
76514W        W40073  32.513  10.155   0.278
76515W        W40074   4.835  26.197   4.144
76516W        W40075  42.338  26.545  13.844
76517W        W40076   4.248  25.978  14.882
76518W        W40077  27.524  34.487  12.051
76519W        W40078  16.218  17.187   0.792
76520W        W40079  35.019  17.182   3.247
76521W        W40080  40.049  13.639   2.361
76522W        W40081  20.526  18.076  11.125
76523W        W40082  19.088  16.089  13.537
76524W        W40083  40.513  20.093   1.225
76525W        W40084  40.962  30.527   0.472
76526W        W40085  29.556  36.366  12.889
76527W        W40086  16.616  20.268   1.292
76528W        W40087  18.768  14.215  12.944
76529W        W40088   6.422  11.234   4.665
76530W        W40089   7.711   4.816   5.111
76531W        W40090  36.047  27.095   2.365
76532W        W40091  12.221  10.375  14.932
76533W        W40092  17.162  31.554  12.831
76534W        W40093  39.400  20.083   2.886
76535W        W40094  28.668  38.955   1.309
76536W        W40095  16.305  17.096  14.304
76537W        W40096  26.973  40.485  10.611
76538W        W40097  15.199  21.691  13.397
76539W        W40098  27.051  28.497  14.777
76540W        W40099  33.485   9.343   2.228
76541W        W40100  43.850  42.412  11.015
76542W        W40101   8.901  32.600  12.562
76543W        W40102  12.321  44.971   1.899
76544W        W40103  35.916  12.635  14.370
76545W        W40104  29.529  16.720  11.924
76546W        W40105  35.869   5.344  14.493
76547W        W40106   4.273   1.391   4.175
76548W        W40107  25.562  22.061  14.962
76549W        W40108  19.708   2.230  13.496
76550W        W40109  35.474   7.674   4.811
76551W        W40110  30.489   5.229  10.529
76552W        W40111   8.670  39.944  13.404
76553W        W40112  38.338  14.108  11.450
76554W        W40113  24.126  31.473  10.407
76555W        W40114  27.068  37.415  12.011
76556W        W40115   8.268  12.822   3.268
76557W        W40116  11.259   1.969   0.935
76558W        W40117   1.870  25.022  11.866
76559W        W40118   6.911  29.586  14.947
76560W        W40119  39.510   0.417   1.380
76561W        W40120  26.604  17.287  14.858
76562W        W40121  10.671  36.996   0.473
76563W        W40122   6.707  41.312  10.584
76564W        W40123  31.070  41.873  10.416
76565W        W40124  17.690   0.959   0.817
76566W        W40125  43.832  33.993   3.271
76567W        W40126  41.820  14.141   3.346
76568W        W40127  20.066   6.185  11.988
76569W        W40128  21.192  23.543   1.889
76570W        W40129  38.537  22.062   1.419
76571W        W40130  15.638   6.297  13.326
76572W        W40131  39.852   8.667  11.064
76573W        W40132  42.848  25.678  13.315
76574W        W40133   8.678  32.019  10.913
76575W        W40134   3.275  14.616  11.109
76576W        W40135   4.212  23.545   1.757
76577W        W40136  23.657  28.930  13.872
76578W        W40137  39.433  39.889   4.236
76579W        W40138   3.238  19.666  12.398
76580W        W40139   9.226  30.422   5.137
76581W        W40140  41.448  26.567   4.795
76582W        W40141   8.732   9.301  12.835
76583W        W40142  32.533  18.236   5.317
76584W        W40143  27.446  24.606  12.937
76585W        W40144  39.457  24.226   4.613
76586W        W40145  23.610  40.852   1.743
76587W        W40146  39.982  35.872  11.018
76588W        W40147   0.808   8.870   2.261
76589W        W40148  24.590  29.450   1.321
76590W        W40149   8.704  12.306  14.356
76591W        W40150  21.613  40.402  13.322
76592W        W40151   6.346  24.006   2.276
76593W        W40152  16.206   2.732  12.369
76594W        W40153  36.447  41.384  11.967
76595W        W40154   1.768  32.976  10.473
76596W        W40155  11.153  24.087  11.081
76597W        W40156  21.245   9.343   0.325
76598W        W40157   7.850  27.501  12.485
76599W        W40158   6.785  37.078   2.720
76600W        W40159   1.245  32.517  14.845
76601W        W40160  34.955   7.867  11.001
76602W        W40161  13.627  33.923  13.838
76603W        W40162  19.127  24.181   1.874
76604W        W40163  23.655  42.286  11.375
76605W        W40164  44.946  31.470  14.490
76606W        W40165  17.186  14.329   3.322
76607W        W40166  39.424   4.780   2.239
76608W        W40167  26.182  24.508   2.379
76609W        W40168  26.582  36.993   0.439
76610W        W40169  10.156  18.725   3.633
76611W        W40170   5.195  31.094   4.325
76612W        W40171  36.858  10.209  14.399
76613W        W40172  16.096   2.829  13.848
76614W        W40173   6.365   7.361   2.726
76615W        W40174  13.345  14.615  10.903
76616W        W40175   2.360   7.376   0.345
76617W        W40176  19.111  14.155   3.336
76618W        W40177  36.388   4.430  11.006
76619W        W40178  31.627  24.164   0.916
76620W        W40179  31.001   0.474  11.520
76621W        W40180  40.799  39.540   0.833
76622W        W40181  11.782  33.501   4.352
76623W        W40182  37.349  34.890   4.657
76624W        W40183  19.740  25.968   4.352
76625W        W40184  14.809  16.296   2.886
76626W        W40185   0.783  31.450   1.911
76627W        W40186  25.653  44.816  10.555
76628W        W40187  36.363  30.615   3.215
76629W        W40188  39.018  26.195  12.956
76630W        W40189  42.907  16.764   2.245
76631W        W40190   4.331  12.141  14.310
76632W        W40191  38.361  11.214  14.413
76633W        W40192  26.121   9.813  14.924
76634W        W40193   0.467  36.984   2.378
76635W        W40194  14.229  18.084  11.450
76636W        W40195   8.189  40.894  12.855
76637W        W40196  43.948   0.871   4.780
76638W        W40197  15.258  42.887  12.869
76639W        W40198   1.343  10.711   0.334
76640W        W40199   4.794   9.281   1.914
76641W        W40200  26.574  24.031   3.354
76642W        W40201  22.519  16.109  14.504
76643W        W40202  21.169   6.700   3.760
76644W        W40203  36.027   0.302  12.359
76645W        W40204   4.744  36.401  12.390
76646W        W40205  21.587  14.727  13.838
76647W        W40206  26.471  37.380   2.878
76648W        W40207  35.420  22.695   3.768
76649W        W40208  21.560  43.279   3.382
76650W        W40209  36.433  13.607  11.086
76651W        W40210   6.228  27.543   4.674
76652W        W40211  40.545  23.510   4.615
76653W        W40212  13.716  41.991  11.466
76654W        W40213  44.288   1.414   3.752
76655W        W40214  25.687  15.595   4.247
76656W        W40215  21.174   0.964   5.321
76657W        W40216  21.112  26.197   3.355
76658W        W40217  42.286  38.454   2.232
76659W        W40218  28.176  19.645  14.449
76660W        W40219  19.611  10.247   4.197
76661W        W40220   4.935   6.189   1.834
76662W        W40221  13.638  11.670   0.442
76663W        W40222  33.467  25.540   0.858
76664W        W40223  20.681  40.882   3.651
76665W        W40224   6.897   5.231   3.703
76666W        W40225  17.661  38.434  10.972
76667W        W40226   5.217  32.000  14.470
76668W        W40227   0.266   9.394  11.017
76669W        W40228  28.449  31.006  14.969
76670W        W40229  32.897  12.636   3.221
76671W        W40230  36.551  12.801   4.289
76672W        W40231  14.663  41.445   2.897
76673W        W40232  40.336  40.990  11.929
76674W        W40233  26.168  32.905  11.928
76675W        W40234  26.637  32.608   1.831
76676W        W40235   4.773  25.584   1.240
76677W        W40236  11.649  41.410   0.819
76678W        W40237   9.788  35.895  10.612
76679W        W40238  42.957  25.059  12.413
76680W        W40239  31.573  29.141   1.854
76681W        W40240  11.360  17.705  14.939
76682W        W40241  28.119  28.104   4.813
76683W        W40242  42.385   6.264  10.609
76684W        W40243   6.427  29.937  11.043
76685W        W40244  23.196  13.203   4.295
76686W        W40245  26.637  23.624  13.805
76687W        W40246  30.138   0.411   1.418
76688W        W40247  36.848  21.167  13.959
76689W        W40248  42.481  13.733  13.836
76690W        W40249  32.636  10.676  12.466
76691W        W40250   0.332   4.830   4.601
76692W        W40251  39.837  31.410  13.841
76693W        W40252  38.989   6.393  12.879
76694W        W40253  11.627  16.771   2.238
76695W        W40254  17.634  37.880  11.539
76696W        W40255  13.784   5.918  12.078
76697W        W40256  32.124  17.658  14.380
76698W        W40257  20.159  44.770  12.078
76699W        W40258  12.785  38.884  12.082
76700W        W40259  13.341  19.760  11.525
76701W        W40260  40.336  31.546   0.921
76702W        W40261  30.132  19.181   3.633
76703W        W40262  30.656  32.597   3.152
76704W        W40263   0.380  35.573  12.445
76705W        W40264  10.336  36.070  14.306
76706W        W40265  11.370  10.750  11.481
76707W        W40266  12.154  22.607  12.834
76708W        W40267  19.181  33.047  12.062
76709W        W40268  16.192  16.276  11.459
76710W        W40269  36.532   1.368   2.302
76711W        W40270  18.705   3.381   9.926
76712W        W40271  31.014  12.832  13.379
76713W        W40272  35.560   8.405   0.958
76714W        W40273   0.849  40.915  10.536
76715W        W40274  19.714   3.438  11.486
76716W        W40275  31.042  23.221   2.885
76717W        W40276  35.363  11.733  14.445
76718W        W40277  40.410  38.981  10.419
76719W        W40278  29.531  24.061   0.776
76720W        W40279  28.083  10.732   3.833
76721W        W40280   2.812   4.890   0.882
76722W        W40281   5.242  31.051  13.932
76723W        W40282   8.810  20.073   2.772
76724W        W40283   4.411  43.004   2.675
76725W        W40284  31.076  36.448   0.845
76726W        W40285  27.158  21.633  12.921
76727W        W40286   2.824  21.105   3.372
76728W        W40287  25.537   3.362   1.799
76729W        W40288  21.613  31.057  14.810
76730W        W40289  29.071   5.834  10.408
76731W        W40290   4.836  43.993  11.870
76732W        W40291  35.104  19.555   4.823
76733W        W40292  43.829  15.166  11.896
76734W        W40293   9.889  27.473  12.362
76735W        W40294  25.128   9.215  12.082
76736W        W40295  14.260  24.136  13.041
76737W        W40296  18.547  29.472  13.997
76738W        W40297  30.925  32.600  13.532
76739W        W40298  32.070  13.659   3.147
76740W        W40299  17.254  40.989  13.414
76741W        W40300   1.855  28.964  14.889
76742W        W40301  23.073  25.645  11.082
76743W        W40302  43.416  44.986   3.763
76744W        W40303  40.013  14.215  13.503
76745W        W40304  29.940  41.486  11.591
76746W        W40305  35.457  31.410  10.984
76747W        W40306  35.982   7.376   1.785
76748W        W40307  16.131  42.920   2.868
76749W        W40308  37.483  22.066  13.805
76750W        W40309  34.467   8.263  10.115
76751W        W40310  28.001  16.079  11.971
76752W        W40311  23.991  24.644  13.940
76753W        W40312  40.303  15.766   5.272
76754W        W40313   0.307  34.522  14.880
76755W        W40314  35.493  23.130  14.379
76756W        W40315  39.022  15.200   4.227
76757W        W40316   0.819   0.276  10.567
76758W        W40317   9.214  31.450  12.404
76759W        W40318  42.298   0.840   0.882
76760W        W40319  29.456  23.047  13.339
76761W        W40320   9.190  25.973  12.018
76762W        W40321  17.784  37.931  13.943
76763W        W40322  37.055  10.308   4.817
76764W        W40323  40.850   2.290  10.943
76765W        W40324  28.133  17.711  14.450
76766W        W40325  39.379   8.326  13.422
76767W        W40326  22.711  29.429  11.425
76768W        W40327  31.987  41.521   5.266
76769W        W40328  27.580  33.556  11.918
76770W        W40329  15.230  16.162  14.345
76771W        W40330  41.906  16.744  13.889
76772W        W40331  25.691  33.389   9.928
76773W        W40332   0.419  26.522   3.367
76774W        W40333  11.692  35.496   2.694
76775W        W40334  25.124  34.063  14.985
76776W        W40335  18.095  19.660   4.347
76777W        W40336  29.006  19.256  14.016
76778W        W40337  37.070  40.394   3.371
76779W        W40338   4.326  34.094   3.866
76780W        W40339  33.955  33.963  12.527
76781W        W40340  39.555  30.972   3.217
76782W        W40341  22.668   0.367  12.468
76783W        W40342  43.423   5.243  13.935
76784W        W40343   4.851  27.460   0.914
76785W        W40344  28.103  34.865  13.541
76786W        W40345  19.654  28.099   2.732
76787W        W40346  28.531  10.324  11.007
76788W        W40347  35.067   3.225   4.232
76789W        W40348  26.200  33.578  12.902
76790W        W40349  20.214   8.771  11.527
76791W        W40350  16.753   2.454  12.551
76792W        W40351  38.521  40.996   2.335
76793W        W40352  44.943  28.522   1.801
76794W        W40353  39.496  32.609  10.128
76795W        W40354  12.813  36.420   0.764
76796W        W40355  39.329   3.333  13.007
76797W        W40356  42.863   9.677   3.804
76798W        W40357  13.107   1.432  12.861
76799W        W40358  15.603  13.601  14.302
76800W        W40359  31.509  16.658  13.052
76801W        W40360   3.912  19.584  13.909
76802W        W40361   9.317  38.340   3.251
76803W        W40362  41.294   1.343   0.403
76804W        W40363  35.966  21.677  13.447
76805W        W40364  44.957  37.417   3.857
76806W        W40365  25.015  28.636   3.799
76807W        W40366  11.255   0.406   1.920
76808W        W40367  25.628  19.213   4.691
76809W        W40368   2.884  14.242   1.399
76810W        W40369  38.073  17.183   4.307
76811W        W40370  44.438  16.771   9.961
76812W        W40371  40.398  14.703  12.358
76813W        W40372  30.150  43.446  11.535
76814W        W40373  20.066  17.733  13.452
76815W        W40374  21.748  21.220  11.116
76816W        W40375  41.813  38.398  12.346
76817W        W40376  22.601  28.078   1.911
76818W        W40377  10.176  17.731  12.059
76819W        W40378  30.652  25.973  14.798
76820W        W40379  38.508  41.311  13.453
76821W        W40380   7.403  24.629  11.399
76822W        W40381  38.487   3.745  11.611
76823W        W40382  32.493  17.121   3.373
76824W        W40383  26.073  33.014   1.912
76825W        W40384   5.884  10.384   1.380
76826W        W40385  29.090  20.193  10.939
76827W        W40386  14.657   6.234   3.746
76828W        W40387   5.209  13.845  14.023
76829W        W40388  40.971  26.016   1.334
76830W        W40389  39.975  40.034  11.593
76831W        W40390  28.166  44.973   4.768
76832W        W40391  11.211  23.074   1.441
76833W        W40392  20.244   3.227  13.056
76834W        W40393   6.888   6.757   4.159
76835W        W40394  29.666  18.731  10.640
76836W        W40395   9.235  34.978  13.890
76837W        W40396  14.647   4.804   4.638
76838W        W40397  30.961  13.627   4.315
76839W        W40398   9.240  28.036   2.896
76840W        W40399  25.025  25.576  11.956
76841W        W40400  34.987  13.118   3.715
76842W        W40401  14.705  35.473  10.599
76843W        W40402  35.457  40.851  12.894
76844W        W40403  43.986  16.684   1.796
76845W        W40404  28.109   7.245  11.566
76846W        W40405  18.550   8.801  10.074
76847W        W40406  23.506   2.226   4.663
76848W        W40407  15.769  16.116  14.339
76849W        W40408  24.625   4.774   4.320
76850W        W40409  15.633  29.434   1.827
76851W        W40410  27.625  17.670   3.814
76852W        W40411  15.602   8.834  10.090
76853W        W40412  20.561  13.107   0.891
76854W        W40413  26.063  25.702  13.533
76855W        W40414  40.904   6.861  11.094
76856W        W40415  25.476  20.650   1.824
76857W        W40416   9.225   0.842   4.816
76858W        W40417  36.879  30.020   1.376
76859W        W40418  37.425  18.576  14.489
76860W        W40419   7.191  14.171   1.337
76861W        W40420   8.687  40.938  12.990
76862W        W40421  25.611  35.571  11.870
76863W        W40422  27.611  19.264  10.636
76864W        W40423  39.008   1.451  13.456
76865W        W40424  41.325  18.155   1.259
76866W        W40425  23.552  22.041  12.396
76867W        W40426  37.565  12.304   0.791
76868W        W40427  27.084  36.099  11.478
76869W        W40428  26.602  27.472  12.977
76870W        W40429  35.047  29.622   1.414
76871W        W40430  36.870  43.916  14.358
76872W        W40431  28.982  17.645  10.998
76873W        W40432  44.366  12.136   2.727
76874W        W40433  14.222  34.007  10.917
76875W        W40434   0.271  28.162  13.898
76876W        W40435   5.367  21.695  12.979
76877W        W40436  30.936  38.328  14.875
76878W        W40437  11.233  27.688  11.607
76879W        W40438  36.553  14.225  10.098
76880W        W40439  21.072  40.798   0.818
76881W        W40440  42.514   7.277  11.401
76882W        W40441  39.349  35.459   3.863
76883W        W40442  27.477  37.028  11.497
76884W        W40443  20.715  26.199  11.547
76885W        W40444  39.520  20.028  11.403
76886W        W40445  44.932  11.787   4.288
76887W        W40446  42.389  39.390   2.371
76888W        W40447  32.630  15.593   1.331
76889W        W40448  13.243   5.746   1.922
76890W        W40449  12.799  30.587   3.333
76891W        W40450   7.265   0.869  12.859
76892W        W40451  41.039  39.051  11.922
76893W        W40452  42.013  13.653  12.054
76894W        W40453  30.560   5.821   1.424
76895W        W40454  29.056  34.062  10.450
76896W        W40455   5.207  39.520   3.219
76897W        W40456  31.454  32.588   4.170
76898W        W40457  32.032  31.147   0.445
76899W        W40458  19.173  10.639   4.177
76900W        W40459  42.438   4.882   0.333
76901W        W40460   8.262  36.916  14.859
76902W        W40461  15.820  18.765   4.336
76903W        W40462   8.210  17.306   0.466
76904W        W40463  34.949   5.733  10.516
76905W        W40464  26.501  32.392   4.609
76906W        W40465  19.653   8.882  13.383
76907W        W40466  30.627   2.300  12.852
76908W        W40467  22.030  24.109  14.353
76909W        W40468  42.908  28.097   4.331
76910W        W40469   6.873  10.782  12.899
76911W        W40470  13.195  41.000  13.523
76912W        W40471  12.183  17.562   0.296
76913W        W40472   6.784  21.704   4.228
76914W        W40473   8.194  12.730  12.989
76915W        W40474  35.578  28.634   1.705
76916W        W40475   9.807  13.656  14.466
76917W        W40476  18.273   9.305   1.362
76918W        W40477  34.457   6.379  10.643
76919W        W40478  37.510  18.173   3.737
76920W        W40479  44.947   4.264  10.891
76921W        W40480  26.548  25.533   4.769
76922W        W40481  30.574   6.835   0.839
76923W        W40482  22.645   5.800  11.885
76924W        W40483  35.906  11.670   2.284
76925W        W40484  21.754  41.884   4.200
76926W        W40485  35.440  40.048  10.459
76927W        W40486  13.782  38.433  13.519
76928W        W40487  15.822  18.237  11.595
76929W        W40488   2.852  32.437   1.410
76930W        W40489  42.965  22.107  13.946
76931W        W40490  43.407   9.382  10.626
76932W        W40491  12.691  14.184  14.305
76933W        W40492  10.209  39.390  11.025
76934W        W40493  14.695  44.973  12.525
76935W        W40494  24.532  40.807  13.914
76936W        W40495  40.334  31.000   2.825
76937W        W40496  27.976   8.783  12.389
76938W        W40497  36.861  34.891  11.915
76939W        W40498  20.688  19.048   0.412
76940W        W40499   4.322  15.219   2.836
76941W        W40500  21.752  28.638   4.762
76942W        W40501  43.782  11.296  14.839
76943W        W40502  44.968   2.943  12.347
76944W        W40503  37.442   4.375  11.858
76945W        W40504   1.413  29.545  13.431
76946W        W40505  21.612   9.713   4.156
76947W        W40506  36.917  31.522  13.356
76948W        W40507  15.247  12.824  10.624
76949W        W40508  12.754  18.789   2.274
76950W        W40509  23.016  22.037   3.222
76951W        W40510   4.328  10.702  11.394
76952W        W40511  28.600  31.115  14.291
76953W        W40512  44.784  23.143  14.396
76954W        W40513  28.168   8.281   3.808
76955W        W40514  10.856  25.127   1.275
76956W        W40515  20.738  11.753  12.940
76957W        W40516   5.762  22.075  10.438
76958W        W40517   2.408  14.797  11.512
76959W        W40518  18.080   0.322   3.334
76960W        W40519  38.977  22.708  10.475
76961W        W40520   2.865  41.980  13.010
76962W        W40521  43.839   9.768   2.754
76963W        W40522  32.528  42.828  14.308
76964W        W40523  42.977  41.999  10.988
76965W        W40524  19.146  40.368   1.770
76966W        W40525   7.803  41.474   1.829
76967W        W40526  23.502  29.490  10.540
76968W        W40527  16.810  25.607  13.447
76969W        W40528  23.034  12.684  11.483
76970W        W40529  32.621   5.273  12.949
76971W        W40530  12.296  13.283  14.922
76972W        W40531  37.532  41.866   1.805
76973W        W40532   9.856   4.228   1.247
76974W        W40533  36.086  15.729   3.712
76975W        W40534   5.809  10.702   2.262
76976W        W40535  12.715  40.026  11.029
76977W        W40536  29.956  35.570  12.356
76978W        W40537  28.086  37.502   0.366
76979W        W40538  10.820  27.941  11.088
76980W        W40539  31.419  22.161   1.857
76981W        W40540  34.899  34.929  12.070
76982W        W40541  19.611  17.573   2.415
76983W        W40542  23.643  22.183   1.445
76984W        W40543  41.393  40.411   0.358
76985W        W40544  41.887  16.577  13.527
76986W        W40545  44.845  20.526   1.851
76987W        W40546  26.142  12.741  13.996
76988W        W40547   7.173  33.893  14.947
76989W        W40548  28.499  10.281  12.078
76990W        W40549  38.833  21.736   5.162
76991W        W40550  39.517  28.049   2.694
76992W        W40551  16.265  12.793   1.831
76993W        W40552  36.563   3.854  12.549
76994W        W40553   5.802  17.141  14.371
76995W        W40554   7.186  25.488   2.742
76996W        W40555  29.634  17.140   4.132
76997W        W40556  31.003   0.263   0.405
76998W        W40557  23.649   7.822  10.912
76999W        W40558  15.806  24.048  14.427
77000W        W40559   3.913  19.111  13.421
77001W        W40560  27.078  25.143  12.342
77002W        W40561  31.520  30.162  11.403
77003W        W40562  39.486  25.693  12.882
77004W        W40563  17.741   3.242  11.473
77005W        W40564  13.706  25.539  10.987
77006W        W40565   3.863  26.096  10.592
77007W        W40566  28.599  20.264   4.760
77008W        W40567   6.191  25.111   2.806
77009W        W40568   2.408  11.795   1.377
77010W        W40569   5.338  28.991  11.509
77011W        W40570  31.999  28.136  11.520
77012W        W40571  14.820  43.847  11.973
77013W        W40572   0.818  14.729   1.865
77014W        W40573  18.745  13.133   5.205
77015W        W40574  41.448  12.644   1.764
77016W        W40575  18.764  25.016  14.364
77017W        W40576  13.779  19.216  14.390
77018W        W40577   1.823  28.141  12.554
77019W        W40578  18.592  14.337  14.810
77020W        W40579   3.822  12.706   2.187
77021W        W40580  35.913  13.676   4.304
77022W        W40581  31.127  21.233   3.630
77023W        W40582  39.377  18.774   2.414
77024W        W40583  30.104   3.794  12.041
77025W        W40584  29.660  32.981   0.864
77026W        W40585  44.371   9.253   4.140
77027W        W40586   7.348  42.877  12.846
77028W        W40587  14.272  33.617   1.227
77029W        W40588  44.953  34.464  12.911
77030W        W40589  17.677  20.245   0.268
77031W        W40590  35.109  25.662  10.484
77032W        W40591  40.420  43.008  13.415
77033W        W40592  40.996  14.615   0.440
77034W        W40593  16.722  13.231  14.430
77035W        W40594  28.659   5.760   4.247
77036W        W40595  22.539  34.006   3.842
77037W        W40596  15.684  41.318   1.762
77038W        W40597  19.741  31.600  11.089
77039W        W40598   4.213  33.484  11.876
77040W        W40599  43.397   3.826  11.102
77041W        W40600   8.658   8.756   0.912
77042W        W40601  21.674  15.663   2.286
77043W        W40602   5.331  28.503   1.778
77044W        W40603  21.657  39.450   0.874
77045W        W40604   4.718  30.651   5.238
77046W        W40605  33.916  23.122  12.467
77047W        W40606  37.030   7.745   2.795
77048W        W40607  39.552  17.082   9.989
77049W        W40608  36.938  39.502   0.327
77050W        W40609  37.959  42.850  11.421
77051W        W40610  13.275  32.467   9.924
77052W        W40611  29.541   2.797  11.080
77053W        W40612  24.725  44.784   2.762
77054W        W40613  42.001   0.756   3.753
77055W        W40614  18.700  14.798   1.867
77056W        W40615  19.257  23.139  14.403
77057W        W40616  12.284   7.697  11.909
77058W        W40617  31.933  44.303   5.113
77059W        W40618   8.693   9.281  13.846
77060W        W40619  11.726  10.196   2.396
77061W        W40620  11.350  36.889  14.468
77062W        W40621   0.776   6.408   2.211
77063W        W40622  30.627   2.419  13.490
77064W        W40623   6.802  19.091   3.645
77065W        W40624  41.882  29.172   4.258
77066W        W40625   4.914  43.976  14.878
77067W        W40626  14.816  27.984  14.004
77068W        W40627  19.538  25.590  10.893
77069W        W40628  26.604  11.363   2.257
77070W        W40629  32.569   7.767   2.879
77071W        W40630  18.608   0.831   0.379
77072W        W40631  26.494  28.134   1.240
77073W        W40632  17.259  24.503   4.738
77074W        W40633   4.339  32.008  14.845
77075W        W40634  27.008  10.177   4.247
77076W        W40635  18.676  22.511   2.375
77077W        W40636  39.944  23.209  12.474
77078W        W40637  25.064  33.909  12.572
77079W        W40638  10.659  25.617  10.905
77080W        W40639  14.695   4.228  11.419
77081W        W40640  20.594  28.016   4.189
77082W        W40641   2.345  40.998   0.367
77083W        W40642   6.748  18.638   2.728
77084W        W40643  37.998  30.603   1.274
77085W        W40644  25.699  34.057  11.543
77086W        W40645  44.832  22.176   0.882
77087W        W40646  40.425   3.807  13.901
77088W        W40647  23.674  27.177   4.634
77089W        W40648  12.294  14.292   2.841
77090W        W40649   4.309  30.048  14.308
77091W        W40650  36.463  31.403   2.864
77092W        W40651  40.950   1.746   0.840
77093W        W40652  32.525  13.329  10.920
77094W        W40653  20.199  21.214   0.867
77095W        W40654  33.969  18.100   4.702
77096W        W40655   6.240  37.889  11.399
77097W        W40656  25.602  16.776   2.198
77098W        W40657  25.495  14.246  12.416
77099W        W40658  36.978  24.042   4.324
77100W        W40659  27.049  23.708   3.764
77101W        W40660  38.344  38.520   1.860
77102W        W40661  30.912  11.285   2.320
77103W        W40662  23.238  27.492   9.435
77104W        W40663  15.768  10.697   1.293
77105W        W40664   1.843  38.432   3.373
77106W        W40665  40.506  24.553  12.937
77107W        W40666  43.880  42.445  14.338
77108W        W40667  18.074  25.577  14.978
77109W        W40668  42.010  11.213   2.895
77110W        W40669  41.431  28.482   3.249
77111W        W40670  17.573   8.327  13.522
77112W        W40671  32.579  36.482   1.306
77113W        W40672  29.086   8.877  12.094
77114W        W40673  35.462  32.959  13.437
77115W        W40674  34.434  29.468  11.397
77116W        W40675   4.398   1.913   4.739
77117W        W40676  38.481  30.498   0.460
77118W        W40677  25.197  37.381  12.917
77119W        W40678  28.440   1.324  10.976
77120W        W40679  40.048  17.746   0.844
77121W        W40680  19.724  12.325   2.772
77122W        W40681  35.445  17.076   4.715
77123W        W40682  22.080  34.396  14.301
77124W        W40683  19.107  30.532   0.249
77125W        W40684   4.747   6.294  11.951
77126W        W40685  39.909  41.927   3.713
77127W        W40686  35.955  36.964  13.435
77128W        W40687  37.475  44.948  14.007
77129W        W40688   5.323  27.063   1.415
77130W        W40689  13.698  43.412   1.848
77131W        W40690  29.518  18.049   3.671
77132W        W40691  35.062  32.048  11.073
77133W        W40692  32.441   1.768   1.300
77134W        W40693   4.907  36.906  12.977
77135W        W40694  19.662  12.760   3.669
77136W        W40695  43.893  22.210  14.763
77137W        W40696  20.087  37.397   2.711
77138W        W40697  36.007  16.785  12.427
77139W        W40698   1.388  26.480   0.892
77140W        W40699  21.248  17.762   3.291
77141W        W40700   9.885  26.608  11.127
77142W        W40701  41.514  25.629   3.699
77143W        W40702  31.059  42.344  13.897
77144W        W40703   4.830  29.445  12.341
77145W        W40704  41.886   9.275   4.227
77146W        W40705   8.767  16.596  12.402
77147W        W40706   2.385  27.082  11.450
77148W        W40707  12.796  30.545   0.869
77149W        W40708  10.326  18.708  12.400
77150W        W40709  38.327  33.593   2.786
77151W        W40710  26.126  18.646  11.936
77152W        W40711  28.119  43.396   9.947
77153W        W40712   9.360  19.542  14.412
77154W        W40713  32.903  22.673  11.857
77155W        W40714  39.897  25.676   4.800
77156W        W40715  30.988  20.261   1.807
77157W        W40716   7.848  12.688   0.963
77158W        W40717  30.917  26.503   2.664
77159W        W40718  33.558   4.360  13.991
77160W        W40719  34.911   1.813  12.467
77161W        W40720  28.445  38.479  11.993
77162W        W40721  23.057  27.613   1.281
77163W        W40722  25.690  15.738   4.718
77164W        W40723   6.336  41.432   5.169
77165W        W40724  25.007  26.975   4.617
77166W        W40725  28.676  16.810   4.733
77167W        W40726  32.039   5.347   0.901
77168W        W40727  41.357   8.851   0.314
77169W        W40728  23.051  39.944   1.254
77170W        W40729  42.283  22.652   3.162
77171W        W40730  11.642   8.224   4.662
77172W        W40731  15.157   4.872   1.375
77173W        W40732  20.691   1.255   0.924
77174W        W40733  28.076  37.035  13.944
77175W        W40734  24.124  15.204   3.213
77176W        W40735  11.791   0.337   2.810
77177W        W40736  20.067  39.539   3.656
77178W        W40737  38.895  41.858  13.408
77179W        W40738  39.062  40.367   2.409
77180W        W40739  31.583  38.878  11.063
77181W        W40740   8.731   9.663  12.947
77182W        W40741  19.668  13.316   2.277
77183W        W40742   6.773  13.328  13.311
77184W        W40743  29.647  38.056   3.638
77185W        W40744  41.379  44.887  11.569
77186W        W40745  28.993   2.806   1.312
77187W        W40746  34.560  36.077   1.814
77188W        W40747  19.286  18.258  11.126
77189W        W40748  33.405  42.915  14.024
77190W        W40749  39.032  17.650   0.455
77191W        W40750   9.284   7.800   1.378
77192W        W40751  32.065  10.653   1.392
77193W        W40752  43.508  40.530  12.931
77194W        W40753  31.935  38.030   3.369
77195W        W40754  34.467  26.556  12.057
77196W        W40755   7.831  22.189   0.878
77197W        W40756  32.008  21.519  10.594
77198W        W40757  14.655  41.526   1.236
77199W        W40758  10.353   0.891  14.364
77200W        W40759   3.756   1.276   1.337
77201W        W40760  20.125   5.216  13.928
77202W        W40761  22.747  23.504   2.308
77203W        W40762  44.977  34.550  13.412
77204W        W40763  35.920  18.239   4.316
77205W        W40764   7.357  39.017   0.880
77206W        W40765  41.868   8.858   1.794
77207W        W40766  10.740  16.684   3.631
77208W        W40767   4.412  39.534   3.358
77209W        W40768  33.594   1.388  14.307
77210W        W40769  28.165   2.467   1.869
77211W        W40770   1.857  38.422  14.453
77212W        W40771  36.003  23.540   3.258
77213W        W40772  20.675   3.340  11.602
77214W        W40773  37.882  25.652   2.180
77215W        W40774  19.728  24.184   1.722
77216W        W40775  35.594  22.655  14.443
77217W        W40776  42.335  15.759   0.439
77218W        W40777  40.810   8.235  11.983
77219W        W40778  35.854  23.204   2.314
77220W        W40779   9.290   7.363   3.253
77221W        W40780  33.990  23.097   1.211
77222W        W40781  14.317  19.214  13.975
77223W        W40782  19.628  19.671  10.942
77224W        W40783  24.212  24.012   3.243
77225W        W40784  12.124  25.471   4.334
77226W        W40785  36.388  23.001  12.373
77227W        W40786  43.890  34.612  13.399
77228W        W40787  41.875   3.847  13.428
77229W        W40788  29.064  40.316   1.313
77230W        W40789  13.255  28.537  13.513
77231W        W40790   0.786  39.065   3.271
77232W        W40791  40.930  13.280  13.047
77233W        W40792  10.798   0.462   3.199
77234W        W40793   9.700   6.900  14.318
77235W        W40794   3.367  17.625   0.406
77236W        W40795  43.381  15.307  14.444
77237W        W40796  26.127   6.380  11.387
77238W        W40797  29.152  36.090  10.427
77239W        W40798   0.329  33.404   0.772
77240W        W40799  12.667  28.009   1.266
77241W        W40800  36.487  18.710  10.919
77242W        W40801   6.686  25.607   1.266
77243W        W40802   7.249  24.530   3.351
77244W        W40803  19.663   0.260  14.292
77245W        W40804  38.923  44.836  12.515
77246W        W40805  43.880  42.797  11.000
77247W        W40806  26.031  44.321  11.548
77248W        W40807  44.501  44.475   4.640
77249W        W40808  31.616  25.476  11.547
77250W        W40809  44.302  34.608   1.428
77251W        W40810   2.783  21.240  14.845
77252W        W40811   5.294  41.037  14.818
77253W        W40812   9.160   3.349  12.461
77254W        W40813  26.181  36.039  14.855
77255W        W40814   1.739  24.051  14.862
77256W        W40815  12.334  21.563   1.425
77257W        W40816  44.368   0.347   1.399
77258W        W40817  24.650  31.017   2.773
77259W        W40818  17.750  16.253   1.932
77260W        W40819  18.764  41.380  13.492
77261W        W40820  14.331  32.569   4.727
77262W        W40821  37.884  28.119   4.336
77263W        W40822  30.575  32.087   0.426
77264W        W40823  25.631   2.403   2.749
77265W        W40824  40.816  44.978   1.900
77266W        W40825   3.734  13.207  13.428
77267W        W40826   1.239   4.239  13.477
77268W        W40827  23.514   5.202   0.887
77269W        W40828  38.407  32.125  14.825
77270W        W40829   7.679  23.598   0.377
77271W        W40830  21.059  39.542   2.887
77272W        W40831  27.195  29.536  14.838
77273W        W40832   6.886   1.470  12.971
77274W        W40833  16.306   5.867   2.335
77275W        W40834  37.087   8.756  14.810
77276W        W40835  12.362  21.053  11.413
77277W        W40836  39.883   0.877  14.350
77278W        W40837  41.439  28.482   2.316
77279W        W40838  25.579   3.837   3.661
77280W        W40839   6.257  36.479  13.821
77281W        W40840   6.244  14.791  11.945
77282W        W40841   4.248  21.648   4.256
77283W        W40842  13.683  24.564   3.260
77284W        W40843   8.759  32.392   4.170
77285W        W40844  44.946  30.018   1.228
77286W        W40845  32.625   1.320  14.406
77287W        W40846  37.515   3.244  11.385
77288W        W40847  28.575  38.482   0.768
77289W        W40848  40.899  20.038  12.528
77290W        W40849   4.784  39.914  12.344
77291W        W40850  22.078  40.007   2.396
77292W        W40851  18.640   4.713   1.397
77293W        W40852  34.116  23.711  13.489
77294W        W40853   8.809  31.538   2.327
77295W        W40854  30.640  31.549   0.800
77296W        W40855  15.118  38.025  14.765
77297W        W40856  13.694  21.565  12.962
77298W        W40857  35.413  21.520  12.888
77299W        W40858   2.235  10.220   3.183
77300W        W40859  10.690  16.605   5.317
77301W        W40860  37.975  31.074  12.089
77302W        W40861  34.098  25.477   3.287
77303W        W40862  32.591  10.342   4.787
77304W        W40863  17.306  35.004  13.509
77305W        W40864  16.108  13.113  14.478
77306W        W40865   3.320   0.391  11.115
77307W        W40866   1.441  13.830  14.361
77308W        W40867  28.489  27.513   0.775
77309W        W40868  37.075  44.503   0.261
77310W        W40869  36.527  22.054   4.727
77311W        W40870  10.735   0.787  14.329
77312W        W40871  40.835  26.690   2.384
77313W        W40872  28.075   6.287   2.352
77314W        W40873  19.747  16.708  10.946
77315W        W40874  10.289   2.260  12.072
77316W        W40875  14.324  33.538  11.958
77317W        W40876  30.540  29.115   2.686
77318W        W40877   8.707  17.137  12.980
77319W        W40878  26.639  37.355  13.809
77320W        W40879   1.353  38.421   4.328
77321W        W40880  41.981   9.850   4.140
77322W        W40881  13.824  19.613  11.042
77323W        W40882  15.779  28.051  14.468
77324W        W40883   2.358  11.802   3.367
77325W        W40884  22.228  27.953  14.508
77326W        W40885   8.663   4.718  14.902
77327W        W40886  31.493  14.634  10.415
77328W        W40887   4.831   6.814   3.354
77329W        W40888   8.828   4.372  10.899
77330W        W40889  13.291   7.863  12.875
77331W        W40890  19.114  40.452  12.362
77332W        W40891  10.331   4.229  10.545
77333W        W40892  33.040  17.669  13.801
77334W        W40893  35.480  24.658  14.402
77335W        W40894  35.973  34.913  12.946
77336W        W40895  29.979   8.722  13.058
77337W        W40896   2.911  18.640  11.915
77338W        W40897   1.935  12.808   2.217
77339W        W40898  36.558  15.634  11.870
77340W        W40899  39.021   8.273  13.480
77341W        W40900  38.482  29.004  12.467
77342W        W40901  22.172  30.642   1.339
77343W        W40902   0.462   4.852  12.068
77344W        W40903  16.654  24.661  10.572
77345W        W40904  10.338  34.888   0.783
77346W        W40905  21.094  21.116  14.328
77347W        W40906   0.752  42.859  10.919
77348W        W40907  17.223  11.147  14.783
77349W        W40908  24.986   1.408   1.211
77350W        W40909  44.807   2.323  10.566
77351W        W40910  13.326  34.086  10.894
77352W        W40911   4.818  38.492   0.373
77353W        W40912  15.809  40.475   0.894
77354W        W40913  10.738  37.986   0.253
77355W        W40914  24.723  18.578  13.857
77356W        W40915  21.142  44.776  12.508
77357W        W40916   6.738  35.489   4.787
77358W        W40917  24.626  30.535  13.852
77359W        W40918  21.757   0.404   2.889
77360W        W40919  44.882  14.649   2.269
77361W        W40920  20.180   3.738  12.559
77362W        W40921   9.713  29.016  13.420
77363W        W40922  23.184   4.930  10.510
77364W        W40923  33.944   8.236   1.375
77365W        W40924  41.812  38.549  12.919
77366W        W40925  41.476   8.835   4.683
77367W        W40926  30.122   3.420   4.291
77368W        W40927  40.028  37.437  14.874
77369W        W40928  22.735  44.386   0.297
77370W        W40929   2.259  18.108  13.523
77371W        W40930  40.389  12.163   1.748
77372W        W40931  12.793  29.640  11.901
77373W        W40932  20.536  42.988  14.941
77374W        W40933  29.976   1.462   4.782
77375W        W40934  43.282  19.674   2.684
77376W        W40935  43.853  17.586   4.644
77377W        W40936   1.381   7.788   3.777
77378W        W40937  39.554  18.767  13.026
77379W        W40938  42.986  44.460   5.266
77380W        W40939   0.292   2.248  12.530
77381W        W40940   2.440  13.616  13.961
77382W        W40941  42.332   0.248  13.944
77383W        W40942  14.220   3.216  10.924
77384W        W40943  18.149  38.342  10.625
77385W        W40944  16.284  38.433  14.951
77386W        W40945  19.271  36.924   0.299
77387W        W40946  21.526  37.561  14.515
77388W        W40947  38.067  39.494   3.696
77389W        W40948   3.446  34.903  10.472
77390W        W40949  14.246   1.399   0.314
77391W        W40950  19.191  10.260  12.414
77392W        W40951  21.651   1.771  12.093
77393W        W40952  41.032  31.456   2.699
77394W        W40953  11.641  22.727  14.830
77395W        W40954  32.924  31.542  11.982
77396W        W40955  26.989   3.410   3.335
77397W        W40956   4.400   1.826  14.452
77398W        W40957   1.772  10.811  10.935
77399W        W40958  32.102   2.902   3.741
77400W        W40959  11.815   1.893  13.387
77401W        W40960  14.332  24.209   1.423
77402W        W40961  37.893  33.129  14.948
77403W        W40962  15.641  31.100   4.212
77404W        W40963   8.334  35.859   2.680
77405W        W40964  39.369  18.171   2.814
77406W        W40965   9.662  30.163  10.979
77407W        W40966   4.879  44.277   4.679
77408W        W40967  35.536  16.152   2.217
77409W        W40968  11.778  27.636  10.986
77410W        W40969  43.978  38.829  12.945
77411W        W40970  23.010  23.622  13.826
77412W        W40971  36.421  21.600   1.397
77413W        W40972  32.928  16.281  11.375
77414W        W40973  20.588   6.853   2.863
77415W        W40974  19.679   1.965   2.847
77416W        W40975  44.008  41.489   0.736
77417W        W40976  37.575  15.620  14.948
77418W        W40977  24.011  28.652  12.033
77419W        W40978  26.020  43.905   0.746
77420W        W40979   5.691  12.192   2.805
77421W        W40980  36.993  26.013  10.941
77422W        W40981  24.713  40.819   4.751
77423W        W40982   4.237  22.628   2.668
77424W        W40983  34.973   3.749   0.823
77425W        W40984   4.880  14.268   0.391
77426W        W40985  23.240  22.612   2.295
77427W        W40986  18.228  10.258  14.766
77428W        W40987  22.146  20.662  11.468
77429W        W40988  16.772   4.714  13.931
77430W        W40989  33.126  39.010  10.516
77431W        W40990  40.400  22.212  12.966
77432W        W40991  18.734   2.378   3.762
77433W        W40992  17.600  36.562   0.787
77434W        W40993  10.334  41.533   1.221
77435W        W40994  22.568  15.096  12.507
77436W        W40995  15.220  18.568   2.771
77437W        W40996  16.807  43.939   3.367
77438W        W40997  10.866  20.700  15.000
77439W        W40998  42.845  25.488   3.753
77440W        W40999  13.106  25.108  13.054
77441W        W41000  29.931   0.411   1.726
77442W        W41001   7.180  16.675   1.694
77443W        W41002  36.081  26.646  11.548
77444W        W41003   8.310  29.039   2.839
77445W        W41004  33.558  43.416   1.353
77446W        W41005  12.231  14.647   2.695
77447W        W41006  39.830  44.970   3.691
77448W        W41007  32.418  23.205  14.427
77449W        W41008   4.706   4.341  12.474
77450W        W41009   5.200   0.270  13.438
77451W        W41010  40.417   7.686   1.406
77452W        W41011   7.724  35.555  13.821
77453W        W41012   7.901  17.731  10.510
77454W        W41013  29.441   0.483   2.812
77455W        W41014  25.105  39.431   2.277
77456W        W41015  26.534  15.292   2.414
77457W        W41016  26.030  17.283  14.891
77458W        W41017  27.001  19.047  11.547
77459W        W41018  19.593  15.696   1.890
77460W        W41019  12.240  17.085  14.393
77461W        W41020  19.563  41.912   3.759
77462W        W41021  44.958  16.665   3.387
77463W        W41022  19.210   4.241   0.826
77464W        W41023  24.172  13.717  14.966
77465W        W41024   3.929  32.923  10.576
77466W        W41025   9.244  26.695   3.765
77467W        W41026   7.830  34.413   0.352
77468W        W41027  32.898  20.534   3.695
77469W        W41028  18.091  31.075  10.112
77470W        W41029   4.208   9.251  13.916
77471W        W41030  26.508  27.464   2.298
77472W        W41031   9.678  19.637   3.336
77473W        W41032  34.445  20.604  11.530
77474W        W41033  25.690  38.402   2.782
77475W        W41034  19.581  32.076   0.334
77476W        W41035  23.555  23.052   2.299
77477W        W41036  27.570  31.059   1.737
77478W        W41037  25.589  37.916  12.432
77479W        W41038  25.602  22.095   1.330
77480W        W41039  36.920  26.175   3.756
77481W        W41040  43.442   2.835  10.635
77482W        W41041  23.172  25.136   1.247
77483W        W41042   7.192  27.063   1.305
77484W        W41043  11.765   4.288   2.374
77485W        W41044  33.065  43.414  12.086
77486W        W41045  44.873  39.524  13.935
77487W        W41046  32.415   6.387  12.870
77488W        W41047   0.310  34.944  12.914
77489W        W41048  10.701  33.100   4.609
77490W        W41049  25.200  29.134   3.232
77491W        W41050  43.355  14.773  13.931
77492W        W41051  26.028  12.321   2.808
77493W        W41052  43.994  11.358  14.383
77494W        W41053  40.033  37.889  12.346
77495W        W41054  36.420   0.485   1.822
77496W        W41055  41.483   6.775   4.837
77497W        W41056  28.165  42.314   0.327
77498W        W41057  29.570  29.670   2.864
77499W        W41058  16.697  13.348  12.957
77500W        W41059  37.960  29.942   0.332
77501W        W41060  14.770  25.100  14.857
77502W        W41061  23.720  39.951   2.208
77503W        W41062  24.503   9.750  11.950
77504W        W41063   5.408  21.119   2.843
77505W        W41064  38.825   2.890  13.327
77506W        W41065   3.252  15.235   0.348
77507W        W41066  31.988  25.155  13.885
77508W        W41067  24.141  17.797  13.041
77509W        W41068  37.053  17.581  14.859
77510W        W41069   4.405  23.728   2.241
77511W        W41070  33.412  36.445   0.482
77512W        W41071  14.734  38.367  10.532
77513W        W41072  25.700   2.948   3.838
77514W        W41073  44.499  28.182   0.441
77515W        W41074   6.756  27.635  14.286
77516W        W41075   5.218   9.356  11.038
77517W        W41076   1.959   4.886   0.344
77518W        W41077  37.561   7.708   5.226
77519W        W41078  41.870   8.794   5.273
77520W        W41079  17.072   8.209  14.992
77521W        W41080  40.053  44.763   1.730
77522W        W41081   7.173  25.695   4.766
77523W        W41082  32.588  23.121   2.329
77524W        W41083  24.697  41.470  11.557
77525W        W41084  30.052   7.334   4.669
77526W        W41085  39.317   2.327   0.852
77527W        W41086  13.750  16.318  12.458
77528W        W41087  38.562  20.759   3.349
77529W        W41088  37.464  41.932   2.840
77530W        W41089  16.806  33.577  14.493
77531W        W41090   2.747  43.978  12.002
77532W        W41091  12.791  43.349   2.800
77533W        W41092  42.486   0.797  11.494
77534W        W41093  37.831  33.919  13.994
77535W        W41094  25.143   3.223  12.938
77536W        W41095  38.856  10.858  10.508
77537W        W41096  29.106  40.890   1.876
77538W        W41097  29.472  28.032  11.993
77539W        W41098   3.396  21.688   4.760
77540W        W41099  38.342  16.729  10.904
77541W        W41100  12.640   8.178  14.878
77542W        W41101  44.950  44.763   2.265
77543W        W41102  19.539  40.410  13.432
77544W        W41103  31.556  26.581  11.542
77545W        W41104  32.929  10.379  10.965
77546W        W41105  35.532  14.701   1.862
77547W        W41106   6.821  26.175  14.445
77548W        W41107  10.270   7.779  11.441
77549W        W41108  24.500  39.431   0.954
77550W        W41109   0.924  13.658  12.510
77551W        W41110  36.941   5.359  12.847
77552W        W41111  33.129  37.530   2.254
77553W        W41112  20.769  28.033   5.707
77554W        W41113  41.829  31.045  13.475
77555W        W41114  16.587  14.196   3.245
77556W        W41115   3.392  10.713  11.421
77557W        W41116   0.443  18.104   1.795
77558W        W41117  34.077  28.986  13.449
77559W        W41118  39.951  29.038   2.371
77560W        W41119  34.382  19.073   1.437
77561W        W41120  38.028  34.944   4.354
77562W        W41121   7.395  30.499   0.311
77563W        W41122  40.469  41.471   4.248
77564W        W41123  14.181   3.711   4.293
77565W        W41124  10.679  40.522  14.950
77566W        W41125  36.886  42.355  11.106
77567W        W41126  40.449  26.632  10.062
77568W        W41127  17.652   1.732  13.798
77569W        W41128  15.141  41.824  12.823
77570W        W41129  21.116  29.476   0.928
77571W        W41130  21.654  20.588  11.458
77572W        W41131  11.253   9.178   1.899
77573W        W41132  16.261  30.062  13.878
77574W        W41133  33.996  30.493   1.697
77575W        W41134  27.449  39.481  11.870
77576W        W41135   2.932  17.264   0.243
77577W        W41136  15.286   8.782  11.882
77578W        W41137  17.263   6.726   3.802
77579W        W41138  40.904  29.013   2.405
77580W        W41139  42.521  44.273   2.701
77581W        W41140  14.236  16.287  14.372
77582W        W41141  40.858  17.608  10.951
77583W        W41142   9.852   9.783  12.970
77584W        W41143  39.366  11.174   4.200
77585W        W41144  16.762  42.415  13.828
77586W        W41145   8.788  36.511   1.324
77587W        W41146  11.798  29.486   4.694
77588W        W41147  24.177  33.069  12.052
77589W        W41148  24.041  38.522  13.805
77590W        W41149  20.746   4.418   0.302
77591W        W41150   9.320  26.058   1.814
77592W        W41151  17.080  29.034   2.354
77593W        W41152  10.773   7.400   3.705
77594W        W41153  19.271  29.498   0.386
77595W        W41154   6.304  24.544  13.512
77596W        W41155  41.389  17.095  13.873
77597W        W41156  13.693  13.838   0.815
77598W        W41157  10.770   6.335   1.890
77599W        W41158   6.350  10.325   1.325
77600W        W41159  39.426  42.440  11.090
77601W        W41160  36.570  34.603  12.482
77602W        W41161  24.610  36.888   3.800
77603W        W41162   9.879  24.204   1.706
77604W        W41163  10.871  13.250   2.205
77605W        W41164  34.878  13.113  14.412
77606W        W41165  38.018  21.541  14.956
77607W        W41166   5.891   6.735  14.908
77608W        W41167  27.020  23.059  13.475
77609W        W41168   4.342  30.940   1.897
77610W        W41169  17.605  10.286   3.830
77611W        W41170  41.325  29.504   4.614
77612W        W41171   7.757  19.535  14.372
77613W        W41172  35.077  40.439  14.413
77614W        W41173  12.720  43.406  11.612
77615W        W41174  30.589  15.093   2.779
77616W        W41175   9.275  25.508  11.938
77617W        W41176  10.717  32.429   0.915
77618W        W41177  40.393  44.307  10.963
77619W        W41178  14.113   5.382   4.831
77620W        W41179   9.383  31.631   2.398
77621W        W41180  42.966  19.047   2.199
77622W        W41181  38.449   0.319  13.816
77623W        W41182   5.712  26.575  12.382
77624W        W41183  23.198   9.654  13.922
77625W        W41184  41.492  22.738  12.931
77626W        W41185  22.114  31.962   9.940
77627W        W41186  28.591  39.829   1.384
77628W        W41187  37.865  43.279  12.424
77629W        W41188  15.656   5.705  10.408
77630W        W41189   4.425  27.452   2.274
77631W        W41190   2.734  19.761   3.198
77632W        W41191  26.985  11.203  14.968
77633W        W41192  42.318  24.043   0.928
77634W        W41193  37.935  37.545   4.822
77635W        W41194  19.215   6.849   3.341
77636W        W41195   5.813  11.856  14.818
77637W        W41196   7.334   9.710   1.935
77638W        W41197  34.474   1.385  12.374
77639W        W41198   7.784   5.877   0.352
77640W        W41199   8.364  17.263  12.987
77641W        W41200  24.217  21.657  10.626
77642W        W41201  14.590  39.418  13.965
77643W        W41202  18.586  37.414   0.736
77644W        W41203   3.299  31.419   4.271
77645W        W41204   4.769  22.650   2.754
77646W        W41205  25.214  38.454   0.463
77647W        W41206  11.288  29.608  14.347
77648W        W41207  11.688  32.455   0.322
77649W        W41208  36.356  14.277  13.809
77650W        W41209   1.323  42.805   3.341
77651W        W41210  20.681  29.455   2.701
77652W        W41211   3.885  29.607   0.290
77653W        W41212   6.737  38.420   2.403
77654W        W41213  20.199  13.171  12.516
77655W        W41214  39.033  43.919   0.904
77656W        W41215  38.522  33.023  14.968
77657W        W41216  36.897  12.635   4.757
77658W        W41217   7.889   3.450   5.207
77659W        W41218  42.522   3.303  14.769
77660W        W41219  25.525  39.399  10.564
77661W        W41220  22.647  10.150  13.536
77662W        W41221  41.994  22.142  14.508
77663W        W41222  12.334  14.210   1.330
77664W        W41223   1.890  38.821  11.489
77665W        W41224  42.895  24.146  12.928
77666W        W41225  33.490  43.957  14.379
77667W        W41226  42.337   3.286   5.153
77668W        W41227  39.974   8.281  12.922
77669W        W41228   1.306  42.508   2.821
77670W        W41229  38.930  11.841   4.761
77671W        W41230   6.735  39.829   1.935
77672W        W41231  12.150   1.246  11.519
77673W        W41232  27.534  17.216  10.422
77674W        W41233  29.120   7.210   3.291
77675W        W41234   3.327  18.774   0.879
77676W        W41235  16.105  42.393  14.339
77677W        W41236  21.697   7.881  14.023
77678W        W41237  13.794  17.767  14.296
77679W        W41238   9.718  24.628   1.914
77680W        W41239  42.511  20.574   0.260
77681W        W41240   2.409   5.693  11.597
77682W        W41241  15.187  26.139  12.048
77683W        W41242  27.948  28.177  12.876
77684W        W41243   5.805  37.994  13.394
77685W        W41244   9.181   4.340   0.825
77686W        W41245  43.479  25.632   4.132
77687W        W41246  22.699  22.569   3.639
77688W        W41247  42.923  13.168  14.291
77689W        W41248   6.866  15.106   0.826
77690W        W41249   0.818  13.701  11.994
77691W        W41250  44.860  36.970  14.028
77692W        W41251  17.210  30.072  13.838
77693W        W41252  33.600  28.043   1.403
77694W        W41253   4.339  10.690   2.711
77695W        W41254  42.296   2.317   2.265
77696W        W41255  27.183   7.256  13.806
77697W        W41256  31.022  22.680  14.895
77698W        W41257  41.343  13.836   0.268
77699W        W41258   0.764   6.341   3.664
77700W        W41259  44.852  23.058   2.359
77701W        W41260  19.099  14.825  13.319
77702W        W41261  19.231  40.321  14.352
77703W        W41262  17.144  16.707  13.796
77704W        W41263  25.018  12.619   4.662
77705W        W41264   1.383  12.704  14.428
77706W        W41265  25.650  14.096  14.362
77707W        W41266  14.162  31.434   4.168
77708W        W41267  34.450  21.214   2.295
77709W        W41268  28.064   8.655  13.512
77710W        W41269  39.436  38.436   3.686
77711W        W41270  36.965  37.367  14.927
77712W        W41271  17.645   3.927   0.328
77713W        W41272  32.568   9.160  11.429
77714W        W41273   2.921  31.452  11.922
77715W        W41274  28.098  38.869  10.615
77716W        W41275  11.281  18.690   4.785
77717W        W41276  34.951  21.096  13.481
77718W        W41277  23.160  22.727  12.902
77719W        W41278  24.547  44.370  11.002
77720W        W41279  11.147   8.736  13.409
77721W        W41280  29.531  39.349   3.209
77722W        W41281  21.614  30.571   0.249
77723W        W41282   5.889  18.279  13.036
77724W        W41283  14.747  27.463  14.016
77725W        W41284  29.568  30.967  10.573
77726W        W41285   5.847  31.135  12.453
77727W        W41286  39.043  34.431  10.969
77728W        W41287  42.334  17.097   1.858
77729W        W41288  31.511  11.140   0.916
77730W        W41289  21.077   9.169   2.881
77731W        W41290  40.994   2.872  12.501
77732W        W41291  32.905   3.440  14.839
77733W        W41292  27.950  24.163   4.203
77734W        W41293  34.538  29.551   3.151
77735W        W41294  30.440   4.413  10.977
77736W        W41295  37.346   1.295   4.672
77737W        W41296  21.173  42.403  13.408
77738W        W41297  36.428  21.100   4.315
77739W        W41298  40.876   7.831  12.040
77740W        W41299   3.334  28.547   1.709
77741W        W41300  39.350  42.849   5.253
77742W        W41301  26.574  42.965  14.307
77743W        W41302  23.575  31.495  14.918
77744W        W41303  44.273   4.743   1.911
77745W        W41304  44.370  13.230  11.454
77746W        W41305  37.450   0.867   0.351
77747W        W41306  26.662  39.808  10.071
77748W        W41307  42.367  25.664   1.878
77749W        W41308  23.661   4.309   0.951
77750W        W41309  17.796  28.473   1.217
77751W        W41310  21.243  25.489   3.694
77752W        W41311  23.113  13.768  13.005
77753W        W41312  24.549  11.233   0.328
77754W        W41313  41.338  15.161  10.576
77755W        W41314  35.982  34.437   3.811
77756W        W41315  31.060   5.262   0.387
77757W        W41316  32.611   1.357  12.527
77758W        W41317  12.214  23.107   1.325
77759W        W41318   0.859  11.740   1.912
77760W        W41319  36.541  16.593   2.744
77761W        W41320  16.755  35.545  12.002
77762W        W41321  18.088   3.239   3.815
77763W        W41322   9.394  26.627  14.429
77764W        W41323  39.811   5.265   2.866
77765W        W41324  38.943   0.455  12.022
77766W        W41325  37.000  13.628   2.873
77767W        W41326   3.421   5.730  14.444
77768W        W41327  17.092  19.263  12.414
77769W        W41328   4.315  40.944  13.502
77770W        W41329  34.021  23.224  12.044
77771W        W41330   6.336   6.884  14.444
77772W        W41331  44.799  29.432  10.620
77773W        W41332  13.740  15.736   2.329
77774W        W41333  30.576  32.549  12.970
77775W        W41334   6.813   7.231  10.511
77776W        W41335  33.617  25.983  13.488
77777W        W41336   7.297  44.403   0.451
77778W        W41337   6.391  30.515  13.814
77779W        W41338   5.231  20.122  11.005
77780W        W41339  26.665  25.219  14.809
77781W        W41340  42.408  10.689  12.948
77782W        W41341  41.443   8.809   2.794
77783W        W41342   5.933  10.362   0.914
77784W        W41343   3.717  24.164   2.416
77785W        W41344  14.272   8.749  11.060
77786W        W41345  24.532   6.220   1.253
77787W        W41346  42.455  30.961  12.078
77788W        W41347   1.965  13.259  11.948
77789W        W41348  23.597  20.744   4.262
77790W        W41349  40.912  18.069  12.435
77791W        W41350  12.702  34.965  14.929
77792W        W41351  13.329  19.250  12.950
77793W        W41352   6.361  37.029   2.667
77794W        W41353  24.652  22.651  12.453
77795W        W41354   4.892  42.965   1.796
77796W        W41355   4.284  34.570   3.301
77797W        W41356   0.469  33.026   1.826
77798W        W41357  18.088  10.779  13.329
77799W        W41358  11.792  40.818  13.964
77800W        W41359  42.479  28.971   3.203
77801W        W41360   3.281  20.758  12.418
77802W        W41361  33.492  13.170   3.842
77803W        W41362  42.804  28.021  13.960
77804W        W41363  29.540  35.087  12.092
77805W        W41364  26.641  12.764  11.079
77806W        W41365   7.764  17.708  13.509
77807W        W41366  36.581  35.568  13.793
77808W        W41367  40.405  11.258  11.094
77809W        W41368   9.176  24.036   5.279
77810W        W41369  23.204  15.677  12.892
77811W        W41370  32.514  30.502   1.712
77812W        W41371  24.022  22.522  13.947
77813W        W41372  39.339  26.076  10.430
77814W        W41373  12.736   4.899   0.884
77815W        W41374  26.089  20.239  14.467
77816W        W41375  17.262   5.240  10.911
77817W        W41376  28.544   6.858   0.260
77818W        W41377   5.355   9.158   1.426
77819W        W41378  19.579  43.278  11.023
77820W        W41379  34.968   6.832  12.092
77821W        W41380   5.841   9.801  14.502
77822W        W41381  20.035  38.369   3.294
77823W        W41382  20.251  40.003   2.745
77824W        W41383   1.774  35.047  13.878
77825W        W41384  41.851  24.213   2.248
77826W        W41385  21.700   5.364   2.216
77827W        W41386  38.456   6.897   1.338
77828W        W41387  29.494  11.802  13.803
77829W        W41388   5.746  35.979   0.940
77830W        W41389  26.171  33.926   1.759
77831W        W41390  15.586  18.269   3.217
77832W        W41391   3.914   8.381  11.900
77833W        W41392  23.543  30.010  10.606
77834W        W41393  36.937  21.131  13.005
77835W        W41394  27.609  32.068   4.299
77836W        W41395  17.086  42.463  12.866
77837W        W41396  17.096  34.110   0.310
77838W        W41397  17.753  36.869  14.338
77839W        W41398  42.445  33.117   1.833
77840W        W41399   0.894   8.714   1.396
77841W        W41400  15.596  44.920   2.898
77842W        W41401  41.344  33.018   2.290
77843W        W41402  29.143  40.839  14.868
77844W        W41403  19.545  44.395   0.476
77845W        W41404   1.252  34.457   3.640
77846W        W41405   8.821  38.466   3.219
77847W        W41406  35.992   2.438   3.765
77848W        W41407  44.953  18.608   2.311
77849W        W41408  10.146  17.247  12.546
77850W        W41409   0.440  32.423  12.932
77851W        W41410  28.625  29.960   2.359
77852W        W41411  14.803  39.996   4.339
77853W        W41412   9.353  14.735  10.963
77854W        W41413   4.927  29.447  13.000
77855W        W41414  33.960  39.471  12.983
77856W        W41415   3.355  31.094   3.689
77857W        W41416  21.226  18.237  14.889
77858W        W41417  32.574   7.900  12.928
77859W        W41418  36.534  32.501  11.561
77860W        W41419  16.615  30.922  12.556
77861W        W41420   4.350  15.623   4.672
77862W        W41421  39.849  29.457  11.515
77863W        W41422  26.503  15.819  12.513
77864W        W41423  34.000  38.327  10.887
77865W        W41424   2.340   7.807   3.241
77866W        W41425   4.427   4.207   2.308
77867W        W41426   4.293   0.787   4.622
77868W        W41427  10.222  26.030  14.940
77869W        W41428  44.962   0.319  11.384
77870W        W41429  35.581   1.732   2.385
77871W        W41430  31.420  38.834   4.318
77872W        W41431  12.663  13.241   1.728
77873W        W41432  34.554   6.921  13.405
77874W        W41433  11.854  22.102  13.982
77875W        W41434  15.820  42.810  13.404
77876W        W41435   4.886  33.410   2.894
77877W        W41436  30.502  24.120   4.683
77878W        W41437  17.565  24.006  11.400
77879W        W41438  31.896  24.982  13.528
77880W        W41439  37.453  35.432   5.235
77881W        W41440   1.374  38.920  14.298
77882W        W41441  31.609  41.877   4.681
77883W        W41442  17.751  10.245   0.291
77884W        W41443   5.919   1.826   4.749
77885W        W41444  43.942   6.914  11.905
77886W        W41445   0.956  25.072   3.331
77887W        W41446  28.536  12.819  12.860
77888W        W41447  31.540  29.103   2.311
77889W        W41448  42.958  35.469  14.913
77890W        W41449   4.896  15.691  12.358
77891W        W41450  25.470  32.532   0.276
77892W        W41451   8.221   9.758  13.440
77893W        W41452  43.810   2.277   4.113
77894W        W41453   8.312  22.236   2.738
77895W        W41454  33.448  38.546   1.752
77896W        W41455  25.032  22.998  12.384
77897W        W41456   7.215  19.678  12.550
77898W        W41457  23.559  41.519   3.344
77899W        W41458  22.148  42.882   0.823
77900W        W41459  13.120   8.366  12.570
77901W        W41460  30.558   8.785   4.704
77902W        W41461  25.963  12.221  13.909
77903W        W41462  30.938   8.336  14.368
77904W        W41463  34.589  11.860  12.845
77905W        W41464   2.446  19.142  14.503
77906W        W41465  14.194   1.909   3.725
77907W        W41466  13.775   2.874  11.423
77908W        W41467  40.427   9.752   2.344
77909W        W41468  12.157   4.232   4.284
77910W        W41469  24.172  12.286   2.189
77911W        W41470  25.090  36.039  13.343
77912W        W41471  40.995   3.268  11.599
77913W        W41472  13.197  40.338   5.108
77914W        W41473  31.913  33.468  12.994
77915W        W41474  31.910  35.040   3.174
77916W        W41475  17.566  44.858   4.789
77917W        W41476  16.138  22.197   0.252
77918W        W41477  30.997  38.518   2.681
77919W        W41478  19.690  17.669  14.002
77920W        W41479  27.619  34.936  11.119
77921W        W41480  38.539  42.283   3.748
77922W        W41481  35.086  17.181  11.571
77923W        W41482  26.101   9.792  12.371
77924W        W41483  30.951  16.194  12.924
77925W        W41484  44.275   0.938  14.758
77926W        W41485  29.051   9.723  12.069
77927W        W41486  11.815  19.687   0.923
77928W        W41487   2.737   6.288  13.907
77929W        W41488  27.073  16.137   0.268
77930W        W41489  38.851  12.168  10.594
77931W        W41490  31.579  20.570   0.299
77932W        W41491  24.595  29.613   0.434
77933W        W41492  40.424  31.079  10.626
77934W        W41493   9.796   5.711   2.866
77935W        W41494  39.057   0.474   1.320
77936W        W41495  34.396  26.634  13.961
77937W        W41496  44.322  39.343   4.776
77938W        W41497  15.127  42.410   1.438
77939W        W41498  22.201   4.746  14.823
77940W        W41499  37.459  28.183  12.478
77941W        W41500  32.004   8.306   0.930
77942W        W41501   7.391  20.161   3.745
77943W        W41502  38.362  34.579   2.386
77944W        W41503  10.169   4.437  13.394
77945W        W41504   9.733  15.641  12.507
77946W        W41505  40.340   1.356  13.940
77947W        W41506  10.319  16.761  13.032
77948W        W41507  17.304  39.494   4.679
77949W        W41508  42.794  25.498  12.506
77950W        W41509  18.171  32.953   0.795
77951W        W41510  23.068  38.518   0.361
77952W        W41511  27.033   9.813  11.578
77953W        W41512   5.264   0.342  10.540
77954W        W41513  18.153  34.558   4.722
77955W        W41514  17.272   8.192  12.995
77956W        W41515  12.277  32.414   2.204
77957W        W41516  10.633  25.147  11.879
77958W        W41517  29.022  25.973   3.304
77959W        W41518  36.096  10.645   4.809
77960W        W41519   6.849  41.375  12.077
77961W        W41520   5.334   3.890  11.500
77962W        W41521  36.968  43.765   1.836
77963W        W41522  15.328   7.871   4.170
77964W        W41523   3.869  40.050  12.380
77965W        W41524  31.940   7.809  12.871
77966W        W41525  12.827  15.126   3.221
77967W        W41526  42.963  41.044   3.647
77968W        W41527  17.755  31.901  13.515
77969W        W41528  19.263  25.521  14.355
77970W        W41529  17.708  12.249  10.934
77971W        W41530  42.975  21.166  12.411
77972W        W41531   2.773  32.635  14.361
77973W        W41532  13.787  19.120   2.306
77974W        W41533   8.265  27.474  12.414
77975W        W41534  41.531  18.609  11.032
77976W        W41535   2.236  17.080   0.340
77977W        W41536  10.223   2.957   4.609
77978W        W41537  19.603  26.688  12.932
77979W        W41538   0.472  25.480  11.487
77980W        W41539  30.528  22.515  12.550
77981W        W41540  14.323  15.589  14.849
77982W        W41541   7.357  40.478   1.430
77983W        W41542   2.246  34.979   1.444
77984W        W41543  39.035  13.712  11.005
77985W        W41544  20.681  42.941  10.455
77986W        W41545  24.979  39.425   1.779
77987W        W41546  15.110   4.213   3.378
77988W        W41547  27.019  17.260  10.106
77989W        W41548  32.411  36.430   2.769
77990W        W41549  17.727   9.214   0.314
77991W        W41550  36.392  13.677  11.585
77992W        W41551  30.643  23.078  11.915
77993W        W41552  28.121  24.589   2.221
77994W        W41553  17.649  19.728   3.251
77995W        W41554   7.668  43.455   4.164
77996W        W41555   7.360  33.487   3.385
77997W        W41556   3.214  44.999  11.859
77998W        W41557  10.247  14.179   2.341
77999W        W41558  17.127   5.295  13.814
78000W        W41559  13.725  35.423   5.216
78001W        W41560  19.684  36.424   1.213
78002W        W41561  41.817  23.189  11.435
78003W        W41562  40.428  23.498   3.378
78004W        W41563  32.475  11.737   2.395
78005W        W41564   6.405  43.323   4.182
78006W        W41565  39.370  13.603   2.679
78007W        W41566  41.961   2.256   4.140
78008W        W41567  27.107  28.108  13.998
78009W        W41568  11.128  17.273   3.779
78010W        W41569  32.984  39.492   1.388
78011W        W41570  24.123  33.529   0.936
78012W        W41571   8.707  20.640   3.328
78013W        W41572  38.991  20.219   2.318
78014W        W41573  16.808   7.693  11.060
78015W        W41574  14.694  18.583   4.221
78016W        W41575  17.260  31.104   4.210
78017W        W41576  18.766  28.572  14.307
78018W        W41577  20.529  27.491  11.555
78019W        W41578   8.723   1.369  12.578
78020W        W41579  16.190   1.764  14.789
78021W        W41580  31.554  38.350  13.443
78022W        W41581  13.773  39.052  10.599
78023W        W41582   3.745  42.960   2.206
78024W        W41583  14.123  21.247  12.021
78025W        W41584  40.326  24.669   3.870
78026W        W41585  11.724   2.314  12.914
78027W        W41586  10.156  22.118   3.687
78028W        W41587  16.134  37.873   3.220
78029W        W41588  14.239  27.104  13.487
78030W        W41589  17.624  14.719  13.542
78031W        W41590  30.060  43.941   0.369
78032W        W41591  13.254  25.691  11.435
78033W        W41592  27.618  36.384  11.998
78034W        W41593   5.356  37.899  13.969
78035W        W41594  29.488  22.700  13.913
78036W        W41595  36.054  42.022   1.846
78037W        W41596  40.025  34.438  14.371
78038W        W41597  39.507  34.923  14.025
78039W        W41598   2.878  32.620  12.024
78040W        W41599  30.541  20.189   2.209
78041W        W41600  14.239  12.359  13.494
78042W        W41601   7.821   8.207  12.885
78043W        W41602   0.985   0.269  14.920
78044W        W41603  32.403  19.145  12.459
78045W        W41604  23.624  25.679   4.651
78046W        W41605  24.549  33.932  12.095
78047W        W41606  27.168  18.160  14.833
78048W        W41607  21.123  31.448  12.080
78049W        W41608  27.163  22.605  11.436
78050W        W41609  13.757  26.565   2.201
78051W        W41610  28.530  25.064  12.579
78052W        W41611   7.364   8.700  12.055
78053W        W41612   8.309  39.877  11.427
78054W        W41613  36.981   1.915   2.387
78055W        W41614  12.678   6.778   9.998
78056W        W41615  11.721  30.046   3.238
78057W        W41616  24.573  19.672  11.872
78058W        W41617  15.682  38.521  13.365
78059W        W41618  12.682  42.029   2.742
78060W        W41619  14.131  26.972  13.841
78061W        W41620  18.706   0.490  13.513
78062W        W41621  31.501  36.076   1.886
78063W        W41622   1.951   5.355  10.893
78064W        W41623   4.752  27.102  10.495
78065W        W41624  24.041  42.009  13.486
78066W        W41625  15.116  44.427  14.354
78067W        W41626   1.466  32.983  12.006
78068W        W41627  10.847  10.157  10.078
78069W        W41628  11.631  33.416  12.457
78070W        W41629  44.917  43.452   1.291
78071W        W41630  27.550  27.121   3.684
78072W        W41631  17.200  32.594  11.497
78073W        W41632  24.093   4.401  13.965
78074W        W41633  25.561  40.880  11.105
78075W        W41634  33.062  27.146   0.339
78076W        W41635  13.788  16.655   4.282
78077W        W41636  41.041  16.301   1.762
78078W        W41637   8.768   6.874  14.837
78079W        W41638  20.635   0.813   2.314
78080W        W41639   5.927  25.058   0.398
78081W        W41640  31.917  28.510   0.871
78082W        W41641  12.807  26.678   4.125
78083W        W41642  13.331  12.683  13.815
78084W        W41643  29.639  32.520   2.669
78085W        W41644  24.208  19.249  10.583
78086W        W41645  39.033   7.387   4.152
78087W        W41646  26.479   4.728   4.789
78088W        W41647  38.946  18.266   2.752
78089W        W41648  34.512   7.898  13.308
78090W        W41649   0.438  29.479  12.354
78091W        W41650  22.555  37.061   2.345
78092W        W41651  31.501   1.382   0.402
78093W        W41652  30.601  33.588   0.798
78094W        W41653  24.655  14.282  13.424
78095W        W41654   0.464  30.142  14.858
78096W        W41655  30.141  18.790  12.865
78097W        W41656  31.018   6.216   2.386
78098W        W41657  36.585  11.290  13.020
78099W        W41658   5.918  29.529  14.511
78100W        W41659  35.950   4.330  11.466
78101W        W41660  12.321  34.017  14.017
78102W        W41661  39.870  14.750  10.445
78103W        W41662  29.961   8.170   2.789
78104W        W41663  36.388  22.726  11.415
78105W        W41664  11.681  27.054   1.273
78106W        W41665  37.992  20.653  10.558
78107W        W41666  12.246   3.423   4.147
78108W        W41667  41.337   4.360  14.443
78109W        W41668  33.996  31.500   3.724
78110W        W41669   2.806  24.080   3.668
78111W        W41670   9.244  21.116   4.253
78112W        W41671  38.063  20.602   2.342
78113W        W41672  41.840  33.947   1.851
78114W        W41673   5.865  12.187  11.903
78115W        W41674  10.654   4.879  14.923
78116W        W41675  36.539  31.067   2.207
78117W        W41676  34.375  21.641   4.675
78118W        W41677  34.590  23.562  13.956
78119W        W41678  26.993  24.070   2.281
78120W        W41679  42.895  29.439  12.440
78121W        W41680  29.047   9.287  13.324
78122W        W41681   6.861  12.290  14.997
78123W        W41682  24.587  40.500  13.970
78124W        W41683  17.208  26.118   4.783
78125W        W41684  36.853   2.442   0.849
78126W        W41685  14.830   1.841   4.202
78127W        W41686  29.129  43.894  11.430
78128W        W41687  35.404  23.640  11.012
78129W        W41688  30.101  16.204  13.924
78130W        W41689  26.066  37.987   4.126
78131W        W41690  35.443  40.899  11.570
78132W        W41691  12.804   5.260  12.389
78133W        W41692  36.507  27.647   3.718
78134W        W41693  18.790   5.741   2.214
78135W        W41694  15.787  32.128   4.779
78136W        W41695  19.741  19.273  12.910
78137W        W41696   1.432  10.771   4.117
78138W        W41697  25.468  15.114   2.288
78139W        W41698  42.002  43.292  13.796
78140W        W41699  32.495  15.681   4.273
78141W        W41700   4.789  40.392  13.902
78142W        W41701   4.924  31.152  13.815
78143W        W41702  23.065  17.072  14.346
78144W        W41703  33.536  19.167  14.946
78145W        W41704  22.712  15.150   2.877
78146W        W41705  44.924  13.633   2.352
78147W        W41706   2.313  12.772   5.127
78148W        W41707   0.356  32.486   2.284
78149W        W41708   2.445   3.808   4.118
78150W        W41709  21.050  29.016  10.028
78151W        W41710   8.778   2.418  10.949
78152W        W41711  37.539  33.069  13.047
78153W        W41712   7.787  20.028   4.353
78154W        W41713   5.828  37.400   1.222
78155W        W41714  27.532  31.476   0.899
78156W        W41715   5.876   9.254  12.039
78157W        W41716  27.109   9.676   4.668
78158W        W41717  17.637  25.036   4.332
78159W        W41718  23.209  31.438   2.253
78160W        W41719  13.782  10.804   3.685
78161W        W41720  19.548   2.816  13.398
78162W        W41721   2.307  17.288   4.204
78163W        W41722  26.983  16.661  11.612
78164W        W41723   4.279  41.424  14.004
78165W        W41724  11.630   0.815   3.318
78166W        W41725  38.570  44.908  12.960
78167W        W41726  36.520  17.667  14.906
78168W        W41727  29.561  27.079   4.606
78169W        W41728  24.720  42.013   3.321
78170W        W41729  15.716  19.545   2.293
78171W        W41730   8.780  21.675  11.540
78172W        W41731  34.953  16.278   4.249
78173W        W41732   6.760  24.162  10.959
78174W        W41733   6.229   1.277   1.452
78175W        W41734  39.993  21.536   4.306
78176W        W41735  29.084  44.494   3.320
78177W        W41736  23.034  42.476   4.611
78178W        W41737  40.481  22.125  13.324
78179W        W41738  27.644  22.555  12.063
78180W        W41739   3.863  19.101   0.934
78181W        W41740  37.917  33.087   9.964
78182W        W41741  11.349  10.249   3.797
78183W        W41742  42.340  43.778  13.969
78184W        W41743  31.555  32.110   4.742
78185W        W41744  29.925  11.165   3.307
78186W        W41745  10.752  29.442   2.773
78187W        W41746   4.932  23.720  11.033
78188W        W41747  19.572  22.228  14.007
78189W        W41748  11.859  24.489   4.709
78190W        W41749  17.694  43.791  13.512
78191W        W41750  22.054  35.383  11.041
78192W        W41751  28.018   3.271   5.261
78193W        W41752   8.347   2.334   2.394
78194W        W41753  42.488  32.010  13.527
78195W        W41754  17.287  12.721   2.753
78196W        W41755  33.994  13.707   4.282
78197W        W41756   0.789  44.831   4.307
78198W        W41757   5.234  16.210   1.335
78199W        W41758  25.082  32.017  12.953
78200W        W41759  35.499  23.229   0.250
78201W        W41760  41.940  33.878   0.245
78202W        W41761  11.751  29.040  11.071
78203W        W41762  13.308  42.424  14.302
78204W        W41763  44.792  30.966  10.622
78205W        W41764  30.909  19.569  11.611
78206W        W41765  42.508  17.768   0.370
78207W        W41766  20.186   1.870  11.915
78208W        W41767  22.093  13.126  14.792
78209W        W41768  34.916  14.181   4.272
78210W        W41769  16.289  11.752  11.029
78211W        W41770  40.900   1.267  13.492
78212W        W41771  44.487  40.312   0.380
78213W        W41772   7.751  38.538  12.502
78214W        W41773  32.927  41.538   1.901
78215W        W41774  30.995  42.854   4.649
78216W        W41775   7.766  11.250  14.779
78217W        W41776  19.227  43.507   1.813
78218W        W41777   4.403  37.884   4.683
78219W        W41778   5.432  43.515   4.623
78220W        W41779  34.503  32.001  11.548
78221W        W41780   6.865  18.689  11.500
78222W        W41781  20.061  30.932   4.165
78223W        W41782   4.391   7.724   3.862
78224W        W41783   2.264  40.395  11.603
78225W        W41784   5.815   5.910  11.890
78226W        W41785  32.414   1.813   1.858
78227W        W41786  41.871  15.729   4.774
78228W        W41787   0.263  35.449   0.424
78229W        W41788  10.691  39.372  14.426
78230W        W41789   9.301   6.407  14.822
78231W        W41790  21.087   8.362   3.797
78232W        W41791  23.207  30.068   3.787
78233W        W41792   6.347  27.940  12.382
78234W        W41793  16.767   0.406  10.513
78235W        W41794  13.190  32.535   4.157
78236W        W41795  26.970  21.028  12.458
78237W        W41796   2.835   4.915  12.002
78238W        W41797  12.295  22.120   3.206
78239W        W41798  41.800  21.029  12.026
78240W        W41799  33.115  16.577   4.268
78241W        W41800  12.347  18.293  12.927
78242W        W41801   1.736  22.685   0.264
78243W        W41802   5.756  10.687  13.860
78244W        W41803  24.611  14.634  11.126
78245W        W41804   7.238  11.176   2.862
78246W        W41805  33.918   8.767   1.702
78247W        W41806  36.936  32.077   1.840
78248W        W41807  39.350   9.373  10.974
78249W        W41808  10.871  11.162  13.424
78250W        W41809  11.805   4.752   3.324
78251W        W41810  13.796  31.053   4.763
78252W        W41811  40.988  22.200   3.676
78253W        W41812   2.944  33.013  14.971
78254W        W41813   6.784  39.399  13.546
78255W        W41814  44.960   4.866   0.955
78256W        W41815  24.519  34.035  13.013
78257W        W41816  20.080  41.824   4.280
78258W        W41817  37.067  22.248   1.881
78259W        W41818  44.793   1.953   5.183
78260W        W41819  11.834  35.409   5.630
78261W        W41820  44.264  16.072  12.908
78262W        W41821  43.881  40.446  11.531
78263W        W41822  39.010  12.243   3.331
78264W        W41823  15.215  43.006   1.753
78265W        W41824   4.772  36.877   2.897
78266W        W41825  34.934  23.608  12.571
78267W        W41826  23.524  21.526   0.361
78268W        W41827  29.113  22.023   2.736
78269W        W41828  42.983  14.671   4.814
78270W        W41829  43.364   2.938  11.553
78271W        W41830  38.948  39.879  14.974
78272W        W41831  16.270   0.273  11.576
78273W        W41832  27.481  22.647  13.385
78274W        W41833   3.752  20.664   4.151
78275W        W41834  40.878  32.934   0.283
78276W        W41835  42.026  15.631  14.859
78277W        W41836  20.146  38.394  11.381
78278W        W41837  10.843  32.450   0.434
78279W        W41838  20.178  26.126   1.763
78280W        W41839  23.097  44.856   4.299
78281W        W41840   6.894  24.102   4.281
78282W        W41841   8.900  40.344   1.348
78283W        W41842  41.505  22.697   1.219
78284W        W41843  18.160   4.360  13.342
78285W        W41844  11.683  12.218  11.060
78286W        W41845  15.634   7.733   2.408
78287W        W41846  29.991  38.028  12.983
78288W        W41847  41.528   2.442  14.480
78289W        W41848  40.420  21.077  14.849
78290W        W41849  18.681  21.639  14.014
78291W        W41850   4.934  39.937   2.901
78292W        W41851  10.212  37.478  11.952
78293W        W41852  13.629  31.542   4.119
78294W        W41853  10.241  29.012   1.911
78295W        W41854   8.720   4.323  14.927
78296W        W41855   4.920  32.023   5.201
78297W        W41856  18.186   2.875   2.860
78298W        W41857   8.370  42.916  13.811
78299W        W41858  44.928  25.627   4.131
78300W        W41859  28.501  32.521   0.802
78301W        W41860  42.968  26.560  11.021
78302W        W41861  18.222  15.776  13.952
78303W        W41862  42.285  25.021  14.924
78304W        W41863  40.801   1.300  13.985
78305W        W41864  16.266  23.637  11.557
78306W        W41865  19.184  33.429   2.345
78307W        W41866  37.441  23.620   0.316
78308W        W41867   1.835   1.272  12.561
78309W        W41868  10.360  38.001   3.834
78310W        W41869  25.998  18.081   0.872
78311W        W41870  29.523  33.463  10.424
78312W        W41871  32.006  14.207   3.271
78313W        W41872  12.270  32.479  12.824
78314W        W41873   7.337  18.236   2.229
78315W        W41874  29.971  30.637   4.341
78316W        W41875   8.347  29.628  12.038
78317W        W41876  39.395  37.947  12.005
78318W        W41877  10.216   2.908  13.868
78319W        W41878   7.883  37.888   3.344
78320W        W41879  30.985   9.224  10.517
78321W        W41880   8.303  19.763  14.300
78322W        W41881   9.326  35.932   2.688
78323W        W41882  26.657  16.114   1.732
78324W        W41883  34.604  19.631  13.936
78325W        W41884  26.652  13.305  13.548
78326W        W41885  25.030  11.705   2.720
78327W        W41886  35.517  27.571  13.999
78328W        W41887   2.351  20.198  13.926
78329W        W41888  29.655  30.089  14.468
78330W        W41889   5.396  17.776   0.288
78331W        W41890  15.708  41.986   0.370
78332W        W41891  42.412   5.925  13.988
78333W        W41892  41.817  24.684  14.863
78334W        W41893  23.029  26.184  10.928
78335W        W41894  42.364  18.605   1.445
78336W        W41895  44.973   3.921   2.246
78337W        W41896  22.546  35.537  13.822
78338W        W41897  41.440  26.009  11.117
78339W        W41898  42.032   3.252  10.467
78340W        W41899  38.346  28.941   3.822
78341W        W41900  28.018  19.239  12.393
78342W        W41901   5.262  27.668  11.518
78343W        W41902  29.452  32.952   0.328
78344W        W41903  20.152  25.640  12.453
78345W        W41904   4.208   6.277   2.319
78346W        W41905   1.961   0.845  11.901
78347W        W41906  31.412  36.357   2.893
78348W        W41907  25.640  31.591   1.358
78349W        W41908  22.159  24.158   0.334
78350W        W41909  18.680   6.853   2.229
78351W        W41910   0.953  38.963   4.204
78352W        W41911   4.243   1.426   0.389
78353W        W41912  44.819  28.170   1.333
78354W        W41913  29.090   7.260   1.751
78355W        W41914  35.413  18.143  10.636
78356W        W41915  30.001  19.606   1.350
78357W        W41916  14.221  13.820   1.697
78358W        W41917  23.104  37.081   1.705
78359W        W41918  24.532  39.527   0.460
78360W        W41919  11.791   1.857   1.783
78361W        W41920   7.279  40.343  12.905
78362W        W41921  16.655  39.427  12.950
78363W        W41922  31.401  28.004   1.395
78364W        W41923   1.851  15.104   3.783
78365W        W41924  44.773  13.274   3.362
78366W        W41925   7.907   9.805   1.351
78367W        W41926  22.096  23.227   1.865
78368W        W41927   0.416  22.681   3.852
78369W        W41928  33.106  38.513   0.957
78370W        W41929  43.846  24.098   1.930
78371W        W41930   4.731  14.142  10.478
78372W        W41931  20.564  36.983  10.408
78373W        W41932  14.734  12.331   0.481
78374W        W41933   2.942  41.831   1.815
78375W        W41934  19.098   8.759  11.549
78376W        W41935   7.732  14.166  14.350
78377W        W41936  10.329  32.506  12.397
78378W        W41937  22.121  30.952   3.699
78379W        W41938  38.429   4.412  13.369
78380W        W41939  12.687  39.023   1.737
78381W        W41940  20.177  17.280   1.369
78382W        W41941  38.531   7.307   3.351
78383W        W41942  23.145  30.603   0.436
78384W        W41943   3.415  24.222  12.373
78385W        W41944  11.355  35.506  10.051
78386W        W41945  39.396  18.737   2.711
78387W        W41946  22.240  29.994   3.787
78388W        W41947  18.219  28.573  10.110
78389W        W41948   1.426  31.428  10.921
78390W        W41949   6.197   3.345  13.831
78391W        W41950   3.860  32.090   4.337
78392W        W41951  33.045  12.320   4.174
78393W        W41952  15.813   7.267   4.161
78394W        W41953   2.405  41.943  14.858
78395W        W41954   7.890  24.048  12.392
78396W        W41955  22.745  26.549  11.545
78397W        W41956  42.390   8.829   1.369
78398W        W41957  44.342  40.322  10.073
78399W        W41958   7.796  36.060   0.385
78400W        W41959  30.616  41.857   2.413
78401W        W41960  43.931   9.662   1.761
78402W        W41961  33.428   0.320  12.372
78403W        W41962  17.139  29.468   3.859
78404W        W41963   9.684  28.538   4.317
78405W        W41964  28.612  12.619  12.077
78406W        W41965  30.927  38.040   2.866
78407W        W41966  38.952   3.287  10.608
78408W        W41967   1.306  38.421   3.185
78409W        W41968  32.125  40.004   3.179
78410W        W41969  21.142  38.964  11.524
78411W        W41970   8.704  38.349  14.888
78412W        W41971  38.326  25.698  12.005
78413W        W41972  43.312   0.885   4.284
78414W        W41973  36.070  19.119   1.357
78415W        W41974   9.825  32.424   1.925
78416W        W41975  31.575  13.293  11.118
78417W        W41976   3.458   1.897  13.496
78418W        W41977   2.879  14.662   3.276
78419W        W41978   1.403  28.572  10.505
78420W        W41979  23.201  39.978  14.817
78421W        W41980  17.694  27.636  12.050
78422W        W41981  19.250  32.617   3.252
78423W        W41982   4.397  27.526   0.471
78424W        W41983  22.643   8.363  12.449
78425W        W41984   1.483  40.943  10.936
78426W        W41985  41.982  38.982   4.274
78427W        W41986  37.477  38.436   2.834
78428W        W41987  37.401   7.211  14.008
78429W        W41988  21.176  14.693   3.837
78430W        W41989  38.439  15.326   0.916
78431W        W41990  29.031   8.801   2.254
78432W        W41991  16.207  26.040   5.085
78433W        W41992   7.408  31.564  14.872
78434W        W41993  40.359  26.620  13.416
78435W        W41994  35.026  15.807   3.746
78436W        W41995  10.298  32.059   2.898
78437W        W41996  26.499  21.748  14.962
78438W        W41997   5.418  43.938  12.379
78439W        W41998  44.405  10.844  13.307
78440W        W41999  38.385  19.586   4.627
78441W        W42000   0.290  19.680  11.516
78442W        W42001  14.164  39.867  13.004
78443W        W42002  39.430   1.473   1.893
78444W        W42003  13.241   2.791   3.772
78445W        W42004  19.648   5.721  11.958
78446W        W42005  14.286  41.378  11.461
78447W        W42006  25.686  23.515   1.896
78448W        W42007  31.537  26.177   2.407
78449W        W42008  32.934  27.499   0.398
78450W        W42009  29.934  33.991  14.475
78451W        W42010  28.662  40.948  11.570
78452W        W42011   4.339  17.122   3.696
78453W        W42012  26.003  42.283   0.860
78454W        W42013  21.540  38.981   9.950
78455W        W42014  32.467  30.583   0.376
78456W        W42015  40.395   5.431  14.342
78457W        W42016  18.265  26.066  13.326
78458W        W42017   0.944  17.208   3.816
78459W        W42018  15.638   0.385   0.834
78460W        W42019  19.722  27.623  11.129
78461W        W42020  23.539  14.195  11.995
78462W        W42021   7.286  32.619   2.719
78463W        W42022  42.987  39.408   1.223
78464W        W42023   4.787  35.892   3.219
78465W        W42024  24.170  22.171   1.324
78466W        W42025  12.737  27.967  14.307
78467W        W42026  12.663  17.732  13.968
78468W        W42027  12.128  29.468  11.092
78469W        W42028  28.021  39.456   2.340
78470W        W42029  22.658  10.180  12.850
78471W        W42030  28.480  28.002   0.956
78472W        W42031  17.204  24.175  14.775
78473W        W42032  22.095  34.443  12.473
78474W        W42033  39.042  34.464   4.617
78475W        W42034  16.609  27.459  14.415
78476W        W42035  13.335  30.628   3.843
78477W        W42036   0.880  19.757   1.298
78478W        W42037  43.015   0.757   0.935
78479W        W42038  43.838  17.096   3.680
78480W        W42039  19.228  35.888  12.397
78481W        W42040  35.426  12.237   4.166
78482W        W42041   0.863   7.710   4.293
78483W        W42042  10.189   2.898   0.912
78484W        W42043   4.789   3.214  12.905
78485W        W42044  34.913  24.658   1.903
78486W        W42045  34.991  26.992  14.372
78487W        W42046  42.308  40.016  12.898
78488W        W42047  42.944  38.073  12.891
78489W        W42048   4.703  12.661  14.422
78490W        W42049  10.344  42.460   5.263
78491W        W42050   8.761  30.047  13.864
78492W        W42051  28.054  25.985   1.214
78493W        W42052  41.471  38.982  13.005
78494W        W42053  34.467   9.164  12.894
78495W        W42054  22.149   3.716  11.609
78496W        W42055  22.051  22.592   0.329
78497W        W42056  27.637  12.119  12.454
78498W        W42057  18.631  25.211   4.674
78499W        W42058  14.297  36.537  12.560
78500W        W42059  27.084  20.734  12.029
78501W        W42060  14.196  13.327  14.897
78502W        W42061  23.027  42.411  13.849
78503W        W42062  21.144  23.189   5.115
78504W        W42063   4.942  33.477   2.300
78505W        W42064  43.514  20.732  11.861
78506W        W42065  13.842  25.543   3.283
78507W        W42066  28.107  39.474  13.814
78508W        W42067  25.166  14.309   3.663
78509W        W42068  30.048  36.959   3.330
78510W        W42069   5.392  32.988   1.825
78511W        W42070   6.787  36.553   1.694
78512W        W42071  36.852  27.168  11.550
78513W        W42072  26.689  30.616  12.422
78514W        W42073  25.679  18.554  13.916
78515W        W42074   1.321  16.649   4.713
78516W        W42075  17.734  42.001  13.873
78517W        W42076  38.050  30.431   3.714
78518W        W42077  26.596  38.905  14.797
78519W        W42078  43.873   8.258  12.017
78520W        W42079  26.590  13.713  13.848
78521W        W42080   1.974  10.733  11.946
78522W        W42081   6.797  15.150   3.314
78523W        W42082  13.333  41.416  13.381
78524W        W42083  33.567  38.353   0.460
78525W        W42084  37.438   2.956   0.817
78526W        W42085  17.800  34.390   0.756
78527W        W42086   0.820   4.821   3.260
78528W        W42087  34.393  34.116   4.714
78529W        W42088   9.730  15.178  10.029
78530W        W42089  26.147  44.445  14.948
78531W        W42090  43.903  44.010   1.448
78532W        W42091  27.584  10.272   0.242
78533W        W42092  44.393  33.897  12.060
78534W        W42093  36.968  29.926   1.861
78535W        W42094  14.686  39.829  13.794
78536W        W42095  31.532  18.240  11.912
78537W        W42096  14.293   2.348   1.720
78538W        W42097  30.941  30.939  12.408
78539W        W42098   8.255  30.134   4.260
78540W        W42099   4.297  17.766   0.890
78541W        W42100  35.106  43.419   4.208
78542W        W42101   1.379   5.901  12.877
78543W        W42102  16.600  27.111   2.257
78544W        W42103  40.322  40.381  11.092
78545W        W42104  40.815  16.657  11.055
78546W        W42105  14.207  17.618   4.158
78547W        W42106  39.509   7.759  11.935
78548W        W42107  17.265  42.933  12.874
78549W        W42108  35.436  13.158   1.389
78550W        W42109  29.527  19.186   0.464
78551W        W42110   6.914  10.305  12.914
78552W        W42111  42.968  28.945   2.747
78553W        W42112   7.719  27.122  12.849
78554W        W42113   4.902  40.333   1.243
78555W        W42114  13.716  10.211   0.895
78556W        W42115  31.946  32.504  13.308
78557W        W42116  36.424  31.107   3.375
78558W        W42117   9.360   0.789   0.317
78559W        W42118  18.286   4.260   3.156
78560W        W42119  31.595   1.460   3.830
78561W        W42120   5.880   2.812  14.759
78562W        W42121  41.443  35.971  12.425
78563W        W42122  13.319  35.899  14.465
78564W        W42123  32.024  37.949   1.374
78565W        W42124  19.230  19.074  12.008
78566W        W42125  13.314  32.413  10.587
78567W        W42126   9.277  23.549   0.330
78568W        W42127  31.634  32.582  13.394
78569W        W42128  44.824  23.188   1.376
78570W        W42129  34.889  26.044   0.858
78571W        W42130  32.983  34.930   2.799
78572W        W42131  29.507  32.113  11.058
78573W        W42132  24.502  32.414  14.374
78574W        W42133  39.981   1.881   4.778
78575W        W42134   9.698   4.398  14.965
78576W        W42135  29.557  21.742  12.443
78577W        W42136  44.371  39.438  14.829
78578W        W42137   2.313  39.049   4.186
78579W        W42138  33.519  22.076  13.791
78580W        W42139  44.854  15.666   2.749
78581W        W42140  14.268  31.081  12.520
78582W        W42141   1.810  14.614  14.355
78583W        W42142  26.493  37.463   1.801
78584W        W42143   7.854  43.007   1.801
78585W        W42144  13.139  25.518  10.507
78586W        W42145  16.591  14.127  14.775
78587W        W42146  22.038  35.026   2.234
78588W        W42147  19.714  43.286  12.839
78589W        W42148  29.652  34.958  10.594
78590W        W42149  40.431   2.310   3.376
78591W        W42150  23.022  28.977   5.590
78592W        W42151  16.192  17.298   2.888
78593W        W42152  43.825  32.401   4.678
78594W        W42153  42.512   9.327  11.520
78595W        W42154  26.636  36.523  12.540
78596W        W42155  33.515  17.118   3.695
78597W        W42156  13.203  32.517   2.331
78598W        W42157   6.806  20.598   1.299
78599W        W42158   0.443  24.221   4.323
78600W        W42159  35.062  14.755   0.916
78601W        W42160  35.455  35.510  12.970
78602W        W42161  23.511   9.889  12.349
78603W        W42162  42.941  22.556   0.393
78604W        W42163  33.620  23.174   2.273
78605W        W42164  27.633  42.960  11.515
78606W        W42165  41.522  12.834  13.461
78607W        W42166  16.754  41.834  14.026
78608W        W42167  17.709  41.437   4.346
78609W        W42168   3.289  13.757  13.484
78610W        W42169  21.715  29.473  11.076
78611W        W42170   6.378   8.271   2.187
78612W        W42171  16.300  13.746  13.474
78613W        W42172  20.686  21.042   4.685
78614W        W42173  12.763  19.282  10.462
78615W        W42174  15.199  36.088  10.901
78616W        W42175  43.423  30.917   0.320
78617W        W42176  16.669  21.250   3.274
78618W        W42177  29.076   0.955   4.721
78619W        W42178  22.645  25.515   2.831
78620W        W42179  16.698   3.757  11.451
78621W        W42180  31.047   0.935  13.878
78622W        W42181  40.892  12.773   1.425
78623W        W42182  23.574  35.574   1.915
78624W        W42183   2.779   3.751   1.424
78625W        W42184  16.164  21.729   1.727
78626W        W42185   0.421   9.668   3.793
78627W        W42186  43.916  23.058  11.017
78628W        W42187  38.975  27.147   4.145
78629W        W42188  44.259  13.236  14.856
78630W        W42189  43.274  25.502   4.607
78631W        W42190   4.296   6.255   0.410
78632W        W42191  28.590  17.141   4.188
78633W        W42192  39.509  29.135  11.942
78634W        W42193  21.724   1.778   0.383
78635W        W42194  43.893   4.377   0.759
78636W        W42195  23.530  38.827   3.177
78637W        W42196  30.023   0.798   3.366
78638W        W42197   6.410  42.782  10.532
78639W        W42198   1.377   8.700   3.164
78640W        W42199   7.295  31.948   4.658
78641W        W42200  26.619  36.365  12.867
78642W        W42201  37.918   8.251   3.784
78643W        W42202  42.439   1.768  14.459
78644W        W42203  43.362  34.871   2.344
78645W        W42204  19.099  39.973  13.057
78646W        W42205  17.107  19.722   4.705
78647W        W42206  17.658  38.005  12.517
78648W        W42207   5.771  15.740  12.872
78649W        W42208  28.435  39.051  11.483
78650W        W42209  26.163  11.686   2.332
78651W        W42210  29.534  15.128   0.747
78652W        W42211  36.389  14.723  14.968
78653W        W42212  39.059   0.293  13.886
78654W        W42213  32.074   9.384  10.099
78655W        W42214  42.478  24.633   4.829
78656W        W42215  38.071  39.023   2.850
78657W        W42216  16.661  41.304  10.898
78658W        W42217  39.932  28.516  10.471
78659W        W42218  37.447  25.483  14.381
78660W        W42219  29.519  17.710  12.035
78661W        W42220  32.535  15.808   0.437
78662W        W42221  12.655  31.536   2.720
78663W        W42222  15.820   1.477  10.900
78664W        W42223  33.990  13.181   4.611
78665W        W42224  35.443  35.018  13.807
78666W        W42225  21.138  13.703   4.680
78667W        W42226  33.432   5.409   2.294
78668W        W42227  19.731   1.802  14.328
78669W        W42228  23.725  26.608  14.793
78670W        W42229  26.642  21.215  14.009
78671W        W42230   9.803  30.118   2.406
78672W        W42231  34.450  14.207   5.213
78673W        W42232  18.777  44.989   0.361
78674W        W42233   8.755  40.842  13.365
78675W        W42234   4.843   8.236   3.337
78676W        W42235  29.155  39.400   5.175
78677W        W42236   0.293   5.263   0.468
78678W        W42237  38.364  29.531   0.864
78679W        W42238  25.107  39.817  11.539
78680W        W42239  35.950  19.688  10.974
78681W        W42240  14.785  18.690   2.274
78682W        W42241   1.735  42.360   2.406
78683W        W42242  13.746  22.637   3.261
78684W        W42243  40.925  15.728  12.449
78685W        W42244  28.106  20.720  13.916
78686W        W42245  27.975  33.953  13.489
78687W        W42246  17.596  34.988   2.731
78688W        W42247  30.539  37.830  14.429
78689W        W42248   8.657  18.789   5.177
78690W        W42249  15.685  11.348  13.856
78691W        W42250  39.325  21.249  10.612
78692W        W42251  37.522  21.737  12.855
78693W        W42252  15.194  15.299   0.469
78694W        W42253  43.348  35.909  10.579
78695W        W42254  25.006  36.968   0.726
78696W        W42255   4.827   0.451   0.943
78697W        W42256   6.743  20.712  14.294
78698W        W42257  42.961  37.351   0.883
78699W        W42258   0.922   7.894   1.763
78700W        W42259  39.498  34.079  14.457
78701W        W42260  37.358  23.100  13.513
78702W        W42261  39.840  28.976  11.893
78703W        W42262   6.743   4.788   3.346
78704W        W42263  33.625   1.903  12.510
78705W        W42264  44.457  27.179  12.991
78706W        W42265  29.986  21.071  13.852
78707W        W42266  15.212   8.276  14.349
78708W        W42267  24.670  21.240  12.066
78709W        W42268  10.304  29.627  11.080
78710W        W42269  19.577   9.188  14.438
78711W        W42270  38.992  30.529  12.353
78712W        W42271   6.338  34.064  14.289
78713W        W42272   0.294  24.193  14.489
78714W        W42273   4.822   0.408  12.435
78715W        W42274  14.772  26.553   3.632
78716W        W42275   0.791  39.913   1.729
78717W        W42276  36.971  20.230  14.999
78718W        W42277  16.287   4.252   2.712
78719W        W42278  41.952  35.998  11.120
78720W        W42279  27.609  13.740   2.817
78721W        W42280   7.287  10.259   3.771
78722W        W42281  21.066   3.755  14.966
78723W        W42282  44.769  24.050  13.356
78724W        W42283  39.409  33.594  14.998
78725W        W42284  10.311   1.888  13.890
78726W        W42285  31.076  44.381  10.641
78727W        W42286  32.070  32.637   4.234
78728W        W42287  29.572  22.015   1.843
78729W        W42288  22.589   9.222   1.793
78730W        W42289  17.675  15.171   4.788
78731W        W42290   1.764   5.337  14.286
78732W        W42291  13.164  18.149  10.438
78733W        W42292  30.066  23.689  12.930
78734W        W42293  39.366   1.778  10.488
78735W        W42294  33.582   0.432  14.335
78736W        W42295   5.804  20.188  12.063
78737W        W42296  41.314  11.203  11.596
78738W        W42297   3.411  27.124  12.574
78739W        W42298  16.648  37.977   2.235
78740W        W42299  26.999  42.984  11.507
78741W        W42300  21.218   5.783  13.002
78742W        W42301   6.691  28.984  10.424
78743W        W42302  32.922  41.793  12.539
78744W        W42303  42.881  12.739  10.625
78745W        W42304  36.000  29.598  11.527
78746W        W42305  11.824  32.549  14.466
78747W        W42306  19.647   7.281   3.727
78748W        W42307  16.185  20.087  14.859
78749W        W42308   4.701   8.853  10.029
78750W        W42309  25.624  44.796   2.253
78751W        W42310  17.752  43.847   0.911
78752W        W42311  22.609   6.724   2.260
78753W        W42312  40.835  30.510   1.786
78754W        W42313  31.949  22.538  14.767
78755W        W42314  27.152  13.319  11.924
78756W        W42315  23.179  20.747  14.834
78757W        W42316  10.327  44.964  14.771
78758W        W42317  24.162   9.684   5.293
78759W        W42318   0.325   6.731   0.436
78760W        W42319  23.519  20.237   2.335
78761W        W42320  12.684  42.365   0.354
78762W        W42321  33.881  29.583   0.816
78763W        W42322   0.265  43.371  13.431
78764W        W42323  41.864  38.867  11.009
78765W        W42324  12.824   5.198  12.833
78766W        W42325  10.851  33.042  10.961
78767W        W42326  32.601  12.760   2.750
78768W        W42327   7.378   6.855  11.583
78769W        W42328  17.163  40.004   0.787
78770W        W42329  30.424  10.365  10.522
78771W        W42330  22.538  37.341  11.008
78772W        W42331   9.847  26.164  14.916
78773W        W42332  29.613  24.636  12.345
78774W        W42333  25.528   7.387   3.254
78775W        W42334  35.377  44.877   4.209
78776W        W42335   7.778  26.982   2.305
78777W        W42336  43.007  43.836   2.239
78778W        W42337   1.328  20.266   2.834
78779W        W42338  10.294  44.412   4.660
78780W        W42339  42.359  23.153  14.418
78781W        W42340  26.079  38.909   4.744
78782W        W42341  18.211  37.084  14.402
78783W        W42342  44.878  25.138   3.234
78784W        W42343  41.527   7.291   0.809
78785W        W42344  16.211  24.112   3.348
78786W        W42345  30.088  34.954   4.248
78787W        W42346  33.541  35.935  11.888
78788W        W42347   0.962  39.438  14.964
78789W        W42348  36.531  12.306   4.713
78790W        W42349  18.660  26.680  13.908
78791W        W42350  43.893  19.167   2.742
78792W        W42351   0.355  16.308  12.009
78793W        W42352  40.041  40.994   1.361
78794W        W42353   8.695  40.343  11.950
78795W        W42354  30.541  36.572   0.455
78796W        W42355   4.815  26.492  11.080
78797W        W42356  30.051  10.163   1.420
78798W        W42357   8.749  12.275  10.631
78799W        W42358   2.360   0.374  14.820
78800W        W42359  18.180   9.268  11.457
78801W        W42360  44.458  44.934  14.501
78802W        W42361  44.332  29.552  13.525
78803W        W42362  34.376   7.905   2.384
78804W        W42363   1.873  26.030  11.892
78805W        W42364  11.252  38.987   3.198
78806W        W42365   4.213  29.020   1.702
78807W        W42366  42.429  44.470  11.072
78808W        W42367   5.259   4.439  10.491
78809W        W42368   3.823  15.125  13.435
78810W        W42369  39.474  26.149   3.840
78811W        W42370  11.243  15.139   3.305
78812W        W42371  22.030  17.237   4.765
78813W        W42372  20.625   1.292   4.163
78814W        W42373   9.791  23.629   4.817
78815W        W42374  17.586  16.250   0.903
78816W        W42375  35.958  42.490  13.893
78817W        W42376   3.800  21.620  14.824
78818W        W42377  44.892  17.169  12.895
78819W        W42378  25.100  37.580  11.103
78820W        W42379  33.937  11.279   2.823
78821W        W42380  17.126   8.752   1.873
78822W        W42381  23.991  20.241  13.812
78823W        W42382  40.337  38.044  12.010
78824W        W42383  30.564  22.666   1.221
78825W        W42384  16.594   7.733  12.510
78826W        W42385  20.622  15.299  12.064
78827W        W42386   5.904   2.854  10.604
78828W        W42387  41.945  12.140   4.720
78829W        W42388  37.843   3.802   4.206
78830W        W42389  26.063  32.616  11.955
78831W        W42390  40.029   9.320  14.945
78832W        W42391  44.446  21.238   1.368
78833W        W42392  20.578  41.500   3.779
78834W        W42393  12.145  25.982   9.614
78835W        W42394  40.039  16.712  12.942
78836W        W42395   7.849  37.413  12.554
78837W        W42396   2.233   9.271  13.479
78838W        W42397  31.428   9.245  12.527
78839W        W42398  21.256  26.959   3.221
78840W        W42399  35.442  16.195   0.250
78841W        W42400  13.248  41.875   1.899
78842W        W42401  25.652  16.616   2.720
78843W        W42402   7.406  25.986   2.215
78844W        W42403  42.424  10.777  11.897
78845W        W42404  16.241   7.835   1.387
78846W        W42405  13.656  27.595  14.981
78847W        W42406  24.092  38.506  13.385
78848W        W42407   3.392  31.519  12.474
78849W        W42408  40.439  33.989   4.716
78850W        W42409   7.787  43.391  11.442
78851W        W42410  15.783  20.560  14.872
78852W        W42411   4.367   7.379  13.814
78853W        W42412   8.816  17.087   1.224
78854W        W42413  27.666  41.297  14.500
78855W        W42414  13.138  17.200  12.009
78856W        W42415  30.636  43.846  10.608
78857W        W42416  32.558   2.327   0.782
78858W        W42417  24.514  12.771   3.773
78859W        W42418  24.529   5.870   1.287
78860W        W42419  24.121   7.297   2.303
78861W        W42420  40.966  43.775  10.606
78862W        W42421  34.595  39.056  12.438
78863W        W42422  24.054  19.614   0.819
78864W        W42423  28.978  30.522  13.999
78865W        W42424  17.211  44.989   0.286
78866W        W42425  12.234   3.250  13.545
78867W        W42426  37.558   8.756   1.894
78868W        W42427  39.824   4.376  10.619
78869W        W42428  30.071   0.482  10.418
78870W        W42429  28.028  12.302  10.599
78871W        W42430  23.175  38.433  10.494
78872W        W42431  10.178  37.375  14.900
78873W        W42432  30.430   9.240  13.398
78874W        W42433   4.881  35.416  11.039
78875W        W42434  29.941   9.327  14.416
78876W        W42435   3.892  41.030   1.715
78877W        W42436  39.477  43.832   3.660
78878W        W42437  10.750  33.986   3.260
78879W        W42438  29.430  11.712   2.893
78880W        W42439   4.903  27.177   2.265
78881W        W42440  28.489  44.912   2.291
78882W        W42441  32.507  15.726  10.449
78883W        W42442  32.397  43.965   0.452
78884W        W42443  40.049  32.091  12.042
78885W        W42444  26.092  42.016   2.324
78886W        W42445   4.233  34.910  13.548
78887W        W42446  29.103  11.864   2.386
78888W        W42447  33.405  44.768  13.869
78889W        W42448  28.970  20.095   4.157
78890W        W42449  20.039  26.077  10.567
78891W        W42450  22.198  38.830   2.346
78892W        W42451   0.784  32.099   0.933
78893W        W42452  18.679  16.292   3.188
78894W        W42453   5.766  10.276  11.550
78895W        W42454  42.952  31.972  10.513
78896W        W42455  42.376  22.175  14.868
78897W        W42456   3.715  30.511   3.858
78898W        W42457  38.495  22.050  12.568
78899W        W42458  27.067  21.134   4.782
78900W        W42459  15.088  19.052  12.979
78901W        W42460   0.749  18.672   4.728
78902W        W42461  32.415  10.281  11.068
78903W        W42462   7.207  18.262  11.552
78904W        W42463  16.789   2.844   2.674
78905W        W42464  24.027   2.403  14.924
78906W        W42465   1.769  14.608  14.790
78907W        W42466  33.102  21.697   1.753
78908W        W42467  15.100  25.015   2.382
78909W        W42468  23.209  30.936   4.230
78910W        W42469  12.727   5.802   0.352
78911W        W42470  21.691  27.673  13.480
78912W        W42471  33.382   8.296   1.725
78913W        W42472  40.836  29.127   1.852
78914W        W42473  39.893  28.642   2.395
78915W        W42474  33.997   2.444   3.282
78916W        W42475  39.811  25.077  12.480
78917W        W42476  26.199   2.823   3.290
78918W        W42477   5.818  36.038  11.879
78919W        W42478  14.326  41.979  11.463
78920W        W42479  13.147  39.993   0.362
78921W        W42480  37.359  25.708  10.993
78922W        W42481  10.673  28.577   4.173
78923W        W42482  31.605  21.696  14.411
78924W        W42483   7.895  42.488  11.465
78925W        W42484  23.514  15.761  13.413
78926W        W42485  19.092  30.031   4.209
78927W        W42486  44.414   2.880  11.883
78928W        W42487   3.875   9.347  10.421
78929W        W42488   2.834  28.548  13.441
78930W        W42489  16.317  13.669  11.966
78931W        W42490  38.392  24.620   0.290
78932W        W42491  28.022  44.956   1.326
78933W        W42492  17.096  15.157   2.196
78934W        W42493   9.392  15.666   1.374
78935W        W42494   7.748  15.760   4.619
78936W        W42495  16.077  32.636  11.437
78937W        W42496  22.067  37.411   4.785
78938W        W42497  30.609  28.514  10.485
78939W        W42498   7.351  27.171   0.244
78940W        W42499   6.394  34.578   2.328
78941W        W42500  19.064  20.231   0.416
78942W        W42501   6.798  21.627  11.579
78943W        W42502  17.765  14.095   0.339
78944W        W42503  26.045  39.979   4.219
78945W        W42504  26.473  36.890   2.179
78946W        W42505   6.396  15.580  14.020
78947W        W42506  21.602  37.341   2.857
78948W        W42507  32.016  14.768  14.340
78949W        W42508   8.219  34.989  12.883
78950W        W42509   8.256  22.541   4.773
78951W        W42510   5.738  19.242  13.493
78952W        W42511  43.870  14.282   4.654
78953W        W42512  17.116  25.171   1.854
78954W        W42513  42.428  25.618  10.418
78955W        W42514  27.523   9.207   3.837
78956W        W42515  16.253  36.860  11.905
78957W        W42516  27.578  42.494  11.068
78958W        W42517  31.140  38.485  11.897
78959W        W42518  31.581  26.481   2.705
78960W        W42519  33.445  35.993  13.906
78961W        W42520  26.662  32.128   1.213
78962W        W42521  43.356  14.116  13.908
78963W        W42522  34.413  19.533  11.069
78964W        W42523  27.523  11.676   3.271
78965W        W42524  18.111  21.747  11.502
78966W        W42525  30.101   1.838  12.081
78967W        W42526  32.097  31.441  13.373
78968W        W42527  41.489  43.825   1.766
78969W        W42528   2.911  24.134  13.986
78970W        W42529   9.167  40.856  14.435
78971W        W42530   3.257  14.676  10.508
78972W        W42531  36.973   0.779   1.399
78973W        W42532  15.693  12.222   1.850
78974W        W42533  15.587  25.981  11.927
78975W        W42534   7.714  20.550  11.373
78976W        W42535  18.296  14.232  12.847
78977W        W42536  35.507  16.182  12.022
78978W        W42537   9.684  26.168   1.839
78979W        W42538  35.400   4.932  14.489
78980W        W42539   8.732   6.918  13.982
78981W        W42540  18.113  14.289  12.001
78982W        W42541  28.476  33.542  14.930
78983W        W42542  28.096   0.964  14.810
78984W        W42543  34.009   5.797  13.326
78985W        W42544  43.839   9.758  10.961
78986W        W42545  24.496   2.800   3.362
78987W        W42546  27.512   0.378  12.527
78988W        W42547  21.755  18.141  14.309
78989W        W42548   7.357  13.683  13.511
78990W        W42549  14.281  30.066   2.255
78991W        W42550  36.593   7.333   0.256
78992W        W42551  10.276  10.358   5.319
78993W        W42552   8.321  31.481   1.802
78994W        W42553  15.236  36.020   0.864
78995W        W42554  44.757  23.003   4.184
78996W        W42555   2.800  14.824   1.715
78997W        W42556  42.439  16.088  10.917
78998W        W42557  24.690  16.240   1.711
78999W        W42558   0.759  17.137   2.669
79000W        W42559  29.937  16.268  10.469
79001W        W42560   9.883  13.845   2.302
79002W        W42561  23.675  36.041  10.909
79003W        W42562   3.875   2.305  10.414
79004W        W42563  44.753  24.131   0.757
79005W        W42564   5.733  12.852   0.359
79006W        W42565   7.398  10.351  11.469
79007W        W42566  18.123  26.045   1.841
79008W        W42567  40.478   9.861   0.747
79009W        W42568   6.377  29.530  10.482
79010W        W42569  24.048  30.617   2.356
79011W        W42570  37.916  33.983   0.280
79012W        W42571   1.416   5.281   0.793
79013W        W42572  26.681  32.119  12.001
79014W        W42573  12.679  13.696   3.753
79015W        W42574  37.886  11.840  10.938
79016W        W42575   9.857   9.377   4.671
79017W        W42576  25.548  24.552  11.085
79018W        W42577  14.688  26.991   0.805
79019W        W42578  38.031  20.611  13.799
79020W        W42579  42.437  32.127  14.004
79021W        W42580  16.301  36.975  11.453
79022W        W42581   8.287  28.596  12.487
79023W        W42582  37.362  25.160   1.298
79024W        W42583  21.203  42.311  14.777
79025W        W42584  32.562  22.534   1.820
79026W        W42585  35.892  37.413  13.821
79027W        W42586  13.261  15.113  10.526
79028W        W42587  32.608  33.490  12.489
79029W        W42588  24.653  30.604   0.801
79030W        W42589  39.419   5.912   3.859
79031W        W42590  15.709  32.937   4.613
79032W        W42591  12.204   2.766   3.287
79033W        W42592  20.697  26.680   3.379
79034W        W42593   4.940  20.663  14.896
79035W        W42594   1.919  43.767   4.186
79036W        W42595   2.340  10.371  10.621
79037W        W42596   5.284  43.413  10.909
79038W        W42597  23.617  27.183   3.869
79039W        W42598  25.122   9.798  10.558
79040W        W42599  10.297   1.260   3.268
79041W        W42600  38.533  22.133   4.743
79042W        W42601   8.884  22.524  10.973
79043W        W42602   5.880  23.075  13.429
79044W        W42603  35.893  36.964  11.437
79045W        W42604  18.628   5.425   2.720
79046W        W42605   6.886  35.424   0.465
79047W        W42606  40.979  11.718   3.713
79048W        W42607  16.604  31.531  10.942
79049W        W42608  24.072   8.841  11.471
79050W        W42609  15.214   3.319   0.908
79051W        W42610   4.204  39.918  12.470
79052W        W42611   2.757  20.155   1.415
79053W        W42612  33.439  14.831   4.802
79054W        W42613  41.299  37.060  13.012
79055W        W42614  40.514  43.404  12.867
79056W        W42615  17.259  18.553   3.365
79057W        W42616  35.889  36.480  11.995
79058W        W42617  43.797  22.235  12.443
79059W        W42618  36.992  31.614  11.423
79060W        W42619  44.344   8.794   0.783
79061W        W42620   2.799  16.574  13.503
79062W        W42621  23.060   3.284   2.868
79063W        W42622  21.233  14.814  12.341
79064W        W42623  17.266   4.797   2.720
79065W        W42624   4.443  13.261   1.749
79066W        W42625  17.104  35.960   1.296
79067W        W42626  22.686  16.667   2.336
79068W        W42627  11.792  30.985  14.297
79069W        W42628  12.778  35.537   5.300
79070W        W42629  17.263  23.702   4.127
79071W        W42630  29.932  36.524   1.715
79072W        W42631   1.389   5.754  14.405
79073W        W42632  27.958  38.539   0.246
79074W        W42633  25.011   2.409   3.203
79075W        W42634  23.541  27.669   4.798
79076W        W42635   5.862  34.113  11.577
79077W        W42636   9.814  10.367  12.876
79078W        W42637  13.343  37.346   3.776
79079W        W42638  34.089  10.836   3.758
79080W        W42639  28.956  24.565  13.960
79081W        W42640   6.275   0.887   2.294
79082W        W42641   7.337  25.981  12.964
79083W        W42642  42.498  43.773  14.962
79084W        W42643  40.903  27.029   1.698
79085W        W42644  13.135  28.672  12.408
79086W        W42645  31.982   9.843   4.195
79087W        W42646  22.140  38.378   0.291
79088W        W42647  42.791  13.196  12.574
79089W        W42648  42.860  34.491   2.227
79090W        W42649  13.322  15.603   4.804
79091W        W42650  17.167  13.324  14.302
79092W        W42651   8.773  21.651   0.850
79093W        W42652  25.180  20.711  14.294
79094W        W42653  30.566  17.275   4.355
79095W        W42654  25.596  19.056   0.921
79096W        W42655  14.608  32.523  14.014
79097W        W42656  30.016   4.316  10.406
79098W        W42657  27.180   0.977  11.117
79099W        W42658   9.789  14.111  13.856
79100W        W42659  11.201   6.922  12.894
79101W        W42660  10.162   9.852   1.794
79102W        W42661  38.477  40.864   3.365
79103W        W42662  20.066   9.191  14.352
79104W        W42663  40.459   3.711   4.775
79105W        W42664  34.931  21.698   2.747
79106W        W42665  27.602  17.199   4.216
79107W        W42666  32.633  11.814   1.900
79108W        W42667   9.804  23.019  12.572
79109W        W42668   5.697  33.961  14.926
79110W        W42669  16.202  37.462  14.953
79111W        W42670  27.493  33.413  11.524
79112W        W42671  16.266  36.437  11.415
79113W        W42672  29.467  30.972  10.934
79114W        W42673  14.800  23.572   0.279
79115W        W42674  28.033  16.718  11.046
79116W        W42675  13.820  17.759   2.810
79117W        W42676   0.296  23.647   1.247
79118W        W42677  35.010  19.274   1.710
79119W        W42678   1.765  41.956  13.541
79120W        W42679  39.904  24.513  14.828
79121W        W42680   2.287   1.916  14.350
79122W        W42681   6.425  44.788   2.895
79123W        W42682  40.494  10.326   0.432
79124W        W42683   9.153  12.773   1.813
79125W        W42684  19.689  17.124   4.723
79126W        W42685  16.129  21.679  11.063
79127W        W42686   6.427   3.773   1.251
79128W        W42687  19.589  43.327  14.804
79129W        W42688  12.352   2.370   1.360
79130W        W42689  35.890  35.439   3.276
79131W        W42690  15.198  21.136  14.418
79132W        W42691   8.795  32.467  11.962
79133W        W42692  23.509  37.855  12.418
79134W        W42693  42.459   5.215   3.319
79135W        W42694  20.128  29.124  12.574
79136W        W42695  41.001  33.957   5.312
79137W        W42696   8.311  15.725   1.731
79138W        W42697  27.572  18.733   1.439
79139W        W42698  24.069  20.761  14.008
79140W        W42699  40.322   6.788   0.929
79141W        W42700  11.857  44.403  13.876
79142W        W42701  23.065  14.645  10.590
79143W        W42702  38.459  16.723  12.536
79144W        W42703  13.111  10.350  10.012
79145W        W42704  11.798  17.199   3.206
79146W        W42705  35.037   6.274   3.254
79147W        W42706  42.951  22.193   4.332
79148W        W42707  13.235  28.659  11.470
79149W        W42708  22.616  11.197  11.415
79150W        W42709  21.093  27.526   5.307
79151W        W42710   3.322  27.032  12.071
79152W        W42711  10.301  30.910   1.270
79153W        W42712  16.736  37.883  14.358
79154W        W42713   1.262  20.561  10.408
79155W        W42714  13.690  12.693   1.934
79156W        W42715  29.121  22.564  14.880
79157W        W42716   1.815  34.020  14.963
79158W        W42717  31.419  24.218   2.356
79159W        W42718  40.892   4.438   3.207
79160W        W42719  21.615  41.365  14.306
79161W        W42720  13.305   8.393  14.862
79162W        W42721  13.109  41.529  12.534
79163W        W42722  26.030  39.375  11.541
79164W        W42723  33.425  20.664   4.716
79165W        W42724  31.559  36.527  11.573
79166W        W42725  31.124  21.113   0.764
79167W        W42726  37.384  19.201   0.321
79168W        W42727  21.138  36.406  11.905
79169W        W42728   8.272  19.181  14.498
79170W        W42729  21.608   3.812  14.418
79171W        W42730  40.884  16.247   2.742
79172W        W42731   6.843  17.582   3.301
79173W        W42732  33.545  38.394  10.572
79174W        W42733  18.101  18.652   0.817
79175W        W42734  18.559  33.432   3.157
79176W        W42735  42.294  23.564  12.436
79177W        W42736  32.903  37.444  14.951
79178W        W42737  16.099   9.153   5.210
79179W        W42738  31.077  28.016  11.118
79180W        W42739  40.405  44.356  13.910
79181W        W42740  44.996  35.081  13.811
79182W        W42741  34.976   0.856  12.448
79183W        W42742  37.872  27.076   3.171
79184W        W42743  37.851  21.155  13.801
79185W        W42744  29.105  17.174  12.830
79186W        W42745   5.807   2.441   2.261
79187W        W42746  26.590  18.564   2.823
79188W        W42747  25.619   5.811   0.848
79189W        W42748  12.130  41.480   1.826
79190W        W42749  12.637  31.647   1.728
79191W        W42750  13.616   4.204  14.946
79192W        W42751  24.025   3.316   3.266
79193W        W42752  35.056  35.431  14.457
79194W        W42753  11.753  12.768   0.893
79195W        W42754  35.955  44.885   2.800
79196W        W42755   4.371  33.619  11.482
79197W        W42756   6.401   2.820   3.338
79198W        W42757  41.385  11.855  10.485
79199W        W42758  20.747  35.975   2.230
79200W        W42759  30.067   2.403  12.043
79201W        W42760  40.541  20.603   2.707
79202W        W42761  36.851  31.970   2.312
79203W        W42762  33.461  22.527  13.003
79204W        W42763  39.968  18.062  10.632
79205W        W42764   3.873  27.449  11.401
79206W        W42765   8.699  14.704   4.669
79207W        W42766  18.063  33.429  11.935
79208W        W42767  24.582  11.293  13.358
79209W        W42768  25.528  23.238  10.134
79210W        W42769  12.165   4.228  14.322
79211W        W42770  38.504  39.947   3.824
79212W        W42771   7.783  30.045  14.476
79213W        W42772  13.348  24.697   4.227
79214W        W42773  23.078  16.104   0.305
79215W        W42774  29.983  24.229   1.921
79216W        W42775   4.384  37.973   4.328
79217W        W42776  11.153  30.524   4.163
79218W        W42777  19.225  29.927  10.442
79219W        W42778  30.116  24.593   2.834
79220W        W42779  31.429  41.361  11.420
79221W        W42780  10.213  36.440  11.565
79222W        W42781  18.720  29.477   3.279
79223W        W42782   8.317  13.830  13.904
79224W        W42783  37.041   1.272   2.800
79225W        W42784  14.752  38.361   4.835
79226W        W42785  27.956  22.722   3.309
79227W        W42786  39.830  33.957   2.245
79228W        W42787  41.448  12.190  10.521
79229W        W42788  20.551  20.684  12.557
79230W        W42789   6.708   6.801  13.508
79231W        W42790   3.872  38.470   4.349
79232W        W42791  17.081  31.117  14.978
79233W        W42792  37.847  10.795   1.774
79234W        W42793   5.693  22.615   0.917
79235W        W42794   7.791  26.564   1.759
79236W        W42795  43.772  33.489   4.815
79237W        W42796  19.665  13.315  12.007
79238W        W42797  14.653  10.288  13.418
79239W        W42798   0.889   0.767   4.290
79240W        W42799  38.391  11.640  13.511
79241W        W42800  40.843   3.733  11.599
79242W        W42801  20.174   6.220   4.639
79243W        W42802  31.603  29.546   3.738
79244W        W42803  27.496  42.992  14.001
79245W        W42804  32.542   7.245   5.086
79246W        W42805  13.759   7.407  13.404
79247W        W42806  32.546  38.477   4.681
79248W        W42807   0.256  12.774   0.304
79249W        W42808  44.808  21.055   0.897
79250W        W42809  12.257   0.953   2.188
79251W        W42810  35.075  39.020   4.683
79252W        W42811  39.334  15.622   0.482
79253W        W42812  28.988  25.501   3.632
79254W        W42813  31.968  14.766   1.290
79255W        W42814  22.192  18.594  10.442
79256W        W42815  31.139   5.340  13.449
79257W        W42816  28.559  33.982   0.888
79258W        W42817   5.928  19.689  10.944
79259W        W42818  39.894  37.933   3.765
79260W        W42819  22.697   6.359   0.357
79261W        W42820  35.888   7.350  11.913
79262W        W42821  23.504  23.032   3.805
79263W        W42822  23.058   6.780   2.771
79264W        W42823  11.625  29.547  13.403
79265W        W42824  39.374  33.967   3.219
79266W        W42825  16.645  10.173  11.969
79267W        W42826   8.791   3.395   2.736
79268W        W42827  16.767  39.378  13.517
79269W        W42828   2.736   6.375  10.509
79270W        W42829  37.340  18.213   0.355
79271W        W42830  31.072   9.250   0.764
79272W        W42831  23.533  19.607  14.901
79273W        W42832  44.264  38.401   0.428
79274W        W42833  10.187  35.360  11.049
79275W        W42834  40.368  44.995  11.122
79276W        W42835  35.483  33.943   3.313
79277W        W42836  16.623  24.491   2.859
79278W        W42837  11.133  40.424   4.770
79279W        W42838  28.559  18.550   2.385
79280W        W42839   1.825   7.271  14.771
79281W        W42840   4.236  11.230   0.252
79282W        W42841   1.766  17.564  10.932
79283W        W42842  33.048  15.655   2.221
79284W        W42843  36.524  20.043   2.306
79285W        W42844  21.063  31.032  10.534
79286W        W42845  15.674  44.773  11.607
79287W        W42846  41.305  29.506  10.456
79288W        W42847  20.102  25.180   9.972
79289W        W42848  33.565  32.978  10.590
79290W        W42849  43.847  33.549  12.957
79291W        W42850  29.563   4.398  12.053
79292W        W42851  35.958  19.126  11.405
79293W        W42852  35.943  21.579  11.453
79294W        W42853  29.630   9.888   2.673
79295W        W42854  44.348  41.967  13.952
79296W        W42855  10.302  15.302   2.290
79297W        W42856  39.506  23.166  13.453
79298W        W42857  35.997  28.630   0.255
79299W        W42858  29.006   3.917  11.938
79300W        W42859   5.812  30.154   3.766
79301W        W42860  41.808  19.684   3.813
79302W        W42861  15.301  17.702  12.560
79303W        W42862   2.468  10.638   2.295
79304W        W42863  38.991  32.920  13.947
79305W        W42864  29.002  31.985   2.230
79306W        W42865  33.022  40.967   2.882
79307W        W42866   9.365  38.436  13.516
79308W        W42867  40.485  44.009  11.967
79309W        W42868  28.564  15.171  14.893
79310W        W42869   6.423   7.864   1.300
79311W        W42870  20.671  26.963  14.793
79312W        W42871  11.690  33.527   0.280
79313W        W42872  43.469   4.383  14.962
79314W        W42873  23.077  13.753   2.881
79315W        W42874  17.689  32.121  12.830
79316W        W42875   8.201  29.980  12.898
79317W        W42876   0.363  29.636  11.007
79318W        W42877   0.988  34.094   2.688
79319W        W42878  35.863  26.695   2.261
79320W        W42879  19.779  22.037  10.609
79321W        W42880   7.305  41.302   2.299
79322W        W42881  21.512  25.479  10.615
79323W        W42882  44.921  22.044   2.694
79324W        W42883   1.403  23.562   1.406
79325W        W42884  15.755  35.911   0.350
79326W        W42885  12.801  14.648   3.639
79327W        W42886  29.949   2.724   3.193
79328W        W42887   6.254  10.139   4.278
79329W        W42888  30.086  11.239   2.389
79330W        W42889  12.117  10.309  13.824
79331W        W42890  16.136  23.516   0.311
79332W        W42891  31.901  28.591  13.369
79333W        W42892  42.836  30.515  11.523
79334W        W42893   2.828  15.101   0.802
79335W        W42894  32.918  36.522   4.193
79336W        W42895   8.293  20.601  12.555
79337W        W42896  19.146  28.022  10.086
79338W        W42897  22.506   4.396  12.945
79339W        W42898   6.223  15.794   2.346
79340W        W42899  27.531  22.710   2.336
79341W        W42900  16.760  32.607  10.965
79342W        W42901  16.629  14.827  11.126
79343W        W42902  11.809  39.459   0.937
79344W        W42903  30.590  25.691  10.892
79345W        W42904  14.835  26.026  14.383
79346W        W42905  36.878   5.438   4.246
79347W        W42906  42.930  18.718   0.249
79348W        W42907   0.784   1.284  11.374
79349W        W42908  14.754  23.141  11.877
79350W        W42909  17.585  10.150  14.335
79351W        W42910  33.934  38.969  11.082
79352W        W42911  29.924   2.232   4.124
79353W        W42912   1.743  30.415  14.994
79354W        W42913  23.644  21.643  11.480
79355W        W42914  44.401   3.418  13.843
79356W        W42915  35.377  32.393  13.024
79357W        W42916   5.898  16.114   2.748
79358W        W42917  25.706  14.157  13.863
79359W        W42918  37.568  21.569   4.758
79360W        W42919  38.857  17.087   4.348
79361W        W42920  16.749  17.733   3.801
79362W        W42921  25.530  14.155  14.999
79363W        W42922   1.886  36.387  13.425
79364W        W42923  36.373   9.644  10.893
79365W        W42924   4.925   0.436   1.378
79366W        W42925   6.736  12.662   1.701
79367W        W42926  28.582   6.235  12.557
79368W        W42927  18.158  36.005  13.818
79369W        W42928   2.342  44.321   3.340
79370W        W42929  34.897  21.161   2.755
79371W        W42930  21.209  11.318   3.272
79372W        W42931  38.380  30.588   2.665
79373W        W42932  26.495   4.363   2.672
79374W        W42933   8.710   4.247   1.403
79375W        W42934  14.231   5.690  14.504
79376W        W42935   3.866  30.486   4.807
79377W        W42936  36.555   2.232   2.304
79378W        W42937   5.885   1.921  12.849
79379W        W42938   4.296  26.189  12.038
79380W        W42939  16.181  33.901   4.635
79381W        W42940  26.077  38.367   1.696
79382W        W42941  18.223  30.428   3.258
79383W        W42942  42.337   9.193  14.352
79384W        W42943  18.261   1.975   2.182
79385W        W42944   7.192  31.898  14.778
79386W        W42945   2.869  32.118  11.382
79387W        W42946  44.345   3.321   0.937
79388W        W42947  16.691   0.933  14.965
79389W        W42948  21.243  32.416  13.791
79390W        W42949  14.262  22.028  13.983
79391W        W42950  32.404  28.141   1.337
79392W        W42951  16.758   0.382   0.865
79393W        W42952  27.098   0.856   3.179
79394W        W42953  41.314   3.840  11.528
79395W        W42954  19.079  13.226   2.671
79396W        W42955  15.774  34.893   1.302
79397W        W42956  16.200  19.226  13.048
79398W        W42957   6.747  13.140  12.005
79399W        W42958   9.806   3.813   2.662
79400W        W42959  44.008  20.241   0.730
79401W        W42960  37.831  24.986   1.429
79402W        W42961   1.271  25.687   3.257
79403W        W42962  22.570  32.972  14.474
79404W        W42963  41.386   8.817   1.914
79405W        W42964  13.657   6.410   2.251
79406W        W42965  37.370   5.882  13.922
79407W        W42966   5.232  41.905   3.805
79408W        W42967  41.324  36.351   0.754
79409W        W42968  31.460  43.922   2.267
79410W        W42969  15.706  20.636  12.517
79411W        W42970  30.599   8.868   4.313
79412W        W42971  35.436   9.393   0.376
79413W        W42972  22.136  43.511  14.027
79414W        W42973  13.744  40.467   4.816
79415W        W42974  23.220  37.849  10.944
79416W        W42975  10.668  26.523  12.823
79417W        W42976  20.631  40.515   4.171
79418W        W42977  38.569  20.608   0.384
79419W        W42978  44.488  17.291  12.449
79420W        W42979  33.053   3.431   3.270
79421W        W42980   2.248  24.993   5.119
79422W        W42981   4.780  31.143   2.694
79423W        W42982  19.236  27.483  13.374
79424W        W42983  31.429  37.037   1.335
79425W        W42984  35.363  29.175   2.832
79426W        W42985  31.561   3.453   4.325
79427W        W42986  19.085  38.964   0.455
79428W        W42987  35.506  18.705  12.374
79429W        W42988   4.874  21.026  14.916
79430W        W42989  10.178  23.014  14.896
79431W        W42990  10.633  10.679   5.624
79432W        W42991  36.510  10.878  11.928
79433W        W42992  30.472  33.623   1.931
79434W        W42993  27.104  29.935  13.953
79435W        W42994  20.227  23.000  14.027
79436W        W42995  16.314  13.789  12.999
79437W        W42996  15.618  38.887   4.314
79438W        W42997  33.097  43.322   0.288
79439W        W42998  27.955   7.211  12.391
79440W        W42999  11.282   7.334   4.259
79441W        W43000  22.170  18.209  10.459
79442W        W43001  21.085  30.921  14.919
79443W        W43002  15.652  16.310  12.344
79444W        W43003   5.396  41.319  10.447
79445W        W43004   6.678  27.045  11.900
79446W        W43005   1.468  24.227   3.654
79447W        W43006  32.620  33.901  14.397
79448W        W43007  25.475  20.069  14.762
79449W        W43008  33.427   5.359  10.985
79450W        W43009  41.944   7.891   4.755
79451W        W43010  11.861  42.823   3.709
79452W        W43011   6.788   2.347  14.429
79453W        W43012  11.853  23.565  13.482
79454W        W43013   4.730  12.730  12.511
79455W        W43014  40.399  38.550   1.401
79456W        W43015   3.243  21.539   0.803
79457W        W43016  22.213   9.648   3.163
79458W        W43017  17.734  25.124  12.948
79459W        W43018  29.924  17.754   1.395
79460W        W43019   7.784  17.660   1.828
79461W        W43020  21.662  12.187  13.405
79462W        W43021  15.185   2.471  10.916
79463W        W43022  20.697   7.778  13.458
79464W        W43023  38.024  10.710   5.777
79465W        W43024  26.066  41.476   1.905
79466W        W43025  35.052  33.545   3.729
79467W        W43026  20.693  24.507   2.761
79468W        W43027  32.459  29.662   0.874
79469W        W43028  43.974  16.809   0.843
79470W        W43029  34.570  30.604   4.701
79471W        W43030  12.655  20.524   0.836
79472W        W43031  33.386  12.754   0.466
79473W        W43032  12.325   8.871  11.017
79474W        W43033  28.162   2.300  13.005
79475W        W43034   4.309  10.214   4.353
79476W        W43035   0.975  44.834  14.848
79477W        W43036   5.322  36.493   4.621
79478W        W43037   8.710  18.635   1.219
79479W        W43038  21.546  36.881  11.539
79480W        W43039  29.025  26.960  14.487
79481W        W43040   9.378  20.716   1.924
79482W        W43041  23.137  43.892   2.901
79483W        W43042  28.056   3.833  14.769
79484W        W43043  20.261  35.057   0.267
79485W        W43044  25.583  26.619   0.409
79486W        W43045  29.973  24.631  14.768
79487W        W43046  18.236  30.044  13.518
79488W        W43047  39.821  35.024   0.811
79489W        W43048  14.110   9.394   5.157
79490W        W43049  34.575  16.683   4.168
79491W        W43050  28.536  24.594  13.854
79492W        W43051  24.692   8.383   3.822
79493W        W43052   5.838   2.944   4.151
79494W        W43053  30.132  21.610  11.443
79495W        W43054  14.334   4.835  13.877
79496W        W43055   4.414  10.142   1.909
79497W        W43056  10.812  28.607  12.361
79498W        W43057   8.308  37.551  13.319
79499W        W43058  20.558  12.268   2.238
79500W        W43059   6.920  18.715  14.999
79501W        W43060  15.806  24.555  14.438
79502W        W43061  29.495  18.624  13.493
79503W        W43062   3.299  39.452   4.709
79504W        W43063  28.658   4.703  14.383
79505W        W43064  43.900  17.098  13.890
79506W        W43065  34.458   1.800   4.607
79507W        W43066  28.472   5.295  11.395
79508W        W43067  32.900   2.301  10.569
79509W        W43068  18.274   7.234   1.756
79510W        W43069  18.761   6.310   4.830
79511W        W43070   4.799   9.187   0.412
79512W        W43071   4.855  26.110  13.488
79513W        W43072  17.787   8.329  13.050
79514W        W43073   1.847  27.542  11.876
79515W        W43074  15.245  35.048  13.441
79516W        W43075  15.226  33.406   4.147
79517W        W43076   8.697   8.280   1.257
79518W        W43077   0.426  22.622  11.925
79519W        W43078   8.860   9.805   3.781
79520W        W43079  26.996  26.023  11.972
79521W        W43080  40.528  33.981  12.959
79522W        W43081  22.592  12.613   4.681
79523W        W43082  30.949  18.123   2.315
79524W        W43083  35.422  14.262  10.959
79525W        W43084  29.152  22.216   3.316
79526W        W43085  10.769  28.000  10.626
79527W        W43086  23.034  24.554   2.367
79528W        W43087   8.766  39.334   4.208
79529W        W43088  33.898  41.896  14.892
79530W        W43089  22.043  43.349  13.502
79531W        W43090  19.169  25.179  12.010
79532W        W43091   7.732   8.802  12.094
79533W        W43092   3.709   0.837  10.940
79534W        W43093  36.959   8.765   4.732
79535W        W43094  15.655   3.771   2.393
79536W        W43095  34.587  40.852  13.326
79537W        W43096   4.240  26.113   4.829
79538W        W43097  38.370  36.463  11.085
79539W        W43098   4.753  13.126  14.785
79540W        W43099  35.937  15.318   1.246
79541W        W43100  33.113  28.487   2.827
79542W        W43101  32.499  44.503  12.387
79543W        W43102   3.336  33.970  11.592
79544W        W43103   8.266  23.695   3.171
79545W        W43104  16.685  20.632   3.280
79546W        W43105  18.612  20.273   0.885
79547W        W43106   8.255   2.412  12.033
79548W        W43107  26.670  34.551  14.840
79549W        W43108  22.013  44.921  14.780
79550W        W43109  20.676  26.668  10.061
79551W        W43110  39.857  44.811  10.966
79552W        W43111  12.235  40.978  11.052
79553W        W43112   8.662   9.331  11.476
79554W        W43113  38.966   6.220  14.333
79555W        W43114   2.396   1.967   0.325
79556W        W43115  43.803  18.159  13.444
79557W        W43116  41.994  40.343   1.794
79558W        W43117   3.422  39.514  14.800
79559W        W43118  35.544  44.271  14.851
79560W        W43119  43.859  43.808   1.725
79561W        W43120  28.632   4.426   3.351
79562W        W43121   5.388  16.636   1.390
79563W        W43122  41.039  40.998  12.895
79564W        W43123  27.947   5.775  12.020
79565W        W43124  27.996  25.014  10.589
79566W        W43125  15.784  26.670   4.349
79567W        W43126  23.644   3.242  12.079
79568W        W43127  15.822  14.297   3.683
79569W        W43128  19.104  21.750  11.074
79570W        W43129  23.613  23.051  12.389
79571W        W43130  27.447  18.780   4.755
79572W        W43131  37.962  12.694  13.890
79573W        W43132  22.653  27.546  14.472
79574W        W43133  11.364  18.107   3.815
79575W        W43134  36.488  39.992   4.664
79576W        W43135   8.757  27.966  12.436
79577W        W43136  18.645   3.376  10.957
79578W        W43137  42.436  21.749  14.514
79579W        W43138  44.770  22.193   1.729
79580W        W43139  27.079  24.487  12.442
79581W        W43140  36.435   3.435   2.402
79582W        W43141  20.530  25.596  14.969
79583W        W43142  24.096  35.048  11.465
79584W        W43143   0.283  23.619  12.435
79585W        W43144   3.925  28.479   1.304
79586W        W43145  34.007  21.699  13.529
79587W        W43146  10.633  12.123   0.851
79588W        W43147  39.361  32.570  14.431
79589W        W43148   6.422  15.782  10.131
79590W        W43149  39.885   4.261   3.851
79591W        W43150   6.842  36.017  14.391
79592W        W43151  31.076  25.627  10.643
79593W        W43152  36.931  31.102   5.597
79594W        W43153  36.860   9.730   2.207
79595W        W43154  39.345   5.373  14.810
79596W        W43155  23.214   1.316  14.283
79597W        W43156  14.331  38.940   1.778
79598W        W43157  36.496  33.955  10.951
79599W        W43158  40.015   8.216  10.896
79600W        W43159   9.206  18.755  14.489
79601W        W43160  34.940  39.872   4.643
79602W        W43161   3.229  41.889  13.919
79603W        W43162  22.589   7.259  11.577
79604W        W43163  39.905  34.418  11.913
79605W        W43164  37.538   7.688  14.848
79606W        W43165  18.218  16.747   3.741
79607W        W43166  22.535  14.758   0.966
79608W        W43167  40.855  40.417   1.864
79609W        W43168  27.484  31.111   3.192
79610W        W43169   7.775  22.592  12.390
79611W        W43170  38.935  42.914  14.444
79612W        W43171  35.439  25.485   1.773
79613W        W43172  21.585  31.592   3.254
79614W        W43173  41.957  28.052   2.185
79615W        W43174  20.179  36.580   4.321
79616W        W43175  44.366  13.144  13.857
79617W        W43176   5.260   8.280   0.883
79618W        W43177  31.149   3.394   3.790
79619W        W43178  43.434   0.957  10.919
79620W        W43179   6.916  13.206   5.223
79621W        W43180  16.127  33.071  13.824
79622W        W43181  36.564  30.931  10.449
79623W        W43182  41.948  35.033  11.940
79624W        W43183  36.998   5.271   3.794
79625W        W43184  41.403  23.527   3.270
79626W        W43185  40.358  43.990   1.425
79627W        W43186  10.870  34.605   0.797
79628W        W43187  15.672  18.123   9.999
79629W        W43188   4.251   6.241   3.657
79630W        W43189  30.451   1.873  13.846
79631W        W43190  10.662   8.721   2.770
79632W        W43191  12.310  40.406  11.072
79633W        W43192   2.960   0.783   4.179
79634W        W43193   3.716   3.290  12.930
79635W        W43194  43.442  17.669  12.005
79636W        W43195  37.389  17.078  10.435
79637W        W43196  11.777   9.192   0.843
79638W        W43197  29.490  31.521   4.728
79639W        W43198  29.553  18.083   1.780
79640W        W43199   8.297  21.753  12.393
79641W        W43200   3.455  30.916  11.935
79642W        W43201  29.044   5.820   0.868
79643W        W43202  27.110  42.357  14.913
79644W        W43203  32.115  27.012   1.902
79645W        W43204  23.684  29.018   4.276
79646W        W43205  18.788  16.114  14.837
79647W        W43206  20.238  25.517  11.499
79648W        W43207  21.708  35.854  10.577
79649W        W43208  29.156  37.389  13.342
79650W        W43209  26.508  39.815  12.830
79651W        W43210  20.761  28.963  14.386
79652W        W43211   1.423  40.870   3.824
79653W        W43212  36.869  27.514  12.080
79654W        W43213   7.302   6.375  14.970
79655W        W43214  29.627  40.418   3.227
79656W        W43215  38.332  25.491  14.341
79657W        W43216   1.372  20.578  14.817
79658W        W43217   5.419  21.692  12.444
79659W        W43218  22.097  42.433   3.219
79660W        W43219  25.047  24.713   1.266
79661W        W43220   8.296  11.660  14.797
79662W        W43221  29.065  10.685   1.697
79663W        W43222  26.541  16.777   1.389
79664W        W43223  33.508  34.435  13.051
79665W        W43224  25.542  31.413  13.376
79666W        W43225  35.987   8.315   2.888
79667W        W43226  30.419   4.403  13.854
79668W        W43227  36.882  25.574  12.484
79669W        W43228  14.813  24.076  13.527
79670W        W43229  30.496  44.420  12.483
79671W        W43230   5.333   8.697  12.538
79672W        W43231  16.180   1.469   1.438
79673W        W43232  21.242  16.211   3.721
79674W        W43233  36.534   0.916  12.539
79675W        W43234  16.635   4.345  14.821
79676W        W43235  15.310  13.632   1.349
79677W        W43236   8.899   6.300  12.077
79678W        W43237  10.337  38.004   3.159
79679W        W43238  35.398  13.164  12.852
79680W        W43239  38.980  39.995  13.511
79681W        W43240  13.287  30.145  12.543
79682W        W43241   9.738   9.228  11.006
79683W        W43242  36.556  38.471   1.866
79684W        W43243  37.348   7.273   1.439
79685W        W43244   8.887   6.371  14.931
79686W        W43245  12.270  22.125  11.468
79687W        W43246  28.172  15.600  10.962
79688W        W43247   6.831  12.164   1.391
79689W        W43248  29.603  13.273  14.817
79690W        W43249  42.897  24.565   1.366
79691W        W43250   3.398  38.891   0.479
79692W        W43251  35.864  38.921   4.708
79693W        W43252  33.945  32.525  12.379
79694W        W43253   7.267   8.773   2.406
79695W        W43254  37.502  10.233   4.769
79696W        W43255  37.046  34.511   2.827
79697W        W43256   9.696  32.509  14.784
79698W        W43257  13.115  30.042   2.685
79699W        W43258  30.415  30.597  13.431
79700W        W43259  42.865  30.415  10.926
79701W        W43260   4.303  11.751   3.285
79702W        W43261  42.805  29.524   0.263
79703W        W43262  19.257  25.549   4.646
79704W        W43263  16.689  32.029  12.485
79705W        W43264  10.871  22.505   2.715
79706W        W43265  42.369   0.282  13.538
79707W        W43266   5.832  29.542   0.790
79708W        W43267  27.533  30.149   4.628
79709W        W43268  27.171  28.467  14.336
79710W        W43269  30.531  43.872   2.811
79711W        W43270  37.020  21.619  13.506
79712W        W43271  13.601   3.914  11.545
79713W        W43272  29.535  30.135  13.033
79714W        W43273  10.221   3.402   1.396
79715W        W43274  26.518  30.516  10.897
79716W        W43275  32.528  17.084   4.754
79717W        W43276  23.037   9.750   4.126
79718W        W43277  29.146   0.896  12.981
79719W        W43278  17.577  28.140  11.958
79720W        W43279  42.524   5.929  10.574
79721W        W43280  41.807  37.978  12.988
79722W        W43281   5.419  36.032   0.855
79723W        W43282  39.533   1.407  13.968
79724W        W43283  26.002   0.911  14.450
79725W        W43284  16.750  24.006   1.428
79726W        W43285  35.081  29.557  14.799
79727W        W43286  44.760  10.722  14.932
79728W        W43287  14.715  43.323   4.765
79729W        W43288  24.039  19.578  13.879
79730W        W43289  26.963  21.155  14.453
79731W        W43290  36.036  43.315   2.343
79732W        W43291  25.083  33.493   0.733
79733W        W43292  12.763  38.891  12.946
79734W        W43293  23.544  42.364   0.804
79735W        W43294  22.250  12.820  13.441
79736W        W43295   5.750  43.490   2.882
79737W        W43296  25.522  28.657   1.901
79738W        W43297  22.214   6.331   3.184
79739W        W43298  28.039  37.915  14.442
79740W        W43299  18.753  32.890  11.886
79741W        W43300  34.554   0.462  10.526
79742W        W43301  15.262  22.731   3.344
79743W        W43302  36.946  11.298  10.607
79744W        W43303  39.313   4.355  10.537
79745W        W43304   9.659  16.161   1.871
79746W        W43305   9.875  43.318   3.707
79747W        W43306  41.828  20.692   2.857
79748W        W43307  23.558  12.764   2.861
79749W        W43308  10.812  35.413   3.837
79750W        W43309  17.250  10.705  14.470
79751W        W43310   8.276   2.276  10.574
79752W        W43311  15.296  43.837  13.046
79753W        W43312  17.759  13.166   1.881
79754W        W43313  14.701   3.810   0.845
79755W        W43314   9.305   4.771   3.311
79756W        W43315  21.749  22.239   3.833
79757W        W43316  12.329  17.619  11.381
79758W        W43317  34.938  31.644   4.303
79759W        W43318  43.458  23.503  12.394
79760W        W43319  15.274  40.799   2.409
79761W        W43320  16.124  25.137  10.040
79762W        W43321  23.097  26.470  11.982
79763W        W43322  30.155  23.586  11.424
79764W        W43323  43.283  27.950   2.663
79765W        W43324  22.697   2.265   0.926
79766W        W43325  22.660  31.488  14.862
79767W        W43326  42.962  11.260   2.385
79768W        W43327   5.889   8.822   5.317
79769W        W43328  25.171   1.905   3.764
79770W        W43329  44.823  35.483   2.216
79771W        W43330  12.808  17.306  14.962
79772W        W43331  37.464  12.297  14.509
79773W        W43332  13.244  38.402   4.119
79774W        W43333  13.342  14.241  13.813
79775W        W43334  30.562  16.152   3.767
79776W        W43335  27.004  14.795   0.800
79777W        W43336   5.895  25.551  10.611
79778W        W43337  15.645   2.840  10.473
79779W        W43338  39.319  23.042  11.100
79780W        W43339  14.794  30.474  10.992
79781W        W43340  29.622  35.386   3.231
79782W        W43341  17.248  35.872  13.972
79783W        W43342   6.869  15.807   4.260
79784W        W43343  37.031  38.494  12.952
79785W        W43344  20.059  21.705  14.472
79786W        W43345  35.575  29.584  10.923
79787W        W43346  37.472  38.404   3.274
79788W        W43347  34.027  37.838  12.032
79789W        W43348   3.379  24.692  11.992
79790W        W43349   8.665  26.961  13.445
79791W        W43350  16.645  36.549   1.874
79792W        W43351  32.895  21.185  11.520
79793W        W43352  19.208  16.623   3.249
79794W        W43353  18.708   0.768  14.388
79795W        W43354  30.465  42.024   4.753
79796W        W43355   6.420  17.724   0.285
79797W        W43356  10.172  31.575   3.819
79798W        W43357   5.318   6.236  11.057
79799W        W43358  30.657  30.650  12.950
79800W        W43359  33.078  29.520   2.770
79801W        W43360  14.209  16.122   2.885
79802W        W43361  18.609  20.653  11.987
79803W        W43362  30.525   2.456  14.353
79804W        W43363  44.352  23.141   3.321
79805W        W43364   4.359   9.864  12.537
79806W        W43365  12.827  44.787  14.298
79807W        W43366   5.750   4.272   3.304
79808W        W43367  12.122  12.215  14.912
79809W        W43368   7.256  23.209   2.207
79810W        W43369  23.170  14.234   0.965
79811W        W43370  34.463  23.615   0.366
79812W        W43371  24.185  28.000  11.981
79813W        W43372  17.667  28.520   3.700
79814W        W43373  27.660  43.840  12.443
79815W        W43374  40.858  32.041  13.050
79816W        W43375   8.868  42.908  10.440
79817W        W43376  28.478  18.642   2.662
79818W        W43377  26.599  40.028  14.330
79819W        W43378  25.178  33.476  13.025
79820W        W43379  28.946   9.221  11.980
79821W        W43380  28.152  35.496  14.432
79822W        W43381   8.248  43.450   4.172
79823W        W43382  31.474  29.098  12.986
79824W        W43383  19.636  24.108   2.694
79825W        W43384   1.310  41.469  10.524
79826W        W43385   5.807  35.004   3.639
79827W        W43386  13.687  43.324  13.350
79828W        W43387   3.422  28.660   3.787
79829W        W43388  16.303  18.208   2.865
79830W        W43389  32.921  36.470  14.837
79831W        W43390  13.800   4.784   0.420
79832W        W43391  36.538   0.797  14.489
79833W        W43392   3.928  16.239   0.445
79834W        W43393  43.344  23.632   3.329
79835W        W43394  21.085   6.337   5.319
79836W        W43395  21.525  29.056   3.735
79837W        W43396  38.490  13.623   2.728
79838W        W43397  19.572   4.785  12.042
79839W        W43398  19.568  27.042  13.797
79840W        W43399   3.282  10.646   4.123
79841W        W43400  16.132  35.521   0.368
79842W        W43401   9.242  32.046   4.173
79843W        W43402  30.133  31.627  14.312
79844W        W43403  25.096   5.702  13.343
79845W        W43404   9.717   7.229  12.569
79846W        W43405  17.641  37.916   2.873
79847W        W43406  22.629  40.547  12.876
79848W        W43407  10.641  25.550   0.462
79849W        W43408  38.331   3.458  11.879
79850W        W43409  32.597  19.588   0.867
79851W        W43410   8.700  36.546   5.136
79852W        W43411  36.870  26.494  11.060
79853W        W43412  39.046  32.429   0.904
79854W        W43413  14.257  11.299   1.244
79855W        W43414   8.810  32.105  13.034
79856W        W43415  31.644   1.398  10.521
79857W        W43416  24.614  11.787  13.030
79858W        W43417  40.027  13.667  14.413
79859W        W43418  10.371  20.069  12.012
79860W        W43419  15.793   9.360  14.921
79861W        W43420  17.671  33.580  14.411
79862W        W43421  32.940  26.677   0.817
79863W        W43422   7.902  38.904  14.274
79864W        W43423  25.076  41.498   4.736
79865W        W43424  32.592  30.552  12.013
79866W        W43425  44.397  26.481  14.286
79867W        W43426  15.157  42.963  12.533
79868W        W43427  28.502  34.507  11.037
79869W        W43428   0.263  14.754  12.429
79870W        W43429  21.122  19.553  11.579
79871W        W43430  40.491  30.983  13.870
79872W        W43431  12.265  11.146  11.996
79873W        W43432   1.318  43.274   2.404
79874W        W43433  32.119   9.269  14.506
79875W        W43434  17.725  22.725   1.837
79876W        W43435  43.291  15.117   3.821
79877W        W43436   6.831  29.472   1.739
79878W        W43437  16.276  23.733  14.316
79879W        W43438   4.853  27.190  13.038
79880W        W43439   9.680  25.477   1.429
79881W        W43440  15.213  12.159   0.943
79882W        W43441  27.048  43.774  11.861
79883W        W43442  41.924  21.171  14.920
79884W        W43443  18.199  22.718   2.681
79885W        W43444  26.202  43.966   3.185
79886W        W43445  21.185  18.557  11.432
79887W        W43446   7.343  41.388  11.919
79888W        W43447   6.278  32.449   0.915
79889W        W43448  34.470   3.349   4.310
79890W        W43449  39.846  42.797  13.876
79891W        W43450   1.257  44.808   1.926
79892W        W43451  34.016  28.171   1.276
79893W        W43452  43.978   9.791  11.980
79894W        W43453  17.800  10.831   2.876
79895W        W43454  39.008   2.750  11.019
79896W        W43455  38.071  33.034   3.865
79897W        W43456  31.458  18.268  10.966
79898W        W43457   8.192  20.227  13.967
79899W        W43458  37.968  27.660  14.473
79900W        W43459  11.776  38.935   2.746
79901W        W43460   1.864  11.665   1.313
79902W        W43461   9.773   4.410   4.203
79903W        W43462  44.760  39.054  11.891
79904W        W43463  37.873  10.670   2.867
79905W        W43464  29.139  20.703  11.528
79906W        W43465  25.986  34.046  14.383
79907W        W43466   6.808  43.433  12.080
79908W        W43467  16.573  31.120  10.592
79909W        W43468  15.797   4.835   2.795
79910W        W43469  38.835  32.606  10.888
79911W        W43470  25.077   2.368   1.216
79912W        W43471  25.134  37.511  10.581
79913W        W43472  39.829  26.598  12.393
79914W        W43473  15.601   7.835   0.882
79915W        W43474  24.490  14.176  12.997
79916W        W43475  17.185   8.798  13.380
79917W        W43476  14.112  41.522   1.789
79918W        W43477  30.082  30.018   4.824
79919W        W43478  16.630  43.901  11.044
79920W        W43479  40.322  40.437   4.728
79921W        W43480  17.228  25.648   0.795
79922W        W43481  28.053  42.796   4.174
79923W        W43482  17.587  17.288   1.410
79924W        W43483  14.606  32.098  10.444
79925W        W43484  37.022  20.632  10.535
79926W        W43485  17.612  44.800   0.468
79927W        W43486  39.828  23.529  13.409
79928W        W43487  16.725  31.983  13.938
79929W        W43488  37.551  32.422   2.727
79930W        W43489  33.028  26.987  14.998
79931W        W43490   7.193   6.817  11.026
79932W        W43491  25.579  20.269   4.703
79933W        W43492  26.590   5.349  13.463
79934W        W43493  11.218  17.209   0.869
79935W        W43494  32.063  29.137   0.898
79936W        W43495  17.617   9.235   3.304
79937W        W43496  34.033   7.257   3.655
79938W        W43497  15.810  34.442  14.385
79939W        W43498   2.934  39.472   2.812
79940W        W43499  36.475  42.006   1.442
79941W        W43500  36.541  40.888  12.487
79942W        W43501  43.407  19.274   4.280
79943W        W43502  39.384  25.149  10.445
79944W        W43503  44.841   8.376  14.344
79945W        W43504  27.133  13.188  12.531
79946W        W43505  12.781  23.022   3.738
79947W        W43506  16.162   3.781   3.820
79948W        W43507  42.857  42.868   4.322
79949W        W43508  23.538  44.438   1.878
79950W        W43509  38.956  43.458  11.432
79951W        W43510  27.099  35.914   2.340
79952W        W43511  21.526  19.058  14.365
79953W        W43512  16.606  30.082   3.164
79954W        W43513  11.332  22.547   3.263
79955W        W43514  14.763  12.127  12.082
79956W        W43515  22.682  37.018  10.587
79957W        W43516  10.684  12.641  12.363
79958W        W43517  43.385   4.918   0.752
79959W        W43518  44.502  35.405  14.981
79960W        W43519  37.059  20.731  12.979
79961W        W43520  26.105   6.391   4.325
79962W        W43521  36.060  14.605   2.413
79963W        W43522  42.339  34.949   4.192
79964W        W43523  39.041  25.481   3.221
79965W        W43524  32.968   3.898  13.370
79966W        W43525  18.555  14.127  10.584
79967W        W43526  39.962  33.503   0.416
79968W        W43527  26.045  24.115  11.882
79969W        W43528   8.364  42.987   5.086
79970W        W43529  34.077  15.260   4.658
79971W        W43530  26.545   8.865  13.062
79972W        W43531  35.065  14.801  11.974
79973W        W43532  41.976  36.016   1.256
79974W        W43533  16.139   0.300   3.357
79975W        W43534   6.719  40.860   1.802
79976W        W43535  26.696  39.996   2.345
79977W        W43536  33.050  15.677   2.884
79978W        W43537  30.538  19.252   3.269
79979W        W43538   0.261  12.253  13.522
79980W        W43539  10.862  34.551   1.420
79981W        W43540  29.519   5.406   2.362
79982W        W43541  43.012  24.616  12.359
79983W        W43542  38.997  41.898  11.390
79984W        W43543  12.254  44.892   3.821
79985W        W43544  37.867   4.420  13.427
79986W        W43545  25.004  31.905  10.064
79987W        W43546  28.553  36.012   4.763
79988W        W43547   8.874  34.113   1.842
79989W        W43548  22.595   8.788   3.761
79990W        W43549   1.951  27.986  10.493
79991W        W43550   9.150  15.314   4.660
79992W        W43551  26.674  40.424  10.944
79993W        W43552  27.529  15.722  13.456
79994W        W43553   6.207  16.186   1.897
79995W        W43554   4.703   4.286   4.248
79996W        W43555  13.288  20.267  10.617
79997W        W43556  29.010  17.198   1.834
79998W        W43557  11.265  21.668   4.265
79999W        W43558  11.738  19.731   2.281
80000W        W43559  27.192   5.309   1.729
80001W        W43560   2.285   7.204   4.173
80002W        W43561  22.728  11.667   0.304
80003W        W43562  30.565  32.442  14.840
80004W        W43563  26.079   8.174  11.573
80005W        W43564  42.345   7.831   4.118
80006W        W43565  42.322  43.401  14.282
80007W        W43566  13.137  39.050   0.936
80008W        W43567  28.156  40.319   3.720
80009W        W43568  41.882  42.947  12.524
80010W        W43569   5.783   4.876   0.888
80011W        W43570  17.295  35.914  13.511
80012W        W43571  26.499   0.934   0.439
80013W        W43572  39.456  36.442   3.264
80014W        W43573   9.354  31.017   4.786
80015W        W43574   1.273  15.105   2.820
80016W        W43575  25.019   9.801  13.531
80017W        W43576   4.208  11.820   0.915
80018W        W43577  15.629  42.929   2.712
80019W        W43578   9.289  12.170   4.644
80020W        W43579  20.677  28.181   4.621
80021W        W43580  25.535  43.270   1.908
80022W        W43581  22.072  27.585   5.141
80023W        W43582  14.334  10.340   2.889
80024W        W43583  17.165  36.063   3.180
80025W        W43584   6.229  38.038  10.005
80026W        W43585  43.270   8.829  13.329
80027W        W43586  43.309  25.625   2.865
80028W        W43587  16.093  15.626   1.242
80029W        W43588  14.759  38.405   1.315
80030W        W43589   1.830  14.328   2.827
80031W        W43590  32.060  41.003  12.546
80032W        W43591  11.758  25.550  11.466
80033W        W43592  24.537  26.186   2.689
80034W        W43593  44.003  37.456  11.987
80035W        W43594  20.250  18.066  13.332
80036W        W43595  21.523  29.644   0.911
80037W        W43596  18.690  42.948  14.323
80038W        W43597  30.020  32.941   2.208
80039W        W43598  39.910  21.068   2.774
80040W        W43599   6.721  15.608  10.894
80041W        W43600  19.750  37.904  12.831
80042W        W43601  11.798  26.458  11.115
80043W        W43602   3.241  24.070  14.024
80044W        W43603  25.064  19.096  12.508
80045W        W43604  41.893  39.530   4.669
80046W        W43605  11.843  40.857   1.800
80047W        W43606   3.947  43.398   2.821
80048W        W43607   9.189  43.917   3.761
80049W        W43608  18.558  33.558  10.426
80050W        W43609   1.346   6.410  12.468
80051W        W43610  39.425  11.128   2.283
80052W        W43611  33.061  17.720  10.560
80053W        W43612  23.505  15.223   0.348
80054W        W43613  20.076  16.159  11.466
80055W        W43614  11.132  38.043   4.817
80056W        W43615  26.481   6.422   4.209
80057W        W43616  25.471  28.623  14.975
80058W        W43617  23.693  30.938   0.433
80059W        W43618  21.256  16.652   4.227
80060W        W43619   5.744  43.502  13.923
80061W        W43620  23.196   5.211   0.791
80062W        W43621   3.869   6.870  11.954
80063W        W43622  10.278  15.799  10.041
80064W        W43623  15.703  27.001   3.636
80065W        W43624  23.501  26.995  14.794
80066W        W43625  21.611  40.509  12.977
80067W        W43626  25.161  22.102  11.554
80068W        W43627  18.733  24.997   3.637
80069W        W43628  28.016  30.500   5.174
80070W        W43629  37.001  26.514   0.458
80071W        W43630  25.620   0.381   4.263
80072W        W43631   8.808  24.548  13.038
80073W        W43632   2.874   1.238   4.294
80074W        W43633   7.260  14.800   0.320
80075W        W43634   5.254   7.776  10.477
80076W        W43635  36.007  20.703  11.497
80077W        W43636  28.075  21.076  13.388
80078W        W43637  30.423  15.737   1.878
80079W        W43638   2.784  25.143  11.423
80080W        W43639  23.638  14.824   1.287
80081W        W43640  12.733  36.996   0.277
80082W        W43641  42.016  44.277   0.847
80083W        W43642  37.039  44.950   3.301
80084W        W43643   1.482  42.776  10.476
80085W        W43644  21.100  10.371  12.415
80086W        W43645  36.846   9.293  13.510
80087W        W43646  24.721  13.825  11.115
80088W        W43647  22.572  31.005  13.826
80089W        W43648   3.741  13.781   0.807
80090W        W43649  30.120  37.348  11.087
80091W        W43650  44.464  21.605  13.996
80092W        W43651  17.157  21.242   2.668
80093W        W43652   2.824   0.384  12.453
80094W        W43653   0.818  19.624  14.968
80095W        W43654  35.855  16.746  13.044
80096W        W43655  11.244  29.625  12.546
80097W        W43656  17.147  41.384   4.235
80098W        W43657  29.598  42.398   0.956
80099W        W43658  42.002   2.864  12.550
80100W        W43659  36.463   7.399  10.524
80101W        W43660   7.875  32.512  10.980
80102W        W43661  19.249  35.516  13.935
80103W        W43662   7.799  25.591  13.318
80104W        W43663  35.372  11.134  11.875
80105W        W43664  40.985  18.646   1.424
80106W        W43665  20.062  33.553  13.041
80107W        W43666   9.815  19.690  14.402
80108W        W43667  12.330  38.925   0.367
80109W        W43668   2.247   9.187   3.851
80110W        W43669   1.953  32.562  14.387
80111W        W43670  29.559  40.925  13.967
80112W        W43671  13.198  34.473   5.691
80113W        W43672  42.322  40.433   4.248
80114W        W43673   2.393  13.674   3.344
80115W        W43674   5.688   6.277   3.318
80116W        W43675   6.906  28.164   2.300
80117W        W43676  26.514  20.742   3.738
80118W        W43677  29.529   5.349   0.942
80119W        W43678  10.157   3.447   4.758
80120W        W43679  42.303  12.199  11.951
80121W        W43680  27.982  29.584   2.210
80122W        W43681  38.040   9.757   0.259
80123W        W43682  15.315  24.116  11.548
80124W        W43683  13.275   9.278   4.800
80125W        W43684   0.319  34.434  11.067
80126W        W43685  23.598   4.278  11.082
80127W        W43686  21.564  28.640  12.551
80128W        W43687  31.597  17.726   4.217
80129W        W43688  27.163  34.948  14.484
80130W        W43689  27.674  12.795  14.881
80131W        W43690  11.810   9.752   9.519
80132W        W43691  20.185  41.032   2.366
80133W        W43692   0.759  12.787  10.501
80134W        W43693  27.068  23.720  11.964
80135W        W43694  29.157  22.697  14.294
80136W        W43695  16.131  26.633  14.384
80137W        W43696  15.102   4.279  10.410
80138W        W43697  26.689  23.505   3.802
80139W        W43698  25.578  28.494  10.428
80140W        W43699  33.005  35.006   1.819
80141W        W43700  29.028   6.831   2.726
80142W        W43701  11.804  29.948  12.465
80143W        W43702  27.074  26.689  12.932
80144W        W43703  12.311  22.720   4.238
80145W        W43704   9.762  29.665  13.400
80146W        W43705  29.159  33.434   4.706
80147W        W43706  34.377   0.839  12.974
80148W        W43707  33.463  10.251  11.514
80149W        W43708  40.455  16.310  14.777
80150W        W43709  38.894   3.776   4.273
80151W        W43710   2.402   4.911  14.952
80152W        W43711   6.423   0.771   5.269
80153W        W43712  32.909  37.898   2.668
80154W        W43713  31.132  18.173   4.597
80155W        W43714  15.783  17.071   1.281
80156W        W43715  18.281  41.516  10.517
80157W        W43716  38.931  34.954  13.400
80158W        W43717  24.072  16.752  10.506
80159W        W43718  24.049  15.680   3.726
80160W        W43719  33.480  10.852  13.314
80161W        W43720   1.973  42.337  10.430
80162W        W43721  15.243   6.867   9.559
80163W        W43722  20.193  17.784  13.061
80164W        W43723  29.453  31.047  12.404
80165W        W43724  42.443  38.029  11.527
80166W        W43725  36.371  37.395  12.012
80167W        W43726  36.983  17.791  13.528
80168W        W43727  31.588  11.272  14.826
80169W        W43728   6.404  23.519   0.828
80170W        W43729   2.912   8.220  12.533
80171W        W43730  34.103  33.440   3.670
80172W        W43731   7.893  22.135   3.378
80173W        W43732  18.288  10.213   2.725
80174W        W43733  24.681  25.072   5.132
80175W        W43734  40.903  17.603   2.747
80176W        W43735  38.539  12.671   4.179
80177W        W43736  43.423  18.739   1.381
80178W        W43737  13.840  18.762  11.439
80179W        W43738  27.512  15.120   0.956
80180W        W43739  24.619  19.222  13.413
80181W        W43740   8.758  40.419  10.608
80182W        W43741  38.881  20.143   3.666
80183W        W43742  13.241   1.310   1.406
80184W        W43743  34.565  17.278   3.328
80185W        W43744  28.465  11.843   4.165
80186W        W43745  17.723   5.816  11.506
80187W        W43746   8.759   9.711  11.895
80188W        W43747  18.730   7.209  10.095
80189W        W43748   0.977   5.228   4.756
80190W        W43749  10.368  31.067   5.192
80191W        W43750  25.992  37.524   1.828
80192W        W43751  34.417  28.025   3.309
80193W        W43752  37.901   9.727   3.188
80194W        W43753  32.978  35.476  13.548
80195W        W43754  24.607  22.132  10.983
80196W        W43755  42.030  32.525  12.997
80197W        W43756  28.150  37.555   1.914
80198W        W43757  37.366   3.388   5.205
80199W        W43758  30.479  33.109   4.743
80200W        W43759   7.393  37.856  11.091
80201W        W43760  19.210   8.160  11.493
80202W        W43761  26.535  44.462  13.833
80203W        W43762  30.113  31.906   2.289
80204W        W43763  24.515  24.522   0.343
80205W        W43764  19.100  15.213  10.584
80206W        W43765  35.505  38.417   0.335
80207W        W43766  43.465  25.588   1.362
80208W        W43767  12.213  14.107   3.228
80209W        W43768  11.716  10.271  14.380
80210W        W43769  12.234  16.217   9.555
80211W        W43770  10.793  28.990   4.616
80212W        W43771  31.955  28.514  12.524
80213W        W43772   1.796   7.324   3.845
80214W        W43773  39.943   8.256   4.124
80215W        W43774  10.253  20.715  11.888
80216W        W43775   9.786  36.905  13.963
80217W        W43776  12.828  32.463   4.158
80218W        W43777  42.874  35.990  11.012
80219W        W43778  13.685  13.200  14.797
80220W        W43779  20.619   6.397   2.680
80221W        W43780  15.785  39.523   2.720
80222W        W43781  13.203  32.927  14.405
80223W        W43782  36.005  24.032   0.397
80224W        W43783  29.164  26.593  12.550
80225W        W43784  33.951   4.753   0.861
80226W        W43785  41.800  17.246   4.679
80227W        W43786  12.256  12.212  11.067
80228W        W43787  33.874  41.040  13.404
80229W        W43788  29.563  15.089  12.576
80230W        W43789  16.282   1.743   0.479
80231W        W43790   1.430   6.303   4.137
80232W        W43791  12.235  20.176   1.276
80233W        W43792  40.494  30.556  11.094
80234W        W43793   2.873  13.681   4.657
80235W        W43794  39.998  10.350   4.216
80236W        W43795  26.192  19.263  14.885
80237W        W43796  23.218  14.723   0.403
80238W        W43797  40.945  22.653  11.583
80239W        W43798   2.849  34.017   3.316
80240W        W43799   6.802  11.704  10.566
80241W        W43800   9.682  23.678   1.868
80242W        W43801   7.229  34.566   2.742
80243W        W43802   0.421   7.176   2.785
80244W        W43803   0.388  37.351  13.312
80245W        W43804  43.970  16.711   1.217
80246W        W43805   0.266  35.419  10.586
80247W        W43806  20.053  36.515  11.863
80248W        W43807  14.757   7.740   3.692
80249W        W43808  15.758  14.701   4.332
80250W        W43809  22.540  13.300   1.393
80251W        W43810  16.258  10.665   1.925
80252W        W43811  25.644  44.391  14.499
80253W        W43812  31.421  36.875  14.802
80254W        W43813  23.170  12.816   5.321
80255W        W43814  32.603  34.392  14.941
80256W        W43815  16.653  40.361  11.100
80257W        W43816   2.951   4.828   2.742
80258W        W43817  41.962   2.289   0.967
80259W        W43818  25.493  15.582  10.897
80260W        W43819  42.286  40.860  11.525
80261W        W43820  12.168   2.251  14.435
80262W        W43821  21.234   7.878   2.891
80263W        W43822  21.733  10.305  14.829
80264W        W43823  44.798  36.935   2.740
80265W        W43824  42.016  27.080   2.807
80266W        W43825  22.239  33.408   2.207
80267W        W43826  17.172  22.561  11.934
80268W        W43827   7.801  31.463  14.944
80269W        W43828  33.902  25.480  11.109
80270W        W43829   6.808  22.106  13.961
80271W        W43830  22.087  13.648  14.297
80272W        W43831  24.502  27.615  14.392
80273W        W43832  11.325  32.908  10.610
80274W        W43833  24.144  37.582  11.609
80275W        W43834   9.671   4.302  11.597
80276W        W43835  12.145  20.101  13.530
80277W        W43836  24.722  38.548  13.349
80278W        W43837  21.018  16.139   2.263
80279W        W43838  13.636   7.848   3.191
80280W        W43839   3.453  34.468  11.095
80281W        W43840  18.565  22.711   1.337
80282W        W43841  32.486  37.466  11.902
80283W        W43842   0.394  32.078  13.416
80284W        W43843  37.451  27.115   1.856
80285W        W43844  33.472   2.386  10.512
80286W        W43845   5.832  16.170   1.900
80287W        W43846  27.454  23.553   0.928
80288W        W43847  14.095  37.541  14.900
80289W        W43848  19.623  42.812  10.891
80290W        W43849  34.527  31.098   2.785
80291W        W43850  17.607  37.499   3.348
80292W        W43851  20.592  15.773   3.693
80293W        W43852  32.446  15.205   2.733
80294W        W43853  28.545   6.842  14.880
80295W        W43854   8.664  15.195  13.445
80296W        W43855  18.754   3.391  14.336
80297W        W43856  41.010   1.754   3.706
80298W        W43857  30.140  38.445  10.966
80299W        W43858  10.148  41.863  13.999
80300W        W43859  29.607  35.380   4.715
80301W        W43860  36.864  37.073   3.755
80302W        W43861   1.870  34.480  13.448
80303W        W43862  32.085  16.762  12.460
80304W        W43863  37.027  18.190  14.915
80305W        W43864  31.113   8.842   1.818
80306W        W43865  17.303  40.869  12.051
80307W        W43866  34.100  42.991   3.638
80308W        W43867  26.617  23.527   2.239
80309W        W43868  35.919  13.256   2.388
80310W        W43869  11.738  44.429   4.623
80311W        W43870  11.293  18.728  11.582
80312W        W43871  39.944   7.288  11.525
80313W        W43872  42.781   1.787  12.443
80314W        W43873  37.444   3.447  12.091
80315W        W43874  15.085  35.454   3.653
80316W        W43875  24.584  13.668  13.956
80317W        W43876  40.851  42.436  13.367
80318W        W43877   0.910  27.174   2.705
80319W        W43878  27.144  30.443   1.337
80320W        W43879  24.527  20.119   3.335
80321W        W43880  33.448  30.451  11.030
80322W        W43881  25.511   8.273   4.836
80323W        W43882  22.616  10.751   5.175
80324W        W43883  42.777  28.538  14.278
80325W        W43884   8.698  18.266   1.867
80326W        W43885  29.449  19.183  10.516
80327W        W43886  28.447  43.280   1.890
80328W        W43887   9.722  35.573  10.525
80329W        W43888  42.823  23.578   2.178
80330W        W43889  12.618  35.022   0.345
80331W        W43890  26.463  15.684  14.024
80332W        W43891  37.908   6.319  12.020
80333W        W43892   5.212  35.032   0.745
80334W        W43893  29.566   0.358   1.718
80335W        W43894  25.220  29.138  12.094
80336W        W43895  15.274   3.777  11.478
80337W        W43896  32.051   2.287  14.968
80338W        W43897   1.744  31.997  10.559
80339W        W43898  29.106  10.234   0.779
80340W        W43899  14.285  29.495  11.414
80341W        W43900   4.897  24.160  14.507
80342W        W43901  23.079  15.224   2.182
80343W        W43902   5.770   2.244   3.246
80344W        W43903  22.504  30.118  11.441
80345W        W43904   1.868  13.743  13.892
80346W        W43905  42.853  24.198   4.832
80347W        W43906  21.650  18.108   1.346
80348W        W43907  38.820  34.596   2.790
80349W        W43908   4.411  42.507   2.681
80350W        W43909   2.460  17.064   9.976
80351W        W43910   0.427   8.190   1.740
80352W        W43911  25.547  10.229  13.797
80353W        W43912  30.441  24.561  11.381
80354W        W43913  18.255  34.383   0.266
80355W        W43914  38.883  37.922   1.346
80356W        W43915  17.702  37.081  11.424
80357W        W43916   6.226  12.690   2.897
80358W        W43917   0.378  14.246   2.821
80359W        W43918  22.714  35.019  12.503
80360W        W43919  36.379  34.412  11.478
80361W        W43920  18.193   0.259  11.548
80362W        W43921  23.109  37.411   5.291
80363W        W43922   5.917  37.048  13.062
80364W        W43923  13.274  20.117   1.815
80365W        W43924  29.100  29.604  10.914
80366W        W43925  24.104  32.552   0.788
80367W        W43926  25.587  21.056  12.495
80368W        W43927  11.735  21.100  12.919
80369W        W43928   4.862  36.466  12.846
80370W        W43929  36.407  33.387  13.471
80371W        W43930  33.915  39.879   4.599
80372W        W43931  12.186  23.665   3.269
80373W        W43932  16.606  23.240  12.349
80374W        W43933  34.925  12.787   4.312
80375W        W43934  31.408  22.022   2.228
80376W        W43935   5.333  39.905   1.833
80377W        W43936  17.221  21.672  12.049
80378W        W43937  24.693  39.035  10.608
80379W        W43938  37.854  33.891  10.568
80380W        W43939   0.893  37.883   4.634
80381W        W43940   2.400  24.190  11.376
80382W        W43941  37.548  27.585  11.917
80383W        W43942  19.144  21.220   3.186
80384W        W43943  28.995  23.501  10.082
80385W        W43944  21.105  25.617   4.684
80386W        W43945  27.592  11.307   2.835
80387W        W43946  11.776  32.913   1.806
80388W        W43947   6.307  12.734   2.295
80389W        W43948   6.866  14.729  11.375
80390W        W43949  37.983  37.952  14.979
80391W        W43950  18.607  35.388  11.921
80392W        W43951   5.287  14.817  14.940
80393W        W43952  26.197  38.990   0.738
80394W        W43953  18.124   6.278  13.536
80395W        W43954  22.593  34.430  12.940
80396W        W43955   6.703  33.034  13.882
80397W        W43956  11.366  27.117  12.554
80398W        W43957  40.993  12.292  12.042
80399W        W43958  33.082  12.254  14.357
80400W        W43959  30.421  44.884   0.480
80401W        W43960  42.428  19.606  13.797
80402W        W43961  20.215  14.596  11.448
80403W        W43962  24.698  25.183   1.896
80404W        W43963   7.741  38.413  13.862
80405W        W43964   0.934  29.109  11.979
80406W        W43965  32.635  16.313   0.778
80407W        W43966  43.980  13.805   4.633
80408W        W43967  28.071   7.690   3.312
80409W        W43968  11.244   6.345   4.767
80410W        W43969  22.068  26.574  10.611
80411W        W43970  36.884  26.155   1.710
80412W        W43971  40.956   2.838  13.859
80413W        W43972   3.287  15.326  13.527
80414W        W43973  13.332   8.790  14.503
80415W        W43974  41.484   2.841  14.407
80416W        W43975  40.455  33.930  11.057
80417W        W43976  29.505  40.529   0.400
80418W        W43977  40.522  30.510   1.269
80419W        W43978  30.440  32.488   0.878
80420W        W43979  32.598  28.981  14.391
80421W        W43980  10.856   7.191  10.941
80422W        W43981  35.445  33.563  11.118
80423W        W43982  24.580  22.600   9.945
80424W        W43983  43.378  38.986  14.990
80425W        W43984  36.048   6.844   4.710
80426W        W43985  22.200  35.949  12.082
80427W        W43986  20.220  19.600   2.679
80428W        W43987  32.418  22.239  12.852
80429W        W43988  37.510  40.531  14.351
80430W        W43989   4.355  36.079  12.975
80431W        W43990   9.752  14.658   2.366
80432W        W43991  41.989  29.133  10.143
80433W        W43992  33.516   8.816   3.647
80434W        W43993  44.465  24.003   4.296
80435W        W43994  25.592  23.109   2.243
80436W        W43995  42.888  26.559  12.031
80437W        W43996   1.388  32.123  14.889
80438W        W43997  25.492  21.164  14.860
80439W        W43998   1.337  37.490  14.979
80440W        W43999  23.236   0.386   1.451
80441W        W44000  43.272  35.567  12.345
80442W        W44001   1.794  12.254  12.412
80443W        W44002   4.373   8.188  11.512
80444W        W44003  19.563  37.020   1.753
80445W        W44004   5.331  34.021   0.446
80446W        W44005  43.893  11.338   2.673
80447W        W44006  18.282  26.588  10.966
80448W        W44007  19.559   7.793   5.313
80449W        W44008  15.716  19.131  11.403
80450W        W44009  23.134  16.132   0.741
80451W        W44010  20.242  22.675  14.490
80452W        W44011  15.124  14.779   0.327
80453W        W44012  13.761  26.076  14.284
80454W        W44013  32.534  37.080   2.737
80455W        W44014  14.745  19.197   3.368
80456W        W44015  34.614  30.138   3.190
80457W        W44016   7.273  44.468  13.968
80458W        W44017  22.534  38.371  10.933
80459W        W44018  23.587  35.079  13.513
80460W        W44019  27.587  18.781  12.944
80461W        W44020  34.951  11.260   4.744
80462W        W44021  21.257  36.532  13.468
80463W        W44022   4.834   1.276   4.327
80464W        W44023  25.996  19.629  11.856
80465W        W44024  36.401  10.837  12.541
80466W        W44025  42.355  39.958  10.914
80467W        W44026  29.512  23.028   3.665
80468W        W44027  19.084  42.333  11.909
80469W        W44028  27.071  24.046   4.194
80470W        W44029  25.487  25.106   0.383
80471W        W44030  37.900  24.601   2.760
80472W        W44031   6.308   3.894   4.297
80473W        W44032   2.318  28.570   3.361
80474W        W44033  40.800  40.442   1.265
80475W        W44034  26.075  33.914  10.992
80476W        W44035  16.732   8.306   4.169
80477W        W44036  36.584  28.658   2.837
80478W        W44037   7.361   3.309  13.522
80479W        W44038  31.050  13.636  14.915
80480W        W44039   3.335  11.164  11.909
80481W        W44040  42.346  12.766  14.864
80482W        W44041   1.846  16.163   2.236
80483W        W44042  28.458  33.920  12.523
80484W        W44043  15.172  32.901   1.254
80485W        W44044  40.911  20.134   0.429
80486W        W44045  10.844  42.425  14.960
80487W        W44046  21.091  43.891   9.962
80488W        W44047  25.095  10.263   2.386
80489W        W44048  23.117  28.038   5.188
80490W        W44049  32.079   1.771   1.435
80491W        W44050  18.276  14.166   2.817
80492W        W44051  30.584  20.538  13.920
80493W        W44052  13.226  31.447  11.418
80494W        W44053  10.774  19.134  10.514
80495W        W44054  42.511   5.734   4.835
80496W        W44055  38.328  22.040  14.293
80497W        W44056  31.126  21.625   2.233
80498W        W44057  16.800  42.006  12.554
80499W        W44058  17.697  11.725  11.053
80500W        W44059  19.188  29.481  11.876
80501W        W44060  43.400  13.828   2.837
80502W        W44061  27.143  22.227  10.610
80503W        W44062   2.956  25.558   3.233
80504W        W44063  22.138  19.181   0.793
80505W        W44064  34.104  39.020  10.102
80506W        W44065  44.294  14.606   4.829
80507W        W44066   2.945  36.857   4.250
80508W        W44067  27.558  38.880   0.921
80509W        W44068   5.305  22.727  13.436
80510W        W44069  18.574  19.690   2.885
80511W        W44070   8.887  34.569   4.353
80512W        W44071  29.166   7.759  13.371
80513W        W44072  35.020  34.051   4.135
80514W        W44073  18.698  15.595   1.216
80515W        W44074  24.161  27.514  12.484
80516W        W44075   1.899   4.399   4.228
80517W        W44076  15.168  35.964  11.444
80518W        W44077  36.953  15.265   4.715
80519W        W44078  13.252  14.291   3.158
80520W        W44079  32.985  41.488   3.644
80521W        W44080  21.525  34.389  14.507
80522W        W44081  16.245   6.735   0.794
80523W        W44082   8.806  18.621   4.697
80524W        W44083   4.796  24.554   3.759
80525W        W44084  18.548  39.897  14.451
80526W        W44085  24.054  37.956  12.491
80527W        W44086  23.638  31.057  10.557
80528W        W44087  26.964   0.410   1.336
80529W        W44088  43.948  40.481  14.899
80530W        W44089   2.830   0.828  14.957
80531W        W44090   4.902  25.500   3.739
80532W        W44091   2.725  14.595  13.998
80533W        W44092  36.864  28.934   0.409
80534W        W44093  33.385  42.513   1.412
80535W        W44094  41.536  31.565   4.761
80536W        W44095   9.351  35.052   1.771
80537W        W44096  30.499  36.492   4.692
80538W        W44097  34.601   4.812   4.228
80539W        W44098  31.543  27.171   3.711
80540W        W44099  34.372  29.663   3.789
80541W        W44100  19.210  29.999   2.236
80542W        W44101  19.553   8.796   2.321
80543W        W44102  25.609  34.890  12.961
80544W        W44103  44.393  17.295   4.802
80545W        W44104  24.133   1.961  12.047
80546W        W44105  24.076  14.695  14.004
80547W        W44106   6.236   7.183   0.362
80548W        W44107  40.546   3.425   3.349
80549W        W44108  22.679  41.397  10.459
80550W        W44109  40.337  13.809  14.956
80551W        W44110  13.113  10.697   3.244
80552W        W44111   8.213  13.763  14.960
80553W        W44112  14.322  44.323  12.894
80554W        W44113   5.930  30.500   3.662
80555W        W44114  28.989  19.649   1.285
80556W        W44115  18.682  42.371  14.843
80557W        W44116  17.199  20.169  13.334
80558W        W44117  16.306  25.168  13.956
80559W        W44118   4.779  35.404   0.870
80560W        W44119  32.137  15.277  13.004
80561W        W44120  12.154  34.974  10.935
80562W        W44121  30.613  18.284   1.299
80563W        W44122  29.666   0.381   3.205
80564W        W44123  28.953  15.144   2.360
80565W        W44124  39.515  34.997   1.292
80566W        W44125  19.577  14.243  13.871
80567W        W44126  10.342  33.580   4.266
80568W        W44127   0.410  40.909  12.977
80569W        W44128  16.186  44.909   2.675
80570W        W44129  39.553  21.578  11.448
80571W        W44130   8.724  24.195  11.502
80572W        W44131  16.600   6.706  14.332
80573W        W44132   5.272   3.432   0.429
80574W        W44133  13.625  35.033  12.449
80575W        W44134  26.980  21.175   3.702
80576W        W44135  37.569   2.275   1.277
80577W        W44136  31.126  42.445   3.653
80578W        W44137  40.966   6.280  12.874
80579W        W44138   7.808  20.567  14.278
80580W        W44139  23.560   9.822  14.022
80581W        W44140   1.389  37.351  14.408
80582W        W44141  20.735  10.746  12.891
80583W        W44142  19.184  15.717   1.766
80584W        W44143  28.066  17.241  13.846
80585W        W44144  26.012   5.262   0.315
80586W        W44145  10.222  14.807   3.221
80587W        W44146  37.064  33.035  12.036
80588W        W44147  19.540   2.245  14.871
80589W        W44148  29.171   2.338  14.985
80590W        W44149  31.137   9.164  11.479
80591W        W44150   1.451  23.200  10.550
80592W        W44151  14.199  24.030   3.757
80593W        W44152  38.548  38.332  14.473
80594W        W44153  42.804  38.887   1.447
80595W        W44154  31.567  13.718  10.637
80596W        W44155   3.730  30.621  10.061
80597W        W44156   0.792  35.939   4.137
80598W        W44157  22.112   6.402  11.060
80599W        W44158  24.707  39.841   2.265
80600W        W44159  26.579  26.087   0.357
80601W        W44160  33.397  43.787  13.884
80602W        W44161   6.319   5.714   0.901
80603W        W44162  40.493  38.476  13.861
80604W        W44163  16.658   5.727   0.846
80605W        W44164  27.034   0.395   1.838
80606W        W44165  23.501   9.848  14.316
80607W        W44166  11.809  12.291  11.381
80608W        W44167  35.463   1.930  12.977
80609W        W44168  37.844   7.293  11.423
80610W        W44169  42.857  14.239  12.887
80611W        W44170   9.795  23.074  12.990
80612W        W44171  26.527  35.585   0.389
80613W        W44172  21.570  10.716   3.343
80614W        W44173  35.021  31.012  10.939
80615W        W44174   8.229   0.408  11.448
80616W        W44175  27.066  21.050  11.029
80617W        W44176  27.079  10.339   5.315
80618W        W44177  10.361  35.877   0.967
80619W        W44178  22.087  41.467  11.445
80620W        W44179  21.737   1.425   2.387
80621W        W44180  13.734  30.984   0.785
80622W        W44181  35.444   9.853   3.229
80623W        W44182  11.823  43.408   0.392
80624W        W44183  39.864   5.392  14.006
80625W        W44184  29.552  36.866   2.275
80626W        W44185  37.444  17.272   5.280
80627W        W44186  28.552  29.973  14.792
80628W        W44187   3.891  22.017  10.932
80629W        W44188   3.327  18.252  13.975
80630W        W44189  10.313  13.164  13.414
80631W        W44190  39.463  27.651   2.719
80632W        W44191   1.869   5.430  12.945
80633W        W44192  35.538  25.694  12.060
80634W        W44193   8.856  32.014  13.401
80635W        W44194  36.543  44.380  10.898
80636W        W44195  19.128   0.914  11.500
80637W        W44196  19.043  36.931  14.850
80638W        W44197  16.258  24.057  11.013
80639W        W44198   3.411  25.178   5.279
80640W        W44199  40.025  22.528   4.284
80641W        W44200  34.473  37.373   2.670
80642W        W44201  41.007  14.734  12.517
80643W        W44202  13.246  12.349   4.831
80644W        W44203  16.232  34.468  11.895
80645W        W44204  13.738   5.222   0.377
80646W        W44205  12.200  44.854   4.343
80647W        W44206  34.398  28.506   1.923
80648W        W44207  11.241   8.772   3.342
80649W        W44208  40.542  20.052   2.203
80650W        W44209  15.090  39.469  14.279
80651W        W44210  18.057  40.860   0.919
80652W        W44211  17.087  42.488   0.451
80653W        W44212  25.171  24.641   3.311
80654W        W44213  40.805  24.716   3.146
80655W        W44214  12.203  34.476   0.334
80656W        W44215  41.006  18.225  11.967
80657W        W44216  28.150   2.809  14.899
80658W        W44217  19.548  19.214  11.878
80659W        W44218  23.563  32.010   2.803
80660W        W44219  40.344   1.349  11.934
80661W        W44220  28.490  22.225  12.552
80662W        W44221  12.678   0.799  14.826
80663W        W44222  28.672   5.873   1.900
80664W        W44223  33.429   5.195  12.091
80665W        W44224  35.100  17.730   0.285
80666W        W44225  38.535   3.713   3.825
80667W        W44226   8.271  17.623  13.810
80668W        W44227  29.143  27.587  13.798
80669W        W44228  28.023  43.932   1.363
80670W        W44229   1.972   8.325  13.326
80671W        W44230  12.267  36.540   3.751
80672W        W44231   7.787  16.135   1.212
80673W        W44232  19.246  40.379   0.775
80674W        W44233   9.697  34.918  12.353
80675W        W44234   4.714  22.718   1.227
80676W        W44235  38.899  18.775  11.497
80677W        W44236  13.180  13.186   5.098
80678W        W44237  19.187   5.248  10.469
80679W        W44238  21.594  26.643  11.546
80680W        W44239  35.027  11.343   2.665
80681W        W44240   1.455  25.579  11.489
80682W        W44241   3.836  10.183   5.152
80683W        W44242  44.468  33.386   0.768
80684W        W44243   4.835  33.585   0.848
80685W        W44244  18.070  28.967   4.599
80686W        W44245  42.854  43.883  10.432
80687W        W44246  39.062  28.184   4.761
80688W        W44247  44.446  43.298  11.450
80689W        W44248  39.430   9.363   2.330
80690W        W44249  36.982   6.359  12.944
80691W        W44250  29.928  26.653   3.825
80692W        W44251   0.767  13.806  14.296
80693W        W44252  39.333  21.662  13.944
80694W        W44253   0.387  30.494  10.589
80695W        W44254  20.733  35.971  13.464
80696W        W44255  40.045  12.626   1.295
80697W        W44256  15.261  27.170  12.090
80698W        W44257   1.769  25.039   1.801
80699W        W44258  36.457  31.032  11.557
80700W        W44259   7.828  38.045   3.685
80701W        W44260  18.136  36.480   0.952
80702W        W44261  20.619  30.930  11.102
80703W        W44262  25.059  37.542   1.799
80704W        W44263  21.231  27.070  14.349
80705W        W44264  22.137   7.667  11.876
80706W        W44265   4.358  34.884  12.420
80707W        W44266  16.728   1.367  13.359
80708W        W44267   5.840  26.207   2.271
80709W        W44268  23.504  13.834   3.681
80710W        W44269  17.297  12.627  11.109
80711W        W44270  23.051  43.809   4.346
80712W        W44271  36.051  14.648   1.432
80713W        W44272  25.534  42.326   3.650
80714W        W44273  40.911  29.423  13.863
80715W        W44274  29.924  21.153   4.739
80716W        W44275   2.455  38.397  11.062
80717W        W44276   8.346   8.313  13.813
80718W        W44277  17.630   0.922   4.219
80719W        W44278  26.673  19.603  10.972
80720W        W44279  16.695  43.286   3.359
80721W        W44280  26.626  44.499  14.914
80722W        W44281  39.058  12.137  11.936
80723W        W44282  44.358   6.843   4.670
80724W        W44283   6.864   0.869  14.347
80725W        W44284  32.897  40.007  12.355
80726W        W44285   4.401  23.635   3.282
80727W        W44286  21.557  36.892  13.914
80728W        W44287   1.418   4.353   3.839
80729W        W44288  19.766  11.341   3.212
80730W        W44289  28.564  10.741  10.991
80731W        W44290  36.373   7.400  14.778
80732W        W44291  13.256  40.398   1.823
80733W        W44292  39.026  15.116   0.427
80734W        W44293  11.643  32.939   3.844
80735W        W44294  24.511  36.037  12.051
80736W        W44295  33.053  40.537  10.932
80737W        W44296  38.882  29.557  12.928
80738W        W44297  27.567   1.414  13.798
80739W        W44298   6.239  33.411   0.782
80740W        W44299  17.628  19.776   1.813
80741W        W44300   5.901  44.884  10.989
80742W        W44301  18.244  32.029  11.472
80743W        W44302  25.965  34.080  12.496
80744W        W44303  32.395   9.877  12.523
80745W        W44304  20.682  32.491  14.820
80746W        W44305   4.773  20.709   0.436
80747W        W44306  10.683  18.699  10.095
80748W        W44307  12.746   0.861   0.304
80749W        W44308  39.972  44.282   1.862
80750W        W44309   4.796  23.003  12.419
80751W        W44310   6.693  44.830   2.742
80752W        W44311   1.263  21.144  12.032
80753W        W44312   0.364  21.594   4.182
80754W        W44313  33.447  24.191   4.751
80755W        W44314  19.656  32.032   4.777
80756W        W44315  24.690  44.340  14.855
80757W        W44316  36.917   2.923  14.822
80758W        W44317  20.722  43.008  10.948
80759W        W44318   0.920  30.526   0.747
80760W        W44319  22.588  35.932   2.787
80761W        W44320  33.471  43.844   1.279
80762W        W44321  19.051  17.691   4.325
80763W        W44322  19.614  10.347  14.964
80764W        W44323  28.525   9.322  12.519
80765W        W44324  44.371  23.060  13.452
80766W        W44325  43.006   4.785   0.876
80767W        W44326  26.634  40.461  12.504
80768W        W44327   4.717  30.648  11.048
80769W        W44328  15.717  42.335   2.731
80770W        W44329  38.463  12.349  12.873
80771W        W44330  17.121  40.916   2.898
80772W        W44331  16.084  35.390  11.120
80773W        W44332  40.045  17.233   4.282
80774W        W44333  39.434  23.503  13.373
80775W        W44334  38.449  41.964   1.787
80776W        W44335  41.791   8.863  12.905
80777W        W44336  14.212  17.096   3.654
80778W        W44337  36.058  38.878  11.033
80779W        W44338  34.971  14.157   0.874
80780W        W44339  37.536  31.529   5.196
80781W        W44340  38.374   3.891   0.835
80782W        W44341   9.784  21.660   1.849
80783W        W44342  13.107  26.127  13.440
80784W        W44343  39.868  24.616  13.442
80785W        W44344  19.542  38.823   1.378
80786W        W44345  23.578   7.778  12.910
80787W        W44346  22.694  43.414   3.238
80788W        W44347  38.836  29.034  14.275
80789W        W44348  44.778  17.620  14.361
80790W        W44349  23.507  12.825  11.001
80791W        W44350  12.739  21.044   2.390
80792W        W44351  19.696   6.811   2.387
80793W        W44352   9.643   3.225   4.738
80794W        W44353   2.944  37.573  12.379
80795W        W44354   4.890  19.058  13.421
80796W        W44355  35.957  38.930  11.872
80797W        W44356  39.516   8.733  14.891
80798W        W44357  29.142  44.393   1.928
80799W        W44358  27.463  16.580  12.531
80800W        W44359   0.438   4.395   2.276
80801W        W44360  29.015  29.016   0.934
80802W        W44361  32.929  32.989  12.452
80803W        W44362  29.027  24.561   4.821
80804W        W44363   4.226  37.409   0.883
80805W        W44364  31.627  44.771  13.934
80806W        W44365  26.471  17.265  13.922
80807W        W44366  20.103  17.267  13.439
80808W        W44367   1.466  41.884   3.208
80809W        W44368  43.852   6.344  12.483
80810W        W44369  32.476  38.063   3.176
80811W        W44370  23.988  33.998  14.842
80812W        W44371  17.173  11.215   0.306
80813W        W44372  24.682  26.085  14.787
80814W        W44373  17.797  31.510  14.812
80815W        W44374  38.061  31.559  10.432
80816W        W44375   0.286  20.595  11.945
80817W        W44376  35.487  35.996   4.618
80818W        W44377  21.534  14.308   5.292
80819W        W44378  17.302  13.276   3.779
80820W        W44379  31.558   2.255   1.915
80821W        W44380   0.865  31.606  12.841
80822W        W44381  15.677  29.592   3.823
80823W        W44382  39.964  24.098  12.037
80824W        W44383   2.307  40.321   4.740
80825W        W44384  26.990  29.628   4.789
80826W        W44385  31.903  38.345   1.793
80827W        W44386  34.054  18.125   1.763
80828W        W44387  14.186  18.636   5.266
80829W        W44388   4.817  38.425  11.397
80830W        W44389  17.680   9.380  13.507
80831W        W44390  28.948  39.455  14.401
80832W        W44391  22.024  43.312   1.224
80833W        W44392  21.607  27.097  11.030
80834W        W44393  26.146  42.425  13.979
80835W        W44394  30.455   0.375  11.551
80836W        W44395  44.940  21.073  11.396
80837W        W44396  30.119  43.856  14.937
80838W        W44397  11.259  12.775  10.159
80839W        W44398  32.122  43.003   0.755
80840W        W44399  10.311  19.616   5.269
80841W        W44400   7.783  44.791   2.279
80842W        W44401  31.489   6.740   3.725
80843W        W44402  40.924  24.148  13.494
80844W        W44403  14.188  35.981  11.524
80845W        W44404   0.922  38.339   4.329
80846W        W44405  35.534  35.897   0.431
80847W        W44406   5.715   8.806   0.829
80848W        W44407  32.503  41.815   3.668
80849W        W44408  17.617  41.886  12.079
80850W        W44409   4.769  11.798   2.839
80851W        W44410  17.743  11.301   1.380
80852W        W44411  32.885   7.734   0.909
80853W        W44412  38.453  42.975   2.213
80854W        W44413   5.230  11.732   1.306
80855W        W44414  21.109   8.298   2.387
80856W        W44415   3.746  43.947   3.206
80857W        W44416  39.952  40.516  11.878
80858W        W44417  34.493  19.600   2.780
80859W        W44418  44.937  34.989   2.876
80860W        W44419  42.996  29.011  12.024
80861W        W44420  31.616  43.487   1.332
80862W        W44421  17.149  33.978   1.716
80863W        W44422   8.166  27.958  12.557
80864W        W44423  31.957  33.908  13.055
80865W        W44424  31.007  20.254  14.847
80866W        W44425  35.392   0.286   0.838
80867W        W44426  32.889   4.316  12.858
80868W        W44427   4.300   9.334   3.728
80869W        W44428  29.028  11.709   1.893
80870W        W44429  35.375   0.928   0.243
80871W        W44430  21.112  36.523   0.793
80872W        W44431   6.346   3.396  10.889
80873W        W44432  42.459  22.183  13.886
80874W        W44433  33.454  18.752   5.145
80875W        W44434  10.333  38.044   4.168
80876W        W44435   3.826  33.586   3.362
80877W        W44436  19.651   8.278   2.903
80878W        W44437  40.338  40.023  13.930
80879W        W44438  32.897  28.155  14.288
80880W        W44439  20.144  39.919  13.942
80881W        W44440  40.320  17.801  11.487
80882W        W44441   6.714   3.921   1.847
80883W        W44442  23.670  15.815  13.809
80884W        W44443  20.042  15.603  10.013
80885W        W44444  31.575   6.388  10.457
80886W        W44445  27.105   8.719   9.943
80887W        W44446  37.899   3.396  10.466
80888W        W44447   1.785  36.493  10.522
80889W        W44448  28.455   0.377   1.430
80890W        W44449   9.716   7.857  10.533
80891W        W44450  36.463  10.235   0.379
80892W        W44451   0.383  20.156   1.330
80893W        W44452  23.576  37.061   3.296
80894W        W44453  15.578   4.936  14.403
80895W        W44454  33.971   5.764  12.391
80896W        W44455  36.430   8.193   0.432
80897W        W44456   8.794  40.920   0.762
80898W        W44457  43.962  13.705   2.202
80899W        W44458   6.298  12.681  11.057
80900W        W44459  34.471  36.581  10.442
80901W        W44460   2.961  16.732   2.781
80902W        W44461   9.798  40.961   1.358
80903W        W44462  37.000  19.094  14.944
80904W        W44463  22.602  39.037   2.901
80905W        W44464  33.436  40.945  13.435
80906W        W44465  33.009  33.092  14.816
80907W        W44466   8.685  23.603  11.492
80908W        W44467  32.981  21.587  10.513
80909W        W44468  30.512   7.193  12.084
80910W        W44469  43.839   5.726   2.731
80911W        W44470   7.227   4.840   3.259
80912W        W44471  38.895  34.001   4.292
80913W        W44472  35.453  20.105  11.513
80914W        W44473  18.059  35.414  13.006
80915W        W44474   6.288  20.132   1.783
80916W        W44475  14.749  43.284  13.869
80917W        W44476   6.400  25.690  12.081
80918W        W44477  23.579  36.891  12.921
80919W        W44478  18.237  43.941  11.577
80920W        W44479  21.551   9.729   0.824
80921W        W44480   6.195  17.768  14.468
80922W        W44481  35.049   0.876   3.373
80923W        W44482  16.579  42.328   3.772
80924W        W44483  39.914  35.531  14.417
80925W        W44484  12.357   0.778   2.747
80926W        W44485   6.881  40.530   1.830
80927W        W44486   6.785  10.646   4.145
80928W        W44487  40.846  44.491  10.521
80929W        W44488  44.885  19.695   3.744
80930W        W44489  24.123  12.217  13.048
80931W        W44490  31.024  35.908   4.238
80932W        W44491  16.266  10.209  13.375
80933W        W44492  38.899  44.402  11.462
80934W        W44493  26.994  44.273   3.327
80935W        W44494  31.629  35.387  11.412
80936W        W44495  44.856   1.954  10.631
80937W        W44496  36.380  17.664   1.804
80938W        W44497  18.249  27.042   2.891
80939W        W44498  37.894   2.818  10.425
80940W        W44499  28.139   6.221   2.857
80941W        W44500  27.521  42.800  14.991
80942W        W44501  26.571  27.094  11.046
80943W        W44502  19.198  41.886  13.942
80944W        W44503  20.754  40.026  14.426
80945W        W44504  24.710   4.811   2.349
80946W        W44505  30.986  28.451   2.372
80947W        W44506  14.231  28.168   1.314
80948W        W44507  13.304  17.722   1.841
80949W        W44508  39.477  20.651  10.461
80950W        W44509  19.096  10.381   9.982
80951W        W44510   5.862  14.265   3.335
80952W        W44511   0.288  32.044   4.192
80953W        W44512  23.661  24.540   0.957
80954W        W44513  37.579  30.994  12.045
80955W        W44514  25.628  16.261   0.794
80956W        W44515  19.550  15.613   2.691
80957W        W44516  24.014  18.613  11.925
80958W        W44517  40.939   2.290   4.220
80959W        W44518  18.668  42.792  13.376
80960W        W44519  20.252   2.830  10.946
80961W        W44520  33.417  13.196  11.989
80962W        W44521   9.155  42.332  14.972
80963W        W44522   9.236  43.431   4.148
80964W        W44523  19.072  16.640  14.365
80965W        W44524  31.117  35.573  11.440
80966W        W44525  39.950  29.970  10.421
80967W        W44526  35.456  44.466   0.911
80968W        W44527   1.249  40.839  11.385
80969W        W44528  25.141  39.891  11.120
80970W        W44529  42.783  43.302   2.178
80971W        W44530   4.758  21.592   2.857
80972W        W44531  36.076  39.027   3.387
80973W        W44532   8.371  25.586   3.802
80974W        W44533  19.058  14.815   0.930
80975W        W44534  23.625  14.779  13.852
80976W        W44535  33.608  28.138   5.274
80977W        W44536  15.272  14.768   4.704
80978W        W44537  23.520  38.843  11.460
80979W        W44538  29.664  39.900   1.704
80980W        W44539   6.689  24.490  14.031
80981W        W44540  22.164  24.070   0.732
80982W        W44541  32.955  27.013  12.423
80983W        W44542  19.673  31.044  14.893
80984W        W44543  33.921  21.183   4.783
80985W        W44544  33.948  16.671   4.201
80986W        W44545  36.503  10.365  10.528
80987W        W44546  30.040  15.204   0.856
80988W        W44547  34.566  11.858  12.360
80989W        W44548   3.432   9.377  12.031
80990W        W44549  14.612   1.358  13.802
80991W        W44550  30.517  15.768  12.860
80992W        W44551  10.745   1.928   3.239
80993W        W44552  14.255  42.869  12.882
80994W        W44553  38.541   5.299   4.833
80995W        W44554  15.199  36.487  11.979
80996W        W44555  26.077  12.175   0.942
80997W        W44556   4.210  24.203  11.965
80998W        W44557  21.712  12.649  10.403
80999W        W44558  26.988   5.387   4.298
81000W        W44559  37.986  28.453   1.914
81001W        W44560  18.672  18.746   1.300
81002W        W44561  10.829   3.329   2.708
81003W        W44562  39.427  43.769   2.686
81004W        W44563  35.092  40.457   0.745
81005W        W44564   7.292   1.466   2.829
81006W        W44565  18.622  14.253   2.357
81007W        W44566   3.724  44.986   0.332
81008W        W44567  15.809  40.384   4.637
81009W        W44568  41.371  14.258   4.734
81010W        W44569  17.588  38.557   4.727
81011W        W44570  15.189   1.240  13.948
81012W        W44571  22.006  12.284   3.311
81013W        W44572   6.330  31.404   0.373
81014W        W44573   5.336  12.838   3.283
81015W        W44574  27.453  28.633  10.489
81016W        W44575  11.650  24.615  12.368
81017W        W44576  17.165  36.858   1.904
81018W        W44577  26.074  11.176  12.950
81019W        W44578  33.995  13.178   1.773
81020W        W44579   1.969  42.441   2.780
81021W        W44580  33.058   0.470  12.859
81022W        W44581  20.749  15.148  10.539
81023W        W44582  29.614  28.054  10.549
81024W        W44583   2.775   1.368   1.451
81025W        W44584  40.349  37.959   3.313
81026W        W44585  26.558  10.323   1.369
81027W        W44586   0.886  36.450  11.534
81028W        W44587  17.667  40.034  13.047
81029W        W44588  28.132  21.191  13.940
81030W        W44589  15.208  32.486  11.420
81031W        W44590  32.098  43.005   3.225
81032W        W44591   9.204  37.017  10.520
81033W        W44592  31.031  33.554   2.190
81034W        W44593  28.574  15.587  11.467
81035W        W44594  37.499   9.801   0.440
81036W        W44595  37.869  44.459   1.916
81037W        W44596  26.618  35.082   2.875
81038W        W44597  19.567  34.098  12.008
81039W        W44598  26.527  30.143   5.115
81040W        W44599  38.374   9.851   3.289
81041W        W44600  14.658  18.149  13.440
81042W        W44601  11.199  27.039  13.349
81043W        W44602  34.078  35.888   2.246
81044W        W44603   6.810  20.713  14.916
81045W        W44604  35.999  17.732   0.763
81046W        W44605  19.086  26.127   0.334
81047W        W44606  35.941   6.413   0.360
81048W        W44607  31.085  34.454  11.033
81049W        W44608  38.035  16.274  13.832
81050W        W44609  29.494  17.178  13.019
81051W        W44610  15.793  41.035   4.641
81052W        W44611  41.415  16.216   3.695
81053W        W44612  30.528   8.855   2.308
81054W        W44613  31.499  44.892   1.883
81055W        W44614  12.185   8.656   4.725
81056W        W44615  17.286  42.322   2.191
81057W        W44616  27.006  15.281  12.433
81058W        W44617  13.724  13.329   0.861
81059W        W44618  19.712  17.276   2.262
81060W        W44619  37.860  32.077  11.033
81061W        W44620  41.834  31.110   4.132
81062W        W44621   6.825   9.182  13.862
81063W        W44622  10.330  42.403  10.619
81064W        W44623  32.036  35.481  12.012
81065W        W44624   7.893  30.629   1.843
81066W        W44625   7.344  26.954  12.983
81067W        W44626  27.191  44.884   2.896
81068W        W44627   8.171  16.603   1.864
81069W        W44628   9.159   5.268   4.837
81070W        W44629  17.288   9.818  14.291
81071W        W44630  30.108  24.711  11.416
81072W        W44631   7.833  12.175  14.006
81073W        W44632  39.908  32.623  11.013
81074W        W44633  16.617  31.639  12.930
81075W        W44634  20.158  30.043   0.408
81076W        W44635  25.613  44.834   1.340
81077W        W44636  36.418  33.979   4.785
81078W        W44637  11.835  42.009  11.948
81079W        W44638  43.021  30.574   4.161
81080W        W44639  44.860  40.893   3.336
81081W        W44640   5.432   0.760  13.974
81082W        W44641  12.704  17.773   1.382
81083W        W44642  18.645  39.425   2.774
81084W        W44643  41.496  36.574   1.899
81085W        W44644   5.400   5.874   1.697
81086W        W44645  34.948  24.029   1.714
81087W        W44646  10.324  19.771  11.966
81088W        W44647  10.690  31.607  12.910
81089W        W44648  13.605   9.230   0.471
81090W        W44649  36.903  32.617   3.342
81091W        W44650  30.470   1.933   2.374
81092W        W44651  26.511  19.052   1.292
81093W        W44652   1.241  39.482  14.348
81094W        W44653   2.766  24.099   0.269
81095W        W44654   0.388  27.535   0.862
81096W        W44655   1.952  10.225  13.425
81097W        W44656   3.928  17.725   0.820
81098W        W44657   2.749  42.863  14.962
81099W        W44658  13.265  35.956   3.145
81100W        W44659  21.155   4.806   3.180
81101W        W44660  12.269  20.148  12.371
81102W        W44661   2.723  18.650   1.902
81103W        W44662  27.004  30.915   4.321
81104W        W44663  19.044  32.545   4.323
81105W        W44664  29.085  20.723  14.297
81106W        W44665  15.683  20.718  12.032
81107W        W44666   3.290  43.281  12.831
81108W        W44667   4.928   3.358   0.316
81109W        W44668  39.054   0.808   0.367
81110W        W44669   0.909  17.754   1.329
81111W        W44670  22.094   6.246   4.249
81112W        W44671  26.141  29.112   0.921
81113W        W44672  37.836  40.384  11.496
81114W        W44673  35.880  28.060   4.682
81115W        W44674  17.672  21.611  10.443
81116W        W44675  40.468   9.743  12.062
81117W        W44676  11.714  24.141  13.005
81118W        W44677  39.349  25.482   3.341
81119W        W44678   1.902  31.609   4.708
81120W        W44679  10.723  22.684   1.280
81121W        W44680   4.877  20.759   4.208
81122W        W44681  24.997  27.066   1.751
81123W        W44682  22.122   7.319  13.546
81124W        W44683   2.944  12.681   0.444
81125W        W44684   0.877  26.532   3.323
81126W        W44685  24.544  14.181   3.252
81127W        W44686   7.864  31.927   4.719
81128W        W44687  21.138   4.762  12.377
81129W        W44688   8.399  16.754   2.414
81130W        W44689  16.175   9.863  12.052
81131W        W44690  11.339   1.469  11.540
81132W        W44691  27.659   4.211   2.844
81133W        W44692  31.482  21.252   2.283
81134W        W44693  43.832  36.522   4.655
81135W        W44694   7.307  30.124  12.057
81136W        W44695  14.775  44.893  13.340
81137W        W44696  32.433   7.702  12.500
81138W        W44697  36.956  21.198   4.248
81139W        W44698  32.024  23.557  10.637
81140W        W44699  20.081  40.857  10.637
81141W        W44700  27.196   7.344  10.463
81142W        W44701  15.627  25.106   4.723
81143W        W44702  39.853  30.053  12.025
81144W        W44703  43.462  35.596  10.462
81145W        W44704  21.074  34.978   4.753
81146W        W44705  31.515  36.520  13.007
81147W        W44706   3.941  24.607   0.843
81148W        W44707  39.818  10.172  14.842
81149W        W44708  28.121  37.085   4.299
81150W        W44709  25.019  32.619  13.466
81151W        W44710  41.908  20.223  14.917
81152W        W44711   2.423  44.274  12.989
81153W        W44712  13.790   6.230   1.815
81154W        W44713  27.106  14.212  10.577
81155W        W44714  35.396  44.374   4.200
81156W        W44715  38.829  42.936  11.858
81157W        W44716  44.817  22.034  12.078
81158W        W44717   2.280  34.369   1.316
81159W        W44718  38.407  13.753   2.419
81160W        W44719   8.876  44.268   5.115
81161W        W44720   7.734  27.492   2.711
81162W        W44721  11.139  24.055  14.289
81163W        W44722  17.286  39.017   1.389
81164W        W44723  22.630  11.248  14.395
81165W        W44724  13.720  25.088   0.744
81166W        W44725  14.619  44.375   0.244
81167W        W44726  36.845  10.658   0.433
81168W        W44727  26.004   0.805   1.797
81169W        W44728  19.155  38.928  12.577
81170W        W44729  15.281  19.194   4.719
81171W        W44730   0.393  22.545   1.235
81172W        W44731  11.715   2.227  14.928
81173W        W44732  39.463  10.730  12.472
81174W        W44733  17.232  18.660   1.247
81175W        W44734  21.559  23.677  10.458
81176W        W44735  31.596  17.189  13.509
81177W        W44736  11.273  20.764   0.395
81178W        W44737  19.075  43.326   0.834
81179W        W44738  14.266  31.431   3.860
81180W        W44739   5.708  44.471  11.444
81181W        W44740   7.378   7.346  14.384
81182W        W44741   9.813  31.140   0.352
81183W        W44742   4.336   5.264  11.083
81184W        W44743  12.667  41.933   1.444
81185W        W44744  11.322  17.561  14.510
81186W        W44745  19.282  36.461  14.460
81187W        W44746  29.100   1.806   0.402
81188W        W44747   2.912  19.231  13.448
81189W        W44748  44.317  14.798  10.528
81190W        W44749  26.190  11.303   1.239
81191W        W44750   0.379  39.877  13.843
81192W        W44751   6.789  12.191   3.796
81193W        W44752  29.961  16.083  11.536
81194W        W44753  32.553  30.497   4.234
81195W        W44754  20.236  32.450   3.301
81196W        W44755   3.935  37.475  13.019
81197W        W44756   2.754  16.185  12.483
81198W        W44757   7.775  43.379   3.760
81199W        W44758  33.576  37.847  11.903
81200W        W44759  26.151  27.960   1.305
81201W        W44760   8.254   3.271  11.050
81202W        W44761  15.259  22.637   5.112
81203W        W44762  31.615  32.931   3.841
81204W        W44763  43.778   4.253   3.283
81205W        W44764  27.665  43.981  14.763
81206W        W44765  23.052  38.434  12.480
81207W        W44766  42.966  39.430   3.715
81208W        W44767  11.713  26.953   3.770
81209W        W44768  39.327  38.924   0.264
81210W        W44769   5.812   3.256  14.289
81211W        W44770  43.005  22.736  13.354
81212W        W44771   1.867  32.993   3.203
81213W        W44772   2.825  31.076   0.892
81214W        W44773   6.735   8.772  11.471
81215W        W44774  11.844   4.368   0.868
81216W        W44775  22.203  43.311   3.305
81217W        W44776  40.804  23.230  14.431
81218W        W44777  22.242  38.843   2.864
81219W        W44778   0.966   8.390   1.255
81220W        W44779  43.827  26.208  12.842
81221W        W44780  26.086  30.490   0.460
81222W        W44781  12.174  40.482   2.231
81223W        W44782  32.594  14.243  12.937
81224W        W44783  13.665  32.037  10.599
81225W        W44784  17.157  42.775   4.706
81226W        W44785  11.273  44.962  10.986
81227W        W44786  36.097  28.664  14.889
81228W        W44787  17.783  24.562  10.519
81229W        W44788  36.934  41.385  13.958
81230W        W44789  36.477  40.819   4.711
81231W        W44790  13.237  19.081   3.722
81232W        W44791  23.559  33.405  14.772
81233W        W44792  25.713  31.148   4.703
81234W        W44793  33.068   9.850  14.840
81235W        W44794  30.973  15.246  11.429
81236W        W44795  34.046  42.926   9.949
81237W        W44796  35.953  29.517   1.232
81238W        W44797  18.614  38.427  10.561
81239W        W44798   8.388  32.954  12.087
81240W        W44799  27.030  17.203   2.793
81241W        W44800  12.171  24.609  10.047
81242W        W44801  26.484  33.982  13.526
81243W        W44802   1.908  23.208   4.688
81244W        W44803  26.018  38.976   3.753
81245W        W44804   8.221  17.641   0.796
81246W        W44805  44.778  16.640   4.774
81247W        W44806  11.147  21.122  13.033
81248W        W44807  42.403  38.403   1.756
81249W        W44808  39.905  33.482  14.905
81250W        W44809   4.387  27.191  13.326
81251W        W44810  26.552  38.351   1.314
81252W        W44811  11.749   6.237   1.828
81253W        W44812   8.846   3.872  13.544
81254W        W44813  29.003  32.933  11.118
81255W        W44814   6.189  28.458  14.406
81256W        W44815  30.428  18.791  10.598
81257W        W44816  15.136  39.059   4.608
81258W        W44817  12.673   1.781  12.957
81259W        W44818  34.911   9.378  11.875
81260W        W44819  11.176   2.856  13.431
81261W        W44820  12.346  13.171   0.956
81262W        W44821  44.850  15.272  11.048
81263W        W44822  40.445  43.779  10.560
81264W        W44823  17.121  26.597  14.981
81265W        W44824  18.586  14.256   3.367
81266W        W44825  27.147  10.327   2.858
81267W        W44826  35.377  33.979  14.456
81268W        W44827  32.494  21.529   4.733
81269W        W44828  33.563  17.785   3.748
81270W        W44829  10.822  15.710   3.722
81271W        W44830  43.839   9.363  12.347
81272W        W44831   4.388   5.393  14.475
81273W        W44832  18.138  37.949   2.875
81274W        W44833  43.274   0.476  13.792
81275W        W44834   8.658   7.359  13.977
81276W        W44835  40.976  25.624  12.528
81277W        W44836  35.985  37.013   2.285
81278W        W44837  16.690  18.589   0.460
81279W        W44838  11.300  39.476   1.707
81280W        W44839  35.588   7.799   1.789
81281W        W44840  42.841   6.347  13.007
81282W        W44841   6.255  38.889   4.784
81283W        W44842  14.282  38.478   3.770
81284W        W44843  30.508  43.845  12.459
81285W        W44844   7.366   2.290   3.365
81286W        W44845   4.721   8.381   3.737
81287W        W44846  41.529  18.140   0.766
81288W        W44847  31.898  41.339   0.346
81289W        W44848  22.241   0.870  14.826
81290W        W44849  42.020  12.761   5.093
81291W        W44850  39.315  33.066   2.865
81292W        W44851  12.731  43.799  14.949
81293W        W44852   8.281   7.731   3.252
81294W        W44853   9.305  23.160  14.879
81295W        W44854  27.141  44.792  14.991
81296W        W44855   0.981  21.543   4.818
81297W        W44856  30.030  25.690  12.093
81298W        W44857  17.689  39.823   2.819
81299W        W44858  26.523   0.452   4.754
81300W        W44859   7.354  28.151   0.840
81301W        W44860  41.402   8.260  14.861
81302W        W44861  31.553  25.964   3.764
81303W        W44862  26.683  18.267   3.321
81304W        W44863  10.742  30.983  13.546
81305W        W44864  41.492  30.459  10.431
81306W        W44865  15.109   3.252  12.361
81307W        W44866  44.450  12.701   4.160
81308W        W44867  22.622   9.646   0.255
81309W        W44868   2.235  11.666   2.314
81310W        W44869   0.385  18.288  12.369
81311W        W44870  27.685  41.040  12.564
81312W        W44871  34.868   2.318   2.715
81313W        W44872  25.093  38.483  12.412
81314W        W44873  39.355  34.424  14.283
81315W        W44874  42.976  44.262   4.304
81316W        W44875   6.677   7.235   1.745
81317W        W44876  10.764   8.830  11.124
81318W        W44877  40.304  30.151   4.136
81319W        W44878  15.291  24.505   2.272
81320W        W44879  41.534  12.646   3.201
81321W        W44880  10.813  29.021  14.499
81322W        W44881  37.362   0.315   0.924
81323W        W44882  29.638  16.805   2.188
81324W        W44883  44.009  26.658   2.286
81325W        W44884  10.333  31.622   3.323
81326W        W44885  25.211  35.089   1.764
81327W        W44886  11.743  28.545  13.455
81328W        W44887  35.451   3.784  10.465
81329W        W44888   9.283  27.190   0.456
81330W        W44889  27.127  14.691   4.201
81331W        W44890  28.462  37.943  13.544
81332W        W44891   0.776   0.352   4.188
81333W        W44892   7.367  37.999   2.783
81334W        W44893  37.928   1.359   4.236
81335W        W44894  15.221  18.673   3.713
81336W        W44895   1.462  38.900  14.006
81337W        W44896  35.945  32.919  13.316
81338W        W44897  21.528  34.022  11.020
81339W        W44898  32.591  11.250   0.256
81340W        W44899  15.262  38.570   0.358
81341W        W44900  28.960  19.571  11.531
81342W        W44901  33.624  20.526  11.381
81343W        W44902  38.936  31.609   1.218
81344W        W44903  41.918   4.421   1.383
81345W        W44904  19.052  10.767   2.199
81346W        W44905   4.309  11.250  11.060
81347W        W44906  19.199  34.987   0.793
81348W        W44907  40.797  13.113   2.888
81349W        W44908  20.145  28.023  12.836
81350W        W44909  22.216   8.222   4.226
81351W        W44910  20.159  20.190   3.722
81352W        W44911  14.327   0.748  14.013
81353W        W44912  16.730  35.885   1.920
81354W        W44913  35.963  22.568  12.496
81355W        W44914  41.373  13.165   3.326
81356W        W44915  16.701   7.378   4.633
81357W        W44916  20.590  17.136   3.180
81358W        W44917  11.829  18.751   1.866
81359W        W44918  17.208  21.133  10.589
81360W        W44919  17.688   3.942   0.899
81361W        W44920  13.716  14.253  14.411
81362W        W44921  26.649   4.704  10.888
81363W        W44922  30.590  35.570  13.873
81364W        W44923  20.638  11.707  10.900
81365W        W44924  25.514  21.257   2.841
81366W        W44925  24.999  37.056  11.529
81367W        W44926   2.342  33.438  12.875
81368W        W44927  24.563   3.882   4.634
81369W        W44928  43.424  41.024  14.463
81370W        W44929  36.072   7.376   5.222
81371W        W44930  14.135  12.197   0.857
81372W        W44931   3.245  13.311   1.375
81373W        W44932  30.934  42.398   4.817
81374W        W44933  40.997  25.121   3.794
81375W        W44934  16.695  44.891   0.401
81376W        W44935   9.804  36.430  14.411
81377W        W44936  31.994  32.035  11.923
81378W        W44937  15.097  20.727  13.854
81379W        W44938  24.689  15.649   2.854
81380W        W44939   2.902   6.254   4.737
81381W        W44940  41.339  31.078  10.630
81382W        W44941  15.209  32.533   1.707
81383W        W44942  28.945  40.311   0.898
81384W        W44943  14.730  19.096   0.340
81385W        W44944   2.879   9.314   2.324
81386W        W44945  31.551   5.898   0.243
81387W        W44946   5.886   1.943  13.877
81388W        W44947  26.195  24.120   2.792
81389W        W44948  36.467  18.262  14.831
81390W        W44949  23.111  18.624   1.758
81391W        W44950  28.054  37.035   9.979
81392W        W44951  12.155  38.829  10.475
81393W        W44952  18.711   0.842  11.595
81394W        W44953  44.381  19.615  13.012
81395W        W44954  41.331   6.411   4.134
81396W        W44955  22.084  32.623   1.432
81397W        W44956  27.461  31.935   4.728
81398W        W44957  34.418  11.741   3.383
81399W        W44958   1.347  34.489  14.848
81400W        W44959  11.831  21.588   2.286
81401W        W44960   4.448   4.207   4.692
81402W        W44961  39.912   9.344   0.860
81403W        W44962   9.878  12.305  12.067
81404W        W44963  20.263  43.441   2.826
81405W        W44964  19.112  44.765  10.541
81406W        W44965  41.823  40.418   0.352
81407W        W44966  43.931  15.269   4.710
81408W        W44967  36.391   8.405   2.816
81409W        W44968  27.536   8.329  12.441
81410W        W44969  43.799  37.032  13.796
81411W        W44970  26.069  24.704   1.878
81412W        W44971  22.158  35.474  12.932
81413W        W44972  24.200  14.700   1.929
81414W        W44973  24.078  32.473  13.421
81415W        W44974   0.922  26.687   1.853
81416W        W44975  29.585   3.862   2.678
81417W        W44976  24.207   7.887  14.411
81418W        W44977  32.969  18.669   4.215
81419W        W44978  43.456  30.616  10.988
81420W        W44979  32.562  37.935   2.267
81421W        W44980  22.581  40.471  14.389
81422W        W44981  34.593  35.913   2.718
81423W        W44982  15.585   9.392  10.528
81424W        W44983  25.613  19.205  10.409
81425W        W44984  10.748  19.553   2.376
81426W        W44985   0.271  11.699   3.869
81427W        W44986  34.909  35.568   3.833
81428W        W44987  38.826  19.697  10.435
81429W        W44988  22.674  41.976  14.828
81430W        W44989  42.466   5.793  13.048
81431W        W44990  36.395  13.783   2.286
81432W        W44991  10.258  12.332   2.387
81433W        W44992  32.468  21.532   1.740
81434W        W44993  15.817  40.957   0.786
81435W        W44994  18.071  16.653  12.502
81436W        W44995  18.207  37.857   0.483
81437W        W44996  12.741  41.854  11.998
81438W        W44997  34.391  21.196  11.948
81439W        W44998  20.609   0.484  12.392
81440W        W44999  42.288  35.029  11.874
81441W        W45000  41.013   1.384  10.962
81442W        W45001   5.853  32.063  10.046
81443W        W45002  15.246  13.199   1.774
81444W        W45003  43.784  34.088   3.851
81445W        W45004  33.492   5.791  11.904
81446W        W45005   3.276  26.462   3.358
81447W        W45006   8.889  26.100   0.351
81448W        W45007   9.373   9.348  11.454
81449W        W45008  26.629  35.515  11.023
81450W        W45009  42.300  16.607   2.867
81451W        W45010  22.029  29.493  12.553
81452W        W45011  31.953  41.428  10.586
81453W        W45012  25.967   9.767  10.550
81454W        W45013  27.095   8.334   3.231
81455W        W45014  30.005  33.057   0.947
81456W        W45015  22.539  40.824  14.380
81457W        W45016   4.934  27.634   0.353
81458W        W45017  13.789  43.409  10.512
81459W        W45018  40.908  43.355   0.262
81460W        W45019  29.636  20.079  12.076
81461W        W45020  30.475  17.589  14.490
81462W        W45021  30.956   7.789   4.729
81463W        W45022  10.205  16.636  14.902
81464W        W45023  14.826  28.557  13.517
81465W        W45024   3.238   3.301  12.918
81466W        W45025   2.794   3.774  12.411
81467W        W45026  11.643  10.766  13.544
81468W        W45027  27.682   0.248   4.165
81469W        W45028  34.898  18.164   4.679
81470W        W45029  36.566  21.601   3.744
81471W        W45030  22.162   0.382   2.836
81472W        W45031   2.950  28.111  10.590
81473W        W45032  23.008  17.728  12.571
81474W        W45033  33.909  16.279   3.298
81475W        W45034  20.116  42.416  12.523
81476W        W45035  24.624  27.493   3.200
81477W        W45036  32.994  18.216  12.477
81478W        W45037  39.358  12.809  11.606
81479W        W45038  12.326   7.724  10.905
81480W        W45039  10.255   5.284   0.403
81481W        W45040  28.494  30.142   1.254
81482W        W45041  10.227  43.943  13.885
81483W        W45042   6.229  35.461  13.054
81484W        W45043  44.954  32.054   0.761
81485W        W45044  10.218  14.319  13.375
81486W        W45045   4.214   1.752   3.204
81487W        W45046  13.163   1.324   0.320
81488W        W45047  39.500   6.404  11.045
81489W        W45048  24.548  30.452   1.417
81490W        W45049  22.053   8.278  13.531
81491W        W45050   3.737  35.026   4.728
81492W        W45051  26.587  32.008  12.422
81493W        W45052  13.153  32.910  10.889
81494W        W45053  10.812   3.740   4.354
81495W        W45054  16.590  41.379  13.415
81496W        W45055  16.213  19.240  10.990
81497W        W45056   5.763  32.082   2.769
81498W        W45057   0.293   7.832  14.847
81499W        W45058  25.023   8.246  11.545
81500W        W45059  27.655   4.787  10.545
81501W        W45060  13.297   7.802  14.783
81502W        W45061  39.919  44.846   0.430
81503W        W45062   9.271  14.312   3.856
81504W        W45063  29.504  33.568   3.845
81505W        W45064  30.925  42.408  14.945
81506W        W45065  22.681   3.890   4.164
81507W        W45066  34.960  29.085  13.042
81508W        W45067  38.447  17.570   0.426
81509W        W45068   3.761  18.695   0.404
81510W        W45069  36.990  36.367  12.006
81511W        W45070  23.165  25.014   0.830
81512W        W45071  26.026   5.891   0.380
81513W        W45072   8.746   1.475   2.784
81514W        W45073  25.196  35.519   4.712
81515W        W45074  38.396   0.768  12.027
81516W        W45075  43.476  32.097  13.497
81517W        W45076   7.798  39.896  13.946
81518W        W45077  25.081   7.339  14.448
81519W        W45078  43.827   7.813  14.374
81520W        W45079  44.373  11.147  13.902
81521W        W45080  16.073   5.300  12.520
81522W        W45081  17.558  38.499   3.679
81523W        W45082  32.615   6.202  10.140
81524W        W45083  35.369  31.573  10.016
81525W        W45084  24.171  37.472  11.893
81526W        W45085  37.479  39.861  14.440
81527W        W45086  25.620  14.684  13.376
81528W        W45087  42.833  29.016   0.389
81529W        W45088   6.382   6.824  13.533
81530W        W45089  42.419  36.923  12.091
81531W        W45090  25.195   7.773  12.462
81532W        W45091   3.842  34.533   1.447
81533W        W45092  31.593   7.342  14.880
81534W        W45093  28.573  24.669   4.672
81535W        W45094  17.130  18.630   1.726
81536W        W45095  38.988   1.797  14.482
81537W        W45096  25.092  11.255   3.731
81538W        W45097  28.147   5.922   1.379
81539W        W45098   0.830  38.961   5.121
81540W        W45099  21.238   7.787   3.768
81541W        W45100  27.647   6.359   4.310
81542W        W45101  25.675  40.372  14.970
81543W        W45102   2.877  32.455   0.438
81544W        W45103  38.059  39.997   3.222
81545W        W45104   6.279  19.633   1.760
81546W        W45105  40.461  35.506  12.911
81547W        W45106  43.482  24.659   1.418
81548W        W45107  27.095   7.721  14.856
81549W        W45108  13.282  10.795   1.414
81550W        W45109  34.573   5.194   3.328
81551W        W45110  21.126   4.405   0.958
81552W        W45111  38.509  28.600   0.280
81553W        W45112   2.379  31.449   4.149
81554W        W45113  29.530  44.364   5.158
81555W        W45114  35.563  32.472  10.058
81556W        W45115  11.333  23.700   2.208
81557W        W45116  18.153  41.387  12.435
81558W        W45117  14.831   9.687   1.883
81559W        W45118  33.408  21.680   0.802
81560W        W45119   7.865  35.373  10.909
81561W        W45120  11.169  27.481  14.812
81562W        W45121  32.594  41.306  11.112
81563W        W45122  41.368  31.113   0.769
81564W        W45123  27.638   6.738  14.356
81565W        W45124   6.383   3.455   0.934
81566W        W45125   2.238  16.113  10.505
81567W        W45126  31.090  35.508  10.893
81568W        W45127  31.129  28.627   0.915
81569W        W45128  20.728  14.321  13.423
81570W        W45129   4.408  23.231   4.205
81571W        W45130  39.950  25.158  10.892
81572W        W45131  32.013   4.810   0.856
81573W        W45132  42.442  36.546  12.980
81574W        W45133  33.384  38.023  12.519
81575W        W45134  20.577  32.631   3.836
81576W        W45135   7.693  29.606  11.950
81577W        W45136   2.441  14.113  10.988
81578W        W45137  27.560  21.143  13.893
81579W        W45138   3.768  27.003  14.944
81580W        W45139   3.222  38.832  14.825
81581W        W45140   7.192  37.934   4.218
81582W        W45141  10.202  22.127   0.474
81583W        W45142  28.115  28.628  11.392
81584W        W45143   6.811  22.712   4.790
81585W        W45144   2.720  29.150  14.759
81586W        W45145  14.171  18.685   1.765
81587W        W45146  42.978  12.303   1.708
81588W        W45147  24.015  19.094   4.304
81589W        W45148   0.922  20.190  10.930
81590W        W45149  17.120  29.001   4.763
81591W        W45150  36.582  38.391   2.749
81592W        W45151  39.964  16.306  11.399
81593W        W45152  25.559  40.516   4.807
81594W        W45153  21.167  44.925   0.887
81595W        W45154   8.365  22.099  12.344
81596W        W45155  43.921  25.467  11.013
81597W        W45156  18.622   1.814   0.265
81598W        W45157  43.892  35.410   2.260
81599W        W45158  15.810  22.581  12.908
81600W        W45159  19.537  18.755  13.497
81601W        W45160   9.776  36.061   4.686
81602W        W45161  22.231  43.978  12.566
81603W        W45162  34.925  25.657   0.777
81604W        W45163  23.196  30.659  11.385
81605W        W45164  37.059  10.760   3.189
81606W        W45165  33.041  11.729  13.930
81607W        W45166  26.124  23.639   5.232
81608W        W45167  31.437  41.477   9.536
81609W        W45168  20.244  26.634  10.501
81610W        W45169   1.836  29.629   2.746
81611W        W45170  32.028  19.616  13.410
81612W        W45171  15.234  21.516  11.395
81613W        W45172  36.872  26.046   4.633
81614W        W45173  11.715  44.954  11.961
81615W        W45174  28.143   0.965  13.390
81616W        W45175  30.622  37.533  10.895
81617W        W45176  40.530  23.005   4.326
81618W        W45177  15.327   9.888   0.325
81619W        W45178  23.129  39.051  11.067
81620W        W45179   2.843  12.660  11.580
81621W        W45180   6.331  23.547  10.591
81622W        W45181  11.168  44.497  14.502
81623W        W45182  44.428  30.945  13.805
81624W        W45183  12.729  22.517  12.871
81625W        W45184   5.256  34.048  13.537
81626W        W45185  26.467  23.711  12.546
81627W        W45186  24.983  30.961   2.179
81628W        W45187  34.910  16.740   3.809
81629W        W45188  38.436  31.526   2.230
81630W        W45189  18.181   3.777  11.601
81631W        W45190  13.294  23.154  13.376
81632W        W45191  31.151  36.534   0.341
81633W        W45192  40.468   7.824  14.839
81634W        W45193  43.963   2.767   0.272
81635W        W45194   9.383  14.151  11.435
81636W        W45195  16.583   9.857  14.380
81637W        W45196  41.310   3.918   2.767
81638W        W45197  15.176  10.852   0.296
81639W        W45198   5.909  31.403  11.376
81640W        W45199  35.499  11.631   2.319
81641W        W45200  20.265  15.179   2.823
81642W        W45201  13.684  17.206   3.864
81643W        W45202  27.542   0.860  11.507
81644W        W45203  42.873  30.969  12.391
81645W        W45204  14.327  23.238  14.849
81646W        W45205  25.483  17.213  10.098
81647W        W45206  18.600  22.680   5.180
81648W        W45207   3.752  20.686  12.929
81649W        W45208   9.187  42.830  14.505
81650W        W45209  20.129  27.092   0.755
81651W        W45210  33.029  15.266   0.411
81652W        W45211  37.573  26.464   1.808
81653W        W45212   1.371  37.379   3.278
81654W        W45213  29.066  24.717   1.901
81655W        W45214  37.381  37.939  12.531
81656W        W45215  18.693  23.107   2.709
81657W        W45216  36.886  38.853   3.196
81658W        W45217   2.330  26.134  10.404
81659W        W45218  16.790   9.819  10.888
81660W        W45219  26.057  32.415  13.494
81661W        W45220  36.030  41.993  10.551
81662W        W45221  29.602   6.917  14.436
81663W        W45222  18.636   5.394   1.832
81664W        W45223  23.504   0.313  11.493
81665W        W45224   8.305  22.717   1.370
81666W        W45225  10.876  30.640   1.306
81667W        W45226   9.708  11.694  13.413
81668W        W45227   0.876   4.892   1.353
81669W        W45228   6.913   6.421  13.991
81670W        W45229  10.639  39.008  13.531
81671W        W45230  25.114   9.886  13.916
81672W        W45231  29.968  13.632  14.328
81673W        W45232  23.499   4.365   4.174
81674W        W45233   6.700   8.311   4.721
81675W        W45234  13.339  21.058   0.417
81676W        W45235  25.631  13.110  14.337
81677W        W45236  15.659   3.905  13.818
81678W        W45237  39.956  27.104   0.473
81679W        W45238  26.462  10.636  14.814
81680W        W45239  10.325  15.761   3.861
81681W        W45240  43.375  33.586   0.377
81682W        W45241  33.519  29.061   1.299
81683W        W45242  30.964   1.298  13.512
81684W        W45243  38.339  13.188  13.389
81685W        W45244  13.305   3.922   1.267
81686W        W45245   5.761   7.689  11.430
81687W        W45246  36.585  40.979  11.563
81688W        W45247  35.091   6.709   3.288
81689W        W45248   4.208   8.335  10.463
81690W        W45249  44.822  37.340   3.184
81691W        W45250   6.907  29.466   2.362
81692W        W45251  31.109  15.263   1.261
81693W        W45252  42.870  17.685   0.289
81694W        W45253  31.083  31.006  13.309
81695W        W45254   5.788   2.728  12.421
81696W        W45255  39.891  36.975  13.370
81697W        W45256  42.896  21.117   3.362
81698W        W45257   0.250  26.589  11.093
81699W        W45258  12.146  34.994   3.687
81700W        W45259  44.357  33.944   0.457
81701W        W45260   4.940  35.896  14.469
81702W        W45261  39.398   0.284  10.945
81703W        W45262   5.812  31.484  10.615
81704W        W45263  37.443  34.585  14.357
81705W        W45264  44.883  17.750   2.871
81706W        W45265  19.282  26.523  14.288
81707W        W45266  30.145  37.363  12.457
81708W        W45267  18.615  20.605  14.411
81709W        W45268  40.034  41.516   1.756
81710W        W45269  27.485   1.952   1.297
81711W        W45270  14.812  26.680   4.704
81712W        W45271  44.264  24.706   0.885
81713W        W45272   8.877  24.494   2.867
81714W        W45273  15.732  24.048  14.867
81715W        W45274   2.424  29.554   3.276
81716W        W45275  15.688   0.839  12.092
81717W        W45276  40.470  30.609  12.061
81718W        W45277  29.986  38.440  14.787
81719W        W45278  15.283   8.847  14.900
81720W        W45279  39.900  34.989  11.022
81721W        W45280  18.733   7.717  13.797
81722W        W45281   9.149   2.740   0.956
81723W        W45282  25.002  44.825   2.275
81724W        W45283   4.208  40.322   1.767
81725W        W45284  18.583  28.079  10.475
81726W        W45285  14.291  11.309  10.424
81727W        W45286  24.204   4.867   4.758
81728W        W45287   1.913   7.221  10.526
81729W        W45288   0.779   6.215  11.984
81730W        W45289  15.106  29.524  14.829
81731W        W45290  31.922  11.159  14.904
81732W        W45291  32.480   3.432  13.061
81733W        W45292  43.370  32.590  11.537
81734W        W45293  20.664  24.160   4.281
81735W        W45294  32.103  44.371  10.076
81736W        W45295  22.713   5.870  13.435
81737W        W45296  24.988  14.266   0.481
81738W        W45297  34.481   3.238   0.295
81739W        W45298   4.340  32.092  11.890
81740W        W45299  22.576  18.579  10.588
81741W        W45300   0.389  25.601  14.989
81742W        W45301  38.425  32.952  12.468
81743W        W45302  40.034  33.554   3.839
81744W        W45303   5.345  15.695  13.794
81745W        W45304  43.848  16.746  11.870
81746W        W45305  10.285  24.230  10.052
81747W        W45306  26.997  18.217  13.961
81748W        W45307  22.741  37.507   4.131
81749W        W45308  36.538  34.387   3.257
81750W        W45309  39.476  43.378   1.338
81751W        W45310  22.204  23.159   1.361
81752W        W45311  29.980  23.094   4.725
81753W        W45312   2.340   7.804   0.755
81754W        W45313  35.526  29.113  10.616
81755W        W45314  15.635  11.658   4.279
81756W        W45315  15.177   0.905   3.167
81757W        W45316  24.531  17.076   3.276
81758W        W45317   8.813  39.052   1.400
81759W        W45318  29.658  12.186   3.363
81760W        W45319  38.935  17.269  11.959
81761W        W45320  33.892  38.344  12.013
81762W        W45321  11.255  26.472  14.416
81763W        W45322  41.874  43.484  10.502
81764W        W45323  32.487  34.012  11.603
81765W        W45324   8.883  44.496   2.198
81766W        W45325  34.435   1.266  11.024
81767W        W45326  33.095  23.677   3.785
81768W        W45327  13.786  28.563   2.406
81769W        W45328   1.446  41.370  11.930
81770W        W45329  15.820  22.164   2.725
81771W        W45330  42.406  25.114  11.948
81772W        W45331  25.214  44.928   0.762
81773W        W45332  26.991   6.704  12.053
81774W        W45333  20.096   1.404   1.749
81775W        W45334  17.612  18.643   0.370
81776W        W45335   6.298  23.635  12.539
81777W        W45336  16.252  19.706   4.222
81778W        W45337  13.331  18.559  11.954
81779W        W45338  37.363   7.222   3.302
81780W        W45339  28.521   7.181  12.548
81781W        W45340   2.370  33.432  11.567
81782W        W45341  31.141  29.013   0.938
81783W        W45342  22.718  38.541   1.820
81784W        W45343   1.385  15.215  13.520
81785W        W45344  30.085  40.389  14.300
81786W        W45345  17.755  25.191   0.342
81787W        W45346  31.562   3.312   3.169
81788W        W45347  19.168  39.378  12.988
81789W        W45348  14.253  32.418  13.801
81790W        W45349  22.225  39.925   4.627
81791W        W45350  36.919  39.001  14.497
81792W        W45351  12.767  10.182  14.445
81793W        W45352  28.053  33.539   5.150
81794W        W45353  35.880  18.640  13.326
81795W        W45354  41.968  18.160  11.531
81796W        W45355  19.610  28.065   0.956
81797W        W45356  30.562  44.811   3.372
81798W        W45357  14.786  15.122   3.672
81799W        W45358   7.894  20.203  11.918
81800W        W45359  34.899  35.401   0.265
81801W        W45360   7.683  20.594   1.716
81802W        W45361   5.258  43.765   1.359
81803W        W45362  38.879  21.746  12.456
81804W        W45363  17.738  27.455  12.419
81805W        W45364  31.053  35.466  12.941
81806W        W45365  34.392   5.741   1.360
81807W        W45366  21.118   6.722  12.404
81808W        W45367  30.937  22.651  14.026
81809W        W45368  26.035  31.984   2.743
81810W        W45369   1.435  37.403  11.037
81811W        W45370  44.414  39.950   0.791
81812W        W45371  25.081  16.100   4.669
81813W        W45372  43.784  43.465  11.472
81814W        W45373  25.702   4.756   3.330
81815W        W45374  21.058  29.527  11.899
81816W        W45375  14.232  21.066   1.423
81817W        W45376  27.682   5.845   2.411
81818W        W45377  26.993  16.188  13.871
81819W        W45378  26.653  35.533   2.323
81820W        W45379  20.555  23.227   1.309
81821W        W45380  42.322  37.077   1.890
81822W        W45381  32.403  35.092   4.275
81823W        W45382  16.232  41.502  11.113
81824W        W45383  15.128  15.263  14.857
81825W        W45384  42.871   0.779  12.370
81826W        W45385   2.785   8.389  11.555
81827W        W45386  18.783  18.109  14.956
81828W        W45387  42.864   3.246  13.937
81829W        W45388  16.812  35.914  12.006
81830W        W45389   2.908  30.461   2.669
81831W        W45390  24.480  18.122   0.423
81832W        W45391  28.033  40.983   3.333
81833W        W45392  11.837  44.363   1.833
81834W        W45393  13.635   5.365   2.820
81835W        W45394   8.826  41.789   3.714
81836W        W45395   1.470  17.130   3.660
81837W        W45396   8.240  22.153  12.862
81838W        W45397   8.401   4.823   4.281
81839W        W45398  17.634  37.009   4.633
81840W        W45399  21.077  43.852  14.283
81841W        W45400  33.973  40.839  14.303
81842W        W45401  34.415  41.790  14.486
81843W        W45402  12.238  33.004   1.267
81844W        W45403  20.615  15.223  13.001
81845W        W45404  19.177  27.519  14.768
81846W        W45405  37.880   3.891  14.991
81847W        W45406  30.483  23.046   1.451
81848W        W45407   2.328  37.491  14.327
81849W        W45408   8.211  28.489   0.325
81850W        W45409  42.421  11.769  14.501
81851W        W45410   6.916   2.379  10.494
81852W        W45411   9.731  42.409   1.228
81853W        W45412  19.615  39.919  14.396
81854W        W45413  26.695  35.955  12.082
81855W        W45414  23.513  21.697   3.211
81856W        W45415  36.954  30.953  12.874
81857W        W45416  43.998  10.662   4.631
81858W        W45417   0.309  34.997   1.367
81859W        W45418   1.296  22.694   3.629
81860W        W45419   0.288  15.655   4.682
81861W        W45420   3.789  32.122  13.805
81862W        W45421  44.824  25.992   0.861
81863W        W45422   3.446  25.680  13.818
81864W        W45423  26.535  41.463  14.389
81865W        W45424  12.200  33.085  12.554
81866W        W45425  19.125  17.198   4.173
81867W        W45426  14.176  32.012   0.911
81868W        W45427  37.497  24.221   5.135
81869W        W45428  14.831   0.978   4.604
81870W        W45429  30.518  35.584  10.471
81871W        W45430  31.460  15.307   4.724
81872W        W45431  40.973  38.959   3.272
81873W        W45432   1.872  24.212   3.740
81874W        W45433  43.447  19.675   1.770
81875W        W45434  37.462   7.673   1.927
81876W        W45435  39.471  19.104  11.058
81877W        W45436  32.396   0.267   1.794
81878W        W45437  38.496  28.505  11.499
81879W        W45438  19.133   0.329   1.356
81880W        W45439   1.821  35.110   4.730
81881W        W45440  18.656   4.237   0.943
81882W        W45441  32.445  27.035  13.547
81883W        W45442  24.074  18.283  13.811
81884W        W45443  34.086   8.281   4.617
81885W        W45444  43.418  27.123   3.637
81886W        W45445  29.539   7.885   5.178
81887W        W45446  30.010  41.805  11.464
81888W        W45447  30.164  42.946  14.381
81889W        W45448  16.745  14.106  11.404
81890W        W45449  22.673  43.794   1.373
81891W        W45450  34.105  14.221  12.352
81892W        W45451  28.159   6.721   3.211
81893W        W45452  42.329  18.755  14.425
81894W        W45453  13.678  16.803   0.938
81895W        W45454  30.619  29.556   0.260
81896W        W45455  38.064   7.720  11.985
81897W        W45456  35.488  42.978   1.301
81898W        W45457  23.140  37.983   3.184
81899W        W45458  40.487   1.923  13.309
81900W        W45459   2.374  31.505  10.598
81901W        W45460  43.838   2.302   1.398
81902W        W45461  33.928  15.776  13.880
81903W        W45462  16.673  30.595   2.678
81904W        W45463   3.235   9.849  13.063
81905W        W45464  43.471  43.900  12.369
81906W        W45465  27.069   2.451  13.980
81907W        W45466  36.563   1.735   1.407
81908W        W45467  13.768  18.729  10.515
81909W        W45468  17.216  38.371   1.351
81910W        W45469  17.748  41.488   0.477
81911W        W45470  22.035   9.850   2.690
81912W        W45471  37.053   5.697  10.550
81913W        W45472  40.029  43.870   1.933
81914W        W45473  38.396   0.480  12.868
81915W        W45474   0.297  33.963   3.193
81916W        W45475  38.906  13.799   1.270
81917W        W45476   8.807  22.232  14.445
81918W        W45477  21.526   3.307  10.545
81919W        W45478  11.246   9.849  14.994
81920W        W45479  30.471  41.008   3.714
81921W        W45480  34.483   6.690  10.477
81922W        W45481  15.770  39.390  13.918
81923W        W45482   9.199   6.808  11.407
81924W        W45483  12.735  30.425  12.483
81925W        W45484  17.650  43.335  14.938
81926W        W45485  38.463  35.556  14.475
81927W        W45486  36.964  28.551  14.761
81928W        W45487   1.412   5.357   3.667
81929W        W45488  38.341  18.107  14.514
81930W        W45489  31.619  24.616   3.349
81931W        W45490   7.387  25.539  11.964
81932W        W45491  25.213   7.407  11.440
81933W        W45492  19.046  17.654   4.635
81934W        W45493   9.840  27.484  14.333
81935W        W45494   3.450  12.246  14.992
81936W        W45495  29.133  13.309  14.313
81937W        W45496  31.003  32.981  12.050
81938W        W45497   1.831  17.189  13.894
81939W        W45498  12.736  38.886  12.551
81940W        W45499   1.270  19.084  14.994
81941W        W45500   6.234  19.214  13.951
81942W        W45501  18.293  22.151   4.685
81943W        W45502  37.401  26.659   5.253
81944W        W45503  17.733  31.048   0.805
81945W        W45504  43.764  19.765  12.967
81946W        W45505  12.783  44.764  10.417
81947W        W45506  43.272  33.603   2.410
81948W        W45507  37.517  17.642   2.306
81949W        W45508  13.750   7.289  11.567
81950W        W45509  25.519  43.440  14.279
81951W        W45510  19.633   9.377   4.353
81952W        W45511  44.986   9.877   4.721
81953W        W45512  38.466   2.459  14.500
81954W        W45513   1.389   6.801  11.937
81955W        W45514  29.029  14.764   2.784
81956W        W45515  27.521  23.240   2.676
81957W        W45516  39.950  37.891  14.850
81958W        W45517  17.674   1.410  10.614
81959W        W45518  35.519  37.578  11.597
81960W        W45519  43.864   7.697  14.985
81961W        W45520   5.696   5.346  14.441
81962W        W45521  15.125  13.660  10.544
81963W        W45522   9.683  39.013  14.452
81964W        W45523   6.882   6.375  12.430
81965W        W45524  17.716  41.533  14.814
81966W        W45525  39.510   3.945  12.476
81967W        W45526  36.935  14.304  11.551
81968W        W45527  27.047  25.668  10.923
81969W        W45528   0.940  26.099   3.717
81970W        W45529  30.096  33.615   3.835
81971W        W45530  17.285  19.120   2.695
81972W        W45531   3.334   1.479   0.478
81973W        W45532  35.882   2.268   4.674
81974W        W45533  27.492  36.972   0.408
81975W        W45534  34.517   9.702  11.909
81976W        W45535  17.706  23.042  11.116
81977W        W45536  21.536  25.121  10.591
81978W        W45537  20.205  30.534   9.948
81979W        W45538   0.778   6.765  12.060
81980W        W45539  25.554  34.478  14.384
81981W        W45540  41.497  12.317   0.936
81982W        W45541  24.693   5.306  11.407
81983W        W45542  24.557  33.128   0.744
81984W        W45543  14.293   2.389   4.801
81985W        W45544  15.730  34.910  10.535
81986W        W45545  38.361  35.056   1.728
81987W        W45546  34.099  35.038  12.840
81988W        W45547  25.107  35.008   0.447
81989W        W45548  36.078  41.841   1.351
81990W        W45549  37.503   2.341  13.475
81991W        W45550  34.606  42.002  14.918
81992W        W45551  29.171  25.694  10.558
81993W        W45552   3.323  34.578  13.969
81994W        W45553  23.222  32.914  11.391
81995W        W45554   5.840   4.401   2.220
81996W        W45555  24.543  42.031  13.818
81997W        W45556   6.858  38.035  11.044
81998W        W45557  43.881  16.125   3.352
81999W        W45558  42.903  16.296  12.505
82000W        W45559  17.597  35.586   1.831
82001W        W45560  29.029  44.939  13.883
82002W        W45561   5.387  20.708  14.359
82003W        W45562   7.298  39.914   4.635
82004W        W45563  23.076  22.211  10.619
82005W        W45564  42.349  14.772  13.476
82006W        W45565  33.919   4.320  13.904
82007W        W45566  38.411  15.195  13.941
82008W        W45567  25.968  40.448  12.074
82009W        W45568  28.594   0.426  13.054
82010W        W45569  13.778  42.831   0.923
82011W        W45570  30.525  44.342  12.061
82012W        W45571   4.327  13.647   1.419
82013W        W45572   3.953  44.814  13.018
82014W        W45573  44.432  36.053  14.466
82015W        W45574   7.820  27.072  14.299
82016W        W45575  11.702  37.041  11.015
82017W        W45576  10.811  40.815  13.445
82018W        W45577  29.925  15.645  14.344
82019W        W45578   1.925   7.672   3.863
82020W        W45579  41.960  42.473  12.073
82021W        W45580  16.700  32.061   0.419
82022W        W45581   1.742  18.653   0.954
82023W        W45582  24.490   7.807   3.720
82024W        W45583  19.156   2.880   3.710
82025W        W45584   2.271   4.297  13.387
82026W        W45585   7.229  43.429   3.318
82027W        W45586  38.878  32.890  11.998
82028W        W45587  10.839  40.400  14.430
82029W        W45588  35.561  41.422  13.015
82030W        W45589   4.291   4.776   2.272
82031W        W45590  30.996  31.642   2.309
82032W        W45591   1.345  10.749  10.558
82033W        W45592  26.066  19.632   4.250
82034W        W45593  36.080  44.379   1.897
82035W        W45594  36.423  20.724   3.340
82036W        W45595  38.442  33.581   3.755
82037W        W45596   0.365  41.806   1.338
82038W        W45597  23.079   6.424   4.125
82039W        W45598  11.313  12.204  11.476
82040W        W45599   3.737  27.611  10.472
82041W        W45600  24.130  25.473   0.941
82042W        W45601  10.876  33.491  14.941
82043W        W45602  38.487  19.047  14.293
82044W        W45603  34.600  38.407   4.598
82045W        W45604  31.128  19.636   0.362
82046W        W45605   4.713  17.675   4.160
82047W        W45606  10.764  31.639   2.234
82048W        W45607  24.715  11.709  12.435
82049W        W45608  25.030  27.174   3.651
82050W        W45609  16.748  42.928   0.888
82051W        W45610   0.422  17.594  14.327
82052W        W45611  24.093  34.106  12.060
82053W        W45612  36.939   0.873   4.150
82054W        W45613   4.893  19.610   3.281
82055W        W45614  16.146  20.739   4.668
82056W        W45615  10.205   6.320   3.373
82057W        W45616  23.638  35.387   3.297
82058W        W45617  26.533   1.863   1.799
82059W        W45618  35.872  16.600  11.454
82060W        W45619  41.449   0.958  12.577
82061W        W45620  22.113  14.617   1.752
82062W        W45621  24.604  32.997   3.337
82063W        W45622  15.745  29.156  12.509
82064W        W45623  44.471  42.937   0.799
82065W        W45624  15.247  20.627   3.723
82066W        W45625  25.603  23.612   0.843
82067W        W45626  19.136   1.820  11.371
82068W        W45627   5.871  42.304  12.474
82069W        W45628  33.601   8.206  13.426
82070W        W45629  20.261  35.939  13.977
82071W        W45630  43.437  23.072  13.528
82072W        W45631  25.029  36.938  14.498
82073W        W45632   5.791  43.423  10.888
82074W        W45633  41.972   1.972  12.952
82075W        W45634   8.385  10.272  13.514
82076W        W45635   4.818  28.053  14.450
82077W        W45636  27.180  23.643  10.609
82078W        W45637  12.205   3.326   4.647
82079W        W45638  19.582  33.510   2.371
82080W        W45639  32.429  24.573   2.733
82081W        W45640  17.668  43.913  12.921
82082W        W45641  34.913  20.709  12.521
82083W        W45642  18.192  26.023  12.448
82084W        W45643   5.817   8.702   1.856
82085W        W45644   7.417  10.736   4.240
82086W        W45645  40.532  35.450  11.071
82087W        W45646   5.359  30.523   0.872
82088W        W45647   4.741  42.436  10.961
82089W        W45648  36.856   9.310   2.675
82090W        W45649  34.977  24.197  13.463
82091W        W45650   8.373  29.972   4.687
82092W        W45651  19.228  35.489   0.907
82093W        W45652   8.214  38.024   2.875
82094W        W45653  13.786  34.012   0.312
82095W        W45654  44.862  35.415  12.420
82096W        W45655   4.896  33.539   4.618
82097W        W45656   6.296  44.792  11.380
82098W        W45657  24.595  24.157  11.010
82099W        W45658  13.744  44.417   2.807
82100W        W45659  21.691  28.011   1.425
82101W        W45660  24.540  38.442  11.517
82102W        W45661  16.653   1.295   0.860
82103W        W45662  18.693  27.602   4.719
82104W        W45663  41.293  43.874  14.907
82105W        W45664  24.577  31.914   3.360
82106W        W45665  37.514  44.305  12.479
82107W        W45666   9.218  14.687  11.485
82108W        W45667  41.518  40.921   2.253
82109W        W45668  31.901   7.728  14.321
82110W        W45669  10.290   3.398   5.183
82111W        W45670  37.533  29.436   1.326
82112W        W45671  25.066   6.897  11.927
82113W        W45672  10.783  17.242  12.865
82114W        W45673  21.194  17.725  13.399
82115W        W45674  31.095   9.880   2.785
82116W        W45675  14.339  23.208   1.761
82117W        W45676  12.289   9.807   4.677
82118W        W45677  33.928  15.714   3.728
82119W        W45678  26.610   7.874   1.785
82120W        W45679   6.359  18.076  13.007
82121W        W45680  14.206  18.676   4.121
82122W        W45681  20.693   7.361  11.027
82123W        W45682  33.593   0.909  11.874
82124W        W45683   3.364   5.224   1.220
82125W        W45684  16.078  11.731   2.696
82126W        W45685  35.044  33.977   9.975
82127W        W45686  42.839  35.380   4.320
82128W        W45687  44.338  25.150   1.415
82129W        W45688   6.744  31.080   3.847
82130W        W45689   9.883   7.181   1.791
82131W        W45690  43.280  25.593  10.891
82132W        W45691  37.501  12.799  13.399
82133W        W45692  34.931  29.072  10.477
82134W        W45693   9.708  28.474   1.798
82135W        W45694  30.599  17.783  13.964
82136W        W45695   3.786  15.216  10.897
82137W        W45696   8.850   3.812   5.213
82138W        W45697  27.164  39.421  13.448
82139W        W45698  23.104   2.389  11.912
82140W        W45699  32.911  12.192   5.204
82141W        W45700  21.613  27.628  12.041
82142W        W45701  30.921  26.566   2.393
82143W        W45702  29.946  12.239  13.869
82144W        W45703  12.230  43.983   0.339
82145W        W45704  37.556  30.156   3.697
82146W        W45705  36.426  11.307   2.702
82147W        W45706  18.257  14.640   3.350
82148W        W45707  20.134  36.886  10.495
82149W        W45708  16.624   7.359   2.179
82150W        W45709  42.978   2.445  10.626
82151W        W45710  29.657  22.634  14.900
82152W        W45711  17.604   1.797  12.088
82153W        W45712  44.290  25.215  12.027
82154W        W45713  15.762  38.855  10.468
82155W        W45714  12.154  14.276   5.122
82156W        W45715  27.574  42.486   0.341
82157W        W45716  34.919  33.101   4.815
82158W        W45717  31.602  24.590  13.538
82159W        W45718  20.587  26.617   0.889
82160W        W45719  25.628  42.513  10.490
82161W        W45720  18.293  33.468   1.729
82162W        W45721   9.855  28.183  10.961
82163W        W45722  16.661  21.218  12.530
82164W        W45723   7.870  15.589   0.330
82165W        W45724   3.289   0.434  11.426
82166W        W45725  35.359  17.296  10.491
82167W        W45726  41.955  26.195   3.650
82168W        W45727  15.313  22.520   4.679
82169W        W45728  39.387  31.596  12.351
82170W        W45729  10.221  14.677   4.201
82171W        W45730  27.661  40.949   1.736
82172W        W45731  34.428  26.192  14.887
82173W        W45732  32.535  32.082   1.286
82174W        W45733  43.418  22.568  10.984
82175W        W45734  19.111   3.342  10.497
82176W        W45735  37.481   6.786  10.429
82177W        W45736  31.492  33.503  11.505
82178W        W45737  13.718  21.551  10.471
82179W        W45738  21.636  34.428  10.893
82180W        W45739  32.068   5.837   2.226
82181W        W45740  37.870  44.279   2.672
82182W        W45741  17.302  11.789  14.922
82183W        W45742  25.541  41.350  10.909
82184W        W45743  10.841  39.558  13.045
82185W        W45744  42.342  20.697   4.814
82186W        W45745  35.000  43.824   2.249
82187W        W45746  38.959   5.807  11.006
82188W        W45747  10.283  34.476   0.337
82189W        W45748   4.914  12.312   3.630
82190W        W45749  40.496  40.481  11.589
82191W        W45750  27.999   2.776  13.807
82192W        W45751  36.490   5.929  13.891
82193W        W45752   5.706  10.140  14.855
82194W        W45753   3.417  17.712   2.844
82195W        W45754  15.778  37.491  12.024
82196W        W45755  21.682  28.106  12.513
82197W        W45756  21.248   3.950   3.254
82198W        W45757   5.851  16.605  10.427
82199W        W45758  22.729  31.490   2.278
82200W        W45759   5.843  38.848  14.372
82201W        W45760   2.350  40.852  12.095
82202W        W45761  10.650  13.283  11.592
82203W        W45762  20.076  34.876   2.745
82204W        W45763  24.170  31.908   1.259
82205W        W45764  24.530  13.613   5.252
82206W        W45765  27.685  17.120   0.244
82207W        W45766  31.121  32.391  10.569
82208W        W45767  44.823  28.673  13.453
82209W        W45768   4.240  33.420  12.934
82210W        W45769  40.447  37.065   0.890
82211W        W45770  20.117  32.956  11.497
82212W        W45771  27.588  19.535  13.431
82213W        W45772  20.524  31.646  10.888
82214W        W45773  30.612  15.814   1.220
82215W        W45774  33.922   0.382  10.462
82216W        W45775   7.362   5.818  14.474
82217W        W45776  27.581  13.832  11.382
82218W        W45777  38.517   8.352   2.248
82219W        W45778  43.270  34.978   3.241
82220W        W45779  40.876  30.028   0.478
82221W        W45780   7.236   1.764   2.690
82222W        W45781  25.482   1.940  10.634
82223W        W45782  17.786  20.644   4.769
82224W        W45783  34.598  39.474  14.409
82225W        W45784  37.560  29.498   2.843
82226W        W45785  34.046  43.925   4.133
82227W        W45786  33.458   4.439  12.520
82228W        W45787  16.599   4.880  12.448
82229W        W45788  25.695  38.537   3.811
82230W        W45789  38.348   8.694  14.972
82231W        W45790  36.447  37.911   1.887
82232W        W45791  25.573  26.023   2.271
82233W        W45792   9.268  35.483   2.820
82234W        W45793  23.492  36.443  13.827
82235W        W45794  33.574  41.032   1.748
82236W        W45795  24.636  32.000   3.639
82237W        W45796  37.421  40.948  10.534
82238W        W45797  18.062   2.812  11.873
82239W        W45798  18.741  19.192  11.424
82240W        W45799  21.651  13.350   2.314
82241W        W45800  22.702  37.073   1.251
82242W        W45801  21.573  25.119   0.395
82243W        W45802  40.884   5.385   1.751
82244W        W45803  16.781  27.568   3.823
82245W        W45804  40.350  24.137   2.698
82246W        W45805  40.837  24.537   3.652
82247W        W45806  37.078  39.319  11.877
82248W        W45807  38.454   1.893   1.257
82249W        W45808  38.412  12.317   0.858
82250W        W45809  38.966  18.288   1.746
82251W        W45810   1.901  24.669  11.009
82252W        W45811   0.434  29.955   1.932
82253W        W45812  14.721  41.338  14.375
82254W        W45813  31.617  19.709   2.797
82255W        W45814  31.408  43.454   3.806
82256W        W45815   6.733   1.788   3.842
82257W        W45816  11.170  20.763  11.498
82258W        W45817  41.936  19.190   1.419
82259W        W45818   5.328  34.062  14.442
82260W        W45819  20.675  41.827   4.708
82261W        W45820   6.802  11.697   2.227
82262W        W45821  14.601   6.409  11.405
82263W        W45822  25.111  31.140  12.542
82264W        W45823  44.368  35.089  10.918
82265W        W45824  19.558  35.902   1.350
82266W        W45825  26.150  36.069  13.014
82267W        W45826  13.344   3.816   1.766
82268W        W45827  12.277  25.140  11.972
82269W        W45828   6.258  36.928  10.539
82270W        W45829  40.949  14.670   1.310
82271W        W45830  15.097   7.813   1.738
82272W        W45831  30.426   0.888  11.986
82273W        W45832  32.456  44.308   2.669
82274W        W45833  32.905   2.767   2.783
82275W        W45834  24.107  37.884   0.920
82276W        W45835   4.287  25.562  11.071
82277W        W45836  14.589  33.537   2.395
82278W        W45837  43.508  42.945   0.333
82279W        W45838  37.580  36.987   0.307
82280W        W45839   8.241  13.197  12.571
82281W        W45840  22.138   2.818   4.196
82282W        W45841  14.335  44.353   3.362
82283W        W45842  38.056  22.611   2.703
82284W        W45843   0.280  23.720  14.783
82285W        W45844  12.294   9.177  11.086
82286W        W45845  11.825   3.912   0.367
82287W        W45846  38.486   4.388   2.877
82288W        W45847  11.205  18.552   1.755
82289W        W45848  26.150  16.626   3.196
82290W        W45849   4.292  40.004   1.222
82291W        W45850   2.453  18.776  11.930
82292W        W45851  24.186  41.454   3.152
82293W        W45852  26.099   7.276  13.023
82294W        W45853  13.663  43.811  10.904
82295W        W45854  35.877  36.419  11.427
82296W        W45855  36.493  16.796   2.209
82297W        W45856  38.881  25.094  13.516
82298W        W45857  33.453  25.122   2.317
82299W        W45858   1.334  34.874  14.876
82300W        W45859  13.675  36.033  11.003
82301W        W45860  32.116  38.042  13.352
82302W        W45861  42.839  44.426   2.792
82303W        W45862  38.570  18.147   1.297
82304W        W45863   2.921  19.128   0.312
82305W        W45864  18.115   2.425   4.836
82306W        W45865   7.206  34.090  10.909
82307W        W45866  27.955  36.085   2.726
82308W        W45867  39.060   4.425   2.232
82309W        W45868  19.270  17.184  11.426
82310W        W45869  29.057  38.820   2.749
82311W        W45870  24.054  22.593   4.822
82312W        W45871  25.216  11.323  14.514
82313W        W45872  10.356  23.156   4.244
82314W        W45873  25.098  16.297  11.580
82315W        W45874   3.456  32.993   3.779
82316W        W45875  39.045   8.770  14.910
82317W        W45876  21.085   0.849   3.829
82318W        W45877  32.056  33.405  13.949
82319W        W45878  32.003   5.809   3.808
82320W        W45879  25.018  41.469  12.959
82321W        W45880  33.458  12.682  14.395
82322W        W45881  12.681  20.645   2.285
82323W        W45882   5.415  42.466   0.288
82324W        W45883  10.661   6.339  14.352
82325W        W45884  15.145  39.890  14.443
82326W        W45885   2.767  41.519  12.928
82327W        W45886  15.328   0.406  11.439
82328W        W45887  20.267  34.109  14.465
82329W        W45888  33.471  41.322   1.447
82330W        W45889   6.392  14.623   1.362
82331W        W45890   8.289  38.004  14.450
82332W        W45891  40.871  29.000  11.006
82333W        W45892  37.444  44.990  10.898
82334W        W45893  22.174  18.657  13.804
82335W        W45894  24.058   3.321   1.248
82336W        W45895  28.174  22.999  12.465
82337W        W45896   8.342  28.623   2.245
82338W        W45897  14.315   3.955   2.409
82339W        W45898  12.762  33.049   1.306
82340W        W45899   1.939  13.716  14.819
82341W        W45900  39.384  11.862   1.890
82342W        W45901  36.580  10.359  13.050
82343W        W45902   2.392   7.189   2.184
82344W        W45903  26.595   4.884   0.815
82345W        W45904   3.246  31.606   4.631
82346W        W45905  24.072  19.553  12.033
82347W        W45906  14.749   4.371   3.287
82348W        W45907  33.428  23.552  11.603
82349W        W45908   4.226  19.674  12.888
82350W        W45909   5.396   7.896  14.029
82351W        W45910  31.897  32.937  11.372
82352W        W45911   0.868  21.734  13.799
82353W        W45912  22.145  32.125  10.490
82354W        W45913  38.862  24.487  13.880
82355W        W45914  28.106   2.767   3.732
82356W        W45915  33.943  11.300   4.351
82357W        W45916  35.540  19.106  13.427
82358W        W45917   5.425  17.688  14.406
82359W        W45918  40.323  15.780  10.101
82360W        W45919   4.749  28.144   0.313
82361W        W45920  24.571   7.345   2.773
82362W        W45921  25.059  22.042   3.868
82363W        W45922   6.739  20.221   3.337
82364W        W45923  28.552  42.887  13.323
82365W        W45924   4.346  37.983  13.826
82366W        W45925  14.816  37.419  13.428
82367W        W45926  14.273  29.462   3.191
82368W        W45927  30.996  22.607   2.825
82369W        W45928   9.349  18.698   2.411
82370W        W45929   1.898  20.526   4.270
82371W        W45930   9.352  38.492  13.998
82372W        W45931  39.534   1.340  10.977
82373W        W45932  40.436   6.900   0.296
82374W        W45933  20.121  27.501  13.310
82375W        W45934  23.570  25.488   0.474
82376W        W45935  31.957  26.475  13.430
82377W        W45936   8.295   7.836   1.226
82378W        W45937  16.684  24.015  14.366
82379W        W45938   5.759  41.369   0.831
82380W        W45939  18.672  33.905   4.795
82381W        W45940  22.136  29.550  14.839
82382W        W45941  23.188  18.579   0.836
82383W        W45942  38.431  37.961   0.881
82384W        W45943   4.253   4.718   1.310
82385W        W45944  41.355  28.565   1.757
82386W        W45945  14.592   7.202   0.966
82387W        W45946  15.609  16.283   2.323
82388W        W45947   3.256  20.714   2.780
82389W        W45948  38.362   2.843   1.433
82390W        W45949  20.220  26.596  11.075
82391W        W45950  39.991  13.764   3.645
82392W        W45951  35.978  23.079  13.812
82393W        W45952  13.719  19.246  13.866
82394W        W45953   6.428   6.744  12.533
82395W        W45954  29.481   9.660  12.932
82396W        W45955  12.299   7.716  12.366
82397W        W45956  11.669   6.215   4.339
82398W        W45957  19.758  15.753   0.728
82399W        W45958  35.037  35.547   0.873
82400W        W45959  28.598  23.106  11.029
82401W        W45960  38.048  10.661   3.150
82402W        W45961  22.072   0.316  13.418
82403W        W45962   8.336  44.313  14.354
82404W        W45963   8.689  41.431   0.280
82405W        W45964   7.302  44.850  12.449
82406W        W45965  42.025  24.514  13.980
82407W        W45966  42.524   4.293  14.021
82408W        W45967  33.381   0.978  11.417
82409W        W45968  43.875  24.513   1.242
82410W        W45969   1.973   3.302   2.812
82411W        W45970   5.393   0.957  12.004
82412W        W45971  12.713  18.725   1.895
82413W        W45972  33.127  40.908  14.013
82414W        W45973  21.526  38.360   3.766
82415W        W45974   7.365  15.759  13.834
82416W        W45975  44.850  43.865   3.282
82417W        W45976   1.944  40.513  13.012
82418W        W45977  30.052  35.497   1.332
82419W        W45978  39.823   2.883   4.686
82420W        W45979  38.067  38.390   3.358
82421W        W45980  20.642  19.175   1.425
82422W        W45981  14.696  19.174   2.884
82423W        W45982  31.928   7.366  14.945
82424W        W45983  14.287  21.648  11.864
82425W        W45984  14.170  44.959   0.307
82426W        W45985  38.875  22.693  12.851
82427W        W45986  36.361   1.466  14.385
82428W        W45987  21.714  44.977   2.801
82429W        W45988  20.635  38.540   3.354
82430W        W45989  33.046  27.578   2.890
82431W        W45990   0.917  14.701   3.653
82432W        W45991  19.171   5.271   4.811
82433W        W45992  15.677   6.394  12.004
82434W        W45993  31.459  17.764  10.981
82435W        W45994  12.831  34.864   3.276
82436W        W45995  30.042  27.651   1.389
82437W        W45996  18.076  30.490   2.878
82438W        W45997  21.134  34.913   4.207
82439W        W45998   9.199   9.878  11.050
82440W        W45999   3.366  24.165   2.321
82441W        W46000   7.276   4.944  13.796
82442W        W46001  34.375  33.005   4.737
82443W        W46002  37.403   6.811  12.447
82444W        W46003   4.382  42.840  11.119
82445W        W46004   7.803   8.281  12.468
82446W        W46005   8.180   1.946  14.414
82447W        W46006  10.318  26.067  13.537
82448W        W46007  20.275   8.279   3.849
82449W        W46008  34.867  36.021   4.114
82450W        W46009   1.418   1.919   2.824
82451W        W46010   9.358   8.239  10.464
82452W        W46011   9.338  32.555   3.250
82453W        W46012  20.743   4.945  14.790
82454W        W46013  34.453  26.956  14.906
82455W        W46014   4.220  20.723  12.907
82456W        W46015  27.130  41.787   0.857
82457W        W46016   6.838  35.038  11.433
82458W        W46017  12.826  38.385  11.928
82459W        W46018  33.889   4.218   0.783
82460W        W46019   7.676  35.909   3.747
82461W        W46020  44.436  28.523   4.709
82462W        W46021  38.339  32.945  12.903
82463W        W46022  40.491  25.116  10.019
82464W        W46023  24.724   0.409   4.245
82465W        W46024   2.846  20.103  14.300
82466W        W46025  10.716  30.138  14.367
82467W        W46026  15.144   1.371  12.503
82468W        W46027  32.062  39.495   4.186
82469W        W46028   5.872  39.961   1.929
82470W        W46029  13.124  42.408   0.440
82471W        W46030   8.781  43.954   3.231
82472W        W46031  11.675  40.803  12.898
82473W        W46032  21.094   3.782  13.317
82474W        W46033  22.011  21.543   0.889
82475W        W46034  18.768  20.684  13.795
82476W        W46035  27.995  17.742  12.978
82477W        W46036  12.227  42.982  13.899
82478W        W46037   4.761  17.749   4.820
82479W        W46038   2.910   5.880  12.983
82480W        W46039  23.102  14.686   1.826
82481W        W46040   6.750  32.468   2.390
82482W        W46041  38.497   7.394  11.068
82483W        W46042  32.455  35.554   0.761
82484W        W46043   0.801  33.595   0.252
82485W        W46044  13.232  11.760  14.021
82486W        W46045  29.590  20.561   2.681
82487W        W46046  29.603  22.539   5.173
82488W        W46047  22.221   8.243  11.054
82489W        W46048  36.498  33.478   0.261
82490W        W46049  41.820  32.631   0.881
82491W        W46050   6.292  29.493  12.912
82492W        W46051  35.557  39.382   2.856
82493W        W46052  32.019  10.148  11.930
82494W        W46053  18.161  13.228   4.737
82495W        W46054  35.891  26.994   1.885
82496W        W46055   7.250  34.986   0.842
82497W        W46056  37.531  10.186  12.974
82498W        W46057  32.599  39.529  13.319
82499W        W46058  34.082  44.476  11.476
82500W        W46059   2.363  16.284  13.869
82501W        W46060  20.157   9.310   2.886
82502W        W46061  26.612  28.047  14.026
82503W        W46062  16.624  30.063   3.871
82504W        W46063  14.308   6.912   5.615
82505W        W46064  43.296  26.170  12.530
82506W        W46065  42.801  27.691  13.483
82507W        W46066  42.327  31.492   3.295
82508W        W46067   4.907  42.881   0.798
82509W        W46068  12.704  16.181   4.194
82510W        W46069  12.638  13.297  12.891
82511W        W46070   9.201   6.392   3.264
82512W        W46071  32.541  27.684  13.895
82513W        W46072  20.175   5.705  10.601
82514W        W46073  40.029   8.866   3.350
82515W        W46074  14.663  34.545  10.614
82516W        W46075  28.045  26.016   3.695
82517W        W46076   7.386  14.729  14.439
82518W        W46077  23.644  24.004  13.854
82519W        W46078   0.785  38.492   3.668
82520W        W46079  43.927   3.338  10.896
82521W        W46080  19.279   0.443   1.751
82522W        W46081  33.885  36.889   1.256
82523W        W46082  16.712  24.982   1.313
82524W        W46083  12.794  24.571   2.849
82525W        W46084  33.884  37.494   0.386
82526W        W46085  39.478  35.512  13.498
82527W        W46086   8.841  26.604  13.533
82528W        W46087  41.887  40.939  13.532
82529W        W46088  21.693  43.915   0.441
82530W        W46089  18.079  37.438   1.222
82531W        W46090  29.943  38.521   3.771
82532W        W46091   4.818  34.521   3.682
82533W        W46092   9.164  27.024   2.874
82534W        W46093  29.491  35.898  10.533
82535W        W46094  44.857  19.732  11.460
82536W        W46095  13.314  43.834  10.968
82537W        W46096  20.767  38.419   2.770
82538W        W46097  20.606  18.207   0.301
82539W        W46098  30.541  14.758   3.740
82540W        W46099  32.424  18.584   1.369
82541W        W46100  15.322   9.278  11.426
82542W        W46101  29.161  26.478  11.393
82543W        W46102   4.847  27.560   1.867
82544W        W46103  13.275   1.267  11.945
82545W        W46104   9.213  29.001  14.426
82546W        W46105  19.258   4.904   3.868
82547W        W46106  14.739  16.647   3.178
82548W        W46107  37.459  44.814   3.796
82549W        W46108  31.434  19.211   0.903
82550W        W46109  11.138  19.695   2.263
82551W        W46110  40.453  14.288  14.327
82552W        W46111   9.306  11.170  10.479
82553W        W46112  30.025  28.558   4.613
82554W        W46113  33.912  43.954   0.910
82555W        W46114  26.520  37.956  10.432
82556W        W46115  22.590  22.638  11.384
82557W        W46116  43.881  14.826   2.342
82558W        W46117  43.426  11.755  10.612
82559W        W46118  39.831  16.165  13.895
82560W        W46119  38.503  21.532  14.011
82561W        W46120  16.303  23.038   0.300
82562W        W46121  20.533  30.508   2.695
82563W        W46122  22.736   5.769   4.223
82564W        W46123  22.665  12.215  14.931
82565W        W46124   7.827   7.720   1.718
82566W        W46125  26.526  15.583   3.804
82567W        W46126  31.942  28.154   4.815
82568W        W46127  11.242  25.160  14.798
82569W        W46128   5.809  26.614   1.449
82570W        W46129   5.380   5.269   1.804
82571W        W46130  10.169  22.739  11.947
82572W        W46131  16.214  29.136   2.860
82573W        W46132  12.846   4.301   0.907
82574W        W46133  31.585  40.513  12.919
82575W        W46134  43.501  28.995  11.969
82576W        W46135  13.225   4.415   2.261
82577W        W46136  37.936   4.835  14.884
82578W        W46137  24.642  38.922  14.320
82579W        W46138  10.276   6.311  14.769
82580W        W46139  40.460   6.838   3.733
82581W        W46140  22.210  26.003   0.384
82582W        W46141  37.863   2.403   3.769
82583W        W46142  11.355  26.057  14.908
82584W        W46143  23.511  18.670  11.084
82585W        W46144  21.137  41.435  11.101
82586W        W46145  34.447  35.536   2.254
82587W        W46146  43.796  35.031   3.697
82588W        W46147  21.539  12.343   4.621
82589W        W46148   7.801  25.010   0.732
82590W        W46149  28.484   9.325   1.425
82591W        W46150   9.234  11.349   5.718
82592W        W46151  40.959  23.176  14.953
82593W        W46152   1.868  35.512  14.780
82594W        W46153  27.564  18.109   2.306
82595W        W46154  43.767  13.599   0.808
82596W        W46155  10.311  43.885   3.722
82597W        W46156   5.741  41.385  11.099
82598W        W46157  11.188  37.960  10.990
82599W        W46158  22.210   1.787  10.920
82600W        W46159   1.303  35.946  13.011
82601W        W46160  24.001  27.168  10.413
82602W        W46161  24.713  33.483  13.453
82603W        W46162   3.879  42.871  12.873
82604W        W46163  19.147  28.174   0.427
82605W        W46164  30.536   1.828  14.395
82606W        W46165  15.160  17.071   2.269
82607W        W46166  31.479  14.590   2.875
82608W        W46167   5.382  10.726   0.281
82609W        W46168  39.027  38.527   2.886
82610W        W46169  36.071  44.914  14.306
82611W        W46170  14.205  28.598   4.629
82612W        W46171  25.582  16.731   3.334
82613W        W46172  31.556  42.446   3.759
82614W        W46173  15.233   9.239  14.425
82615W        W46174  37.029   3.791   2.409
82616W        W46175  10.270  38.076  14.942
82617W        W46176  26.640   2.904   4.757
82618W        W46177   4.341  37.956  12.082
82619W        W46178  29.450  27.072   1.386
82620W        W46179  38.556  29.093  12.837
82621W        W46180  13.122  34.483  14.502
82622W        W46181  38.502  23.154  10.970
82623W        W46182  33.993   8.873   3.373
82624W        W46183  18.240   6.253   2.686
82625W        W46184  25.150  12.226  11.042
82626W        W46185  24.714  13.257   4.325
82627W        W46186  25.211  31.049   3.240
82628W        W46187   6.302   3.782  13.916
82629W        W46188   1.404  13.685   2.257
82630W        W46189  34.378  27.604  14.888
82631W        W46190   2.341  41.427   1.425
82632W        W46191  11.331   9.870   2.317
82633W        W46192  33.125   3.725  10.934
82634W        W46193  36.386  35.398   1.342
82635W        W46194  39.400  25.981   2.218
82636W        W46195  23.008  43.294  12.927
82637W        W46196  33.086  12.629   3.696
82638W        W46197  35.931  42.467  14.338
82639W        W46198  15.677  23.711   4.151
82640W        W46199  31.422  42.880  12.036
82641W        W46200  19.157  17.064  10.554
82642W        W46201  17.171   5.809  11.066
82643W        W46202  37.910  16.587   2.697
82644W        W46203  18.634  12.249   3.354
82645W        W46204   9.373  42.016   2.368
82646W        W46205  40.306  39.966   3.645
82647W        W46206   9.239   7.275  11.864
82648W        W46207  41.806  13.606  14.808
82649W        W46208  29.069  24.720  14.837
82650W        W46209  40.307   5.329  13.811
82651W        W46210   5.696  12.274   4.344
82652W        W46211  10.688  37.972   0.780
82653W        W46212  31.416   3.828  12.036
82654W        W46213  39.336   7.304  12.076
82655W        W46214   7.751  35.890  10.451
82656W        W46215  40.034  20.584  13.825
82657W        W46216   5.912   9.340   0.386
82658W        W46217  42.933  25.583   0.269
82659W        W46218  35.415  30.536  13.945
82660W        W46219  13.614  14.819  10.521
82661W        W46220  34.498  10.712   9.473
82662W        W46221  24.982  17.302   4.125
82663W        W46222  35.385  27.972   0.750
82664W        W46223  41.028  29.642  10.957
82665W        W46224  11.325   9.279   3.166
82666W        W46225  33.520  33.516  13.438
82667W        W46226  32.943  32.092   1.258
82668W        W46227   2.331  28.972   3.803
82669W        W46228  11.219   4.827  11.863
82670W        W46229  23.110  12.726  13.909
82671W        W46230   1.857  37.858  13.872
82672W        W46231  42.921  13.797   2.339
82673W        W46232   4.859  12.157   0.371
82674W        W46233  29.569  39.942  14.356
82675W        W46234  19.049  16.706  13.922
82676W        W46235  30.496   2.284  12.034
82677W        W46236  17.704  10.242   9.944
82678W        W46237  34.415   8.791   4.153
82679W        W46238  20.247  40.003  12.052
82680W        W46239  10.330  16.588   3.643
82681W        W46240  17.755  10.809   3.737
82682W        W46241  30.454  42.776   2.289
82683W        W46242  42.920  30.987   2.295
82684W        W46243  24.620  27.576  11.881
82685W        W46244  24.572   1.748  12.976
82686W        W46245  20.632  43.967   1.255
82687W        W46246  24.079  32.435   3.175
82688W        W46247  37.087  37.970   2.295
82689W        W46248   7.694  28.575   4.220
82690W        W46249  34.066  36.912  13.515
82691W        W46250  30.029  21.604  13.419
82692W        W46251  28.083  11.193  14.401
82693W        W46252   6.704  27.976   3.733
82694W        W46253   4.450  18.697   0.279
82695W        W46254  33.923  37.835   2.217
82696W        W46255  30.068  40.418  11.971
82697W        W46256  10.847  44.814   4.265
82698W        W46257  33.626  32.636   2.799
82699W        W46258  42.327   1.384  13.447
82700W        W46259  43.516  20.180  14.407
82701W        W46260  40.344  41.862  14.413
82702W        W46261  12.730  31.003  14.394
82703W        W46262  30.111  38.048  11.979
82704W        W46263  37.983  39.031   1.353
82705W        W46264  44.501  19.556   1.802
82706W        W46265  44.305  24.156   1.775
82707W        W46266  37.030  26.580  13.994
82708W        W46267  26.539   9.859  13.390
82709W        W46268  22.999  34.534   1.787
82710W        W46269  39.019   9.238  11.902
82711W        W46270  17.653  19.158  11.446
82712W        W46271   0.420  21.096  13.330
82713W        W46272  37.545  20.143  10.459
82714W        W46273   3.767  18.079   1.905
82715W        W46274  11.184  32.109   2.214
82716W        W46275  14.204  40.867  12.477
82717W        W46276  43.021  20.606   3.261
82718W        W46277  39.487  41.907  10.895
82719W        W46278   6.769  33.585  11.116
82720W        W46279  23.125  24.639  14.887
82721W        W46280   1.948  33.511   0.376
82722W        W46281   0.747  19.775   3.186
82723W        W46282  36.907   9.178  11.535
82724W        W46283   0.925  34.878   0.771
82725W        W46284  15.199  39.973   2.409
82726W        W46285  40.951  20.652  12.431
82727W        W46286  39.385  14.822  14.993
82728W        W46287  42.374  23.669   4.184
82729W        W46288  11.865  34.423   3.187
82730W        W46289   7.373  44.985  13.374
82731W        W46290  28.178  17.181   3.203
82732W        W46291  15.623   0.961  10.926
82733W        W46292  35.385  33.008   1.908
82734W        W46293  22.216  20.268  10.523
82735W        W46294   4.339  12.649   0.425
82736W        W46295  38.852   2.331   3.810
82737W        W46296   2.355  23.232   3.750
82738W        W46297   4.396  33.507   3.846
82739W        W46298   3.947  41.793   3.151
82740W        W46299   8.896  43.893  10.486
82741W        W46300  14.727   9.304   2.217
82742W        W46301   6.354   0.832  10.634
82743W        W46302   4.231  10.320  11.869
82744W        W46303  41.356  44.464   4.186
82745W        W46304   8.360  44.858  14.853
82746W        W46305   2.359  37.443  12.557
82747W        W46306  29.646  40.375  12.472
82748W        W46307  13.188   8.887   4.205
82749W        W46308  40.906   6.196  13.496
82750W        W46309   9.334   8.177   1.747
82751W        W46310  35.939  41.005   4.708
82752W        W46311  32.921  44.391  14.922
82753W        W46312   0.335  18.692  11.011
82754W        W46313  33.912  21.552   0.260
82755W        W46314  40.054   8.306   1.425
82756W        W46315  13.170  32.519  12.892
82757W        W46316  21.247  12.825   0.759
82758W        W46317  43.394   8.364   1.744
82759W        W46318  31.967  13.277  13.861
82760W        W46319  24.570  30.508  12.865
82761W        W46320   9.874  42.993  12.837
82762W        W46321  33.115   9.154  14.826
82763W        W46322  34.904  43.791   1.388
82764W        W46323   0.424  11.661  14.512
82765W        W46324  39.545  26.960  11.434
82766W        W46325  35.061  23.695   2.894
82767W        W46326  13.303  32.603  11.882
82768W        W46327   2.450  24.684   1.745
82769W        W46328  29.094   2.903  13.976
82770W        W46329   4.279   2.292  14.465
82771W        W46330  16.607  24.482   3.220
82772W        W46331  32.409  18.580   0.275
82773W        W46332  21.187  29.928  14.390
82774W        W46333   0.958  13.255   2.785
82775W        W46334  36.878  23.162   2.304
82776W        W46335   1.786   5.264   2.418
82777W        W46336   8.356  20.267   1.845
82778W        W46337  26.527  24.161  13.471
82779W        W46338  21.140  31.544   3.149
82780W        W46339   1.324  26.111   2.738
82781W        W46340   9.819  14.231  12.433
82782W        W46341  17.751  33.598  14.011
82783W        W46342   9.269  39.480   0.732
82784W        W46343  28.554  13.134  11.513
82785W        W46344  37.903  37.881  11.387
82786W        W46345   6.403  30.038  11.970
82787W        W46346   5.317  39.374   0.308
82788W        W46347  12.340  37.853  10.151
82789W        W46348   7.884   3.924   4.677
82790W        W46349   9.870  27.133  13.500
82791W        W46350  39.537  26.569   0.467
82792W        W46351   3.337  13.218   2.405
82793W        W46352  35.077  36.452   1.229
82794W        W46353  44.467  25.592   4.190
82795W        W46354  28.517  10.307   9.980
82796W        W46355  19.620  32.466  14.854
82797W        W46356  39.046  42.432  14.318
82798W        W46357  42.393  10.761  13.352
82799W        W46358   0.916  19.056   0.899
82800W        W46359  29.622  35.089  13.545
82801W        W46360  34.525  32.992   2.802
82802W        W46361  43.785  32.525  14.020
82803W        W46362  26.138  13.714  10.898
82804W        W46363  30.529  18.690   3.848
82805W        W46364  22.567  29.017  11.031
82806W        W46365  33.521  12.180  13.791
82807W        W46366   2.438  20.629  12.485
82808W        W46367   3.304  44.487   1.866
82809W        W46368  18.761  13.157   3.273
82810W        W46369  26.053  28.100   1.904
82811W        W46370   2.930  43.792   2.184
82812W        W46371  23.077  20.606  13.053
82813W        W46372  25.526  38.868   1.698
82814W        W46373  29.551  10.757  11.406
82815W        W46374  42.490  30.145   0.951
82816W        W46375  20.524  44.392  13.892
82817W        W46376   8.729  32.610  10.446
82818W        W46377  28.636  20.546  13.482
82819W        W46378  10.158   2.801  11.907
82820W        W46379  19.211  11.715  13.374
82821W        W46380   0.904  35.950   2.841
82822W        W46381  23.588  12.141   5.217
82823W        W46382   5.865  14.146   2.357
82824W        W46383   4.885  39.477   4.818
82825W        W46384  37.839  22.035   1.863
82826W        W46385   7.319  39.016   4.203
82827W        W46386  40.860   1.282   3.733
82828W        W46387   9.352  31.509  13.886
82829W        W46388  27.529  37.573   4.224
82830W        W46389  35.015  43.775  11.095
82831W        W46390  23.009  18.660  14.843
82832W        W46391  24.156  22.219  13.867
82833W        W46392  39.846  26.552   2.775
82834W        W46393  36.965  22.211  11.972
82835W        W46394  29.051  26.482   2.681
82836W        W46395  33.876  34.886  14.406
82837W        W46396  13.726  21.745   5.229
82838W        W46397  22.595  12.641  10.077
82839W        W46398  20.056   8.839  14.029
82840W        W46399  18.137  33.108  14.967
82841W        W46400  18.594   8.722  14.840
82842W        W46401   9.227  25.135   4.246
82843W        W46402  36.391  24.487  11.941
82844W        W46403   6.192   1.959  11.959
82845W        W46404   9.169  20.078   2.180
82846W        W46405  14.287  41.403   0.960
82847W        W46406  31.023  42.416   1.826
82848W        W46407  35.520  41.786  10.956
82849W        W46408  20.211  22.160  13.991
82850W        W46409   4.226  36.071  14.867
82851W        W46410  22.514   5.355  13.400
82852W        W46411  26.005  34.913   3.752
82853W        W46412   9.282   0.249  13.000
82854W        W46413  28.582  31.595  13.447
82855W        W46414   1.745   2.383  11.527
82856W        W46415   8.223   3.923  10.983
82857W        W46416  18.164  12.824   1.366
82858W        W46417  31.083   4.430  11.452
82859W        W46418  10.730  25.132   4.724
82860W        W46419  27.084  14.119  12.876
82861W        W46420  30.464  26.464   4.256
82862W        W46421  27.081  26.175   3.334
82863W        W46422  20.156  43.322   2.391
82864W        W46423  11.283  44.998   0.412
82865W        W46424  24.127  14.215   3.270
82866W        W46425  32.532   6.234   4.602
82867W        W46426  36.923  23.140   0.427
82868W        W46427   9.861   0.474   3.261
82869W        W46428  13.723  22.656   1.245
82870W        W46429  38.482  43.954  14.511
82871W        W46430   2.344   0.279   2.368
82872W        W46431  25.070   8.890   0.402
82873W        W46432   1.847  30.474   2.359
82874W        W46433  42.996   6.768   0.892
82875W        W46434   5.352  43.979  10.936
82876W        W46435  12.667  30.072   3.694
82877W        W46436  14.614  36.864  13.938
82878W        W46437  27.475  32.932   3.189
82879W        W46438  42.292  15.219   3.722
82880W        W46439  39.355  11.797  10.928
82881W        W46440   9.258  22.115  11.890
82882W        W46441  41.341   8.206   0.341
82883W        W46442  30.424  32.090   3.818
82884W        W46443  40.848  16.785  10.422
82885W        W46444  29.523   4.722   1.367
82886W        W46445   6.847  43.011   1.710
82887W        W46446  19.133  26.975   1.840
82888W        W46447  17.170  36.448  13.437
82889W        W46448  16.777   8.737  14.910
82890W        W46449  31.470  17.154  11.910
82891W        W46450   9.306  10.245   2.876
82892W        W46451   3.828  25.143  14.410
82893W        W46452  26.180  20.083   1.210
82894W        W46453   6.695  19.585  12.875
82895W        W46454  12.634  35.987   1.304
82896W        W46455   6.844   2.335  12.938
82897W        W46456  37.069  38.379   0.280
82898W        W46457  32.005  36.373  12.969
82899W        W46458  36.877   8.769  10.110
82900W        W46459  16.185  16.650   0.909
82901W        W46460  41.944  10.678   4.741
82902W        W46461   9.155  32.493  14.869
82903W        W46462   1.880  23.504  14.979
82904W        W46463  16.302   5.434  11.875
82905W        W46464   6.309  20.167   0.886
82906W        W46465  23.241  12.227  11.528
82907W        W46466  14.597  25.064  13.059
82908W        W46467  27.086  40.976   3.863
82909W        W46468  35.956  33.586  13.982
82910W        W46469  33.938  12.352  13.535
82911W        W46470  33.435  28.515   3.785
82912W        W46471  37.404  16.674  11.483
82913W        W46472  14.266  20.609   1.335
82914W        W46473  13.259  27.451  11.400
82915W        W46474  34.048  28.637   3.222
82916W        W46475  14.817  20.539  13.464
82917W        W46476  33.030  38.962   4.150
82918W        W46477  33.486   9.752   3.266
82919W        W46478  36.490  22.662   2.377
82920W        W46479  23.089  36.557  13.548
82921W        W46480  16.804   8.668   0.302
82922W        W46481   0.943  32.530  11.025
82923W        W46482  32.893  15.316   2.719
82924W        W46483  39.428  42.417   1.444
82925W        W46484  29.094  16.748   1.801
82926W        W46485  39.941   9.656   3.372
82927W        W46486  19.182  17.184  12.528
82928W        W46487  39.350  15.173   2.843
82929W        W46488  31.123   1.864  11.504
82930W        W46489  19.094  22.025  11.524
82931W        W46490  24.160  12.173  12.083
82932W        W46491  19.203  30.032  13.469
82933W        W46492  33.497  39.041  12.353
82934W        W46493  43.772  35.469  14.849
82935W        W46494  32.558  44.991   3.782
82936W        W46495  10.661  30.942   2.182
82937W        W46496  12.355  31.432   0.470
82938W        W46497  12.828  15.616  12.054
82939W        W46498  36.928  40.394   1.261
82940W        W46499  32.056  38.029  14.975
82941W        W46500  14.167  34.433  12.942
82942W        W46501  21.559  30.931  10.888
82943W        W46502   4.754  35.072  12.371
82944W        W46503  36.458  17.593   3.652
82945W        W46504  24.030   7.894   0.960
82946W        W46505   4.839  19.627  14.761
82947W        W46506  20.216  24.520  11.072
82948W        W46507  40.898  16.724   4.329
82949W        W46508   9.841  43.833  12.478
82950W        W46509  26.615  40.875   1.417
82951W        W46510   8.770   8.355  10.942
82952W        W46511  21.053  39.441   0.268
82953W        W46512  22.678   9.820   2.801
82954W        W46513  38.887  19.180  12.046
82955W        W46514  37.055  36.398  14.888
82956W        W46515  17.782  37.947  11.019
82957W        W46516  26.998  28.666   3.201
82958W        W46517   0.314  30.106   0.919
82959W        W46518  23.147  43.018  11.955
82960W        W46519  35.604  32.571  10.461
82961W        W46520  41.945  31.907   1.896
82962W        W46521  18.677  30.034  14.839
82963W        W46522  23.519  13.734   3.186
82964W        W46523  21.195  23.059   2.241
82965W        W46524  32.003  27.132   1.244
82966W        W46525  42.847  44.388  11.907
82967W        W46526  44.262   2.721   0.847
82968W        W46527  21.555   5.721   2.743
82969W        W46528   7.831  16.111  10.992
82970W        W46529  18.210  17.614   0.260
82971W        W46530  39.444  31.940   9.971
82972W        W46531   5.224  11.629   3.187
82973W        W46532  33.416   3.354   3.351
82974W        W46533  39.347  38.472   2.280
82975W        W46534  35.105  22.019   2.765
82976W        W46535   0.322   2.774  13.535
82977W        W46536  24.720  38.901   3.820
82978W        W46537  43.925  15.241  10.533
82979W        W46538  27.466  15.607  11.380
82980W        W46539   9.849  22.555  12.880
82981W        W46540  34.548  19.065  13.844
82982W        W46541   7.858  44.495   4.743
82983W        W46542  41.533   3.277  12.025
82984W        W46543  19.169   5.305  14.888
82985W        W46544   2.230  29.068  10.909
82986W        W46545  37.891  26.963   4.815
82987W        W46546  16.307  13.296  10.928
82988W        W46547  10.794  17.114  14.485
82989W        W46548  19.254  31.604  12.008
82990W        W46549  29.944  36.366  13.060
82991W        W46550  10.805  32.947   4.217
82992W        W46551  31.983  22.544  10.518
82993W        W46552  18.219  43.342  12.925
82994W        W46553  33.000  12.299  13.460
82995W        W46554   2.459  25.128  12.967
82996W        W46555  36.851  25.621   4.618
82997W        W46556  11.854  22.030   1.793
82998W        W46557  18.061  21.625  10.570
82999W        W46558  21.679   5.321  10.918
83000W        W46559   5.433  20.715  10.470
83001W        W46560  24.221  43.335  12.446
83002W        W46561  40.985  15.096  11.392
83003W        W46562  13.136  34.036   0.332
83004W        W46563  15.782  21.120   1.812
83005W        W46564  15.119  26.640  11.037
83006W        W46565   6.274  37.446   0.886
83007W        W46566   1.874  21.133   1.835
83008W        W46567   8.762   1.954   0.827
83009W        W46568   7.909  35.016   2.844
83010W        W46569  36.585  25.023   0.964
83011W        W46570  43.328  12.337  14.930
83012W        W46571  20.735  39.820   0.474
83013W        W46572   1.887  22.140  14.810
83014W        W46573  41.930   6.392   4.622
83015W        W46574   7.820  28.580  10.518
83016W        W46575   8.354  14.204   4.313
83017W        W46576  14.795  30.530   2.697
83018W        W46577  34.878   5.787   3.654
83019W        W46578  28.497  28.073  11.124
83020W        W46579  31.079  32.444   1.787
83021W        W46580  10.282  19.645  13.050
83022W        W46581  32.020  33.430  12.523
83023W        W46582  33.530  35.424  12.457
83024W        W46583  12.307  10.871   4.815
83025W        W46584  13.150  30.485  14.389
83026W        W46585  31.153  17.145   3.650
83027W        W46586   9.750  28.934   1.250
83028W        W46587  28.981   8.383   1.430
83029W        W46588  16.614  22.010   2.902
83030W        W46589  32.605  16.603  13.815
83031W        W46590  26.000   3.363   1.225
83032W        W46591  36.887  16.618  14.865
83033W        W46592  42.796  36.979  11.876
83034W        W46593  21.154  10.751   2.281
83035W        W46594  36.508  43.323   0.759
83036W        W46595  37.854   9.263   5.707
83037W        W46596  14.605  33.485   0.947
83038W        W46597  19.096  20.540  10.909
83039W        W46598   3.902  21.595  10.453
83040W        W46599  39.943   8.827  13.033
83041W        W46600  24.587  24.667   3.757
83042W        W46601  37.496  18.203   1.923
83043W        W46602   1.479  18.564  10.554
83044W        W46603  41.903  34.969   4.233
83045W        W46604  40.803   4.769  13.999
83046W        W46605   5.840  21.582   2.791
83047W        W46606   2.346  12.321   1.425
83048W        W46607  19.282  12.161   2.409
83049W        W46608  22.153  38.357  13.979
83050W        W46609   0.819  37.397  14.397
83051W        W46610  29.507   6.898  12.917
83052W        W46611  27.664  24.708   2.273
83053W        W46612  31.464  25.076   0.461
83054W        W46613  27.951  38.934   9.981
83055W        W46614  38.380  23.678  11.605
83056W        W46615  17.192  13.113  12.092
83057W        W46616   6.743  29.583   4.261
83058W        W46617  12.811  37.391   0.827
83059W        W46618  33.476  34.477  10.417
83060W        W46619   9.347  38.362   3.816
83061W        W46620  42.498  20.630  12.391
83062W        W46621  32.540  13.181   0.354
83063W        W46622  35.510  24.082   4.242
83064W        W46623  21.644   1.974   1.716
83065W        W46624  13.728  20.613   1.272
83066W        W46625  22.077  30.633   0.408
83067W        W46626  44.862  35.430  13.545
83068W        W46627  17.221  15.819   0.858
83069W        W46628  39.432  26.090  14.298
83070W        W46629  10.734  28.469  10.543
83071W        W46630  35.522  35.953   3.207
83072W        W46631  31.533  34.535  13.009
83073W        W46632  43.970  21.637  13.799
83074W        W46633  21.709  44.899   4.280
83075W        W46634  41.383   2.372   5.242
83076W        W46635  12.844  37.833  12.856
83077W        W46636  21.569  17.253   3.808
83078W        W46637   1.914   3.849  11.609
83079W        W46638  37.930  44.845   2.824
83080W        W46639   0.822  41.908   3.164
83081W        W46640  37.952  14.593   3.839
83082W        W46641  37.352  42.797  13.432
83083W        W46642   4.217  27.534  12.425
83084W        W46643  29.425   0.821  11.500
83085W        W46644  28.101   7.367   2.257
83086W        W46645  29.937  21.096  12.555
83087W        W46646  23.645  22.570  14.285
83088W        W46647  19.083  25.510  10.546
83089W        W46648  23.714  15.212   2.212
83090W        W46649  30.416  24.555   3.870
83091W        W46650  37.524  26.666  14.357
83092W        W46651   4.722   5.407   1.254
83093W        W46652  32.595  16.593  11.057
83094W        W46653  26.047  43.399   2.242
83095W        W46654  41.395  17.786  13.511
83096W        W46655  12.209   9.702  12.403
83097W        W46656   4.353  43.916  12.048
83098W        W46657  22.183  44.819   3.656
83099W        W46658  21.257  12.230  12.019
83100W        W46659  36.095  29.098   0.757
83101W        W46660   4.803  36.960   4.352
83102W        W46661  34.562  16.309   1.402
83103W        W46662   0.906  17.692   3.763
83104W        W46663   2.371  35.054  10.467
83105W        W46664  24.511  28.155  14.958
83106W        W46665  15.197  21.161  12.416
83107W        W46666  31.982   1.350  11.596
83108W        W46667  19.233  12.711  13.400
83109W        W46668  30.635  38.568   9.442
83110W        W46669  13.816  32.512   1.262
83111W        W46670  29.025   2.353   0.784
83112W        W46671  14.659   8.381  13.909
83113W        W46672   4.824  29.981  14.475
83114W        W46673  31.124   6.892   2.853
83115W        W46674  37.403  42.510   3.740
83116W        W46675  27.612  27.621  11.606
83117W        W46676  37.419   1.272  11.610
83118W        W46677  13.177  13.320   0.888
83119W        W46678  23.010  38.459   4.346
83120W        W46679   0.272  26.694   2.871
83121W        W46680  33.489   3.457   1.706
83122W        W46681  22.077  19.143  10.549
83123W        W46682  31.615  26.021   1.257
83124W        W46683   4.338  39.397  13.966
83125W        W46684  24.637  11.278  11.405
83126W        W46685  20.090  23.068  11.443
83127W        W46686  43.860  14.769  14.899
83128W        W46687  36.539  12.776  12.438
83129W        W46688  14.812  40.047   0.897
83130W        W46689  29.453   7.313   2.707
83131W        W46690  12.243  15.148   5.267
83132W        W46691  31.618  14.806  14.467
83133W        W46692  20.196   9.360  12.902
83134W        W46693  43.019  11.630  13.452
83135W        W46694  16.804   1.780   1.241
83136W        W46695   8.836  14.204   0.751
83137W        W46696   7.729  21.692   1.365
83138W        W46697   6.698  15.225   3.716
83139W        W46698  26.498  16.681  12.929
83140W        W46699  21.212  15.631   2.762
83141W        W46700  11.237  17.675  10.545
83142W        W46701   5.898  28.434   0.877
83143W        W46702  15.635  28.997  11.005
83144W        W46703  16.217  26.534  12.976
83145W        W46704  32.970   8.357   2.342
83146W        W46705  15.124  42.967  14.374
83147W        W46706   6.408  18.563  11.612
83148W        W46707  34.410  25.543   1.807
83149W        W46708  33.962  10.239  11.384
83150W        W46709  14.701   2.845  10.459
83151W        W46710  25.110   6.854  10.542
83152W        W46711  24.090  41.375  10.001
83153W        W46712   9.682   4.864  13.497
83154W        W46713  20.042  27.944   0.478
83155W        W46714  10.843  14.227  12.525
83156W        W46715   0.323  30.462  10.931
83157W        W46716  33.599  29.589  13.911
83158W        W46717   2.444   0.360  11.863
83159W        W46718  41.977  20.751  13.359
83160W        W46719  18.597  26.187  10.932
83161W        W46720  20.116   6.871  12.866
83162W        W46721  12.729  19.642   5.215
83163W        W46722  17.559  30.463  13.940
83164W        W46723  10.163  14.329  11.058
83165W        W46724  40.972  11.720  14.019
83166W        W46725  42.488  40.539   3.379
83167W        W46726   1.760  30.608  10.994
83168W        W46727  13.189  36.495   0.950
83169W        W46728   4.895  16.213   3.821
83170W        W46729  32.627  37.379  11.482
83171W        W46730  33.459  23.117  14.985
83172W        W46731  12.773  30.122  10.504
83173W        W46732  28.063   2.791   1.291
83174W        W46733  12.729   2.235  10.986
83175W        W46734  38.419  23.513  14.816
83176W        W46735   5.421  42.993   2.274
83177W        W46736   3.746  37.042  12.553
83178W        W46737  26.594  21.175   4.772
83179W        W46738  27.971   0.972   3.849
83180W        W46739   3.937   4.339   3.770
83181W        W46740  35.097  27.612   2.896
83182W        W46741  38.509  27.507  14.312
83183W        W46742  25.029  31.437   4.264
83184W        W46743   2.885   7.207   2.179
83185W        W46744  40.861  21.135   2.204
83186W        W46745   4.388  34.098   2.733
83187W        W46746  20.110   2.327  14.390
83188W        W46747  15.732  36.867   2.328
83189W        W46748   4.780   3.845   2.803
83190W        W46749  19.124  12.296  14.885
83191W        W46750  29.967   5.269   0.917
83192W        W46751   3.720  42.017  14.300
83193W        W46752  19.667  17.607  11.376
83194W        W46753  35.030  32.617  11.941
83195W        W46754   9.355  15.585   4.190
83196W        W46755  16.298   0.423  11.112
83197W        W46756  24.009  17.300  12.530
83198W        W46757  12.245  33.955  11.950
83199W        W46758   8.214  16.744   3.222
83200W        W46759   9.356  44.341   4.822
83201W        W46760   4.428  30.453   2.268
83202W        W46761  24.516  15.722  12.898
83203W        W46762  42.844  43.286   4.123
83204W        W46763  14.245  44.008  12.573
83205W        W46764  41.824  43.482   2.834
83206W        W46765  18.202   2.277  10.553
83207W        W46766   9.787   3.286   1.727
83208W        W46767  13.246  20.698   4.839
83209W        W46768  12.825  38.076   4.214
83210W        W46769   2.780   2.959   3.225
83211W        W46770   0.403  18.751  14.931
83212W        W46771  13.670  39.335   3.738
83213W        W46772  41.927  23.004   4.128
83214W        W46773   6.713  33.117  13.535
83215W        W46774   4.205   5.271   2.269
83216W        W46775   0.351  16.770  10.918
83217W        W46776   9.348  23.561   4.711
83218W        W46777  11.629  28.020   4.834
83219W        W46778  40.483  41.507   3.835
83220W        W46779  25.680  10.656  12.894
83221W        W46780  14.778  35.599  11.857
83222W        W46781  28.103  27.967  10.608
83223W        W46782   8.786  19.761   0.248
83224W        W46783  18.708  25.045   3.276
83225W        W46784  28.523  44.914   1.325
83226W        W46785  34.604  38.403   0.283
83227W        W46786  32.399  13.603  10.935
83228W        W46787  31.446  24.512   1.398
83229W        W46788  44.768  19.042   4.324
83230W        W46789  24.101  30.565   4.728
83231W        W46790  31.091  21.516  12.994
83232W        W46791  41.998  26.606   5.306
83233W        W46792  34.963  37.964   4.819
83234W        W46793  15.126   5.228   4.234
83235W        W46794  33.912  35.516  11.992
83236W        W46795  38.875  35.573   4.817
83237W        W46796  34.604  16.195   3.837
83238W        W46797  44.268  13.757  12.032
83239W        W46798  43.816  17.091  12.375
83240W        W46799   6.298  24.724   2.801
83241W        W46800   2.907  14.800  11.125
83242W        W46801  22.540  38.470  13.412
83243W        W46802   1.369   1.919   1.407
83244W        W46803  30.412   1.254   4.330
83245W        W46804  15.680   5.804   3.825
83246W        W46805  44.339  44.943  10.926
83247W        W46806  18.669   8.707   0.400
83248W        W46807   3.926  18.694   4.708
83249W        W46808   6.871   9.712   2.699
83250W        W46809  18.639  29.486   2.189
83251W        W46810  40.358  44.808  12.991
83252W        W46811   2.736   2.393   3.808
83253W        W46812  11.250  22.575  14.505
83254W        W46813  42.414   3.776  14.334
83255W        W46814  38.329   0.972   3.831
83256W        W46815  30.644   7.193   4.147
83257W        W46816  32.131  10.751   5.311
83258W        W46817   9.377   4.797   4.799
83259W        W46818  14.590  26.105  14.898
83260W        W46819  30.129  16.775  12.090
83261W        W46820  37.434  18.232  11.970
83262W        W46821  25.052  24.001   5.294
83263W        W46822  21.630  28.063   4.642
83264W        W46823  41.842  35.382  10.932
83265W        W46824   1.737  18.590  12.910
83266W        W46825   3.266  39.408   0.288
83267W        W46826  20.189  30.466   3.373
83268W        W46827  30.602  25.012   1.298
83269W        W46828  43.417  38.532  14.891
83270W        W46829  23.228   7.709  13.995
83271W        W46830   7.401  14.166   1.799
83272W        W46831  19.241  15.766  11.465
83273W        W46832  11.750  43.857  14.026
83274W        W46833  24.190   7.698   2.793
83275W        W46834  33.397  13.703  11.373
83276W        W46835   1.254  27.132   4.212
83277W        W46836  20.691  44.800   0.862
83278W        W46837  36.347   9.781  14.764
83279W        W46838  22.710  39.436   1.391
83280W        W46839  21.602  29.956  11.397
83281W        W46840  32.401  24.598  13.863
83282W        W46841   6.855   9.263  14.487
83283W        W46842  23.151   2.803  10.951
83284W        W46843  39.433  24.659   0.469
83285W        W46844  34.050   3.862  13.909
83286W        W46845  23.707  13.206  13.831
83287W        W46846  27.477   5.881  12.054
83288W        W46847  14.639  42.494  12.519
83289W        W46848  33.100  29.595  14.311
83290W        W46849  13.331  30.484   4.805
83291W        W46850  39.982  24.559  11.985
83292W        W46851  18.107  40.052   3.176
83293W        W46852  24.134  40.481   3.354
83294W        W46853  20.714  23.593   3.358
83295W        W46854  19.240   6.867  12.490
83296W        W46855   4.842  10.640   1.282
83297W        W46856   9.315  44.895   2.807
83298W        W46857  20.254  31.492  12.439
83299W        W46858  28.071   6.241  14.844
83300W        W46859  20.599  34.610   4.638
83301W        W46860  13.611  24.994   9.519
83302W        W46861  39.049  29.540   4.144
83303W        W46862  26.990  16.279   1.768
83304W        W46863  17.607  27.617  10.444
83305W        W46864  13.686  21.017  14.449
83306W        W46865  39.436  36.941  12.576
83307W        W46866  32.543  42.384  12.371
83308W        W46867  30.071   1.282  11.069
83309W        W46868  22.058  19.236   0.308
83310W        W46869  33.916  25.613  13.837
83311W        W46870  38.884  16.723  14.480
83312W        W46871  39.343  27.958   4.733
83313W        W46872   6.224  29.111  13.460
83314W        W46873  29.032   3.218   1.850
83315W        W46874  19.232  39.897   3.367
83316W        W46875  29.482   1.317   4.154
83317W        W46876  12.668  14.249  10.502
83318W        W46877   5.904  32.526   1.333
83319W        W46878   9.767  41.980  13.328
83320W        W46879   3.353  42.794   0.964
83321W        W46880  40.989  35.571   0.324
83322W        W46881  13.767  26.088  13.801
83323W        W46882  19.086  36.053  13.957
83324W        W46883   1.747  27.494   0.879
83325W        W46884  35.369  33.566  13.016
83326W        W46885  30.541  40.017  12.025
83327W        W46886  16.619  44.762  11.941
83328W        W46887  38.422  28.678  13.332
83329W        W46888  21.544  41.431   3.149
83330W        W46889  15.141   0.824  13.319
83331W        W46890  28.522  21.149   1.278
83332W        W46891  29.075  32.568  14.492
83333W        W46892   9.648   8.842  13.539
83334W        W46893  36.558  13.324   1.438
83335W        W46894  39.454   1.732  14.339
83336W        W46895  20.623  43.474  13.990
83337W        W46896  43.463  27.620  11.093
83338W        W46897  29.152  26.109   2.229
83339W        W46898  16.612  30.974  11.386
83340W        W46899   1.888  31.531  12.983
83341W        W46900   9.223  44.470  13.349
83342W        W46901  31.001  21.074   2.336
83343W        W46902  20.274  31.639  12.829
83344W        W46903  16.288  39.417  11.951
83345W        W46904  39.957  25.141   1.721
83346W        W46905  13.290  38.430   3.183
83347W        W46906  36.556   3.727   1.406
83348W        W46907  40.850  21.240   0.955
83349W        W46908  43.405   8.869  11.582
83350W        W46909   0.890   5.406   2.878
83351W        W46910  40.012   4.810  13.384
83352W        W46911   9.265  16.702  13.996
83353W        W46912  10.254  22.740  14.362
83354W        W46913  26.673   0.909  12.465
83355W        W46914   1.295   6.382   0.899
83356W        W46915  31.614   6.719  11.896
83357W        W46916  36.970  19.171   2.739
83358W        W46917  25.533  42.003   0.426
83359W        W46918  40.331  42.325  14.457
83360W        W46919   9.274  33.955   2.358
83361W        W46920  25.990  29.105   1.320
83362W        W46921   6.221  18.209   1.781
83363W        W46922   8.748  42.960   4.271
83364W        W46923  10.836  41.985   3.685
83365W        W46924  40.335  18.279  12.050
83366W        W46925  24.999  10.176   1.273
83367W        W46926  20.641  43.955  11.495
83368W        W46927  18.712  14.765  11.950
83369W        W46928   9.810   7.855  13.862
83370W        W46929   8.297  38.949  12.975
83371W        W46930   3.282  28.046   1.440
83372W        W46931  32.457  12.658   0.905
83373W        W46932  16.683  24.671   1.275
83374W        W46933  44.770  21.672  10.527
83375W        W46934  31.616  27.030   1.277
83376W        W46935   6.850  26.181   3.629
83377W        W46936  31.926  11.340   1.909
83378W        W46937  21.717  26.169  10.905
83379W        W46938  39.315  35.549   4.263
83380W        W46939   5.228  18.739  11.046
83381W        W46940  14.753  20.036  14.488
83382W        W46941  26.088  26.689  12.423
83383W        W46942  21.032  44.399   2.855
83384W        W46943  11.692  25.592   1.718
83385W        W46944  31.136  12.211  13.533
83386W        W46945  19.605  25.153  11.512
83387W        W46946  18.723   1.943  14.903
83388W        W46947  27.486  10.150  11.416
83389W        W46948   5.263  11.229   1.319
83390W        W46949   2.730  23.096   2.197
83391W        W46950   7.723   0.942  11.995
83392W        W46951   3.397  21.061  13.320
83393W        W46952  24.031  34.469  13.545
83394W        W46953  12.187  29.173   2.320
83395W        W46954  40.026   4.941   1.877
83396W        W46955  44.397  15.649   2.231
83397W        W46956  43.837  25.007  10.918
83398W        W46957  37.340  27.517  13.929
83399W        W46958   6.889  38.385   3.284
83400W        W46959  24.997   1.846  10.489
83401W        W46960  38.960  13.244  14.866
83402W        W46961  33.896  26.546  11.891
83403W        W46962   0.294  24.494  11.548
83404W        W46963  43.386   4.448   3.156
83405W        W46964  10.766  38.943  11.096
83406W        W46965   5.334  39.334  11.532
83407W        W46966  26.077  41.428  11.581
83408W        W46967  43.975   6.724   0.965
83409W        W46968  29.068   4.856   2.820
83410W        W46969  43.839  26.028  11.932
83411W        W46970  17.778  30.018   2.800
83412W        W46971   4.310   8.757   1.830
83413W        W46972  21.180  21.733  13.413
83414W        W46973  11.795  12.362   2.896
83415W        W46974  36.852  20.662   4.275
83416W        W46975  14.826  26.650  11.953
83417W        W46976  28.499  24.529  13.412
83418W        W46977  27.460  17.089   3.665
83419W        W46978  34.586  15.240   3.161
83420W        W46979  34.538  32.392   2.312
83421W        W46980   6.886  32.428  10.644
83422W        W46981  24.144  29.468   3.260
83423W        W46982   9.762  32.055   2.395
83424W        W46983  29.087  15.254  13.345
83425W        W46984  37.922  36.590   3.372
83426W        W46985  16.791  23.672  10.419
83427W        W46986   6.777  14.615   3.659
83428W        W46987   0.950  19.084   4.626
83429W        W46988  37.011  25.490  13.979
83430W        W46989   0.318  10.378  11.405
83431W        W46990   7.272  32.046   1.315
83432W        W46991  43.399  16.204  13.981
83433W        W46992  22.665  32.033   3.261
83434W        W46993  37.546  43.298   0.348
83435W        W46994  43.861  25.107   1.246
83436W        W46995  37.050  12.215   0.865
83437W        W46996  18.704  40.013  12.012
83438W        W46997  39.045   8.811   2.264
83439W        W46998  17.628  38.430  11.956
83440W        W46999  44.452  38.985   1.259
83441W        W47000  13.693  14.740   1.837
83442W        W47001  26.087  19.275  12.091
83443W        W47002  10.227   2.297   1.736
83444W        W47003  39.499  14.652  13.503
83445W        W47004  21.655  33.089   1.879
83446W        W47005  17.675   2.725   1.250
83447W        W47006  23.009  32.582   2.878
83448W        W47007  13.284   2.249   1.314
83449W        W47008  13.208  19.631   3.744
83450W        W47009  36.376  41.996   2.357
83451W        W47010  33.441   3.384   3.815
83452W        W47011  32.041  41.859   3.699
83453W        W47012   9.862  36.542   0.396
83454W        W47013  36.476  43.777   1.292
83455W        W47014   6.695  14.710   1.750
83456W        W47015  38.931   4.714   0.814
83457W        W47016  31.562  24.050  14.466
83458W        W47017  33.567  38.047   0.290
83459W        W47018  10.728  35.497  12.371
83460W        W47019  32.899   0.872   2.275
83461W        W47020  11.332  30.640   1.385
83462W        W47021  32.037  15.314   2.887
83463W        W47022   0.803  35.520   4.184
83464W        W47023  22.537   8.381  11.453
83465W        W47024  18.167  30.077  13.855
83466W        W47025  11.330  36.057   4.598
83467W        W47026  21.591  14.593  11.045
83468W        W47027  25.105  42.400  12.570
83469W        W47028  21.586  37.396   4.660
83470W        W47029   7.876  35.400  12.501
83471W        W47030  30.019  35.110   0.375
83472W        W47031   6.324  24.681  12.475
83473W        W47032  41.479   2.742   2.839
83474W        W47033   0.761   7.173   3.280
83475W        W47034  15.786  41.905   4.313
83476W        W47035  35.079  37.902  14.828
83477W        W47036  25.102  13.695   3.781
83478W        W47037  35.570  42.885  14.398
83479W        W47038   8.865  29.047   2.899
83480W        W47039  22.065  30.976  12.392
83481W        W47040   0.394  22.124  12.920
83482W        W47041  42.495  33.583  10.580
83483W        W47042  23.501  42.960  12.569
83484W        W47043  39.315   1.866   0.765
83485W        W47044  23.640  23.086  14.805
83486W        W47045  32.621  41.863  14.774
83487W        W47046   7.328  18.051  10.582
83488W        W47047   7.364  25.477   3.744
83489W        W47048  23.072  37.546  12.527
83490W        W47049   2.271  39.855   0.735
83491W        W47050  20.638   1.961  11.088
83492W        W47051  30.471  17.116  10.614
83493W        W47052  41.946   2.335   3.833
83494W        W47053  29.047  34.106  13.525
83495W        W47054  22.732  25.068   1.908
83496W        W47055  22.538  22.722   3.338
83497W        W47056  42.325  20.104  13.436
83498W        W47057  38.449  43.947  11.012
83499W        W47058  20.636  35.532  13.413
83500W        W47059  21.579  13.615  10.973
83501W        W47060  26.485  27.478  14.512
83502W        W47061  13.321  10.839   4.709
83503W        W47062  44.409  17.282  13.913
83504W        W47063  26.060  29.090  13.839
83505W        W47064  14.655  25.537  11.036
83506W        W47065  11.292  16.114  11.608
83507W        W47066   5.194  27.052  12.096
83508W        W47067  34.388  26.159  11.501
83509W        W47068  10.334  10.187   1.870
83510W        W47069  11.160  40.929  11.002
83511W        W47070   6.733  11.361   3.667
83512W        W47071  36.552  29.559   4.194
83513W        W47072   0.355  21.681   0.920
83514W        W47073  14.601  39.926  12.422
83515W        W47074   9.258  30.914   1.330
83516W        W47075  29.088   8.194   2.321
83517W        W47076  27.667  41.486  10.931
83518W        W47077  15.229  37.537  12.921
83519W        W47078  32.577   5.738  13.871
83520W        W47079  35.989   7.766   1.354
83521W        W47080  37.476  38.929  12.534
83522W        W47081   6.709  38.418   2.895
83523W        W47082  18.172  19.599  13.381
83524W        W47083  21.161  23.241   4.160
83525W        W47084  14.654  32.918  13.028
83526W        W47085  19.600  26.632  14.841
83527W        W47086  13.802   3.904   3.742
83528W        W47087   3.813  11.669   1.927
83529W        W47088  27.628  25.980  11.016
83530W        W47089  33.554  39.448   2.841
83531W        W47090  31.151  29.528   3.179
83532W        W47091  44.766   3.301   3.813
83533W        W47092   3.236  34.561  10.522
83534W        W47093  27.055  43.007   4.292
83535W        W47094   3.848  19.666  10.422
83536W        W47095  38.434  33.430  14.295
83537W        W47096  21.750   5.692  12.545
83538W        W47097  14.206  38.470  14.918
83539W        W47098   7.278  36.068  12.369
83540W        W47099   7.412  42.820   2.734
83541W        W47100  11.199  35.865   2.804
83542W        W47101  29.964  42.779  11.401
83543W        W47102  13.306   8.784   1.336
83544W        W47103  28.619  37.889  14.026
83545W        W47104   2.749   2.943   4.690
83546W        W47105  29.044   6.384  11.384
83547W        W47106  14.325  40.423   2.900
83548W        W47107  42.284  41.319   3.164
83549W        W47108   2.233  44.959  10.472
83550W        W47109  35.938  19.127   0.836
83551W        W47110   5.405  33.076  11.920
83552W        W47111  27.526  22.035   3.288
83553W        W47112  31.970  14.181  12.966
83554W        W47113   5.325  12.302  14.970
83555W        W47114   6.344  12.143  11.451
83556W        W47115  20.207  31.029  12.033
83557W        W47116  16.595  12.288   3.662
83558W        W47117   6.904  38.001  14.389
83559W        W47118   2.233  32.980   2.794
83560W        W47119   6.719  35.926   0.424
83561W        W47120  18.565  37.908   1.766
83562W        W47121  14.251  18.742   2.671
83563W        W47122  15.578  26.063   5.108
83564W        W47123  22.061   2.349   0.441
83565W        W47124  44.863  29.015   4.180
83566W        W47125  15.247  26.600  10.580
83567W        W47126  40.398  40.391  12.410
83568W        W47127  12.320   8.320   9.451
83569W        W47128  19.622  37.015  10.411
83570W        W47129  13.288  25.965   4.654
83571W        W47130   5.389  11.290  12.922
83572W        W47131  20.560  33.958  14.497
83573W        W47132  15.245  36.391  14.903
83574W        W47133  43.002  16.232  12.985
83575W        W47134   8.393   6.327  14.288
83576W        W47135   9.277   2.787   1.411
83577W        W47136   9.173  22.622  13.963
83578W        W47137  34.047  28.625  12.838
83579W        W47138  40.509   0.946   1.827
83580W        W47139   2.892  12.209   4.646
83581W        W47140  29.947   3.389  13.929
83582W        W47141   6.787  28.168   2.810
83583W        W47142  38.357   9.797   3.667
83584W        W47143   1.781   2.306  13.957
83585W        W47144  24.660  10.793   2.826
83586W        W47145  40.035   8.681  14.300
83587W        W47146   9.658  40.480   2.357
83588W        W47147   1.976  25.499   1.740
83589W        W47148  22.608  23.024  11.487
83590W        W47149   7.289  42.287   2.325
83591W        W47150   8.233  31.082   2.278
83592W        W47151  41.821  38.366  12.087
83593W        W47152  29.432   5.256   4.329
83594W        W47153  32.545  20.211   0.312
83595W        W47154  28.606   1.903   2.869
83596W        W47155  15.284  40.384  14.942
83597W        W47156   7.696  21.115   3.277
83598W        W47157   6.400  37.835  12.413
83599W        W47158   8.338  26.505   4.734
83600W        W47159   5.830  15.669   0.312
83601W        W47160  20.035  20.137   1.396
83602W        W47161  36.442   8.189  12.547
83603W        W47162  16.151  38.458  11.875
83604W        W47163  40.894  33.000  10.414
83605W        W47164  24.695  14.676  12.959
83606W        W47165  37.894  34.432  11.491
83607W        W47166   3.761  38.961   3.788
83608W        W47167   3.813  36.516   3.718
83609W        W47168  26.184  26.119   0.442
83610W        W47169   3.299  16.162  14.767
83611W        W47170   0.764  25.531   3.674
83612W        W47171   0.953  22.592   0.772
83613W        W47172  14.824  15.752  14.303
83614W        W47173  31.912  21.232   2.802
83615W        W47174   9.394  20.737   0.774
83616W        W47175  12.155   9.771   5.665
83617W        W47176  37.987  25.607   1.272
83618W        W47177  37.489  44.948   4.783
83619W        W47178  30.493  44.419  10.595
83620W        W47179  26.583   5.257  12.425
83621W        W47180   5.349  30.116   0.322
83622W        W47181  19.192  20.113   3.651
83623W        W47182  26.188   8.272  12.352
83624W        W47183  32.540  11.310   4.257
83625W        W47184   4.700  29.622  10.949
83626W        W47185  34.503  18.696  14.493
83627W        W47186  18.106   2.440  13.964
83628W        W47187  37.554   6.249   4.132
83629W        W47188  35.937  41.412   1.866
83630W        W47189  28.185   5.194  12.407
83631W        W47190  39.428   2.798   4.748
83632W        W47191  34.897  33.942   9.625
83633W        W47192  30.585   2.296  10.604
83634W        W47193   2.304  19.645  11.387
83635W        W47194  28.557  13.124   4.774
83636W        W47195  37.072  18.052   2.762
83637W        W47196  25.712  19.538   3.239
83638W        W47197  39.455  13.745  14.959
83639W        W47198  12.346  38.058   1.440
83640W        W47199  30.109  42.413   4.653
83641W        W47200   2.795   8.766   2.676
83642W        W47201  26.020   1.422  13.481
83643W        W47202  25.592  33.104  14.322
83644W        W47203  30.931   8.868   3.335
83645W        W47204  38.822  20.182  12.842
83646W        W47205  22.131  39.431   1.767
83647W        W47206  19.711  21.758   4.151
83648W        W47207  34.563  33.597   2.735
83649W        W47208  10.217  25.028   4.324
83650W        W47209  41.796  41.848  14.016
83651W        W47210   4.795  34.500   4.304
83652W        W47211  16.251  23.533  13.503
83653W        W47212  24.201   0.379   0.846
83654W        W47213  35.970  14.199  13.507
83655W        W47214  34.573   4.376   3.277
83656W        W47215  25.495  27.578  10.412
83657W        W47216  15.291  35.423  12.362
83658W        W47217  16.677  16.191  13.911
83659W        W47218  16.100  35.944   0.740
83660W        W47219  27.090  30.970   1.226
83661W        W47220  30.586  16.162  14.843
83662W        W47221   7.816  20.182   3.288
83663W        W47222  41.882  43.350   0.430
83664W        W47223   5.913  28.154   2.250
83665W        W47224  14.638  22.997   3.255
83666W        W47225   9.848  40.050   1.847
83667W        W47226  25.095  38.826  13.054
83668W        W47227  22.230  12.171  10.465
83669W        W47228  21.649   4.418   1.346
83670W        W47229  42.939  29.960  11.526
83671W        W47230  41.341   9.321  14.475
83672W        W47231  16.098  18.693  13.812
83673W        W47232  26.147  10.313  11.582
83674W        W47233  19.173  31.618   1.810
83675W        W47234  10.351   9.825  12.827
83676W        W47235  31.507   1.783   2.251
83677W        W47236  22.611  16.254  13.385
83678W        W47237  31.102   4.796   4.612
83679W        W47238  20.053  39.999   0.254
83680W        W47239  17.123  36.962   2.196
83681W        W47240  39.043  14.218  10.986
83682W        W47241  19.725   1.362  10.428
83683W        W47242  11.677  12.785   5.266
83684W        W47243  24.205  10.209  12.398
83685W        W47244  31.005  37.399   2.200
83686W        W47245  10.841  29.061   3.233
83687W        W47246  27.640   3.869   1.235
83688W        W47247  39.462  21.606   1.917
83689W        W47248   1.478  15.122  11.971
83690W        W47249  17.149   2.464  10.036
83691W        W47250  19.276  18.238  14.306
83692W        W47251  39.908  32.900  14.889
83693W        W47252  16.226  30.042   3.221
83694W        W47253  25.040   2.736   2.363
83695W        W47254  37.075  28.180  12.024
83696W        W47255  23.655  41.891   1.840
83697W        W47256  37.562  33.131   2.889
83698W        W47257  34.606  12.178  11.935
83699W        W47258  15.597  27.469  14.286
83700W        W47259  44.818  34.581  12.345
83701W        W47260  31.899  10.342  14.911
83702W        W47261  29.589  19.724   3.369
83703W        W47262  41.336   4.370   3.352
83704W        W47263  15.742  20.578   0.752
83705W        W47264  26.204  29.995   3.799
83706W        W47265  26.176  41.862  14.495
83707W        W47266  13.292  44.841  14.397
83708W        W47267  43.964  43.461   1.931
83709W        W47268  19.654  21.646  10.624
83710W        W47269  29.932   5.820   1.810
83711W        W47270  23.702  32.030  12.553
83712W        W47271  40.487  11.781   1.726
83713W        W47272  20.257  13.626   1.249
83714W        W47273  15.823  19.597   0.860
83715W        W47274   3.392  21.527   2.752
83716W        W47275  40.535  34.995   1.416
83717W        W47276  31.920  12.300   2.192
83718W        W47277  14.657  38.037  11.482
83719W        W47278  25.709   5.835   4.129
83720W        W47279  23.513   2.735   1.212
83721W        W47280  24.044  30.091   0.345
83722W        W47281  11.818  14.194  14.391
83723W        W47282  34.896   5.287   4.651
83724W        W47283  14.335  40.948  13.887
83725W        W47284  12.625  39.389   1.733
83726W        W47285  14.112  25.573   4.763
83727W        W47286  19.073  41.872  13.042
83728W        W47287  30.965  13.154   2.369
83729W        W47288  41.503   8.338   1.791
83730W        W47289  40.952   1.285   1.240
83731W        W47290  37.948   8.785  11.487
83732W        W47291  20.102   8.854  14.778
83733W        W47292  38.017  37.438   0.381
83734W        W47293  30.501  34.082   0.741
83735W        W47294  44.969  21.049   1.861
83736W        W47295  13.150  23.139  14.363
83737W        W47296  35.931  28.997   3.218
83738W        W47297  23.615  40.423  13.053
83739W        W47298  12.317  37.437   3.170
83740W        W47299   2.420   8.676  14.456
83741W        W47300  27.056  34.996   0.338
83742W        W47301  30.137   0.331  11.523
83743W        W47302   3.364   2.842  12.872
83744W        W47303  17.660  34.425  14.284
83745W        W47304  43.303  43.386  14.866
83746W        W47305  42.510  30.141  12.016
83747W        W47306  40.898  25.666   4.718
83748W        W47307  36.024  23.722   2.678
83749W        W47308  32.045  34.375   5.130
83750W        W47309  21.032  44.285   5.107
83751W        W47310  16.702  37.063   2.813
83752W        W47311  23.159  26.534   2.197
83753W        W47312   7.798  36.584  14.855
83754W        W47313   5.854   6.917   1.855
83755W        W47314  35.438  27.665   3.165
83756W        W47315  25.702  24.564   2.405
83757W        W47316  34.503  22.542   3.152
83758W        W47317  22.218  18.124  14.442
83759W        W47318  28.474  39.540  13.873
83760W        W47319  19.161  14.143  11.962
83761W        W47320  37.458   9.359   4.620
83762W        W47321   0.877  19.646  11.109
83763W        W47322  42.813   0.375   1.451
83764W        W47323   8.713   3.783   0.857
83765W        W47324  15.628   6.234  12.378
83766W        W47325  23.719   5.851   0.370
83767W        W47326  36.548   4.386   3.191
83768W        W47327  17.143   6.232  13.491
83769W        W47328  27.070  12.326  12.389
83770W        W47329  21.027   1.859   3.780
83771W        W47330  19.631  14.223   1.436
83772W        W47331  26.039  29.039  11.860
83773W        W47332  13.181  39.047  14.936
83774W        W47333  14.102  17.800   4.741
83775W        W47334  25.147  26.635  11.452
83776W        W47335  31.978  36.431   0.765
83777W        W47336   4.421   5.878  13.044
83778W        W47337  38.523  26.683  11.007
83779W        W47338  39.023  17.099   2.696
83780W        W47339  26.668  13.196  12.944
83781W        W47340   6.763  16.766   0.741
83782W        W47341   4.284  26.604  11.372
83783W        W47342  24.480   1.441  14.008
83784W        W47343  35.900  14.743   2.893
83785W        W47344  29.531  25.609  12.440
83786W        W47345   3.781  15.605  10.541
83787W        W47346  42.979   5.270   4.179
83788W        W47347  35.002  16.282   3.261
83789W        W47348   0.299  36.361  10.997
83790W        W47349  42.989  39.059   3.846
83791W        W47350  14.268  24.553   3.676
83792W        W47351  17.122  24.007   1.294
83793W        W47352  38.962  14.326   0.276
83794W        W47353  31.152  14.787  13.391
83795W        W47354  30.524  23.551  13.029
83796W        W47355   2.918  33.391  10.561
83797W        W47356   6.358   1.829  10.941
83798W        W47357  29.423  13.798   1.323
83799W        W47358  14.720  35.032  10.454
83800W        W47359  31.415  10.663  13.411
83801W        W47360   6.867  26.576  14.949
83802W        W47361  31.918  23.038  13.861
83803W        W47362  43.888  34.444  11.510
83804W        W47363  43.011   0.457  14.404
83805W        W47364   4.259  41.896   3.208
83806W        W47365  33.459  17.069   0.395
83807W        W47366  41.937  31.624  12.542
83808W        W47367  28.635  37.019   0.875
83809W        W47368  21.219  31.450  12.922
83810W        W47369  15.654   1.304   3.274
83811W        W47370   5.280  23.217   4.634
83812W        W47371  25.548  40.962   0.888
83813W        W47372  37.527  36.507   2.350
83814W        W47373  42.288  35.979   4.607
83815W        W47374  44.383  36.389  12.845
83816W        W47375   1.250  13.709   0.858
83817W        W47376  10.308   0.346   2.252
83818W        W47377  36.054  31.982  13.376
83819W        W47378  16.616  31.914   3.650
83820W        W47379  29.569  30.561   1.696
83821W        W47380  37.441  30.925   4.644
83822W        W47381  20.171  24.685   1.321
83823W        W47382  20.035  21.550   1.373
83824W        W47383  26.158   9.186  11.508
83825W        W47384   5.323   4.400   1.752
83826W        W47385   1.455  27.100   3.163
83827W        W47386  38.471  38.970   0.247
83828W        W47387   1.772  24.606  11.550
83829W        W47388  31.426  26.994  10.929
83830W        W47389  26.490  10.878  12.049
83831W        W47390  28.555  22.148   3.270
83832W        W47391  41.029  18.664  10.496
83833W        W47392  26.539   1.282   4.632
83834W        W47393  31.473  40.996  13.479
83835W        W47394   4.794  38.478  11.093
83836W        W47395  25.996  20.249   9.935
83837W        W47396  36.429  39.353  11.602
83838W        W47397  23.497  44.436   4.675
83839W        W47398   3.241  20.727  11.508
83840W        W47399   9.389  26.684  12.077
83841W        W47400  43.460  27.527   2.704
83842W        W47401  12.823  15.187  11.555
83843W        W47402   0.944  16.766   3.315
83844W        W47403  14.179  30.602  13.889
83845W        W47404  21.063  40.366   0.367
83846W        W47405  12.223  12.351  10.511
83847W        W47406  41.982  21.699  11.526
83848W        W47407  37.565  14.145   1.702
83849W        W47408  24.022  35.460  14.358
83850W        W47409   1.830  33.973  11.951
83851W        W47410  24.604  15.636   1.892
83852W        W47411  23.496  22.090   9.927
83853W        W47412  17.123  42.470  11.521
83854W        W47413   8.230  32.036   5.295
83855W        W47414  14.135  32.917  11.411
83856W        W47415   8.701  18.287  12.374
83857W        W47416  16.166  26.970   0.888
83858W        W47417  42.303  28.949   2.787
83859W        W47418  15.802  34.882   4.200
83860W        W47419  31.585   1.275  13.451
83861W        W47420   8.758   8.344   0.883
83862W        W47421  16.627  40.365  10.430
83863W        W47422   4.295  11.215  11.420
83864W        W47423  36.518  10.859   5.138
83865W        W47424  18.717  18.789   0.341
83866W        W47425  43.316  13.759   0.287
83867W        W47426  28.452  27.553   1.770
83868W        W47427  26.583  43.289  14.832
83869W        W47428   7.865   5.410   0.304
83870W        W47429  19.579  18.683  10.997
83871W        W47430  32.492  30.512   5.184
83872W        W47431  34.384  37.928  12.427
83873W        W47432  13.351  32.449  14.868
83874W        W47433  27.040   8.835  13.997
83875W        W47434  37.975  43.371   2.247
83876W        W47435   0.310  31.973   4.676
83877W        W47436  21.607  22.737  13.792
83878W        W47437  29.153  21.214  14.860
83879W        W47438  22.557  12.338   1.246
83880W        W47439  44.782  12.192   2.207
83881W        W47440  25.535  23.527   4.657
83882W        W47441  13.775   5.810   3.757
83883W        W47442  21.073  14.196  11.886
83884W        W47443  32.457  23.085  14.820
83885W        W47444  41.505  36.872   0.775
83886W        W47445   0.327  44.364   2.722
83887W        W47446  31.060  18.264  10.414
83888W        W47447  21.236  44.485   1.829
83889W        W47448   4.922  26.174   1.356
83890W        W47449  42.490  18.581   4.701
83891W        W47450   3.714   1.739   0.253
83892W        W47451  18.676  16.175  13.505
83893W        W47452  42.464  44.895   2.204
83894W        W47453  35.072  33.883   1.745
83895W        W47454  41.402   1.262  11.546
83896W        W47455  25.049   7.815   4.124
83897W        W47456  41.457  15.663  13.311
83898W        W47457  15.159  23.205  14.319
83899W        W47458  40.842  42.407   3.630
83900W        W47459  42.874  10.810   4.827
83901W        W47460  28.543   1.473   0.291
83902W        W47461  40.837   5.339   4.194
83903W        W47462  31.151  31.002  12.964
83904W        W47463  33.541   3.716   3.849
83905W        W47464   4.731  29.651   4.271
83906W        W47465  22.558  22.180   0.398
83907W        W47466  37.832  40.493  11.085
83908W        W47467  15.135  40.916   1.288
83909W        W47468   4.306  13.748  14.454
83910W        W47469  22.525  28.035   4.821
83911W        W47470   8.812   2.420  11.459
83912W        W47471   3.372  15.807   0.313
83913W        W47472   1.825  10.856   4.242
83914W        W47473  26.463  35.573  12.918
83915W        W47474  18.584  43.325  13.874
83916W        W47475  27.983  16.812   3.849
83917W        W47476  34.496  33.002   4.206
83918W        W47477  23.131   6.711   3.694
83919W        W47478  23.140  15.321  12.054
83920W        W47479  43.778  20.049  14.992
83921W        W47480  12.639  44.456   1.783
83922W        W47481   8.873  31.074   4.207
83923W        W47482  37.882  18.620   2.759
83924W        W47483  40.548   7.340   0.929
83925W        W47484  32.062  25.025  14.366
83926W        W47485  33.492  40.430   5.088
83927W        W47486  30.617  19.574   3.725
83928W        W47487  12.625  16.678  11.596
83929W        W47488  30.533  22.253  10.038
83930W        W47489  37.368  29.948   1.771
83931W        W47490   1.955  18.755   5.279
83932W        W47491  43.922  40.845   0.782
83933W        W47492   9.262  31.502  10.446
83934W        W47493   8.707  14.630  10.571
83935W        W47494   5.846  28.953   3.190
83936W        W47495  37.838   5.910  12.959
83937W        W47496  19.086  11.823  11.107
83938W        W47497  22.582   8.833   1.912
83939W        W47498  15.246  44.502   1.418
83940W        W47499   2.854   7.891   2.801
83941W        W47500  35.576  14.730   3.826
83942W        W47501  44.940   5.427   3.314
83943W        W47502  43.272   5.380  14.331
83944W        W47503  43.772  26.476  13.879
83945W        W47504  38.937  40.524  12.063
83946W        W47505  36.864  21.729   1.320
83947W        W47506  22.642  27.608   4.351
83948W        W47507  10.825  43.778   1.384
83949W        W47508  19.216  30.146   1.857
83950W        W47509  15.317  22.571  12.882
83951W        W47510  22.016  37.831  14.973
83952W        W47511  31.101  21.078   1.726
83953W        W47512   4.893  13.199  12.431
83954W        W47513   2.403  29.542  11.391
83955W        W47514   4.333  31.007   0.757
83956W        W47515   9.257  21.073   1.902
83957W        W47516  12.321  42.944  12.056
83958W        W47517  16.649  31.470   2.721
83959W        W47518  25.963  39.907  12.898
83960W        W47519  25.129   0.334   1.248
83961W        W47520  41.332  36.500   3.182
83962W        W47521  12.743  10.697   4.121
83963W        W47522  16.162  42.359   0.463
83964W        W47523  19.733  13.312  11.012
83965W        W47524  22.541  10.729   5.575
83966W        W47525  25.012   4.440  13.000
83967W        W47526   0.249   0.281  11.020
83968W        W47527  18.630  22.181  14.980
83969W        W47528  31.615  29.520  10.507
83970W        W47529  26.007  44.325   3.282
83971W        W47530  40.997  23.129   1.898
83972W        W47531  42.500   4.818  12.356
83973W        W47532  44.942  44.830  14.303
83974W        W47533  44.441  23.018  13.951
83975W        W47534   8.235  17.591   1.341
83976W        W47535  27.194  20.705   4.735
83977W        W47536  17.772  31.933  10.917
83978W        W47537  13.708  43.016  12.008
83979W        W47538  35.079  11.662  14.425
83980W        W47539  41.890  36.478   2.682
83981W        W47540   2.729  30.465   1.269
83982W        W47541  44.787  43.502  11.432
83983W        W47542  20.731   7.842   3.817
83984W        W47543  37.993  43.868  11.912
83985W        W47544  26.557   3.917  11.502
83986W        W47545   9.271  16.570  11.071
83987W        W47546  31.133  41.447  12.941
83988W        W47547  21.020  16.249  13.006
83989W        W47548  25.713   6.821   2.826
83990W        W47549  17.100  15.718   5.267
83991W        W47550  33.999  36.474   1.439
83992W        W47551  14.303  42.375  11.893
83993W        W47552  27.490  12.731   0.466
83994W        W47553  29.146   9.877   3.162
83995W        W47554  41.798  33.573   1.771
83996W        W47555  28.982   9.738  13.922
83997W        W47556   8.376  15.099  10.091
83998W        W47557  23.058  40.366  13.809
83999W        W47558  29.021  33.552   0.776
84000W        W47559  16.197   4.424   1.730
84001W        W47560  33.584   3.897   3.251
84002W        W47561  13.140   6.786   3.855
84003W        W47562   5.853  15.716  13.974
84004W        W47563  40.812  28.522  12.096
84005W        W47564  30.042  35.538   3.225
84006W        W47565  41.999   5.765   1.720
84007W        W47566  34.455  22.010  11.409
84008W        W47567  34.946  38.556   4.155
84009W        W47568  32.084  39.940   4.229
84010W        W47569  16.786  33.002  13.796
84011W        W47570  22.033   8.212  11.878
84012W        W47571  20.577  21.552  13.529
84013W        W47572   6.761  21.182   1.717
84014W        W47573  10.825  42.390  10.549
84015W        W47574  11.196  42.029  14.373
84016W        W47575  17.789  36.452   0.328
84017W        W47576   2.816  20.662  11.051
84018W        W47577  24.996  44.401   3.222
84019W        W47578  39.358  31.077   3.645
84020W        W47579   5.919  18.577   4.714
84021W        W47580  25.153  11.814  12.890
84022W        W47581  41.408  25.673   0.413
84023W        W47582  26.172   0.795  13.965
84024W        W47583  28.578   8.246   1.929
84025W        W47584  26.700   6.714   3.150
84026W        W47585   6.401  37.928  12.856
84027W        W47586   0.271   7.745   0.279
84028W        W47587  39.908  43.983  13.331
84029W        W47588  33.956  11.789   0.888
84030W        W47589   1.954  43.960   1.361
84031W        W47590  20.677  27.992  10.440
84032W        W47591  36.896  38.009  11.058
84033W        W47592  12.319  40.516   3.735
84034W        W47593  35.561   0.850   3.269
84035W        W47594   5.707  25.546  12.078
84036W        W47595  22.228  20.768   2.698
84037W        W47596  16.284   8.870   0.391
84038W        W47597  44.467  20.212  14.971
84039W        W47598  36.053  11.259   4.326
84040W        W47599  14.801  21.124  11.953
84041W        W47600  12.140  17.711   1.435
84042W        W47601  20.249  31.088   0.844
84043W        W47602  17.175   0.838   4.806
84044W        W47603  20.184  42.422   0.947
84045W        W47604   2.924  19.080  10.425
84046W        W47605  20.145   8.244   0.774
84047W        W47606  38.454  44.450  14.311
84048W        W47607  38.367  40.374  14.485
84049W        W47608  30.529  25.672   2.737
84050W        W47609  25.573   5.829   2.669
84051W        W47610  21.522  21.663  14.871
84052W        W47611  27.160  36.097   4.634
84053W        W47612  12.699  33.552  12.381
84054W        W47613  42.869   2.882   3.303
84055W        W47614  42.370  25.062  13.999
84056W        W47615   0.285  22.609  13.929
84057W        W47616  23.510  18.052  12.930
84058W        W47617  30.477  12.288   4.298
84059W        W47618  10.372  17.144   1.707
84060W        W47619  26.094   1.874  14.445
84061W        W47620  34.479  18.706  12.502
84062W        W47621   6.359  17.189  12.484
84063W        W47622  11.229  18.573  14.393
84064W        W47623  17.715   6.204  10.133
84065W        W47624  12.840  22.234   4.599
84066W        W47625  24.078  22.027  12.374
84067W        W47626  13.623  25.056  11.611
84068W        W47627   2.292  13.127   2.841
84069W        W47628  41.370  19.045  11.906
84070W        W47629  33.052   0.830   0.780
84071W        W47630  22.042  28.623  13.870
84072W        W47631  39.959   8.375  10.510
84073W        W47632  36.072   0.323   2.828
84074W        W47633  41.032  32.608  13.332
84075W        W47634  21.699  38.061   2.272
84076W        W47635  36.529  34.937   4.824
84077W        W47636  27.537   0.466   1.828
84078W        W47637   6.423  11.790   2.831
84079W        W47638  28.041  41.455   5.182
84080W        W47639   3.846   3.331   4.266
84081W        W47640  28.071  24.513  13.332
84082W        W47641   9.235   2.227   1.820
84083W        W47642   7.257  17.219   4.240
84084W        W47643   3.849   5.215  11.925
84085W        W47644  44.446  36.457   1.261
84086W        W47645  19.232  38.381   2.418
84087W        W47646   1.940  43.799  14.838
84088W        W47647   1.858  40.932   2.709
84089W        W47648   0.254  39.863   3.170
84090W        W47649  35.059  19.608   2.842
84091W        W47650  28.647   5.198  10.933
84092W        W47651   6.419  25.494  10.934
84093W        W47652  33.070  12.668  13.328
84094W        W47653   0.841  34.896   4.327
84095W        W47654  17.095  23.522  11.378
84096W        W47655   8.364   1.940  14.987
84097W        W47656  33.889   7.735   4.819
84098W        W47657  44.379  28.573   9.966
84099W        W47658  19.617  12.188  12.853
84100W        W47659  22.068  33.007  10.459
84101W        W47660  23.021  21.576   2.361
84102W        W47661   7.861  11.800  12.096
84103W        W47662  38.352   4.283  14.923
84104W        W47663  43.771  34.557  14.303
84105W        W47664  37.050   4.914   2.741
84106W        W47665   9.814  36.084  10.136
84107W        W47666  40.350   4.831  13.805
84108W        W47667   7.229  18.578  13.314
84109W        W47668  31.510  10.874  11.013
84110W        W47669   0.895  30.000  14.436
84111W        W47670  16.258  24.199   0.264
84112W        W47671  10.248  34.057   1.424
84113W        W47672  11.657  14.119   3.329
84114W        W47673   4.429  19.663  12.518
84115W        W47674   6.406  22.670   0.388
84116W        W47675  24.481   5.819   2.765
84117W        W47676  20.720  31.926  13.361
84118W        W47677   0.383   4.393  10.563
84119W        W47678  14.615  38.466  12.971
84120W        W47679  23.020   6.813  10.917
84121W        W47680  12.203  11.738   0.360
84122W        W47681  35.439  21.585  13.384
84123W        W47682  28.586  26.502  10.114
84124W        W47683  28.175  18.082   1.868
84125W        W47684  14.765  22.134   0.848
84126W        W47685  18.185  39.905   2.280
84127W        W47686  36.524   2.435   2.729
84128W        W47687  12.692  40.303  11.983
84129W        W47688  20.232   1.316   2.297
84130W        W47689  12.812  14.306   0.873
84131W        W47690   2.368  36.982  10.996
84132W        W47691  28.567  26.678   3.831
84133W        W47692  39.326  27.048  11.973
84134W        W47693  13.154   8.292  11.401
84135W        W47694  22.649  30.529   3.169
84136W        W47695   2.285  26.103  11.531
84137W        W47696  26.547  37.517   3.724
84138W        W47697  44.455  30.001   0.352
84139W        W47698  24.675  35.072  14.333
84140W        W47699  24.495   2.438   0.251
84141W        W47700  31.003   6.366  12.368
84142W        W47701  42.495  39.533  11.081
84143W        W47702  29.470  19.691   2.674
84144W        W47703  32.542  41.884   4.789
84145W        W47704  30.558  35.868   2.662
84146W        W47705  41.859   1.365   2.762
84147W        W47706   4.445  44.502   4.141
84148W        W47707  34.901  32.890   0.953
84149W        W47708   8.346  32.095   4.788
84150W        W47709  41.399  21.615  12.546
84151W        W47710  33.979  29.984  12.866
84152W        W47711  31.100   4.339  11.038
84153W        W47712  29.141  43.902  14.328
84154W        W47713   2.948  25.973  10.404
84155W        W47714  27.997  14.822  10.003
84156W        W47715  32.586  38.375   0.839
84157W        W47716   3.941  34.974  13.453
84158W        W47717   2.462  25.577  11.057
84159W        W47718   4.391  34.537  13.803
84160W        W47719   4.789  26.633   3.764
84161W        W47720  17.291  24.666  14.482
84162W        W47721   9.781  33.527  14.819
84163W        W47722  35.956  31.039   4.256
84164W        W47723  11.828  41.369  10.638
84165W        W47724   4.914  28.065   1.918
84166W        W47725  41.339  36.446   1.228
84167W        W47726   4.281  40.815  14.790
84168W        W47727  33.099  35.450  11.970
84169W        W47728  20.239   3.266   1.824
84170W        W47729   7.307  32.539  14.929
84171W        W47730  24.139   5.902  10.911
84172W        W47731  16.118  42.819   2.330
84173W        W47732  29.973  32.412   2.781
84174W        W47733   8.238  16.076  12.885
84175W        W47734  17.731  33.506   1.765
84176W        W47735  18.061  22.737  14.923
84177W        W47736  17.789   0.286  13.923
84178W        W47737  28.549  26.081   0.749
84179W        W47738  42.935  40.799  10.532
84180W        W47739  14.340  32.927  10.993
84181W        W47740   2.319  41.456   4.252
84182W        W47741  25.100  34.888   3.361
84183W        W47742   7.807  18.693   3.207
84184W        W47743  25.683   2.895  14.329
84185W        W47744  36.409  19.247   4.306
84186W        W47745  41.787  40.473   0.907
84187W        W47746  11.625  21.607   0.854
84188W        W47747  13.690  30.547  14.289
84189W        W47748  12.757  42.908   1.918
84190W        W47749  29.984   2.748  13.876
84191W        W47750   2.310  26.062  13.508
84192W        W47751   9.272  24.614   2.703
84193W        W47752  14.660  32.886   4.180
84194W        W47753  40.990  15.740   1.384
84195W        W47754  40.419  22.743   1.861
84196W        W47755  22.142  31.114   2.269
84197W        W47756  10.263  41.972  11.992
84198W        W47757  40.432  32.620  12.944
84199W        W47758   9.203  15.710   5.245
84200W        W47759  21.719  20.145   2.766
84201W        W47760  13.691  17.708  14.931
84202W        W47761  21.219   4.442  12.942
84203W        W47762  23.070   9.284   3.783
84204W        W47763  21.585   3.763  14.879
84205W        W47764  27.602   8.404   2.779
84206W        W47765  31.915  44.931  11.096
84207W        W47766  25.610   9.192  12.441
84208W        W47767  34.458  40.438  12.944
84209W        W47768  11.698  34.080   1.895
84210W        W47769  25.673  24.535  14.802
84211W        W47770  21.624  42.354   2.283
84212W        W47771   1.295  18.580  14.309
84213W        W47772  31.429  13.279   1.255
84214W        W47773  25.521   3.362   2.866
84215W        W47774  13.162  33.511  14.305
84216W        W47775  39.539  38.931   4.830
84217W        W47776  43.368  41.445   2.866
84218W        W47777  27.675  24.572  11.122
84219W        W47778  28.596  21.691  10.609
84220W        W47779  44.879   0.363  13.358
84221W        W47780  13.664   6.829   0.894
84222W        W47781   0.903  23.607   0.467
84223W        W47782  15.319  29.621  14.369
84224W        W47783  19.684  32.018   4.175
84225W        W47784   7.677   6.864   2.833
84226W        W47785  28.030  19.076   2.882
84227W        W47786   5.690   5.893   2.719
84228W        W47787  32.619  13.239  12.862
84229W        W47788  22.212  28.177   1.268
84230W        W47789  19.278  13.207  12.575
84231W        W47790  19.149  38.863  11.606
84232W        W47791  20.127  26.991  10.964
84233W        W47792  12.219   4.820  13.339
84234W        W47793   6.892  41.811   3.147
84235W        W47794  14.592  40.862  14.417
84236W        W47795  38.850  10.366  14.883
84237W        W47796  15.674  33.449   0.295
84238W        W47797  11.189  20.207  14.026
84239W        W47798  34.062  11.859  13.017
84240W        W47799  16.074  41.450  13.799
84241W        W47800   4.298  29.957  11.446
84242W        W47801  19.227  14.155   1.716
84243W        W47802  13.782  15.604   4.294
84244W        W47803  20.539   6.905  13.355
84245W        W47804  10.383  15.784  11.944
84246W        W47805  14.592   5.310   2.844
84247W        W47806  28.674  24.081   2.819
84248W        W47807   1.869  25.141   3.326
84249W        W47808  12.322   1.790   0.296
84250W        W47809  31.105  18.736   2.368
84251W        W47810  24.146  11.723  12.886
84252W        W47811   9.250  34.375   3.866
84253W        W47812  40.384  17.273  14.768
84254W        W47813   7.766  37.928  13.313
84255W        W47814   2.252  34.588   3.686
84256W        W47815   8.189  22.637  10.454
84257W        W47816   3.451  21.717  13.334
84258W        W47817   8.801  34.436   1.305
84259W        W47818  19.748  29.028   2.822
84260W        W47819  21.657  11.769   2.350
84261W        W47820  39.451  42.969  12.449
84262W        W47821  29.443  20.657  14.490
84263W        W47822  16.732  42.984   4.679
84264W        W47823  16.199  24.707  11.027
84265W        W47824  40.414  30.924   3.354
84266W        W47825  13.810  42.382   0.811
84267W        W47826  20.188  42.946   0.477
84268W        W47827  33.529  24.505   4.703
84269W        W47828   2.856  21.572   0.750
84270W        W47829  19.743  30.432  10.626
84271W        W47830   1.923  25.705  11.470
84272W        W47831   5.247  34.924  10.516
84273W        W47832  33.592   0.831   9.998
84274W        W47833  20.572  39.420   4.335
84275W        W47834  40.049  10.748   4.722
84276W        W47835   0.796   2.422   1.450
84277W        W47836  40.460  11.262   0.252
84278W        W47837  28.050  40.499  14.351
84279W        W47838  29.580  33.097  11.045
84280W        W47839  41.877  43.780  13.437
84281W        W47840   7.187  30.503   4.223
84282W        W47841  23.621   0.788   4.212
84283W        W47842   9.264  16.768   1.715
84284W        W47843  16.749   8.223  13.413
84285W        W47844  12.701  34.008   0.802
84286W        W47845  30.435  28.178   2.800
84287W        W47846   7.184  29.463  12.861
84288W        W47847  31.630  34.492   1.821
84289W        W47848  14.784   5.806   0.857
84290W        W47849  26.652  31.556  14.298
84291W        W47850   2.817  15.709  12.888
84292W        W47851  13.135   0.249  10.610
84293W        W47852  40.418  24.583   4.829
84294W        W47853  38.562  43.305   1.746
84295W        W47854  25.106  28.153  11.943
84296W        W47855   1.461  16.780  11.006
84297W        W47856  34.969  43.358  12.088
84298W        W47857  24.073  23.561   0.258
84299W        W47858  34.565  41.923   4.318
84300W        W47859  14.731  16.783  14.781
84301W        W47860  40.436  36.031   0.783
84302W        W47861  18.097  11.632  14.376
84303W        W47862  21.518  24.580  14.916
84304W        W47863   4.276  29.047  12.525
84305W        W47864  10.183   3.831  12.990
84306W        W47865  33.571  35.976   1.839
84307W        W47866  37.360  41.512  11.421
84308W        W47867  34.490  37.996   2.288
84309W        W47868  40.808  11.271  12.515
84310W        W47869  36.383   4.929  10.502
84311W        W47870  24.022  10.238   3.865
84312W        W47871  15.665  43.462  14.375
84313W        W47872  27.100  44.351  11.376
84314W        W47873  16.125  23.530  12.569
84315W        W47874  32.064  39.995   1.375
84316W        W47875  36.911  19.641   5.263
84317W        W47876  17.174  28.105  13.049
84318W        W47877   2.804  44.352  14.396
84319W        W47878   9.222  18.099   5.297
84320W        W47879  28.045  40.395   5.178
84321W        W47880   9.390  23.616  13.525
84322W        W47881  14.095  30.124  11.520
84323W        W47882   9.677  25.706   4.701
84324W        W47883  39.338  11.621   3.290
84325W        W47884  34.518  17.582   4.822
84326W        W47885  37.007  26.525   0.832
84327W        W47886  28.092   5.856  12.973
84328W        W47887  23.210   2.948  14.974
84329W        W47888  41.963  33.059   1.834
84330W        W47889  25.122  21.261  12.974
84331W        W47890   0.940   9.383   3.248
84332W        W47891  37.025  14.131   1.441
84333W        W47892  37.512  27.516  14.887
84334W        W47893  42.407   5.703   1.732
84335W        W47894   0.767   6.794  11.448
84336W        W47895  25.502   8.871  11.493
84337W        W47896   0.271  10.729  10.948
84338W        W47897  39.011  40.926  14.830
84339W        W47898  17.209  32.425   1.746
84340W        W47899  35.362  36.903  14.324
84341W        W47900  15.595   9.166   1.408
84342W        W47901   1.314  31.125   4.320
84343W        W47902  16.159  18.691  11.899
84344W        W47903  19.536  26.543   1.854
84345W        W47904  31.980  38.832  14.841
84346W        W47905  41.934  39.384  12.823
84347W        W47906   6.808  40.803  10.410
84348W        W47907  19.541  10.708   4.683
84349W        W47908  31.131  39.873  12.935
84350W        W47909  34.544   5.850  10.985
84351W        W47910  33.481  32.510  14.847
84352W        W47911  20.072  32.916  14.427
84353W        W47912  29.654   6.237   5.257
84354W        W47913  32.530  42.863  12.942
84355W        W47914  19.629  26.103   4.762
84356W        W47915  14.337  17.744   2.214
84357W        W47916  25.981   5.389   1.887
84358W        W47917  28.570  23.709  13.453
84359W        W47918   2.755  32.053   3.308
84360W        W47919   1.445  41.897   1.422
84361W        W47920   5.931  40.429   1.907
84362W        W47921  37.553   2.368  12.573
84363W        W47922  42.973  38.524   3.757
84364W        W47923  18.725   7.339   1.270
84365W        W47924  25.515  27.961   1.313
84366W        W47925  33.380   1.954   1.719
84367W        W47926  33.965  27.144  12.555
84368W        W47927  29.152   6.802  14.324
84369W        W47928  21.220  42.503  11.942
84370W        W47929   3.228  25.677   4.705
84371W        W47930  10.767   1.402   0.736
84372W        W47931   5.715  16.173  11.563
84373W        W47932  26.587  33.487  13.479
84374W        W47933  13.671  11.171   2.373
84375W        W47934  14.732   4.935   2.778
84376W        W47935   1.833  37.947   4.824
84377W        W47936  22.070  36.396   2.337
84378W        W47937  36.389  32.088  12.416
84379W        W47938  14.673  18.295   3.698
84380W        W47939  25.529  12.217  13.469
84381W        W47940  28.646  43.495  12.511
84382W        W47941  15.724  12.291   3.379
84383W        W47942  26.662  12.251   4.757
84384W        W47943  10.758  23.637   2.360
84385W        W47944  23.564  30.981   4.298
84386W        W47945  25.468  24.510   4.713
84387W        W47946   2.786  28.977   1.248
84388W        W47947   3.221  36.471   3.673
84389W        W47948  29.021   4.441   2.685
84390W        W47949  12.824  16.610   4.204
84391W        W47950   6.719  30.953  10.643
84392W        W47951  30.076  35.964   1.338
84393W        W47952  30.127  32.481  14.797
84394W        W47953  36.958  33.591   1.311
84395W        W47954  14.592  14.600   3.268
84396W        W47955  33.516  18.264  13.547
84397W        W47956  39.424  40.370  11.389
84398W        W47957  18.168  20.703  11.868
84399W        W47958  24.026  39.465   1.757
84400W        W47959   9.169  40.886   2.303
84401W        W47960   3.310   9.692  12.012
84402W        W47961  12.232   9.867   0.944
84403W        W47962  37.859  11.178  12.547
84404W        W47963  25.079  13.602   2.759
84405W        W47964  10.769  23.133   9.489
84406W        W47965  19.650   9.669  12.971
84407W        W47966  36.487   4.857  14.976
84408W        W47967  22.678  36.410   2.383
84409W        W47968  16.656   4.706  10.924
84410W        W47969  10.760   1.843   0.927
84411W        W47970  42.906   9.825  14.368
84412W        W47971  42.367   6.890  12.448
84413W        W47972  22.683  37.999  12.387
84414W        W47973  27.117  31.414  13.529
84415W        W47974  31.542  43.457   2.885
84416W        W47975  11.371  25.651   2.902
84417W        W47976  41.406   3.740  12.886
84418W        W47977  36.937  13.106   1.791
84419W        W47978  17.119  44.449   0.381
84420W        W47979   1.457  21.525   3.348
84421W        W47980  23.216   8.735   1.445
84422W        W47981  20.059  43.277   4.667
84423W        W47982  17.159  24.081   2.790
84424W        W47983  13.204  17.120   4.615
84425W        W47984  43.901  21.066  11.102
84426W        W47985   5.232   5.716  13.878
84427W        W47986   4.363  17.747  10.890
84428W        W47987  17.255   3.302  11.606
84429W        W47988  29.560  29.651   3.313
84430W        W47989  22.706   7.270   4.262
84431W        W47990  29.949  28.020  12.860
84432W        W47991  22.614  26.530  14.413
84433W        W47992  31.077  34.610   3.381
84434W        W47993  24.984  38.483  11.855
84435W        W47994  43.283  11.720   2.256
84436W        W47995  21.572  19.697  10.933
84437W        W47996   6.914  41.909   4.765
84438W        W47997  44.934   1.472   0.302
84439W        W47998  18.264  35.377   0.268
84440W        W47999   0.832  37.954   3.268
84441W        W48000  30.051  37.918  13.376
84442W        W48001  18.563   5.372  11.893
84443W        W48002  37.571   5.281   3.763
84444W        W48003  32.954  28.666   2.207
84445W        W48004  28.520   0.848   2.900
84446W        W48005  20.704  24.572   2.223
84447W        W48006  10.272   5.932   5.258
84448W        W48007  42.468  39.548   0.923
84449W        W48008   0.983  44.504   0.389
84450W        W48009  17.663   9.806  14.375
84451W        W48010  17.182  37.493   0.256
84452W        W48011  14.789  21.543   2.834
84453W        W48012  24.136  29.056  14.822
84454W        W48013  18.645   8.681   5.309
84455W        W48014  29.455  35.454  12.042
84456W        W48015   7.759  16.795  13.904
84457W        W48016   9.854  27.623   2.229
84458W        W48017  40.495   1.480  10.604
84459W        W48018  12.644  29.457   3.225
84460W        W48019   2.849  20.577  14.464
84461W        W48020  28.520  38.393  12.532
84462W        W48021  28.507  31.549   0.831
84463W        W48022   3.956  14.155   2.720
84464W        W48023  35.024  41.468   2.180
84465W        W48024   3.441  20.609   3.233
84466W        W48025  13.241   4.719  13.970
84467W        W48026   7.709  20.034  13.947
84468W        W48027   5.308  36.554   1.296
84469W        W48028  22.250  42.987   1.417
84470W        W48029   3.743  14.638  12.848
84471W        W48030  11.229  11.319   0.281
84472W        W48031  35.379  22.215   3.722
84473W        W48032  21.565  24.010  14.758
84474W        W48033  10.282   6.705   1.387
84475W        W48034  37.067  38.424  11.001
84476W        W48035  13.220  10.138   2.672
84477W        W48036  18.644  23.633  14.488
84478W        W48037  41.972   0.794  14.994
84479W        W48038   2.739  31.590   4.279
84480W        W48039  12.629  14.272  12.828
84481W        W48040  40.323  29.144  11.954
84482W        W48041  19.597  33.480  14.424
84483W        W48042  13.178   2.407  11.386
84484W        W48043  42.975  10.725   1.368
84485W        W48044  25.196  26.063   1.299
84486W        W48045   5.280  13.225  13.820
84487W        W48046  24.094   9.150   3.711
84488W        W48047  43.911   3.893  14.385
84489W        W48048  26.116  21.567   1.800
84490W        W48049  42.014  39.843   1.329
84491W        W48050   4.912  36.068   3.676
84492W        W48051   2.386  26.597   1.297
84493W        W48052  43.794  36.469  10.977
84494W        W48053  19.633  25.617   2.366
84495W        W48054  31.536  41.984  10.911
84496W        W48055  11.785  13.248  11.489
84497W        W48056  30.537  33.975  11.935
84498W        W48057  40.522   3.890   1.360
84499W        W48058   3.247  36.929  13.478
84500W        W48059   2.258  27.160  10.949
84501W        W48060  37.476  33.455  10.972
84502W        W48061  41.003  16.074  13.909
84503W        W48062  18.661  26.124  13.544
84504W        W48063  39.366  11.358  12.361
84505W        W48064   7.826  36.443   0.902
84506W        W48065  19.706  26.695  14.515
84507W        W48066  24.683   0.444   2.395
84508W        W48067  27.528  28.051   3.739
84509W        W48068  15.776   9.857  11.920
84510W        W48069   4.416   6.375  12.055
84511W        W48070  31.000  38.540  10.929
84512W        W48071  17.240   3.264  10.927
84513W        W48072  29.036  40.958  10.896
84514W        W48073  29.107  36.406  14.418
84515W        W48074  41.804  20.110   4.145
84516W        W48075  21.625   9.697   3.799
84517W        W48076   0.880  31.917  11.406
84518W        W48077  11.751  23.074  10.470
84519W        W48078   9.258  39.357   3.822
84520W        W48079  14.269  35.469  13.879
84521W        W48080   5.906  35.359   3.774
84522W        W48081   9.851  23.625   4.246
84523W        W48082  44.366  10.302   1.730
84524W        W48083   5.798  26.636   0.396
84525W        W48084  27.582  41.972  10.622
84526W        W48085  26.472  25.510   0.924
84527W        W48086  28.969  21.684  13.842
84528W        W48087   2.323  35.032   2.826
84529W        W48088  19.067  11.755   1.902
84530W        W48089   0.868  44.815  10.114
84531W        W48090   2.908  38.886   0.910
84532W        W48091  28.582  36.916   2.219
84533W        W48092  17.156   0.849   3.255
84534W        W48093  20.038  39.523   1.418
84535W        W48094  10.141  31.594  14.286
84536W        W48095  24.649  44.294   1.294
84537W        W48096  24.705  30.584  11.968
84538W        W48097  17.068  30.014   4.320
84539W        W48098  17.777  16.074  14.280
84540W        W48099  11.279  39.976  12.060
84541W        W48100  38.853   8.312  11.563
84542W        W48101  34.889  35.023  13.436
84543W        W48102  24.992   6.721   4.795
84544W        W48103  26.527  22.167  14.780
84545W        W48104   3.396   1.932   0.900
84546W        W48105  36.019   5.885  13.331
84547W        W48106  11.197  37.371  10.419
84548W        W48107  13.643   2.462  14.801
84549W        W48108  24.033  27.649  14.443
84550W        W48109  33.381  29.642   3.694
84551W        W48110   5.225   6.427  14.911
84552W        W48111  11.228  15.285   2.717
84553W        W48112  38.385  13.194  10.914
84554W        W48113  38.856   9.760  10.030
84555W        W48114  36.876  42.506   3.249
84556W        W48115   0.966  24.169   4.175
84557W        W48116   1.843  32.584  11.111
84558W        W48117  27.472  23.027   0.858
84559W        W48118  26.107   2.385  14.842
84560W        W48119  32.110  34.863   0.386
84561W        W48120  22.045  22.198  12.943
84562W        W48121  36.589   0.917  11.553
84563W        W48122  24.479  12.842   1.751
84564W        W48123  38.998   7.365   4.804
84565W        W48124   1.483  15.587   0.377
84566W        W48125  22.034   7.193  12.906
84567W        W48126  12.796  22.705   3.173
84568W        W48127  25.648   8.231  14.944
84569W        W48128  12.340  14.638   2.180
84570W        W48129   8.366  31.018  14.998
84571W        W48130  43.003   3.786  13.932
84572W        W48131  30.024  26.145   1.421
84573W        W48132  31.544  11.690   3.247
84574W        W48133  29.653  11.777  12.552
84575W        W48134  17.218  40.819  13.012
84576W        W48135   0.338  16.677   4.609
84577W        W48136  19.605   0.975  11.045
84578W        W48137   8.324  19.635   4.831
84579W        W48138  14.212   8.295  11.546
84580W        W48139  15.688  10.161  11.062
84581W        W48140  17.168  39.901  14.839
84582W        W48141   8.805  21.621  12.426
84583W        W48142  29.423  14.282   2.760
84584W        W48143  32.943  23.040  11.940
84585W        W48144  38.825   6.877   0.408
84586W        W48145  16.263  40.826   4.159
84587W        W48146  21.683  16.758  10.580
84588W        W48147  43.927  26.597  10.444
84589W        W48148  26.497   2.386  13.859
84590W        W48149  29.443  35.926   1.763
84591W        W48150  14.827  16.581  13.501
84592W        W48151   2.720  23.685   1.887
84593W        W48152   6.376   9.253  12.565
84594W        W48153  13.809  20.080   0.883
84595W        W48154  13.686  36.388   3.693
84596W        W48155  18.698  17.679   4.139
84597W        W48156  13.835  19.255  13.473
84598W        W48157  36.592  37.043  12.850
84599W        W48158  39.835  39.840   4.269
84600W        W48159  14.292   6.329   3.715
84601W        W48160  38.063  28.558   4.819
84602W        W48161  37.968  40.940   2.878
84603W        W48162  25.061  34.421   2.705
84604W        W48163   8.185  10.746   4.333
84605W        W48164  42.031  37.342   2.308
84606W        W48165   6.890  35.856  10.992
84607W        W48166  42.929  14.713  13.490
84608W        W48167   2.784  44.292   2.241
84609W        W48168  39.005   0.808   1.306
84610W        W48169  42.846  27.022   0.327
84611W        W48170  14.239  30.571  11.890
84612W        W48171   3.431  36.555   2.709
84613W        W48172   8.351  26.150  14.027
84614W        W48173  40.828  34.892  11.876
84615W        W48174  10.159  38.030  10.926
84616W        W48175  35.525  15.608  12.850
84617W        W48176  21.228  11.621   5.123
84618W        W48177  16.757  19.121  11.914
84619W        W48178  37.480  21.731  14.346
84620W        W48179   5.885  38.446   4.765
84621W        W48180  39.041  27.191   3.819
84622W        W48181  19.274  14.713   2.257
84623W        W48182  36.431  41.896   1.903
84624W        W48183   9.272   7.414  12.882
84625W        W48184   8.784  43.891   1.306
84626W        W48185   6.386  10.702  13.903
84627W        W48186  35.505  44.994  14.335
84628W        W48187  16.631  34.428   3.216
84629W        W48188  32.041   5.860   1.832
84630W        W48189  33.092   4.725   2.851
84631W        W48190  16.190  27.126   2.196
84632W        W48191  33.920  35.086  13.863
84633W        W48192  10.219   0.439   2.754
84634W        W48193   2.315  33.129  10.961
84635W        W48194  38.892  28.657   1.242
84636W        W48195  27.983  27.682   1.255
84637W        W48196  25.149  35.988  14.884
84638W        W48197  35.389  23.093   1.362
84639W        W48198  21.180  43.454  14.797
84640W        W48199   6.753   6.730  11.376
84641W        W48200  37.959   8.866  10.560
84642W        W48201  14.812  14.602  12.884
84643W        W48202  40.350  34.966  13.380
84644W        W48203  31.016   8.317  12.088
84645W        W48204  11.354   6.700  13.806
84646W        W48205  41.936  16.748   3.677
84647W        W48206  30.618  27.186  12.530
84648W        W48207   5.873  18.168  13.492
84649W        W48208  29.067  26.993  13.473
84650W        W48209  44.843  21.628  12.926
84651W        W48210   9.860  26.986  10.914
84652W        W48211  16.605  27.512  13.428
84653W        W48212  44.308  34.957  11.442
84654W        W48213  44.916  36.051  12.939
84655W        W48214  29.598  41.484  13.503
84656W        W48215   0.467  27.564  13.407
84657W        W48216   6.341  36.581  11.460
84658W        W48217  36.896  37.948  13.827
84659W        W48218   9.676  20.570   4.161
84660W        W48219  34.108   6.340  11.017
84661W        W48220  33.474   2.730  13.423
84662W        W48221  40.535   2.720   3.842
84663W        W48222  33.405   7.747   0.307
84664W        W48223  37.489  11.780  12.405
84665W        W48224  30.908  36.880  13.409
84666W        W48225  34.004  18.125  11.435
84667W        W48226   5.211   9.284   4.279
84668W        W48227  18.580   6.853   3.233
84669W        W48228  20.704  28.074   9.578
84670W        W48229  43.302  15.764   1.357
84671W        W48230  27.982  31.636   9.969
84672W        W48231  11.245  36.957   0.244
84673W        W48232  32.027  23.037   4.680
84674W        W48233   3.371  16.733   3.323
84675W        W48234   7.743  44.010  13.439
84676W        W48235  28.508  35.943  14.398
84677W        W48236  41.906  21.107  12.973
84678W        W48237  34.416  34.533  11.105
84679W        W48238  29.090  27.992  13.848
84680W        W48239  43.509   6.873   0.776
84681W        W48240   0.767  34.091  11.392
84682W        W48241   6.894   1.732  13.882
84683W        W48242  40.933  40.807   0.447
84684W        W48243   2.378   7.344  10.571
84685W        W48244  42.436  14.271   2.256
84686W        W48245   4.288  36.555   0.324
84687W        W48246  28.514  27.473   4.313
84688W        W48247  27.081   9.303   2.268
84689W        W48248  11.721  11.263   0.274
84690W        W48249  33.877  32.488  14.285
84691W        W48250  34.040   8.780   2.855
84692W        W48251  33.947  39.891   3.171
84693W        W48252  29.003  34.403  14.435
84694W        W48253  27.064  18.234  11.429
84695W        W48254   9.802  10.179  14.910
84696W        W48255   6.233  26.031  11.517
84697W        W48256   2.455  16.176  14.417
84698W        W48257   6.841  19.565  12.527
84699W        W48258  18.227  17.720   1.858
84700W        W48259  32.512  28.635   2.374
84701W        W48260  26.608  22.569   3.645
84702W        W48261  11.193  41.039  12.568
84703W        W48262  25.019  31.138  13.807
84704W        W48263  32.449   8.210  14.415
84705W        W48264  11.716  17.266   1.328
84706W        W48265   5.251  13.653   4.242
84707W        W48266   7.795  17.222   2.688
84708W        W48267  22.250  21.080   1.329
84709W        W48268  34.044  27.114  14.770
84710W        W48269  41.871  25.033  12.919
84711W        W48270  21.228  15.641  10.584
84712W        W48271  36.563  15.217  12.058
84713W        W48272  39.832  25.160   4.728
84714W        W48273  43.423  31.097  10.532
84715W        W48274  40.366   2.790  12.420
84716W        W48275   6.388   6.328   1.823
84717W        W48276  34.555  11.860  12.007
84718W        W48277  13.811  41.344   3.300
84719W        W48278  43.930  29.618  13.321
84720W        W48279  13.616  38.072  12.986
84721W        W48280  14.259  43.843  14.782
84722W        W48281   9.651  37.579   1.344
84723W        W48282  35.418  17.688  14.493
84724W        W48283  16.813  38.030  11.531
84725W        W48284  35.520  21.673  12.559
84726W        W48285  36.965  31.505   4.728
84727W        W48286  42.360  16.756   0.386
84728W        W48287  23.172  10.354   0.935
84729W        W48288   4.710  38.919  10.477
84730W        W48289  21.099  11.294  11.483
84731W        W48290  44.495   5.843  10.987
84732W        W48291  31.047  28.088   3.178
84733W        W48292  31.493  17.792  13.960
84734W        W48293  15.757  22.657  13.483
84735W        W48294  35.573  42.869   1.877
84736W        W48295   8.397  43.415  10.925
84737W        W48296  21.160   3.751   0.859
84738W        W48297  21.719  36.448   3.361
84739W        W48298  39.456  27.577   1.359
84740W        W48299  34.400  44.275   2.300
84741W        W48300  44.813  34.473  11.462
84742W        W48301   1.733  12.274  10.954
84743W        W48302  14.811  31.926  11.040
84744W        W48303  39.431   4.860   3.869
84745W        W48304  15.296  40.895  10.960
84746W        W48305   2.375  27.145  14.859
84747W        W48306  10.235   4.886   0.834
84748W        W48307   1.927  13.301   2.775
84749W        W48308  42.471   3.285  13.365
84750W        W48309  37.477  43.494  10.993
84751W        W48310   3.267  36.573   5.122
84752W        W48311  32.970   9.742   0.420
84753W        W48312  28.528  24.605   2.820
84754W        W48313  36.867  15.294  12.963
84755W        W48314   8.178  13.236   2.372
84756W        W48315  42.503  26.044   1.417
84757W        W48316  20.068  13.227  12.843
84758W        W48317   4.863  31.565  10.421
84759W        W48318  36.937  21.561   0.822
84760W        W48319  34.926  11.650   0.738
84761W        W48320  14.804   7.710  13.887
84762W        W48321  24.124  31.953   0.759
84763W        W48322  14.177  31.946  13.882
84764W        W48323  14.598  14.787   0.356
84765W        W48324  15.687  37.919  12.579
84766W        W48325  27.989  18.271  11.439
84767W        W48326  12.121  41.429   3.861
84768W        W48327   2.365  35.866   4.161
84769W        W48328  36.883  31.990   5.738
84770W        W48329  39.480  37.446   2.882
84771W        W48330  16.768  23.199  10.068
84772W        W48331  30.113  30.930  14.996
84773W        W48332  40.364   0.272  14.779
84774W        W48333   3.903   9.847   1.387
84775W        W48334  26.183  41.371  11.030
84776W        W48335  28.993   6.706   2.369
84777W        W48336  33.483  43.804   0.268
84778W        W48337  23.985  34.407  10.553
84779W        W48338   9.150  27.623  12.909
84780W        W48339  20.253  25.152  14.785
84781W        W48340  26.026  24.187  13.830
84782W        W48341  44.974  33.573   4.627
84783W        W48342  20.756  30.433   0.418
84784W        W48343  38.925  24.061   3.775
84785W        W48344  23.143  30.086  14.970
84786W        W48345  17.246  27.989  11.128
84787W        W48346  10.233  26.463   4.273
84788W        W48347  19.225  30.031  11.977
84789W        W48348  40.324   5.200   0.477
84790W        W48349   1.407   9.795   3.734
84791W        W48350  30.022  11.145  12.502
84792W        W48351  16.600  40.302  13.536
84793W        W48352   9.353  16.288  10.420
84794W        W48353  30.093  16.184  14.829
84795W        W48354  21.070  27.615   2.273
84796W        W48355   2.879  30.492  12.518
84797W        W48356   2.316  37.390  12.930
84798W        W48357   2.819   9.346   3.374
84799W        W48358   7.819  38.941  13.433
84800W        W48359  29.474  29.128  13.445
84801W        W48360  40.822  23.498   3.209
84802W        W48361  37.450  28.147  14.925
84803W        W48362  38.018  39.028  14.454
84804W        W48363   1.348  44.498  13.040
84805W        W48364  14.293  14.202   3.296
84806W        W48365  24.158  44.409   4.692
84807W        W48366   2.227  38.478   4.159
84808W        W48367  35.862  27.069  13.966
84809W        W48368  20.044  16.617  14.402
84810W        W48369   6.214   5.406   2.816
84811W        W48370  42.849   7.389   1.447
84812W        W48371  40.023  27.534  10.530
84813W        W48372   9.660  27.126  12.448
84814W        W48373  19.111   5.240   3.213
84815W        W48374  19.266  36.468   4.711
84816W        W48375  25.029  22.021   4.193
84817W        W48376  35.853  25.126   0.295
84818W        W48377  19.739  12.294  14.376
84819W        W48378   2.762   7.231   1.413
84820W        W48379  37.927  30.634  11.611
84821W        W48380  23.523  44.930   3.349
84822W        W48381  37.390  16.580  11.007
84823W        W48382  24.170  43.845  11.514
84824W        W48383  14.303  34.930  12.936
84825W        W48384  18.146  19.122   4.606
84826W        W48385   4.737  12.714   2.709
84827W        W48386  32.031   7.755   3.773
84828W        W48387  34.572  14.108  10.913
84829W        W48388  29.947  39.881  12.864
84830W        W48389  25.631  40.007  12.851
84831W        W48390  22.205  14.331  11.005
84832W        W48391  12.678  27.463   1.292
84833W        W48392  34.076  14.680   1.793
84834W        W48393  23.094  11.149  11.593
84835W        W48394   9.807  30.546   0.796
84836W        W48395  17.738   1.812   3.771
84837W        W48396  16.265  10.858  14.767
84838W        W48397  24.106  20.648   4.810
84839W        W48398  41.866  28.600  12.348
84840W        W48399  37.918  22.148  12.030
84841W        W48400   6.355  28.501  12.088
84842W        W48401  18.067  31.425   1.406
84843W        W48402  14.312  36.535   2.772
84844W        W48403  40.843  19.114   2.698
84845W        W48404   7.800  38.898  10.596
84846W        W48405  38.457  20.168  12.947
84847W        W48406  31.046  40.806  10.518
84848W        W48407  25.990  27.572  13.840
84849W        W48408  22.030  16.214   1.720
84850W        W48409  43.011  37.573   2.223
84851W        W48410  20.119  36.019  13.383
84852W        W48411  32.141  17.146   3.709
84853W        W48412  19.050  25.150  10.497
84854W        W48413   4.298   9.768  14.391
84855W        W48414  35.968  29.531   4.801
84856W        W48415  17.265  42.947   0.475
84857W        W48416  41.399   3.825  14.406
84858W        W48417  12.768  20.673   4.256
84859W        W48418  40.903  13.152   0.911
84860W        W48419  35.997   0.983   1.351
84861W        W48420  23.193  14.294   2.677
84862W        W48421  32.084   0.964   1.255
84863W        W48422  33.092   7.281  14.493
84864W        W48423   7.908  19.067  13.812
84865W        W48424   7.735  15.803  14.818
84866W        W48425   5.431  36.526  13.405
84867W        W48426  20.710  18.167   0.741
84868W        W48427  12.199  39.366  13.419
84869W        W48428  33.969  11.829  11.916
84870W        W48429  14.230  37.578  12.511
84871W        W48430  43.293  19.228   4.688
84872W        W48431  32.089  40.534   2.399
84873W        W48432  24.529  26.034  11.867
84874W        W48433  34.509  34.496  11.868
84875W        W48434  43.274   5.204   0.895
84876W        W48435  25.042  32.636   1.873
84877W        W48436  34.577  11.643  11.549
84878W        W48437  36.376  14.254  11.434
84879W        W48438  39.541  23.054   4.300
84880W        W48439   0.769  18.256  13.438
84881W        W48440  18.732  20.584  12.555
84882W        W48441  42.455  42.408  11.125
84883W        W48442  36.065   3.249  14.014
84884W        W48443  30.109  13.707   1.912
84885W        W48444  25.122  13.682  10.508
84886W        W48445  31.425   7.359   2.880
84887W        W48446   1.468  24.598   4.727
84888W        W48447  33.425  35.959  10.481
84889W        W48448  27.652  22.112   2.273
84890W        W48449  20.687  33.474  12.078
84891W        W48450   9.692   2.418   0.962
84892W        W48451   2.441  39.039   5.163
84893W        W48452   6.389  29.942  14.339
84894W        W48453  15.157  19.108   2.375
84895W        W48454  14.266  12.139  11.964
84896W        W48455   5.328  43.397   0.394
84897W        W48456  38.516   2.847  10.403
84898W        W48457   3.732  33.402  13.823
84899W        W48458  14.671  34.027   3.216
84900W        W48459  40.903  44.798   2.236
84901W        W48460  37.970  43.284   4.178
84902W        W48461  11.649  35.041  11.884
84903W        W48462  42.514   2.460  13.053
84904W        W48463  36.380   6.683   2.335
84905W        W48464  33.408   4.341  10.099
84906W        W48465  33.886  24.062  11.486
84907W        W48466   2.855  37.973  14.784
84908W        W48467  14.756   4.815   1.830
84909W        W48468  10.735  11.219  12.095
84910W        W48469  12.325  42.993   2.213
84911W        W48470  22.541   0.838   1.840
84912W        W48471  20.567  17.268   1.728
84913W        W48472  11.865  34.093   3.326
84914W        W48473  31.486  43.941   3.755
84915W        W48474  36.438  29.081  11.378
84916W        W48475   4.827  27.654  10.906
84917W        W48476  22.059  21.706   1.370
84918W        W48477   5.920  14.617  10.608
84919W        W48478   8.365  33.513   3.302
84920W        W48479   5.833  43.869  14.014
84921W        W48480  21.731   6.280  10.027
84922W        W48481   3.364  12.140  11.077
84923W        W48482  11.796   4.418  14.307
84924W        W48483  23.193  41.351  12.901
84925W        W48484  41.786  43.979  14.958
84926W        W48485  14.818  34.004  12.452
84927W        W48486  24.678  38.917  12.950
84928W        W48487  11.775  30.500  11.460
84929W        W48488  20.236  10.272   3.678
84930W        W48489  11.640  16.266  12.406
84931W        W48490   6.707  11.170   1.351
84932W        W48491  17.772  27.975  13.516
84933W        W48492  40.355  26.044   3.156
84934W        W48493  40.891  33.073   3.196
84935W        W48494  23.573  11.683  14.789
84936W        W48495   0.810  14.286  11.414
84937W        W48496  21.236  27.001  12.961
84938W        W48497  25.163  23.674  11.407
84939W        W48498  42.394  39.336   2.700
84940W        W48499  40.363  25.594   0.965
84941W        W48500  21.188  34.541  12.564
84942W        W48501  30.978  35.868   1.450
84943W        W48502  25.026  15.328   4.690
84944W        W48503  21.201   3.354  11.590
84945W        W48504  12.777  34.931  14.500
84946W        W48505  38.381  27.167   0.310
84947W        W48506  19.280  17.195   3.657
84948W        W48507  18.177  44.335  10.414
84949W        W48508  29.057  25.111  10.481
84950W        W48509  25.183  19.244   1.855
84951W        W48510  41.823  36.859   3.197
84952W        W48511  20.634  38.980  11.104
84953W        W48512   9.160  36.029  11.091
84954W        W48513  33.969  38.936   5.084
84955W        W48514  24.029  12.152  13.401
84956W        W48515  13.765  42.448  10.603
84957W        W48516  30.932  15.729  12.840
84958W        W48517  14.787  19.184  10.485
84959W        W48518  28.950  11.329   1.424
84960W        W48519  14.220   3.334  13.498
84961W        W48520   6.687   5.729   2.805
84962W        W48521  10.372  42.458   0.386
84963W        W48522   5.795   8.823  10.474
84964W        W48523  19.103  13.260  10.907
84965W        W48524  28.644  12.620   4.780
84966W        W48525  19.209  39.972  11.992
84967W        W48526  39.025  32.525   2.419
84968W        W48527  31.451  33.056  14.879
84969W        W48528  14.796  22.059   4.821
84970W        W48529  38.387  41.345  10.979
84971W        W48530  35.954  26.061   3.631
84972W        W48531  44.905  11.177   0.359
84973W        W48532  25.547  41.848  12.078
84974W        W48533  22.236  34.542  13.468
84975W        W48534  44.373  32.998   4.178
84976W        W48535  42.395  11.677  10.489
84977W        W48536   8.282  19.154   1.782
84978W        W48537  35.446  24.169   2.250
84979W        W48538  31.065  21.597  13.437
84980W        W48539  22.678  13.289   3.762
84981W        W48540  17.626  31.058   3.836
84982W        W48541  10.737  18.591   2.184
84983W        W48542  28.945   7.360   2.353
84984W        W48543  18.205  40.814  11.477
84985W        W48544  31.964  42.984   0.477
84986W        W48545  10.672  16.688  11.400
84987W        W48546  31.411  32.526   2.416
84988W        W48547  41.967   8.370  14.388
84989W        W48548  27.027  31.419  11.989
84990W        W48549  32.012  43.450   0.339
84991W        W48550  22.245   6.415   0.930
84992W        W48551   5.407   8.183  11.909
84993W        W48552  27.029  23.188  13.004
84994W        W48553  24.675  21.731   4.198
84995W        W48554  30.077  25.669  14.360
84996W        W48555  22.062   1.239   3.645
84997W        W48556   7.840   0.971  10.962
84998W        W48557   6.239   7.774  12.521
84999W        W48558  38.445  33.463  13.795
85000W        W48559  26.202  18.062   1.798
85001W        W48560  13.787  38.003  13.814
85002W        W48561  35.893   1.968  11.064
85003W        W48562  37.398  25.564   2.705
85004W        W48563  34.567  25.528  11.418
85005W        W48564  29.015  43.282   1.391
85006W        W48565  15.157   2.789   4.668
85007W        W48566  32.085  30.921   5.127
85008W        W48567  36.881   6.415   4.717
85009W        W48568  37.510  11.712   2.839
85010W        W48569  14.229   4.783  11.888
85011W        W48570   0.307  24.553   2.225
85012W        W48571  10.180  26.955   1.754
85013W        W48572  20.259  43.887   3.856
85014W        W48573  32.531  14.329  14.340
85015W        W48574  44.460   1.924   4.652
85016W        W48575  25.026  23.043  10.116
85017W        W48576  34.935  17.720   1.400
85018W        W48577   0.323   0.822  13.826
85019W        W48578  18.580  22.559   4.827
85020W        W48579  19.743  29.131  10.105
85021W        W48580   2.438  23.994  13.322
85022W        W48581  43.432  33.435   3.377
85023W        W48582   6.395  12.320   2.185
85024W        W48583   1.316  28.947  10.428
85025W        W48584  26.181   7.409   2.885
85026W        W48585  36.974  31.406   2.182
85027W        W48586   9.786   2.372  13.312
85028W        W48587  43.789  15.153  12.429
85029W        W48588  10.356  21.530  14.310
85030W        W48589   5.410  22.565   2.684
85031W        W48590   1.755  16.721  14.895
85032W        W48591   7.325  41.827  10.904
85033W        W48592  33.085  33.463  11.451
85034W        W48593  35.384  15.794  13.428
85035W        W48594   8.392   2.875   2.419
85036W        W48595  18.611  15.710  10.144
85037W        W48596  28.021  15.270  12.441
85038W        W48597  31.150  25.694   3.366
85039W        W48598  29.929  32.511   0.280
85040W        W48599  34.961  10.815   3.660
85041W        W48600  20.677  13.740  13.900
85042W        W48601  24.679  35.954  11.558
85043W        W48602   7.322  29.953   0.801
85044W        W48603  38.405  41.476   2.859
85045W        W48604  36.930  19.652   4.316
85046W        W48605  31.123  33.382  12.056
85047W        W48606  13.182   2.955  13.790
85048W        W48607  23.012  11.631   5.213
85049W        W48608  23.114  24.107  14.988
85050W        W48609   5.789  33.540  10.956
85051W        W48610   1.845  43.987  11.920
85052W        W48611  33.121   1.365  12.414
85053W        W48612  19.667   9.201  13.486
85054W        W48613   1.462   0.477  13.859
85055W        W48614  39.410  42.473  12.022
85056W        W48615  13.732  24.556   1.441
85057W        W48616  33.899  37.515  13.346
85058W        W48617  40.869  17.183   1.316
85059W        W48618  10.716  19.622   4.197
85060W        W48619  18.091  38.481   4.674
85061W        W48620  25.155   3.823  13.378
85062W        W48621  12.223  26.691  10.136
85063W        W48622  38.478   2.396   0.275
85064W        W48623  10.155   8.863  11.387
85065W        W48624  32.991  40.050  13.335
85066W        W48625  29.952  27.082   2.329
85067W        W48626  41.880  32.523   3.647
85068W        W48627  17.173  21.711   1.903
85069W        W48628  22.535  31.071  13.487
85070W        W48629  43.469   6.213  12.903
85071W        W48630  17.605  23.624   1.258
85072W        W48631  25.124  33.905   3.283
85073W        W48632  23.717  24.540  11.481
85074W        W48633  40.992  27.089   4.652
85075W        W48634   1.247  23.039   3.652
85076W        W48635  31.600  24.170  12.370
85077W        W48636  39.549  44.443  10.518
85078W        W48637  26.507  20.060   1.743
85079W        W48638  15.276  13.707  14.409
85080W        W48639  41.003  33.478   1.890
85081W        W48640  15.193  28.586  12.487
85082W        W48641   4.888   5.853   0.309
85083W        W48642  32.561  27.512  14.278
85084W        W48643  23.538  29.006   2.677
85085W        W48644  14.708  34.878  11.013
85086W        W48645  40.020  43.368   0.395
85087W        W48646  36.876  24.199  11.467
85088W        W48647  28.646  21.667   1.423
85089W        W48648  44.768  30.519  10.905
85090W        W48649   2.927  18.220   4.666
85091W        W48650  43.797  27.048  12.470
85092W        W48651  32.986  26.959  14.397
85093W        W48652  37.035  37.062  12.356
85094W        W48653  10.139  20.595   1.784
85095W        W48654  37.513  18.205   3.327
85096W        W48655  35.039   4.393  13.391
85097W        W48656  35.899   0.489  14.940
85098W        W48657  43.780  11.211  14.032
85099W        W48658  13.635  42.400   1.258
85100W        W48659  43.401  12.297   1.439
85101W        W48660  27.125  19.238  12.876
85102W        W48661  18.745  25.489   3.701
85103W        W48662  44.470  17.250  11.458
85104W        W48663  30.591  13.203  12.998
85105W        W48664  12.743   9.165   1.390
85106W        W48665  41.321  17.567  10.622
85107W        W48666  31.967  10.721  14.396
85108W        W48667  39.957  21.059   1.252
85109W        W48668   3.798  36.571   1.333
85110W        W48669  18.720  38.929   1.377
85111W        W48670  17.157  37.441   9.930
85112W        W48671  38.921  23.611   1.844
85113W        W48672  29.989   1.396  11.449
85114W        W48673  13.329   0.875   0.255
85115W        W48674  18.249  29.450  11.061
85116W        W48675  18.140   7.860  10.550
85117W        W48676  41.850   9.252  13.931
85118W        W48677   6.911  37.348  11.994
85119W        W48678  36.917  15.221  13.992
85120W        W48679  10.293  39.050  12.983
85121W        W48680  17.177  12.689   4.702
85122W        W48681  26.613   3.236   1.291
85123W        W48682  36.006  28.580   2.416
85124W        W48683   0.392  44.390  14.008
85125W        W48684  35.916  20.642   1.716
85126W        W48685  31.489  11.279   3.207
85127W        W48686  28.157  42.996   3.331
85128W        W48687  18.154  32.057   1.227
85129W        W48688   7.310  29.000   4.804
85130W        W48689  21.216   0.987  13.471
85131W        W48690   0.313  38.009  14.872
85132W        W48691  32.435  13.327  11.422
85133W        W48692  22.718  40.485  14.903
85134W        W48693  25.588   3.432  13.969
85135W        W48694  11.162  38.544  10.505
85136W        W48695  39.350  36.353  11.877
85137W        W48696  22.098  25.509   1.764
85138W        W48697  42.811   1.807  14.857
85139W        W48698  13.646  25.690  12.925
85140W        W48699  36.552   9.868  11.960
85141W        W48700  44.924  36.546   4.258
85142W        W48701  32.090  21.689   2.366
85143W        W48702  34.877  33.988   3.640
85144W        W48703   8.319  25.972  10.525
85145W        W48704  18.055  22.670   1.340
85146W        W48705   7.706  17.234   2.284
85147W        W48706  16.230   7.400   4.786
85148W        W48707  28.477   0.938   4.685
85149W        W48708  29.936  14.256   1.337
85150W        W48709   2.413  29.427   1.390
85151W        W48710  13.647  35.947   4.697
85152W        W48711  42.491   9.381  14.997
85153W        W48712  39.037  15.305   3.386
85154W        W48713  13.778  29.090  13.356
85155W        W48714  27.454  33.045  11.405
85156W        W48715  13.798  30.568  10.464
85157W        W48716  44.431   6.696  14.503
85158W        W48717   6.839  16.730   3.173
85159W        W48718  43.778  21.110   0.328
85160W        W48719  44.500  14.283   4.337
85161W        W48720  27.163   3.923  13.343
85162W        W48721   6.372  18.776  12.840
85163W        W48722  15.787   5.900  13.474
85164W        W48723  33.576  44.317   0.936
85165W        W48724   3.444  26.698  11.541
85166W        W48725  12.646  26.138  12.903
85167W        W48726   7.231  34.402   0.440
85168W        W48727  41.852  24.002   1.835
85169W        W48728  37.401  18.555   1.247
85170W        W48729  15.747  11.263  12.944
85171W        W48730  24.584  12.263  11.024
85172W        W48731  16.229   5.743   3.823
85173W        W48732  34.993   9.857   4.182
85174W        W48733  32.587  43.451   0.383
85175W        W48734   3.359  16.803   3.774
85176W        W48735  26.483   5.726   9.931
85177W        W48736   5.423   4.790  12.365
85178W        W48737  15.807  17.183  14.972
85179W        W48738  40.875  41.487  10.435
85180W        W48739  27.988  24.602   1.932
85181W        W48740  20.722  15.662  13.403
85182W        W48741   3.796   5.724   3.690
85183W        W48742  33.623  33.953  12.508
85184W        W48743  42.461   1.355  10.539
85185W        W48744  44.758  37.972   2.313
85186W        W48745  32.086  19.234  13.461
85187W        W48746  33.915  31.581   0.884
85188W        W48747   1.794   6.349  10.502
85189W        W48748  31.519   7.403  12.925
85190W        W48749   9.698  28.455  14.417
85191W        W48750  38.363  35.434   2.763
85192W        W48751  41.518   7.788   2.402
85193W        W48752  10.638  20.105   4.605
85194W        W48753  41.991  19.655   1.714
85195W        W48754  29.038   3.385   2.280
85196W        W48755  29.449   1.269  13.392
85197W        W48756  43.319  30.962  13.831
85198W        W48757  32.905  30.023  14.014
85199W        W48758   0.809  42.854   1.416
85200W        W48759  27.988  35.020  14.798
85201W        W48760  11.824   9.307   5.098
85202W        W48761   3.776  38.014  10.953
85203W        W48762   9.280  44.348   1.887
85204W        W48763  27.961  11.759   3.240
85205W        W48764  28.648  12.277   3.678
85206W        W48765  38.875  37.526   1.218
85207W        W48766  32.951  39.825   1.736
85208W        W48767  29.951   5.226   4.134
85209W        W48768  41.389  16.567  10.574
85210W        W48769  41.958  34.612  12.408
85211W        W48770  13.649   4.396  12.046
85212W        W48771  40.960  38.970  13.519
85213W        W48772  10.720  42.373   1.340
85214W        W48773  27.529  35.429   0.285
85215W        W48774  16.702   4.225   3.806
85216W        W48775  31.543   9.865   0.452
85217W        W48776  23.101  15.218  14.420
85218W        W48777  39.035  39.393  11.529
85219W        W48778  20.224  31.594  10.922
85220W        W48779  18.786  16.766  14.806
85221W        W48780  11.129  15.319   4.258
85222W        W48781  33.412  31.093  12.344
85223W        W48782  27.634  33.426  10.525
85224W        W48783   4.717   6.183   1.286
85225W        W48784  43.414  15.581  12.832
85226W        W48785  36.039  25.692   4.226
85227W        W48786  34.086  12.654   1.894
85228W        W48787  23.588  20.688   3.159
85229W        W48788  29.103   7.894   4.632
85230W        W48789  37.561  31.008   0.401
85231W        W48790   0.464  29.165   0.901
85232W        W48791  27.157  28.511  10.450
85233W        W48792  27.678  19.595   1.889
85234W        W48793  15.618  14.775   1.364
85235W        W48794  30.493   8.362   1.323
85236W        W48795  25.688   8.301   1.864
85237W        W48796  43.901  38.028  14.974
85238W        W48797   2.794  33.579  12.566
85239W        W48798   3.411  32.064   2.792
85240W        W48799   6.770   8.239   3.712
85241W        W48800   4.817  19.107   3.807
85242W        W48801   5.847  33.496   2.737
85243W        W48802  12.802   3.320  13.543
85244W        W48803  17.210   5.840   4.791
85245W        W48804  16.730  25.063   4.734
85246W        W48805  14.627  11.671  11.110
85247W        W48806   3.246   9.847   3.170
85248W        W48807   5.798  13.602   4.784
85249W        W48808  28.024  36.940  11.963
85250W        W48809  24.617  41.444   1.868
85251W        W48810   2.785   0.987   0.443
85252W        W48811   2.335  19.587   0.840
85253W        W48812  30.040  13.788  11.428
85254W        W48813  43.785  39.533  13.503
85255W        W48814  12.273  30.646  12.348
85256W        W48815  21.226   6.280  11.037
85257W        W48816  23.556  13.753   4.652
85258W        W48817  17.176  27.072   4.146
85259W        W48818   5.326  28.982  13.924
85260W        W48819  14.096   7.274   4.183
85261W        W48820   3.849  27.679   1.266
85262W        W48821   8.675  23.155   4.633
85263W        W48822  11.151  40.514  10.920
85264W        W48823  32.624   5.433  12.579
85265W        W48824   5.270  44.889  14.792
85266W        W48825  43.358   8.886   0.830
85267W        W48826  35.521  25.189   2.797
85268W        W48827  30.108   4.796   1.836
85269W        W48828  27.187  41.372   2.212
85270W        W48829  41.809  41.805  11.062
85271W        W48830   2.965  38.358   1.315
85272W        W48831  31.898  39.375  13.971
85273W        W48832  29.936  38.341   0.407
85274W        W48833  27.447  18.654   1.762
85275W        W48834  34.897  41.305  11.933
85276W        W48835  38.507   9.301   2.362
85277W        W48836  29.157   3.234  10.590
85278W        W48837  35.603  10.872   1.361
85279W        W48838  39.938  17.147   1.754
85280W        W48839  15.295   8.799   1.447
85281W        W48840  27.627  33.965  12.876
85282W        W48841  13.766  42.350   2.401
85283W        W48842  36.455  14.719  11.437
85284W        W48843  13.257  34.106   5.106
85285W        W48844   3.777  30.074   1.768
85286W        W48845   7.860  23.067  12.973
85287W        W48846   4.935   3.745   4.149
85288W        W48847   4.858   0.940   2.882
85289W        W48848  11.298   0.815   4.810
85290W        W48849  11.673  43.872   0.344
85291W        W48850  37.367  40.918  11.471
85292W        W48851   5.361  40.855  13.927
85293W        W48852  32.573  42.300   3.180
85294W        W48853  28.513  23.628   4.682
85295W        W48854  25.070   9.651   9.578
85296W        W48855  13.110  38.916   4.266
85297W        W48856  19.223  21.668  11.594
85298W        W48857  41.295  26.469  13.841
85299W        W48858  44.415  41.439   4.716
85300W        W48859   3.866  12.276   2.253
85301W        W48860  19.689  30.006   2.870
85302W        W48861  32.974  43.514  13.361
85303W        W48862  37.474  38.064  13.023
85304W        W48863  41.025   7.367   3.707
85305W        W48864  28.063  38.495   0.775
85306W        W48865  35.041   3.309  12.362
85307W        W48866   7.314  25.497  12.367
85308W        W48867   9.226   6.843   2.279
85309W        W48868  11.233  12.770  12.867
85310W        W48869  42.811  15.282   1.264
85311W        W48870  29.098  14.314  12.079
85312W        W48871   8.713  35.563  11.473
85313W        W48872  35.031  19.072   2.674
85314W        W48873  12.147  17.247   1.223
85315W        W48874  19.735  37.846  10.630
85316W        W48875  34.373   7.200   1.880
85317W        W48876  12.203  43.848  13.060
85318W        W48877   3.371  42.440  11.517
85319W        W48878  29.076  11.692   4.141
85320W        W48879  41.520  32.589   4.116
85321W        W48880  32.892  38.544  14.920
85322W        W48881   1.941  16.216  11.033
85323W        W48882   7.393   0.280   3.707
85324W        W48883  17.145  29.084  12.460
85325W        W48884   9.643  41.949   3.340
85326W        W48885  37.347  38.507  12.913
85327W        W48886   7.665  38.424  13.318
85328W        W48887   7.831  37.368   1.397
85329W        W48888  42.987   7.403   4.694
85330W        W48889   2.930  29.072   0.874
85331W        W48890  30.517   8.233  12.539
85332W        W48891  24.172  33.529   3.661
85333W        W48892  42.981  39.961  13.028
85334W        W48893   5.390   6.885   4.811
85335W        W48894  14.140   2.257   0.932
85336W        W48895  35.389  29.553  12.438
85337W        W48896  30.001  39.965  14.350
85338W        W48897  42.375  42.783  13.036
85339W        W48898  20.714  26.205  13.944
85340W        W48899  19.042  24.501   2.318
85341W        W48900  25.586   5.386   0.826
85342W        W48901  13.638  31.536   1.393
85343W        W48902   6.385  39.862  14.910
85344W        W48903  17.218  12.662  12.920
85345W        W48904  35.394  11.236  14.336
85346W        W48905  11.369  29.123   2.309
85347W        W48906  14.718  34.537   2.766
85348W        W48907   1.858  14.813   4.194
85349W        W48908  34.892  37.955   1.228
85350W        W48909  28.642  24.040  11.387
85351W        W48910  26.183  37.865   0.319
85352W        W48911   5.753   7.406   3.769
85353W        W48912   9.764  30.064  11.869
85354W        W48913  40.413  17.731  12.549
85355W        W48914  30.541  17.620  11.552
85356W        W48915  43.835  35.085   0.956
85357W        W48916  20.061  16.625  14.006
85358W        W48917  35.604   9.883  11.967
85359W        W48918   6.860  25.000  12.498
85360W        W48919  19.602  25.514   3.223
85361W        W48920   4.425  27.075  11.497
85362W        W48921  13.713  27.510   3.803
85363W        W48922  36.388  12.669   0.389
85364W        W48923  41.396   8.374  14.493
85365W        W48924  18.284  34.370   0.773
85366W        W48925  17.070  43.501  11.973
85367W        W48926  21.037   0.321   0.847
85368W        W48927  22.195  40.372   3.827
85369W        W48928   8.900  22.107  13.839
85370W        W48929  30.462  10.236   0.808
85371W        W48930  42.796  22.612  12.060
85372W        W48931  40.003  33.097  12.539
85373W        W48932  24.504  27.132  14.338
85374W        W48933  25.983  36.368   2.673
85375W        W48934  14.313  15.628   1.347
85376W        W48935  16.241  14.693  10.457
85377W        W48936  35.362  19.547  13.818
85378W        W48937   3.715  33.499   2.407
85379W        W48938  29.642  19.579  11.024
85380W        W48939   4.232  10.675   4.613
85381W        W48940  36.942  12.814   1.850
85382W        W48941   6.844   3.370   3.325
85383W        W48942  28.449   2.391  14.298
85384W        W48943  30.122   3.325   5.219
85385W        W48944  14.176   8.336   0.930
85386W        W48945  29.131  34.391  11.495
85387W        W48946  24.490  14.108   1.816
85388W        W48947  44.769   3.310   4.658
85389W        W48948  16.101  38.352  11.539
85390W        W48949  19.588  29.472   2.852
85391W        W48950   6.405  36.023  14.475
85392W        W48951  35.385  43.951   3.846
85393W        W48952  30.964  12.295   4.813
85394W        W48953   6.280   5.800   4.605
85395W        W48954  18.196  20.535   0.332
85396W        W48955  18.663  44.881  12.054
85397W        W48956  15.587   1.394   0.849
85398W        W48957  10.651   7.319  10.607
85399W        W48958  16.632  10.704  10.518
85400W        W48959   4.704  14.189   2.735
85401W        W48960  23.577   0.849   1.725
85402W        W48961  43.370  24.092  13.018
85403W        W48962  21.651  11.726   0.758
85404W        W48963  41.793  39.023  13.037
85405W        W48964  33.572   5.350  13.530
85406W        W48965  14.128  30.504  10.996
85407W        W48966  32.499  27.966   0.729
85408W        W48967  15.684  31.643  12.535
85409W        W48968  32.044   2.882  12.441
85410W        W48969  28.157   1.374   3.223
85411W        W48970  13.715   9.340  14.980
85412W        W48971   5.890  41.940   3.316
85413W        W48972   1.395  41.909   0.336
85414W        W48973  26.633   1.768   0.941
85415W        W48974  14.610  32.123  11.498
85416W        W48975   0.351  39.833   0.748
85417W        W48976   8.320  16.149   3.671
85418W        W48977  42.915  17.625   1.341
85419W        W48978   0.826  23.220  13.939
85420W        W48979  14.770  14.150   1.435
85421W        W48980  16.291  41.382  14.279
85422W        W48981  16.167  43.436   2.847
85423W        W48982  24.586  13.639  10.061
85424W        W48983  19.627  22.589   0.438
85425W        W48984  25.582   9.835  12.490
85426W        W48985  44.326  37.519   2.301
85427W        W48986  10.313   7.218  13.351
85428W        W48987  11.145  10.360  10.596
85429W        W48988   3.438  24.571   0.812
85430W        W48989  13.782  20.199   4.819
85431W        W48990   9.203   1.958  13.828
85432W        W48991  23.185  39.846   1.928
85433W        W48992  22.682  19.166   1.286
85434W        W48993   1.304   6.187   1.869
85435W        W48994  31.472  19.548  10.545
85436W        W48995  24.090  10.814   4.304
85437W        W48996  32.954  28.967   4.218
85438W        W48997   1.860  20.189   1.442
85439W        W48998  40.495   5.367   3.187
85440W        W48999  37.057  44.322   0.837
85441W        W49000  22.008  42.408  12.043
85442W        W49001  33.400  34.974  11.477
85443W        W49002  41.893  44.942   2.825
85444W        W49003  16.575   0.892   2.810
85445W        W49004   6.778  38.919  14.025
85446W        W49005  29.100   8.373   2.688
85447W        W49006   0.831  28.112   2.697
85448W        W49007  15.237  29.637   0.883
85449W        W49008  23.560  28.453   4.205
85450W        W49009  16.269  20.679   2.898
85451W        W49010  27.498  28.644   0.379
85452W        W49011  15.111  34.504  12.539
85453W        W49012  40.374  34.520   4.282
85454W        W49013  22.161   1.812   0.932
85455W        W49014  24.583   2.408   1.931
85456W        W49015  42.506  42.835   3.631
85457W        W49016   8.728  31.582  13.372
85458W        W49017  17.177  41.021  14.884
85459W        W49018  38.413  19.595   0.461
85460W        W49019  28.938  44.882  12.397
85461W        W49020  24.197   2.954   4.346
85462W        W49021   9.361  44.954   0.270
85463W        W49022  42.327  18.711   3.783
85464W        W49023   9.678  29.628   3.647
85465W        W49024  34.404  27.158  13.911
85466W        W49025  12.328   4.252  13.503
85467W        W49026  12.261  21.597   1.899
85468W        W49027   6.706   6.731  14.777
85469W        W49028  27.055  27.623  10.484
85470W        W49029  22.157  12.743   4.832
85471W        W49030  17.296  17.129   3.203
85472W        W49031  27.518  15.106   3.714
85473W        W49032   8.280  14.693   0.940
85474W        W49033   3.788  41.305   3.279
85475W        W49034  39.350  29.450   2.319
85476W        W49035  40.427  22.677  14.437
85477W        W49036  37.411   1.848  11.081
85478W        W49037  10.746   0.319   1.267
85479W        W49038  34.605  29.425   2.181
85480W        W49039  38.918  42.327   3.845
85481W        W49040   6.216  29.491   0.804
85482W        W49041   6.710  43.772  14.339
85483W        W49042   7.407  36.907   3.655
85484W        W49043   7.185  39.049   2.296
85485W        W49044  42.425   6.427   0.448
85486W        W49045  44.287  12.253   3.223
85487W        W49046  31.147  41.867  11.991
85488W        W49047  10.148   1.763   1.830
85489W        W49048   2.232  29.510   2.879
85490W        W49049  17.670  13.724   2.686
85491W        W49050  26.054  40.449   4.150
85492W        W49051  15.745  41.942  10.578
85493W        W49052  16.109  11.143   0.854
85494W        W49053  28.567  19.548  14.797
85495W        W49054  20.740  22.555  13.479
85496W        W49055  14.732   8.669   3.353
85497W        W49056  30.434  31.571  10.416
85498W        W49057  41.901  31.070  11.907
85499W        W49058  11.726   3.795  12.426
85500W        W49059  41.844  12.720  14.412
85501W        W49060  28.961  26.655   0.446
85502W        W49061   3.285  16.570   1.332
85503W        W49062  37.081   4.222   3.207
85504W        W49063   2.392  43.791  13.942
85505W        W49064   0.834   1.864   0.309
85506W        W49065  36.072  35.365  14.428
85507W        W49066  10.295  38.411   0.934
85508W        W49067  19.564  20.622   4.332
85509W        W49068   0.313  18.171  14.405
85510W        W49069  33.051   4.734  11.106
85511W        W49070   2.448   9.309   2.707
85512W        W49071  26.991  29.100   3.325
85513W        W49072  14.640  15.675   2.865
85514W        W49073   7.173   7.357   1.857
85515W        W49074  22.134   0.788   0.310
85516W        W49075   8.876   2.739  14.485
85517W        W49076  28.613  27.595  14.501
85518W        W49077  29.519  16.687  14.871
85519W        W49078  38.041   6.214   2.281
85520W        W49079   2.296   6.819  13.824
85521W        W49080  35.900  19.765  13.371
85522W        W49081  28.475  28.152  12.503
85523W        W49082  27.474  39.316  12.948
85524W        W49083  19.545   0.322  11.971
85525W        W49084  32.911  25.984  13.009
85526W        W49085  36.402  17.615  13.427
85527W        W49086  31.605  31.602  10.494
85528W        W49087  27.589  38.534   1.871
85529W        W49088  36.878   5.436  14.396
85530W        W49089  19.058  20.736  13.964
85531W        W49090  19.104  28.512  11.602
85532W        W49091  36.381  35.460   3.655
85533W        W49092  24.201   1.897  14.282
85534W        W49093  36.908  10.653  13.851
85535W        W49094  31.122   3.285  14.983
85536W        W49095  24.989  38.517   3.838
85537W        W49096  18.101  25.580  13.900
85538W        W49097  20.614  27.573   9.526
85539W        W49098  16.197   4.207  13.985
85540W        W49099  31.922   0.439  11.026
85541W        W49100  43.373   9.372  12.930
85542W        W49101  33.978  36.412  10.522
85543W        W49102  26.005  37.435   1.421
85544W        W49103  42.410  20.122   3.669
85545W        W49104  18.116  34.058   3.758
85546W        W49105  35.406  33.880   0.259
85547W        W49106  10.715  37.374   4.753
85548W        W49107  32.025   3.837  13.431
85549W        W49108  33.435   1.311  11.035
85550W        W49109  16.133   3.939   1.900
85551W        W49110   5.202   1.926  10.454
85552W        W49111  26.639  38.060  11.105
85553W        W49112   4.358  36.584   2.781
85554W        W49113  10.362  21.059  11.588
85555W        W49114  37.430  11.213  13.423
85556W        W49115   4.907  42.866   0.329
85557W        W49116  20.238  30.136  13.977
85558W        W49117  17.657  35.948  11.429
85559W        W49118  26.951  28.573   2.684
85560W        W49119   0.783   4.394  14.782
85561W        W49120  34.383   7.181   4.646
85562W        W49121  11.213  30.490  10.553
85563W        W49122  36.918  30.434  10.530
85564W        W49123  20.633  42.289  13.917
85565W        W49124  16.567  19.160  12.912
85566W        W49125  20.186   7.810  11.981
85567W        W49126  22.658  41.496   0.269
85568W        W49127  36.096   9.204  13.455
85569W        W49128  41.328   6.372  13.397
85570W        W49129   7.758  42.879  13.361
85571W        W49130  31.490  35.917   4.152
85572W        W49131  11.326   4.879   4.250
85573W        W49132  11.730  11.214  13.883
85574W        W49133  30.120  14.603  10.566
85575W        W49134   4.842  22.543   0.421
85576W        W49135  40.980   3.932  14.276
85577W        W49136  11.696  43.870  14.937
85578W        W49137  36.445  37.933  10.999
85579W        W49138   0.795   8.663  10.011
85580W        W49139  22.692   2.955   2.252
85581W        W49140   4.267   6.720  12.939
85582W        W49141  23.731  37.468  12.961
85583W        W49142   3.839  39.335   1.816
85584W        W49143  20.552  24.662   1.827
85585W        W49144  37.514   3.812   4.793
85586W        W49145  28.449  43.941   1.734
85587W        W49146  41.791  22.177  11.412
85588W        W49147  11.358   7.307   0.387
85589W        W49148  44.930   8.318   0.336
85590W        W49149  25.680   2.827   2.741
85591W        W49150  37.969  41.996  13.937
85592W        W49151  38.009  42.006   0.293
85593W        W49152  34.006  21.639   2.813
85594W        W49153  13.161  36.046   2.387
85595W        W49154  25.005  14.694  14.398
85596W        W49155  41.855  36.010  10.598
85597W        W49156  37.050  21.115  10.458
85598W        W49157  14.104  43.864  13.821
85599W        W49158   0.447  20.235   3.783
85600W        W49159   5.291  29.643   1.868
85601W        W49160  39.460   1.910   0.410
85602W        W49161  19.590   8.196  10.482
85603W        W49162  26.595   4.726   1.244
85604W        W49163  37.035  44.802   3.658
85605W        W49164  30.513  32.534   1.736
85606W        W49165  40.976   3.737   3.372
85607W        W49166  21.091   8.291  11.524
85608W        W49167  35.027  33.018  10.951
85609W        W49168  11.749   5.195   1.219
85610W        W49169   6.290  43.462   1.302
85611W        W49170  40.014  17.768   1.338
85612W        W49171  23.160  14.261   2.255
85613W        W49172  27.082  43.848  12.830
85614W        W49173   8.719  31.532  11.965
85615W        W49174  30.939  44.312  10.965
85616W        W49175  43.813  42.900  14.291
85617W        W49176   4.209  34.941   0.839
85618W        W49177   8.235  30.915  11.412
85619W        W49178  42.845  14.339  11.475
85620W        W49179   8.205  28.986  11.049
85621W        W49180  25.202  15.323   0.480
85622W        W49181  14.288  34.455  10.604
85623W        W49182   4.748  15.106   3.360
85624W        W49183  38.369  31.561   1.229
85625W        W49184  10.716  27.947  13.840
85626W        W49185   2.350  36.401  11.596
85627W        W49186  22.192  37.350   1.425
85628W        W49187   6.208  41.394   4.763
85629W        W49188  41.313  23.137   1.721
85630W        W49189  25.545  15.196  12.366
85631W        W49190  20.633   4.833  13.499
85632W        W49191  20.229  39.050  12.068
85633W        W49192  38.354  24.093   1.705
85634W        W49193  34.058  15.235  14.010
85635W        W49194  27.020  14.280  12.508
85636W        W49195  32.476   3.422   4.717
85637W        W49196  26.079  11.182  13.875
85638W        W49197  23.581  25.195  11.938
85639W        W49198   0.944  41.877  13.365
85640W        W49199  12.192  32.465  14.325
85641W        W49200  30.605  13.715   4.739
85642W        W49201   3.950  32.625   0.901
85643W        W49202  29.507  19.542   4.131
85644W        W49203  30.437  41.463  13.984
85645W        W49204  40.548  33.949   2.300
85646W        W49205   9.268  14.813   2.723
85647W        W49206  38.414  34.401  10.015
85648W        W49207  41.987   5.213  14.450
85649W        W49208   4.433  26.133   2.383
85650W        W49209  19.106   3.742   0.786
85651W        W49210  35.986   1.276  10.983
85652W        W49211  15.271   0.927  11.005
85653W        W49212  41.852   8.401  11.467
85654W        W49213  44.999  32.975  14.413
85655W        W49214  27.980   2.809  10.111
85656W        W49215  14.808  37.059  11.857
85657W        W49216  38.061  11.223   2.249
85658W        W49217  41.521  19.569  12.868
85659W        W49218  37.424  28.021   3.690
85660W        W49219  37.374  27.531   4.164
85661W        W49220   0.306  14.186  13.524
85662W        W49221  32.597  42.347  12.007
85663W        W49222  23.193  28.154  12.025
85664W        W49223  10.278  39.016  11.455
85665W        W49224  27.080  36.426  13.483
85666W        W49225   7.175  40.388  13.456
85667W        W49226  16.261  15.116  10.539
85668W        W49227  41.457  44.387  12.856
85669W        W49228  36.353  10.202   3.370
85670W        W49229  13.715  17.096  13.378
85671W        W49230  24.979   1.893   1.233
85672W        W49231   1.325   9.680   0.906
85673W        W49232  43.479  12.681  12.417
85674W        W49233   8.161  43.018   1.797
85675W        W49234  17.151  26.647  10.585
85676W        W49235  37.068   6.349   0.264
85677W        W49236  42.989  32.390   0.891
85678W        W49237  10.700  21.231   1.819
85679W        W49238  43.429  26.201  13.925
85680W        W49239  18.182   7.247  10.542
85681W        W49240   2.343   4.404   3.767
85682W        W49241  42.006  32.088   3.266
85683W        W49242  37.061   2.329   2.271
85684W        W49243  15.755  34.378   3.227
85685W        W49244   3.330  15.201   1.436
85686W        W49245  42.492  15.587   2.786
85687W        W49246  26.997  44.409  10.140
85688W        W49247  25.582  35.899  13.931
85689W        W49248   0.422   2.372   1.851
85690W        W49249  41.474   6.398   1.347
85691W        W49250  17.217  21.253   1.357
85692W        W49251  29.559  25.115  10.553
85693W        W49252  12.840  26.013   1.292
85694W        W49253  29.488  11.312  14.870
85695W        W49254   0.826  37.335  10.951
85696W        W49255  30.586  40.800   0.360
85697W        W49256   8.329  37.960   3.847
85698W        W49257  25.650  41.450   4.141
85699W        W49258  15.642   8.771   2.282
85700W        W49259  32.549  42.854   2.872
85701W        W49260  42.469  41.443   0.243
85702W        W49261  42.474  18.779   0.407
85703W        W49262   0.900  19.755   4.685
85704W        W49263  32.418  28.185   3.345
85705W        W49264  26.639  12.685   1.775
85706W        W49265  37.842  43.898  13.976
85707W        W49266  11.759  38.377   1.367
85708W        W49267   3.817   3.896  14.952
85709W        W49268  18.768  31.125   5.257
85710W        W49269  33.051  33.933  12.500
85711W        W49270  15.244  44.843   3.237
85712W        W49271   6.368  17.655  13.440
85713W        W49272   3.891  28.462  14.312
85714W        W49273   9.291  37.900  12.359
85715W        W49274  21.710  33.060   0.455
85716W        W49275  30.521  32.979   3.186
85717W        W49276  39.040  18.619   1.926
85718W        W49277  24.029  23.713  11.476
85719W        W49278   5.718  21.120  11.031
85720W        W49279   1.298  19.539  11.118
85721W        W49280   1.741  32.442  11.402
85722W        W49281  33.383  41.790  12.516
85723W        W49282   8.735  44.351   1.218
85724W        W49283  43.502  27.065   3.160
85725W        W49284  39.540  43.313  14.997
85726W        W49285  19.129  23.735  14.786
85727W        W49286  40.520  43.788  12.561
85728W        W49287  33.485   0.886  13.407
85729W        W49288  20.542  23.098  10.564
85730W        W49289  43.997  19.104   1.921
85731W        W49290  14.762  13.628  14.973
85732W        W49291  14.105  19.275   3.693
85733W        W49292   4.751  21.747  13.989
85734W        W49293  21.100  40.032   3.156
85735W        W49294  20.625  24.095   2.367
85736W        W49295  20.635  25.007  14.314
85737W        W49296  14.729  25.152  11.395
85738W        W49297  13.304   6.787   4.280
85739W        W49298  42.823  41.479  12.503
85740W        W49299  39.020  25.026   0.935
85741W        W49300   8.753  35.060  13.988
85742W        W49301  23.015  17.602  12.911
85743W        W49302  18.588  25.204  10.003
85744W        W49303  12.720  31.640   4.672
85745W        W49304  10.298  27.684  12.916
85746W        W49305  25.131   0.377  13.997
85747W        W49306  23.070   9.155   1.265
85748W        W49307  29.121   0.954   2.178
85749W        W49308  31.955   3.892   4.238
85750W        W49309  43.339  43.915  14.958
85751W        W49310   2.895  38.464   0.814
85752W        W49311  14.770  13.262   3.690
85753W        W49312  16.793   9.160   1.729
85754W        W49313  42.434  21.661   2.308
85755W        W49314  30.457  23.697  10.534
85756W        W49315  44.367   2.330  10.534
85757W        W49316  30.064  39.889   2.417
85758W        W49317   4.316  43.767   1.354
85759W        W49318  23.574   0.420  13.811
85760W        W49319  19.121  40.040   1.292
85761W        W49320   3.442  36.351   3.246
85762W        W49321  39.828  25.516  13.829
85763W        W49322  10.253   6.184  14.337
85764W        W49323  28.969  16.797  14.764
85765W        W49324   8.262   5.778   3.841
85766W        W49325  38.026  12.788  12.959
85767W        W49326  19.253  31.083  12.355
85768W        W49327  29.091  11.264  10.612
85769W        W49328  29.496  29.448   0.461
85770W        W49329  13.308  28.662   3.750
85771W        W49330  26.070  35.365  14.787
85772W        W49331  35.570   8.195   2.809
85773W        W49332  43.483  26.066   3.379
85774W        W49333  27.615   5.230  10.962
85775W        W49334  33.031  10.316   2.760
85776W        W49335  20.267  21.251   9.974
85777W        W49336  41.014  41.423   3.790
85778W        W49337  24.041  33.920  11.601
85779W        W49338  22.201  36.883  12.975
85780W        W49339   4.336   2.328  13.525
85781W        W49340   2.763  18.295  13.807
85782W        W49341   6.257  41.801  13.822
85783W        W49342  15.668  20.177   1.730
85784W        W49343  39.906  17.103  13.844
85785W        W49344   2.382  39.955  14.484
85786W        W49345  42.468  25.589   3.772
85787W        W49346  35.526  39.340  13.016
85788W        W49347  19.075  35.509   1.340
85789W        W49348  11.718  14.125  13.871
85790W        W49349  13.252  22.065  11.063
85791W        W49350  10.384   9.787   0.807
85792W        W49351  40.978  35.478   1.321
85793W        W49352   1.888  25.215   3.642
85794W        W49353  17.582  13.654  11.511
85795W        W49354  16.119   9.339  14.513
85796W        W49355   9.291  41.312   1.718
85797W        W49356  29.090  12.171  13.523
85798W        W49357   6.680  20.130  14.801
85799W        W49358  22.085  44.869  11.974
85800W        W49359  22.635  26.520   2.715
85801W        W49360  22.617  14.325  10.580
85802W        W49361  31.988   6.383  13.453
85803W        W49362  18.290  25.975  11.586
85804W        W49363  28.175   1.866  11.497
85805W        W49364  16.150  16.131   0.290
85806W        W49365   7.697  37.065  13.504
85807W        W49366  31.979  40.356   4.310
85808W        W49367   7.803  12.212   1.890
85809W        W49368  33.017  42.977   3.709
85810W        W49369   2.918  42.328  10.557
85811W        W49370  18.102  35.403  10.534
85812W        W49371  31.134  38.463  13.910
85813W        W49372  10.259  11.202   2.240
85814W        W49373  20.547  29.023   1.896
85815W        W49374  41.019   8.266   0.338
85816W        W49375   3.843  30.937  13.536
85817W        W49376  22.515   4.837  13.526
85818W        W49377  21.246  26.649  14.331
85819W        W49378  22.087  42.451  12.521
85820W        W49379  10.269   5.251  11.610
85821W        W49380  28.064  15.742  14.350
85822W        W49381  28.568   3.424  13.997
85823W        W49382  11.282  29.092   3.686
85824W        W49383   0.942  43.496   2.842
85825W        W49384  14.264  40.535   1.907
85826W        W49385   9.260  43.342   3.728
85827W        W49386  32.954  29.601  13.320
85828W        W49387  14.696  33.436   2.745
85829W        W49388  11.256   2.291   2.794
85830W        W49389  38.932   6.736  11.975
85831W        W49390  22.726  34.097   1.403
85832W        W49391  21.019  16.680  10.556
85833W        W49392  37.896  15.093  13.309
85834W        W49393  28.595  17.185   1.445
85835W        W49394  16.224  26.696  13.355
85836W        W49395  37.976  14.223   1.230
85837W        W49396  37.558   3.430   4.223
85838W        W49397  21.068  38.026  10.615
85839W        W49398  20.052  13.118  10.617
85840W        W49399  41.922  26.984  14.467
85841W        W49400  18.609  15.240  14.890
85842W        W49401  18.756  33.387   2.280
85843W        W49402  26.684  44.287   0.367
85844W        W49403  35.088  29.576   1.929
85845W        W49404  35.019   9.222  12.419
85846W        W49405  27.622  33.896  13.472
85847W        W49406  31.522  23.533  13.431
85848W        W49407  40.441  14.748   0.957
85849W        W49408  42.281  31.014   2.393
85850W        W49409  12.241  27.493  11.988
85851W        W49410  37.031  42.910   0.372
85852W        W49411   2.783  21.189   3.822
85853W        W49412  29.608  12.302  13.909
85854W        W49413   3.829  10.194  11.064
85855W        W49414   5.767  24.517  14.456
85856W        W49415  15.689  25.975   0.847
85857W        W49416  32.575  42.283   1.422
85858W        W49417  20.629   5.752  14.880
85859W        W49418  21.659  44.463  13.992
85860W        W49419   3.286  33.949  14.320
85861W        W49420   8.333  24.619  12.064
85862W        W49421  16.105  44.314   3.292
85863W        W49422  34.043  31.577  14.394
85864W        W49423  33.436  33.884  14.812
85865W        W49424  21.217   6.892  14.318
85866W        W49425  24.188  29.429  13.397
85867W        W49426  27.567   5.349   4.343
85868W        W49427   5.843  30.510  13.537
85869W        W49428  30.592  42.283   4.342
85870W        W49429  40.499  29.594   3.785
85871W        W49430  24.609  34.052   4.199
85872W        W49431  10.216  19.182   0.823
85873W        W49432  15.203   7.358  10.906
85874W        W49433  24.203  28.051  13.385
85875W        W49434   7.829  11.133   3.210
85876W        W49435  23.050  16.652   0.383
85877W        W49436  10.263  38.377   2.715
85878W        W49437  35.395  15.185  10.634
85879W        W49438  17.587  17.599  11.010
85880W        W49439  37.909  21.214  14.312
85881W        W49440  15.606  17.753   2.745
85882W        W49441  35.000  25.110   5.293
85883W        W49442  14.238  41.403   4.294
85884W        W49443  26.558  34.461  14.479
85885W        W49444  21.049  30.115   1.409
85886W        W49445  22.675   0.945   5.261
85887W        W49446  31.110  12.847   1.231
85888W        W49447  37.380  38.372  14.958
85889W        W49448   4.735  19.141  12.536
85890W        W49449  31.058  29.961  13.917
85891W        W49450  13.180   3.827   4.683
85892W        W49451   9.391  30.147  12.495
85893W        W49452  41.482  31.417   4.346
85894W        W49453   2.376   4.339   4.626
85895W        W49454   0.852   6.247  12.857
85896W        W49455  30.565  16.581  11.036
85897W        W49456   3.264  22.038  11.053
85898W        W49457  17.662  30.644   4.825
85899W        W49458  34.076  31.054   3.347
85900W        W49459  15.623  22.024   0.829
85901W        W49460   0.420  24.136   1.752
85902W        W49461  11.345  11.299  13.827
85903W        W49462  27.112  11.240   0.297
85904W        W49463  28.185  40.424   0.846
85905W        W49464  10.281  18.701   5.312
85906W        W49465  18.164  18.099  12.376
85907W        W49466  31.095  20.192  10.950
85908W        W49467  38.360  10.695   4.271
85909W        W49468  30.097  35.061  11.609
85910W        W49469  26.520  17.767  11.892
85911W        W49470  41.913   9.815   2.895
85912W        W49471  35.094  42.337  13.331
85913W        W49472  13.196  25.058  13.917
85914W        W49473  31.574  17.196  13.946
85915W        W49474   7.744  41.981  13.311
85916W        W49475  30.628   0.445  14.300
85917W        W49476  34.104   9.375  13.516
85918W        W49477  29.490  10.157   5.198
85919W        W49478  18.066  15.099   4.666
85920W        W49479  34.095  22.998  10.598
85921W        W49480   5.305  43.487  11.573
85922W        W49481  30.475  42.017  10.403
85923W        W49482   3.443  37.572  14.768
85924W        W49483  43.820  43.769   0.303
85925W        W49484  42.813  17.601  12.487
85926W        W49485   9.296  18.564  11.406
85927W        W49486   9.234  10.148  10.935
85928W        W49487  14.304  23.006  12.389
85929W        W49488   8.862   7.407  12.855
85930W        W49489  35.105   4.283  10.540
85931W        W49490  30.567  20.171  10.526
85932W        W49491  28.518  33.088  14.426
85933W        W49492  20.122  38.032  11.563
85934W        W49493  32.036   5.831   3.320
85935W        W49494  44.790  20.768  13.814
85936W        W49495  17.668  27.479  13.495
85937W        W49496   1.812  28.964   3.271
85938W        W49497   6.245  37.458  12.910
85939W        W49498  34.082  44.815  14.971
85940W        W49499  22.639   3.780   2.823
85941W        W49500  34.614  44.503   4.266
85942W        W49501   3.953  14.802   1.238
85943W        W49502  37.574  12.668   0.761
85944W        W49503  29.661  33.452  13.827
85945W        W49504  22.076  15.592   0.792
85946W        W49505   0.769  16.598  14.432
85947W        W49506   0.423  38.337   3.180
85948W        W49507  25.564  15.643   1.841
85949W        W49508  37.425   3.243   4.697
85950W        W49509  39.950  10.167   2.773
85951W        W49510  36.856  39.033   1.860
85952W        W49511  30.607  24.623   2.281
85953W        W49512   1.465  28.512  13.365
85954W        W49513  23.550  44.356  11.092
85955W        W49514   2.239   4.344   3.352
85956W        W49515  40.481  31.933   5.145
85957W        W49516  30.115  44.754  13.899
85958W        W49517  17.693   6.360   3.373
85959W        W49518  23.560  19.776  11.540
85960W        W49519  38.906  33.969  14.505
85961W        W49520  41.499  35.087  12.012
85962W        W49521  10.382  29.117   4.121
85963W        W49522  20.670  22.542   3.821
85964W        W49523  26.089   4.747  13.047
85965W        W49524  17.779  18.238   3.721
85966W        W49525  35.039  17.634  14.980
85967W        W49526  12.357  39.809   1.388
85968W        W49527  37.552  24.130  10.456
85969W        W49528  32.633   9.764  11.975
85970W        W49529  42.915  25.495  14.914
85971W        W49530  16.186  29.974   1.407
85972W        W49531  35.089   9.818   3.267
85973W        W49532  13.240  17.130   3.766
85974W        W49533  41.516  32.068   3.343
85975W        W49534  34.966  33.945   3.154
85976W        W49535  15.198   0.764   4.705
85977W        W49536  35.470  16.663   0.262
85978W        W49537   4.703  37.516   0.814
85979W        W49538   1.270  15.776   2.375
85980W        W49539  28.006  44.328   2.738
85981W        W49540  41.009  44.438   0.268
85982W        W49541   2.752  37.574   1.878
85983W        W49542  27.524  36.997   4.686
85984W        W49543   2.882  11.698  11.016
85985W        W49544  18.694   5.302  13.933
85986W        W49545  41.472  38.561  12.444
85987W        W49546  21.580  11.346   1.216
85988W        W49547  20.654   3.797   3.840
85989W        W49548  12.285  12.791   1.299
85990W        W49549  30.015  38.062  14.332
85991W        W49550   0.280  43.318   4.693
85992W        W49551   2.788  18.643   2.340
85993W        W49552  39.019  25.679   1.813
85994W        W49553   6.712   6.411   2.321
85995W        W49554  15.612  22.575   1.418
85996W        W49555   9.292  17.271  10.972
85997W        W49556  38.356  34.605  13.883
85998W        W49557  33.590  16.787  11.549
85999W        W49558  18.268  17.669  13.470
86000W        W49559  13.780  15.592  13.371
86001W        W49560  44.317  32.062   3.367
86002W        W49561   3.283   0.376  12.896
86003W        W49562  17.254   4.895   2.400
86004W        W49563  40.311  27.967  13.914
86005W        W49564  12.190   4.235  10.629
86006W        W49565  24.714  17.087   4.784
86007W        W49566  39.065  41.908  14.971
86008W        W49567   6.196  13.751   3.229
86009W        W49568   7.669  25.138   3.789
86010W        W49569  34.939   2.454   0.907
86011W        W49570  16.587  37.911  10.469
86012W        W49571  25.540  43.773  14.472
86013W        W49572  44.835  39.958  13.860
86014W        W49573  43.920  37.341   3.714
86015W        W49574  32.963  37.500  10.557
86016W        W49575  28.105  11.192  13.313
86017W        W49576  10.821   9.801   3.710
86018W        W49577  24.491  17.687  13.047
86019W        W49578   4.718   6.722  12.416
86020W        W49579   1.890  36.583   0.246
86021W        W49580   8.682   9.801   1.295
86022W        W49581  21.521  15.656  11.909
86023W        W49582  25.127  44.778  14.318
86024W        W49583   3.759  40.933  13.974
86025W        W49584  15.238  31.563   1.931
86026W        W49585  15.175  17.696   4.736
86027W        W49586  35.518  19.225   2.360
86028W        W49587  25.134  20.274   5.170
86029W        W49588  39.892  15.642  11.421
86030W        W49589  17.788  31.611   1.779
86031W        W49590   3.450  25.673  13.477
86032W        W49591  31.938   2.756  11.526
86033W        W49592  39.428  35.890  11.950
86034W        W49593  32.061  37.915   3.747
86035W        W49594  37.085  31.048  10.554
86036W        W49595  27.190  30.581   0.364
86037W        W49596  15.174  38.392  13.917
86038W        W49597  34.588  37.526  10.642
86039W        W49598   0.328  39.323   4.336
86040W        W49599  13.819  34.996  10.406
86041W        W49600  41.801  13.134   1.384
86042W        W49601   1.925   8.316   3.672
86043W        W49602  33.970  20.142  12.003
86044W        W49603  44.890   2.748   1.332
86045W        W49604  17.268  31.428  14.286
86046W        W49605   4.728   2.268   2.268
86047W        W49606  16.804  31.534   2.269
86048W        W49607  20.176  29.474   0.756
86049W        W49608   2.472  25.588   4.663
86050W        W49609   7.224  14.771  11.568
86051W        W49610  25.183  24.138  13.320
86052W        W49611  37.515  19.576   2.210
86053W        W49612  27.528   1.476   3.333
86054W        W49613  17.176  42.917   3.157
86055W        W49614  10.297  33.007  14.426
86056W        W49615   1.371  17.143   2.360
86057W        W49616  10.307  17.240   3.191
86058W        W49617  42.942   0.934   0.403
86059W        W49618   2.842  27.494   0.411
86060W        W49619  42.865  20.731  10.430
86061W        W49620  36.564  25.554   3.780
86062W        W49621  29.657  44.957  13.514
86063W        W49622  37.543  24.096  12.449
86064W        W49623   0.897  10.667   1.284
86065W        W49624  19.076   3.238  14.484
86066W        W49625   5.288  27.030   4.291
86067W        W49626  20.085  41.028  12.000
86068W        W49627  12.774  36.945   1.852
86069W        W49628  40.053  31.022   4.218
86070W        W49629  37.910   4.904   2.342
86071W        W49630  40.803  14.252   0.305
86072W        W49631  12.731  33.882  11.087
86073W        W49632  39.411  10.690   2.797
86074W        W49633  23.544  14.104  14.496
86075W        W49634  22.011  42.299   3.781
86076W        W49635   8.363   9.223   2.736
86077W        W49636   4.423  44.300   3.194
86078W        W49637  10.850  11.707   0.756
86079W        W49638  26.174  33.016   4.318
86080W        W49639  29.472  26.545  12.034
86081W        W49640  19.074  17.277   0.756
86082W        W49641   0.743  40.996   0.464
86083W        W49642   7.909  10.649  13.401
86084W        W49643  13.767  26.011  13.462
86085W        W49644  41.893  17.156   5.140
86086W        W49645  34.413  27.682   0.763
86087W        W49646  20.643  10.347  12.381
86088W        W49647  34.891  30.142   2.386
86089W        W49648  42.976  35.087   2.326
86090W        W49649  39.374  25.176   4.215
86091W        W49650  28.128  36.416  11.910
86092W        W49651   8.193  33.967  12.865
86093W        W49652  30.071  30.582  12.490
86094W        W49653  27.563  31.599  12.413
86095W        W49654  29.085  40.451  11.387
86096W        W49655   0.808  37.943   0.351
86097W        W49656   8.758  34.104  14.458
86098W        W49657  37.345  19.733  12.388
86099W        W49658  29.579   4.734  13.871
86100W        W49659   3.725   3.953  11.052
86101W        W49660   7.833  42.499  12.475
86102W        W49661  42.311  21.585   2.686
86103W        W49662  23.694   7.315   4.286
86104W        W49663  40.798  34.024   2.887
86105W        W49664   0.882  34.974  11.610
86106W        W49665  26.590  15.769  12.943
86107W        W49666  37.554  18.170  14.353
86108W        W49667  25.969  15.758  13.471
86109W        W49668  27.559  13.178  13.327
86110W        W49669  16.690  16.094  12.390
86111W        W49670  38.928   3.432  12.909
86112W        W49671  19.088  31.953  14.943
86113W        W49672   3.945  12.843  12.571
86114W        W49673  35.023  42.443  11.115
86115W        W49674   7.896  34.494   1.900
86116W        W49675  20.626  27.068   2.709
86117W        W49676  21.144  11.151  11.945
86118W        W49677  11.733  29.157   9.938
86119W        W49678  18.257  12.192   4.244
86120W        W49679  31.629  12.173   2.821
86121W        W49680  25.013  31.565   1.805
86122W        W49681  17.610  29.545   0.281
86123W        W49682  17.601  29.431   0.947
86124W        W49683  15.638  11.741   3.702
86125W        W49684  38.481  31.464  13.375
86126W        W49685  35.480  12.270  11.963
86127W        W49686  37.931  38.340   0.468
86128W        W49687  41.417  11.306  12.978
86129W        W49688  32.530  40.536  13.321
86130W        W49689   1.319  11.266   4.788
86131W        W49690  25.485   8.658   5.790
86132W        W49691  12.659  16.617   2.336
86133W        W49692  26.155   6.236  14.931
86134W        W49693  22.108  26.177   2.708
86135W        W49694   5.732  43.293  14.843
86136W        W49695  25.474  37.989   2.402
86137W        W49696   9.311   8.179   0.265
86138W        W49697  20.595   9.725  14.966
86139W        W49698   1.455  37.539   1.317
86140W        W49699  15.083  21.545  14.767
86141W        W49700  40.430  36.922   4.180
86142W        W49701  41.041  13.244  11.595
86143W        W49702  44.874  33.512   0.936
86144W        W49703  33.408  38.545  10.138
86145W        W49704  29.073   7.328  11.451
86146W        W49705  17.178   1.312   1.286
86147W        W49706  19.191  14.314  10.889
86148W        W49707  43.419  32.514   4.659
86149W        W49708  23.735  39.899  14.366
86150W        W49709  29.494   8.835  13.531
86151W        W49710  44.414  38.968   2.321
86152W        W49711  17.195  24.569   1.308
86153W        W49712  14.222   3.270   9.996
86154W        W49713   1.436  31.902   0.305
86155W        W49714  32.537  15.290  11.910
86156W        W49715  36.031  24.513  13.962
86157W        W49716  25.162  30.587  12.460
86158W        W49717  17.117  10.149   0.364
86159W        W49718  21.661  21.737  11.956
86160W        W49719   8.277  36.938   1.351
86161W        W49720   2.261  39.556   4.689
86162W        W49721  43.935   8.233  13.488
86163W        W49722  25.681  44.805   0.865
86164W        W49723  21.145  27.512   3.382
86165W        W49724  31.132   4.272   4.280
86166W        W49725  29.580  38.444  12.844
86167W        W49726  21.633  32.620   4.257
86168W        W49727  41.366   1.885  12.047
86169W        W49728  29.043  31.569  11.876
86170W        W49729  36.523   2.241   1.430
86171W        W49730  43.297  13.636  14.329
86172W        W49731  37.446  35.005  13.544
86173W        W49732  37.352  38.905  14.395
86174W        W49733  29.019  38.864  10.492
86175W        W49734  16.726  39.008   1.297
86176W        W49735   6.311   1.829   4.798
86177W        W49736  26.959  11.660   2.398
86178W        W49737   2.464  37.416   0.745
86179W        W49738   4.708  12.701  14.858
86180W        W49739  35.084  12.273   4.341
86181W        W49740  16.269   8.785  13.544
86182W        W49741  41.825  43.852  11.489
86183W        W49742   7.760  10.797   3.244
86184W        W49743   5.294  20.733   3.350
86185W        W49744  33.578  13.161  12.426
86186W        W49745  43.800  19.215  12.459
86187W        W49746  11.861  24.220   1.349
86188W        W49747  18.780  24.575  11.103
86189W        W49748  19.750   6.306  13.993
86190W        W49749  19.143  13.279  14.486
86191W        W49750  29.491  34.568  13.062
86192W        W49751  18.227  22.234  12.941
86193W        W49752  17.284  12.779  14.411
86194W        W49753  15.258  14.113  12.962
86195W        W49754  44.990  41.481  14.797
86196W        W49755  35.922  35.104   2.316
86197W        W49756   8.389   3.397  14.771
86198W        W49757   1.849   8.761  13.840
86199W        W49758  10.374  27.984   0.252
86200W        W49759  12.133  39.374   3.867
86201W        W49760  23.150  19.596  12.365
86202W        W49761  16.647   6.712  11.463
86203W        W49762   4.749  42.945  10.111
86204W        W49763  37.038   7.767  12.919
86205W        W49764   2.460  37.459  13.856
86206W        W49765  19.741  21.656  11.010
86207W        W49766   2.289   5.223   2.313
86208W        W49767  33.118  38.887  12.010
86209W        W49768  39.492  24.086   1.417
86210W        W49769  35.919   5.797   4.139
86211W        W49770  12.226  38.486  13.437
86212W        W49771   8.201   1.842  10.982
86213W        W49772  25.058   5.805   0.809
86214W        W49773  10.322  11.781  10.419
86215W        W49774  14.798  30.982   0.338
86216W        W49775  19.081  36.363  12.977
86217W        W49776  27.579  27.152  10.622
86218W        W49777  27.115  39.023   2.201
86219W        W49778   1.465  36.994   4.280
86220W        W49779  19.251  30.659   2.702
86221W        W49780  31.402   6.219   3.206
86222W        W49781   6.413   1.755   4.133
86223W        W49782  19.091  44.780  12.978
86224W        W49783  36.053  20.182  12.545
86225W        W49784   5.812  13.765   1.265
86226W        W49785  39.815  21.054  11.859
86227W        W49786   9.829  35.034  13.383
86228W        W49787  26.644   1.919  13.308
86229W        W49788  12.159  12.308   2.304
86230W        W49789  15.739  24.674   2.257
86231W        W49790  19.242  21.690  13.818
86232W        W49791  22.587   3.366   3.782
86233W        W49792  38.996  37.988  11.399
86234W        W49793   3.252   7.373   1.253
86235W        W49794  44.334  14.764   0.754
86236W        W49795   7.858  35.946  11.387
86237W        W49796  12.759  17.198   3.347
86238W        W49797   9.808  11.226  13.494
86239W        W49798  16.243  31.913   4.243
86240W        W49799  38.980   4.344  12.473
86241W        W49800  41.501  31.937   3.870
86242W        W49801  16.681   2.724   4.639
86243W        W49802  15.817  33.013  12.879
86244W        W49803  39.359  28.143   0.471
86245W        W49804  12.183  17.663  12.956
86246W        W49805   0.755  13.255  14.796
86247W        W49806   3.399  24.633   4.629
86248W        W49807  10.205  27.527  12.428
86249W        W49808  34.953  25.017  14.913
86250W        W49809  14.312  16.240  13.358
86251W        W49810   9.659  37.994   4.613
86252W        W49811  11.154  13.247  14.943
86253W        W49812  22.245  24.189  14.978
86254W        W49813  43.805  32.077  12.040
86255W        W49814   6.378  22.717  14.496
86256W        W49815  30.006  10.381   0.936
86257W        W49816  40.514  37.503   2.411
86258W        W49817  19.262  29.555  13.027
86259W        W49818   3.948   2.284  14.449
86260W        W49819  39.546  39.551   2.741
86261W        W49820  36.051  29.925   4.674
86262W        W49821   0.385  35.532  14.018
86263W        W49822  40.457  36.401  12.957
86264W        W49823  32.140   2.252  12.420
86265W        W49824  26.181  16.184   4.206
86266W        W49825   9.273  38.047  13.338
86267W        W49826   9.369  26.152   0.923
86268W        W49827   2.898   3.714   2.345
86269W        W49828  42.925  19.049  13.525
86270W        W49829  40.943  24.559  12.550
86271W        W49830  34.882  24.000   3.154
86272W        W49831   5.421  19.042  11.073
86273W        W49832  36.955  15.744   2.894
86274W        W49833  33.997  13.109  14.319
86275W        W49834   7.397  19.682  10.484
86276W        W49835  17.566   1.353  11.019
86277W        W49836  28.592  14.776   0.319
86278W        W49837  41.503   1.401   2.833
86279W        W49838  27.005  32.404  11.489
86280W        W49839  24.588  34.519  14.326
86281W        W49840  12.770   8.841   3.840
86282W        W49841  44.412  12.164   2.337
86283W        W49842  34.904   0.463  13.850
86284W        W49843  14.311  25.557  10.057
86285W        W49844  17.722  14.796  14.462
86286W        W49845  25.175   0.330  11.563
86287W        W49846  15.284  37.402   3.210
86288W        W49847  35.378  42.353   0.401
86289W        W49848   0.313  37.531  12.429
86290W        W49849   4.430   7.868  13.931
86291W        W49850  20.075  31.027   5.138
86292W        W49851   5.329  23.568  13.845
86293W        W49852  15.197  42.791   1.274
86294W        W49853  40.846   9.216  12.048
86295W        W49854   0.277  40.537  14.790
86296W        W49855  42.314  43.768   1.223
86297W        W49856  17.645  15.629   0.851
86298W        W49857  41.885  28.097  10.138
86299W        W49858  18.146   4.788   2.681
86300W        W49859  19.624   4.328  10.638
86301W        W49860  13.124  26.091  14.002
86302W        W49861  35.508  12.309   5.656
86303W        W49862  20.266  43.463  14.350
86304W        W49863  11.656  37.960  10.537
86305W        W49864  10.254  23.551   0.348
86306W        W49865  44.819  37.011  12.033
86307W        W49866  42.475  25.147  14.341
86308W        W49867  38.872  32.516  12.411
86309W        W49868   7.249  24.977  14.882
86310W        W49869  14.143  11.791   0.474
86311W        W49870  15.196  24.561  11.896
86312W        W49871   1.408   6.708  11.423
86313W        W49872  42.331  16.154  14.501
86314W        W49873   2.753  34.049   4.740
86315W        W49874  10.143  24.169   1.331
86316W        W49875  22.650  36.049  13.896
86317W        W49876  19.754  35.886   3.669
86318W        W49877  34.577  39.933   2.852
86319W        W49878   2.240  28.112   2.885
86320W        W49879  38.834  41.026  12.993
86321W        W49880  37.391  25.161  13.959
86322W        W49881   5.790  17.709   1.847
86323W        W49882   5.293  37.862  14.482
86324W        W49883  26.663  41.439  11.419
86325W        W49884  43.480  32.429   1.816
86326W        W49885  29.964  38.858   0.449
86327W        W49886  34.874  21.512  11.896
86328W        W49887  44.449  16.184   0.328
86329W        W49888  24.124  31.064  13.324
86330W        W49889  28.085  22.553  13.950
86331W        W49890  27.043   0.788  14.407
86332W        W49891  30.104   6.257  12.931
86333W        W49892   3.946  24.973  11.091
86334W        W49893  32.956  35.925  11.453
86335W        W49894  33.110  20.657  11.968
86336W        W49895   2.292  30.653   4.809
86337W        W49896  24.703  41.995   1.891
86338W        W49897  14.125   4.447  12.902
86339W        W49898  27.622  11.170  12.345
86340W        W49899  14.129  25.531   5.767
86341W        W49900  24.702  21.640   0.905
86342W        W49901  13.310   4.722   1.906
86343W        W49902  13.243  44.763   1.280
86344W        W49903  29.472  22.704  12.864
86345W        W49904  36.535  36.015   2.264
86346W        W49905  12.726  16.077   4.693
86347W        W49906   6.914  24.037  10.591
86348W        W49907   2.810  23.065  14.477
86349W        W49908   9.857  24.585  11.121
86350W        W49909  23.556  20.272  13.346
86351W        W49910   3.940  36.889   4.346
86352W        W49911  34.018   0.941   4.201
86353W        W49912  35.882  16.579  14.776
86354W        W49913  37.451  26.176  12.001
86355W        W49914  11.186  23.047  14.389
86356W        W49915  40.475  34.078   5.612
86357W        W49916  20.061  26.568  11.517
86358W        W49917  22.087  12.753  12.879
86359W        W49918  13.813  40.051  11.395
86360W        W49919  18.760  31.961  14.339
86361W        W49920  19.555  17.670  12.908
86362W        W49921  22.544  43.498   4.780
86363W        W49922  13.218  38.999  12.422
86364W        W49923  28.985   5.379   4.216
86365W        W49924   9.744  22.594  12.511
86366W        W49925   1.390   6.727   3.646
86367W        W49926  17.131   4.711  13.531
86368W        W49927  40.443  10.814  12.967
86369W        W49928  42.024  34.548   2.319
86370W        W49929  29.637   4.312   0.780
86371W        W49930  36.841  43.932  13.452
86372W        W49931  32.464  29.155   3.281
86373W        W49932  28.647   8.383   1.317
86374W        W49933   1.283  29.635  11.432
86375W        W49934  37.921  34.020   5.135
86376W        W49935  18.555  42.359  11.437
86377W        W49936  15.796  26.473  12.383
86378W        W49937  23.583  25.649  14.473
86379W        W49938   3.439  18.574  11.602
86380W        W49939   3.883  34.117  14.019
86381W        W49940  27.949   5.395   1.813
86382W        W49941  44.473  22.198   3.812
86383W        W49942  17.287  33.053  13.448
86384W        W49943  16.693   5.325   3.307
86385W        W49944  17.669  16.300   4.613
86386W        W49945  34.062  17.726   0.823
86387W        W49946  30.945  23.018   0.828
86388W        W49947  10.188   3.395   3.257
86389W        W49948  42.009  18.188   3.257
86390W        W49949  18.559  33.951   2.304
86391W        W49950  26.597  16.177  14.884
86392W        W49951   5.433  30.010  13.480
86393W        W49952  30.547  16.630  11.410
86394W        W49953  23.510  42.014  14.381
86395W        W49954  12.714   9.180   3.312
86396W        W49955  18.076   6.819  11.093
86397W        W49956  43.273  14.764   4.343
86398W        W49957  38.464  10.654  14.009
86399W        W49958  43.474  32.114  12.409
86400W        W49959  40.394  21.561  11.500
86401W        W49960  15.279  43.984   4.243
86402W        W49961  14.635  22.027  14.889
86403W        W49962  21.091  30.121   3.327
86404W        W49963  13.805   8.161  13.484
86405W        W49964  22.239   5.418   3.825
86406W        W49965  10.320  41.454   4.631
86407W        W49966  26.465   6.249  13.495
86408W        W49967  27.170  40.987  12.891
86409W        W49968  19.154  22.578   2.366
86410W        W49969  21.036   9.340  11.454
86411W        W49970  22.064   2.339   4.656
86412W        W49971   5.840   2.390  10.934
86413W        W49972   1.350  29.112  10.961
86414W        W49973  40.337   0.426   4.181
86415W        W49974  38.564  17.786  11.995
86416W        W49975  18.089  36.421  12.832
86417W        W49976  19.624  30.933   3.700
86418W        W49977  29.938  20.274   4.604
86419W        W49978  34.476  36.994  12.370
86420W        W49979  29.038  13.234   0.772
86421W        W49980  40.955  17.755   4.826
86422W        W49981  30.634  43.400   2.798
86423W        W49982  29.163   8.282  12.033
86424W        W49983  44.433  19.709  13.314
86425W        W49984  30.437   7.719  13.387
86426W        W49985  41.406  33.960   2.318
86427W        W49986  42.879  23.156  14.283
86428W        W49987  32.431  30.036   0.312
86429W        W49988   5.789   9.704  15.000
86430W        W49989  41.477  26.206  13.397
86431W        W49990  21.117   9.367  10.408
86432W        W49991  36.458  19.708  14.425
86433W        W49992  15.199  28.007  11.496
86434W        W49993  25.054  30.049  12.986
86435W        W49994  43.807   7.402  13.513
86436W        W49995  27.094  36.587  13.921
86437W        W49996  13.262   7.296   1.856
86438W        W49997  18.601  42.368  12.853
86439W        W49998  32.404  16.666  12.066
86440W        W49999  12.662  44.839  11.562
86441W        W50000  11.836  43.816  12.942
86442W        W50001  35.484  34.019  14.821
86443W        W50002   8.721  34.572  14.486
86444W        W50003   4.210  20.558   2.411
86445W        W50004  37.529  15.096  14.289
86446W        W50005   5.223  23.625   4.748
86447W        W50006  22.160  12.242  13.032
86448W        W50007   9.364  28.622   2.860
86449W        W50008  39.840   6.764   4.641
86450W        W50009   5.262  41.835  12.521
86451W        W50010   1.965  40.887  13.517
86452W        W50011  41.809   7.407  13.333
86453W        W50012   6.363  28.085  10.612
86454W        W50013   7.197  40.446  13.863
86455W        W50014  25.015  39.926  12.962
86456W        W50015  11.230  11.302   1.913
86457W        W50016  44.466   8.395   2.668
86458W        W50017  41.431  11.673   3.206
86459W        W50018  16.233  30.475   2.868
86460W        W50019  26.472   0.369  12.985
86461W        W50020  18.721  16.085   3.768
86462W        W50021   4.404  30.929   2.876
86463W        W50022  13.291   0.788   1.739
86464W        W50023  37.069  30.542   4.703
86465W        W50024  13.638  39.053   4.799
86466W        W50025  44.836  21.651  12.503
86467W        W50026  30.544  31.916  13.316
86468W        W50027  16.258   7.765  10.958
86469W        W50028  13.726  24.031   1.438
86470W        W50029   8.286  40.448  11.113
86471W        W50030   3.871  29.640   2.784
86472W        W50031  29.084  18.211   1.900
86473W        W50032  34.418   8.192  10.575
86474W        W50033   2.232  30.453  13.314
86475W        W50034  36.472  26.645  13.892
86476W        W50035  15.205  30.986  10.619
86477W        W50036  27.002  37.037   0.753
86478W        W50037  40.996  31.974   2.354
86479W        W50038  26.184  35.027  11.454
86480W        W50039   6.295   6.706   3.331
86481W        W50040  33.535  30.999  10.638
86482W        W50041  22.998  23.621   0.363
86483W        W50042  41.416  22.583  10.443
86484W        W50043  43.815   0.804  12.921
86485W        W50044  27.049   4.363   0.439
86486W        W50045  38.564   8.728   5.247
86487W        W50046   2.874  29.926  11.987
86488W        W50047  18.707  23.608   0.759
86489W        W50048  20.578  31.937  11.917
86490W        W50049  12.185  25.531   3.310
86491W        W50050  23.119  28.025   1.251
86492W        W50051  40.474  14.187  13.861
86493W        W50052   9.250   8.675   3.276
86494W        W50053  32.461  28.486   3.172
86495W        W50054  41.507  29.043  13.399
86496W        W50055  17.588  18.057  12.881
86497W        W50056  25.702  35.929  12.434
86498W        W50057  39.353   6.761  13.015
86499W        W50058  16.274  31.950  11.612
86500W        W50059  20.164  18.787   2.826
86501W        W50060  20.202  28.973  13.396
86502W        W50061  15.806  18.117   0.774
86503W        W50062  11.176  10.860  12.020
86504W        W50063  33.401  35.076   0.446
86505W        W50064  12.764   3.382  11.472
86506W        W50065  39.021  10.160  12.505
86507W        W50066   4.751  28.633   1.227
86508W        W50067  42.005   9.843  13.013
86509W        W50068   9.788  37.890   1.916
86510W        W50069  27.050  39.951  13.850
86511W        W50070  20.660   4.251   1.266
86512W        W50071  43.768  43.898  10.579
86513W        W50072  33.576  12.335   3.788
86514W        W50073  37.462   2.405   4.345
86515W        W50074   2.469  35.970  12.956
86516W        W50075  33.876  17.085   4.727
86517W        W50076  10.304  27.993  14.391
86518W        W50077  34.876  26.542  13.009
86519W        W50078  13.698  44.331  13.977
86520W        W50079  18.108  26.976  12.435
86521W        W50080  18.096  43.767   1.391
86522W        W50081  43.874   0.338   1.328
86523W        W50082  35.399   3.925   4.765
86524W        W50083  30.450  10.379   2.744
86525W        W50084   5.860  32.523   3.299
86526W        W50085   4.348   4.256  12.535
86527W        W50086   9.204  38.951  13.956
86528W        W50087   0.474  29.013  14.335
86529W        W50088  22.679   1.964   5.109
86530W        W50089   5.437  43.771   0.427
86531W        W50090  15.734   5.693  12.965
86532W        W50091   7.693  40.026  12.554
86533W        W50092  36.581  28.141   4.774
86534W        W50093   1.429   3.849   2.785
86535W        W50094   1.910  15.784  12.463
86536W        W50095  39.393  21.042   2.716
86537W        W50096  13.616   8.844   0.299
86538W        W50097  26.172  41.985   2.716
86539W        W50098   4.739  41.027   5.290
86540W        W50099  32.966  12.633  12.016
86541W        W50100  39.424   4.389   4.606
86542W        W50101  29.039  12.323  12.833
86543W        W50102   1.800  41.957   0.782
86544W        W50103  19.116   6.785  13.940
86545W        W50104  23.985  32.983   4.251
86546W        W50105  23.685   3.761  10.544
86547W        W50106  43.359   7.255  10.435
86548W        W50107  12.798  26.985   3.706
86549W        W50108  35.945   3.715  14.866
86550W        W50109  14.740  26.687  10.097
86551W        W50110  21.517  42.379  14.813
86552W        W50111   0.769  32.583   1.432
86553W        W50112   5.740  23.184   1.324
86554W        W50113  21.263  31.147  13.498
86555W        W50114  40.991  26.116   3.198
86556W        W50115  33.896   2.832  10.443
86557W        W50116  38.862   7.715   3.723
86558W        W50117   0.302   3.852  12.926
86559W        W50118  18.187   7.337   4.725
86560W        W50119   2.390  44.472   4.339
86561W        W50120  18.720  27.122  12.975
86562W        W50121  19.096  28.102  12.355
86563W        W50122  40.485  29.430   5.129
86564W        W50123   2.427  17.179   5.248
86565W        W50124  11.800  19.595   1.439
86566W        W50125  21.670  14.142   4.210
86567W        W50126  19.123  18.689   2.294
86568W        W50127  30.586  42.907   3.690
86569W        W50128  35.422  28.163   3.801
86570W        W50129  32.413  38.908   0.319
86571W        W50130  35.561  17.216  13.432
86572W        W50131  19.547   6.406  14.793
86573W        W50132  22.606   5.805   1.269
86574W        W50133  17.736  36.452  14.325
86575W        W50134  31.622  43.351  14.469
86576W        W50135  32.438  24.545   2.307
86577W        W50136  44.960  16.738   4.129
86578W        W50137  44.282   4.708  11.539
86579W        W50138  11.645  37.959   3.870
86580W        W50139  30.466  14.132  10.581
86581W        W50140  28.056   8.324   2.887
86582W        W50141   9.195  26.972  12.028
86583W        W50142  32.071  11.649   1.727
86584W        W50143  35.925  21.199   5.223
86585W        W50144  30.508  40.306  10.060
86586W        W50145  44.008  17.800   3.642
86587W        W50146  22.707   8.395   1.831
86588W        W50147  10.863  14.276  14.335
86589W        W50148  12.807  23.144  14.869
86590W        W50149   9.189  22.008   4.597
86591W        W50150  33.891  13.121   3.341
86592W        W50151  13.119  34.024   3.801
86593W        W50152  39.374   8.395  14.482
86594W        W50153  24.489  44.909  13.815
86595W        W50154  11.276  38.450  10.997
86596W        W50155  35.568  39.870  13.367
86597W        W50156  19.734  44.917   0.950
86598W        W50157  17.076  14.732  12.559
86599W        W50158   9.871   4.378   1.800
86600W        W50159  21.222   7.799  12.503
86601W        W50160  36.429   4.333   2.721
86602W        W50161   5.820   1.300   2.711
86603W        W50162   4.878  44.376  14.365
86604W        W50163  20.753  44.295   4.303
86605W        W50164   8.261  41.313  14.335
86606W        W50165   9.653  17.644   3.760
86607W        W50166  38.827  14.288  12.992
86608W        W50167  11.320  12.824  11.118
86609W        W50168  40.327  32.025   3.237
86610W        W50169  17.569   4.901   1.753
86611W        W50170   4.839   1.261   0.807
86612W        W50171  14.644   9.324  13.521
86613W        W50172   9.691  15.328   1.782
86614W        W50173  12.694  23.517  11.925
86615W        W50174  38.558  15.761   4.754
86616W        W50175  35.971  17.781   1.729
86617W        W50176  10.741   4.940   0.284
86618W        W50177   1.467  39.380   4.775
86619W        W50178  37.514  29.425  12.344
86620W        W50179  44.300  24.156  14.375
86621W        W50180  25.047  20.530   2.231
86622W        W50181  17.236  37.979  14.466
86623W        W50182  36.912  39.973   0.779
86624W        W50183  25.143  10.192  11.076
86625W        W50184   8.242  11.822  11.117
86626W        W50185  28.634   9.778  14.762
86627W        W50186  23.646  17.151   0.359
86628W        W50187   7.332  14.333  14.032
86629W        W50188  28.579  17.257  14.375
86630W        W50189  28.546   2.288   1.792
86631W        W50190  17.073  11.188  13.901
86632W        W50191  40.321  27.501   2.308
86633W        W50192  36.981  30.594   0.380
86634W        W50193   4.851   7.897  11.380
86635W        W50194  42.466   4.403   1.701
86636W        W50195  20.220   8.703   5.280
86637W        W50196  40.826  40.525   2.735
86638W        W50197   5.389  26.976   2.379
86639W        W50198  16.632   9.277   2.771
86640W        W50199  37.057   8.171  14.301
86641W        W50200  30.522  42.459  13.010
86642W        W50201  44.325  30.034  10.511
86643W        W50202   2.452  35.948  12.083
86644W        W50203  41.823   4.229  11.012
86645W        W50204   3.794  28.456   0.871
86646W        W50205  18.726   4.335  12.898
86647W        W50206  37.500  35.474  13.987
86648W        W50207  33.925  34.918  11.383
86649W        W50208  21.078  27.013   0.297
86650W        W50209  13.730   0.379   2.337
86651W        W50210  11.743  21.719  12.392
86652W        W50211  37.928  12.201  13.926
86653W        W50212  29.162   2.318   2.761
86654W        W50213  18.576  33.576   0.480
86655W        W50214  29.632   0.447   0.270
86656W        W50215  39.981  30.609  11.924
86657W        W50216  34.515  17.216   3.736
86658W        W50217  24.545  10.802   4.150
86659W        W50218  18.631   9.671  11.539
86660W        W50219  13.140  40.856   4.643
86661W        W50220  33.960  23.491   3.234
86662W        W50221  34.051   2.280  11.895
86663W        W50222  43.432  27.521   1.333
86664W        W50223  30.020  31.078  12.905
86665W        W50224   9.279   0.328  13.813
86666W        W50225  20.588   8.177   3.633
86667W        W50226  13.195  18.252   0.865
86668W        W50227   6.295   0.290   3.324
86669W        W50228  34.916  38.845  11.395
86670W        W50229  44.774  28.485  11.861
86671W        W50230   3.372   8.255   2.340
86672W        W50231   2.840  25.600   2.355
86673W        W50232   6.771  16.312   0.897
86674W        W50233  30.008   8.289   4.288
86675W        W50234   1.302  31.001  12.080
86676W        W50235   8.242  41.929   1.750
86677W        W50236   1.310  21.235  13.346
86678W        W50237  37.401  15.631  13.483
86679W        W50238  41.009   1.789   2.844
86680W        W50239  34.060  21.106   0.734
86681W        W50240   9.207  26.579   2.265
86682W        W50241  18.136  37.910  10.936
86683W        W50242  18.230  44.850  12.486
86684W        W50243  29.599  42.318  13.949
86685W        W50244  12.741  24.519   3.774
86686W        W50245  38.862  34.891   2.718
86687W        W50246  31.589  28.616   0.729
86688W        W50247   5.302  11.248   0.366
86689W        W50248  29.008  30.475  12.422
86690W        W50249   0.833  21.089  10.566
86691W        W50250  15.225  23.159  13.858
86692W        W50251  31.626  33.459   4.642
86693W        W50252   2.822   7.894  11.109
86694W        W50253   1.763  21.558  14.427
86695W        W50254  22.176  42.971   0.276
86696W        W50255  32.962   4.912  12.408
86697W        W50256  44.385  10.769   4.802
86698W        W50257   7.827  10.732  12.406
86699W        W50258  41.807   4.360   1.918
86700W        W50259  30.113  22.995   3.221
86701W        W50260  35.459  11.638  11.464
86702W        W50261  41.302   7.802  10.491
86703W        W50262  42.847   3.266  12.438
86704W        W50263  37.968  27.180   4.125
86705W        W50264   0.432  40.905   0.385
86706W        W50265   3.841  25.570  10.908
86707W        W50266  30.160  27.672  10.431
86708W        W50267   5.863   3.904  10.591
86709W        W50268  44.400  15.263   3.294
86710W        W50269  42.443   4.396  12.948
86711W        W50270  37.388  11.653   5.099
86712W        W50271  34.540  21.676   3.855
86713W        W50272  24.598   8.781  13.383
86714W        W50273  18.586  34.612   3.697
86715W        W50274  19.553   8.683   1.320
86716W        W50275  40.044  15.721  13.018
86717W        W50276  32.608  42.813   1.258
86718W        W50277  18.224  40.460   0.419
86719W        W50278  18.649  33.534   1.705
86720W        W50279  37.398  35.446  11.996
86721W        W50280  40.829  14.632   2.236
86722W        W50281  37.437  15.206  10.963
86723W        W50282   8.893   3.417   4.746
86724W        W50283  40.493   2.820   0.387
86725W        W50284   8.696   4.911  13.846
86726W        W50285  22.632  35.425  10.503
86727W        W50286  38.415  25.204  13.955
86728W        W50287  37.559   0.309  13.377
86729W        W50288  34.097  37.957  11.048
86730W        W50289  24.182  25.488   3.781
86731W        W50290   7.341   9.795   2.703
86732W        W50291  12.270  22.577  10.954
86733W        W50292  40.481  43.416   3.257
86734W        W50293  24.051  31.101  13.995
86735W        W50294   5.869  35.936   1.797
86736W        W50295   3.307  44.422   0.881
86737W        W50296  41.918   0.414  13.322
86738W        W50297   7.200  18.717  10.620
86739W        W50298   8.819  21.021  13.878
86740W        W50299   0.312  26.158   4.131
86741W        W50300  10.248  22.213   1.366
86742W        W50301  20.203  12.264  11.081
86743W        W50302   4.881  30.543   3.785
86744W        W50303  10.698  15.633  10.556
86745W        W50304  27.491  32.061   3.201
86746W        W50305  26.498  41.531   2.218
86747W        W50306  17.299  20.666   2.316
86748W        W50307  23.623  41.952  12.477
86749W        W50308  40.471  20.143   1.861
86750W        W50309  28.060  13.215  13.520
86751W        W50310  31.537   8.205  12.829
86752W        W50311  16.194  41.878  14.812
86753W        W50312   2.381  40.311   0.912
86754W        W50313  21.548  11.238   4.795
86755W        W50314  20.680   7.176  10.494
86756W        W50315  17.291   9.662  11.977
86757W        W50316  41.915  15.589   2.333
86758W        W50317  42.524  38.358   4.264
86759W        W50318   0.317  40.846   4.790
86760W        W50319  38.002  36.418  14.398
86761W        W50320   2.966   9.882  14.935
86762W        W50321  10.766  11.161  14.277
86763W        W50322  15.780   8.268  12.546
86764W        W50323  44.452  33.022   4.759
86765W        W50324  14.195   8.684   0.965
86766W        W50325   1.959  14.172   1.748
86767W        W50326   6.838  24.694  12.349
86768W        W50327   0.802  37.019   0.366
86769W        W50328  28.468  12.708   4.223
86770W        W50329  41.371  13.634  11.016
86771W        W50330  31.633   7.367   0.460
86772W        W50331   6.372  26.055  13.340
86773W        W50332  44.483   4.876  14.783
86774W        W50333  14.596  33.931  14.877
86775W        W50334  24.040  20.211  10.433
86776W        W50335  23.503  43.826   2.209
86777W        W50336  23.106  42.496  14.284
86778W        W50337  16.318   4.920  12.925
86779W        W50338   7.900  20.748   3.841
86780W        W50339   6.189  31.947   3.799
86781W        W50340  43.857  39.048   2.279
86782W        W50341  36.537  27.456   1.280
86783W        W50342  13.674  32.507  13.322
86784W        W50343   2.419  44.771  11.590
86785W        W50344  29.465   8.758   3.212
86786W        W50345   1.907   6.879  14.346
86787W        W50346  11.266  33.984   4.329
86788W        W50347   7.685   7.237  10.625
86789W        W50348  34.492  42.913   3.833
86790W        W50349   3.288  34.881  14.871
86791W        W50350  34.915  30.607   9.957
86792W        W50351  39.331   1.971  11.866
86793W        W50352   7.728  12.192  12.926
86794W        W50353  36.518  25.618  13.492
86795W        W50354  36.492  25.038   2.234
86796W        W50355  15.715  18.254  12.965
86797W        W50356   6.421   8.722   0.832
86798W        W50357  43.396  28.037   0.934
86799W        W50358  44.896  42.021   2.372
86800W        W50359  24.176  19.248  12.910
86801W        W50360  39.884  13.683   0.248
86802W        W50361  37.002   2.912   0.462
86803W        W50362  11.337   0.406  11.553
86804W        W50363   8.876   8.274  14.324
86805W        W50364   5.882  24.578  13.014
86806W        W50365   1.968   2.727   0.324
86807W        W50366  15.103  12.187  13.411
86808W        W50367  38.368  41.316   2.217
86809W        W50368  25.157  18.199  11.123
86810W        W50369   7.190  43.928   4.730
86811W        W50370  33.887  22.699   0.347
86812W        W50371  16.249   5.320   0.371
86813W        W50372  17.134  17.673   1.704
86814W        W50373  25.079   8.314   2.778
86815W        W50374  39.377  38.419  13.883
86816W        W50375  17.588   4.931   4.820
86817W        W50376  35.885  37.435  14.363
86818W        W50377   2.960  38.943  13.858
86819W        W50378  17.695   6.813   1.311
86820W        W50379  41.456  11.195  13.372
86821W        W50380  32.083  37.444   3.298
86822W        W50381  11.364  37.845   2.224
86823W        W50382  28.664  36.531  10.561
86824W        W50383  15.685  17.699  12.995
86825W        W50384   0.976  37.083  11.028
86826W        W50385  21.235  31.598   1.927
86827W        W50386  38.027  28.549  14.415
86828W        W50387  17.253   1.745  10.506
86829W        W50388  32.603   9.395  13.942
86830W        W50389  36.950  32.062  10.608
86831W        W50390  32.022  16.813  13.354
86832W        W50391  41.318   5.418   3.718
86833W        W50392  32.605  22.123   4.232
86834W        W50393  28.959  30.926  11.083
86835W        W50394  27.193   7.340   2.378
86836W        W50395  20.573  12.792  11.472
86837W        W50396   7.703  14.781   2.723
86838W        W50397  40.856  19.772  13.517
86839W        W50398  43.957  33.033   3.654
86840W        W50399  42.787  26.587  10.440
86841W        W50400  15.694  35.514  12.026
86842W        W50401  35.467  16.807   1.408
86843W        W50402  37.877  14.808  10.447
86844W        W50403  29.429  34.013  13.038
86845W        W50404  22.203  28.592  11.029
86846W        W50405  19.549  22.678  11.973
86847W        W50406  39.897  37.499  10.406
86848W        W50407   2.944   4.810  13.000
86849W        W50408  26.023  26.559   4.303
86850W        W50409   1.249  25.169  10.446
86851W        W50410  34.006  32.031  12.564
86852W        W50411  27.463   4.250   3.705
86853W        W50412   1.772  43.276  11.390
86854W        W50413  34.002   1.927   3.715
86855W        W50414   2.236  44.809   0.951
86856W        W50415  34.114  41.013  11.439
86857W        W50416  42.932  28.059   1.926
86858W        W50417   7.393  16.801  13.379
86859W        W50418   0.906  20.557   2.350
86860W        W50419  12.255  25.571  12.986
86861W        W50420  39.316  43.904   1.360
86862W        W50421   6.876   2.830  11.960
86863W        W50422  38.006  21.516  14.433
86864W        W50423  37.967  27.506   1.435
86865W        W50424   9.315  26.619   9.996
86866W        W50425  28.475   5.383   3.863
86867W        W50426  35.007  44.783   1.771
86868W        W50427  38.340  41.386   1.932
86869W        W50428  43.824  15.737  13.493
86870W        W50429   8.222  12.706  10.629
86871W        W50430  33.961  36.536  11.126
86872W        W50431  15.699  23.042   1.287
86873W        W50432  35.881  19.664   4.207
86874W        W50433  39.339  35.033   3.254
86875W        W50434   0.456  41.900   3.280
86876W        W50435  26.661  28.065   0.463
86877W        W50436  30.946  26.131  10.967
86878W        W50437  13.722  28.653  12.430
86879W        W50438  18.184  43.390   1.420
86880W        W50439   3.247  18.707   2.864
86881W        W50440  13.347  36.064   3.786
86882W        W50441  22.084   7.274  14.964
86883W        W50442  21.192  41.513  11.963
86884W        W50443   4.316  19.142   0.465
86885W        W50444   0.429  12.261   1.290
86886W        W50445   8.406  13.244  11.599
86887W        W50446  32.979  31.429  12.447
86888W        W50447   5.755  40.320  14.862
86889W        W50448   4.719  23.130  14.293
86890W        W50449  19.136  26.068   0.944
86891W        W50450  11.801  30.520   1.798
86892W        W50451  23.182   6.353  13.520
86893W        W50452   6.729  32.895  12.419
86894W        W50453  10.360  31.960  10.016
86895W        W50454   5.713  31.920   3.730
86896W        W50455  31.527  29.152   3.295
86897W        W50456  20.040  13.773   4.307
86898W        W50457  22.113  16.582   4.802
86899W        W50458  39.398  13.738  12.530
86900W        W50459  30.074   6.874  10.613
86901W        W50460   7.176  32.919  13.058
86902W        W50461  23.535  44.911   4.619
86903W        W50462  43.909  21.739  13.039
86904W        W50463  17.586  11.199   3.687
86905W        W50464   3.867  31.418   1.417
86906W        W50465   0.784  28.524  13.389
86907W        W50466   5.305   0.776  11.521
86908W        W50467   0.791  36.985   3.146
86909W        W50468  39.019  12.836  10.519
86910W        W50469  21.237  32.402  13.398
86911W        W50470  23.154   7.338   4.811
86912W        W50471  37.533  15.219   2.312
86913W        W50472  20.053   9.232  14.855
86914W        W50473   9.881   6.358   2.867
86915W        W50474   1.890  11.240  12.423
86916W        W50475  27.628  30.597  12.037
86917W        W50476  41.325  16.648   1.358
86918W        W50477  44.780  29.941   0.444
86919W        W50478  30.912  40.967   3.191
86920W        W50479  24.150  25.086  11.976
86921W        W50480  28.110   1.429   4.693
86922W        W50481  20.649  24.574  13.892
86923W        W50482  31.572  35.963  10.495
86924W        W50483  31.615  12.826  12.934
86925W        W50484  34.523  14.801   0.866
86926W        W50485  11.140  33.515  14.435
86927W        W50486  37.354  18.265   2.370
86928W        W50487  35.011   1.836  11.407
86929W        W50488  38.433  28.444   2.902
86930W        W50489  36.902  28.650   0.921
86931W        W50490  28.555  14.248  13.378
86932W        W50491  38.848  11.149   2.304
86933W        W50492   8.867   9.746   3.172
86934W        W50493  39.349  13.764  13.954
86935W        W50494  41.833  30.459  10.111
86936W        W50495  19.642  12.727  10.545
86937W        W50496   3.347  42.381  14.997
86938W        W50497  25.111  14.279  13.498
86939W        W50498  33.523  15.613  14.364
86940W        W50499   4.430  25.538  14.941
86941W        W50500  23.657   9.351   1.734
86942W        W50501  38.325   1.740  13.824
86943W        W50502   2.904   5.368  13.343
86944W        W50503  12.846  35.563  12.885
86945W        W50504  36.026  31.022   1.895
86946W        W50505  42.878  21.179   1.364
86947W        W50506  38.052  42.484   3.693
86948W        W50507  42.305  29.007  14.924
86949W        W50508  22.669   7.198   4.649
86950W        W50509   5.422   9.292  13.901
86951W        W50510   8.716  19.171  12.065
86952W        W50511   8.824  12.715  11.873
86953W        W50512  44.458  37.536  13.870
86954W        W50513   0.249  35.408  11.480
86955W        W50514  13.190  37.581   2.283
86956W        W50515   7.309  34.021  11.547
86957W        W50516  42.516  31.478  12.020
86958W        W50517  32.095   8.178  10.082
86959W        W50518  25.593  10.875   4.245
86960W        W50519  23.732  27.553  12.049
86961W        W50520  37.558  12.770  14.431
86962W        W50521  37.035  41.026  10.976
86963W        W50522   7.706   0.968  10.567
86964W        W50523  42.399  35.525  10.982
86965W        W50524  43.445  24.064   4.214
86966W        W50525  18.596  34.571   1.445
86967W        W50526  35.033  15.683  12.862
86968W        W50527  13.107  42.946  14.367
86969W        W50528  43.816  32.057   3.708
86970W        W50529  19.723  18.189  11.478
86971W        W50530   8.660  37.920  10.572
86972W        W50531  21.252   1.447   3.377
86973W        W50532  39.349  16.198   0.318
86974W        W50533   6.808  23.722  14.814
86975W        W50534  39.994  29.561   4.123
86976W        W50535  12.616   8.291  10.991
86977W        W50536  39.537  34.098  11.062
86978W        W50537  29.052  36.381   1.933
86979W        W50538   7.245  40.808  14.898
86980W        W50539  32.418  25.071   2.863
86981W        W50540  12.235  28.650  14.482
86982W        W50541   0.479   8.874  14.325
86983W        W50542  15.141  38.409   1.765
86984W        W50543  32.525  31.078   4.678
86985W        W50544  33.489  43.439  14.456
86986W        W50545  41.945   9.269   1.362
86987W        W50546   7.679   5.838  13.499
86988W        W50547  24.535   0.269   0.879
86989W        W50548   9.188  15.114  12.957
86990W        W50549  37.385  41.427  10.518
86991W        W50550   3.794  40.868   1.425
86992W        W50551  24.586  23.102  12.835
86993W        W50552   2.758  29.163  14.001
86994W        W50553  38.068   9.711  11.104
86995W        W50554  29.991  25.682  12.884
86996W        W50555   3.450  19.199   1.849
86997W        W50556   3.224  26.184   1.918
86998W        W50557  21.522  28.086  11.123
86999W        W50558  18.771   8.708   0.788
87000W        W50559  20.614  38.991  10.060
87001W        W50560  35.035   1.871  10.550
87002W        W50561  14.750   1.432   3.235
87003W        W50562  24.209  16.777   0.791
87004W        W50563  13.610   3.787   1.880
87005W        W50564  29.172   7.670  14.453
87006W        W50565  42.870  11.655   1.296
87007W        W50566  26.158  24.607  10.916
87008W        W50567  21.164  28.043   3.254
87009W        W50568  33.448  16.225  12.078
87010W        W50569  14.680   4.833   9.978
87011W        W50570   5.423  21.233  13.953
87012W        W50571   0.275  35.555  11.064
87013W        W50572  16.737   6.762   4.738
87014W        W50573  16.193  21.039   2.855
87015W        W50574  14.311  44.781  10.482
87016W        W50575  13.693  24.046   2.225
87017W        W50576  12.317  25.212  14.496
87018W        W50577  32.060  37.971   2.883
87019W        W50578  14.313   9.304   1.906
87020W        W50579  21.758  29.157  13.053
87021W        W50580   2.438  39.370  11.517
87022W        W50581  41.485  37.066  10.566
87023W        W50582  16.098  37.386   5.179
87024W        W50583   5.777  14.631   1.324
87025W        W50584   2.459  15.803   2.398
87026W        W50585   3.289   9.806   0.319
87027W        W50586  23.139  32.065  13.916
87028W        W50587  28.665  44.454  10.978
87029W        W50588  44.466  36.055  13.023
87030W        W50589  29.081   9.184   2.707
87031W        W50590  28.580  35.869   0.885
87032W        W50591  27.491  34.370   1.872
87033W        W50592  39.486  11.761  10.433
87034W        W50593  12.284  30.969   2.816
87035W        W50594  30.600  10.271  13.855
87036W        W50595  10.161  13.671   1.347
87037W        W50596  15.785  39.488  14.406
87038W        W50597  16.688   6.260  13.536
87039W        W50598   9.661   2.379   0.467
87040W        W50599  19.721  34.910  10.950
87041W        W50600  18.084   5.239   2.702
87042W        W50601  37.465  29.078  14.932
87043W        W50602  18.063   0.276  10.926
87044W        W50603  17.607  26.548   2.210
87045W        W50604  38.477  37.989   1.833
87046W        W50605   4.398  35.933  11.525
87047W        W50606  38.925  26.145   4.134
87048W        W50607  43.506  20.744   0.817
87049W        W50608  19.583  42.351   2.666
87050W        W50609  11.316   0.269   0.342
87051W        W50610  24.009  11.662  14.362
87052W        W50611  29.617  17.099  11.586
87053W        W50612  33.926  41.433   4.132
87054W        W50613   2.738   8.818   5.283
87055W        W50614  26.097  29.955  14.274
87056W        W50615   6.897  33.977  13.882
87057W        W50616  27.110  15.224  14.875
87058W        W50617   2.909   7.771   3.631
87059W        W50618   8.831  37.354  14.300
87060W        W50619  40.948  10.866   0.922
87061W        W50620  13.276  22.016   4.794
87062W        W50621  31.542  27.017   0.369
87063W        W50622  42.452  36.557   2.714
87064W        W50623  41.427  32.044  14.023
87065W        W50624  44.480  38.473  10.983
87066W        W50625   0.344  17.181   0.302
87067W        W50626  18.618  19.266  13.009
87068W        W50627  16.586  44.866   1.251
87069W        W50628   0.956   7.241  12.439
87070W        W50629   6.784  38.844  12.945
87071W        W50630  10.171  29.648   4.285
87072W        W50631  38.427  14.248  11.107
87073W        W50632  13.680  15.271   2.755
87074W        W50633  21.522  34.399   1.759
87075W        W50634  18.208  32.119   2.903
87076W        W50635  31.636   0.963  13.410
87077W        W50636   6.270   7.910   2.761
87078W        W50637  18.268  37.028  12.954
87079W        W50638  20.675  36.042  14.322
87080W        W50639   2.794   9.382   4.671
87081W        W50640  39.317  43.831  14.502
87082W        W50641   7.851   7.213   0.942
87083W        W50642   5.868  37.514   3.765
87084W        W50643   3.850  42.835   3.308
87085W        W50644   2.427   5.217  12.918
87086W        W50645  39.414  26.193  14.964
87087W        W50646   5.333  11.214   4.641
87088W        W50647  43.963  37.481  13.464
87089W        W50648  26.676  37.879   3.236
87090W        W50649  26.641  42.887   0.404
87091W        W50650  23.181  41.510   2.334
87092W        W50651  17.156  14.122  13.825
87093W        W50652  30.154  30.570  10.438
87094W        W50653  17.298   8.271   5.169
87095W        W50654  33.447  43.858   3.365
87096W        W50655  32.975  30.089   4.668
87097W        W50656  15.609  44.905  13.988
87098W        W50657  37.454  35.881   5.122
87099W        W50658  11.807  22.174   4.768
87100W        W50659  37.582   9.152   2.759
87101W        W50660  40.312  44.953   2.280
87102W        W50661  35.485  16.680  10.501
87103W        W50662  25.573  35.500  14.993
87104W        W50663  30.926  34.596   1.925
87105W        W50664  26.461  44.303   2.290
87106W        W50665  19.647  36.561   3.721
87107W        W50666   4.845  23.047   0.728
87108W        W50667  36.357   0.867  10.041
87109W        W50668  21.037   5.407  11.925
87110W        W50669   7.833  22.558   4.271
87111W        W50670   1.342  21.140  14.294
87112W        W50671  22.167  23.043  11.567
87113W        W50672  17.191  40.411  14.794
87114W        W50673  35.885  30.087  13.050
87115W        W50674  34.868   9.851  11.439
87116W        W50675  32.406  36.426   3.641
87117W        W50676  40.335   5.853  11.406
87118W        W50677  14.258  28.584   1.227
87119W        W50678   7.335  35.024   1.355
87120W        W50679  36.973  29.550   1.728
87121W        W50680  17.298   0.758   2.236
87122W        W50681   9.831  29.997  13.511
87123W        W50682  42.003   6.772   1.287
87124W        W50683  43.918   9.250  11.439
87125W        W50684  17.183  17.164   2.825
87126W        W50685  35.043  28.112  10.069
87127W        W50686  21.576  36.053   1.935
87128W        W50687  23.055  36.859  13.942
87129W        W50688  42.010  12.660  10.506
87130W        W50689  25.050  26.480   3.731
87131W        W50690  33.482  12.181   1.306
87132W        W50691  15.142  37.914   0.395
87133W        W50692  23.490   0.893   1.245
87134W        W50693  34.061   7.749   1.448
87135W        W50694  34.425  30.418   3.824
87136W        W50695   9.731  37.426   0.788
87137W        W50696  20.745   1.808   1.254
87138W        W50697  10.750  37.083   2.336
87139W        W50698   3.816  28.185   4.313
87140W        W50699  13.787  14.288  11.076
87141W        W50700  16.308   4.364   0.835
87142W        W50701  19.054  22.620   0.888
87143W        W50702  19.060  30.586   4.816
87144W        W50703  15.683  25.522  11.071
87145W        W50704   6.856   4.308  10.620
87146W        W50705  31.025  12.283  12.943
87147W        W50706  41.914  41.789  10.496
87148W        W50707  37.994  41.434  12.976
87149W        W50708  38.358  38.453  11.371
87150W        W50709  15.243   0.922   2.185
87151W        W50710   9.256  17.089   0.871
87152W        W50711  26.567  35.483   3.661
87153W        W50712  22.709  24.010  14.879
87154W        W50713  43.020  42.958   2.405
87155W        W50714  31.642   5.867  10.482
87156W        W50715  36.364   8.184  10.984
87157W        W50716   6.357  27.166   3.668
87158W        W50717  12.250  36.844   9.927
87159W        W50718  35.055  14.186  14.819
87160W        W50719  17.200   8.327  11.880
87161W        W50720  11.332  12.632  11.505
87162W        W50721  28.584  36.945  13.816
87163W        W50722  17.061  28.509  10.448
87164W        W50723   7.772  26.678   4.269
87165W        W50724  23.723  28.558  11.098
87166W        W50725  19.572  33.550   1.382
87167W        W50726  44.373  39.914   2.877
87168W        W50727   5.838   1.760  11.603
87169W        W50728  30.564  25.976   1.325
87170W        W50729  17.159   3.323   1.852
87171W        W50730   9.186  44.787  13.355
87172W        W50731  37.956  12.629   2.891
87173W        W50732  14.242  10.836   9.993
87174W        W50733  38.334  38.841  14.501
87175W        W50734  40.440  44.277   4.837
87176W        W50735  13.842   6.908   3.666
87177W        W50736   0.829  32.116   3.249
87178W        W50737   7.203   9.223  11.945
87179W        W50738  31.120   2.294  11.095
87180W        W50739   7.408  21.648   2.857
87181W        W50740  35.592   2.424  10.408
87182W        W50741  22.582  22.251  12.499
87183W        W50742  14.279  42.300   0.839
87184W        W50743  40.976  10.687  11.008
87185W        W50744   6.210  39.484   2.788
87186W        W50745  14.096  42.460  14.288
87187W        W50746  32.479  25.189  14.403
87188W        W50747  25.473  39.498   4.182
87189W        W50748  15.656  18.672  11.011
87190W        W50749  15.664  34.553   4.660
87191W        W50750  18.053  22.230  14.441
87192W        W50751  40.985  42.472  10.899
87193W        W50752  20.120  44.815  11.612
87194W        W50753  29.115  21.091  13.014
87195W        W50754   4.314  42.883  13.354
87196W        W50755   5.324  24.025   1.405
87197W        W50756  38.990   6.795  10.584
87198W        W50757  28.147   1.938   3.158
87199W        W50758  41.807  12.624   2.819
87200W        W50759   1.811   4.446   3.294
87201W        W50760   8.357  23.079  10.557
87202W        W50761  23.223   9.262  10.444
87203W        W50762  23.074  36.593  14.422
87204W        W50763  43.993   6.184   0.262
87205W        W50764  38.984  37.072  13.333
87206W        W50765  14.285  13.756  14.890
87207W        W50766  13.628  11.789  10.539
87208W        W50767  19.105  34.094  11.998
87209W        W50768  11.281  35.441  12.857
87210W        W50769  32.926  36.911  10.893
87211W        W50770  31.083  32.951  12.915
87212W        W50771  30.124  35.574   2.200
87213W        W50772  36.434  31.420   1.895
87214W        W50773  44.392  14.165  12.499
87215W        W50774   7.385   2.390   1.756
87216W        W50775  38.496  20.098  12.398
87217W        W50776  18.704  22.166  13.335
87218W        W50777  19.185  10.301  11.416
87219W        W50778   0.887  27.449   0.311
87220W        W50779  25.549  34.441   4.658
87221W        W50780   7.211  22.536   4.279
87222W        W50781   9.332  14.287  12.846
87223W        W50782  16.236  16.122  11.950
87224W        W50783  26.536  28.610   0.328
87225W        W50784   2.249  25.094   0.391
87226W        W50785  37.354   8.777  14.875
87227W        W50786  31.549  35.861   2.182
87228W        W50787  23.999  15.248  11.056
87229W        W50788   1.834   3.901   4.771
87230W        W50789   6.387   3.863  14.787
87231W        W50790  42.344  19.681   2.740
87232W        W50791   9.305  44.290   2.828
87233W        W50792  21.736  28.097   1.922
87234W        W50793   1.472  36.548   3.286
87235W        W50794   4.246   3.339  14.502
87236W        W50795  41.991  15.597  12.447
87237W        W50796  36.510  10.875  11.594
87238W        W50797  23.619  39.845   1.341
87239W        W50798  32.923  27.590   4.354
87240W        W50799  21.520  31.001   3.259
87241W        W50800  16.190   8.181   3.713
87242W        W50801  36.445  38.368   3.702
87243W        W50802   5.894  19.087   3.709
87244W        W50803  38.993  44.933   3.292
87245W        W50804   0.861  36.066   3.187
87246W        W50805   9.203  19.237   0.956
87247W        W50806  23.664   8.799  11.945
87248W        W50807   0.961   0.332   2.703
87249W        W50808  28.657  34.991   1.727
87250W        W50809   8.392  42.907   4.126
87251W        W50810  36.392  13.140  10.404
87252W        W50811   9.238  31.597   4.117
87253W        W50812  41.369   5.821   1.786
87254W        W50813  19.545  16.188   3.288
87255W        W50814  41.404  12.205   0.416
87256W        W50815  37.391  42.815   0.414
87257W        W50816   1.286  32.013  12.979
87258W        W50817  27.671  21.533   0.937
87259W        W50818   5.399   3.954   4.210
87260W        W50819  14.102  40.988   0.814
87261W        W50820  31.040  39.377   0.397
87262W        W50821  19.690  20.128   1.387
87263W        W50822   8.896  42.894  11.503
87264W        W50823  17.087  20.715   2.688
87265W        W50824  23.038   3.275   0.801
87266W        W50825  32.514  38.511  13.823
87267W        W50826  25.644   3.885   1.232
87268W        W50827  24.711  23.042   0.418
87269W        W50828  22.609  28.505  11.086
87270W        W50829  18.191  12.202   1.217
87271W        W50830  13.239  18.732  13.972
87272W        W50831  33.476  44.996   3.155
87273W        W50832  30.986  44.464  12.964
87274W        W50833  11.630  16.739   4.772
87275W        W50834  43.801  21.169   1.808
87276W        W50835  31.028   4.919  10.007
87277W        W50836  14.196  27.560   2.776
87278W        W50837  32.984  11.276  11.433
87279W        W50838   6.897  20.637  13.352
87280W        W50839  19.116  37.918   0.738
87281W        W50840  13.845   9.835   0.843
87282W        W50841  12.720  11.288   0.363
87283W        W50842  36.374  23.207   1.348
87284W        W50843  37.880  42.928   1.272
87285W        W50844  23.670  35.944   4.211
87286W        W50845   2.963  22.547   4.803
87287W        W50846   1.280  44.772  13.993
87288W        W50847  17.722  21.206   4.745
87289W        W50848  35.501   8.223  13.431
87290W        W50849   8.670  31.926  12.067
87291W        W50850   0.268  28.978  10.998
87292W        W50851  10.341  21.078   0.931
87293W        W50852  41.329   6.242  11.896
87294W        W50853  38.961  13.803   2.828
87295W        W50854  23.726  40.823  12.092
87296W        W50855   2.765  19.278   3.846
87297W        W50856  18.054   8.750  13.035
87298W        W50857  20.538  36.858  13.445
87299W        W50858  17.294   9.865  13.927
87300W        W50859  42.991  40.381   4.236
87301W        W50860   9.652  10.167   3.171
87302W        W50861   0.461  27.064   1.281
87303W        W50862  13.302   3.253  14.031
87304W        W50863  31.019  43.488  11.955
87305W        W50864  11.188   9.305   4.827
87306W        W50865   4.834  37.968  11.060
87307W        W50866   6.815  26.554  13.817
87308W        W50867   6.907  10.815   0.777
87309W        W50868  33.105  30.118   0.756
87310W        W50869  33.478  32.041  10.136
87311W        W50870  43.796  14.255  11.554
87312W        W50871  20.550   5.263  12.474
87313W        W50872   3.786  20.244  13.354
87314W        W50873   6.856   9.329   3.175
87315W        W50874  31.017  21.705  10.428
87316W        W50875  44.314  31.917   4.693
87317W        W50876   5.330  17.261  11.465
87318W        W50877  24.164  17.097  13.970
87319W        W50878   7.353  42.312   1.414
87320W        W50879  22.082  33.616  10.502
87321W        W50880  11.681   8.374   3.338
87322W        W50881  19.090  22.616  13.460
87323W        W50882   4.778   8.846  11.060
87324W        W50883   9.208  23.145  12.056
87325W        W50884  31.939   0.909  14.357
87326W        W50885  28.119  19.160  13.493
87327W        W50886  31.057  17.578   4.646
87328W        W50887  12.816  13.311   3.310
87329W        W50888  24.202  16.679  13.801
87330W        W50889  28.029  34.480  14.893
87331W        W50890  33.380  26.055  14.793
87332W        W50891  35.016   9.848  11.040
87333W        W50892  15.765  25.653   3.747
87334W        W50893  22.154  29.628  13.509
87335W        W50894   1.299  38.054   0.783
87336W        W50895   5.425  32.456  12.368
87337W        W50896  42.397  16.224   2.196
87338W        W50897  15.323   3.303   2.800
87339W        W50898  43.494  37.529  12.913
87340W        W50899  23.144  39.876   4.334
87341W        W50900  11.736  37.881  14.873
87342W        W50901  43.895  23.191  13.005
87343W        W50902  11.289  15.241   3.665
87344W        W50903  21.638  20.699   1.827
87345W        W50904  40.308   5.244  14.822
87346W        W50905  36.994  29.426   0.863
87347W        W50906  26.984  26.591   3.303
87348W        W50907  12.249   5.853   2.835
87349W        W50908  21.635  44.928  13.055
87350W        W50909  19.673   6.199  13.478
87351W        W50910  16.190  39.867   1.912
87352W        W50911  11.782  32.635   0.852
87353W        W50912   5.753  30.118  12.379
87354W        W50913  20.072  28.051   4.297
87355W        W50914  38.993  44.475   1.431
87356W        W50915  11.755   6.380   0.870
87357W        W50916  19.748  33.035   1.756
87358W        W50917   3.932  22.996   1.428
87359W        W50918  25.136  27.563  14.000
87360W        W50919  31.465  17.226   4.758
87361W        W50920  30.460  29.547   3.765
87362W        W50921  17.631   4.393   0.744
87363W        W50922  13.699   8.232   0.907
87364W        W50923  40.014  25.032   0.894
87365W        W50924   3.268  22.185  10.626
87366W        W50925   8.814   5.377  10.587
87367W        W50926  31.425  11.335  10.588
87368W        W50927  10.285   8.338   2.348
87369W        W50928  23.703  35.545   2.809
87370W        W50929  38.957  32.140   3.377
87371W        W50930  24.188  22.173  14.494
87372W        W50931  17.745   4.342   1.239
87373W        W50932   7.188   0.363   1.721
87374W        W50933  11.768   9.149  11.402
87375W        W50934  44.498   7.883  11.506
87376W        W50935  31.147   9.193   4.643
87377W        W50936   3.895  15.748   4.236
87378W        W50937   7.854  27.625  10.461
87379W        W50938   8.782   0.355  14.308
87380W        W50939  38.835  21.248   3.385
87381W        W50940  13.811  24.512  12.496
87382W        W50941   0.250  13.222  12.873
87383W        W50942   8.223  43.807   2.871
87384W        W50943  19.642  28.062   4.294
87385W        W50944  27.099   7.879  11.518
87386W        W50945  22.100  20.747  10.458
87387W        W50946   4.782  28.642  12.864
87388W        W50947  43.305  21.029   1.932
87389W        W50948   7.192  15.177  11.396
87390W        W50949  27.183  37.367  14.912
87391W        W50950   6.880  17.098   3.198
87392W        W50951  18.168  26.054  10.565
87393W        W50952  18.080  11.339   2.790
87394W        W50953  21.548   5.782  11.088
87395W        W50954   9.230  14.293   0.757
87396W        W50955  41.031  22.573   2.725
87397W        W50956  18.706   2.955   4.679
87398W        W50957   3.839  37.431  14.030
87399W        W50958   5.703  42.832  14.387
87400W        W50959   1.762  40.913  14.328
87401W        W50960  33.412  17.635  10.986
87402W        W50961   8.674  14.765   2.689
87403W        W50962   0.377  21.242   4.606
87404W        W50963   1.960  33.007   0.380
87405W        W50964   1.464  19.275   3.673
87406W        W50965  15.661   7.293  14.904
87407W        W50966  29.061  40.520   4.831
87408W        W50967  23.547   7.870  13.458
87409W        W50968  39.362  11.238  11.384
87410W        W50969  17.198  28.666   4.341
87411W        W50970  38.963  43.767  10.902
87412W        W50971  41.821  37.963   2.316
87413W        W50972  42.300  25.468  11.459
87414W        W50973  40.912  13.303  11.963
87415W        W50974   7.728  23.058   0.891
87416W        W50975  22.085   9.648   1.836
87417W        W50976  28.028  32.532  12.925
87418W        W50977  16.582  21.150  11.586
87419W        W50978  16.171  25.523   2.258
87420W        W50979  31.600  31.406   4.270
87421W        W50980  12.740  21.067   3.147
87422W        W50981  34.882  25.209  10.443
87423W        W50982   1.798  42.992   2.819
87424W        W50983  17.070  34.411   1.791
87425W        W50984  39.023  42.980  10.610
87426W        W50985  11.663  27.564   0.377
87427W        W50986  19.111  34.962  12.929
87428W        W50987  19.625  14.232   4.614
87429W        W50988  27.072   6.868   3.756
87430W        W50989  31.923  22.163  10.067
87431W        W50990  20.668  43.999   3.228
87432W        W50991  17.754  32.087   3.263
87433W        W50992  44.983  26.487   2.218
87434W        W50993  18.789  15.213  14.486
87435W        W50994   2.289   3.437   1.248
87436W        W50995  18.637  44.963   0.781
87437W        W50996  15.798  19.047  11.921
87438W        W50997  36.401  40.466  14.387
87439W        W50998  29.982   6.865  11.888
87440W        W50999  24.519  37.483  10.531
87441W        W51000   8.790  25.556  11.490
87442W        W51001  37.846  34.534  11.892
87443W        W51002  43.422  38.468   3.280
87444W        W51003  23.513  21.758   0.921
87445W        W51004  35.408  26.536   1.791
87446W        W51005  30.931  36.484  14.769
87447W        W51006   8.774  19.096   1.221
87448W        W51007   3.929  44.489   0.920
87449W        W51008  27.599   3.362   4.156
87450W        W51009  43.962  43.425  11.107
87451W        W51010  22.550  26.550   2.256
87452W        W51011   9.244  43.964  14.970
87453W        W51012  20.725   6.293  14.979
87454W        W51013  24.124  36.031  11.437
87455W        W51014  36.557   9.369  13.022
87456W        W51015  30.105  37.342   4.719
87457W        W51016  26.032  21.569  13.822
87458W        W51017  24.170  19.773   1.404
87459W        W51018   3.831  33.575  10.887
87460W        W51019  32.505  33.002  10.934
87461W        W51020  32.559   2.858  12.540
87462W        W51021  36.030  12.324  13.826
87463W        W51022  41.365  19.131  10.502
87464W        W51023  32.460   7.335  11.429
87465W        W51024  15.318  10.161   2.756
87466W        W51025  35.965   9.692  10.956
87467W        W51026  25.997   3.830   2.816
87468W        W51027  10.657  31.123   3.281
87469W        W51028  34.105   1.286   4.624
87470W        W51029  18.114   7.284   3.190
87471W        W51030  31.950  10.270  13.492
87472W        W51031  10.272   5.315  12.841
87473W        W51032   3.267   4.432  13.370
87474W        W51033  31.520  24.058   4.807
87475W        W51034  42.907  18.649  13.003
87476W        W51035  14.190  37.040   1.779
87477W        W51036   3.874   6.728   0.939
87478W        W51037  39.435  16.312   4.230
87479W        W51038   8.749   0.755  11.882
87480W        W51039  44.470  11.786   4.713
87481W        W51040   4.363  18.070  13.920
87482W        W51041   8.709  44.269   0.410
87483W        W51042  17.680   1.286  13.345
87484W        W51043  44.496  43.323   1.352
87485W        W51044  25.699  31.978   1.884
87486W        W51045   2.263  20.667  10.997
87487W        W51046   8.235  15.262  14.311
87488W        W51047   3.835   1.352   0.812
87489W        W51048  20.741  19.200  12.488
87490W        W51049  31.646  41.986   0.300
87491W        W51050  23.719  25.618  11.869
87492W        W51051  17.198  12.150  14.799
87493W        W51052  42.934  14.823   2.383
87494W        W51053  10.282   6.185  12.859
87495W        W51054  38.897  34.873  14.382
87496W        W51055  42.780   7.416   1.933
87497W        W51056   8.779  28.659  12.061
87498W        W51057   6.383   4.719   4.317
87499W        W51058  11.159  15.100  10.445
87500W        W51059  14.132   8.314   2.816
87501W        W51060  19.647  10.675  13.360
87502W        W51061  30.929  30.143  14.441
87503W        W51062  18.778  13.219  11.109
87504W        W51063  14.284  43.301  12.996
87505W        W51064  21.553  40.490   2.329
87506W        W51065   4.356   9.238  14.872
87507W        W51066  43.281  32.109   2.830
87508W        W51067  36.015  31.036   0.858
87509W        W51068  42.400  33.566   4.247
87510W        W51069  20.067  11.193   3.273
87511W        W51070  40.890  25.089   0.429
87512W        W51071   1.296   0.784   0.457
87513W        W51072  12.208  18.257   1.782
87514W        W51073   1.801  40.814   0.870
87515W        W51074  13.717  39.397  11.458
87516W        W51075  35.928  31.648  10.020
87517W        W51076  43.837  32.107   3.239
87518W        W51077  38.939  44.974  13.464
87519W        W51078   3.733  27.475   4.815
87520W        W51079   8.263  16.299   0.306
87521W        W51080   8.662  11.311  13.307
87522W        W51081  36.860  25.572   3.376
87523W        W51082  15.745  37.011   4.681
87524W        W51083  31.012  27.101   0.292
87525W        W51084  31.122  30.089  10.474
87526W        W51085   4.432  44.259   1.343
87527W        W51086  19.123  36.417   4.187
87528W        W51087  30.562   2.416  14.802
87529W        W51088   0.471  44.895   1.393
87530W        W51089  25.206  21.027  12.347
87531W        W51090  14.143  11.300   4.608
87532W        W51091  29.092  28.065   0.349
87533W        W51092  21.173  44.260  13.395
87534W        W51093   7.242   9.351   0.766
87535W        W51094  10.795  41.498  13.797
87536W        W51095   3.953  26.195  13.905
87537W        W51096   5.293  34.882  14.469
87538W        W51097   5.358  26.992  10.445
87539W        W51098   5.317  25.984   1.780
87540W        W51099   4.423  31.560  12.966
87541W        W51100   9.874   3.451   0.461
87542W        W51101  34.100  22.631   1.218
87543W        W51102  15.601  25.173  14.476
87544W        W51103  19.045  32.051   3.632
87545W        W51104  36.992  20.594   0.837
87546W        W51105  24.519  36.871  12.825
87547W        W51106  42.914  32.024  14.953
87548W        W51107  22.656  10.814   1.222
87549W        W51108  23.203  34.602  12.539
87550W        W51109  38.493  44.861  12.361
87551W        W51110  20.735   7.720   0.293
87552W        W51111  21.234  32.910  14.349
87553W        W51112  40.816  33.948   3.705
87554W        W51113  10.270  35.407   9.517
87555W        W51114  15.297  19.687  14.966
87556W        W51115   3.300  43.976  12.949
87557W        W51116  40.477   7.207   2.278
87558W        W51117  14.320  16.693   1.828
87559W        W51118  18.791  36.083  12.947
87560W        W51119  17.094  11.272   2.364
87561W        W51120  25.062  14.171  11.415
87562W        W51121  11.315  31.964  10.987
87563W        W51122  23.504   3.361   2.677
87564W        W51123  30.618  13.721  10.539
87565W        W51124  14.238  22.626  13.476
87566W        W51125  14.105   9.206  10.114
87567W        W51126  11.780   3.732   4.792
87568W        W51127  44.000   4.936  11.403
87569W        W51128   1.256   3.827   4.797
87570W        W51129   4.398  28.944  14.473
87571W        W51130  18.067  19.669  11.923
87572W        W51131   2.731  35.881   0.936
87573W        W51132  19.628  41.026   4.127
87574W        W51133  41.935  22.189   1.416
87575W        W51134  43.351   5.888   3.804
87576W        W51135  39.830  10.674  12.495
87577W        W51136  43.016  34.035   4.737
87578W        W51137  22.651  26.161   3.762
87579W        W51138  27.138  36.954  14.028
87580W        W51139  18.753  21.065  11.127
87581W        W51140  32.396  37.363   2.877
87582W        W51141  42.948  29.038  13.036
87583W        W51142   6.848   3.424  12.559
87584W        W51143  36.909  16.796   2.331
87585W        W51144  22.023  39.838   0.788
87586W        W51145  28.462  17.201   2.857
87587W        W51146  23.102   2.949   0.896
87588W        W51147  11.841  11.773   0.468
87589W        W51148  16.314   3.923  11.535
87590W        W51149  19.540  11.176  12.020
87591W        W51150  26.114  39.539  11.936
87592W        W51151  40.406  30.978   0.465
87593W        W51152  11.246   2.882   0.329
87594W        W51153  33.881  14.134  11.008
87595W        W51154  27.037  24.558  11.434
87596W        W51155   9.366  40.479   9.935
87597W        W51156  43.018  13.832  14.289
87598W        W51157  35.907  42.966  14.304
87599W        W51158   4.736  38.925  10.071
87600W        W51159  44.980  20.669   0.443
87601W        W51160  21.239  15.270   2.184
87602W        W51161  25.661   9.839  14.450
87603W        W51162   2.877   5.756   4.247
87604W        W51163   7.885  30.018   3.715
87605W        W51164  40.471  43.430   2.411
87606W        W51165  24.635  28.107  14.516
87607W        W51166  20.616   5.295   2.244
87608W        W51167  33.435  11.199  11.401
87609W        W51168  33.059  36.494  13.028
87610W        W51169  38.017  11.809  13.960
87611W        W51170  24.568  15.209   2.271
87612W        W51171  44.827  17.125   3.216
87613W        W51172  16.217  40.485   1.254
87614W        W51173  40.013  27.002  11.051
87615W        W51174  29.027  22.669  11.494
87616W        W51175  12.784  26.087  14.942
87617W        W51176  12.683  25.668   1.912
87618W        W51177  39.497   8.339  13.914
87619W        W51178  31.631  30.029   3.808
87620W        W51179   6.297   1.906  10.010
87621W        W51180  27.024  42.390   2.277
87622W        W51181  42.852  21.698   1.346
87623W        W51182  15.743   5.200   3.870
87624W        W51183  27.449  33.463  14.464
87625W        W51184  39.372  31.577  13.434
87626W        W51185  43.311  15.783  13.320
87627W        W51186  35.973  14.755   3.312
87628W        W51187  19.051  24.685  12.515
87629W        W51188  34.599  15.765   0.296
87630W        W51189   5.899  33.581   4.160
87631W        W51190  29.507   6.915  11.447
87632W        W51191  20.074   8.683  14.415
87633W        W51192  28.083  42.423  11.094
87634W        W51193  18.764  36.889   2.262
87635W        W51194   9.737  33.404  12.473
87636W        W51195  43.849  20.165  14.317
87637W        W51196  12.617  27.575   2.695
87638W        W51197  14.096   4.826  12.445
87639W        W51198  38.851   8.691  14.299
87640W        W51199  10.382  25.000   5.295
87641W        W51200  33.972  30.016   1.900
87642W        W51201   1.919   5.789  14.026
87643W        W51202  39.008  24.558   1.445
87644W        W51203  29.484  17.764  13.997
87645W        W51204   3.284  24.702   1.448
87646W        W51205  26.583  22.559   3.384
87647W        W51206  21.659  31.492   5.620
87648W        W51207  15.326  18.077   2.840
87649W        W51208  13.621   3.399  11.874
87650W        W51209  36.583  25.553  14.925
87651W        W51210  36.935  31.421   1.438
87652W        W51211   3.893  37.419   0.391
87653W        W51212  17.660  10.839   0.421
87654W        W51213  44.834   9.351  14.306
87655W        W51214  26.529  34.584  11.972
87656W        W51215  42.323   5.387  12.531
87657W        W51216  42.443   0.385   0.943
87658W        W51217  44.984  24.538  13.007
87659W        W51218  28.499  36.452   2.316
87660W        W51219  21.236  35.513  13.922
87661W        W51220   3.391  17.189   0.316
87662W        W51221   9.842   4.316  12.052
87663W        W51222  42.896  20.050   3.644
87664W        W51223  27.965   3.946   0.965
87665W        W51224   2.352  26.164   1.871
87666W        W51225  19.769   8.807  14.860
87667W        W51226  28.681  40.544  11.084
87668W        W51227  28.572  35.106  11.439
87669W        W51228   5.826   4.324  11.395
87670W        W51229  31.008  18.235   1.433
87671W        W51230  11.772  25.696  10.127
87672W        W51231  15.303  37.543   2.200
87673W        W51232   8.777  17.761   3.649
87674W        W51233  25.707  27.165  11.073
87675W        W51234  28.439  34.450  14.941
87676W        W51235  14.713  19.622  13.791
87677W        W51236  35.440  25.590  14.431
87678W        W51237  44.436  21.031   3.311
87679W        W51238  16.692  21.063   0.483
87680W        W51239  44.991  27.611  14.450
87681W        W51240  20.730  25.118  11.567
87682W        W51241  28.624  36.893  11.607
87683W        W51242  21.199  15.158   2.736
87684W        W51243   9.364  18.782   3.715
87685W        W51244  17.131  16.154   3.260
87686W        W51245  38.343  27.948  13.481
87687W        W51246  43.354  38.988   1.767
87688W        W51247  29.941  42.824   0.894
87689W        W51248  10.204  32.560   9.961
87690W        W51249  32.107  28.002   0.436
87691W        W51250   7.221  43.484   1.808
87692W        W51251  23.732   4.888  13.373
87693W        W51252  27.653  25.043   0.728
87694W        W51253  18.168  15.202  12.869
87695W        W51254  35.949   4.741   0.837
87696W        W51255  32.440  39.887   2.751
87697W        W51256  28.644  30.578   2.304
87698W        W51257   3.243  38.005  11.407
87699W        W51258  31.550  20.579  14.516
87700W        W51259  10.226  25.485  10.135
87701W        W51260  30.446  41.444  11.920
87702W        W51261  19.767  23.162   1.750
87703W        W51262   1.312  44.945   2.884
87704W        W51263   7.358  42.475   3.381
87705W        W51264  13.620  14.127   1.297
87706W        W51265  16.686  29.503   0.370
87707W        W51266  13.794  20.107   0.248
87708W        W51267  44.810   8.736  11.458
87709W        W51268  14.684  43.853   2.892
87710W        W51269  15.636  25.088  11.585
87711W        W51270  19.279  20.272  14.483
87712W        W51271  22.153  38.018  13.458
87713W        W51272  38.470  12.320   3.211
87714W        W51273  44.360  16.318   4.182
87715W        W51274   5.332  11.654  13.889
87716W        W51275  41.373  38.945   0.817
87717W        W51276  41.506  21.050  13.053
87718W        W51277  10.147   7.225   4.727
87719W        W51278  39.426  43.850   0.757
87720W        W51279   9.251  40.825  11.984
87721W        W51280  11.749  13.349   3.215
87722W        W51281   8.899  11.327  14.794
87723W        W51282   3.832  32.123  11.384
87724W        W51283  17.607  44.484   3.254
87725W        W51284  14.297  14.274  13.417
87726W        W51285  27.550  44.419  12.922
87727W        W51286  36.983  14.213   1.935
87728W        W51287  44.478  32.955  10.425
87729W        W51288  16.621  41.466   3.181
87730W        W51289  28.067  32.009  11.033
87731W        W51290  34.518  29.113  13.942
87732W        W51291   9.247  17.661  13.429
87733W        W51292  39.950  29.096  11.093
87734W        W51293  38.019   2.384  14.867
87735W        W51294  22.209  42.392   1.221
87736W        W51295   4.331   2.325  10.939
87737W        W51296  27.079  38.934   9.953
87738W        W51297  42.808   5.270  12.510
87739W        W51298  17.269  33.073   2.809
87740W        W51299   5.921  11.741   1.787
87741W        W51300  22.111  44.316  13.981
87742W        W51301   4.826  12.337  12.475
87743W        W51302  43.821   0.795  14.478
87744W        W51303  26.694  30.098  14.785
87745W        W51304  14.264  13.294  12.002
87746W        W51305  15.088  18.706  11.429
87747W        W51306  29.668  10.173  10.979
87748W        W51307   9.861  32.501  13.892
87749W        W51308  19.104  44.798   2.252
87750W        W51309  16.810  42.934   3.795
87751W        W51310  35.466  40.391   4.820
87752W        W51311  11.712  35.906  11.081
87753W        W51312  41.537  11.269  12.419
87754W        W51313  23.150  43.448  14.937
87755W        W51314   0.493  42.369  13.542
87756W        W51315  16.642  21.131  11.991
87757W        W51316   1.899  34.493   1.770
87758W        W51317  40.948  19.133  12.424
87759W        W51318  31.403  23.151  14.388
87760W        W51319  44.765  35.963  12.011
87761W        W51320  34.870   7.262  11.597
87762W        W51321  20.033  38.934  13.349
87763W        W51322  17.282  24.095   2.378
87764W        W51323   1.343  40.360   0.410
87765W        W51324   8.815  13.681  11.955
87766W        W51325  13.117  15.107  14.023
87767W        W51326  16.746  36.433   0.445
87768W        W51327   7.709  23.535  13.332
87769W        W51328   5.299   1.284   3.721
87770W        W51329   2.391   6.787   0.327
87771W        W51330  18.157  27.084  10.929
87772W        W51331  15.755  33.012   9.964
87773W        W51332  22.088  39.840  10.995
87774W        W51333  33.470  17.690   4.710
87775W        W51334  32.890  25.106  10.959
87776W        W51335  23.147  23.577   0.915
87777W        W51336  20.029  33.038  14.973
87778W        W51337   3.335   5.379   0.911
87779W        W51338  25.031  19.642  12.479
87780W        W51339  25.546   4.832  14.491
87781W        W51340  18.700  36.984  14.909
87782W        W51341  43.453   3.288   2.845
87783W        W51342  26.117  38.820  13.380
87784W        W51343  24.690  13.805  11.968
87785W        W51344  21.163  30.643   2.690
87786W        W51345  34.587   9.813  13.376
87787W        W51346  24.711  18.666   1.815
87788W        W51347  28.629  11.725  12.519
87789W        W51348  26.132  26.616   0.462
87790W        W51349  27.509  19.761   4.182
87791W        W51350  42.515  40.962   0.788
87792W        W51351  15.240  26.034   1.323
87793W        W51352  26.647  31.024  10.995
87794W        W51353  27.011  24.682   2.395
87795W        W51354  15.213  22.654  10.902
87796W        W51355  41.502  39.506   3.209
87797W        W51356  24.587   1.953  14.335
87798W        W51357  24.653  16.206   2.186
87799W        W51358  29.569  33.462   9.993
87800W        W51359  10.242  36.005   3.251
87801W        W51360  18.083  30.914   3.754
87802W        W51361  36.563  13.831   0.857
87803W        W51362  21.113  16.249   4.216
87804W        W51363  37.925   5.844   2.746
87805W        W51364  30.437   4.938   1.781
87806W        W51365  10.141  26.978   1.240
87807W        W51366  24.688  13.714   2.732
87808W        W51367  16.732   8.178   0.389
87809W        W51368   2.379  17.308  14.991
87810W        W51369  13.183  14.640  14.998
87811W        W51370   4.229   9.219   3.225
87812W        W51371  16.180   8.770   2.189
87813W        W51372  43.913  13.787   1.249
87814W        W51373  42.004  42.818  13.802
87815W        W51374  44.326  44.293   0.960
87816W        W51375  23.139  23.090   2.179
87817W        W51376  34.015  32.029  13.415
87818W        W51377  36.442  44.290   2.831
87819W        W51378  37.410  38.031  12.067
87820W        W51379  16.581   0.475  14.782
87821W        W51380  22.035   4.296   1.411
87822W        W51381  35.565  42.510  14.279
87823W        W51382  28.016   3.295   3.840
87824W        W51383  13.171  42.967   3.299
87825W        W51384  12.696   6.683   0.965
87826W        W51385  32.933   6.409   4.199
87827W        W51386  43.822  43.835   2.277
87828W        W51387   9.831  32.065  14.836
87829W        W51388  31.635  18.637   2.321
87830W        W51389  26.665   6.337  12.482
87831W        W51390   8.266  10.752  14.487
87832W        W51391   0.854  29.113  12.846
87833W        W51392  38.442  38.444   4.198
87834W        W51393  15.250   4.246  14.763
87835W        W51394  42.958   8.276   3.158
87836W        W51395  29.096  11.286  14.472
87837W        W51396  15.138  39.388   0.255
87838W        W51397  40.832  12.143   3.277
87839W        W51398   7.256  25.029   2.815
87840W        W51399  41.334  11.834  14.830
87841W        W51400  31.558   3.220   0.752
87842W        W51401   9.331  40.477   3.650
87843W        W51402  29.608  22.010  11.018
87844W        W51403  13.701  18.562   2.348
87845W        W51404  40.009  41.866  14.805
87846W        W51405  36.034   8.359  14.342
87847W        W51406  16.656   5.931   1.322
87848W        W51407  33.453  28.489  13.359
87849W        W51408  31.924  40.810  14.867
87850W        W51409  39.881  36.009   0.453
87851W        W51410  24.707   2.361  13.369
87852W        W51411  21.578  34.924   0.412
87853W        W51412  31.983  28.035   4.219
87854W        W51413  20.641  17.555  11.952
87855W        W51414  12.223  26.116   0.334
87856W        W51415  10.230   1.784  11.051
87857W        W51416   2.472   3.295  10.974
87858W        W51417   2.469  20.683   0.437
87859W        W51418  35.517  38.568  12.842
87860W        W51419   0.360  42.807  14.350
87861W        W51420  35.411  30.148  11.021
87862W        W51421  12.120  26.170   2.882
87863W        W51422  31.099   9.763  12.560
87864W        W51423   3.887   5.828  11.564
87865W        W51424  23.078  22.222  14.791
87866W        W51425   8.190   2.352   0.755
87867W        W51426  34.933  39.546  13.940
87868W        W51427   1.846  42.307  13.993
87869W        W51428  26.971  34.077  14.414
87870W        W51429   7.695   0.828   2.681
87871W        W51430  14.720   9.861   2.419
87872W        W51431  28.513  29.576   1.321
87873W        W51432  22.242   3.321  11.127
87874W        W51433  16.212  14.257  13.948
87875W        W51434  10.649  21.125   2.876
87876W        W51435   4.794  24.658  11.109
87877W        W51436  40.322  27.098  12.373
87878W        W51437  36.396   0.276   4.824
87879W        W51438  32.631  27.974  14.992
87880W        W51439  44.978  15.325   0.822
87881W        W51440  37.836   4.255   4.786
87882W        W51441   8.792  20.648  11.481
87883W        W51442  35.038  21.201  12.525
87884W        W51443  38.825  17.264   1.210
87885W        W51444  17.720  17.107  13.855
87886W        W51445  27.154  44.831   3.648
87887W        W51446  38.073  44.371  11.527
87888W        W51447  37.849  38.044   0.912
87889W        W51448  44.995  43.837   0.258
87890W        W51449  17.202  10.300   1.777
87891W        W51450   4.892   1.312  10.036
87892W        W51451  15.263   2.823   0.455
87893W        W51452  35.074  24.989   1.752
87894W        W51453  37.058  14.177  10.995
87895W        W51454   1.456   3.287   0.759
87896W        W51455  41.878  44.284   1.291
87897W        W51456  25.135  19.565   3.191
87898W        W51457   3.370   5.371   4.243
87899W        W51458   8.396  44.481  10.574
87900W        W51459  42.492   2.817   4.312
87901W        W51460  23.716  23.028   2.744
87902W        W51461  30.648  43.871   0.376
87903W        W51462  27.084  11.746  14.028
87904W        W51463   9.717  10.383  10.594
87905W        W51464   8.837  30.116  11.975
87906W        W51465  39.052  28.045   3.241
87907W        W51466  35.910  25.090  12.988
87908W        W51467  20.536  37.968  11.453
87909W        W51468  12.660  23.581  13.316
87910W        W51469  28.094  17.689   1.885
87911W        W51470  43.967  42.960   2.733
87912W        W51471  35.052  37.578   1.443
87913W        W51472  41.964  31.574  11.512
87914W        W51473  44.818  24.182  14.799
87915W        W51474  14.157  27.548  13.361
87916W        W51475  16.267  25.547   9.451
87917W        W51476  35.501  36.921  13.888
87918W        W51477  12.296  14.337   5.683
87919W        W51478   8.806  43.446  12.079
87920W        W51479  33.109  35.374   4.235
87921W        W51480  36.055  17.632  13.394
87922W        W51481  15.793   1.968  10.092
87923W        W51482  24.530  44.410   2.350
87924W        W51483   2.439  23.682  12.869
87925W        W51484  28.663   1.945   3.220
87926W        W51485  17.755  22.116  12.395
87927W        W51486  14.250   9.197   2.273
87928W        W51487  39.965   2.942   1.894
87929W        W51488   9.179  41.856  14.791
87930W        W51489  44.928  44.299  11.379
87931W        W51490  19.184   2.472   2.824
87932W        W51491  43.503   2.377  14.454
87933W        W51492  10.225   2.804   0.430
87934W        W51493  25.713  12.696   0.742
87935W        W51494  41.896  33.983  13.485
87936W        W51495  11.347  12.764   2.191
87937W        W51496  18.589   3.435  11.897
87938W        W51497  41.384  24.192  12.967
87939W        W51498   5.706  44.766   0.281
87940W        W51499  15.253  32.033   1.865
87941W        W51500  38.339  35.443   9.617
87942W        W51501  44.760  28.164   4.283
87943W        W51502  38.860  28.479  12.339
87944W        W51503  41.884  13.722   1.708
87945W        W51504   1.325   4.910  12.526
87946W        W51505  20.124  16.266   1.276
87947W        W51506  29.066   2.765  14.833
87948W        W51507  30.453  30.621   1.342
87949W        W51508  28.944  31.627   1.388
87950W        W51509  16.756  18.206   4.703
87951W        W51510  37.906  23.056  14.944
87952W        W51511  25.510  36.450   3.867
87953W        W51512  20.051  24.674  12.457
87954W        W51513  41.484  22.072   1.740
87955W        W51514  39.314  40.922  12.861
87956W        W51515  22.746  23.575  11.405
87957W        W51516   0.298  29.028  12.531
87958W        W51517  41.340  41.951   4.824
87959W        W51518  11.865  24.511   0.758
87960W        W51519  19.645  13.320   2.900
87961W        W51520  27.960  41.926   2.398
87962W        W51521  35.056  41.390  11.610
87963W        W51522  14.750  10.802  10.462
87964W        W51523  33.911  15.221  10.633
87965W        W51524   3.828  39.470  11.069
87966W        W51525  37.516   2.802   1.320
87967W        W51526  10.827  25.149  12.460
87968W        W51527  14.800   0.352   3.213
87969W        W51528  22.584  20.579   0.402
87970W        W51529  27.611  36.447  14.464
87971W        W51530  23.114  43.966  13.421
87972W        W51531  37.859  40.986  10.415
87973W        W51532   6.392   3.365   0.424
87974W        W51533  20.173  24.661  13.532
87975W        W51534   3.847   9.307  14.834
87976W        W51535  21.744  42.791   0.899
87977W        W51536  19.611   4.741  10.996
87978W        W51537  39.521  34.586   3.866
87979W        W51538  33.425   4.336   4.714
87980W        W51539  22.020  19.655  13.317
87981W        W51540   5.370   2.442   3.283
87982W        W51541  21.174  12.816  10.623
87983W        W51542  20.597  32.408   2.729
87984W        W51543  25.603  13.756   0.400
87985W        W51544   4.912  27.634  13.495
87986W        W51545  36.473   7.745   3.340
87987W        W51546  23.198  23.646   4.716
87988W        W51547  41.830  10.799   3.343
87989W        W51548  12.701  10.230  10.542
87990W        W51549   9.839  31.437   3.225
87991W        W51550  32.477  21.040   0.804
87992W        W51551  27.678  43.513   2.711
87993W        W51552  10.725  44.383  11.607
87994W        W51553  12.794  23.198  11.491
87995W        W51554  15.330  21.152   4.232
87996W        W51555  33.545  29.458   2.203
87997W        W51556   8.750  34.493  10.627
87998W        W51557  19.610  10.822  14.442
87999W        W51558  41.006  40.008  10.445
88000W        W51559   9.882  40.916  14.760
88001W        W51560  39.335   2.806  11.066
88002W        W51561  40.978  34.939   1.267
88003W        W51562  38.413  37.376  11.058
88004W        W51563   8.682  19.770  14.498
88005W        W51564  13.155  41.336  10.437
88006W        W51565   0.969  19.769  10.418
88007W        W51566  40.029   6.256  14.344
88008W        W51567  12.636   8.866  14.942
88009W        W51568   5.404  43.902   4.598
88010W        W51569  13.624   0.443   4.684
88011W        W51570  26.540  24.191   2.390
88012W        W51571  18.101   8.306  12.456
88013W        W51572  24.530  30.951   2.393
88014W        W51573  15.324  10.260   4.291
88015W        W51574  23.665   2.721   2.293
88016W        W51575  25.049  33.607   1.249
88017W        W51576  30.441  42.846  13.311
88018W        W51577  41.861  43.274   0.940
88019W        W51578  33.951  37.535  10.136
88020W        W51579  23.497  10.847   2.221
88021W        W51580  34.404  11.144   0.928
88022W        W51581  21.059  30.993  12.535
88023W        W51582   4.933  30.032  10.949
88024W        W51583  40.422   7.805   3.710
88025W        W51584  24.712  35.445  10.600
88026W        W51585  34.060  30.119  12.499
88027W        W51586  33.070  20.029  11.386
88028W        W51587   1.388  16.773  14.838
88029W        W51588  40.376  34.102   1.238
88030W        W51589   1.281  43.350   3.153
88031W        W51590  39.825   2.775   2.409
88032W        W51591  11.690   7.186  14.278
88033W        W51592   9.333   0.760  11.898
88034W        W51593  30.040  28.057  10.928
88035W        W51594  29.172  25.082   4.116
88036W        W51595  28.671  24.513   2.311
88037W        W51596  43.000   3.329  14.440
88038W        W51597  17.717  12.140  12.080
88039W        W51598   8.863  33.950  13.477
88040W        W51599  17.081  11.863  14.311
88041W        W51600  43.424   9.667   0.451
88042W        W51601  21.111  20.724  11.065
88043W        W51602  40.878  39.984   0.784
88044W        W51603  28.974  39.906  10.423
88045W        W51604  21.077  20.688  13.928
88046W        W51605  39.830  30.520   0.262
88047W        W51606  26.562  20.585  12.372
88048W        W51607  18.208  15.642  14.417
88049W        W51608  19.540  25.516   1.343
88050W        W51609  35.565  23.607   0.943
88051W        W51610  10.651  29.142   2.809
88052W        W51611   1.893  10.680  10.586
88053W        W51612  28.058  19.579  12.407
88054W        W51613  16.697  34.886  11.023
88055W        W51614   0.481  41.382   1.728
88056W        W51615  12.133  22.199   3.796
88057W        W51616  24.984   8.225   9.954
88058W        W51617   3.235   1.732   2.807
88059W        W51618  32.540  26.606  10.888
88060W        W51619  10.284  29.546   3.693
88061W        W51620  17.115  31.512  11.048
88062W        W51621  33.883  28.005  10.018
88063W        W51622  38.564  21.709  10.933
88064W        W51623   1.455  24.616  14.471
88065W        W51624   7.209  40.972   1.290
88066W        W51625  20.759   2.455   4.665
88067W        W51626  44.295  41.337  14.789
88068W        W51627  36.861  27.965  12.954
88069W        W51628  12.767  36.395   0.425
88070W        W51629   5.397  13.744  12.883
88071W        W51630  35.055   3.763  12.423
88072W        W51631   8.732  31.011   3.151
88073W        W51632  13.256   3.360  11.934
88074W        W51633  29.120  19.158   2.849
88075W        W51634   1.454  11.852   1.924
88076W        W51635   3.429   9.880   1.794
88077W        W51636  12.266  41.370  11.888
88078W        W51637   2.951   6.183   2.353
88079W        W51638  34.507  40.906   3.288
88080W        W51639  27.159  18.111  13.475
88081W        W51640   9.675   7.704   3.859
88082W        W51641  40.891  38.979  10.472
88083W        W51642  29.927  35.546   0.362
88084W        W51643  35.495   7.309   1.739
88085W        W51644  22.093  36.959   4.703
88086W        W51645  13.339   8.860  11.424
88087W        W51646  29.074  11.659   4.639
88088W        W51647   7.890   7.809  13.822
88089W        W51648  28.173  33.527   0.380
88090W        W51649  16.157  20.086  12.001
88091W        W51650  38.884  13.154  11.972
88092W        W51651   3.420   6.412   4.169
88093W        W51652   1.772  14.594  10.970
88094W        W51653   1.790  30.123   1.283
88095W        W51654  33.476  43.935   0.830
88096W        W51655  29.144  25.487  13.465
88097W        W51656   3.223  12.707  12.540
88098W        W51657  24.989  21.262   1.765
88099W        W51658   0.747   3.279  14.917
88100W        W51659  33.413  21.678   3.686
88101W        W51660  44.410   4.914  13.454
88102W        W51661  17.300  41.355   2.412
88103W        W51662  20.608   2.776   1.389
88104W        W51663  10.184  32.559  11.466
88105W        W51664  13.830  39.854   3.647
88106W        W51665   2.946  11.648   4.672
88107W        W51666  40.455  15.757   0.465
88108W        W51667  38.994   7.678  13.494
88109W        W51668  42.032  34.982   0.433
88110W        W51669  23.685  23.638   5.095
88111W        W51670  24.662  28.085   3.258
88112W        W51671  11.232  21.106   3.173
88113W        W51672   2.931  11.809   2.417
88114W        W51673   9.371  16.582  10.480
88115W        W51674  44.301  21.132  13.897
88116W        W51675   6.710   8.313  14.279
88117W        W51676   8.379  22.559   2.385
88118W        W51677  24.573  41.855   0.267
88119W        W51678   8.171  28.498  11.433
88120W        W51679  38.026  10.729  10.404
88121W        W51680   3.263  21.685  11.450
88122W        W51681  31.139   3.241  10.095
88123W        W51682  20.621  29.068  11.054
88124W        W51683  21.104  29.170   5.243
88125W        W51684  21.149  27.549   3.785
88126W        W51685  24.132  25.058  11.044
88127W        W51686  23.072  33.588  10.440
88128W        W51687  14.766  12.755  14.970
88129W        W51688  19.711  23.632  13.345
88130W        W51689  32.098  36.885  10.128
88131W        W51690   3.268  42.847   4.232
88132W        W51691  17.791  18.102  14.804
88133W        W51692  17.557  13.308  12.502
88134W        W51693   3.432  31.909   4.223
88135W        W51694  16.576  41.490  11.398
88136W        W51695  44.402  33.034  11.908
88137W        W51696  11.323   2.276  14.933
88138W        W51697  13.129  23.010  13.033
88139W        W51698  29.462  16.569  10.437
88140W        W51699  40.001  28.634  10.939
88141W        W51700  25.650  40.825   4.606
88142W        W51701  16.161  14.201   4.142
88143W        W51702  24.627  20.123   0.337
88144W        W51703  30.017  18.137   4.317
88145W        W51704  44.281  15.718   3.733
88146W        W51705  19.213  26.965  10.532
88147W        W51706  24.060  13.629  13.360
88148W        W51707  20.582   2.255   3.147
88149W        W51708  10.813   0.315   2.735
88150W        W51709  43.869  31.081   0.454
88151W        W51710   2.443  24.113   4.184
88152W        W51711  18.754  35.045   5.284
88153W        W51712  14.636   9.655  10.958
88154W        W51713  30.555  15.811  10.908
88155W        W51714  17.733   7.701   1.846
88156W        W51715  34.013  24.111   0.315
88157W        W51716  21.215  16.724   2.401
88158W        W51717  19.543   9.829  11.869
88159W        W51718  11.694  32.401  12.033
88160W        W51719  27.615   3.779   1.807
88161W        W51720   0.326  41.789   2.184
88162W        W51721  44.910   0.321   0.331
88163W        W51722  14.120   1.837   4.338
88164W        W51723  38.961  29.577   0.247
88165W        W51724  37.875  28.125   2.210
88166W        W51725  26.980  11.761   2.854
88167W        W51726   8.740  13.732  13.036
88168W        W51727  34.452  28.132   2.859
88169W        W51728   0.454  11.353   1.347
88170W        W51729  32.898  20.664  14.926
88171W        W51730   8.663  38.498   3.853
88172W        W51731  21.534   4.340  12.022
88173W        W51732   9.337   3.850   0.481
88174W        W51733  24.131   8.706   0.368
88175W        W51734  38.516  17.077  11.496
88176W        W51735  22.736  34.431   2.315
88177W        W51736   9.653  37.577   2.347
88178W        W51737  17.722   6.185   2.179
88179W        W51738  38.974  10.331  14.318
88180W        W51739  37.024  30.035  14.340
88181W        W51740   6.292  27.941   3.788
88182W        W51741   9.240  16.096  14.032
88183W        W51742  40.837  32.487   4.303
88184W        W51743  14.160  37.578   1.391
88185W        W51744  32.452  36.945  13.498
88186W        W51745   1.821  42.956   3.202
88187W        W51746  41.445  43.845   0.344
88188W        W51747  40.402  28.627  13.323
88189W        W51748  16.299  10.283  10.495
88190W        W51749   1.934  14.325  12.971
88191W        W51750  19.122  19.248   1.290
88192W        W51751  44.466  25.576   2.342
88193W        W51752  23.605  23.064   3.238
88194W        W51753  11.261   4.847  11.035
88195W        W51754  10.197   9.353  12.975
88196W        W51755  40.423   8.781   5.219
88197W        W51756  41.970  27.157   2.334
88198W        W51757  15.281  21.048  12.883
88199W        W51758  43.989  31.972   4.679
88200W        W51759  40.824  25.029  12.058
88201W        W51760  30.583  39.911  12.573
88202W        W51761  28.590  33.952  12.881
88203W        W51762  18.139  21.029   0.406
88204W        W51763   3.779  15.797  14.762
88205W        W51764   4.897  17.792  10.580
88206W        W51765  28.437   4.700   3.341
88207W        W51766  38.462   3.726  13.316
88208W        W51767  20.164  42.836  13.445
88209W        W51768  14.314  44.315  13.503
88210W        W51769  41.371   2.453  13.533
88211W        W51770  16.093   9.312   1.791
88212W        W51771   1.455  12.337  12.458
88213W        W51772  37.960   7.831   4.637
88214W        W51773  35.398  26.079  11.509
88215W        W51774  31.933  20.528  13.490
88216W        W51775  38.402  11.866   1.802
88217W        W51776  13.143  16.154  11.377
88218W        W51777  39.007  30.635   2.185
88219W        W51778  33.485  23.237  10.475
88220W        W51779  31.934  39.327  14.840
88221W        W51780   1.365  40.022  12.895
88222W        W51781  19.167  28.019  14.794
88223W        W51782  37.944  13.128   1.742
88224W        W51783  21.161  13.817  10.502
88225W        W51784  33.032   7.299   4.597
88226W        W51785   3.448  34.097  11.073
88227W        W51786  44.484  36.422  11.010
88228W        W51787  39.968  28.072  14.904
88229W        W51788  10.783  21.602  10.557
88230W        W51789  29.133   7.720   0.931
88231W        W51790  39.536  22.235   0.919
88232W        W51791  13.651  15.134  14.305
88233W        W51792   0.835   1.481   0.381
88234W        W51793  30.560  12.805   4.624
88235W        W51794   3.460  39.874  13.821
88236W        W51795  30.060  26.689   1.752
88237W        W51796  17.204  41.338   9.979
88238W        W51797  26.189   2.877   0.476
88239W        W51798  33.461  25.563  13.902
88240W        W51799   3.237   9.277   1.216
88241W        W51800   1.300  19.179  12.882
88242W        W51801  18.065  16.640  13.505
88243W        W51802  22.168  32.510   4.126
88244W        W51803  27.663  35.591   4.754
88245W        W51804  35.463  20.668  12.346
88246W        W51805   8.887   9.649   0.302
88247W        W51806  31.143  19.753  10.408
88248W        W51807  29.964   3.378   0.891
88249W        W51808   6.268  14.207  11.506
88250W        W51809   4.833  25.532   4.772
88251W        W51810  35.486  26.680  11.028
88252W        W51811  21.617  19.545   1.326
88253W        W51812  11.354   7.838   0.269
88254W        W51813  21.124  18.061   0.784
88255W        W51814   9.191   9.153   0.334
88256W        W51815   4.852   8.340   2.893
88257W        W51816   1.360  13.152  14.986
88258W        W51817  14.173  35.536   9.611
88259W        W51818  21.050  36.046  12.075
88260W        W51819   1.817  24.488  10.529
88261W        W51820  30.144   2.334  14.488
88262W        W51821  42.984   9.669  10.590
88263W        W51822  26.953  24.009   1.712
88264W        W51823   1.374  26.958   4.627
88265W        W51824  21.122  25.061   3.385
88266W        W51825   7.357  12.182  13.894
88267W        W51826   8.799  22.625   2.342
88268W        W51827  10.194  27.159  12.867
88269W        W51828  32.392  41.493  14.516
88270W        W51829   8.747   7.807  11.388
88271W        W51830  39.924  16.214  12.906
88272W        W51831  12.680   8.309   0.894
88273W        W51832  25.580  21.720   5.582
88274W        W51833  25.578  27.474  11.453
88275W        W51834   6.891  36.906  12.533
88276W        W51835  29.658   0.983   3.676
88277W        W51836  41.466  38.969  10.999
88278W        W51837  19.541  38.477   2.697
88279W        W51838  21.110  42.820   3.804
88280W        W51839  18.283  31.025  10.541
88281W        W51840  39.555  12.330  10.920
88282W        W51841  40.991   5.345   3.835
88283W        W51842   2.858  18.682   0.382
88284W        W51843  10.698  16.195   1.905
88285W        W51844  40.840  17.096   4.646
88286W        W51845  27.117  12.353   3.651
88287W        W51846   2.277  38.513   3.252
88288W        W51847  31.960  27.006  12.963
88289W        W51848  14.589  14.697   4.146
88290W        W51849  31.478  41.856  12.838
88291W        W51850   5.336   4.226   4.636
88292W        W51851  36.375  39.883  12.339
88293W        W51852   3.767  41.476  12.392
88294W        W51853  33.999   4.700   2.874
88295W        W51854  19.234   4.901   0.319
88296W        W51855  32.956   9.748   1.859
88297W        W51856  34.542  11.159  11.040
88298W        W51857  33.456  13.174  14.971
88299W        W51858  36.020  24.724  12.983
88300W        W51859   7.751  18.554  13.486
88301W        W51860   8.178   7.177   3.686
88302W        W51861  16.272  20.571   4.336
88303W        W51862  14.830  20.216   2.196
88304W        W51863  32.074  12.805   2.210
88305W        W51864   8.380   5.383   0.788
88306W        W51865   1.399  30.562   4.641
88307W        W51866  15.266   5.749   2.812
88308W        W51867  42.980  33.509  11.496
88309W        W51868  33.977  17.699   1.283
88310W        W51869  20.142  40.871   4.226
88311W        W51870  21.087   4.292   4.338
88312W        W51871  23.623  11.683  10.892
88313W        W51872  36.576  30.505   4.823
88314W        W51873   4.836  33.618  10.422
88315W        W51874  41.009  33.437   1.417
88316W        W51875  19.622   4.285   2.903
88317W        W51876   5.777  32.999   1.336
88318W        W51877  38.340  31.569   9.985
88319W        W51878   7.348  14.287   4.613
88320W        W51879  29.546  11.338  13.980
88321W        W51880  42.310   5.921  11.946
88322W        W51881  29.936  28.976   3.870
88323W        W51882  22.745   8.733  12.834
88324W        W51883   5.910   8.761  11.921
88325W        W51884  12.298  20.580   1.284
88326W        W51885  38.470  16.622  12.983
88327W        W51886  13.159  18.709   4.345
88328W        W51887   7.758  14.819   0.463
88329W        W51888  38.463   9.773  10.930
88330W        W51889  21.726   3.334  13.995
88331W        W51890  22.744  23.117   1.768
88332W        W51891  12.696  41.884  11.112
88333W        W51892  37.074  27.573  14.442
88334W        W51893  18.610  34.576  10.119
88335W        W51894  39.010  18.557   4.353
88336W        W51895  29.538  38.012   2.722
88337W        W51896  34.484  26.598   2.323
88338W        W51897  29.626  33.877   1.451
88339W        W51898  37.003  21.633   3.723
88340W        W51899  27.450  16.242  11.913
88341W        W51900  27.579  42.467   2.666
88342W        W51901   9.339  44.434  10.535
88343W        W51902  34.864  31.604  10.457
88344W        W51903  24.132   0.353   3.268
88345W        W51904  19.764   5.353  13.923
88346W        W51905  25.688   2.916  11.955
88347W        W51906  25.704  24.538  13.838
88348W        W51907   3.952  11.790  10.908
88349W        W51908  17.754  15.778  11.524
88350W        W51909  23.523   3.948   3.713
88351W        W51910  32.078  20.032  10.607
88352W        W51911  27.677   8.374   1.392
88353W        W51912  44.918  27.196  13.883
88354W        W51913  44.991  12.127  13.985
88355W        W51914  12.804  12.224   4.626
88356W        W51915  40.402  37.946   4.615
88357W        W51916  38.856   5.424  14.427
88358W        W51917  18.221  24.608  13.920
88359W        W51918  36.057   5.261  12.470
88360W        W51919  32.595   7.726   0.323
88361W        W51920  38.885   6.828   3.699
88362W        W51921   6.767   0.351   0.891
88363W        W51922  26.487  17.644   2.319
88364W        W51923  20.716  43.798   2.814
88365W        W51924   8.712  41.340  10.561
88366W        W51925  13.333  34.919  14.513
88367W        W51926  42.918  12.258  11.057
88368W        W51927  24.533  40.019  14.922
88369W        W51928  28.968  12.844   3.855
88370W        W51929  35.070  15.802  10.954
88371W        W51930  21.522  19.644   4.773
88372W        W51931  27.997  44.355  12.990
88373W        W51932  10.815  30.503   2.689
88374W        W51933  37.502   3.377   2.198
88375W        W51934   4.383  32.540  10.959
88376W        W51935  25.582  13.229  11.502
88377W        W51936  15.799  21.161   0.835
88378W        W51937   7.898  29.108  11.563
88379W        W51938  13.761  43.341   0.951
88380W        W51939   3.305  14.737   1.895
88381W        W51940  28.510  37.507   3.824
88382W        W51941  43.394   8.301  10.581
88383W        W51942  40.897  27.483  13.919
88384W        W51943  21.615  41.806  14.010
88385W        W51944  13.748  24.695   2.301
88386W        W51945  23.682   7.305  13.045
88387W        W51946  27.500  14.727   0.908
88388W        W51947   1.959   3.946  12.435
88389W        W51948  20.262  15.148   0.466
88390W        W51949   6.275  11.856   3.265
88391W        W51950  38.945   4.699   2.687
88392W        W51951  16.129  37.984  12.477
88393W        W51952  14.194   1.352  14.966
88394W        W51953  20.066  12.748  10.626
88395W        W51954   1.952  27.172   3.367
88396W        W51955  33.985   3.823   2.229
88397W        W51956   5.279  15.807   0.831
88398W        W51957  35.444  39.483   0.275
88399W        W51958  24.648   6.874  11.517
88400W        W51959  21.080  37.529   1.315
88401W        W51960  31.927  29.585  12.576
88402W        W51961  26.972  28.460   2.218
88403W        W51962  28.584  19.760   0.874
88404W        W51963  24.974   5.403  14.031
88405W        W51964  33.558  33.488  10.952
88406W        W51965   4.244  29.480   0.443
88407W        W51966  31.045  16.812  12.879
88408W        W51967  13.763   9.647   3.284
88409W        W51968  38.433  27.972   4.748
88410W        W51969   3.766  14.215  11.882
88411W        W51970  23.540  28.563  12.389
88412W        W51971  20.162  31.514  14.832
88413W        W51972  37.354   9.339  11.919
88414W        W51973   7.698   3.352  11.423
88415W        W51974  30.938  17.227  12.823
88416W        W51975   7.782  42.956  12.857
88417W        W51976  35.107   9.284  13.537
88418W        W51977  32.917  29.155   2.217
88419W        W51978   3.397  43.464   3.819
88420W        W51979  27.118  42.407  12.348
88421W        W51980  44.307  31.552  14.461
88422W        W51981  44.344   4.340   2.878
88423W        W51982  25.637  28.063   3.683
88424W        W51983  15.187  28.997  13.855
88425W        W51984  16.616  13.738   4.701
88426W        W51985   7.319  31.902   3.378
88427W        W51986  15.175   3.742   3.149
88428W        W51987   3.755  10.249  12.530
88429W        W51988  26.098  20.148  13.479
88430W        W51989  42.809  20.050  13.044
88431W        W51990  25.588  31.069  11.427
88432W        W51991  23.093  19.138  10.445
88433W        W51992  27.629  28.036  12.988
88434W        W51993  19.054  35.047   1.424
88435W        W51994  29.596  12.638  10.413
88436W        W51995  22.528  39.010   0.466
88437W        W51996  34.105  20.607  13.539
88438W        W51997  18.209  42.371   0.264
88439W        W51998  27.020  23.101  11.609
88440W        W51999   1.283  17.572   1.882
88441W        W52000   6.733  35.578  13.906
88442W        W52001  24.549  11.366   1.291
88443W        W52002  43.495   7.235  14.826
88444W        W52003  10.703  42.917   3.639
88445W        W52004  10.851   2.869   3.690
88446W        W52005  28.147  43.440  10.605
88447W        W52006   1.805   9.838   3.683
88448W        W52007  36.054  13.687  11.083
88449W        W52008   7.232  11.167  14.771
88450W        W52009   7.793   1.851   3.309
88451W        W52010  13.760  41.984   2.852
88452W        W52011   3.882   2.419   2.671
88453W        W52012  19.718  44.452   3.771
88454W        W52013   7.864  14.603  10.983
88455W        W52014  34.533  38.469  13.983
88456W        W52015  13.230  31.898   1.402
88457W        W52016  34.586   9.351  11.417
88458W        W52017  17.671   0.966   1.871
88459W        W52018  17.131  10.723   1.337
88460W        W52019  29.455  42.419   2.867
88461W        W52020  37.527  37.946   2.242
88462W        W52021   7.736  43.015  10.467
88463W        W52022   5.925  44.884   3.265
88464W        W52023  13.174  10.875  10.408
88465W        W52024  33.406  35.570   3.761
88466W        W52025  37.015   4.279  11.971
88467W        W52026  11.139  14.801  10.511
88468W        W52027  40.322  40.987  12.443
88469W        W52028  41.363  23.127  11.038
88470W        W52029   0.454  28.464   1.377
88471W        W52030  39.357  13.612   3.690
88472W        W52031  42.873  39.836  10.030
88473W        W52032   3.454   0.393   4.619
88474W        W52033   7.412   4.242  13.910
88475W        W52034  23.735  22.608  11.407
88476W        W52035  27.531   8.169   3.829
88477W        W52036  13.308  27.589   0.936
88478W        W52037  16.676  37.423  11.472
88479W        W52038   7.409  23.644   3.865
88480W        W52039  22.241  32.948   4.758
88481W        W52040   0.267  28.168  13.474
88482W        W52041  38.822  20.056  13.860
88483W        W52042  14.138  15.203   3.155
88484W        W52043  14.657  16.132   3.159
88485W        W52044  19.629  20.748  11.568
88486W        W52045  20.219  18.050   0.959
88487W        W52046  30.636  36.925  13.496
88488W        W52047  14.821   8.216  14.897
88489W        W52048  21.530  34.587  11.389
88490W        W52049  28.676  12.121  13.862
88491W        W52050  38.392  31.092  12.895
88492W        W52051  34.951  23.507  11.862
88493W        W52052  44.335  19.155   2.214
88494W        W52053  29.151   3.225  14.878
88495W        W52054   0.847  40.917   3.338
88496W        W52055   2.730   6.228  11.580
88497W        W52056  11.373  25.195   1.850
88498W        W52057  21.170  30.522   3.210
88499W        W52058  36.512  31.468  13.409
88500W        W52059   8.678  25.006  12.349
88501W        W52060  34.021  31.484  12.542
88502W        W52061   9.648  28.623  13.867
88503W        W52062  30.012   5.193   2.704
88504W        W52063  18.788  10.203  11.442
88505W        W52064  36.897   5.383   1.419
88506W        W52065  19.562  39.557  12.471
88507W        W52066   2.437  28.035   1.316
88508W        W52067  40.354   3.950  14.988
88509W        W52068  11.359  31.514   1.740
88510W        W52069  20.591   4.265  11.596
88511W        W52070   4.434   1.306   2.330
88512W        W52071  32.552  20.165   0.770
88513W        W52072  41.417  42.923   3.831
88514W        W52073  32.047  18.705  14.304
88515W        W52074   2.737  36.892  14.392
88516W        W52075  24.071  39.814  12.443
88517W        W52076  11.682  27.110   0.387
88518W        W52077  36.003  18.185   3.771
88519W        W52078  34.977  37.873   2.325
88520W        W52079  32.049  33.575  11.064
88521W        W52080  43.395  34.379  14.867
88522W        W52081  22.599  14.218   9.922
88523W        W52082  44.933   5.880   2.758
88524W        W52083  16.794  17.676  10.932
88525W        W52084  35.877  31.620   1.791
88526W        W52085   1.906  41.952   4.210
88527W        W52086  41.480  27.469  12.949
88528W        W52087   3.723   4.369  12.510
88529W        W52088  15.279  21.030   2.316
88530W        W52089  27.115  10.744   3.306
88531W        W52090  40.494   2.355  14.981
88532W        W52091   6.231  16.797   2.662
88533W        W52092  29.659   6.413   2.858
88534W        W52093  40.947  32.603  10.936
88535W        W52094   0.478  13.132  10.634
88536W        W52095  38.469   5.289  13.853
88537W        W52096  36.508  34.113   5.273
88538W        W52097   9.165  14.704  12.041
88539W        W52098  44.378   4.941  14.347
88540W        W52099   8.747  35.037  10.092
88541W        W52100  34.942  20.233  11.536
88542W        W52101  22.007  33.105  13.933
88543W        W52102   6.220   0.390   4.788
88544W        W52103  38.849  17.570   4.278
88545W        W52104   9.177  11.208   1.423
88546W        W52105  23.657  35.923   1.220
88547W        W52106  15.686  22.121  12.956
88548W        W52107  19.652  33.562  13.352
88549W        W52108  30.042  36.472  13.518
88550W        W52109  31.027   4.411  12.509
88551W        W52110  43.978  35.076   1.725
88552W        W52111  24.521  23.072   2.406
88553W        W52112  14.676  41.923  10.913
88554W        W52113  26.098  18.072  13.455
88555W        W52114  24.144  41.519  14.486
88556W        W52115  42.494  16.777   4.787
88557W        W52116  12.712  15.635  10.584
88558W        W52117  12.124   0.425  14.325
88559W        W52118  14.276   7.771  14.788
88560W        W52119  40.429   7.270   0.266
88561W        W52120  21.017  31.004  13.917
88562W        W52121  27.482  10.717  14.908
88563W        W52122  35.978  15.131  11.947
88564W        W52123  41.965  19.646   3.202
88565W        W52124  39.541  32.001   1.417
88566W        W52125  21.202  22.074  10.984
88567W        W52126   9.271  39.395  13.848
88568W        W52127  18.705  43.307  10.411
88569W        W52128  13.711   4.838  11.065
88570W        W52129  38.038   3.273  14.965
88571W        W52130  19.585  23.047   0.783
88572W        W52131  42.798  11.169   1.418
88573W        W52132  29.460   6.855   1.817
88574W        W52133  17.676  32.029   1.275
88575W        W52134   9.256  19.723   1.340
88576W        W52135   7.282  30.464  13.979
88577W        W52136   6.361  28.980   3.157
88578W        W52137  17.089   8.310   0.731
88579W        W52138   3.358  14.683   2.356
88580W        W52139  36.475  22.237   1.791
88581W        W52140   0.948   2.357  11.974
88582W        W52141  12.240  38.063   0.741
88583W        W52142   9.303   1.732   1.332
88584W        W52143  22.544   6.832   1.789
88585W        W52144  31.420  36.566  10.415
88586W        W52145  19.580  10.193  13.924
88587W        W52146   2.417   1.353  11.430
88588W        W52147  31.453  32.899   0.261
88589W        W52148  39.843  29.022  13.361
88590W        W52149  39.834   2.415  13.415
88591W        W52150  16.726  39.886  10.927
88592W        W52151  23.111   7.680  14.509
88593W        W52152  29.515  27.957  14.355
88594W        W52153  19.694  35.481  12.834
88595W        W52154  43.467  42.817  10.948
88596W        W52155  12.670  40.398  12.382
88597W        W52156  11.312  29.568  13.032
88598W        W52157  29.079  18.205   2.210
88599W        W52158  42.501  30.626   4.244
88600W        W52159   3.438  15.678   2.271
88601W        W52160  11.860   9.297  11.016
88602W        W52161  30.054  29.476  11.566
88603W        W52162  37.496   9.382   2.236
88604W        W52163  18.192  27.966   2.205
88605W        W52164  24.598   8.171  12.525
88606W        W52165  33.422  33.047   1.801
88607W        W52166  20.570  19.055   4.151
88608W        W52167  22.618  33.527   2.254
88609W        W52168  19.748   3.759  11.112
88610W        W52169  40.427  16.711   2.747
88611W        W52170   7.239  18.061  13.399
88612W        W52171  33.928  13.133   3.837
88613W        W52172  23.526   0.873  13.907
88614W        W52173  32.510  34.465  14.439
88615W        W52174  44.384  15.646   0.357
88616W        W52175  33.111  32.619   4.720
88617W        W52176   7.290  35.456   3.232
88618W        W52177  34.916  12.229  12.065
88619W        W52178  22.658   1.957  12.878
88620W        W52179  38.987  10.735   2.722
88621W        W52180   9.337  35.530   4.617
88622W        W52181  10.197  41.334  14.332
88623W        W52182  33.453  24.608   1.697
88624W        W52183  30.648  36.914  10.485
88625W        W52184  20.084  31.030  11.115
88626W        W52185  11.672  22.143   9.942
88627W        W52186  27.100  41.986  11.483
88628W        W52187  20.253  32.136  12.403
88629W        W52188  28.510  34.526  13.370
88630W        W52189  10.722  13.610  14.921
88631W        W52190   9.255  43.851  12.420
88632W        W52191   4.828  13.827   1.231
88633W        W52192  20.654  25.143  13.442
88634W        W52193  29.971   0.434   4.282
88635W        W52194  24.653   9.711   2.262
88636W        W52195  36.942   0.911  11.064
88637W        W52196  24.646  17.615   0.407
88638W        W52197  27.691  11.798  11.923
88639W        W52198  42.425  32.062   0.272
88640W        W52199  21.529  43.869  11.123
88641W        W52200   6.384   5.344   4.630
88642W        W52201   9.205  38.988  14.788
88643W        W52202   6.322  27.618  14.498
88644W        W52203  36.452  32.026   0.432
88645W        W52204  30.084  30.956   1.708
88646W        W52205   5.421  25.654   1.379
88647W        W52206  14.280  12.659   1.256
88648W        W52207  41.961   8.344  14.985
88649W        W52208  13.160  34.547   3.195
88650W        W52209  29.524  14.816   2.403
88651W        W52210  43.379   0.368  13.402
88652W        W52211  31.631  30.424   3.272
88653W        W52212   3.444  10.776   1.864
88654W        W52213  21.080   1.243   4.121
88655W        W52214  16.293  28.672   1.366
88656W        W52215  12.702   6.364  12.834
88657W        W52216  24.221  24.494  13.442
88658W        W52217  14.334  34.985  11.941
88659W        W52218  12.635  30.433  11.462
88660W        W52219  19.711   7.326  11.893
88661W        W52220  25.539  14.760  13.011
88662W        W52221   9.377  19.574   4.284
88663W        W52222  32.606  30.450   2.327
88664W        W52223  43.493   5.224   0.357
88665W        W52224  28.666  19.272  14.423
88666W        W52225  33.993  18.768   1.731
88667W        W52226  37.885  25.996   3.859
88668W        W52227  18.599  25.987   1.708
88669W        W52228  41.471  11.635   4.148
88670W        W52229   5.277  24.074  11.549
88671W        W52230  31.044  12.751   4.241
88672W        W52231  23.138  28.539  11.941
88673W        W52232  31.896  44.792  10.616
88674W        W52233  29.640  14.704   3.151
88675W        W52234  41.402  16.728  11.912
88676W        W52235  43.511  31.514   2.716
88677W        W52236  32.024  10.646   5.628
88678W        W52237  41.955  25.525   4.761
88679W        W52238  42.395  28.446   3.840
88680W        W52239  27.592   0.892   1.416
88681W        W52240  41.905   7.795  14.811
88682W        W52241  44.789  13.126   2.693
88683W        W52242  38.028  15.097  12.041
88684W        W52243  22.173   3.422   3.688
88685W        W52244  41.315  20.570   2.264
88686W        W52245   3.240  30.591   3.305
88687W        W52246  23.189   6.847  13.393
88688W        W52247  15.807  33.090  13.917
88689W        W52248  35.857   0.961   2.811
88690W        W52249  34.039  24.538   2.893
88691W        W52250  16.241   2.275   2.837
88692W        W52251  23.610  38.392  13.356
88693W        W52252  23.002  42.328   0.939
88694W        W52253  13.346  16.218  12.503
88695W        W52254   6.761  16.123   1.388
88696W        W52255   9.853   6.382  10.469
88697W        W52256  28.471   7.245   0.300
88698W        W52257  44.817  34.086   4.311
88699W        W52258   8.807  32.992   0.304
88700W        W52259  43.303  13.203   1.925
88701W        W52260  37.876  43.013   4.712
88702W        W52261  26.654  34.392  10.589
88703W        W52262  36.053   5.424   3.167
88704W        W52263  38.496  31.898  12.020
88705W        W52264   4.717  43.804  10.984
88706W        W52265  38.516  14.591   1.350
88707W        W52266  15.218   4.740   1.803
88708W        W52267   7.707  43.822   2.687
88709W        W52268   3.254  25.606  14.298
88710W        W52269  24.713  17.756   4.242
88711W        W52270  20.570  12.131   3.167
88712W        W52271   2.229   8.216  13.012
88713W        W52272  18.611  13.184  13.844
88714W        W52273  36.547   6.849   3.771
88715W        W52274  21.099   5.830  11.382
88716W        W52275   8.721  31.007   5.187
88717W        W52276  11.298  20.071  11.523
88718W        W52277  27.531  18.585  12.504
88719W        W52278   9.149  41.526  14.475
88720W        W52279  30.525  14.636   4.258
88721W        W52280  16.257  24.492  10.005
88722W        W52281   7.777  11.165  10.097
88723W        W52282  29.029  41.789   4.770
88724W        W52283   3.928  32.122   0.419
88725W        W52284  33.515  31.998   2.784
88726W        W52285  31.926   2.789  13.339
88727W        W52286  38.024  33.517  11.069
88728W        W52287  12.819  32.972  14.947
88729W        W52288  23.524  20.587  12.095
88730W        W52289  25.706   2.862  10.547
88731W        W52290  13.149  14.275   1.697
88732W        W52291   0.970  33.033   4.634
88733W        W52292  19.724   4.315  14.500
88734W        W52293  18.172  39.855  12.085
88735W        W52294  30.479  13.206   4.231
88736W        W52295  27.692   2.260  14.314
88737W        W52296  32.624  15.273   1.930
88738W        W52297  31.520  39.434  11.069
88739W        W52298  44.440  29.054   1.798
88740W        W52299  30.969   1.880   3.286
88741W        W52300   6.377  29.062  10.925
88742W        W52301  30.999  21.697   4.336
88743W        W52302  27.119  14.291   3.663
88744W        W52303  22.689  18.264   2.696
88745W        W52304   3.404  31.638  13.345
88746W        W52305   8.655  39.915  12.538
88747W        W52306  12.242  29.430  12.926
88748W        W52307  34.440  14.117   0.758
88749W        W52308  19.195  32.588   2.380
88750W        W52309  20.767   4.307   3.217
88751W        W52310  17.194  37.839  12.865
88752W        W52311  27.618  36.023  14.277
88753W        W52312  43.500  14.811   3.864
88754W        W52313  42.848  10.246  14.904
88755W        W52314   5.212   3.286  13.883
88756W        W52315  12.181  19.620  12.380
88757W        W52316   4.373  20.737  11.107
88758W        W52317  14.726  10.872  11.597
88759W        W52318  42.481  29.451   1.889
88760W        W52319  16.214  31.127   1.885
88761W        W52320  14.784  13.817  14.409
88762W        W52321  29.608  17.169  13.393
88763W        W52322  30.953  22.065  13.503
88764W        W52323  26.008  21.585   0.471
88765W        W52324  42.404  17.596  14.805
88766W        W52325  16.723  18.678  11.011
88767W        W52326  26.020  11.855  14.888
88768W        W52327   4.245  23.110  13.049
88769W        W52328  34.513   3.254   5.271
88770W        W52329  18.179  16.207   3.677
88771W        W52330  23.130  44.903   4.682
88772W        W52331  38.839  29.654   1.764
88773W        W52332  35.380  13.315   4.224
88774W        W52333   8.719   5.226   2.213
88775W        W52334  15.803   4.423   3.368
88776W        W52335  11.851  44.377   2.772
88777W        W52336  30.991  32.941  13.529
88778W        W52337  12.666  37.052   0.734
88779W        W52338  29.055  15.607  14.315
88780W        W52339  11.724  25.066  14.854
88781W        W52340  18.580  38.569   0.354
88782W        W52341  24.549  10.279   1.917
88783W        W52342   1.820  43.898   0.331
88784W        W52343  27.117  15.747  14.884
88785W        W52344   4.907  19.109  11.862
88786W        W52345  16.210  24.181   2.809
88787W        W52346  43.482  40.853  13.527
88788W        W52347  11.784  29.448   1.831
88789W        W52348  12.716  31.123  11.057
88790W        W52349  35.077  24.642   1.429
88791W        W52350  14.773  11.650  10.007
88792W        W52351   3.847  21.607  13.942
88793W        W52352   8.861  44.450   1.732
88794W        W52353  12.216  28.093  12.443
88795W        W52354  41.975  33.411   2.716
88796W        W52355   0.942   0.911  14.876
88797W        W52356  39.368  11.734   1.393
88798W        W52357  10.143   3.796  14.345
88799W        W52358  42.025   2.923  14.993
88800W        W52359  14.287  39.963   0.727
88801W        W52360  29.021  19.190   0.916
88802W        W52361  36.921  44.898   2.413
88803W        W52362   3.364  19.639   4.655
88804W        W52363  42.503  34.606   4.154
88805W        W52364  14.275  21.070  10.546
88806W        W52365   6.312   7.740  13.950
88807W        W52366  34.370  18.206  14.993
88808W        W52367  35.863  42.864  14.916
88809W        W52368  23.996  21.639   3.789
88810W        W52369  11.855  13.805   2.678
88811W        W52370  38.452   0.938   0.845
88812W        W52371  39.476  22.108  12.959
88813W        W52372   6.331  34.897  12.901
88814W        W52373  33.990   7.817   4.244
88815W        W52374   2.243  19.729   9.988
88816W        W52375   9.881  18.061  13.924
88817W        W52376  30.454  26.991   3.643
88818W        W52377  29.633  30.646  13.797
88819W        W52378  41.017  23.023   0.449
88820W        W52379   7.710   6.332  14.482
88821W        W52380  41.361   2.885  11.916
88822W        W52381  18.587  18.213   1.932
88823W        W52382  43.846   0.916   2.266
88824W        W52383  10.856  16.673   4.218
88825W        W52384  44.461  22.207   0.920
88826W        W52385   6.748  27.596   1.295
88827W        W52386  28.096   0.773   1.853
88828W        W52387  17.177  44.814  13.480
88829W        W52388  11.337   5.703  10.999
88830W        W52389   4.271   4.884   1.902
88831W        W52390  39.417  44.814   1.349
88832W        W52391  44.396  24.045  13.964
88833W        W52392   5.905   4.846   2.323
88834W        W52393   0.325   9.354   0.345
88835W        W52394  21.681  27.550  14.944
88836W        W52395   9.158  28.136  11.090
88837W        W52396  18.264  33.931  14.765
88838W        W52397  20.132  36.985  13.457
88839W        W52398  44.392  17.632   0.764
88840W        W52399  22.140  39.909   3.271
88841W        W52400  37.512  42.815   4.675
88842W        W52401  19.269  26.046  13.953
88843W        W52402  36.379  30.128   2.180
88844W        W52403  42.337   2.452  11.121
88845W        W52404  39.061  23.008  11.454
88846W        W52405   5.850  43.998  14.347
88847W        W52406  33.005  12.651  13.992
88848W        W52407  35.880  39.842  14.857
88849W        W52408  34.906  32.424   3.318
88850W        W52409   9.233  17.591  13.984
88851W        W52410  30.652  32.600  13.884
88852W        W52411  41.504  16.251   4.705
88853W        W52412  36.372  12.164  11.868
88854W        W52413  11.333   4.816   0.296
88855W        W52414  27.192  42.524   1.895
88856W        W52415  31.003  40.933  11.422
88857W        W52416  22.116  42.013   0.259
88858W        W52417  42.998  19.678  12.560
88859W        W52418   5.716  42.312   0.866
88860W        W52419  30.923   6.720   0.375
88861W        W52420  16.124  23.698   3.785
88862W        W52421   7.754   9.791  13.966
88863W        W52422   1.910   3.882  12.049
88864W        W52423  13.316  20.594  12.944
88865W        W52424  37.867  35.429  13.542
88866W        W52425  18.168  41.300  14.827
88867W        W52426  34.387   1.302  14.883
88868W        W52427  36.512  22.741  13.313
88869W        W52428  12.247  12.799  13.469
88870W        W52429  10.672  23.725  14.032
88871W        W52430  43.927  19.772   3.382
88872W        W52431   9.782   1.787  14.406
88873W        W52432   0.269  33.470   4.217
88874W        W52433  40.808  19.627   3.336
88875W        W52434  23.595   9.866   0.249
88876W        W52435  21.514   3.792  12.566
88877W        W52436  38.344  21.589   4.797
88878W        W52437  24.527  22.708   1.768
88879W        W52438  22.670  26.173   1.390
88880W        W52439  31.986  27.146   2.396
88881W        W52440  40.445  41.491  10.996
88882W        W52441   7.254  26.488   1.299
88883W        W52442  34.066  13.846  10.436
88884W        W52443  27.080  13.255  11.597
88885W        W52444  29.593  32.630   1.268
88886W        W52445  35.086  19.282  10.579
88887W        W52446  28.634   3.722   2.747
88888W        W52447   7.762  43.433  10.555
88889W        W52448   0.756  33.909  14.512
88890W        W52449  29.923  33.930   1.933
88891W        W52450   9.754  17.089   1.877
88892W        W52451   3.794   9.246  12.382
88893W        W52452   8.684  38.044   3.630
88894W        W52453  27.448  19.637   2.826
88895W        W52454  30.071  21.080   0.406
88896W        W52455  23.025  36.395   4.789
88897W        W52456  41.345  39.505  12.016
88898W        W52457  43.839  38.461   4.250
88899W        W52458  44.283  18.768   1.385
88900W        W52459  20.111   9.832  13.378
88901W        W52460  33.038  41.025   4.656
88902W        W52461  23.726  12.629  14.417
88903W        W52462  22.622  33.464   4.195
88904W        W52463  17.655  11.867  13.942
88905W        W52464  19.256  26.029   4.148
88906W        W52465  12.710  12.356   3.164
88907W        W52466   6.297   8.675   2.193
88908W        W52467   8.708   8.291   2.843
88909W        W52468  16.316   5.834   1.880
88910W        W52469   8.267  28.583  14.945
88911W        W52470  40.019   2.467  10.631
88912W        W52471  24.544  27.176   4.667
88913W        W52472  24.993   5.737   1.800
88914W        W52473  35.995  44.938  12.917
88915W        W52474  42.777  38.929  12.552
88916W        W52475  12.721  41.453   2.209
88917W        W52476  38.547  37.354  10.551
88918W        W52477   5.886   2.864  11.600
88919W        W52478  38.910   7.412   1.246
88920W        W52479  23.072  41.954  13.058
88921W        W52480  35.405   0.354   0.360
88922W        W52481  26.486  30.024  11.518
88923W        W52482  26.198  43.375  10.404
88924W        W52483  27.188  35.912   1.359
88925W        W52484  41.305   0.352   0.949
88926W        W52485  44.913   1.308   4.763
88927W        W52486  19.753   5.264  12.947
88928W        W52487  27.628  10.351   2.783
88929W        W52488  36.441   9.274   2.843
88930W        W52489  37.522  28.671  11.608
88931W        W52490  41.815  42.032   4.189
88932W        W52491   0.823   3.797  11.949
88933W        W52492  28.541   9.308  13.546
88934W        W52493  24.999  23.709   1.230
88935W        W52494  42.860  17.266  10.898
88936W        W52495   2.448  14.813   2.889
88937W        W52496  38.064  27.111  10.459
88938W        W52497   3.878   7.355  11.492
88939W        W52498  10.638  18.135  10.587
88940W        W52499  21.254  24.514   1.828
88941W        W52500  22.072  43.302  10.615
88942W        W52501  13.181  20.043   4.778
88943W        W52502  19.143   3.919  14.338
88944W        W52503  11.815  15.612   4.780
88945W        W52504  29.130  10.667   3.705
88946W        W52505  24.126  26.047   3.182
88947W        W52506   3.954  25.559   4.219
88948W        W52507   3.711  37.409   5.135
88949W        W52508  10.242  38.069   1.295
88950W        W52509  14.694  11.801  13.968
88951W        W52510  39.979  23.555   2.302
88952W        W52511  20.546  31.040   1.258
88953W        W52512  33.895  17.734  11.956
88954W        W52513  27.524   1.812  13.517
88955W        W52514  10.715  37.455  13.530
88956W        W52515  42.494  42.869   2.319
88957W        W52516   2.422   4.300   2.720
88958W        W52517  38.015  17.609   2.868
88959W        W52518   3.947  19.681   2.858
88960W        W52519  32.023  27.609  10.644
88961W        W52520  43.865  30.910  10.581
88962W        W52521  19.214  31.525   3.681
88963W        W52522  13.322  44.495  12.030
88964W        W52523  29.517  17.790  11.378
88965W        W52524   6.386   3.217   1.828
88966W        W52525  30.642  20.112   0.406
88967W        W52526   8.298  12.635  14.502
88968W        W52527  29.512  13.628  13.352
88969W        W52528  29.083  34.924   3.186
88970W        W52529  16.637  12.745   2.225
88971W        W52530  23.699  41.822   2.794
88972W        W52531  41.032  37.997  11.586
88973W        W52532   5.922  10.837  11.477
88974W        W52533   8.362   4.699   2.250
88975W        W52534  18.710  33.473   4.291
88976W        W52535  43.956  23.154   0.931
88977W        W52536   7.685   2.315   3.639
88978W        W52537  41.355  22.025  12.835
88979W        W52538  43.907   1.268  14.869
88980W        W52539  44.913  21.206  12.555
88981W        W52540   6.835  43.801   2.891
88982W        W52541   4.713  35.948  10.937
88983W        W52542  29.556   9.771  10.456
88984W        W52543  19.165   6.823   3.822
88985W        W52544  31.568  27.141   2.265
88986W        W52545  35.568  26.107   4.799
88987W        W52546  34.417  43.968   4.252
88988W        W52547  12.199  26.989  14.354
88989W        W52548  23.087  39.906   3.329
88990W        W52549  43.438   4.312  12.436
88991W        W52550  32.943   9.742   2.766
88992W        W52551  27.516  42.372   2.306
88993W        W52552  40.908   3.233  14.845
88994W        W52553  19.602  33.006   3.226
88995W        W52554  42.395   4.746   4.831
88996W        W52555  22.158  37.899  14.399
88997W        W52556   1.316  24.628   3.217
88998W        W52557  12.833   8.167  11.549
88999W        W52558  20.050   0.438  13.336
89000W        W52559  41.791  25.015   5.230
89001W        W52560  16.301  39.395   1.239
89002W        W52561   9.716  24.490   1.236
89003W        W52562  22.575  18.554   4.270
89004W        W52563  11.746  17.619  14.289
89005W        W52564  35.967  21.186   2.356
89006W        W52565  27.627  25.684   0.796
89007W        W52566  25.695   5.847  14.802
89008W        W52567  17.163   3.366  10.532
89009W        W52568  36.031  30.980  14.899
89010W        W52569   4.897  18.277  14.826
89011W        W52570  35.960  22.580   2.320
89012W        W52571  40.966  32.479   3.342
89013W        W52572   6.286  32.029  11.585
89014W        W52573  21.055  16.614  10.977
89015W        W52574  22.700  23.060  13.371
89016W        W52575  34.515  34.431   4.788
89017W        W52576  20.030  14.694   1.710
89018W        W52577  25.085  32.914  13.403
89019W        W52578   2.322  33.007  13.510
89020W        W52579  28.130   1.799  12.840
89021W        W52580  11.811   0.879  10.497
89022W        W52581  42.384  36.433   4.828
89023W        W52582  25.497  31.029   0.350
89024W        W52583   8.397   2.834  12.522
89025W        W52584  40.021  31.023  10.578
89026W        W52585  34.997  44.770   4.151
89027W        W52586  11.138  37.930  10.636
89028W        W52587  39.059  43.930   4.147
89029W        W52588   5.888   4.380   0.773
89030W        W52589  27.108  29.114   1.228
89031W        W52590   3.939  24.053   4.176
89032W        W52591  41.375  21.593  13.917
89033W        W52592  23.708  16.103  12.059
89034W        W52593  38.908   9.235   4.342
89035W        W52594  22.565  33.427   5.137
89036W        W52595  26.644  15.642   1.240
89037W        W52596  40.488  43.995   2.732
89038W        W52597  31.617  40.356  13.431
89039W        W52598  33.610  34.030  14.296
89040W        W52599  26.545  13.625   4.798
89041W        W52600  38.944  41.311  13.445
89042W        W52601  22.623  18.199  11.983
89043W        W52602   4.229  40.309  12.028
89044W        W52603  13.137  27.510  10.485
89045W        W52604  12.674  30.436   4.269
89046W        W52605   3.282   7.674   1.709
89047W        W52606   2.366  40.949  14.427
89048W        W52607  17.759   2.228  11.499
89049W        W52608  20.216  32.407  12.830
89050W        W52609   3.291   1.822  13.006
89051W        W52610  30.585  11.353   3.836
89052W        W52611  26.030  16.107  13.866
89053W        W52612  25.644  21.519   9.639
89054W        W52613   6.200  27.121   0.913
89055W        W52614  25.151  20.711   9.946
89056W        W52615  13.306  35.032   0.827
89057W        W52616  19.179  18.604  12.460
89058W        W52617  42.402  20.565  12.962
89059W        W52618  38.512   9.375  11.580
89060W        W52619   8.806  38.345   4.188
89061W        W52620  29.460   5.224   0.391
89062W        W52621  36.486  41.437   0.266
89063W        W52622  28.472  42.301  14.362
89064W        W52623  40.910  41.847  10.595
89065W        W52624  22.112  16.613   1.918
89066W        W52625  39.428  33.443  12.570
89067W        W52626  21.751  39.017  11.004
89068W        W52627  37.876  30.039  13.479
89069W        W52628   6.863   7.809   3.211
89070W        W52629  20.656  13.306  12.092
89071W        W52630  21.619  39.435   4.819
89072W        W52631  10.301  31.928   4.279
89073W        W52632  41.949   9.320  11.125
89074W        W52633  35.023  29.078   1.802
89075W        W52634   8.836   2.354  12.493
89076W        W52635  40.367  32.513   4.140
89077W        W52636  41.043  19.720  14.314
89078W        W52637  13.831  19.133   3.795
89079W        W52638  32.445   3.830   0.467
89080W        W52639   6.921  20.067   4.731
89081W        W52640   3.895  41.518  14.393
89082W        W52641  42.480  10.662   2.739
89083W        W52642  21.038  29.520  14.420
89084W        W52643  12.250  43.820   4.704
89085W        W52644  17.270  12.758   1.391
89086W        W52645   1.839  19.619   2.238
89087W        W52646  16.583  14.590   2.408
89088W        W52647  28.037  15.696  12.050
89089W        W52648   4.828  31.527   3.812
89090W        W52649  10.315   5.748   0.765
89091W        W52650  43.943  27.996  12.497
89092W        W52651   4.236  32.510  12.400
89093W        W52652  17.290  10.306   2.850
89094W        W52653  39.875  27.961  13.881
89095W        W52654  12.186  10.242  11.493
89096W        W52655  43.878  14.635   1.262
89097W        W52656   4.334  14.341   1.309
89098W        W52657  34.061  17.108   2.756
89099W        W52658  21.133   2.407   3.707
89100W        W52659  24.546  26.644   4.823
89101W        W52660  41.426  19.043   1.440
89102W        W52661   3.373  36.952   4.797
89103W        W52662  18.272  42.820  14.276
89104W        W52663  14.209   8.705  12.547
89105W        W52664  14.816  15.224   4.345
89106W        W52665  36.006  37.527  10.412
89107W        W52666  44.338   5.424   3.695
89108W        W52667   0.367   0.353   4.332
89109W        W52668  23.241   4.816   3.822
89110W        W52669  18.755  23.997   0.470
89111W        W52670  10.706   8.654   5.319
89112W        W52671   3.735  28.508   1.728
89113W        W52672  40.411  38.032  14.917
89114W        W52673  20.057  14.713   2.792
89115W        W52674  44.265  34.895   0.321
89116W        W52675  31.645  31.636  11.999
89117W        W52676   5.276   3.870  14.938
89118W        W52677  40.487  34.106   0.756
89119W        W52678  12.742  19.223   1.275
89120W        W52679  38.047  18.744  14.771
89121W        W52680  20.218   6.825  13.321
89122W        W52681  27.691  17.076   3.308
89123W        W52682  16.607  20.588  12.579
89124W        W52683  26.560  14.257   4.126
89125W        W52684   9.868   6.785  10.644
89126W        W52685   6.408  44.280  12.540
89127W        W52686   4.426  37.033  14.769
89128W        W52687  38.463  20.148  11.429
89129W        W52688   6.863  10.644   1.260
89130W        W52689  40.317  35.011  14.360
89131W        W52690   3.264   2.416  12.499
89132W        W52691   5.743  31.147   1.421
89133W        W52692   8.842  14.736   0.392
89134W        W52693   8.765  12.720  10.026
89135W        W52694   9.383  12.732   0.330
89136W        W52695   8.779  27.005   4.321
89137W        W52696  43.988  23.680   1.797
89138W        W52697  16.771  31.611  10.638
89139W        W52698   2.425  18.261  14.894
89140W        W52699  13.758  18.183   3.755
89141W        W52700  10.800   2.266   2.259
89142W        W52701  29.165  44.916   2.232
89143W        W52702  37.462  20.553  11.876
89144W        W52703  20.538  36.075   4.822
89145W        W52704  17.604  36.920  12.499
89146W        W52705  29.153  30.028  12.420
89147W        W52706   3.254  34.108  10.565
89148W        W52707  26.954  29.454   4.268
89149W        W52708  25.219  21.700  11.432
89150W        W52709  30.487  17.209   2.223
89151W        W52710  14.802  11.734   3.236
89152W        W52711  17.671   8.257  14.830
89153W        W52712   3.901   5.192   0.327
89154W        W52713  13.339  14.821   2.330
89155W        W52714   9.840  13.348  14.904
89156W        W52715  32.523  36.396  11.070
89157W        W52716  15.302   3.880   2.343
89158W        W52717   0.420  21.567   3.809
89159W        W52718  14.684   5.932   3.675
89160W        W52719  20.072   3.850   1.443
89161W        W52720   4.905   3.802  13.478
89162W        W52721  37.953  35.484   0.432
89163W        W52722  28.134  21.693   0.945
89164W        W52723  24.677  35.852   1.928
89165W        W52724  42.808  37.409  14.276
89166W        W52725   3.777   9.370   4.783
89167W        W52726  42.917  26.634   4.266
89168W        W52727  28.483  42.468  13.863
89169W        W52728  41.840  14.127   2.662
89170W        W52729  35.981  24.078  13.816
89171W        W52730  27.529  23.164   1.871
89172W        W52731  39.960   6.379  13.438
89173W        W52732  10.277  40.345  11.874
89174W        W52733  27.009  32.069  10.943
89175W        W52734  44.304  30.037  14.962
89176W        W52735  26.580   9.831   3.251
89177W        W52736   7.890  27.627  10.962
89178W        W52737  18.674  17.176  11.026
89179W        W52738  31.406  36.448  13.474
89180W        W52739   1.322  42.918   1.882
89181W        W52740  31.898  10.737  13.810
89182W        W52741   2.754  32.986   4.598
89183W        W52742   9.395  12.807  12.924
89184W        W52743  26.521  36.503   2.730
89185W        W52744  32.464  19.125   3.674
89186W        W52745   6.358   0.440  14.005
89187W        W52746  19.125  26.530   1.913
89188W        W52747  13.844  30.513  12.523
89189W        W52748  36.540   7.349   0.913
89190W        W52749  23.035  28.495  14.795
89191W        W52750   4.244  15.100   3.673
89192W        W52751  18.193  25.654  10.549
89193W        W52752  33.115  15.681  14.783
89194W        W52753  41.031  27.186   1.360
89195W        W52754  17.677   4.828   4.321
89196W        W52755  13.753  22.708  11.380
89197W        W52756  32.615  20.608   3.344
89198W        W52757   7.682  11.812   3.774
89199W        W52758   6.778   8.831  12.833
89200W        W52759   0.386  43.409   0.919
89201W        W52760   8.239  22.136   0.753
89202W        W52761   8.743  19.243  10.596
89203W        W52762  12.709  21.079   9.921
89204W        W52763  37.069   0.300  14.489
89205W        W52764  26.565  17.697   3.293
89206W        W52765  39.503  37.543  10.415
89207W        W52766  15.322   8.718  11.472
89208W        W52767  17.225  17.781   0.385
89209W        W52768  17.072   7.203   4.209
89210W        W52769   6.890  21.102  10.895
89211W        W52770  12.160  31.580   0.751
89212W        W52771   2.878  34.460  10.451
89213W        W52772  23.124   6.397   3.799
89214W        W52773  21.244  44.417  14.514
89215W        W52774  16.700   1.439   2.391
89216W        W52775   3.777  31.134  12.520
89217W        W52776  29.626  40.994  13.062
89218W        W52777  32.606  19.064  13.935
89219W        W52778  14.634  35.500   1.903
89220W        W52779  12.206  18.115  14.762
89221W        W52780   0.300  43.376  13.843
89222W        W52781   5.218  21.207   5.174
89223W        W52782  40.810  41.858   2.705
89224W        W52783  44.821  28.552  12.850
89225W        W52784  38.910  44.913  11.864
89226W        W52785  15.095   5.372   3.828
89227W        W52786   9.329  20.606   4.188
89228W        W52787   3.230  23.688  12.969
89229W        W52788  41.913  22.512   5.094
89230W        W52789   0.846  38.517  10.486
89231W        W52790  10.294   1.333  14.455
89232W        W52791  42.490  30.063  12.982
89233W        W52792  14.614  34.896   1.425
89234W        W52793   4.926  15.810   2.241
89235W        W52794  19.184   7.803  11.580
89236W        W52795   0.296  30.040  11.997
89237W        W52796  27.072  30.443  13.865
89238W        W52797  27.139  13.746  12.906
89239W        W52798   1.757  17.223   1.935
89240W        W52799  37.017  15.290  11.962
89241W        W52800  35.378   0.382   1.262
89242W        W52801  24.154  33.520   2.862
89243W        W52802   4.847  34.440  13.790
89244W        W52803  13.725  13.182  10.622
89245W        W52804  28.082  30.514  12.429
89246W        W52805  34.108  14.218  12.082
89247W        W52806  34.114   4.918  12.990
89248W        W52807  44.882  40.948  13.055
89249W        W52808  27.569  25.703   5.159
89250W        W52809  42.372  43.769   3.857
89251W        W52810  42.832   2.431  13.908
89252W        W52811  43.337  40.439   1.704
89253W        W52812  24.504  20.568  12.842
89254W        W52813  12.692  28.480  12.394
89255W        W52814  44.991  24.557  14.339
89256W        W52815  28.520   3.459  11.882
89257W        W52816  38.914  31.937   1.363
89258W        W52817  15.218   2.376  10.575
89259W        W52818  15.666   2.267   2.296
89260W        W52819  26.105  23.030   2.671
89261W        W52820  25.700  40.965  11.968
89262W        W52821  42.020  21.128   0.426
89263W        W52822  17.245  16.667  14.365
89264W        W52823   6.214   3.901  10.909
89265W        W52824  28.439  34.885   0.824
89266W        W52825  18.272  27.479  14.376
89267W        W52826  41.400  23.071   4.124
89268W        W52827  43.854  15.701  10.078
89269W        W52828  36.358   1.450   3.835
89270W        W52829  31.627  15.790  12.457
89271W        W52830   8.831   8.815  13.931
89272W        W52831  20.066  30.096   1.385
89273W        W52832  28.041  15.773   0.422
89274W        W52833   7.825   2.765  13.415
89275W        W52834  13.266  31.984  14.009
89276W        W52835  30.002   8.255   1.713
89277W        W52836   9.291  15.246  10.607
89278W        W52837  40.473   1.389  14.930
89279W        W52838  28.089   3.945   2.780
89280W        W52839   9.858   6.826   3.861
89281W        W52840  27.999  41.028  14.427
89282W        W52841  41.848   2.252  12.469
89283W        W52842  34.898  10.761   5.785
89284W        W52843  31.903  44.864   0.749
89285W        W52844  38.012  25.655  13.428
89286W        W52845   4.303  29.532   2.710
89287W        W52846  29.579  19.577   3.724
89288W        W52847  29.064   5.795  11.061
89289W        W52848  42.918  38.452  13.473
89290W        W52849  13.686  22.145   9.501
89291W        W52850  14.725  22.240  13.407
89292W        W52851  32.633  12.350   1.435
89293W        W52852  21.648  20.180  13.920
89294W        W52853  25.986   7.783   3.244
89295W        W52854   4.910  20.140   0.935
89296W        W52855  42.824  10.840  12.074
89297W        W52856   3.854  13.211  11.977
89298W        W52857  27.589  43.365  11.915
89299W        W52858  44.470  33.593  10.536
89300W        W52859  29.477  16.245   4.709
89301W        W52860  20.031  37.062   0.318
89302W        W52861   2.788  34.081  11.979
89303W        W52862   8.327   9.158  11.485
89304W        W52863  17.647  18.639  14.415
89305W        W52864  38.356   3.386  13.963
89306W        W52865   8.337  38.529  14.887
89307W        W52866  34.988   7.191   1.709
89308W        W52867  21.054  29.435  10.988
89309W        W52868  30.641  38.867   1.423
89310W        W52869  15.748  13.119   1.384
89311W        W52870  44.502  36.882   4.227
89312W        W52871   0.744   9.738   2.814
89313W        W52872  17.701  13.196  14.284
89314W        W52873  23.718  19.761   0.266
89315W        W52874   0.749  42.843   1.710
89316W        W52875  15.184  17.629   3.349
89317W        W52876  15.128  41.842   3.283
89318W        W52877   4.223  17.239   0.271
89319W        W52878  19.284  16.155   3.285
89320W        W52879  25.501  39.932   0.381
89321W        W52880  23.175  31.124  12.443
89322W        W52881  32.991  39.532   4.306
89323W        W52882  11.156  26.032  11.581
89324W        W52883   7.248  37.875   2.343
89325W        W52884  24.173  13.242  13.811
89326W        W52885  31.405  10.654  11.906
89327W        W52886  24.075  17.571   2.350
89328W        W52887  34.462  44.892   3.200
89329W        W52888  42.429   9.738   4.347
89330W        W52889   9.175  34.028   5.209
89331W        W52890  24.648  16.166   3.819
89332W        W52891  34.101   5.333  12.424
89333W        W52892  33.913   9.745  12.049
89334W        W52893   7.702  29.443  12.443
89335W        W52894   0.958  13.108  12.366
89336W        W52895  35.404  15.107   0.263
89337W        W52896   6.238  12.339  13.500
89338W        W52897  17.269  16.634   2.328
89339W        W52898   8.892  11.301   2.366
89340W        W52899   5.856  29.982   2.836
89341W        W52900  22.619  38.401  11.573
89342W        W52901   2.288  43.774  11.979
89343W        W52902  34.891  40.863  14.775
89344W        W52903   8.745  18.766  12.957
89345W        W52904  34.870  28.642   2.704
89346W        W52905  23.028  10.161   2.860
89347W        W52906  41.958   0.858   3.342
89348W        W52907  12.724  44.759   0.333
89349W        W52908  35.588  34.455   4.187
89350W        W52909  39.051  16.155  14.427
89351W        W52910  44.479  41.847   2.387
89352W        W52911  33.490  24.684   2.716
89353W        W52912  31.126  20.729  12.016
89354W        W52913  26.081  12.696   4.131
89355W        W52914   1.770  15.738   3.239
89356W        W52915   4.415   9.179   0.282
89357W        W52916  11.282  34.414   3.670
89358W        W52917  13.137  38.509  12.974
89359W        W52918  24.229   2.948   1.845
89360W        W52919  36.888   8.366   2.790
89361W        W52920   6.407  41.467   3.267
89362W        W52921   2.278  43.927   3.774
89363W        W52922  37.495  17.766  14.809
89364W        W52923   6.869  34.945  12.471
89365W        W52924  28.123  11.158   1.280
89366W        W52925  29.449  21.096   2.675
89367W        W52926  14.271  42.854  11.090
89368W        W52927  31.920  29.647  13.913
89369W        W52928  19.623  21.241   4.261
89370W        W52929   6.290  13.213   3.639
89371W        W52930  12.717  16.204  10.942
89372W        W52931  19.715  38.344   4.603
89373W        W52932  38.882   5.311   3.161
89374W        W52933  37.957  18.216  12.499
89375W        W52934  22.227  31.553  13.878
89376W        W52935   4.236  12.350   3.808
89377W        W52936  26.633  11.651  11.979
89378W        W52937  27.499   2.837  14.032
89379W        W52938  13.307  13.176  11.907
89380W        W52939  27.987  12.704  10.568
89381W        W52940   9.761  22.081  12.383
89382W        W52941  39.974  32.990   3.161
89383W        W52942  34.612   2.248   1.827
89384W        W52943  32.557  12.654   4.311
89385W        W52944  40.339  16.270  11.544
89386W        W52945   3.813   9.709   0.939
89387W        W52946  19.223  33.482  12.969
89388W        W52947  30.011   6.781   4.728
89389W        W52948  23.051  13.825   2.307
89390W        W52949  25.988  19.638   2.255
89391W        W52950  30.569  43.352  14.833
89392W        W52951  28.613  31.511  11.933
89393W        W52952  23.548  40.983   4.228
89394W        W52953   5.417  15.237   4.731
89395W        W52954  31.415  10.734  12.523
89396W        W52955   7.697  29.012  12.961
89397W        W52956   5.304   7.823   0.245
89398W        W52957  33.461   2.247   4.625
89399W        W52958  17.770   7.312  14.805
89400W        W52959  34.497  36.047  14.854
89401W        W52960  14.833  11.288   0.471
89402W        W52961   6.289  11.682   0.308
89403W        W52962   6.879  14.701  13.394
89404W        W52963  26.605   0.429   3.767
89405W        W52964  37.849  42.844  12.024
89406W        W52965  22.640   4.223  11.981
89407W        W52966  30.486  38.850  13.877
89408W        W52967  30.505  33.028   4.316
89409W        W52968  24.648  20.092   4.336
89410W        W52969  22.164  39.417  11.398
89411W        W52970  26.632  36.357  14.901
89412W        W52971   3.288  39.885  11.528
89413W        W52972   0.763  11.793   0.324
89414W        W52973  30.491  19.200   0.888
89415W        W52974  22.701  30.550  13.481
89416W        W52975  33.595   7.223   2.302
89417W        W52976  18.269  16.636   0.951
89418W        W52977  42.910  19.255   0.875
89419W        W52978  32.606  35.874   1.290
89420W        W52979  31.438   4.881   2.752
89421W        W52980  17.159  43.857  13.328
89422W        W52981   8.191   7.220  10.965
89423W        W52982  39.537   8.690   4.195
89424W        W52983  31.455  26.970   3.232
89425W        W52984  27.947   7.774  13.994
89426W        W52985  23.608   2.755  13.863
89427W        W52986   3.296  12.347   4.279
89428W        W52987  30.966  24.603   4.667
89429W        W52988  27.091  27.659   2.383
89430W        W52989  29.039  16.758   0.858
89431W        W52990  38.456  36.961   4.791
89432W        W52991  40.435   8.763   4.332
89433W        W52992  11.765  43.366  14.951
89434W        W52993  43.299   1.476   1.391
89435W        W52994  44.967   4.345   3.649
89436W        W52995  36.880  14.225  14.953
89437W        W52996  28.581  10.266   4.209
89438W        W52997   6.787  35.909  12.866
89439W        W52998  41.412  41.350   1.326
89440W        W52999  35.040  41.941  10.411
89441W        W53000   9.823   9.823  10.921
89442W        W53001  32.004  31.994   9.972
89443W        W53002  34.433  33.939  14.849
89444W        W53003  42.421   7.400   3.204
89445W        W53004  35.421  29.112  13.822
89446W        W53005  19.751   2.470   3.240
89447W        W53006  15.147  27.680   2.244
89448W        W53007  22.531  13.219   1.874
89449W        W53008  31.034  23.044  13.933
89450W        W53009  32.480  22.718  10.052
89451W        W53010  12.358  15.731   5.239
89452W        W53011  39.896  41.035  11.474
89453W        W53012  25.168  24.130  13.975
89454W        W53013  25.150  30.963   3.784
89455W        W53014   2.840  32.551   0.808
89456W        W53015  25.178  26.052   0.332
89457W        W53016  12.315  36.850   2.822
89458W        W53017  18.676  32.030   0.749
89459W        W53018  21.722  39.053   3.323
89460W        W53019  31.020   2.797  11.600
89461W        W53020  32.590   0.281  13.811
89462W        W53021  43.316  15.317  14.912
89463W        W53022  31.947   7.272  10.484
89464W        W53023   9.693  12.720   9.449
89465W        W53024  37.409  19.668  11.111
89466W        W53025  37.544  26.483  10.447
89467W        W53026  33.929  28.089  14.298
89468W        W53027  41.380   5.241  10.460
89469W        W53028  21.669  27.605   1.306
89470W        W53029  22.630  22.674  14.970
89471W        W53030  30.159  29.033  13.876
89472W        W53031  39.366   3.372  11.013
89473W        W53032  11.362   0.466  13.332
89474W        W53033  24.522   1.778   2.380
89475W        W53034  12.641  21.103   9.437
89476W        W53035  30.988  21.731   4.736
89477W        W53036  34.949  22.161  11.582
89478W        W53037  20.148  34.012  10.550
89479W        W53038   7.180  28.052   2.195
89480W        W53039  39.468  23.670  12.856
89481W        W53040  42.361  39.408  14.484
89482W        W53041  21.193   1.344  11.893
89483W        W53042  12.285  15.821  14.028
89484W        W53043  12.631  39.549   0.314
89485W        W53044  22.035  29.495   3.167
89486W        W53045  12.154  26.053   3.384
89487W        W53046  30.912  18.549  14.015
89488W        W53047  17.133  35.995   2.833
89489W        W53048  24.114  36.087  13.546
89490W        W53049  28.049  38.958   2.804
89491W        W53050  12.213  13.673  10.937
89492W        W53051  30.119  29.530   4.765
89493W        W53052  43.932  39.540   1.860
89494W        W53053   0.918   1.297  13.834
89495W        W53054  30.085  24.531   3.159
89496W        W53055  44.422  15.132   2.892
89497W        W53056  14.734  36.885  12.566
89498W        W53057  34.608  18.093   2.388
89499W        W53058  11.340   7.817  11.589
89500W        W53059  39.314   2.238  12.554
89501W        W53060  10.876  31.648  11.093
89502W        W53061  15.133  24.715  12.834
89503W        W53062  31.968  34.984   4.792
89504W        W53063  27.073  41.029  10.982
89505W        W53064  16.110  26.068  10.423
89506W        W53065  29.483  14.316   1.845
89507W        W53066   4.839  44.457   2.416
89508W        W53067  38.496   4.296  10.422
89509W        W53068  18.137  34.882  14.336
89510W        W53069   5.726   5.285  12.517
89511W        W53070   0.879   4.923   0.739
89512W        W53071  39.028  20.113  12.389
89513W        W53072  21.529  11.134  12.986
89514W        W53073  40.314  16.757  11.035
89515W        W53074  29.935  20.647   0.789
89516W        W53075  17.579  13.219   3.319
89517W        W53076  18.583  28.000  12.962
89518W        W53077  42.897   3.717  11.383
89519W        W53078  10.172  25.641  13.007
89520W        W53079  20.743  43.805  12.894
89521W        W53080  31.023   6.191  13.984
89522W        W53081  29.969  11.808   2.888
89523W        W53082  31.086  42.011   5.093
89524W        W53083  20.108  20.268  11.485
89525W        W53084   7.858  12.351   5.224
89526W        W53085  34.566  20.252   1.318
89527W        W53086  36.977   8.352   0.926
89528W        W53087  37.869  15.104   0.310
89529W        W53088  27.059  18.103  12.828
89530W        W53089  25.186  44.929  10.583
89531W        W53090   3.455  15.784   3.759
89532W        W53091  32.058  19.186   4.140
89533W        W53092  23.064  16.106  12.514
89534W        W53093  42.889  35.598   1.709
89535W        W53094  19.226  38.449   2.680
89536W        W53095  19.205  37.339  13.330
89537W        W53096  39.412   5.355   1.302
89538W        W53097   6.861  28.957  13.320
89539W        W53098  25.592  34.079  13.986
89540W        W53099  36.482   8.232   3.324
89541W        W53100  25.520   3.220   3.249
89542W        W53101  31.438  43.406   1.765
89543W        W53102  28.657  27.495  11.906
89544W        W53103   2.238  21.637   1.253
89545W        W53104  42.361  16.075   4.301
89546W        W53105  36.022  34.074   4.202
89547W        W53106  33.088   9.235  11.471
89548W        W53107   0.344  12.745  14.353
89549W        W53108  10.835  44.871  11.450
89550W        W53109  31.494  38.407   1.280
89551W        W53110  27.594  27.544   2.405
89552W        W53111  14.191  41.377   4.646
89553W        W53112   5.915  41.977   3.698
89554W        W53113  24.151   6.708   2.234
89555W        W53114  11.728  14.786  10.009
89556W        W53115  15.808  17.238   4.237
89557W        W53116  27.470  37.990   0.910
89558W        W53117  20.138   7.817   1.262
89559W        W53118  19.592  24.193   3.167
89560W        W53119  26.545  26.629   3.175
89561W        W53120  42.886  43.507  13.998
89562W        W53121   1.847  19.052  14.288
89563W        W53122  33.955  14.744  13.431
89564W        W53123  16.672  25.561   0.249
89565W        W53124  35.596   2.789  13.359
89566W        W53125   7.209  16.254  12.991
89567W        W53126  25.682  19.611  13.844
89568W        W53127  31.928  30.655  12.973
89569W        W53128  18.108  25.147  10.890
89570W        W53129  11.142  12.761  13.913
89571W        W53130  19.762  37.852  12.049
89572W        W53131  12.215  12.306  11.599
89573W        W53132  10.815  32.415   3.319
89574W        W53133   1.932  19.040  12.095
89575W        W53134  10.142  27.690  11.442
89576W        W53135  11.823   9.188   1.884
89577W        W53136  22.570   7.816   9.952
89578W        W53137  15.581  34.455  13.542
89579W        W53138  13.160  17.159  13.498
89580W        W53139   9.317   3.820   0.895
89581W        W53140  39.988  34.065  10.549
89582W        W53141  22.521  12.117   0.313
89583W        W53142  32.972  19.091  12.477
89584W        W53143  22.668  42.471  13.946
89585W        W53144  20.748  35.099   0.889
89586W        W53145   2.808   2.909  14.883
89587W        W53146  12.737   1.295   1.831
89588W        W53147  41.496  19.650  11.472
89589W        W53148  32.633  19.098   4.188
89590W        W53149  15.246   6.203  12.850
89591W        W53150  36.087  41.297  12.348
89592W        W53151   1.777   9.884   4.167
89593W        W53152   1.974  28.444   1.855
89594W        W53153  35.930  32.483  10.644
89595W        W53154  34.962  40.416   1.436
89596W        W53155  25.101  25.657   0.951
89597W        W53156  44.263   0.778  14.291
89598W        W53157  31.061   7.746   1.873
89599W        W53158  27.029  29.426  14.484
89600W        W53159  31.932  29.078   2.285
89601W        W53160  40.332  28.090  13.528
89602W        W53161  27.063  24.684  11.901
89603W        W53162  15.205  38.036  14.501
89604W        W53163  36.414  42.456  10.552
89605W        W53164  20.188  33.395  10.070
89606W        W53165  20.711  31.080  12.510
89607W        W53166  31.933  10.171  12.874
89608W        W53167   1.400   3.953  13.404
89609W        W53168  38.005  33.884   2.863
89610W        W53169  40.539  34.078   5.255
89611W        W53170  35.988  19.578  12.930
89612W        W53171  27.104  42.793  12.095
89613W        W53172  21.247  37.371  13.312
89614W        W53173   3.318  39.825  14.421
89615W        W53174  36.353  43.309   1.401
89616W        W53175   4.815  38.426   3.194
89617W        W53176  42.833   2.393   1.910
89618W        W53177  29.114  28.490  14.859
89619W        W53178  10.151  26.125   4.684
89620W        W53179  24.551  30.554   0.334
89621W        W53180   6.194  28.945  11.880
89622W        W53181  30.002   1.763   1.237
89623W        W53182  21.242  23.631  10.600
89624W        W53183  30.510  33.941  14.983
89625W        W53184  22.059  42.801   2.712
89626W        W53185  12.192  39.047   1.296
89627W        W53186  36.431  27.146   4.316
89628W        W53187   6.908  37.868  13.454
89629W        W53188  44.867  19.138  11.103
89630W        W53189  21.229  10.295   4.787
89631W        W53190  44.887  26.169  12.000
89632W        W53191  26.186  31.525   3.315
89633W        W53192  12.250  36.373  11.956
89634W        W53193  17.130  10.671  11.024
89635W        W53194  32.520  25.534   0.787
89636W        W53195   4.246  29.929   1.311
89637W        W53196  42.874  44.356  11.487
89638W        W53197  11.321  30.966   1.815
89639W        W53198   1.920  27.100  11.397
89640W        W53199   7.681  34.981   5.205
89641W        W53200  24.603  26.472   4.145
89642W        W53201  20.178  20.665   4.764
89643W        W53202  32.554  41.464   2.183
89644W        W53203  13.698  35.523  14.828
89645W        W53204  24.660  15.193   3.651
89646W        W53205  25.971  44.359   4.123
89647W        W53206  31.987  43.822   0.293
89648W        W53207   2.816  20.652  13.795
89649W        W53208  14.757  26.156  10.628
89650W        W53209  42.864  36.909   1.829
89651W        W53210  24.124  34.068   1.873
89652W        W53211  18.724  44.316  14.303
89653W        W53212  27.019  38.948  14.499
89654W        W53213  40.441  23.549  10.485
89655W        W53214  22.569  24.659  13.051
89656W        W53215   2.760  15.630   3.699
89657W        W53216  32.507  36.967   4.207
89658W        W53217  18.182  35.416  13.321
89659W        W53218  41.463  19.625  14.814
89660W        W53219  31.129  41.314  11.555
89661W        W53220  38.534  41.390  14.372
89662W        W53221  25.982  11.787  14.492
89663W        W53222  36.578  15.276   2.787
89664W        W53223  12.292  14.654  12.923
89665W        W53224  34.438  28.956  14.856
89666W        W53225   8.879  14.630  11.475
89667W        W53226  18.600  39.023  10.429
89668W        W53227  33.940  40.533   1.764
89669W        W53228   5.780  39.858   3.704
89670W        W53229  42.484  19.630   3.333
89671W        W53230   1.787  16.722   4.659
89672W        W53231  10.641  27.098  14.827
89673W        W53232  10.765   0.826  11.921
89674W        W53233  43.955  34.041  13.357
89675W        W53234  42.804  32.492  12.096
89676W        W53235  28.161   8.193   2.284
89677W        W53236  35.472  42.451  13.046
89678W        W53237  23.676  19.767  13.940
89679W        W53238  35.968  34.568  13.479
89680W        W53239  38.431  18.789  12.384
89681W        W53240  43.801  22.550  14.404
89682W        W53241  14.596   0.951  11.529
89683W        W53242  21.648  34.495   4.659
89684W        W53243  23.521   0.486   0.782
89685W        W53244  41.029  43.417  11.017
89686W        W53245  40.524  26.042  10.499
89687W        W53246  36.574  27.557   3.340
89688W        W53247  40.804  38.841  12.392
89689W        W53248  23.114  43.441   0.255
89690W        W53249  25.056   8.875  11.875
89691W        W53250  12.155   2.346  13.927
89692W        W53251  14.167  24.665   5.654
89693W        W53252   6.281   7.725  13.061
89694W        W53253  24.685  20.576   4.213
89695W        W53254   7.753  37.068  14.962
89696W        W53255  44.504  43.430  11.993
89697W        W53256  14.233  37.562   0.809
89698W        W53257   4.341  15.617   2.382
89699W        W53258  35.486  12.343   1.722
89700W        W53259  22.225  23.209   2.827
89701W        W53260  18.616  14.822   0.782
89702W        W53261  18.076  10.174   1.268
89703W        W53262   8.279   0.278   2.385
89704W        W53263   4.244  25.208   0.743
89705W        W53264  16.761  23.725  12.830
89706W        W53265  40.462  36.877   1.348
89707W        W53266  40.831  35.853  12.986
89708W        W53267  40.953  29.926  10.587
89709W        W53268  37.463  33.582   1.837
89710W        W53269  39.884  15.121   4.250
89711W        W53270  25.698   2.758  10.897
89712W        W53271  25.971  11.756   1.861
89713W        W53272  41.973   0.865   2.355
89714W        W53273  31.544   4.724  10.963
89715W        W53274   2.950  31.938   3.847
89716W        W53275  10.275   8.673  14.293
89717W        W53276  17.569  33.582   2.797
89718W        W53277  12.327  13.737  11.437
89719W        W53278   0.831  38.510  14.804
89720W        W53279  41.980  28.087   1.777
89721W        W53280   8.362  12.354   4.132
89722W        W53281  44.412   4.767   1.402
89723W        W53282  34.447  35.092   4.604
89724W        W53283  44.347   1.812   3.698
89725W        W53284  17.145   5.800   1.406
89726W        W53285   2.230  42.846   0.799
89727W        W53286  32.028  31.602   4.597
89728W        W53287  19.753  36.455  12.400
89729W        W53288  24.062  12.642   3.314
89730W        W53289  37.039  21.641   2.234
89731W        W53290   5.398  44.852   4.685
89732W        W53291  15.256  43.021  10.466
89733W        W53292  41.322  41.400  11.079
89734W        W53293  11.276  14.835  14.811
89735W        W53294  43.491  17.113  11.127
89736W        W53295  10.193   2.384  14.910
89737W        W53296  34.569   8.768  10.115
89738W        W53297  25.046  39.875   1.872
89739W        W53298  31.564  11.302  11.902
89740W        W53299   8.210  33.954   3.832
89741W        W53300   1.367  37.495  13.851
89742W        W53301   6.678   0.933  13.910
89743W        W53302  14.170  18.623  13.901
89744W        W53303  35.573  13.736  10.438
89745W        W53304  25.114   1.363  13.442
89746W        W53305  12.774  13.276  10.943
89747W        W53306  43.484  21.213   2.677
89748W        W53307  41.802   3.717   3.210
89749W        W53308  40.886  17.261   0.784
89750W        W53309  36.023  10.188   5.594
89751W        W53310  29.459  17.198  12.432
89752W        W53311   5.703  43.996   2.398
89753W        W53312  38.460  11.640  10.551
89754W        W53313  43.514  40.424   4.245
89755W        W53314  34.451  37.952   0.391
89756W        W53315  18.724  22.554   4.183
89757W        W53316  40.821  21.539  12.520
89758W        W53317  30.422   2.723   0.913
89759W        W53318  12.682  42.503  12.867
89760W        W53319  19.104  30.616   3.217
89761W        W53320  23.019   6.763  11.981
89762W        W53321  44.397   7.283   5.170
89763W        W53322  24.085  42.306  14.008
89764W        W53323  20.558  32.552   0.834
89765W        W53324  42.982  18.724  11.859
89766W        W53325  29.050  41.344  13.812
89767W        W53326   0.470  27.186   2.832
89768W        W53327  21.246  10.306   0.260
89769W        W53328  38.887  16.186   3.713
89770W        W53329  28.179  12.342  14.402
89771W        W53330  39.332  14.313  12.071
89772W        W53331  22.160   8.258   0.469
89773W        W53332  26.015  23.146  13.867
89774W        W53333   9.357  37.500  14.338
89775W        W53334   3.427  11.350   1.731
89776W        W53335   5.207  31.564   3.263
89777W        W53336   0.794   2.458   3.733
89778W        W53337  34.011  37.957   1.427
89779W        W53338  18.207   8.779  14.421
89780W        W53339  30.520  19.571   4.344
89781W        W53340  35.495  11.675   4.296
89782W        W53341  43.454  25.533  11.871
89783W        W53342  25.484  25.053   4.146
89784W        W53343  36.010  20.052   2.269
89785W        W53344  43.318   3.806  14.869
89786W        W53345  10.832  44.494  13.418
89787W        W53346   2.333   9.393  11.467
89788W        W53347  19.672  42.387  12.005
89789W        W53348  19.127  39.463  14.502
89790W        W53349  24.071  39.020   2.796
89791W        W53350   7.752  30.162  13.431
89792W        W53351   0.466  35.539   2.196
89793W        W53352  36.543  14.691   2.198
89794W        W53353  10.878  14.173  10.900
89795W        W53354  16.308  20.538   1.765
89796W        W53355  33.890  19.757   3.237
89797W        W53356  36.356  26.085  13.437
89798W        W53357  11.243  19.255  13.524
89799W        W53358  28.018  19.237   1.779
89800W        W53359  14.641  41.477   3.367
89801W        W53360  44.992   6.236   4.711
89802W        W53361   4.378  18.188   1.395
89803W        W53362  37.918   1.931   3.272
89804W        W53363   6.900  25.008  13.823
89805W        W53364  30.997  43.891  11.909
89806W        W53365  19.744  18.733   1.233
89807W        W53366   0.745  30.483  14.823
89808W        W53367  29.085  21.515  11.397
89809W        W53368   3.808   9.150  13.816
89810W        W53369  20.644   8.777  13.538
89811W        W53370  38.364  26.553  14.837
89812W        W53371  42.894  34.511  11.917
89813W        W53372  27.974   0.801   2.394
89814W        W53373  23.640  28.947  13.405
89815W        W53374  22.138  44.470  14.415
89816W        W53375  18.669  41.891  12.376
89817W        W53376  39.344   8.365  10.899
89818W        W53377  33.392  13.259   4.828
89819W        W53378  25.150  16.089  13.020
89820W        W53379  21.053  37.408   4.837
89821W        W53380  27.136  33.409   0.848
89822W        W53381   5.349  11.176  11.608
89823W        W53382  14.685   4.263  14.465
89824W        W53383  21.530  19.739   3.318
89825W        W53384  39.977  38.393  12.081
89826W        W53385  28.496  43.902  12.538
89827W        W53386  20.172   4.701  10.116
89828W        W53387  19.071  18.561   0.830
89829W        W53388  10.829  27.630   4.807
89830W        W53389  25.511   6.318   3.758
89831W        W53390  20.737  26.003   0.304
89832W        W53391   0.775   0.292  14.289
89833W        W53392  28.574  41.428  12.823
89834W        W53393  38.869  37.353  10.065
89835W        W53394  32.137   8.793  12.993
89836W        W53395  13.156  26.136  12.528
89837W        W53396   6.254  22.175  13.941
89838W        W53397  29.598  29.510   1.271
89839W        W53398  20.249  27.111  12.976
89840W        W53399  16.283  40.528   3.294
89841W        W53400   0.484   0.465   2.352
89842W        W53401  29.595  33.597  11.024
89843W        W53402  14.592  30.131  11.055
89844W        W53403  12.633  17.191  12.931
89845W        W53404  20.605   4.312  10.436
89846W        W53405  24.187   9.258  13.511
89847W        W53406  40.369  12.213  13.441
89848W        W53407  13.216  32.618  13.812
89849W        W53408  43.901  28.976  13.008
89850W        W53409   6.206  42.977   4.193
89851W        W53410  40.464  32.948   1.314
89852W        W53411  38.017   5.851  13.819
89853W        W53412  37.456   1.883   0.894
89854W        W53413  12.198   9.823   2.195
89855W        W53414  20.073  24.566  14.417
89856W        W53415  43.513  23.006   4.809
89857W        W53416  44.971  16.214  11.486
89858W        W53417  22.100   4.346   4.765
89859W        W53418   1.865  24.120  11.984
89860W        W53419  23.139  37.483   3.797
89861W        W53420   1.329  40.967   4.804
89862W        W53421  27.064  29.081  14.878
89863W        W53422  13.782  26.479  13.343
89864W        W53423   4.943  34.987  14.962
89865W        W53424  30.141  26.555  11.907
89866W        W53425   4.704  41.812   4.127
89867W        W53426  37.427  38.830   1.786
89868W        W53427   8.894  32.467  14.895
89869W        W53428  14.753  12.846   0.247
89870W        W53429  20.675  41.352   4.133
89871W        W53430  39.509  34.533  11.555
89872W        W53431   8.815  36.580  10.976
89873W        W53432  23.129  31.602   1.346
89874W        W53433  26.166  22.628   2.265
89875W        W53434  18.757  25.135   2.834
89876W        W53435  42.380  11.209   4.808
89877W        W53436  11.232  35.071  10.591
89878W        W53437  25.968  24.655   2.775
89879W        W53438  29.525   3.716   4.340
89880W        W53439  23.712   4.854  11.975
89881W        W53440  39.905  44.483   4.340
89882W        W53441   0.425  14.690  12.853
89883W        W53442  38.832  39.996   5.145
89884W        W53443   9.161  10.675   2.416
89885W        W53444  21.044  13.255   5.263
89886W        W53445  35.467  14.798  12.085
89887W        W53446  28.935  43.379  10.560
89888W        W53447  38.360  36.914  10.597
89889W        W53448  22.195  42.343   0.480
89890W        W53449  40.399  41.808  12.872
89891W        W53450  13.624  11.637   3.168
89892W        W53451   8.783   5.288  14.900
89893W        W53452  43.961   6.364  13.838
89894W        W53453   9.252  18.577   3.219
89895W        W53454  15.272  22.055  13.904
89896W        W53455   7.726  15.797  10.014
89897W        W53456  25.978  25.131  13.482
89898W        W53457  11.622  29.656   5.231
89899W        W53458  10.140   8.881  13.996
89900W        W53459  43.866  30.060   0.370
89901W        W53460  37.372  40.500   0.951
89902W        W53461  14.600  31.550   3.660
89903W        W53462  36.994  42.998  14.762
89904W        W53463   2.447  37.056   1.252
89905W        W53464  31.564   9.665  11.979
89906W        W53465  13.760   5.366   2.381
89907W        W53466   3.792  11.290   1.718
89908W        W53467  32.446  34.936  12.988
89909W        W53468  41.361  43.298  11.030
89910W        W53469  21.627   8.348  11.937
89911W        W53470  44.431   5.227   3.178
89912W        W53471   5.824  38.910  14.805
89913W        W53472   0.435  14.161   4.319
89914W        W53473  25.039   4.885   0.962
89915W        W53474  15.731   2.920   2.372
89916W        W53475  21.220   3.223  11.933
89917W        W53476  19.153  17.256   1.408
89918W        W53477  33.882   1.440  14.423
89919W        W53478  26.684  28.569   0.881
89920W        W53479  19.585  22.529   4.786
89921W        W53480  34.462  43.336  10.613
89922W        W53481  13.777   0.915  11.985
89923W        W53482  23.541  31.104   1.391
89924W        W53483  27.094  14.705   1.246
89925W        W53484   1.368  13.339   4.341
89926W        W53485  15.218  43.873   3.352
89927W        W53486  19.202  19.716  14.281
89928W        W53487  14.216  41.524  12.395
89929W        W53488  23.077  23.096   1.306
89930W        W53489   4.440  43.310  12.539
89931W        W53490  42.025  39.046   3.271
89932W        W53491   7.854  43.847  12.835
89933W        W53492  41.006  11.334  11.917
89934W        W53493  39.956  34.584   3.839
89935W        W53494  40.847  34.947   2.285
89936W        W53495  15.282  42.322  13.311
89937W        W53496  10.303  11.632   0.322
89938W        W53497  15.635  27.583   3.843
89939W        W53498  35.039  14.240   3.664
89940W        W53499  27.460   8.849  10.125
89941W        W53500  12.783  43.271  14.370
89942W        W53501  31.411  43.291  10.439
89943W        W53502   6.240  19.760   1.425
89944W        W53503  26.975  36.375   2.855
89945W        W53504  14.656   3.768   1.270
89946W        W53505  42.394  34.956   0.243
89947W        W53506  32.954  31.530   1.245
89948W        W53507   9.746   3.754   2.270
89949W        W53508  19.241  21.539   4.241
89950W        W53509   3.311  12.645  13.539
89951W        W53510  19.583  37.421   3.263
89952W        W53511  38.918  24.618   4.766
89953W        W53512   3.255  10.252   3.237
89954W        W53513  43.798  15.303   2.201
89955W        W53514  43.818  19.590   4.741
89956W        W53515   5.695  43.781  11.044
89957W        W53516  19.119  23.034   1.326
89958W        W53517  12.341   6.206  14.781
89959W        W53518  20.580   5.747   0.852
89960W        W53519  33.599  33.613  10.534
89961W        W53520   4.218  20.040   0.331
89962W        W53521  41.816   4.376  12.565
89963W        W53522  37.069  26.663   1.428
89964W        W53523  12.310   3.892   1.331
89965W        W53524  42.495   8.295  10.423
89966W        W53525  18.556  35.382  14.801
89967W        W53526  33.436  16.154  13.928
89968W        W53527   4.397  34.487  12.407
89969W        W53528  20.572  34.952  12.018
89970W        W53529  14.593  20.219  11.467
89971W        W53530   7.382  43.983   2.804
89972W        W53531  37.461  35.013   9.621
89973W        W53532   6.713  17.197   2.849
89974W        W53533  43.947  41.502   4.250
89975W        W53534  39.835  42.027  13.793
89976W        W53535  20.195  27.687  14.861
89977W        W53536  22.533   1.426   1.784
89978W        W53537  27.616  36.537  12.556
89979W        W53538   1.799   0.849  13.544
89980W        W53539  14.651   3.220   3.305
89981W        W53540   4.862  12.327   4.125
89982W        W53541  22.742  14.613  10.907
89983W        W53542  44.877  29.082   2.670
89984W        W53543  34.560  13.207  10.957
89985W        W53544  29.555  33.496   4.725
89986W        W53545   7.718   0.365   2.866
89987W        W53546  38.541  29.602  14.996
89988W        W53547  12.824  28.570   1.854
89989W        W53548   7.849   1.846   4.684
89990W        W53549  14.777   7.411  11.595
89991W        W53550  11.652   4.387  14.879
89992W        W53551   3.844   2.306  11.862
89993W        W53552  13.206  25.090  11.977
89994W        W53553  38.974  18.676  10.420
89995W        W53554  23.030  19.210  14.770
89996W        W53555  36.450   0.279  14.849
89997W        W53556  12.664   5.368   0.758
89998W        W53557  11.210  37.461   9.963
89999W        W53558  22.095  11.149   1.249
90000W        W53559  20.150  20.711   2.204
90001W        W53560  12.645   2.877  11.385
90002W        W53561  39.833   1.831   1.888
90003W        W53562  11.137  22.156  10.114
90004W        W53563  33.530  42.416  14.496
90005W        W53564   2.467   0.304   3.772
90006W        W53565  22.156  19.072  12.853
90007W        W53566  10.813  37.549  12.375
90008W        W53567   4.253   7.262   4.324
90009W        W53568  11.310  24.041  11.442
90010W        W53569  26.620  21.566  11.606
90011W        W53570  14.245  32.433  12.941
90012W        W53571  30.521  31.048  10.943
90013W        W53572  35.451   2.775  14.785
90014W        W53573  18.085  36.508  10.575
90015W        W53574  14.753  22.665   1.785
90016W        W53575  24.607  37.087  12.018
90017W        W53576  24.199   8.290   1.431
90018W        W53577  24.642  32.557  11.519
90019W        W53578  42.948  10.688  12.362
90020W        W53579   9.721  38.477   2.831
90021W        W53580  24.106  12.347  14.852
90022W        W53581   1.246  24.024   3.219
90023W        W53582   0.814  29.150   3.697
90024W        W53583   0.905   0.419   4.746
90025W        W53584  18.267  35.013   3.632
90026W        W53585  21.035   4.831   0.359
90027W        W53586  12.809   4.915  13.856
90028W        W53587  31.611  44.301  13.959
90029W        W53588  18.557   3.276  13.995
90030W        W53589  14.169  37.377   4.151
90031W        W53590  20.637  42.512   1.319
90032W        W53591  15.149  41.966   1.267
90033W        W53592  22.736  34.586   2.682
90034W        W53593  34.870  24.603  11.564
90035W        W53594   3.381  44.348  10.597
90036W        W53595  13.633  27.461   1.422
90037W        W53596  20.128  29.562  13.868
90038W        W53597   3.239   0.836  11.576
90039W        W53598   2.887  30.579   3.755
90040W        W53599  25.568   1.299   0.783
90041W        W53600   9.273   9.393  13.432
90042W        W53601  43.955  26.136  13.970
90043W        W53602  12.721  14.625  11.442
90044W        W53603  33.461  30.983   4.210
90045W        W53604  37.500   2.787   4.753
90046W        W53605   5.774  26.477  13.407
90047W        W53606  26.472   0.414  10.424
90048W        W53607  37.073  41.354  11.074
90049W        W53608  24.601  31.008  10.971
90050W        W53609   9.841  13.227   1.300
90051W        W53610  30.121  28.621   1.361
90052W        W53611  24.197  18.196   4.606
90053W        W53612   6.876  12.851   0.477
90054W        W53613  16.167  18.645   0.428
90055W        W53614  12.199  40.535   2.883
90056W        W53615   9.745  22.630   4.335
90057W        W53616  40.464  33.920   9.510
90058W        W53617  28.555  22.701   0.853
90059W        W53618  25.541  41.332   4.833
90060W        W53619  42.458  15.251  10.895
90061W        W53620  22.144  29.169   1.762
90062W        W53621  24.997  30.610  14.371
90063W        W53622  18.115  18.735   0.450
90064W        W53623  36.443   9.177  13.832
90065W        W53624  39.927  13.719   1.305
90066W        W53625   7.388  36.008  11.406
90067W        W53626  41.520  32.573  11.569
90068W        W53627  15.127   1.301  14.841
90069W        W53628  37.022  28.542   1.364
90070W        W53629  13.131   4.775   3.710
90071W        W53630   7.401   0.415  11.080
90072W        W53631  41.497  37.833  14.339
90073W        W53632  25.666  28.171  12.460
90074W        W53633  33.458  40.944  11.417
90075W        W53634  34.372  43.303   4.333
90076W        W53635  25.570  20.117   3.164
90077W        W53636   5.408  41.882  10.504
90078W        W53637   1.836  38.504   4.685
90079W        W53638   3.754   0.437  10.924
90080W        W53639  16.681  27.973   2.879
90081W        W53640  23.202  18.193  13.448
90082W        W53641  44.468  31.111  13.398
90083W        W53642  20.265  19.580   1.351
90084W        W53643  22.649   2.428  13.861
90085W        W53644  26.039   8.178  12.866
90086W        W53645   3.219   5.762   2.761
90087W        W53646  20.591  44.833  14.941
90088W        W53647  33.532  32.591  13.047
90089W        W53648  40.021  43.855  11.453
90090W        W53649  43.470  37.080  12.053
90091W        W53650  18.173   0.335  13.837
90092W        W53651  35.866  40.356  12.064
90093W        W53652   4.709  15.639  13.904
90094W        W53653  41.924  43.466  11.376
90095W        W53654   5.714  13.147   4.226
90096W        W53655  35.060  16.257   0.449
90097W        W53656  31.429  35.866  10.931
90098W        W53657  44.870   6.216   4.291
90099W        W53658  39.026   3.791   2.769
90100W        W53659  40.546  15.267  12.069
90101W        W53660  10.704  12.815  14.448
90102W        W53661  16.693  21.116   5.191
90103W        W53662  33.394   3.355   4.700
90104W        W53663   3.282  32.583   1.898
90105W        W53664   7.225  32.009   0.845
90106W        W53665  29.964  39.507   2.850
90107W        W53666  24.627   9.852  14.925
90108W        W53667  34.425   9.885   2.838
90109W        W53668  10.641  38.377   4.832
90110W        W53669  26.635  15.606  11.883
90111W        W53670  16.641  37.372   4.696
90112W        W53671   2.750   3.747  14.398
90113W        W53672  28.151  22.731   4.275
90114W        W53673   1.345  19.144   2.707
90115W        W53674   5.839  41.827  14.467
90116W        W53675   5.711  20.124   0.451
90117W        W53676  21.043  16.097  10.485
90118W        W53677  40.471   3.900   0.376
90119W        W53678  31.481  25.565   1.931
90120W        W53679  21.134  35.108  11.872
90121W        W53680  40.834   4.712  14.294
90122W        W53681   3.287  38.420   3.271
90123W        W53682  33.623  24.612  12.433
90124W        W53683   3.789  37.028   2.737
90125W        W53684  29.140  21.116   4.791
90126W        W53685  28.055  20.723   0.746
90127W        W53686   0.853  27.047  12.467
90128W        W53687  30.107  23.601   0.304
90129W        W53688  10.252  25.051  10.591
90130W        W53689  14.128  16.582   1.357
90131W        W53690  19.123  35.447  12.997
90132W        W53691  18.687  18.585  13.973
90133W        W53692  25.061  37.083  12.543
90134W        W53693  42.008  21.541   0.824
90135W        W53694  25.515  22.228  11.578
90136W        W53695  14.166  41.414   9.990
90137W        W53696  28.553  10.767  10.541
90138W        W53697  12.610  17.125   4.718
90139W        W53698  41.316  36.850  11.602
90140W        W53699   7.221   1.734  14.308
90141W        W53700  14.800  43.005   1.848
90142W        W53701  21.539   1.920  13.386
90143W        W53702  22.115   0.408  11.026
90144W        W53703  15.806  11.357   2.388
90145W        W53704  42.005  12.743  14.006
90146W        W53705  22.652  10.319   4.633
90147W        W53706  40.003  42.834   3.192
90148W        W53707  38.360   3.896   0.266
90149W        W53708  26.013  22.613  14.320
90150W        W53709  35.109  43.786   3.327
90151W        W53710  19.586  19.169   2.884
90152W        W53711  44.841  42.447   2.677
90153W        W53712  23.667  36.095   0.877
90154W        W53713  28.109  36.478  14.929
90155W        W53714  37.347  17.781  12.499
90156W        W53715   4.854  19.160  10.903
90157W        W53716  15.161  44.322   9.955
90158W        W53717  32.456  28.112   1.830
90159W        W53718   9.767   5.217   3.800
90160W        W53719  35.568  19.256  10.464
90161W        W53720  28.139  26.973   2.202
90162W        W53721  32.417  38.936  12.954
90163W        W53722  44.007  14.807   2.755
90164W        W53723  20.663  37.539  10.480
90165W        W53724  41.901  10.664   1.749
90166W        W53725  10.706   6.698  11.973
90167W        W53726  35.104  18.640  11.012
90168W        W53727  29.564  40.363  11.052
90169W        W53728   7.311   5.252   1.259
90170W        W53729  35.883  22.182   3.264
90171W        W53730  44.816  27.481   1.912
90172W        W53731  14.603  12.308   4.743
90173W        W53732  10.156  13.149   2.316
90174W        W53733  33.386   1.473  10.536
90175W        W53734   1.880  17.225   2.238
90176W        W53735  29.170  39.013  14.372
90177W        W53736  43.981   4.924  10.143
90178W        W53737  22.053  32.523   2.313
90179W        W53738  22.038  38.053   3.840
90180W        W53739   2.821  10.815  10.973
90181W        W53740   0.988   2.343   4.225
90182W        W53741  12.266  21.222  11.013
90183W        W53742   2.454  29.070   0.465
90184W        W53743  42.857  31.071  10.505
90185W        W53744  26.985   3.786   4.177
90186W        W53745  28.665  15.087  11.928
90187W        W53746  29.968  41.850   4.231
90188W        W53747   3.729  13.296   4.129
90189W        W53748  11.241  24.681  14.394
90190W        W53749  14.663   3.868  14.028
90191W        W53750  32.905  38.878   3.845
90192W        W53751  28.594  12.760   1.900
90193W        W53752  19.758  43.285   3.362
90194W        W53753  40.959  40.008   1.319
90195W        W53754   7.865  11.638  13.868
90196W        W53755  19.633  17.711   3.824
90197W        W53756  34.908  11.221   1.711
90198W        W53757  41.312  12.760  13.936
90199W        W53758  37.902  13.250  13.489
90200W        W53759  24.227  44.810  12.449
90201W        W53760  29.165  33.029  13.360
90202W        W53761  26.203   8.807  11.486
90203W        W53762  24.506  40.020   0.865
90204W        W53763   2.805  39.044   3.654
90205W        W53764  10.208   1.403  11.542
90206W        W53765   6.894  35.419   1.823
90207W        W53766   1.323  14.334  11.904
90208W        W53767  41.419   8.659   3.712
90209W        W53768  16.102   6.240  13.847
90210W        W53769  26.185   1.950  10.580
90211W        W53770  18.673  30.617  12.478
90212W        W53771  34.519  27.127   1.239
90213W        W53772  38.902  26.518   2.281
90214W        W53773  13.776  26.651   2.706
90215W        W53774  32.449  31.981   0.861
90216W        W53775   4.793   4.270   4.770
90217W        W53776  31.472  42.941   4.346
90218W        W53777   4.360  20.164  13.446
90219W        W53778   1.741  15.172   2.813
90220W        W53779  30.072  21.242   2.360
90221W        W53780  34.475  34.934   3.636
90222W        W53781  31.544  10.675   0.820
90223W        W53782  31.145   8.831  13.792
90224W        W53783   7.273  22.688  11.088
90225W        W53784  27.976  10.313  12.989
90226W        W53785  13.727  40.932  14.337
90227W        W53786  23.193   7.768  12.080
90228W        W53787   9.850  10.779   3.737
90229W        W53788   4.809  44.921   0.878
90230W        W53789   5.743  27.173   3.232
90231W        W53790  13.156   4.798   4.184
90232W        W53791  19.142   4.840  12.011
90233W        W53792  17.613  39.519   4.295
90234W        W53793  38.941  30.643  12.010
90235W        W53794  20.768   4.360   3.809
90236W        W53795   0.913  15.681   9.945
90237W        W53796  43.489  13.614   4.278
90238W        W53797   9.237   3.265  14.292
90239W        W53798  35.095   8.686  12.579
90240W        W53799  10.723  38.458   2.317
90241W        W53800  17.642   0.431   0.396
90242W        W53801  16.212  38.337  14.312
90243W        W53802  34.421  15.619   3.345
90244W        W53803  23.024  20.047  14.493
90245W        W53804  23.203  31.957  14.305
90246W        W53805  11.860  24.046   4.755
90247W        W53806   3.297   4.431  12.553
90248W        W53807   8.821  38.324  11.569
90249W        W53808  34.462  11.349   3.329
90250W        W53809  10.636   1.803  11.398
90251W        W53810  39.527  25.063   1.889
90252W        W53811   7.766  35.107  10.642
90253W        W53812   1.457  16.145   3.261
90254W        W53813  41.310  17.169   2.861
90255W        W53814   6.823  10.214   0.298
90256W        W53815  26.959  31.983  13.016
90257W        W53816   5.342  10.832  14.009
90258W        W53817  21.744  44.913   3.194
90259W        W53818  26.586  12.647  14.383
90260W        W53819   1.925  38.963   4.689
90261W        W53820   9.675  23.007  12.001
90262W        W53821  13.125  36.549   1.424
90263W        W53822  16.578  39.362   1.294
90264W        W53823  12.624   7.211  12.518
90265W        W53824  27.110  31.967  11.613
90266W        W53825  17.063   1.961   2.225
90267W        W53826   0.374  17.678  12.013
90268W        W53827  12.721  32.926   0.306
90269W        W53828  13.621  27.997   2.718
90270W        W53829  15.178  37.543  14.817
90271W        W53830  10.244  23.221   5.087
90272W        W53831  35.490  38.028  12.064
90273W        W53832   8.839   7.808   1.336
90274W        W53833  43.516  29.929  13.888
90275W        W53834  14.665  11.178  13.502
90276W        W53835  40.853  11.269  14.887
90277W        W53836  40.425  15.167   0.873
90278W        W53837  18.257  30.432   4.124
90279W        W53838   8.367   1.345  11.126
90280W        W53839   7.841  10.639  13.997
90281W        W53840  24.193  13.164   1.342
90282W        W53841  37.472  12.816  11.113
90283W        W53842   1.920  36.459   1.812
90284W        W53843  14.589  41.977   2.326
90285W        W53844  22.026  19.757   1.709
90286W        W53845  25.165  27.181   2.291
90287W        W53846  35.083   9.656  13.993
90288W        W53847  34.442   2.898   1.771
90289W        W53848  28.082  25.208   4.325
90290W        W53849  27.076  20.052  12.835
90291W        W53850  10.824  43.836  11.949
90292W        W53851   8.852  22.098   0.838
90293W        W53852  19.107  28.668  13.818
90294W        W53853  17.667  44.315  13.902
90295W        W53854  15.140  17.092   2.831
90296W        W53855  19.568  38.881  11.089
90297W        W53856  24.546  21.152   3.726
90298W        W53857  17.757  34.968  13.050
90299W        W53858  27.046  14.173  13.958
90300W        W53859   0.770  25.060   0.824
90301W        W53860  23.589  26.584  10.520
90302W        W53861  23.630  24.200  14.845
90303W        W53862  40.496  24.986  10.436
90304W        W53863  33.381  25.139   4.790
90305W        W53864  36.453  39.327   3.680
90306W        W53865  31.439  24.617   3.651
90307W        W53866  44.771  28.122  13.317
90308W        W53867   7.365  30.599  12.480
90309W        W53868   7.728  37.485  11.565
90310W        W53869  11.235  36.864   3.181
90311W        W53870  21.155   5.839  12.561
90312W        W53871   7.687   8.160   4.249
90313W        W53872   0.287  26.966  14.995
90314W        W53873   4.351  10.854  13.043
90315W        W53874   5.710  19.746  12.091
90316W        W53875  25.174  12.625  14.435
90317W        W53876   4.289  32.991   3.180
90318W        W53877  30.436  37.337   2.897
90319W        W53878   9.737   4.712  12.860
90320W        W53879  25.568  18.184  14.915
90321W        W53880  20.186  17.238   3.339
90322W        W53881   7.794   6.700  10.412
90323W        W53882  24.978   6.353  11.606
90324W        W53883  14.819  44.814   4.613
90325W        W53884  17.093  24.107   4.246
90326W        W53885   6.314  17.699  14.996
90327W        W53886  26.465   8.694   0.362
90328W        W53887   5.908  17.204   1.782
90329W        W53888  25.492   4.874   4.235
90330W        W53889  22.017  25.608   3.799
90331W        W53890   5.735  24.667   4.673
90332W        W53891   6.687  36.857  12.005
90333W        W53892  10.223   9.330   0.260
90334W        W53893  20.660  25.472   1.865
90335W        W53894  44.909  44.285  13.533
90336W        W53895  24.073  26.044  12.001
90337W        W53896  18.224  28.632  10.946
90338W        W53897  44.004   5.786  12.928
90339W        W53898  11.222  38.568  14.917
90340W        W53899   7.342   7.838   1.731
90341W        W53900   3.245  13.648  14.901
90342W        W53901  31.948   4.854   4.657
90343W        W53902  42.522   7.761  14.767
90344W        W53903   0.494  35.991  12.977
90345W        W53904  13.168  34.040  12.005
90346W        W53905  24.010  24.659   1.353
90347W        W53906  37.044  42.516   2.401
90348W        W53907  39.962  44.845   2.235
90349W        W53908   9.667  20.541   4.775
90350W        W53909  43.313  17.721  14.344
90351W        W53910  42.954  12.656   0.268
90352W        W53911  22.533  32.003   1.289
90353W        W53912  26.084  20.111   3.276
90354W        W53913   3.324  33.028   4.772
90355W        W53914   2.288  23.504  10.475
90356W        W53915  31.611  15.299  11.601
90357W        W53916   2.911  31.563  13.863
90358W        W53917  11.748   4.795  10.539
90359W        W53918  28.132   5.284   3.742
90360W        W53919   3.385  36.490  10.405
90361W        W53920  12.837   1.917   3.158
90362W        W53921  27.455  32.409   2.708
90363W        W53922  41.796  14.319   5.317
90364W        W53923  28.138   2.288  13.831
90365W        W53924  12.211  20.223  13.817
90366W        W53925   9.319  14.273   2.239
90367W        W53926   7.251  11.746   2.267
90368W        W53927   0.883  15.221   4.155
90369W        W53928  22.504   7.180   2.385
90370W        W53929   7.670  38.547  14.405
90371W        W53930  44.993   8.751   2.700
90372W        W53931  20.213  36.900   1.933
90373W        W53932  16.694  38.535   2.832
90374W        W53933   9.300  12.786  10.966
90375W        W53934   6.879  15.140  10.632
90376W        W53935  27.486  21.157  11.959
90377W        W53936  42.416  26.464   1.808
90378W        W53937  28.029  11.307   0.813
90379W        W53938  44.860  19.064   1.437
90380W        W53939  42.500  15.792   2.205
90381W        W53940  18.787  14.237  14.368
90382W        W53941   9.342  36.976   1.739
90383W        W53942  44.429   0.405   1.801
90384W        W53943  36.070  12.707   0.368
90385W        W53944  26.567   6.415   1.807
90386W        W53945  41.010  15.277   0.949
90387W        W53946  43.853  21.533   1.313
90388W        W53947   3.265  25.995   1.301
90389W        W53948  32.544  35.443   2.240
90390W        W53949  10.368  18.136   4.681
90391W        W53950   4.725   8.745   2.682
90392W        W53951  28.001  34.936   2.333
90393W        W53952   1.295  33.479   0.443
90394W        W53953  16.801   9.757  12.456
90395W        W53954   2.847   8.667  13.987
90396W        W53955  35.995  28.633  12.495
90397W        W53956  34.497  15.750  10.577
90398W        W53957  13.110   6.392   4.177
90399W        W53958  18.163  41.020  12.377
90400W        W53959  11.672  44.325  12.432
90401W        W53960   7.183  39.348  13.318
90402W        W53961  39.385  19.176  12.833
90403W        W53962  16.228  26.101   4.230
90404W        W53963  43.356  23.694  11.567
90405W        W53964  23.731  17.683  14.981
90406W        W53965   3.767   5.295   3.673
90407W        W53966   5.807  18.547   1.372
90408W        W53967  20.686  17.557  14.770
90409W        W53968  44.375  25.666   1.443
90410W        W53969   7.317   5.834  11.127
90411W        W53970  39.908  35.559  10.590
90412W        W53971   8.673  24.093  10.449
90413W        W53972  16.184  25.509  12.946
90414W        W53973  24.718  39.484  12.052
90415W        W53974  13.628  42.349   4.207
90416W        W53975  14.634  29.121   3.300
90417W        W53976  33.938  43.809   1.935
90418W        W53977  22.521  44.962  12.546
90419W        W53978  27.452  18.275   3.673
90420W        W53979  37.975  35.853   0.817
90421W        W53980  32.493  43.956  14.818
90422W        W53981  22.223  16.708   4.328
90423W        W53982  32.399  23.571   0.270
90424W        W53983  10.226  14.117  14.939
90425W        W53984  12.218  25.621  12.077
90426W        W53985   0.940  21.200   3.865
90427W        W53986  25.156   0.469   2.722
90428W        W53987   3.914   2.725  13.991
90429W        W53988  23.069  40.499   0.731
90430W        W53989  43.348  40.968   4.733
90431W        W53990  37.382  25.039  14.846
90432W        W53991  17.556   0.431   3.868
90433W        W53992  13.306  35.987   1.776
90434W        W53993  31.473  21.114   0.747
90435W        W53994  32.962   3.322   1.447
90436W        W53995  16.221  37.416   1.729
90437W        W53996  33.000  37.930  14.923
90438W        W53997  29.541  35.897   4.808
90439W        W53998  27.059  44.386   4.685
90440W        W53999   6.899  33.552   0.791
90441W        W54000  26.970  31.949   1.270
90442W        W54001  42.499   0.291  12.059
90443W        W54002  33.042  33.506   1.746
90444W        W54003  20.091  20.767   0.448
90445W        W54004  40.053   6.791  13.469
90446W        W54005  24.713  28.649  10.417
90447W        W54006  11.709   3.267  13.919
90448W        W54007  19.215  35.570  12.520
90449W        W54008   6.387   9.255   4.117
90450W        W54009  12.822   4.389   2.268
90451W        W54010   3.231  15.583  13.834
90452W        W54011  39.946   2.808  14.766
90453W        W54012   1.922  38.981  13.805
90454W        W54013  13.330   9.306   1.436
90455W        W54014   4.315  41.866   0.393
90456W        W54015  21.538  14.752   3.290
90457W        W54016  39.056  16.696   2.218
90458W        W54017  23.640  18.195   3.287
90459W        W54018  39.422  20.624   3.370
90460W        W54019  40.953  24.200  10.519
90461W        W54020  42.323  26.671   2.669
90462W        W54021   4.315  22.153  11.455
90463W        W54022  18.637   5.231  14.960
90464W        W54023  18.743   5.379  12.857
90465W        W54024  21.753  40.836  12.952
90466W        W54025  25.680  17.194  11.937
90467W        W54026  19.659  38.892  11.870
90468W        W54027  39.913   1.330   1.340
90469W        W54028  39.057  44.862  14.930
90470W        W54029   2.338   5.899  12.396
90471W        W54030   0.816  31.615   3.201
90472W        W54031   4.909   2.857  13.437
90473W        W54032  34.935  31.995   3.352
90474W        W54033  19.224   2.775  10.541
90475W        W54034  27.033  21.635  14.298
90476W        W54035  28.035  19.171   0.767
90477W        W54036  36.380  44.826   2.237
90478W        W54037  44.811  11.280  10.909
90479W        W54038  40.976  12.632   2.259
90480W        W54039  18.572  34.560  13.992
90481W        W54040   8.659  27.947  13.445
90482W        W54041  23.616  33.435  12.844
90483W        W54042  29.017   3.779  14.435
90484W        W54043   8.287  42.506  13.335
90485W        W54044  21.246  20.607   3.237
90486W        W54045  13.233  19.681  14.508
90487W        W54046  26.006   8.294   2.893
90488W        W54047  43.784  16.072   0.484
90489W        W54048  29.609  12.640  10.028
90490W        W54049  18.085  16.166   0.380
90491W        W54050  44.936   1.862  11.549
90492W        W54051  39.921  37.407  11.865
90493W        W54052  24.094  24.009   1.820
90494W        W54053  38.826   1.262   0.284
90495W        W54054   8.335  25.035  11.059
90496W        W54055  23.711  12.124  12.017
90497W        W54056   6.683  42.308  14.894
90498W        W54057   3.308   5.704  12.579
90499W        W54058  29.049   9.183  14.292
90500W        W54059   9.291  34.379   0.881
90501W        W54060  33.933   0.946   2.900
90502W        W54061  31.054  16.577   4.603
90503W        W54062  16.655  37.928   1.429
90504W        W54063  13.230  33.591   9.945
90505W        W54064  32.498  32.566   3.816
90506W        W54065  32.921  12.335   4.647
90507W        W54066   9.389  24.218   3.659
90508W        W54067  32.504   3.234  13.519
90509W        W54068  21.606  43.906   1.849
90510W        W54069  17.203  28.026  11.529
90511W        W54070  43.930  16.183   1.838
90512W        W54071  32.452   8.659   1.748
90513W        W54072  25.988  12.241   2.395
90514W        W54073  44.475   7.733  13.823
90515W        W54074  18.158  42.525  14.318
90516W        W54075  33.050  43.386   1.393
90517W        W54076   7.766   8.718   2.776
90518W        W54077  21.577  42.511   2.781
90519W        W54078  35.065  37.399  14.489
90520W        W54079   6.320   1.290  12.085
90521W        W54080  11.718  20.678  10.420
90522W        W54081  25.210  34.999  12.564
90523W        W54082  40.346  24.063   4.746
90524W        W54083  10.241  32.933   2.868
90525W        W54084  31.066  37.424   9.591
90526W        W54085  22.069   8.695  13.020
90527W        W54086  27.482  24.625   9.588
90528W        W54087  15.090   6.911  14.906
90529W        W54088  44.007  19.238   1.287
90530W        W54089  33.013  13.771  11.967
90531W        W54090  12.128  16.110   2.311
90532W        W54091  23.142  29.526   5.595
90533W        W54092  25.549  29.069   3.207
90534W        W54093  19.678   5.925   3.196
90535W        W54094  36.011  12.221  12.479
90536W        W54095  12.145  34.087   4.221
90537W        W54096  43.877  19.110  13.493
90538W        W54097  11.756  34.877   3.237
90539W        W54098   4.713  25.471  14.304
90540W        W54099  30.003   9.388   1.211
90541W        W54100  29.525  27.655  11.559
90542W        W54101  23.684  11.656  10.577
90543W        W54102   1.909  26.149   0.430
90544W        W54103  32.928   9.318  12.340
90545W        W54104  42.869  13.319  11.497
90546W        W54105   8.820  43.791  11.053
90547W        W54106  26.073  37.347  14.846
90548W        W54107   2.412  25.212   4.653
90549W        W54108  32.407  29.501   0.417
90550W        W54109  37.001  16.787  10.449
90551W        W54110  15.600   1.253   2.674
90552W        W54111  42.010  36.534  14.415
90553W        W54112  32.050  16.255  14.873
90554W        W54113  28.995  27.500   0.731
90555W        W54114  15.190   0.398  12.503
90556W        W54115  15.607  32.038   3.744
90557W        W54116  37.493  30.579  10.411
90558W        W54117  33.382  26.962  10.941
90559W        W54118  36.953   1.420   1.931
90560W        W54119   6.876  43.911   0.765
90561W        W54120  25.170  37.968   4.819
90562W        W54121  40.540  28.058   4.768
90563W        W54122   9.260  16.755   3.305
90564W        W54123  26.586  14.770   3.793
90565W        W54124   6.340  29.046  14.995
90566W        W54125   7.814  40.026   0.907
90567W        W54126  44.407  13.714  13.393
90568W        W54127  17.066  37.343   5.093
90569W        W54128   0.415  20.581   1.763
90570W        W54129  43.491  28.478   2.711
90571W        W54130  43.339   8.898   1.917
90572W        W54131  23.002  40.829  13.049
90573W        W54132   0.372  44.305  12.491
90574W        W54133  40.319  28.039  14.367
90575W        W54134  15.663  33.585   3.368
90576W        W54135  12.816  21.643  10.141
90577W        W54136  41.981   1.778  10.560
90578W        W54137  24.493  18.108   4.159
90579W        W54138  30.917  22.533   3.279
90580W        W54139   0.258  30.918  13.820
90581W        W54140  42.922  43.991  12.872
90582W        W54141  32.974  24.523  14.332
90583W        W54142  26.128  20.073   2.827
90584W        W54143   5.314  29.166   3.713
90585W        W54144  25.197  28.049   4.809
90586W        W54145   9.706  14.242   1.342
90587W        W54146  36.984   0.966  12.027
90588W        W54147  29.631  40.978  14.330
90589W        W54148  14.293   5.391  12.471
90590W        W54149  10.329  13.775  13.799
90591W        W54150  34.990  29.993  14.825
90592W        W54151  18.741   5.880  13.032
90593W        W54152  40.019  14.334  11.407
90594W        W54153   2.727  24.520  11.613
90595W        W54154  38.416   5.698  10.548
90596W        W54155  12.343  39.020  11.541
90597W        W54156  27.610  18.059  14.934
90598W        W54157  19.612  28.642   1.807
90599W        W54158   3.737   6.184  13.517
90600W        W54159  31.063  41.334   2.705
90601W        W54160  37.992  44.763   3.166
90602W        W54161   5.830  29.530  10.433
90603W        W54162  22.508   0.480   2.259
90604W        W54163  35.360  15.091  11.931
90605W        W54164  11.193  15.084  11.399
90606W        W54165  37.020  18.245   2.182
90607W        W54166   4.216  23.121   2.208
90608W        W54167  31.479   5.728  12.340
90609W        W54168  21.172  36.088  14.427
90610W        W54169  24.663  23.028   4.295
90611W        W54170  15.149  24.718   3.235
90612W        W54171  43.871   9.839   4.183
90613W        W54172  20.204   2.887   2.255
90614W        W54173  19.559  28.154   2.375
90615W        W54174  13.688   2.292   4.653
90616W        W54175   6.341  36.511   2.877
90617W        W54176   0.748  43.770  12.049
90618W        W54177  40.978  43.396  12.939
90619W        W54178   5.800  27.186  10.629
90620W        W54179  21.680  30.617   5.778
90621W        W54180  21.654  26.983   4.337
90622W        W54181  18.730  29.122  10.605
90623W        W54182   3.333   1.880  10.019
90624W        W54183  27.958  10.378  14.990
90625W        W54184   0.831  15.762   4.120
90626W        W54185  20.268  13.705   4.680
90627W        W54186  24.671   6.904  12.358
90628W        W54187  33.961   2.835  10.936
90629W        W54188   3.268  31.898   4.792
90630W        W54189  34.025  20.580  11.524
90631W        W54190  30.111  44.404   1.336
90632W        W54191   7.334  25.097  12.867
90633W        W54192  37.013   3.456  11.900
90634W        W54193  29.455  34.516   5.108
90635W        W54194  20.092  19.639   4.799
90636W        W54195  13.336  29.446   3.664
90637W        W54196  33.593  11.360   4.223
90638W        W54197   7.875  43.472   1.789
90639W        W54198  13.123  22.660   9.518
90640W        W54199  35.412  41.815   4.706
90641W        W54200  38.031  14.317   0.417
90642W        W54201  13.812  44.268   4.798
90643W        W54202  42.527   8.224   4.275
90644W        W54203  12.654  17.589  10.428
90645W        W54204  33.470  32.992   4.179
90646W        W54205   2.857  42.830   1.762
90647W        W54206  44.482  23.239   2.758
90648W        W54207  38.382   3.790   1.926
90649W        W54208  44.783  27.987  12.473
90650W        W54209  19.735  31.039   3.278
90651W        W54210  26.486  20.028  11.858
90652W        W54211  18.578   4.302   3.859
90653W        W54212  29.655  12.803   0.416
90654W        W54213  17.110  22.198   4.775
90655W        W54214   6.765  39.332  14.318
90656W        W54215  25.175  32.546   5.105
90657W        W54216   0.866   0.864   3.698
90658W        W54217   1.879  27.948  13.896
90659W        W54218  31.076  14.601   0.410
90660W        W54219  38.349  14.597  13.937
90661W        W54220  39.491   2.735  11.881
90662W        W54221  18.146  35.549   2.900
90663W        W54222  40.544  44.006  11.563
90664W        W54223   2.921  34.029  11.114
90665W        W54224  13.307  39.462   0.766
90666W        W54225  13.750  35.961   2.761
90667W        W54226  16.206   4.865  11.077
90668W        W54227  14.103   7.306  12.375
90669W        W54228   0.983  11.793  13.878
90670W        W54229  31.425  17.641   1.770
90671W        W54230  44.320   0.269  14.923
90672W        W54231   4.794  37.577  13.939
90673W        W54232  35.415  43.398   2.797
90674W        W54233  19.679  40.383  14.813
90675W        W54234  18.733  16.171   1.759
90676W        W54235  35.994  37.949  12.474
90677W        W54236  32.485  44.807   0.917
90678W        W54237  44.967  26.575  11.861
90679W        W54238  12.681  35.431   0.939
90680W        W54239  29.093  42.365  10.897
90681W        W54240  34.997  16.736   1.714
90682W        W54241   4.816   3.318  14.461
90683W        W54242  35.034  25.491  13.861
90684W        W54243  38.358   4.842   4.309
90685W        W54244  44.885  16.077   2.707
90686W        W54245  27.055   1.912  12.556
90687W        W54246  24.997  11.280   1.779
90688W        W54247  23.619  39.547  12.925
90689W        W54248  17.193   2.343   2.355
90690W        W54249   7.674  14.818   5.293
90691W        W54250  13.163  21.145  11.499
90692W        W54251   4.265  42.972   0.294
90693W        W54252  27.091  31.147  13.517
90694W        W54253   9.691   0.950  11.020
90695W        W54254  25.034  14.740  10.570
90696W        W54255   6.761  32.418  13.841
90697W        W54256  20.620   3.292   3.166
90698W        W54257  21.055  41.508   3.260
90699W        W54258  35.915  31.627   0.451
90700W        W54259  41.479  32.446  10.633
90701W        W54260  22.687  31.975  12.998
90702W        W54261  11.298  37.878  14.306
90703W        W54262  18.589   6.408   3.357
90704W        W54263  31.901  13.615  12.088
90705W        W54264  10.871  36.542   2.796
90706W        W54265  30.103  41.489  12.565
90707W        W54266   6.236  21.240   0.732
90708W        W54267  15.801  22.137  10.140
90709W        W54268  14.720  23.195   1.387
90710W        W54269  14.677   1.969  13.856
90711W        W54270   7.854  32.615   3.672
90712W        W54271   6.699  21.085   9.968
90713W        W54272  15.633  31.478   4.780
90714W        W54273  34.120   0.972  14.879
90715W        W54274  11.768  20.191  14.459
90716W        W54275   0.783   8.191   0.462
90717W        W54276  41.024   4.333  10.986
90718W        W54277  14.235  24.117  12.466
90719W        W54278  11.254  26.565   0.336
90720W        W54279  38.511  14.817  13.421
90721W        W54280   1.260  22.504  11.023
90722W        W54281  42.022  23.223   3.851
90723W        W54282  33.993  24.151  12.546
90724W        W54283   9.304   8.738  14.513
90725W        W54284  15.698   6.901   1.800
90726W        W54285   6.727  37.017  12.870
90727W        W54286  29.507  39.481   3.714
90728W        W54287  22.245  30.953   4.171
90729W        W54288  42.825  29.113  11.572
90730W        W54289  18.254   6.888   2.298
90731W        W54290  14.733   3.460  12.954
90732W        W54291   6.295  41.317  12.440
90733W        W54292  39.384  15.753  13.480
90734W        W54293  40.491   9.225  11.105
90735W        W54294  39.941   4.872  13.833
90736W        W54295  11.224   7.912  14.395
90737W        W54296  11.733   6.828   4.247
90738W        W54297  15.577  29.662  10.418
90739W        W54298  38.057   8.793  12.058
90740W        W54299   9.165  41.806   1.275
90741W        W54300   3.235  44.979  13.525
90742W        W54301  44.264   9.770  14.510
90743W        W54302  28.012  28.930   3.787
90744W        W54303  40.460   4.399   1.760
90745W        W54304   4.206  26.107  12.945
90746W        W54305  11.325  25.497  14.978
90747W        W54306  42.856  16.755  13.923
90748W        W54307  24.720   4.369   2.846
90749W        W54308  24.553  25.593  13.933
90750W        W54309  33.925  26.052   0.361
90751W        W54310   1.904  22.166   3.647
90752W        W54311  25.701  14.199   2.366
90753W        W54312  13.251  42.873  13.433
90754W        W54313  32.967  19.774   4.214
90755W        W54314   4.915  20.178   3.358
90756W        W54315  16.719  17.555   0.811
90757W        W54316   2.468  25.992   1.419
90758W        W54317  40.344  14.734   1.731
90759W        W54318  23.628  17.753   2.834
90760W        W54319  17.244  27.681   3.293
90761W        W54320  28.435  27.079  11.029
90762W        W54321  41.878  21.640   3.310
90763W        W54322  11.207  37.917  10.110
90764W        W54323   2.832  40.041   1.811
90765W        W54324  39.505  23.712   0.777
90766W        W54325  26.079  23.005  12.516
90767W        W54326   8.226  42.498   0.768
90768W        W54327   6.731  26.466  11.061
90769W        W54328   9.809  36.966   3.269
90770W        W54329   5.203  14.821  12.360
90771W        W54330  39.989   3.751   1.338
90772W        W54331  41.321  32.068  12.505
90773W        W54332  13.336  21.535   1.922
90774W        W54333  41.525  19.534   3.260
90775W        W54334  43.437   8.175  12.345
90776W        W54335  23.662  17.610   0.732
90777W        W54336  36.952  13.302   3.853
90778W        W54337   8.683  42.923  13.462
90779W        W54338  17.586  39.849   0.338
90780W        W54339   3.736  16.236   0.798
90781W        W54340  40.011  16.744  11.927
90782W        W54341   0.265  12.362   3.307
90783W        W54342  31.637  38.333   0.882
90784W        W54343   3.757  17.698   1.447
90785W        W54344   3.863  38.563  11.910
90786W        W54345   0.344  19.548   1.792
90787W        W54346  16.125   8.376  14.787
90788W        W54347  38.060   4.397   2.211
90789W        W54348   6.385  39.350   3.639
90790W        W54349  36.040  15.730   3.289
90791W        W54350  28.501  20.267   2.751
90792W        W54351  10.743   1.774   1.743
90793W        W54352  35.981  25.029   2.812
90794W        W54353  12.271  20.566  12.532
90795W        W54354  30.060   5.405  14.399
90796W        W54355  13.624  30.016  13.452
90797W        W54356   8.872   8.221  12.905
90798W        W54357   2.247  23.490  14.850
90799W        W54358  25.986   1.284   3.209
90800W        W54359  11.861  16.587   3.695
90801W        W54360  36.908   8.179   5.191
90802W        W54361   1.805  42.386  12.527
90803W        W54362   4.871  44.425   1.344
90804W        W54363   5.756  12.279  11.591
90805W        W54364  26.457   9.149  13.925
90806W        W54365  37.922   7.743   4.140
90807W        W54366  27.075  19.089   4.232
90808W        W54367  25.008  35.472  10.481
90809W        W54368   1.417  32.555  11.071
90810W        W54369  22.657  13.301  11.437
90811W        W54370   9.850  23.548  11.544
90812W        W54371  19.775   7.317  12.400
90813W        W54372  15.709  10.709   3.756
90814W        W54373   9.167  22.588   1.739
90815W        W54374  14.132  25.517   1.447
90816W        W54375  34.102  39.358   4.677
90817W        W54376  17.183  24.122   3.273
90818W        W54377  12.697  31.479   3.668
90819W        W54378   1.960  15.231  11.426
90820W        W54379  15.623  28.485   3.654
90821W        W54380   5.348  35.499  13.389
90822W        W54381  28.940  32.924  14.478
90823W        W54382  44.499  24.491   1.306
90824W        W54383  24.168  23.715   1.212
90825W        W54384  21.730  39.482   3.857
90826W        W54385  11.365  30.419  11.586
90827W        W54386  37.522  15.620   2.772
90828W        W54387   4.316  26.645   1.830
90829W        W54388  10.290  36.483   2.780
90830W        W54389  25.498   4.441  14.905
90831W        W54390   9.739  43.333   2.850
90832W        W54391  24.974   2.768  12.364
90833W        W54392   2.277  24.543   3.796
90834W        W54393  34.471   3.956   1.793
90835W        W54394  18.238   4.282  12.494
90836W        W54395  40.480  43.284   4.345
90837W        W54396   9.318  31.646  11.061
90838W        W54397   4.304  26.179  12.428
90839W        W54398  16.117  15.724  14.339
90840W        W54399  37.982   0.829  14.858
90841W        W54400   9.747  26.604   5.311
90842W        W54401  13.298  11.224  13.964
90843W        W54402  35.475  37.425   0.408
90844W        W54403  25.070  18.570  10.574
90845W        W54404  28.047  21.053  14.381
90846W        W54405  34.093   5.253   2.296
90847W        W54406  19.139   2.924  12.979
90848W        W54407  17.288   7.702  14.802
90849W        W54408   6.855  18.266  14.942
90850W        W54409   2.876   8.325   4.761
90851W        W54410  11.840  43.482  11.885
90852W        W54411   8.384  44.930   3.799
90853W        W54412  16.755  44.441  13.873
90854W        W54413  18.563  22.048   1.839
90855W        W54414   7.311  22.739   0.385
90856W        W54415  16.100   5.830   2.710
90857W        W54416  14.621  24.566   3.269
90858W        W54417   7.836   8.231   3.307
90859W        W54418  30.908  37.018   9.478
90860W        W54419  13.274  35.358  10.159
90861W        W54420  42.414  39.990  11.492
90862W        W54421  27.035  18.593  13.051
90863W        W54422   5.291  26.574   4.630
90864W        W54423   9.876  28.947   2.302
90865W        W54424  18.626  27.055  14.338
90866W        W54425   8.787  34.887   4.314
90867W        W54426  36.964  14.650  11.609
90868W        W54427  41.960   4.755  13.016
90869W        W54428  13.253  43.854  14.988
90870W        W54429  31.512  20.228  11.871
90871W        W54430  38.564  14.268   0.781
90872W        W54431  13.325  16.224  10.563
90873W        W54432  24.021   8.209  11.125
90874W        W54433  27.175  25.512  12.399
90875W        W54434  37.851  17.766   3.843
90876W        W54435  15.652  38.074  12.931
90877W        W54436   1.470  35.551   2.229
90878W        W54437  39.325  11.830   4.285
90879W        W54438   7.848  33.923   0.908
90880W        W54439  13.125  34.011   9.635
90881W        W54440  26.180  20.639   5.699
90882W        W54441  13.808  43.766   4.728
90883W        W54442  19.537  26.558   5.283
90884W        W54443   2.748  24.030   2.300
90885W        W54444  27.141  40.377   2.366
90886W        W54445  10.663  30.100  12.422
90887W        W54446   5.888  38.523  12.363
90888W        W54447  20.743  21.090   2.282
90889W        W54448  16.567  11.320  14.800
90890W        W54449  38.476   1.368   1.334
90891W        W54450  26.054   5.902  14.311
90892W        W54451  19.168  18.674   3.279
90893W        W54452  24.558  16.222  11.062
90894W        W54453  44.832  42.892  10.590
90895W        W54454   4.766  13.110   1.881
90896W        W54455  38.938  20.764  12.371
90897W        W54456  14.710  15.166  14.933
90898W        W54457  25.161  31.036   1.212
90899W        W54458  30.473  17.713   1.924
90900W        W54459  28.440   8.889  12.486
90901W        W54460  12.698  21.566  11.002
90902W        W54461  23.574  15.627   0.755
90903W        W54462  14.144  24.137  14.300
90904W        W54463  40.038  35.516  13.865
90905W        W54464  43.314  36.384   1.310
90906W        W54465  20.195  28.681  14.314
90907W        W54466  10.791   2.793  14.512
90908W        W54467  44.452  18.669  12.011
90909W        W54468  31.119  17.751   1.856
90910W        W54469  13.241  25.045  13.489
90911W        W54470   0.849  33.012  13.969
90912W        W54471  17.121  34.395  11.066
90913W        W54472  22.062   6.804   0.917
90914W        W54473  33.038  24.676   3.704
90915W        W54474  35.501  40.501   3.383
90916W        W54475   6.761   4.880   2.382
90917W        W54476   2.919  24.579  14.851
90918W        W54477  20.101  26.183  13.057
90919W        W54478   8.701  10.811   0.794
90920W        W54479   9.312   9.158  12.513
90921W        W54480  10.729  23.554  14.915
90922W        W54481  39.341  38.537  11.473
90923W        W54482  12.658  35.070   1.309
90924W        W54483  12.142   2.834  14.301
90925W        W54484  20.038   9.180  13.524
90926W        W54485  28.602  35.928  11.503
90927W        W54486   3.818  18.732   2.855
90928W        W54487  44.915  18.286   1.878
90929W        W54488  20.610   6.253  12.019
90930W        W54489   3.321  42.416  12.431
90931W        W54490  22.519  21.590   3.245
90932W        W54491   0.369  22.549   3.187
90933W        W54492  10.363  28.628  14.510
90934W        W54493  10.715   5.436  14.398
90935W        W54494   4.773   6.877  14.511
90936W        W54495  23.093  31.516  14.283
90937W        W54496  14.762  27.179   4.610
90938W        W54497  28.984  41.977  11.379
90939W        W54498  25.087  29.498  10.546
90940W        W54499  17.292  27.099   3.210
90941W        W54500   4.408  22.579   3.383
90942W        W54501   7.863  19.626  12.499
90943W        W54502  13.194  33.108  10.016
90944W        W54503  15.264  17.178  14.795
90945W        W54504  25.158  17.088  13.063
90946W        W54505  33.526  28.535   1.436
90947W        W54506  25.475   6.228  11.117
90948W        W54507   3.249  33.479  14.422
90949W        W54508  18.616  12.275  14.464
90950W        W54509  41.860  41.959  11.395
90951W        W54510  11.860   3.297  10.518
90952W        W54511   9.307  13.736  13.015
90953W        W54512   4.241  27.952  14.847
90954W        W54513  42.824  33.115   2.290
90955W        W54514  20.068  18.102   3.706
90956W        W54515  21.211  25.042   4.674
90957W        W54516  34.605  14.302   1.255
90958W        W54517   1.926  12.305   1.857
90959W        W54518  17.752  12.779  11.548
90960W        W54519  43.495   3.844  11.440
90961W        W54520  19.106   1.784   2.360
90962W        W54521   2.241  31.408   2.301
90963W        W54522   8.262  23.137   0.962
90964W        W54523  41.826   5.423  10.544
90965W        W54524   2.867  31.069   1.831
90966W        W54525   4.343  18.187   2.331
90967W        W54526  15.720  23.578  12.087
90968W        W54527   1.266   0.425   1.424
90969W        W54528  32.123  13.762   0.457
90970W        W54529  35.867  31.906   9.961
90971W        W54530  36.973  10.185   1.266
90972W        W54531  25.470  17.643  10.463
90973W        W54532  33.533  44.495  11.505
90974W        W54533  34.594  25.492   1.409
90975W        W54534  11.817  19.758  10.908
90976W        W54535  30.446  20.083   1.850
90977W        W54536   1.767  30.118  13.008
90978W        W54537  37.374  43.377   4.249
90979W        W54538  26.105  17.626   1.264
90980W        W54539   3.865  35.943   0.366
90981W        W54540  42.317   9.718   1.932
90982W        W54541   3.927  30.947  14.978
90983W        W54542   2.945   1.927   3.693
90984W        W54543  39.953  25.621   2.298
90985W        W54544   2.908  25.486  13.947
90986W        W54545   5.913  15.265   1.800
90987W        W54546  43.768  10.187  11.952
90988W        W54547  30.556  41.387  14.810
90989W        W54548  24.051   6.677   1.749
90990W        W54549  13.620   1.483   2.293
90991W        W54550  29.937  19.147   2.402
90992W        W54551  25.153  25.560  14.459
90993W        W54552  40.367  39.499  11.948
90994W        W54553   8.822  28.055   2.850
90995W        W54554  19.568  41.306   0.404
90996W        W54555  11.311  43.399  12.417
90997W        W54556  10.370  26.191  10.485
90998W        W54557  41.995  31.936  11.861
90999W        W54558   0.896  21.210   1.781
91000W        W54559  25.554  20.647   2.204
91001W        W54560  17.289  25.983  13.916
91002W        W54561  27.665   6.428  14.475
91003W        W54562  24.613  40.458   3.179
91004W        W54563  13.826  33.587   4.236
91005W        W54564  24.138  21.113  13.544
91006W        W54565  17.725  30.471  11.026
91007W        W54566  20.078  20.054   4.717
91008W        W54567   0.762  25.612  14.905
91009W        W54568  37.471  36.449  14.980
91010W        W54569  14.121  12.305  12.479
91011W        W54570  24.087  16.173  12.872
91012W        W54571  39.343  22.587   2.320
91013W        W54572  12.701   9.301  13.872
91014W        W54573   9.829  13.159   0.860
91015W        W54574  40.397  35.390   3.248
91016W        W54575  25.668  33.432   2.743
91017W        W54576  35.879  43.470   4.124
91018W        W54577  12.611  18.096   1.908
91019W        W54578  42.405  33.409   1.864
91020W        W54579   8.798  10.794   3.312
91021W        W54580  11.721  19.098   4.271
91022W        W54581  10.200   1.849   2.314
91023W        W54582  22.598  26.017   0.270
91024W        W54583  41.843  22.518  10.470
91025W        W54584   0.952  18.262  14.881
91026W        W54585  19.128   4.447  13.892
91027W        W54586   4.920  38.476  12.505
91028W        W54587  20.656   8.246  14.840
91029W        W54588  43.385  10.272  13.012
91030W        W54589  38.826   2.841   0.380
91031W        W54590  39.938  24.039   1.917
91032W        W54591  35.542   2.303  11.603
91033W        W54592  25.525   3.260   3.870
91034W        W54593  14.293  25.634  10.944
91035W        W54594   4.417  40.411  14.934
91036W        W54595  23.122   3.929  11.000
91037W        W54596   0.421  33.951   2.356
91038W        W54597  42.986  24.046  14.006
91039W        W54598  10.197  39.430   0.917
91040W        W54599  20.710  23.223   1.723
91041W        W54600   0.950  21.595  11.469
91042W        W54601  15.597  11.640   1.851
91043W        W54602  35.581  37.566  10.488
91044W        W54603  37.893  17.186   1.866
91045W        W54604  29.075  13.844  13.949
91046W        W54605   2.351   9.188  10.448
91047W        W54606   7.713   5.901   4.197
91048W        W54607  19.665  25.657   0.947
91049W        W54608  29.562  16.573  12.471
91050W        W54609  23.102  19.044  14.315
91051W        W54610  24.557  41.869  14.820
91052W        W54611  35.597  42.411  13.488
91053W        W54612  10.845  40.906   4.181
91054W        W54613  26.606  32.630  12.457
91055W        W54614   3.259  29.072   0.326
91056W        W54615  16.607  31.496   1.240
91057W        W54616  17.735  19.735  11.448
91058W        W54617  37.411  16.745  10.441
91059W        W54618  34.483  30.143  14.779
91060W        W54619   0.767  41.968   1.758
91061W        W54620   0.753   7.885  14.793
91062W        W54621  32.142  35.022  14.788
91063W        W54622  35.869  13.846  13.451
91064W        W54623  36.904  44.291  11.427
91065W        W54624  20.647  28.136   9.987
91066W        W54625  10.198   5.899  10.457
91067W        W54626  41.538  35.037  14.972
91068W        W54627  21.599   1.354  11.463
91069W        W54628   1.335  24.098  14.773
91070W        W54629  27.115  42.857   2.675
91071W        W54630  42.022  17.270   9.982
91072W        W54631  35.026   0.292  13.517
91073W        W54632  18.587  27.058   3.212
91074W        W54633   0.830  18.649   0.452
91075W        W54634   3.459  19.661   0.432
91076W        W54635  38.945  17.684   2.879
91077W        W54636   7.811  36.585  11.487
91078W        W54637  10.277   5.316   3.348
91079W        W54638  24.680  31.014  10.417
91080W        W54639  11.729  15.109  11.916
91081W        W54640   4.206  10.184   0.939
91082W        W54641  42.850  17.289   4.301
91083W        W54642   6.245  11.693   0.930
91084W        W54643   0.794   5.864  11.093
91085W        W54644   0.293  13.157   4.802
91086W        W54645   8.850  37.507   2.402
91087W        W54646  13.643  10.681   0.480
91088W        W54647  10.150   8.225  11.483
91089W        W54648  15.163   0.928   0.469
91090W        W54649  34.932  23.683   0.821
91091W        W54650   7.249  17.789  13.364
91092W        W54651  32.965  29.953   1.849
91093W        W54652  17.648  40.431   0.278
91094W        W54653  26.675   1.239  12.445
91095W        W54654   6.409   4.735  11.911
91096W        W54655  42.525   4.275   3.681
91097W        W54656  25.194  15.634   5.181
91098W        W54657   9.804   4.256  12.344
91099W        W54658  22.637   6.339  10.432
91100W        W54659  24.179  41.026  10.621
91101W        W54660  41.010   9.837   1.823
91102W        W54661  44.783  11.318  12.938
91103W        W54662  39.540  36.555   3.689
91104W        W54663   0.901  17.102   4.305
91105W        W54664  14.125  39.521   3.173
91106W        W54665  26.130  32.905  10.625
91107W        W54666  35.490  12.743   0.320
91108W        W54667  41.838  18.288   2.682
91109W        W54668  31.027  39.325  12.345
91110W        W54669  37.358  13.248   3.668
91111W        W54670   2.735  16.568   2.207
91112W        W54671  14.162  21.049   3.866
91113W        W54672   9.377  24.623   4.814
91114W        W54673  14.814   8.709  11.896
91115W        W54674  42.813  33.086   3.681
91116W        W54675  19.247  12.611  11.862
91117W        W54676   1.442  18.207  12.571
91118W        W54677  27.450  15.086   1.882
91119W        W54678  42.017  31.955   2.726
91120W        W54679   9.377  31.016  14.952
91121W        W54680  37.546   2.352   4.758
91122W        W54681  28.611  20.656   2.710
91123W        W54682  37.897   0.853  10.493
91124W        W54683   9.273  21.693   3.250
91125W        W54684  36.378  33.435  14.456
91126W        W54685  44.893  22.038   3.661
91127W        W54686  26.533   7.881  12.078
91128W        W54687  22.042  16.660   0.407
91129W        W54688  36.028  33.565  11.994
91130W        W54689  43.272  24.059  13.946
91131W        W54690  39.451  33.891  12.470
91132W        W54691  11.250  22.209  11.027
91133W        W54692  29.059  24.102  14.308
91134W        W54693  19.682  21.124   1.409
91135W        W54694  13.264  30.636   2.344
91136W        W54695  34.059  20.244  13.867
91137W        W54696  14.752  26.662   2.900
91138W        W54697  41.789  20.559   3.372
91139W        W54698   4.771  26.963  13.370
91140W        W54699  27.499  17.084  13.539
91141W        W54700  38.946   5.755  14.315
91142W        W54701   3.743  12.118  14.481
91143W        W54702   2.355  38.402  13.486
91144W        W54703   2.917  27.954  12.854
91145W        W54704  34.607   8.852   2.266
91146W        W54705   8.759  42.348  14.966
91147W        W54706   1.386  38.490  13.396
91148W        W54707   5.261   1.816  13.410
91149W        W54708   1.394  16.715   2.189
91150W        W54709  25.644  15.749   0.331
91151W        W54710  42.958   4.749  12.441
91152W        W54711   1.862  29.086   0.914
91153W        W54712  21.523  38.564   4.334
91154W        W54713   2.340   3.717   3.305
91155W        W54714   1.291  33.040  13.363
91156W        W54715   0.313  21.117  11.102
91157W        W54716  16.294  44.338   0.759
91158W        W54717  31.461   7.708   0.839
91159W        W54718   7.690   8.336  14.313
91160W        W54719  11.764  29.474   3.288
91161W        W54720  44.283  27.535  12.937
91162W        W54721   2.909  17.071   0.818
91163W        W54722   4.821  41.458  11.538
91164W        W54723  16.210  12.794  13.310
91165W        W54724  32.134  41.010  14.373
91166W        W54725  24.141   0.928   4.296
91167W        W54726  41.366  28.985  11.577
91168W        W54727  25.710  36.077   2.280
91169W        W54728  32.911  24.547   2.267
91170W        W54729  29.521  18.146   1.355
91171W        W54730  10.814  11.652  12.498
91172W        W54731  18.140  44.416  13.521
91173W        W54732  36.987  26.701   3.167
91174W        W54733  35.023   2.424   3.211
91175W        W54734   8.773   7.270   4.177
91176W        W54735  28.631  28.449   2.190
91177W        W54736  16.615  33.070  14.413
91178W        W54737  11.228  26.976  11.107
91179W        W54738  20.634  10.176   3.632
91180W        W54739  19.073   5.247   0.327
91181W        W54740  24.639  19.177   3.677
91182W        W54741  26.645   7.834  12.555
91183W        W54742  37.984  32.625  13.023
91184W        W54743   1.419  18.091   3.369
91185W        W54744  17.261  33.616  10.936
91186W        W54745  39.007  13.832  14.462
91187W        W54746  10.379   4.882   2.831
91188W        W54747  28.494   1.881  12.886
91189W        W54748  42.981   1.886   0.468
91190W        W54749  44.966   0.988  13.812
91191W        W54750  19.703   2.228   3.862
91192W        W54751   1.389   2.810  14.374
91193W        W54752   4.944  31.619  12.391
91194W        W54753  29.484   7.873   2.883
91195W        W54754  11.194  23.129   5.169
91196W        W54755  31.099  24.489  13.825
91197W        W54756  26.633  34.914   0.405
91198W        W54757  14.223  26.992   2.717
91199W        W54758   7.297   5.704   2.191
91200W        W54759   2.834   4.225  13.989
91201W        W54760   1.482  23.239  12.351
91202W        W54761  42.961  36.988   4.771
91203W        W54762  41.790  27.170   0.726
91204W        W54763  21.240   8.178   4.825
91205W        W54764   9.830  19.747   0.434
91206W        W54765  37.864  31.557   5.577
91207W        W54766   7.711   9.812   2.301
91208W        W54767  22.200  18.718   3.862
91209W        W54768   3.455   9.381  14.893
91210W        W54769  33.963  22.695   3.292
91211W        W54770  27.121  35.967  13.064
91212W        W54771  39.841  22.996   4.719
91213W        W54772  11.365  38.875  11.477
91214W        W54773  30.085  41.990  14.032
91215W        W54774  24.568  43.928   2.775
91216W        W54775  41.793  31.935  13.029
91217W        W54776  44.881  33.927  13.964
91218W        W54777  44.760   0.848  11.931
91219W        W54778  35.475  37.922   2.248
91220W        W54779  42.477  31.465  13.872
91221W        W54780  16.634  44.875  13.006
91222W        W54781   2.807  11.224   2.850
91223W        W54782  11.152  38.418   4.203
91224W        W54783  31.990  21.260   0.755
91225W        W54784  38.550  16.739   4.680
91226W        W54785  21.018  28.102   2.339
91227W        W54786   2.768   9.870   0.351
91228W        W54787  24.213  13.302  11.525
91229W        W54788  40.420  41.823  10.644
91230W        W54789   4.387   8.661  12.072
91231W        W54790  39.403  18.293  12.392
91232W        W54791  12.625  44.374   1.246
91233W        W54792  19.653  23.128   4.312
91234W        W54793   6.361  23.175   3.650
91235W        W54794  28.475  40.844   5.621
91236W        W54795   9.713  27.574  10.920
91237W        W54796  15.620  10.321  13.345
91238W        W54797   7.729  30.584   1.370
91239W        W54798   8.827  10.339   4.632
91240W        W54799  25.064  32.425  13.955
91241W        W54800   8.868  32.581  11.578
91242W        W54801   1.280  32.406   2.683
91243W        W54802  18.132  27.642  12.437
91244W        W54803  16.107  23.522   9.593
91245W        W54804  41.945  24.651   2.244
91246W        W54805  33.449  28.995  14.473
91247W        W54806  18.165  23.049  11.386
91248W        W54807  44.297  13.622  14.761
91249W        W54808  40.873  32.955  14.303
91250W        W54809  25.704  14.750   3.205
91251W        W54810  37.445  37.878   4.766
91252W        W54811  27.090  14.234   0.285
91253W        W54812  16.572   0.929  12.035
91254W        W54813  21.582  35.391   0.886
91255W        W54814  38.842  25.666   4.762
91256W        W54815  42.019  14.798   3.657
91257W        W54816  20.765  37.860  14.850
91258W        W54817  36.038  19.731  12.454
91259W        W54818  38.409  22.577  14.424
91260W        W54819  14.739  24.079   3.816
91261W        W54820  43.373  39.351   3.313
91262W        W54821  39.872  28.976   0.252
91263W        W54822  21.569  36.536   4.251
91264W        W54823  23.008  42.791   3.823
91265W        W54824  28.487  24.603  14.787
91266W        W54825  40.939  41.873   1.282
91267W        W54826  15.783   4.892   1.314
91268W        W54827  20.230  27.049   3.676
91269W        W54828  19.684  38.031  11.418
91270W        W54829  16.158   1.877   4.258
91271W        W54830  15.668   4.937  13.921
91272W        W54831  10.370   9.832  12.518
91273W        W54832  26.685  15.271   0.423
91274W        W54833  28.437  16.770   4.196
91275W        W54834  38.059  17.186  12.449
91276W        W54835  24.691  33.606  14.419
91277W        W54836  24.120  15.243  12.046
91278W        W54837  33.472  41.523  14.901
91279W        W54838   7.697  41.871  14.367
91280W        W54839  38.914   4.748   3.776
91281W        W54840  39.061   9.259  11.547
91282W        W54841  40.989  29.449  12.441
91283W        W54842  36.476   6.783  14.894
91284W        W54843  33.529  32.457   4.706
91285W        W54844  42.019  33.423  11.510
91286W        W54845  34.073  26.074   4.226
91287W        W54846  21.125   6.287  10.541
91288W        W54847   8.241  27.450   3.683
91289W        W54848  40.918  15.777  10.613
91290W        W54849   1.419  37.991  10.409
91291W        W54850  26.114  32.401   0.808
91292W        W54851  30.157  12.627   1.284
91293W        W54852  40.539  33.506   4.277
91294W        W54853  23.112  26.081  10.510
91295W        W54854  40.008  40.804  13.875
91296W        W54855  42.964  42.498   1.823
91297W        W54856  38.012  30.444  12.840
91298W        W54857  25.091  44.345   4.324
91299W        W54858  41.393  13.697   3.855
91300W        W54859  43.899  29.428   3.306
91301W        W54860  17.665  41.505  12.901
91302W        W54861  31.416   8.254  10.523
91303W        W54862  44.298  20.044   4.348
91304W        W54863  32.544  12.700   3.687
91305W        W54864  32.563  11.622   2.767
91306W        W54865  43.424  28.653   0.951
91307W        W54866  34.992  40.827   0.745
91308W        W54867  35.499  30.916  12.515
91309W        W54868  32.951  38.405   4.652
91310W        W54869  10.833  28.679   4.743
91311W        W54870  14.734  16.247  10.555
91312W        W54871  32.934  39.321  14.778
91313W        W54872  22.151  15.685  13.861
91314W        W54873  26.502  18.639   0.923
91315W        W54874  31.021  35.921  11.968
91316W        W54875   3.306  40.833   2.710
91317W        W54876  40.008   7.308   1.218
91318W        W54877   4.842  21.516   3.717
91319W        W54878  40.903  42.969  13.347
91320W        W54879  27.983   9.286  12.902
91321W        W54880  15.712  28.483  11.094
91322W        W54881  32.030   3.399  13.456
91323W        W54882  18.650  20.761   4.173
91324W        W54883  24.551  11.303   1.809
91325W        W54884  43.393  12.225  12.036
91326W        W54885  29.975  20.642  12.023
91327W        W54886  20.166   5.272  13.442
91328W        W54887  37.361  41.875  14.512
91329W        W54888  27.179  15.190   1.358
91330W        W54889  16.738   4.366   0.405
91331W        W54890  34.476  36.855  13.060
91332W        W54891  27.685   7.392  12.033
91333W        W54892  35.856  22.718   2.727
91334W        W54893  33.924  41.298  13.017
91335W        W54894  33.052   5.239  10.516
91336W        W54895  10.748  42.883   1.277
91337W        W54896  22.504  20.039  11.076
91338W        W54897   6.423  40.372  13.424
91339W        W54898  44.961  43.765  12.350
91340W        W54899  39.416  19.077   0.354
91341W        W54900  43.348  17.776  12.982
91342W        W54901  13.334  15.594  12.927
91343W        W54902  10.346   7.804   1.784
91344W        W54903  31.086  10.206   5.320
91345W        W54904  11.667   3.734  11.549
91346W        W54905  33.593  42.311  10.525
91347W        W54906  42.327  34.006   2.715
91348W        W54907  29.921   7.806  13.924
91349W        W54908   8.823  22.648  14.288
91350W        W54909  37.455  17.667  11.418
91351W        W54910  11.335   1.265   4.186
91352W        W54911  16.807  15.252  11.916
91353W        W54912  34.375  11.736   1.887
91354W        W54913  21.256   6.220   3.804
91355W        W54914  41.840  14.302   1.447
91356W        W54915  26.119  38.877   2.742
91357W        W54916   7.361  33.888   0.257
91358W        W54917  34.984   0.436  14.506
91359W        W54918  31.933  23.524   1.409
91360W        W54919  22.702  15.710   0.266
91361W        W54920  44.899  33.397  14.405
91362W        W54921  13.177  37.360  13.887
91363W        W54922  28.491  32.508   4.718
91364W        W54923  11.801  38.456  11.120
91365W        W54924  19.162   2.304   4.308
91366W        W54925  19.596  14.822  13.869
91367W        W54926  41.341   6.860  13.330
91368W        W54927  34.117   6.207  13.352
91369W        W54928   1.873  18.170   0.761
91370W        W54929  20.132  17.613  11.385
91371W        W54930  44.927  10.167  10.538
91372W        W54931  39.034  20.654  12.969
91373W        W54932  27.046   6.237  10.972
91374W        W54933   3.443  36.465   4.787
91375W        W54934   1.324   1.927   4.332
91376W        W54935  44.855  22.998   4.833
91377W        W54936  39.065  40.810   1.799
91378W        W54937   2.338  21.103   2.704
91379W        W54938  12.207  21.631  13.432
91380W        W54939  28.463  16.132  13.505
91381W        W54940  41.881  33.934   2.718
91382W        W54941   7.230  28.154  10.582
91383W        W54942   6.771  31.990   5.316
91384W        W54943  16.172  21.030   4.664
91385W        W54944  39.053  29.559  13.481
91386W        W54945   9.682   0.833   3.385
91387W        W54946   2.280  19.282   3.157
91388W        W54947  37.468  17.214  12.444
91389W        W54948   6.791   6.688   0.866
91390W        W54949  25.623  19.534   2.392
91391W        W54950   2.305  36.380   0.461
91392W        W54951  22.644  30.084  13.844
91393W        W54952  13.712   0.841  13.541
91394W        W54953  30.064  39.045   4.157
91395W        W54954  27.680   7.356   0.475
91396W        W54955  15.177   9.342   2.789
91397W        W54956   9.734  44.279  10.633
91398W        W54957  42.836  25.004   3.233
91399W        W54958  43.780  27.176  12.952
91400W        W54959   2.335   9.155  14.947
91401W        W54960  36.844  32.486  11.118
91402W        W54961  11.249  12.177  11.119
91403W        W54962  31.480  15.788  13.441
91404W        W54963  32.444  34.452  12.502
91405W        W54964   9.822  14.739  11.913
91406W        W54965  43.327  22.745  14.933
91407W        W54966   7.845  12.190  11.966
91408W        W54967   7.311  41.842   0.878
91409W        W54968   5.897  36.843   0.950
91410W        W54969  11.161   9.804  11.500
91411W        W54970  31.430  32.890  12.530
91412W        W54971  35.107  39.492  10.581
91413W        W54972  43.770   1.249  13.859
91414W        W54973  26.491  32.594   2.400
91415W        W54974  37.500  30.949   0.896
91416W        W54975   5.731   2.832   2.382
91417W        W54976  19.570  10.803   0.374
91418W        W54977  16.803  43.939   1.244
91419W        W54978  15.625  25.519   0.434
91420W        W54979  37.041  42.915   4.767
91421W        W54980  20.749  33.431  12.547
91422W        W54981  26.178  35.950  13.530
91423W        W54982   8.276  39.479   3.200
91424W        W54983   7.393  42.794   5.128
91425W        W54984  30.057  27.995  12.387
91426W        W54985  30.563  23.647   1.282
91427W        W54986  33.605   8.368   4.147
91428W        W54987   9.231   1.960   0.905
91429W        W54988  24.538  42.001  11.427
91430W        W54989  34.119  28.633  13.483
91431W        W54990   7.732  42.839  10.974
91432W        W54991  21.652  22.056  13.817
91433W        W54992   7.224  34.045  14.506
91434W        W54993   5.726  39.332  12.575
91435W        W54994  23.105   8.894   2.848
91436W        W54995  27.140  13.130  11.070
91437W        W54996  16.779  44.458   0.394
91438W        W54997  38.834  29.009   2.727
91439W        W54998   3.260  39.850   4.785
91440W        W54999   9.308   2.870  12.362
91441W        W55000   9.871  32.091  13.832
91442W        W55001  33.561  19.553   1.384
91443W        W55002  35.589  34.037  10.451
91444W        W55003  11.368   0.266   4.642
91445W        W55004   1.467   8.685   4.597
91446W        W55005  41.502  20.196   4.305
91447W        W55006   4.237  37.019  11.094
91448W        W55007  35.395  24.480  12.462
91449W        W55008  21.673  17.740   0.962
91450W        W55009  32.940  11.147   0.794
91451W        W55010  10.308  20.525   3.277
91452W        W55011  42.349  20.110   4.637
91453W        W55012  36.925  37.862  11.376
91454W        W55013   9.164  29.575  12.890
91455W        W55014   9.302   4.744   4.253
91456W        W55015   8.406  29.567  10.539
91457W        W55016  44.274  34.070  11.528
91458W        W55017  17.656  24.137   1.845
91459W        W55018  28.455   6.378   2.679
91460W        W55019  20.271   7.315  10.064
91461W        W55020  41.329  27.524   1.787
91462W        W55021  44.261  40.518  10.437
91463W        W55022  37.474   2.887  14.914
91464W        W55023   9.204  11.842   5.120
91465W        W55024   1.357   9.834   2.744
91466W        W55025  25.994  10.333   2.700
91467W        W55026   8.388   7.339  12.383
91468W        W55027  32.897  17.126   3.260
91469W        W55028  23.011  16.269  12.005
91470W        W55029  19.603   0.474   1.877
91471W        W55030  39.520  21.172  13.863
91472W        W55031  21.686   4.405   3.257
91473W        W55032   9.331  32.080  13.047
91474W        W55033  32.481   4.313  14.759
91475W        W55034  12.301  17.556  14.787
91476W        W55035   1.963  31.139  13.481
91477W        W55036  43.358  42.953  12.984
91478W        W55037   3.770   0.324   1.719
91479W        W55038  28.983  18.583   0.299
91480W        W55039  25.971  20.195   4.645
91481W        W55040   0.838  26.646  10.928
91482W        W55041  34.563  20.133  12.891
91483W        W55042   6.897   6.821  12.891
91484W        W55043  21.609   1.841   3.856
91485W        W55044  44.939  44.490   2.662
91486W        W55045  21.682  42.826  14.450
91487W        W55046  12.125   5.753  12.953
91488W        W55047   4.766  21.685  14.902
91489W        W55048  13.615   9.197   1.307
91490W        W55049   9.760  29.503   4.732
91491W        W55050  14.231  13.347   2.765
91492W        W55051   0.338  33.075  12.434
91493W        W55052   1.928  24.529   1.389
91494W        W55053  33.970  19.678  11.126
91495W        W55054  35.396  19.079   0.295
91496W        W55055  29.524  28.103   5.138
91497W        W55056  37.933   7.373   0.850
91498W        W55057  39.358  38.885   2.373
91499W        W55058  15.760  33.020   2.310
91500W        W55059  16.778  10.769   3.146
91501W        W55060  11.348  35.888  10.524
91502W        W55061  28.112   6.407   3.162
91503W        W55062  37.859  44.830  13.972
91504W        W55063  37.066  19.582  12.558
91505W        W55064  32.477  19.086  11.902
91506W        W55065  44.924  31.612  13.916
91507W        W55066  40.816  21.593  12.962
91508W        W55067  19.132  26.663   0.297
91509W        W55068   7.299  37.031  14.946
91510W        W55069  41.985   4.777  10.559
91511W        W55070  11.820   4.796   4.634
91512W        W55071  25.110  21.707  14.397
91513W        W55072  37.425  42.347   4.275
91514W        W55073   7.848  44.810   4.201
91515W        W55074   8.278  35.408   2.261
91516W        W55075   1.958   9.686  10.545
91517W        W55076  35.408  29.163  14.895
91518W        W55077  31.078  15.767  11.861
91519W        W55078  12.318   9.843  10.029
91520W        W55079  11.768  28.940  13.811
91521W        W55080  24.519  41.401  11.876
91522W        W55081  15.667   8.895  12.419
91523W        W55082  19.215  33.455   2.788
91524W        W55083  42.897   7.737   5.252
91525W        W55084   5.355  13.740   1.931
91526W        W55085  23.052  24.026  13.483
91527W        W55086  35.499  38.925  13.330
91528W        W55087  26.073   3.266  11.099
91529W        W55088  12.174  20.660   2.232
91530W        W55089   6.376  15.319   4.831
91531W        W55090   8.203  16.746   1.429
91532W        W55091  13.783  13.659  14.362
91533W        W55092   0.931  24.606   4.332
91534W        W55093  32.013  27.940   0.753
91535W        W55094  16.717  35.898  14.297
91536W        W55095  34.005  41.431   3.834
91537W        W55096  22.628  40.007  13.806
91538W        W55097  18.740  44.788   3.669
91539W        W55098   7.906  32.039   5.099
91540W        W55099  20.143  26.594  11.952
91541W        W55100   4.408   5.783  12.357
91542W        W55101  44.970  12.691  11.070
91543W        W55102  33.496  41.397   1.909
91544W        W55103  17.306  35.360  13.449
91545W        W55104  42.407  44.844   0.941
91546W        W55105  44.365  43.996   2.261
91547W        W55106  27.080  44.427   1.894
91548W        W55107  39.428  23.068  12.413
91549W        W55108  16.285  30.461   4.696
91550W        W55109   1.326  42.448   4.670
91551W        W55110  38.364   3.238  10.559
91552W        W55111   3.233  30.945   1.891
91553W        W55112  32.482   6.717  12.848
91554W        W55113   6.378  40.493   0.379
91555W        W55114  10.301  32.972   2.219
91556W        W55115  44.371  38.344  10.143
91557W        W55116  13.257   7.810  12.460
91558W        W55117  25.703  36.052  14.767
91559W        W55118  40.004  15.747   3.682
91560W        W55119   3.910  43.015  11.458
91561W        W55120  42.956  17.561   2.770
91562W        W55121  22.053  11.252  11.911
91563W        W55122  31.612  30.930   3.651
91564W        W55123  27.645   7.394  11.399
91565W        W55124  35.448  22.077   4.665
91566W        W55125  18.194  15.816  11.971
91567W        W55126  14.312  33.989  10.597
91568W        W55127  13.739  10.234   0.440
91569W        W55128   8.690   5.917  12.385
91570W        W55129  39.045  30.156   4.331
91571W        W55130  24.111  21.635  14.770
91572W        W55131  13.835  17.649  13.919
91573W        W55132   0.761  37.443  14.981
91574W        W55133  33.495  26.982  13.476
91575W        W55134  19.256  11.181  12.466
91576W        W55135  18.065   8.159  12.045
91577W        W55136  35.890  17.104  13.828
91578W        W55137  31.002  33.386  13.450
91579W        W55138  43.376  27.130  10.900
91580W        W55139  24.036  24.228  13.437
91581W        W55140  37.862  14.100  10.619
91582W        W55141   3.367  30.948   3.328
91583W        W55142   4.244  44.356  11.048
91584W        W55143   8.349  10.236  12.372
91585W        W55144  12.697  27.606   4.260
91586W        W55145  41.455   2.764  11.573
91587W        W55146   8.655   2.277   3.214
91588W        W55147  29.997  42.927   4.192
91589W        W55148  40.537  42.993   3.688
91590W        W55149  21.655  33.395  10.519
91591W        W55150  44.932  10.381   1.359
91592W        W55151   3.389  16.676  12.023
91593W        W55152   2.739  32.033   1.424
91594W        W55153  36.927  32.526   2.722
91595W        W55154  13.254  11.146  14.502
91596W        W55155  33.408  19.122   1.767
91597W        W55156  19.665  43.848   4.778
91598W        W55157  34.470  17.092   4.303
91599W        W55158   8.799  38.532  13.405
91600W        W55159   9.182  42.864  14.957
91601W        W55160  33.409  19.772  12.528
91602W        W55161  35.599  35.462  13.387
91603W        W55162  12.207   8.860  10.499
91604W        W55163  16.640  25.646   2.695
91605W        W55164  29.525  41.833   4.339
91606W        W55165  14.107  39.549  10.436
91607W        W55166  18.161   5.905  12.986
91608W        W55167  12.821  27.685  14.376
91609W        W55168  25.541  29.107   2.208
91610W        W55169  24.156  22.037  14.961
91611W        W55170  43.271  21.683  12.540
91612W        W55171   7.390  31.065  13.544
91613W        W55172  40.312  18.756  10.940
91614W        W55173   5.901  32.938   4.708
91615W        W55174  35.506  34.389  11.058
91616W        W55175  17.593   3.839   2.204
91617W        W55176  11.774  35.495  11.400
91618W        W55177   0.475  10.286  12.056
91619W        W55178  36.072  41.341  13.468
91620W        W55179  13.192  26.127   2.746
91621W        W55180  38.356  29.036  14.886
91622W        W55181   9.791   4.872   4.348
91623W        W55182   4.801  20.703   4.610
91624W        W55183  19.058  16.610   2.297
91625W        W55184  14.773  29.647   1.397
91626W        W55185  13.807  44.492  14.985
91627W        W55186  22.573  28.467   3.199
91628W        W55187  37.055  23.073  14.343
91629W        W55188  18.702  29.997   1.448
91630W        W55189  40.326  27.499  10.556
91631W        W55190   7.350   6.300   3.249
91632W        W55191  13.838  34.101   3.707
91633W        W55192   6.910  44.267   1.735
91634W        W55193  43.472  34.929   3.829
91635W        W55194  14.710  30.121   4.805
91636W        W55195   8.849  29.468  13.947
91637W        W55196  15.119  11.268  11.889
91638W        W55197   9.843  21.538   4.278
91639W        W55198   4.805  12.206  14.353
91640W        W55199  28.946  41.433  13.332
91641W        W55200   4.342  22.135   4.353
91642W        W55201  18.706  20.241  12.070
91643W        W55202  36.014  16.784  13.498
91644W        W55203  14.106   7.763  12.964
91645W        W55204  17.296  22.692   3.212
91646W        W55205   6.855  31.955   1.788
91647W        W55206   2.833   7.316   3.844
91648W        W55207  22.021  19.605   0.913
91649W        W55208  11.759  15.644  13.029
91650W        W55209  32.624  13.669  10.554
91651W        W55210  17.068  14.724   2.848
91652W        W55211  10.827  13.148  14.888
91653W        W55212  23.607  31.607   4.185
91654W        W55213  35.586  39.998  12.445
91655W        W55214  22.619  36.473  14.788
91656W        W55215  20.710  40.805  11.932
91657W        W55216  29.469  39.505  12.378
91658W        W55217  19.092   9.651  14.387
91659W        W55218  29.015  32.546   2.813
91660W        W55219  43.417  33.406   2.789
91661W        W55220  36.960  23.188  11.376
91662W        W55221  27.589  12.832   2.359
91663W        W55222  27.004  24.637   0.465
91664W        W55223   7.412  28.170  12.568
91665W        W55224  12.211  27.161  13.882
91666W        W55225  43.399   7.330   2.868
91667W        W55226  25.681  32.019  14.310
91668W        W55227   9.700   2.740  11.574
91669W        W55228  23.081  42.976   2.865
91670W        W55229  39.027  14.312  10.478
91671W        W55230  16.222  44.871  12.548
91672W        W55231   1.477  38.938   3.761
91673W        W55232  37.027  20.144   4.228
91674W        W55233   0.402  36.013   0.384
91675W        W55234  44.789  13.175  13.955
91676W        W55235   5.692  14.833  11.903
91677W        W55236   8.309  33.514  13.446
91678W        W55237   5.804  23.629  12.003
91679W        W55238  40.463  12.350   3.682
91680W        W55239   9.735   4.331  11.010
91681W        W55240  13.823  25.065  12.890
91682W        W55241  17.194  25.529  10.460
91683W        W55242  23.113  34.478   0.476
91684W        W55243  36.856  27.504   1.745
91685W        W55244  44.845  31.539   1.274
91686W        W55245   2.797  43.515  11.424
91687W        W55246  13.299   8.713   3.340
91688W        W55247  41.432  18.171  13.340
91689W        W55248  42.880  26.653  14.295
91690W        W55249  26.062  41.503  12.938
91691W        W55250  30.919  43.994   4.664
91692W        W55251  14.751  19.639   0.885
91693W        W55252  40.373  33.413   0.849
91694W        W55253   7.269   5.926   1.817
91695W        W55254  28.608   4.352  12.357
91696W        W55255  18.746  40.838  13.882
91697W        W55256  44.958  29.620   0.928
91698W        W55257  10.728   3.739  13.446
91699W        W55258   3.332  31.006  12.918
91700W        W55259   3.746  11.173   2.676
91701W        W55260  23.495   3.293   0.963
91702W        W55261  33.965  13.163   0.790
91703W        W55262  11.317   0.447   0.811
91704W        W55263  20.708  15.290   4.314
91705W        W55264  21.754   4.358  12.491
91706W        W55265  21.641  39.534   3.349
91707W        W55266   7.847  32.001  12.886
91708W        W55267   6.415  17.696  11.531
91709W        W55268   0.402   5.879  13.336
91710W        W55269  10.167  22.514  12.922
91711W        W55270  43.764  33.601   3.690
91712W        W55271  32.125   0.429  13.941
91713W        W55272  24.682  17.133   3.858
91714W        W55273  10.304  38.877   3.174
91715W        W55274  30.972   5.693   2.323
91716W        W55275  40.830   0.298  10.888
91717W        W55276  16.087  24.146  14.031
91718W        W55277  37.350   2.919  12.519
91719W        W55278  20.057  31.961   0.265
91720W        W55279  29.952  13.215   4.203
91721W        W55280  27.688  25.496  10.151
91722W        W55281  30.530  10.653   0.940
91723W        W55282  37.535   4.721   0.462
91724W        W55283  37.893  24.219   1.769
91725W        W55284  30.574  26.974   1.325
91726W        W55285   9.363  33.539  11.063
91727W        W55286  40.322  18.137  10.421
91728W        W55287  42.327   8.276  11.541
91729W        W55288   1.441   4.279  10.927
91730W        W55289  23.140  15.642   1.717
91731W        W55290  11.851  34.470  14.018
91732W        W55291  20.210  24.717   2.242
91733W        W55292  37.435  21.570   0.896
91734W        W55293   5.398  19.095   3.869
91735W        W55294  27.530   4.371   0.437
91736W        W55295  43.989   6.426  11.861
91737W        W55296  24.011  15.599   2.373
91738W        W55297  19.734   6.707   4.692
91739W        W55298  39.926  42.795  10.920
91740W        W55299   9.714   3.745  10.449
91741W        W55300  25.614  39.353   2.316
91742W        W55301  41.886  20.045  13.890
91743W        W55302  21.526   4.793  13.866
91744W        W55303  11.151  32.938  12.420
91745W        W55304  14.833  31.049  12.957
91746W        W55305  44.489   0.811   3.267
91747W        W55306  37.966   3.228  12.501
91748W        W55307  37.456   0.489   9.965
91749W        W55308  22.233  14.759  11.384
91750W        W55309  34.479   9.392   1.784
91751W        W55310  10.312  39.372  12.850
91752W        W55311  28.514   7.740   3.661
91753W        W55312  16.666  31.628   0.861
91754W        W55313   3.399   0.434   3.269
91755W        W55314  26.649  37.955   0.324
91756W        W55315  24.153  15.293  11.421
91757W        W55316  34.545  44.411   9.925
91758W        W55317  24.503  30.473  14.376
91759W        W55318  24.220  42.461   4.187
91760W        W55319   1.890   2.771   0.757
91761W        W55320  44.261  35.944   0.820
91762W        W55321  14.687  20.527  11.372
91763W        W55322  15.117  24.574   1.717
91764W        W55323   7.328  12.664  10.449
91765W        W55324  27.028  35.376  13.432
91766W        W55325  28.668  20.647  11.874
91767W        W55326  17.250  40.545  12.457
91768W        W55327  12.326  33.064   4.778
91769W        W55328   8.355   9.682  12.986
91770W        W55329  35.521  10.714  14.293
91771W        W55330  18.723   2.925  14.778
91772W        W55331   2.371   8.221   0.336
91773W        W55332  27.462  25.972   4.636
91774W        W55333  22.710  26.953   1.443
91775W        W55334  22.118  41.454  14.427
91776W        W55335  16.686   4.870  13.507
91777W        W55336  17.253  39.938   2.304
91778W        W55337  31.581  18.271   4.652
91779W        W55338  26.155  43.903  14.968
91780W        W55339  43.309  31.542  13.064
91781W        W55340  16.119   9.793   0.334
91782W        W55341  33.625  43.307   1.721
91783W        W55342   1.416  26.998   0.415
91784W        W55343  28.143  15.590   3.204
91785W        W55344  34.437  24.628  14.832
91786W        W55345   8.313  25.644   1.826
91787W        W55346  37.472  28.039   2.281
91788W        W55347   9.782  16.180  13.307
91789W        W55348  14.179  43.900  14.489
91790W        W55349  17.574  35.904   1.821
91791W        W55350  23.583  30.627  10.027
91792W        W55351  20.555  40.882   4.817
91793W        W55352  41.835  11.856   2.693
91794W        W55353  36.847  24.176  10.416
91795W        W55354  19.136  25.054  11.592
91796W        W55355  41.968  32.118   5.291
91797W        W55356  35.596  36.076  10.434
91798W        W55357  19.743  40.966   3.856
91799W        W55358  24.127  27.127  13.363
91800W        W55359   1.826  11.216  13.888
91801W        W55360  32.919   2.848  12.418
91802W        W55361   1.946  16.707   1.344
91803W        W55362  31.145  11.818  11.418
91804W        W55363   0.766  43.960   1.821
91805W        W55364  44.861  35.386   0.358
91806W        W55365   1.451  38.406  11.419
91807W        W55366  39.037   3.384  13.871
91808W        W55367  41.870  12.353   2.373
91809W        W55368   9.169   5.931   3.348
91810W        W55369  22.716   8.381   3.146
91811W        W55370  36.366  34.458   2.328
91812W        W55371  14.719  31.018  14.959
91813W        W55372  26.042  25.136   1.331
91814W        W55373  18.609  33.569  14.002
91815W        W55374  31.005  37.412   0.890
91816W        W55375  30.597  14.211  14.944
91817W        W55376   1.477  24.089   4.784
91818W        W55377  30.979  19.646   1.426
91819W        W55378  21.593  28.122   4.287
91820W        W55379  13.135  34.399   0.849
91821W        W55380  37.424   6.918  14.760
91822W        W55381  38.832  14.715  14.813
91823W        W55382  21.723  39.990   0.445
91824W        W55383  37.078  10.663   4.712
91825W        W55384  26.031   0.972  11.009
91826W        W55385  25.094  15.619   3.378
91827W        W55386  31.963  42.304   1.284
91828W        W55387  43.325  35.894  14.866
91829W        W55388  19.678  34.110   1.843
91830W        W55389  31.522   6.808   1.326
91831W        W55390  37.532  16.577   3.701
91832W        W55391   8.208  27.949   2.318
91833W        W55392  13.645  40.031   0.298
91834W        W55393  42.361  22.053   4.819
91835W        W55394  24.071  36.445   0.402
91836W        W55395  33.067  33.486  13.519
91837W        W55396  41.020  11.641   3.207
91838W        W55397  13.210  31.601   1.743
91839W        W55398  19.106  21.585   2.355
91840W        W55399   2.469  16.789   1.811
91841W        W55400  41.302   2.898  13.885
91842W        W55401  12.660  11.653   2.808
91843W        W55402   0.953   7.719  13.467
91844W        W55403   9.775  14.834  13.498
91845W        W55404  21.098  32.050  14.326
91846W        W55405  41.018  24.664   0.422
91847W        W55406  26.109  15.199  13.038
91848W        W55407  12.305  34.394   3.742
91849W        W55408  42.339   8.802   0.902
91850W        W55409  40.320  12.689   0.918
91851W        W55410  15.676  22.640  11.126
91852W        W55411  34.057  41.501  12.575
91853W        W55412  41.939  27.684  14.503
91854W        W55413  26.035  24.127   3.643
91855W        W55414   5.320  23.164   3.361
91856W        W55415  43.777  39.555  14.791
91857W        W55416   5.770   8.337  12.963
91858W        W55417  41.340   5.423  11.559
91859W        W55418  11.787   2.446   0.405
91860W        W55419   2.810   3.455   2.902
91861W        W55420  22.155   8.223  12.833
91862W        W55421  37.985  35.057  13.967
91863W        W55422   9.219  35.050  10.405
91864W        W55423   7.794  42.996  14.324
91865W        W55424  36.922  41.942  14.480
91866W        W55425   0.317   3.428   2.879
91867W        W55426  40.798  41.439  14.403
91868W        W55427  20.636  30.986  11.514
91869W        W55428  12.681  14.101   2.749
91870W        W55429  19.220   8.220  14.379
91871W        W55430  27.594  35.417  13.457
91872W        W55431   9.323  16.657   1.444
91873W        W55432  38.365  38.463   1.326
91874W        W55433  11.832  12.643   2.669
91875W        W55434  11.334  37.007  10.933
91876W        W55435  17.786  39.554  12.397
91877W        W55436   0.369   8.351  14.428
91878W        W55437  20.685  26.966   4.236
91879W        W55438  44.913  14.716  13.364
91880W        W55439  34.427  28.955  12.048
91881W        W55440  25.071  44.488   5.258
91882W        W55441   8.215  41.490   1.934
91883W        W55442  24.576   4.899   1.737
91884W        W55443  26.992  38.959  14.869
91885W        W55444  15.755  30.919  13.064
91886W        W55445  10.214  44.968  10.931
91887W        W55446  27.486  32.459  11.918
91888W        W55447  23.991   4.890   5.181
91889W        W55448  38.821  42.907  14.813
91890W        W55449   3.261   6.850  13.015
91891W        W55450  16.645   1.284   4.614
91892W        W55451  38.326  18.761  14.328
91893W        W55452  26.109  42.831  11.405
91894W        W55453   1.811  38.921   0.836
91895W        W55454  18.737  29.148   0.825
91896W        W55455   8.722   2.297  11.901
91897W        W55456  44.422  25.628  13.832
91898W        W55457   7.229  29.525   2.766
91899W        W55458  10.735  44.499   0.261
91900W        W55459  10.216   2.726  14.485
91901W        W55460  37.426  34.917   5.276
91902W        W55461  42.426  42.930  13.394
91903W        W55462  40.502  10.683  14.801
91904W        W55463   8.671  11.628  14.848
91905W        W55464   7.394  25.620   3.284
91906W        W55465  13.722   0.460  13.022
91907W        W55466  14.333  44.948  12.350
91908W        W55467   7.770  29.999   2.367
91909W        W55468  20.573   3.364   4.219
91910W        W55469  41.441   3.807  13.894
91911W        W55470  22.601  22.533  11.937
91912W        W55471  11.320  34.969  14.792
91913W        W55472  26.654  28.662  12.432
91914W        W55473  12.311  23.085   9.635
91915W        W55474  21.042  44.904  11.875
91916W        W55475  28.135  30.562  12.862
91917W        W55476  40.043   0.354   3.778
91918W        W55477   5.368  33.095  14.422
91919W        W55478  18.279  13.602   2.317
91920W        W55479  25.050  24.989  13.321
91921W        W55480  34.432  20.176   1.899
91922W        W55481  17.182  37.904  13.818
91923W        W55482  41.904  43.367  14.976
91924W        W55483  34.543  37.985  10.448
91925W        W55484  33.380  36.002   4.689
91926W        W55485  32.509  43.279   1.715
91927W        W55486  26.974  26.588   2.294
91928W        W55487  43.404  29.528   2.842
91929W        W55488  15.141  24.534  12.482
91930W        W55489  14.828  24.110  12.400
91931W        W55490   1.861  28.473   0.957
91932W        W55491   7.881   8.241   0.407
91933W        W55492  37.011  34.407   1.927
91934W        W55493  25.192  32.420  12.341
91935W        W55494   2.272  29.541   0.374
91936W        W55495  36.962  43.958  11.501
91937W        W55496  21.234  42.008   3.733
91938W        W55497  22.594  24.580  12.092
91939W        W55498  25.588  28.635  12.907
91940W        W55499  14.230   7.861  10.557
91941W        W55500  12.707  21.242   0.285
91942W        W55501  25.104  14.273   4.129
91943W        W55502   1.911  12.286  10.568
91944W        W55503  43.955  25.090   2.262
91945W        W55504  21.515   2.367  14.396
91946W        W55505  32.616  11.336   1.283
91947W        W55506   9.731   0.325  14.813
91948W        W55507  14.326  26.524   5.183
91949W        W55508  16.757   8.404  10.947
91950W        W55509   9.205   5.435  11.924
91951W        W55510   9.352   2.360  12.551
91952W        W55511   6.328  28.513  13.402
91953W        W55512  11.253  18.225  14.275
91954W        W55513  28.125  25.188   4.837
91955W        W55514   6.817   4.902  11.580
91956W        W55515  40.971  28.971   3.214
91957W        W55516  39.814  31.044   1.255
91958W        W55517  29.137  22.675  10.970
91959W        W55518  19.045  33.593   3.331
91960W        W55519  22.172  39.014   3.161
91961W        W55520   4.362  27.462   1.917
91962W        W55521  11.667  26.491  14.025
91963W        W55522  31.575  32.609   0.884
91964W        W55523  26.055   6.269  11.049
91965W        W55524   2.318  23.151  13.536
91966W        W55525  13.610  37.547   0.282
91967W        W55526   4.886  36.534   0.331
91968W        W55527  40.865  36.480   3.332
91969W        W55528   3.250  10.202   1.740
91970W        W55529  10.147  36.435   4.766
91971W        W55530   7.834  22.567   1.282
91972W        W55531  35.011  17.721  13.412
91973W        W55532  23.182  23.231   0.420
91974W        W55533  32.032  11.306   5.289
91975W        W55534  15.162  14.731  11.916
91976W        W55535  10.828  11.866   3.167
91977W        W55536   0.754  31.979  14.804
91978W        W55537  26.672  39.946  11.119
91979W        W55538  32.524  18.654   0.948
91980W        W55539  18.229   5.214  13.335
91981W        W55540   5.250  26.677  13.017
91982W        W55541  21.635  24.519  12.432
91983W        W55542  24.148  41.876  11.936
91984W        W55543  40.491  31.952  13.900
91985W        W55544   1.783  35.866  14.508
91986W        W55545  23.621  15.099  13.841
91987W        W55546   4.233  13.241  11.089
91988W        W55547  39.335   3.920  14.878
91989W        W55548  13.778  17.637   0.730
91990W        W55549  30.491  10.805   0.363
91991W        W55550   8.202  32.436   4.630
91992W        W55551  21.069  22.615  12.878
91993W        W55552  17.733  27.526   0.310
91994W        W55553  39.956  29.050   0.736
91995W        W55554  16.237   9.246  10.019
91996W        W55555  34.042  42.965  11.567
91997W        W55556  27.562  24.058  13.870
91998W        W55557   4.354  30.450  14.276
91999W        W55558  15.726  23.666   3.720
92000W        W55559  20.253   5.727  14.419
92001W        W55560  40.040   2.857   0.459
92002W        W55561   6.330  21.074   0.369
92003W        W55562  42.022  34.033  14.989
92004W        W55563   2.454   3.868  14.983
92005W        W55564  28.012  41.457   1.783
92006W        W55565  14.705  17.556  12.002
92007W        W55566  44.491  12.180  10.630
92008W        W55567  36.937   8.219  13.810
92009W        W55568  15.809  24.069   2.330
92010W        W55569  41.483  24.126  13.502
92011W        W55570  32.025  17.696   0.291
92012W        W55571  29.088  14.190   0.745
92013W        W55572  35.004  19.273   0.747
92014W        W55573   5.880  24.613  12.022
92015W        W55574  21.249  28.055   3.698
92016W        W55575  17.165  42.914   0.765
92017W        W55576  38.519  26.602  13.882
92018W        W55577  22.054  20.211   3.714
92019W        W55578   2.799  44.262  11.934
92020W        W55579   4.280   2.445   3.315
92021W        W55580  14.156   4.370   2.415
92022W        W55581  42.989  19.247  14.303
92023W        W55582  18.687  44.338   2.305
92024W        W55583  10.205  36.921  11.102
92025W        W55584  11.665  15.756   4.227
92026W        W55585  14.783  32.074   1.921
92027W        W55586  36.484   4.841  10.046
92028W        W55587  11.686  13.805  13.547
92029W        W55588  13.707   4.272   1.835
92030W        W55589  34.468  33.622   1.333
92031W        W55590  40.518  14.332  11.467
92032W        W55591  40.332  44.817  12.351
92033W        W55592  35.863  41.959  13.048
92034W        W55593  40.904  23.124   2.718
92035W        W55594  33.026  17.250  11.474
92036W        W55595   8.884  11.678   4.265
92037W        W55596  12.143   8.250  12.945
92038W        W55597  22.071  20.528  14.516
92039W        W55598  30.465  18.061  14.972
92040W        W55599  20.648  41.531  14.391
92041W        W55600   1.862  17.179  11.030
92042W        W55601  30.008   0.276  12.952
92043W        W55602  44.381  13.163   0.808
92044W        W55603  34.517  21.074  12.976
92045W        W55604   4.419  13.162  11.534
92046W        W55605  23.670  12.255   0.480
92047W        W55606  19.105  38.955  12.087
92048W        W55607  28.458  25.986  14.808
92049W        W55608  43.303  13.218  12.015
92050W        W55609   0.795  26.633  10.030
92051W        W55610  15.789  28.931  12.064
92052W        W55611   2.966   1.242   0.829
92053W        W55612  17.212  38.475   3.650
92054W        W55613  41.941  21.115   3.346
92055W        W55614  33.019  31.960   2.361
92056W        W55615   4.762  21.085   5.300
92057W        W55616  43.392  29.559  13.514
92058W        W55617  32.133  23.008   3.818
92059W        W55618  13.743  27.960  12.391
92060W        W55619   1.857   9.383  12.451
92061W        W55620  11.755  43.433   4.335
92062W        W55621   2.729   3.331   0.964
92063W        W55622  39.884   2.279   0.778
92064W        W55623  36.959  16.267  10.571
92065W        W55624  32.911  31.485   3.178
92066W        W55625  10.334   6.241   2.705
92067W        W55626  20.692  23.621  13.060
92068W        W55627  38.070  12.715  11.870
92069W        W55628  11.248  12.615  12.349
92070W        W55629  11.373  17.282  13.862
92071W        W55630  10.218  26.597  13.020
92072W        W55631  38.074  16.290  10.934
92073W        W55632  30.487   1.744  10.443
92074W        W55633  28.512  36.358   0.926
92075W        W55634  38.970  14.145   0.879
92076W        W55635  43.831   9.737   2.381
92077W        W55636  44.375  30.635   0.755
92078W        W55637   6.200  28.092  10.894
92079W        W55638  15.613  22.584  14.913
92080W        W55639  32.915  30.596  13.380
92081W        W55640  16.281  11.634  12.421
92082W        W55641  15.261  31.452  14.766
92083W        W55642  39.959  15.243  10.474
92084W        W55643   1.828  43.483  14.773
92085W        W55644   1.464  22.645   0.419
92086W        W55645  15.135   1.805  11.023
92087W        W55646  18.783  28.073   4.684
92088W        W55647  27.149  42.440  10.591
92089W        W55648  27.586  42.031  11.877
92090W        W55649  16.745  28.054  11.870
92091W        W55650  35.488  27.518   1.806
92092W        W55651  28.150  22.601  14.962
92093W        W55652  37.966  30.919  11.373
92094W        W55653  44.451  42.013  14.494
92095W        W55654  24.185   0.772  12.385
92096W        W55655  25.707  40.521  11.492
92097W        W55656  33.930  11.290   0.400
92098W        W55657  40.373  18.204   4.307
92099W        W55658  10.382  43.986   4.296
92100W        W55659  30.115  11.703  12.984
92101W        W55660  40.885  36.017   3.372
92102W        W55661  41.504   4.860   1.324
92103W        W55662  21.056  27.032   4.228
92104W        W55663  24.012   6.389  13.487
92105W        W55664  41.443  34.949  12.346
92106W        W55665  10.196  37.443   4.320
92107W        W55666   5.817  25.545   2.842
92108W        W55667   5.716  26.157   1.748
92109W        W55668  38.034  41.400   3.300
92110W        W55669  43.954   2.728  10.926
92111W        W55670   1.381   4.938  13.346
92112W        W55671  12.781  36.947   3.163
92113W        W55672  37.917   5.220   4.163
92114W        W55673   1.413  30.527  14.979
92115W        W55674   9.757  14.206   4.685
92116W        W55675  43.516  27.589  12.841
92117W        W55676  43.925  27.606  13.064
92118W        W55677   4.768  19.732  12.963
92119W        W55678  44.877  23.091  12.930
92120W        W55679  10.748   3.297   4.751
92121W        W55680  39.911  13.318  12.950
92122W        W55681  39.884  31.504  14.826
92123W        W55682  11.800  28.131  11.388
92124W        W55683  35.077  41.896  13.051
92125W        W55684   3.801  12.722   0.773
92126W        W55685  43.499  13.748   3.643
92127W        W55686   4.256   4.854  13.030
92128W        W55687   4.810   0.322   9.948
92129W        W55688  27.952  16.223   4.808
92130W        W55689  32.476  24.498   3.180
92131W        W55690  12.135   2.853   0.869
92132W        W55691  38.423  22.126  13.528
92133W        W55692  12.770  25.714   4.649
92134W        W55693  24.714  14.640  14.473
92135W        W55694   5.297  39.510  12.839
92136W        W55695  39.510   5.290   3.838
92137W        W55696  42.919  35.396   0.408
92138W        W55697   5.263  20.069   3.373
92139W        W55698   8.790  33.479  14.424
92140W        W55699  18.215   3.863  13.531
92141W        W55700  43.894   7.912  11.562
92142W        W55701  44.277  18.265  11.965
92143W        W55702  36.063   8.816  11.522
92144W        W55703  36.471  19.167  14.836
92145W        W55704  37.836  24.184   0.900
92146W        W55705  36.963  15.719  12.551
92147W        W55706   5.872  37.387  11.409
92148W        W55707  35.863  35.517  14.782
92149W        W55708  44.986  21.187   2.887
92150W        W55709  38.992  26.178  11.405
92151W        W55710  17.211  37.079   0.463
92152W        W55711  43.906  44.418   3.255
92153W        W55712  36.590  16.217   2.896
92154W        W55713  20.061  15.624   3.236
92155W        W55714  23.618  23.100  10.583
92156W        W55715   3.272   2.433  12.881
92157W        W55716  33.385   6.792   0.921
92158W        W55717  24.131  44.335  13.413
92159W        W55718   4.731  37.046  12.576
92160W        W55719  36.008   2.898   0.941
92161W        W55720  21.574   5.925   0.798
92162W        W55721  34.587  26.135  12.348
92163W        W55722   7.774  37.559  12.850
92164W        W55723  37.357  25.983  13.920
92165W        W55724  12.177   4.391   2.777
92166W        W55725  12.143  34.980   2.882
92167W        W55726  28.557  18.122  11.376
92168W        W55727   6.357  32.489  11.014
92169W        W55728  15.265  19.256  13.384
92170W        W55729   2.231  15.190  13.051
92171W        W55730  29.035  37.080   4.687
92172W        W55731  35.970  16.111  10.422
92173W        W55732  23.561  43.480  11.393
92174W        W55733  41.902  21.597   3.752
92175W        W55734  23.508  30.504  12.375
92176W        W55735  30.057   5.193   0.266
92177W        W55736  15.776  16.698  11.522
92178W        W55737   8.406  16.274   4.274
92179W        W55738  44.438  20.147   3.857
92180W        W55739  31.908  36.046   0.248
92181W        W55740  33.498  10.702   4.161
92182W        W55741  39.944  15.671  11.970
92183W        W55742   6.383  18.597  12.408
92184W        W55743  40.033   6.762  10.621
92185W        W55744  27.657   0.981  11.102
92186W        W55745  44.885  38.925  13.544
92187W        W55746  44.299   1.875  14.404
92188W        W55747  34.978  37.344   3.641
92189W        W55748  29.095  10.811  13.982
92190W        W55749  12.665  11.851  14.324
92191W        W55750  30.444   0.937   0.323
92192W        W55751  12.617  15.218   3.857
92193W        W55752  13.307   2.833  10.445
92194W        W55753  26.570  18.659   3.327
92195W        W55754  15.793   2.237  10.930
92196W        W55755  10.345  31.533   0.818
92197W        W55756  40.449  15.268  13.368
92198W        W55757  42.782   2.748  11.459
92199W        W55758  24.506   6.857  10.930
92200W        W55759  18.272  43.509   4.634
92201W        W55760  42.392  13.189  12.081
92202W        W55761  21.096   7.190  11.919
92203W        W55762   7.291  16.281   1.425
92204W        W55763  13.292  19.718   4.127
92205W        W55764  37.365  11.860   3.786
92206W        W55765  22.574   1.381  10.607
92207W        W55766   0.746   7.214   1.349
92208W        W55767   3.922  13.222   3.692
92209W        W55768  24.204  15.605  13.004
92210W        W55769  24.495  30.611   3.342
92211W        W55770  37.348  22.662   5.292
92212W        W55771  11.835  41.453   4.603
92213W        W55772  22.688   0.950   3.847
92214W        W55773  27.468  20.250  13.964
92215W        W55774  10.852  32.982   5.653
92216W        W55775  24.082   5.334   1.730
92217W        W55776  10.350  35.974   5.250
92218W        W55777  26.594  32.021  13.546
92219W        W55778  15.096   6.219   3.825
92220W        W55779   5.315  38.326  11.066
92221W        W55780  33.992  23.048  14.001
92222W        W55781  27.052  43.381  13.815
92223W        W55782  27.470  21.545  11.494
92224W        W55783  16.630  28.056   3.844
92225W        W55784  34.422  26.148   2.338
92226W        W55785  36.003  11.159  14.013
92227W        W55786  37.565  37.474   1.755
92228W        W55787  23.664  26.081  12.827
92229W        W55788  18.225  22.128  12.550
92230W        W55789  36.515  32.979  14.788
92231W        W55790  29.952  42.360   4.289
92232W        W55791  27.474  21.160  10.528
92233W        W55792   7.397  25.198  11.432
92234W        W55793  44.964  22.660  11.041
92235W        W55794  16.092   0.785  14.328
92236W        W55795   7.901  29.950   4.800
92237W        W55796   5.287  17.682   4.660
92238W        W55797  27.534   1.332   2.396
92239W        W55798  12.637   1.758  12.055
92240W        W55799  41.984  27.023  11.970
92241W        W55800  21.094  29.928  10.505
92242W        W55801   4.317  44.859  10.474
92243W        W55802  17.574   0.385  11.962
92244W        W55803  11.215  43.919  10.508
92245W        W55804  13.806  32.000  12.012
92246W        W55805  32.943  30.050  12.957
92247W        W55806  38.512   7.397   0.887
92248W        W55807  43.433  16.622   4.734
92249W        W55808  44.262  12.317   9.981
92250W        W55809   4.844  15.687  13.400
92251W        W55810  33.385  41.008   3.259
92252W        W55811  36.062  16.288   3.230
92253W        W55812   9.836  18.202  13.010
92254W        W55813  37.907   2.385  13.319
92255W        W55814  42.885  35.467  10.521
92256W        W55815  29.130  12.849  13.860
92257W        W55816   4.347  10.806  14.507
92258W        W55817  33.552   8.710  12.031
92259W        W55818  11.845  40.517   2.855
92260W        W55819  30.963   2.958  11.110
92261W        W55820  33.406  41.817   3.176
92262W        W55821  36.958  18.170  12.020
92263W        W55822  26.195  25.127   0.775
92264W        W55823  20.182  17.200   1.816
92265W        W55824  28.575  24.069  12.956
92266W        W55825  34.612  35.901  14.390
92267W        W55826  23.054   1.949   0.256
92268W        W55827  39.530  16.587  10.893
92269W        W55828   8.350  42.491  13.039
92270W        W55829  38.881  13.312   4.781
92271W        W55830  27.126  14.595  13.404
92272W        W55831  10.237  37.500  13.423
92273W        W55832  30.491  35.550  12.349
92274W        W55833  23.048  36.347  13.025
92275W        W55834  30.584   6.318   2.392
92276W        W55835  31.488  15.146  13.353
92277W        W55836  13.843   9.230  12.883
92278W        W55837  13.676  35.387   1.730
92279W        W55838  21.560   3.423   1.401
92280W        W55839  24.670  32.991   2.821
92281W        W55840  31.446  16.106   0.941
92282W        W55841   0.410  17.260   2.306
92283W        W55842  31.450  21.582   2.789
92284W        W55843   5.381   2.371   1.231
92285W        W55844  33.550  31.109   3.199
92286W        W55845  25.995  10.172   9.675
92287W        W55846  14.177  37.880  11.377
92288W        W55847  20.537   5.914   3.693
92289W        W55848  29.983   7.397  14.950
92290W        W55849  38.539  33.022   3.305
92291W        W55850  20.082   7.181  12.025
92292W        W55851  20.223   2.262   0.395
92293W        W55852  42.776  23.113  13.486
92294W        W55853  42.462  25.971   3.726
92295W        W55854  30.101  29.530  13.413
92296W        W55855  28.078  40.014   3.248
92297W        W55856   9.359  14.731   5.279
92298W        W55857  14.794  15.589  12.043
92299W        W55858  10.165  43.878  11.489
92300W        W55859   3.315  32.978  11.959
92301W        W55860  17.265  33.571   0.941
92302W        W55861   8.877  21.649   4.154
92303W        W55862  39.418  23.587  12.412
92304W        W55863   9.783  15.176  14.487
92305W        W55864  23.642  18.626  12.431
92306W        W55865  15.241  22.198  11.491
92307W        W55866  34.501  17.607  14.884
92308W        W55867   9.704  22.031   0.817
92309W        W55868  15.215  34.447   1.832
92310W        W55869   2.945   5.220  12.504
92311W        W55870  14.612  23.519   2.271
92312W        W55871  18.723  40.980   1.780
92313W        W55872  43.364  30.002   2.294
92314W        W55873  44.842  35.471  14.353
92315W        W55874  41.849   4.242  12.906
92316W        W55875  24.711  29.044   0.887
92317W        W55876  39.363   6.347   0.278
92318W        W55877  26.158  14.713   0.375
92319W        W55878  40.839  14.119   2.829
92320W        W55879  19.697  27.059   0.957
92321W        W55880  10.809  44.856   0.285
92322W        W55881  33.422  44.275  10.407
92323W        W55882  29.518  30.923  11.518
92324W        W55883   7.698   6.320  12.410
92325W        W55884  19.217  42.852  11.535
92326W        W55885  31.980  30.523  12.434
92327W        W55886  28.993  22.697  10.472
92328W        W55887  39.889  25.969  13.014
92329W        W55888   5.264  26.194  14.452
92330W        W55889  12.627  15.199  10.607
92331W        W55890  33.604  25.711  10.486
92332W        W55891  21.713   0.440  14.345
92333W        W55892  41.508  13.635  11.999
92334W        W55893  22.595  15.132  12.005
92335W        W55894  28.615   0.747   0.787
92336W        W55895  31.433  26.033  12.005
92337W        W55896   4.842  15.756  11.875
92338W        W55897   4.899  10.376   1.348
92339W        W55898  14.588   0.891   9.981
92340W        W55899  44.357  32.557   1.930
92341W        W55900  34.909   1.244   2.364
92342W        W55901  28.180   2.882  12.377
92343W        W55902  39.425  29.462  10.987
92344W        W55903  38.502  23.677   1.368
92345W        W55904  44.848  12.784  12.063
92346W        W55905  24.037  26.550   2.413
92347W        W55906   0.305  19.107  10.940
92348W        W55907  11.257  26.968  12.829
92349W        W55908   8.748  38.071  14.860
92350W        W55909  42.926  31.942  13.424
92351W        W55910   4.229   3.376   0.475
92352W        W55911  23.038   0.751  13.953
92353W        W55912  44.881  25.507   4.697
92354W        W55913  26.477   7.668  10.627
92355W        W55914  19.140  32.115   3.151
92356W        W55915  15.327  25.161  12.570
92357W        W55916  42.421  11.638  11.492
92358W        W55917   7.770   4.736   1.823
92359W        W55918  13.157  24.011  12.468
92360W        W55919  27.026  34.912  10.408
92361W        W55920  34.371   3.861   2.298
92362W        W55921   6.355  42.841  12.977
92363W        W55922  15.147  15.164   4.215
92364W        W55923  24.129   7.196  12.085
92365W        W55924  33.008   2.775   3.181
92366W        W55925  30.096   1.765   1.847
92367W        W55926  12.309   7.174  12.043
92368W        W55927  38.522   4.729   1.314
92369W        W55928  38.475  19.184   4.198
92370W        W55929  26.584  19.728  10.464
92371W        W55930   7.747  21.092   4.653
92372W        W55931  41.843  42.421  12.489
92373W        W55932  24.494  14.298  10.435
92374W        W55933  37.869   1.409   4.659
92375W        W55934  31.518  42.992   3.629
92376W        W55935  29.143  15.611   4.755
92377W        W55936  16.667  33.023  12.478
92378W        W55937  13.753   8.173  11.037
92379W        W55938  37.507  36.863   4.297
92380W        W55939  26.457  22.138  14.006
92381W        W55940  34.515  41.531   2.180
92382W        W55941  40.438  21.233   0.726
92383W        W55942  10.811   4.850  12.995
92384W        W55943  13.810  27.110   2.328
92385W        W55944   5.230   1.250   3.381
92386W        W55945  20.100   3.248   5.094
92387W        W55946  36.854  17.247   1.796
92388W        W55947  41.925   0.929   0.898
92389W        W55948  26.033   8.876   1.712
92390W        W55949   9.378  19.732  11.046
92391W        W55950   3.842   7.257  14.475
92392W        W55951  37.072  31.115   4.686
92393W        W55952  12.619  36.909  11.566
92394W        W55953  11.653  14.159  14.922
92395W        W55954  23.514  37.498  11.491
92396W        W55955  29.175  36.945   0.891
92397W        W55956  35.542  31.442   4.702
92398W        W55957  22.167  35.863  12.566
92399W        W55958  24.685   3.783   3.301
92400W        W55959   7.819  19.599  10.050
92401W        W55960  30.080  17.722  11.556
92402W        W55961  33.525  29.141  13.919
92403W        W55962  31.054  42.017   1.245
92404W        W55963  24.225  18.550   3.379
92405W        W55964  33.078  34.393   2.184
92406W        W55965  34.935   5.193  14.410
92407W        W55966   4.369   9.362  11.548
92408W        W55967  33.043  14.116   2.886
92409W        W55968  28.642   0.964  11.982
92410W        W55969  27.074  19.239   0.915
92411W        W55970  44.306  10.648   0.851
92412W        W55971   8.191   5.216  14.030
92413W        W55972  36.075   4.438  13.915
92414W        W55973   2.798   9.670   2.769
92415W        W55974  33.125  30.922   1.296
92416W        W55975  34.401  17.753   1.297
92417W        W55976  27.647   7.297  14.388
92418W        W55977   9.651   5.789   0.361
92419W        W55978  34.940  42.992   3.733
92420W        W55979   9.332  21.090  13.313
92421W        W55980  31.019  14.804  11.080
92422W        W55981  34.043   8.739   0.260
92423W        W55982   3.920   5.763  12.988
92424W        W55983  24.065  44.498  10.931
92425W        W55984   6.339  41.483   1.865
92426W        W55985  11.648  44.909  11.037
92427W        W55986  27.178   1.418   4.228
92428W        W55987  22.516  24.061  11.438
92429W        W55988  24.700  39.907  13.334
92430W        W55989  38.570   6.314  14.824
92431W        W55990   7.843  18.568  12.825
92432W        W55991  24.529  40.362   0.889
92433W        W55992   8.833  38.971  11.541
92434W        W55993  42.872  24.169  13.413
92435W        W55994   6.706  14.757   2.398
92436W        W55995   9.375  12.180  14.365
92437W        W55996  30.515  34.558  14.900
92438W        W55997   0.362  39.977  13.425
92439W        W55998  31.942   3.431  10.417
92440W        W55999  31.966   1.739   0.465
92441W        W56000   3.280  11.806   3.706
92442W        W56001  20.136  31.544  10.641
92443W        W56002  32.495  10.167  13.844
92444W        W56003  13.253  18.088   2.205
92445W        W56004  32.438   4.827   0.935
92446W        W56005   1.733  12.789   4.708
92447W        W56006  30.947  32.130   3.637
92448W        W56007  39.488  25.553  13.914
92449W        W56008  34.030  20.751   0.872
92450W        W56009   3.768  23.690  10.503
92451W        W56010   7.181   4.751   2.228
92452W        W56011   8.366  41.333  14.852
92453W        W56012   7.247   3.730   3.688
92454W        W56013  30.469   2.860   1.438
92455W        W56014  14.166  40.369  14.844
92456W        W56015  37.405  17.719  13.357
92457W        W56016   4.318  23.087  14.866
92458W        W56017  16.695  37.580  10.420
92459W        W56018   6.345  21.633  14.864
92460W        W56019  43.507  25.662  14.780
92461W        W56020  29.608   7.255   3.288
92462W        W56021  43.858  44.824  14.775
92463W        W56022  30.921  26.191   1.287
92464W        W56023  26.133   4.268   4.814
92465W        W56024   0.891  35.039   0.437
92466W        W56025   9.296   0.916   4.242
92467W        W56026   3.434  14.721  14.442
92468W        W56027  19.204  10.771  10.898
92469W        W56028  39.934  29.573   2.670
92470W        W56029  10.837  10.248  11.867
92471W        W56030  37.381  15.743  14.493
92472W        W56031  14.330  14.241  14.818
92473W        W56032   5.247   5.357  13.929
92474W        W56033  32.129  42.940  12.025
92475W        W56034  10.759  26.159  14.460
92476W        W56035  20.696  15.666  11.542
92477W        W56036  13.601   5.346  12.512
92478W        W56037  24.019  10.295  12.982
92479W        W56038  36.452  16.206  12.446
92480W        W56039  27.174  35.591   4.665
92481W        W56040  13.182  19.140  14.976
92482W        W56041  35.407  11.692   3.267
92483W        W56042   3.746  20.567  14.786
92484W        W56043  26.068  33.399  14.928
92485W        W56044  27.487  21.540  12.426
92486W        W56045  23.985  32.605   4.350
92487W        W56046  10.170   1.945  11.535
92488W        W56047  15.213  37.420   0.294
92489W        W56048  41.012  36.033  14.507
92490W        W56049  26.018   3.413   2.699
92491W        W56050  36.363  25.063   3.326
92492W        W56051  38.917  19.555  10.142
92493W        W56052  14.316  10.835  11.503
92494W        W56053  26.197  35.068   3.305
92495W        W56054  19.174  32.633   0.810
92496W        W56055   5.865   4.350  14.791
92497W        W56056   8.167  24.187  10.926
92498W        W56057   1.895  34.878  11.092
92499W        W56058   8.180  36.482   2.414
92500W        W56059  32.954  21.244   2.321
92501W        W56060  42.303  43.776   2.852
92502W        W56061  35.446  35.452  13.844
92503W        W56062  17.277  33.913  11.888
92504W        W56063  31.511  36.964   3.373
92505W        W56064  24.511  21.054  13.801
92506W        W56065  40.484   2.430   2.889
92507W        W56066  27.584   1.326  14.900
92508W        W56067   4.281   0.806   0.795
92509W        W56068  36.875  33.521  12.558
92510W        W56069  44.464  10.635  11.084
92511W        W56070  35.401   3.387  12.916
92512W        W56071   0.298   2.902  10.456
92513W        W56072  38.076  32.889  11.406
92514W        W56073  33.403   7.237  10.417
92515W        W56074  18.278   5.704   2.872
92516W        W56075  37.989  21.180   0.794
92517W        W56076  24.033  30.162  10.531
92518W        W56077  43.442  42.828   3.646
92519W        W56078  27.483  39.820   1.372
92520W        W56079   6.353   0.334  10.984
92521W        W56080   9.342  24.085   0.733
92522W        W56081  22.611   0.893  11.410
92523W        W56082   8.860  25.597  11.903
92524W        W56083  33.504  11.138  10.940
92525W        W56084   5.808   5.829  13.043
92526W        W56085  22.070  40.441  13.349
92527W        W56086  31.095  22.124   3.735
92528W        W56087   9.335   0.842   2.838
92529W        W56088  38.023  14.327  13.818
92530W        W56089  21.074  18.267  13.545
92531W        W56090  10.700  32.993  10.582
92532W        W56091   7.697  23.988   0.737
92533W        W56092  44.009  32.049   9.956
92534W        W56093   5.437  44.941   1.708
92535W        W56094  41.525  22.704  13.857
92536W        W56095  39.420  17.654  13.884
92537W        W56096  31.631  14.742  14.023
92538W        W56097  33.532  24.004   1.864
92539W        W56098  43.328   6.292   1.326
92540W        W56099  15.757  14.667   4.785
92541W        W56100  37.413  44.358   5.241
92542W        W56101  10.868  31.911   0.928
92543W        W56102   8.384   2.389  11.375
92544W        W56103  21.217   6.717   1.442
92545W        W56104  19.611  22.605  12.520
92546W        W56105  38.865  10.264  10.522
92547W        W56106  27.529  13.244  13.953
92548W        W56107  11.635  28.644  13.919
92549W        W56108  22.026  10.284  14.873
92550W        W56109  13.686  11.720   2.260
92551W        W56110  25.593   7.900  10.930
92552W        W56111  18.270  30.651   5.174
92553W        W56112  14.159   6.300   4.155
92554W        W56113   3.876  13.803  12.411
92555W        W56114  11.339  27.117   4.737
92556W        W56115  41.805  10.868  13.523
92557W        W56116  30.565  39.816   2.353
92558W        W56117  38.526   7.396   2.732
92559W        W56118  21.226  21.046   2.391
92560W        W56119  34.502  12.309  14.830
92561W        W56120   2.346  34.402  10.517
92562W        W56121  32.036  32.954   0.432
92563W        W56122  11.729   3.755  10.950
92564W        W56123  11.273  37.370   0.885
92565W        W56124  29.022  31.064   0.252
92566W        W56125  31.916  19.107  10.438
92567W        W56126   5.719  11.795  10.639
92568W        W56127  15.586  10.202   4.166
92569W        W56128   4.923  35.537   4.834
92570W        W56129   3.323   6.238   1.911
92571W        W56130  14.782  38.436  13.458
92572W        W56131   8.820  32.617   5.242
92573W        W56132  23.536  26.027   3.652
92574W        W56133  44.336  31.572   4.316
92575W        W56134  36.917  16.718   4.354
92576W        W56135  11.698   4.835  13.988
92577W        W56136  18.715  31.488  11.582
92578W        W56137   0.979  33.525  11.051
92579W        W56138  43.778  23.528  13.504
92580W        W56139   3.296   0.460   1.879
92581W        W56140   1.303  15.761   4.615
92582W        W56141  32.477  15.085  13.429
92583W        W56142  22.529  20.172  13.399
92584W        W56143  29.602  20.043  14.485
92585W        W56144   3.792   7.689   0.952
92586W        W56145  37.878  39.926   4.707
92587W        W56146  39.465  17.214   0.297
92588W        W56147  28.598  39.496   0.781
92589W        W56148  25.984  21.077  12.580
92590W        W56149  14.319  22.037   3.703
92591W        W56150   5.275  25.205   1.243
92592W        W56151  44.964  35.918  13.445
92593W        W56152  42.452  15.688  13.887
92594W        W56153  24.611  43.509   4.199
92595W        W56154  25.675  37.472   3.768
92596W        W56155   7.729  39.885   4.702
92597W        W56156  33.017  14.116  14.926
92598W        W56157  31.916  26.659  14.348
92599W        W56158  20.085  14.812  13.845
92600W        W56159  29.447  38.070   1.261
92601W        W56160  24.509  43.800  14.900
92602W        W56161  24.154  37.075   4.199
92603W        W56162   4.834   8.824   0.357
92604W        W56163  43.877  10.809  10.981
92605W        W56164  13.651  12.309   1.890
92606W        W56165  35.909  29.163   2.851
92607W        W56166  30.957  28.067  11.924
92608W        W56167  35.097  35.017  14.357
92609W        W56168   3.899  32.897  12.918
92610W        W56169  31.991  10.279   1.305
92611W        W56170  15.619  42.031  12.369
92612W        W56171   9.196  34.969   5.608
92613W        W56172  31.078   9.705  11.927
92614W        W56173  30.069  12.661  11.478
92615W        W56174   6.895  40.052   0.743
92616W        W56175  42.404  25.073   4.810
92617W        W56176   6.844  20.603   3.789
92618W        W56177  24.712  24.051   2.830
92619W        W56178  13.184  27.166  12.993
92620W        W56179  44.000  35.964   2.848
92621W        W56180  43.434   6.706   1.371
92622W        W56181  14.812  17.269   5.256
92623W        W56182  23.563  11.841   0.880
92624W        W56183  36.447  28.962  13.924
92625W        W56184  40.340  16.210   0.400
92626W        W56185  15.183  26.057   3.368
92627W        W56186  34.994   9.787   9.974
92628W        W56187   3.353  16.689  11.563
92629W        W56188  42.459  37.054   4.704
92630W        W56189   4.357  24.027   0.816
92631W        W56190  23.080  22.195  10.990
92632W        W56191  31.646  34.052  13.960
92633W        W56192  11.802  31.033   1.420
92634W        W56193  28.098  24.172  11.549
92635W        W56194  11.818   2.767   4.603
92636W        W56195  36.984  26.186  14.375
92637W        W56196  20.244   0.286  14.372
92638W        W56197  21.070  21.151   0.472
92639W        W56198  28.011  22.585   2.853
92640W        W56199  36.351  15.786   0.965
92641W        W56200   0.978  28.541   2.246
92642W        W56201  30.466  30.564   1.900
92643W        W56202  26.560  38.341  13.925
92644W        W56203  33.399  19.707  10.588
92645W        W56204   7.283  23.124  12.067
92646W        W56205   3.855  13.343  12.838
92647W        W56206  16.796  26.981   0.817
92648W        W56207  18.058  15.229  11.606
92649W        W56208  17.575   2.802  13.534
92650W        W56209   0.849   4.211  11.889
92651W        W56210  42.980   7.396  12.567
92652W        W56211  25.496  37.446   1.886
92653W        W56212  19.712  33.491  14.912
92654W        W56213  13.845   0.980  11.549
92655W        W56214  41.870  27.618   2.326
92656W        W56215  26.654  41.870   2.745
92657W        W56216  19.076  32.618  11.964
92658W        W56217  41.477  18.786   0.322
92659W        W56218  34.934  44.324   4.218
92660W        W56219  13.331  36.023   0.830
92661W        W56220  32.399  44.264  10.011
92662W        W56221   1.799  32.140  12.938
92663W        W56222  33.948  10.361  14.382
92664W        W56223  12.338  36.948   0.889
92665W        W56224  30.633  40.436  14.944
92666W        W56225   5.210  10.316  12.829
92667W        W56226  10.315  11.197  14.420
92668W        W56227  42.835   2.884  11.883
92669W        W56228  29.003  43.821   3.820
92670W        W56229  14.171   9.311  12.407
92671W        W56230  22.577  44.787   3.788
92672W        W56231  16.786  28.490  12.510
92673W        W56232  42.828  42.946  12.424
92674W        W56233  44.786  43.397   0.756
92675W        W56234  38.408  13.638   3.696
92676W        W56235  10.149  36.370   4.329
92677W        W56236  20.658  22.016  14.348
92678W        W56237  24.115   8.847  10.939
92679W        W56238  31.116  37.069  12.016
92680W        W56239  38.869   9.211  10.448
92681W        W56240  12.791  44.284   0.804
92682W        W56241  17.152  11.760   5.225
92683W        W56242  44.338   6.709   3.372
92684W        W56243   7.874  21.693   3.859
92685W        W56244  25.548  19.175  11.452
92686W        W56245  12.145  42.415  14.483
92687W        W56246   7.760  14.703   0.818
92688W        W56247   9.743  35.991   3.714
92689W        W56248  31.917  35.918   1.266
92690W        W56249   7.301  22.205  14.896
92691W        W56250  25.214  13.104   3.263
92692W        W56251  29.538  12.689  12.495
92693W        W56252  30.606  14.243  12.460
92694W        W56253  35.010   9.281   0.462
92695W        W56254  20.757  21.751  12.086
92696W        W56255  10.293  15.106  10.905
92697W        W56256   7.171  44.386  12.937
92698W        W56257  23.550  30.097   1.799
92699W        W56258  14.255  19.201  14.937
92700W        W56259  13.113  32.588  11.578
92701W        W56260  17.287  22.192  10.433
92702W        W56261  42.418  37.488  10.462
92703W        W56262   7.889  15.585  14.398
92704W        W56263   6.248  22.012   2.882
92705W        W56264   4.731  10.316  12.485
92706W        W56265  36.582  10.291   1.879
92707W        W56266  26.041  42.906   0.338
92708W        W56267   6.714   1.820  11.069
92709W        W56268  25.470  11.297   1.234
92710W        W56269  19.082  15.810   1.276
92711W        W56270  10.677  15.823  13.964
92712W        W56271  23.044   6.690   2.193
92713W        W56272  11.866   9.244  12.064
92714W        W56273  33.911  36.065  14.466
92715W        W56274  18.765  35.485  10.455
92716W        W56275  27.690  21.595  13.996
92717W        W56276   8.205  28.565   1.325
92718W        W56277  26.530  26.556  13.534
92719W        W56278   4.258  13.268  12.416
92720W        W56279  25.210  26.462   0.443
92721W        W56280  10.732  10.226  14.478
92722W        W56281  29.156   5.708   1.768
92723W        W56282  36.080  42.283  12.528
92724W        W56283  41.379  32.397   3.815
92725W        W56284   7.221  37.465  14.939
92726W        W56285  44.273  42.478  14.503
92727W        W56286   2.879  22.221  10.944
92728W        W56287   7.222  12.816   1.851
92729W        W56288  22.705  17.192   2.825
92730W        W56289  17.217  41.929  13.505
92731W        W56290  39.010  24.993  10.138
92732W        W56291  41.909  13.319   1.782
92733W        W56292  10.784  30.549   1.904
92734W        W56293   3.378  18.718  14.485
92735W        W56294  39.520  20.731   1.441
92736W        W56295  13.134  41.297  11.101
92737W        W56296  44.304  22.159   2.310
92738W        W56297   1.754  12.242  11.514
92739W        W56298   7.288  28.455   3.299
92740W        W56299  10.730  25.046  11.477
92741W        W56300  10.781  27.615  11.579
92742W        W56301  37.961  19.542  12.022
92743W        W56302  31.540  20.628  13.853
92744W        W56303  37.868  32.457  13.489
92745W        W56304  14.328   5.318   1.441
92746W        W56305  40.413  44.910   2.732
92747W        W56306  12.815   2.307  12.504
92748W        W56307   5.836  32.430  13.402
92749W        W56308   7.671  39.362  13.463
92750W        W56309   3.791   0.409   2.307
92751W        W56310   3.378  22.193   3.305
92752W        W56311   8.330  42.344   3.232
92753W        W56312   3.250  36.503   2.382
92754W        W56313  10.242  41.459   3.168
92755W        W56314  42.290  13.791   0.885
92756W        W56315  35.856  31.057  14.350
92757W        W56316   2.817  29.994  11.378
92758W        W56317  40.356  20.717   0.436
92759W        W56318   0.426  12.814  10.464
92760W        W56319  25.049  27.069   0.377
92761W        W56320  32.515   7.755   3.169
92762W        W56321   6.261   7.754   4.697
92763W        W56322  32.026  22.101   2.245
92764W        W56323  38.903  28.129  10.461
92765W        W56324  34.116  17.644  14.887
92766W        W56325   0.857  33.507  10.009
92767W        W56326  13.626  32.068   9.986
92768W        W56327  27.648  11.334  11.388
92769W        W56328  22.038  16.599  11.442
92770W        W56329  42.900  28.012  12.496
92771W        W56330  21.048   6.338   2.778
92772W        W56331  42.454  24.156   2.685
92773W        W56332  12.748  13.693   4.771
92774W        W56333  16.142  19.209  14.410
92775W        W56334  22.571  15.321  14.488
92776W        W56335  38.353  27.576   4.174
92777W        W56336  29.621   9.763  11.070
92778W        W56337  33.105  38.522   2.791
92779W        W56338  32.021  14.238  14.846
92780W        W56339  21.620  11.164  11.399
92781W        W56340  36.024  34.576   4.270
92782W        W56341  23.025  24.006   1.418
92783W        W56342  18.606  39.962   0.360
92784W        W56343  23.049  42.312  12.901
92785W        W56344  24.004   8.201   2.775
92786W        W56345   7.316  39.992  13.856
92787W        W56346  44.981  38.438   0.364
92788W        W56347  25.491  10.707   3.311
92789W        W56348  30.962  15.243   2.327
92790W        W56349  20.102  24.072   0.417
92791W        W56350   7.832  18.196   2.218
92792W        W56351  25.602   6.293   1.297
92793W        W56352   9.866  28.179  13.007
92794W        W56353  33.483  21.750   2.186
92795W        W56354  39.979  39.382  12.903
92796W        W56355  29.529  38.904  14.497
92797W        W56356   9.153  32.466  10.897
92798W        W56357  37.464  21.536  11.377
92799W        W56358  29.937  34.961   2.232
92800W        W56359  26.472  18.565   1.729
92801W        W56360  44.905  28.679   0.910
92802W        W56361   9.711  16.800   3.764
92803W        W56362   6.906  11.847  14.997
92804W        W56363  25.709  16.282   4.189
92805W        W56364  39.363  22.016   3.857
92806W        W56365  21.131  18.646  14.509
92807W        W56366  25.655  29.104   1.275
92808W        W56367  35.504  27.047  10.968
92809W        W56368  44.956  40.816   1.807
92810W        W56369  31.978  17.660  11.585
92811W        W56370  13.664  41.435   4.252
92812W        W56371  42.451  17.740   1.315
92813W        W56372  17.566   0.282   1.252
92814W        W56373  27.656  38.428  10.516
92815W        W56374  15.698  19.235  13.442
92816W        W56375  14.162  37.505   2.881
92817W        W56376  19.276  37.569   1.223
92818W        W56377  43.861  27.174  14.974
92819W        W56378  37.389  40.992  13.397
92820W        W56379  29.542  43.924   0.293
92821W        W56380  44.367  11.812   2.817
92822W        W56381  28.071  22.056   0.808
92823W        W56382  34.485  13.152   1.700
92824W        W56383  32.477  37.902   2.852
92825W        W56384  25.169   3.780   2.688
92826W        W56385  32.093  31.138   3.300
92827W        W56386  40.843  23.707  12.838
92828W        W56387   6.730  19.107   1.234
92829W        W56388  29.551  37.341  13.862
92830W        W56389  40.961  22.666   1.873
92831W        W56390  13.267  34.406   3.750
92832W        W56391  12.204  23.623  12.920
92833W        W56392  41.039  16.573  14.897
92834W        W56393  35.040   7.339   4.777
92835W        W56394  11.657  33.078  12.511
92836W        W56395  23.586  43.831  14.332
92837W        W56396   7.769  17.259  12.534
92838W        W56397  32.047   9.769   3.812
92839W        W56398  40.308  36.499  15.000
92840W        W56399  37.944  12.180   4.604
92841W        W56400  31.637  10.644   4.652
92842W        W56401  18.621  31.533  11.947
92843W        W56402  20.063  26.550   3.176
92844W        W56403  40.467   4.762   4.685
92845W        W56404  38.501  44.847   4.264
92846W        W56405  27.037  13.819  10.912
92847W        W56406  23.216  40.544   1.746
92848W        W56407  28.152  32.486  11.861
92849W        W56408  22.670  13.723  11.603
92850W        W56409  22.526  33.402   2.683
92851W        W56410  33.488  26.014  11.454
92852W        W56411  31.009  33.977  11.117
92853W        W56412  12.685  34.527   2.280
92854W        W56413  21.660  36.005  14.764
92855W        W56414   0.802  26.155  11.544
92856W        W56415  34.571  11.659  14.331
92857W        W56416  19.194  25.504  13.923
92858W        W56417   8.689  21.611  13.821
92859W        W56418  30.533  35.034   1.382
92860W        W56419  34.401   5.772  10.598
92861W        W56420  38.471  23.078  13.007
92862W        W56421  11.344  12.263   2.179
92863W        W56422  42.423  22.662  14.946
92864W        W56423  42.879  29.963  10.450
92865W        W56424   3.838  40.862  14.307
92866W        W56425  31.060   7.242  12.932
92867W        W56426   2.864  35.558   3.222
92868W        W56427  11.756  21.625   3.803
92869W        W56428  13.617  17.151  10.463
92870W        W56429  31.409  20.138  13.012
92871W        W56430  38.439  27.651   0.889
92872W        W56431  10.710  44.267  11.119
92873W        W56432   7.850  31.008  10.902
92874W        W56433   1.446  40.468  12.906
92875W        W56434  29.551  16.790   3.331
92876W        W56435  15.751  42.381   0.747
92877W        W56436  31.502   9.276   3.809
92878W        W56437  40.836   8.776   3.712
92879W        W56438  20.043  43.935  14.374
92880W        W56439  18.230   7.774  12.032
92881W        W56440  38.883   5.431  11.529
92882W        W56441  42.012  15.755  14.327
92883W        W56442  12.257  10.160   2.867
92884W        W56443   0.939  16.207  14.835
92885W        W56444  14.297   1.794  11.406
92886W        W56445   4.761   7.666  11.995
92887W        W56446  24.019   0.368   2.374
92888W        W56447  40.540  31.503   9.926
92889W        W56448  23.188   9.238  12.849
92890W        W56449  26.611   8.689  12.430
92891W        W56450  35.522  30.964  14.431
92892W        W56451  35.459  20.721  10.501
92893W        W56452  15.822  22.150   1.707
92894W        W56453   8.284  27.972  11.068
92895W        W56454  38.350  29.599   2.311
92896W        W56455  34.113  26.562   2.744
92897W        W56456  11.282   3.215  12.984
92898W        W56457  20.249   4.745  12.882
92899W        W56458  31.575  18.103   2.692
92900W        W56459  34.515  32.533   1.240
92901W        W56460   3.264  12.330  13.866
92902W        W56461  20.122  13.735  13.370
92903W        W56462  19.607  15.316  13.849
92904W        W56463   4.296   9.294  11.051
92905W        W56464  15.804  43.362  12.461
92906W        W56465  25.645   8.831  12.915
92907W        W56466  42.841  11.716   2.268
92908W        W56467  41.971   2.793   0.844
92909W        W56468  12.231  35.536  13.455
92910W        W56469  37.562   6.357  12.041
92911W        W56470  25.211  41.414  10.968
92912W        W56471  27.626  43.841   3.629
92913W        W56472  18.589  29.429  13.415
92914W        W56473   9.771  15.632   2.272
92915W        W56474  17.298  37.938  10.472
92916W        W56475  24.687  19.091  14.483
92917W        W56476   4.905   5.716   3.632
92918W        W56477   8.854  20.128  11.536
92919W        W56478  36.075  20.581   4.190
92920W        W56479  33.500  32.932  13.989
92921W        W56480   3.431  17.647   4.220
92922W        W56481  29.110  12.761  12.377
92923W        W56482  22.686  42.345   3.788
92924W        W56483  30.996  26.167   3.707
92925W        W56484  35.873   0.939  13.349
92926W        W56485  38.892  35.507  13.391
92927W        W56486  22.528  22.134   0.768
92928W        W56487  21.687  27.634   4.134
92929W        W56488   3.819  13.661   1.413
92930W        W56489   0.761  42.015   2.338
92931W        W56490  36.421  42.881  11.859
92932W        W56491  30.530  32.018  10.896
92933W        W56492  28.024  31.006  13.852
92934W        W56493  21.098   5.838   3.847
92935W        W56494  36.888  31.017   2.753
92936W        W56495  39.995   8.326   0.789
92937W        W56496  26.505   7.178  14.836
92938W        W56497   7.883  36.422  11.862
92939W        W56498   0.377  34.530   3.857
92940W        W56499  25.536  20.125  14.388
92941W        W56500  37.459  16.096  12.371
92942W        W56501  26.030   8.283   4.603
92943W        W56502   5.310   2.439   0.248
92944W        W56503   7.354  14.763   1.265
92945W        W56504  12.846  27.126   3.345
92946W        W56505  10.210  42.282  11.516
92947W        W56506  20.085   0.373   1.847
92948W        W56507  35.480  35.374  10.608
92949W        W56508  12.303  18.757   1.431
92950W        W56509   4.712   7.724   0.468
92951W        W56510   7.681  27.539  13.987
92952W        W56511  12.738  36.423  14.411
92953W        W56512  34.378   6.212   3.368
92954W        W56513  39.959  33.453  14.023
92955W        W56514  13.673  25.678   3.798
92956W        W56515  31.602  42.389   2.275
92957W        W56516  29.069   4.365  14.274
92958W        W56517   1.798  21.548   0.842
92959W        W56518  16.111  19.548  11.568
92960W        W56519   6.350  29.654   1.765
92961W        W56520   4.308  40.402   1.234
92962W        W56521  41.004   5.274   0.755
92963W        W56522  35.454  13.309   0.465
92964W        W56523   5.354  39.535   2.307
92965W        W56524  17.797  34.915  12.546
92966W        W56525   2.269   6.372   4.190
92967W        W56526  34.079  22.691   2.231
92968W        W56527  26.075  12.725   3.169
92969W        W56528  17.565  37.948  11.969
92970W        W56529  42.795  26.468   0.251
92971W        W56530  33.089  37.545   3.744
92972W        W56531   8.334  37.962  13.794
92973W        W56532   7.669  16.601  13.388
92974W        W56533   8.797   2.956  12.025
92975W        W56534  29.122  20.273  12.470
92976W        W56535  17.615  26.631   0.865
92977W        W56536  28.162  44.483  12.006
92978W        W56537  22.074  11.858   1.336
92979W        W56538  27.521   9.850   1.856
92980W        W56539  28.058   1.756   1.931
92981W        W56540   0.819  29.508  11.401
92982W        W56541  14.803  13.628  11.989
92983W        W56542  19.770  35.859   0.263
92984W        W56543  38.427   7.889  11.947
92985W        W56544  38.350  30.138  14.506
92986W        W56545  36.986   2.260   0.345
92987W        W56546   8.880   3.290   3.270
92988W        W56547  37.408   0.881  13.998
92989W        W56548  41.861  26.541  13.443
92990W        W56549  18.206  26.099   3.334
92991W        W56550  43.288  30.582  10.412
92992W        W56551   5.376  33.109  13.309
92993W        W56552  12.767  11.184   1.420
92994W        W56553   3.299  30.037   3.860
92995W        W56554  19.263  44.951   3.328
92996W        W56555  43.840   0.925   3.381
92997W        W56556   8.835  14.663  11.094
92998W        W56557  15.634  44.274  11.425
92999W        W56558  10.777   4.824   0.830
93000W        W56559  24.491  15.687  10.510
93001W        W56560  38.065  16.138   0.411
93002W        W56561  44.853  40.415  11.110
93003W        W56562  44.837  37.374   4.652
93004W        W56563  41.930  10.648   0.312
93005W        W56564  43.390  10.869   4.746
93006W        W56565  15.776   8.211  13.829
93007W        W56566  37.876  29.457   1.800
93008W        W56567  32.098  12.644  11.922
93009W        W56568  33.115  19.692   0.292
93010W        W56569  19.109  22.686   4.258
93011W        W56570  40.392  44.355  14.405
93012W        W56571  42.411   9.764  13.875
93013W        W56572  10.281  14.750   2.693
93014W        W56573  35.883  26.983   0.244
93015W        W56574  27.970  11.141  14.777
93016W        W56575  33.044  38.535  12.485
93017W        W56576  12.173   6.195   4.656
93018W        W56577  23.576  12.277  13.996
93019W        W56578  41.377  29.552   2.220
93020W        W56579  23.029  31.037   0.943
93021W        W56580   4.905   6.697  14.849
93022W        W56581  14.600  10.802   0.885
93023W        W56582   2.374  16.184   2.207
93024W        W56583  22.677  33.569   4.650
93025W        W56584  41.937   1.262  13.005
93026W        W56585   0.479   0.923  10.929
93027W        W56586  35.038  35.541   1.838
93028W        W56587  43.515  22.144   4.615
93029W        W56588  24.997  21.069   0.389
93030W        W56589  42.303  19.591  10.517
93031W        W56590   4.848  28.076  11.876
93032W        W56591  35.457  36.989  14.847
93033W        W56592   5.343  41.798   0.943
93034W        W56593   8.372  31.419   3.277
93035W        W56594  28.467  43.885   1.220
93036W        W56595  12.807  16.235   3.744
93037W        W56596  42.438   5.899   3.344
93038W        W56597  19.059   6.689  12.989
93039W        W56598  11.306  32.405  12.545
93040W        W56599  41.021  29.144   4.177
93041W        W56600  23.710  43.399  11.991
93042W        W56601  24.612   5.274  10.937
93043W        W56602  43.909  44.822  10.474
93044W        W56603  35.373  33.565   2.348
93045W        W56604  17.241  23.625   3.747
93046W        W56605   3.727   1.358  14.029
93047W        W56606   7.188   7.806  13.836
93048W        W56607  29.926  12.353   2.679
93049W        W56608  30.537   5.226   1.426
93050W        W56609  36.593  21.628  14.014
93051W        W56610  37.469   8.219  11.515
93052W        W56611  18.199  16.648   0.245
93053W        W56612   7.898  18.213   1.835
93054W        W56613   1.889  31.082  12.498
93055W        W56614   4.354  26.476   3.337
93056W        W56615  24.665  12.195   0.459
93057W        W56616  27.684   5.211   0.903
93058W        W56617  31.631  22.067  12.005
93059W        W56618  11.854  24.989  10.602
93060W        W56619  37.009   3.766   4.699
93061W        W56620   8.234  21.740  13.537
93062W        W56621  22.636  37.374  13.007
93063W        W56622  16.600  39.841  12.952
93064W        W56623  40.050   8.814   1.933
93065W        W56624  41.816  12.745   0.839
93066W        W56625  29.157  13.260  13.062
93067W        W56626   2.446  43.384   2.298
93068W        W56627  39.510  13.701  10.470
93069W        W56628  22.115   3.808  12.348
93070W        W56629  29.461  15.587   3.745
93071W        W56630  19.065  39.890  11.513
93072W        W56631   4.865   0.858   3.216
93073W        W56632  18.572  38.481  14.026
93074W        W56633  17.163   0.758  13.917
93075W        W56634  41.474  27.045   3.768
93076W        W56635  12.665  41.834  14.763
93077W        W56636  33.882  39.002   4.662
93078W        W56637  10.672  33.555   0.413
93079W        W56638  42.384  33.035  14.974
93080W        W56639  21.553  11.355  14.331
93081W        W56640  33.048  44.898   1.291
93082W        W56641  22.660   2.359   2.685
93083W        W56642  13.136  17.576  11.559
93084W        W56643  15.159  11.320   1.785
93085W        W56644  31.087   7.887   1.382
93086W        W56645  25.146  26.613  14.916
93087W        W56646  13.214  44.302   5.296
93088W        W56647  36.357  41.995   4.207
93089W        W56648   4.253  38.486   0.413
93090W        W56649  17.579  21.625   2.850
93091W        W56650  28.179   5.766   2.239
93092W        W56651  28.559  39.484  11.025
93093W        W56652  10.859  23.696   3.293
93094W        W56653  12.726   6.903  13.795
93095W        W56654  16.223  32.604   1.859
93096W        W56655  29.580  16.669  11.395
93097W        W56656  44.465  20.694   2.216
93098W        W56657  41.361  23.214   0.807
93099W        W56658   3.307  13.718   1.843
93100W        W56659  26.089  34.901  11.874
93101W        W56660  33.613  21.173   1.902
93102W        W56661  40.949  26.953  13.876
93103W        W56662   6.762  38.419  12.043
93104W        W56663  40.807   6.310  14.013
93105W        W56664  20.758  40.890  14.289
93106W        W56665  10.863  26.205   3.751
93107W        W56666   3.940   8.272   3.185
93108W        W56667  42.855  13.816   0.408
93109W        W56668   6.823  17.086  12.897
93110W        W56669   0.341  25.181  11.123
93111W        W56670  39.883   5.874   0.769
93112W        W56671  10.180  15.298  14.868
93113W        W56672  10.251  38.555  12.016
93114W        W56673  25.537  27.020   2.281
93115W        W56674  16.248  36.926  10.488
93116W        W56675  20.618  44.850   1.253
93117W        W56676  40.864  14.804   3.285
93118W        W56677  43.307  26.573   2.362
93119W        W56678  44.265  23.524   4.284
93120W        W56679   7.329  34.379   4.211
93121W        W56680  38.349  22.527  10.972
93122W        W56681  13.612  23.573   2.248
93123W        W56682  40.368  30.987   4.349
93124W        W56683   6.265  43.905   1.749
93125W        W56684   7.186  44.798  14.788
93126W        W56685  27.453  19.644  12.341
93127W        W56686  43.858  21.572   3.691
93128W        W56687  13.727  38.509  11.579
93129W        W56688  21.731  12.637  10.908
93130W        W56689  17.666  22.034   3.327
93131W        W56690  10.224  39.036   1.791
93132W        W56691  34.943  23.046  13.985
93133W        W56692  42.968  16.079  13.903
93134W        W56693  22.526  37.964  10.503
93135W        W56694  28.572  12.808  11.436
93136W        W56695  30.074  40.802   3.271
93137W        W56696   9.695   3.386   1.422
93138W        W56697  30.934  37.347   1.797
93139W        W56698  44.860  19.206  10.497
93140W        W56699  37.893  36.559   0.852
93141W        W56700  20.261  36.959   4.211
93142W        W56701  23.235   9.256   5.227
93143W        W56702  11.857   2.888  11.876
93144W        W56703  14.271  10.158  14.838
93145W        W56704   7.774  39.318  14.322
93146W        W56705  38.929  34.868   4.724
93147W        W56706  30.593   9.781  14.863
93148W        W56707  11.294  28.481  11.056
93149W        W56708  42.353  44.946  14.024
93150W        W56709   5.395  26.009   3.230
93151W        W56710   9.345  35.468  10.478
93152W        W56711   5.208  29.470  14.824
93153W        W56712  34.906  21.049   3.681
93154W        W56713  21.619  28.460  12.941
93155W        W56714  42.991  33.908  11.099
93156W        W56715   7.326  41.401   3.844
93157W        W56716  44.468  34.447  12.487
93158W        W56717  32.097   2.371   3.179
93159W        W56718   8.702  35.467   9.638
93160W        W56719  40.366   4.226   4.322
93161W        W56720   4.730  10.717   3.839
93162W        W56721  14.263  18.196   3.834
93163W        W56722   5.845  13.174   0.367
93164W        W56723  30.161   0.889  10.417
93165W        W56724  33.471  38.933   2.398
93166W        W56725  42.830  25.496   2.813
93167W        W56726  33.454   0.321   2.384
93168W        W56727  13.350  36.855   1.728
93169W        W56728  36.028   2.819  14.903
93170W        W56729  22.670   6.405   1.442
93171W        W56730  42.804  29.943   2.242
93172W        W56731  28.488  25.177   5.265
93173W        W56732  43.008  15.649   2.245
93174W        W56733   0.363  14.290   4.800
93175W        W56734   5.228  20.123  14.016
93176W        W56735  11.687  10.149  10.111
93177W        W56736  19.148  12.325   1.430
93178W        W56737  29.608  38.566  11.920
93179W        W56738  35.898  32.394   9.972
93180W        W56739  15.123  18.181   0.767
93181W        W56740  37.002  23.581  10.428
93182W        W56741  44.440  20.117   1.401
93183W        W56742  13.772   5.800  11.541
93184W        W56743  10.742  17.243  10.906
93185W        W56744  19.697  12.199  13.879
93186W        W56745  17.634   6.829   3.801
93187W        W56746  16.684  24.067  13.417
93188W        W56747  19.118   8.808   3.817
93189W        W56748  31.124  36.003   0.298
93190W        W56749   9.870  36.540  14.824
93191W        W56750  43.478  42.321   3.315
93192W        W56751  42.915   3.262  11.104
93193W        W56752  32.089  10.702  14.818
93194W        W56753   0.759  24.507  11.870
93195W        W56754  25.098  14.297   4.636
93196W        W56755  15.691  30.910   5.181
93197W        W56756  14.652  11.198  12.890
93198W        W56757  10.727  30.492  10.460
93199W        W56758  14.698   1.955   3.179
93200W        W56759  15.285  34.016   3.784
93201W        W56760  11.351  22.567   5.316
93202W        W56761  39.494   4.303  14.488
93203W        W56762  44.319  15.281   4.232
93204W        W56763  35.470   0.340  11.051
93205W        W56764  41.001   9.248  13.329
93206W        W56765   0.876  19.754   3.738
93207W        W56766  18.719  28.088  11.546
93208W        W56767  33.886  18.691   0.772
93209W        W56768  31.511  35.385   0.380
93210W        W56769  38.452  37.926   4.632
93211W        W56770  39.876  28.604  12.495
93212W        W56771  27.135   2.935   2.707
93213W        W56772  19.079  23.021  13.837
93214W        W56773  27.665  18.764  14.010
93215W        W56774  15.582  40.468  11.979
93216W        W56775  15.783   7.863  14.819
93217W        W56776   5.826  20.244   3.831
93218W        W56777  43.286   0.401  12.418
93219W        W56778   6.200   4.210  10.480
93220W        W56779  20.115  22.740  11.404
93221W        W56780  10.326  31.509  14.876
93222W        W56781   7.257  44.850   4.684
93223W        W56782  35.433  11.812   1.248
93224W        W56783  17.694  11.636  10.643
93225W        W56784   2.271  27.614   3.866
93226W        W56785  12.360  35.935  12.578
93227W        W56786   1.299  34.060  12.057
93228W        W56787  37.865   3.805  13.939
93229W        W56788  11.256   0.382  11.111
93230W        W56789  21.685  42.946   0.321
93231W        W56790  20.137  24.166   4.625
93232W        W56791   9.298  37.401  13.538
93233W        W56792  42.024   4.763  14.009
93234W        W56793  18.789  32.615  14.477
93235W        W56794  37.519  25.691   0.448
93236W        W56795   9.258  37.430  13.975
93237W        W56796  17.731  43.906  14.886
93238W        W56797  39.032   7.402   2.756
93239W        W56798  17.708  33.910  14.854
93240W        W56799  28.122  31.970  14.342
93241W        W56800  37.399  37.520   2.803
93242W        W56801  14.237  40.917  10.521
93243W        W56802   3.375   6.784   0.382
93244W        W56803  35.490  13.138  11.531
93245W        W56804  19.162  22.668  14.388
93246W        W56805  14.114  31.974   3.308
93247W        W56806  14.106  18.622  11.024
93248W        W56807  13.285   6.886  14.486
93249W        W56808  38.020  31.583  13.929
93250W        W56809  21.607  16.161   4.778
93251W        W56810  19.605  22.152  11.013
93252W        W56811  44.492  33.106   5.134
93253W        W56812   9.234  24.507  14.325
93254W        W56813  15.652  40.404  10.541
93255W        W56814  10.838  31.017  11.123
93256W        W56815  35.977  12.280   3.251
93257W        W56816   8.768  16.578   3.724
93258W        W56817  15.715  27.648   2.787
93259W        W56818  16.807   7.375   4.210
93260W        W56819  14.804  15.712   4.295
93261W        W56820  33.418   3.428  11.537
93262W        W56821   8.325  14.274   2.750
93263W        W56822  34.089  12.319  13.806
93264W        W56823   2.329  13.605   1.251
93265W        W56824   0.804  37.376   1.218
93266W        W56825  24.154  26.174   4.232
93267W        W56826  12.643  38.433   3.785
93268W        W56827  43.906  20.700   0.386
93269W        W56828  34.983  36.443   1.703
93270W        W56829  35.547  12.707  10.565
93271W        W56830  38.444   4.436   4.145
93272W        W56831   0.926  29.639   3.361
93273W        W56832  31.462   4.700   1.411
93274W        W56833  44.992  40.020   2.249
93275W        W56834   3.453  35.509   3.183
93276W        W56835  26.193   5.405  14.975
93277W        W56836  32.565  44.866  10.595
93278W        W56837  16.307   8.748  14.929
93279W        W56838   3.908  27.177   3.831
93280W        W56839  10.213  32.506   2.278
93281W        W56840  30.434  38.886  11.493
93282W        W56841  32.569  42.901  14.776
93283W        W56842  32.401  13.270   1.776
93284W        W56843   1.760  18.256  10.429
93285W        W56844   8.241  33.938  12.528
93286W        W56845   7.231  16.605   0.833
93287W        W56846   9.361  37.892   0.302
93288W        W56847  38.555  23.211  13.909
93289W        W56848   1.741  22.188   2.234
93290W        W56849  40.798   9.736   3.200
93291W        W56850   3.362  11.694  13.490
93292W        W56851  38.024   0.959  12.083
93293W        W56852  10.239  27.588   4.616
93294W        W56853  42.525  32.999   3.186
93295W        W56854  12.814   7.761   2.865
93296W        W56855  40.904   1.249  11.568
93297W        W56856  31.943  39.929  12.880
93298W        W56857  28.104  38.990  13.034
93299W        W56858  33.119   3.772   1.829
93300W        W56859  10.709  11.166   0.900
93301W        W56860  35.009  22.587  14.969
93302W        W56861   5.247  33.394   0.483
93303W        W56862  16.788  23.006  11.877
93304W        W56863  31.551  41.515  12.520
93305W        W56864  27.171  22.555   3.646
93306W        W56865  23.070  13.266  10.998
93307W        W56866  38.915   6.820  10.916
93308W        W56867  37.435   3.287   1.736
93309W        W56868  21.708  12.164   0.749
93310W        W56869  13.810  35.071  11.587
93311W        W56870   0.979   9.296  10.888
93312W        W56871   7.215  42.422   1.749
93313W        W56872  25.972  16.597   1.338
93314W        W56873  36.927  35.040  10.902
93315W        W56874  15.316  17.644   1.790
93316W        W56875  26.056  26.494   4.824
93317W        W56876   8.395   7.413   4.162
93318W        W56877  14.599  12.276   0.966
93319W        W56878  23.173  17.653  14.311
93320W        W56879  30.538  34.103  11.395
93321W        W56880   9.680  38.937   3.719
93322W        W56881  30.502   1.296  12.565
93323W        W56882  31.971  37.529  12.567
93324W        W56883  28.185  39.406   1.406
93325W        W56884  20.112   8.389   3.341
93326W        W56885   5.785  29.544   3.735
93327W        W56886  20.137  19.231   4.632
93328W        W56887  15.218  27.662   0.812
93329W        W56888  23.668  32.049   1.276
93330W        W56889  27.940  42.473  11.467
93331W        W56890  44.452  16.247  11.051
93332W        W56891   5.792   5.344   2.187
93333W        W56892  20.201  35.470   0.334
93334W        W56893  43.791  29.457  14.026
93335W        W56894  22.738  19.712  11.522
93336W        W56895  21.650  35.066  11.427
93337W        W56896   6.242  19.544  14.812
93338W        W56897  41.799  41.430   2.873
93339W        W56898  32.073   6.409   1.912
93340W        W56899  38.527  32.425   3.758
93341W        W56900  24.696   7.370  11.411
93342W        W56901  35.551   9.159  12.393
93343W        W56902  31.133   5.799  13.495
93344W        W56903   6.849  41.835   2.190
93345W        W56904  26.977   3.412  13.820
93346W        W56905  31.436   3.933  14.820
93347W        W56906  23.670   3.747   0.897
93348W        W56907  15.808  12.667   3.190
93349W        W56908  14.120  27.692   0.405
93350W        W56909   1.350   6.227   2.217
93351W        W56910  28.144  40.801  10.943
93352W        W56911  17.228  34.878  11.058
93353W        W56912  38.364  27.683  10.580
93354W        W56913  35.386   5.381   1.267
93355W        W56914  18.108  19.710   4.706
93356W        W56915  21.584  41.295   1.329
93357W        W56916  39.925  40.048   0.415
93358W        W56917  44.450  36.082   3.184
93359W        W56918  11.688  24.716   0.354
93360W        W56919  18.121  28.623   2.232
93361W        W56920  30.032  15.800   4.246
93362W        W56921  25.507  38.951  14.958
93363W        W56922  37.022  32.051   9.968
93364W        W56923   8.751   0.876  10.479
93365W        W56924  25.690  38.459   1.449
93366W        W56925  25.693   9.743   4.713
93367W        W56926  13.107  13.140   3.644
93368W        W56927  19.111  34.456  10.458
93369W        W56928  37.922  33.472   2.855
93370W        W56929  12.759  38.368   1.801
93371W        W56930  40.850   3.235   3.714
93372W        W56931  40.029  35.084   4.319
93373W        W56932  31.121  28.059  13.932
93374W        W56933  21.612  31.444  12.022
93375W        W56934   3.289  12.691   9.980
93376W        W56935  11.695   1.420   0.872
93377W        W56936  24.058  20.061   1.273
93378W        W56937   9.390  30.158   0.736
93379W        W56938   3.721  35.416   1.406
93380W        W56939  43.429  22.526   3.768
93381W        W56940  36.875  14.830  11.103
93382W        W56941  23.735   9.875   2.667
93383W        W56942   7.784  10.795   1.339
93384W        W56943  38.469  21.263  12.985
93385W        W56944  10.171  33.071   0.826
93386W        W56945  29.089  44.287   2.728
93387W        W56946   7.284   0.281  13.872
93388W        W56947  23.171  44.354   0.934
93389W        W56948   6.391   9.768   4.148
93390W        W56949  26.040  21.119   0.744
93391W        W56950  25.644   6.181   3.213
93392W        W56951   6.396   5.744   1.877
93393W        W56952  24.139  43.510  13.475
93394W        W56953  22.709  13.754   3.684
93395W        W56954  23.599   9.186   2.301
93396W        W56955  11.344  23.049  12.377
93397W        W56956  43.431  32.124   0.868
93398W        W56957   4.435   4.818   2.701
93399W        W56958   2.339  30.079  13.375
93400W        W56959  36.444  35.067  11.412
93401W        W56960  38.053  26.138  11.576
93402W        W56961  12.356  30.911  10.607
93403W        W56962  39.967  43.501  14.347
93404W        W56963  15.754   0.940   3.160
93405W        W56964  30.009  38.564   1.404
93406W        W56965  33.955  38.019   3.849
93407W        W56966  39.013  38.033  12.091
93408W        W56967  15.632  42.033  12.014
93409W        W56968  27.090  35.498  12.082
93410W        W56969  28.944  23.204  10.406
93411W        W56970  39.847  18.101  13.313
93412W        W56971  36.522   7.327   5.134
93413W        W56972  22.160  28.534   5.173
93414W        W56973  27.056   2.265   2.403
93415W        W56974  31.038  11.191   4.301
93416W        W56975  12.238  35.600  12.397
93417W        W56976   1.480  41.459   0.388
93418W        W56977   5.809   4.289  12.504
93419W        W56978   9.267  44.977  11.422
93420W        W56979  42.981   4.260  12.079
93421W        W56980  39.555  38.876  14.438
93422W        W56981  36.044  32.484   2.789
93423W        W56982  25.700  30.495  13.012
93424W        W56983  41.332  35.073   0.423
93425W        W56984  22.135   6.744   4.638
93426W        W56985  29.576  32.452  10.990
93427W        W56986  35.088   3.458   1.289
93428W        W56987  37.952   6.700  14.354
93429W        W56988  21.082  24.717  12.403
93430W        W56989  36.582  25.675   0.935
93431W        W56990  28.540  31.577  13.818
93432W        W56991  33.102  42.023   1.410
93433W        W56992  42.898  20.146   2.418
93434W        W56993  32.488  11.228   2.215
93435W        W56994   2.962  19.174   4.631
93436W        W56995  25.009  12.847   5.723
93437W        W56996  31.409  18.251  13.488
93438W        W56997  34.495  43.325  14.981
93439W        W56998  35.499  16.780   2.350
93440W        W56999  44.359   4.439  13.419
93441W        W57000  24.561  43.007  14.483
93442W        W57001  39.026  17.715  13.858
93443W        W57002  33.384  29.141  11.375
93444W        W57003  26.106  36.556  14.812
93445W        W57004  44.451   8.392  10.938
93446W        W57005  13.822   4.283  13.349
93447W        W57006  34.983  29.063  14.825
93448W        W57007  38.966  30.073   3.695
93449W        W57008  21.139  15.627   4.642
93450W        W57009  32.049   0.248  10.613
93451W        W57010  18.163   2.898  12.520
93452W        W57011  13.111   5.915   1.257
93453W        W57012  35.378   3.292  14.313
93454W        W57013   8.338  12.314  14.364
93455W        W57014  11.263  24.719   3.800
93456W        W57015  33.087  23.118   3.727
93457W        W57016  19.715  31.533   2.245
93458W        W57017  15.725   3.747   1.404
93459W        W57018  33.390  33.893  10.903
93460W        W57019  43.419  43.796  11.501
93461W        W57020   9.395  43.017   4.293
93462W        W57021   6.341  18.165   3.191
93463W        W57022  35.925   0.302   0.279
93464W        W57023  27.158  34.050  14.799
93465W        W57024  11.367  31.078  10.527
93466W        W57025  11.851   0.294   3.161
93467W        W57026  24.001   4.318   4.128
93468W        W57027  34.451  16.649   4.645
93469W        W57028  16.768  21.097  13.062
93470W        W57029  39.830  39.030  14.917
93471W        W57030  39.540  14.177  13.797
93472W        W57031  26.477  37.071   4.651
93473W        W57032   3.432  44.428   2.706
93474W        W57033  22.192  18.274  11.538
93475W        W57034  31.477  17.258  11.594
93476W        W57035  30.455  25.558  12.557
93477W        W57036   9.330  31.131  13.388
93478W        W57037  13.614  34.049  11.393
93479W        W57038  29.596  21.179  11.528
93480W        W57039   0.400  12.718  10.908
93481W        W57040  18.676  44.775  13.407
93482W        W57041  28.088   0.250  11.479
93483W        W57042  32.610  17.657   3.730
93484W        W57043  17.118  38.008  12.391
93485W        W57044  32.034  11.626  13.874
93486W        W57045  12.281  20.267   0.278
93487W        W57046  10.289  36.027  14.855
93488W        W57047  20.206  39.045  11.608
93489W        W57048   0.973  20.180   4.346
93490W        W57049  12.238  17.199  10.992
93491W        W57050  37.007  18.751  12.854
93492W        W57051  33.544  38.868   3.380
93493W        W57052  34.943  10.255   2.370
93494W        W57053  10.319  27.691   0.915
93495W        W57054   4.421  37.896   2.208
93496W        W57055  39.056  39.862   1.430
93497W        W57056  14.632  18.252  10.893
93498W        W57057  12.273  21.211  12.351
93499W        W57058  34.881  18.281  14.867
93500W        W57059   5.330  21.144  10.565
93501W        W57060  43.495   8.730  12.404
93502W        W57061  34.926  16.697  13.808
93503W        W57062   9.686  24.024  13.422
93504W        W57063  15.671  41.789   3.795
93505W        W57064  35.482   4.402  11.503
93506W        W57065  15.610  14.739  14.340
93507W        W57066  33.621  26.190   4.633
93508W        W57067   0.940   5.767  14.963
93509W        W57068   8.272   6.856   0.954
93510W        W57069   7.724   9.384  14.439
93511W        W57070  39.906  31.640   4.167
93512W        W57071  11.269  32.460   2.322
93513W        W57072  35.007  18.660   3.801
93514W        W57073   6.803  36.932  14.849
93515W        W57074  20.198  36.946  11.599
93516W        W57075   3.266  16.228   2.760
93517W        W57076   7.791  10.685  11.594
93518W        W57077  39.505   0.436   0.423
93519W        W57078  23.591  23.563   2.222
93520W        W57079  37.838  42.425  10.479
93521W        W57080   5.810   5.851   4.182
93522W        W57081  34.991  14.730   3.715
93523W        W57082  34.027  39.923  13.498
93524W        W57083  29.540   7.855   1.907
93525W        W57084  12.192  33.586   1.712
93526W        W57085  11.703   3.870  12.988
93527W        W57086   1.811   2.830  13.328
93528W        W57087  31.591   9.353   0.794
93529W        W57088  18.593  43.291  13.457
93530W        W57089   7.365  33.066   1.743
93531W        W57090  26.102  43.817  13.468
93532W        W57091   4.764  39.813   0.903
93533W        W57092  19.235  37.848  10.444
93534W        W57093   7.295  37.400   4.176
93535W        W57094   9.652  11.169  12.965
93536W        W57095   5.750  15.299  10.552
93537W        W57096  23.633  38.511   0.750
93538W        W57097   2.757  29.648  13.962
93539W        W57098  20.156  34.917   4.694
93540W        W57099  27.087  43.465  12.063
93541W        W57100   7.196  35.961   0.413
93542W        W57101  43.373  42.362   2.899
93543W        W57102  22.570  34.421   4.246
93544W        W57103  34.487  37.935  14.332
93545W        W57104   1.949  10.864  12.569
93546W        W57105  16.310  22.120  12.954
93547W        W57106  21.568  15.305  14.845
93548W        W57107  18.737  41.447  11.387
93549W        W57108   3.807  44.308   3.291
93550W        W57109  17.152  44.826   2.398
93551W        W57110   1.244  12.643  13.831
93552W        W57111  20.273  10.255  13.368
93553W        W57112  17.615  38.937  12.856
93554W        W57113  40.307  20.210   0.437
93555W        W57114  29.006  17.070   4.813
93556W        W57115  36.014  29.646   0.411
93557W        W57116  22.534  23.079  12.438
93558W        W57117  32.077  18.202  11.595
93559W        W57118  33.020  13.696  10.898
93560W        W57119   8.182  18.181   4.779
93561W        W57120  34.038  14.183   4.797
93562W        W57121  25.128   6.300   4.770
93563W        W57122  11.227  34.984   2.309
93564W        W57123  23.536  38.915  10.613
93565W        W57124  37.838  26.107  13.526
93566W        W57125   0.403  44.379   2.405
93567W        W57126   4.763  44.927  11.409
93568W        W57127  25.092  38.367  14.966
93569W        W57128   6.323  30.613  12.567
93570W        W57129  28.148  15.310  14.360
93571W        W57130  44.262  10.264   2.302
93572W        W57131  44.260   5.806  11.392
93573W        W57132  37.446  35.964  12.083
93574W        W57133  41.863  21.176   5.312
93575W        W57134   7.250  36.471  12.552
93576W        W57135   1.812  39.425  10.968
93577W        W57136   4.926  41.535  11.927
93578W        W57137  27.517  37.381  13.862
93579W        W57138   7.874  37.512  13.480
93580W        W57139  37.358  38.338  12.561
93581W        W57140   3.345  14.707   4.823
93582W        W57141  21.553  13.300   0.406
93583W        W57142  37.854  22.545  13.358
93584W        W57143  26.971  40.347  12.532
93585W        W57144   7.802  25.184  14.494
93586W        W57145   7.890  28.179   0.765
93587W        W57146  33.609  29.990   3.364
93588W        W57147  41.978  42.443   0.300
93589W        W57148  40.055  23.032   1.895
93590W        W57149  30.064  28.440  14.298
93591W        W57150  12.696   0.807  13.011
93592W        W57151  36.007  12.658   3.715
93593W        W57152   3.783  19.247  14.848
93594W        W57153   4.905  19.761   1.311
93595W        W57154  40.468  14.657   0.430
93596W        W57155  13.193  37.544  10.006
93597W        W57156  15.191   3.351   1.223
93598W        W57157  14.721  10.253  12.973
93599W        W57158   7.397  26.069   1.908
93600W        W57159  39.319  24.698  12.506
93601W        W57160  42.980  20.600  14.375
93602W        W57161  32.949  17.588  13.406
93603W        W57162  31.109  39.066  14.465
93604W        W57163  35.550  42.931   0.290
93605W        W57164  23.491  23.541  14.437
93606W        W57165   6.818   3.745   4.802
93607W        W57166  36.938  40.806   3.193
93608W        W57167  34.919  28.436   1.826
93609W        W57168  38.933  27.489  11.462
93610W        W57169  13.691  44.406   3.771
93611W        W57170  27.037  25.000  10.551
93612W        W57171  32.089   1.468  12.436
93613W        W57172  41.359  12.196  13.430
93614W        W57173  44.868  17.115   0.351
93615W        W57174  22.535  15.150   3.635
93616W        W57175  25.484  25.494   2.247
93617W        W57176   8.217   7.371   4.685
93618W        W57177   2.817   9.887   2.274
93619W        W57178  26.526   6.336  12.826
93620W        W57179  42.434  42.380  14.837
93621W        W57180  32.483  43.782   1.857
93622W        W57181  12.295  26.080  10.406
93623W        W57182  17.171  27.140  11.996
93624W        W57183  13.846  41.325  11.100
93625W        W57184  40.006  30.942  14.807
93626W        W57185  26.027  21.040  10.941
93627W        W57186  31.972  36.013   4.313
93628W        W57187   2.825  12.716   1.697
93629W        W57188  12.799  29.143  12.050
93630W        W57189  12.296   2.244   1.827
93631W        W57190  23.588  27.160   0.920
93632W        W57191  21.549  42.833  11.037
93633W        W57192  33.405  39.981   2.806
93634W        W57193  14.199  10.840  12.538
93635W        W57194  35.986  40.543  11.128
93636W        W57195  14.828  29.637   0.747
93637W        W57196  12.720  12.683   5.117
93638W        W57197   3.738  32.418   4.130
93639W        W57198  15.703  17.764   5.283
93640W        W57199  30.153  26.112  12.392
93641W        W57200  44.771  33.930  12.004
93642W        W57201  32.598  41.021   4.241
93643W        W57202  34.915  33.483  12.003
93644W        W57203  36.514  29.049   2.375
93645W        W57204   3.732  44.934   2.842
93646W        W57205  44.337  14.771   4.200
93647W        W57206  16.672  18.673   0.933
93648W        W57207  14.118  25.030   4.122
93649W        W57208  31.496  23.517   3.804
93650W        W57209  16.741  33.040   0.269
93651W        W57210   5.281  14.102  12.036
93652W        W57211  40.964  24.711   0.909
93653W        W57212  22.577  25.205   2.720
93654W        W57213  12.690  18.155  11.540
93655W        W57214  44.828   0.462   1.833
93656W        W57215  39.530   6.223  12.564
93657W        W57216  13.322  40.514   2.259
93658W        W57217  38.001   7.831   1.919
93659W        W57218  16.779  15.629   0.752
93660W        W57219   9.745  28.536   1.382
93661W        W57220  44.291  36.862   1.879
93662W        W57221  29.012  29.621   0.903
93663W        W57222   4.423  31.151  11.461
93664W        W57223   1.292  28.937   0.411
93665W        W57224  43.806   1.858   0.761
93666W        W57225  15.214  11.143   1.399
93667W        W57226  23.700   4.357  14.333
93668W        W57227  20.525  22.086  11.374
93669W        W57228  27.078   1.911  11.547
93670W        W57229   1.960   1.756   0.843
93671W        W57230   7.213  36.099   3.767
93672W        W57231   8.661   3.332  14.763
93673W        W57232  12.350   8.171  11.047
93674W        W57233  25.184   1.302   2.740
93675W        W57234  39.444  37.984   4.258
93676W        W57235  34.936  42.326   2.271
93677W        W57236  42.790  43.444  13.392
93678W        W57237  24.169  12.838  12.910
93679W        W57238  15.646   8.197   2.754
93680W        W57239  12.629  17.210   1.929
93681W        W57240  14.321  29.462   4.166
93682W        W57241  34.019  13.219  11.992
93683W        W57242  42.343  33.453  11.914
93684W        W57243  18.153  33.948  11.124
93685W        W57244   4.446  24.548   4.732
93686W        W57245  28.621  43.501  14.382
93687W        W57246   5.782  42.497   1.389
93688W        W57247  25.660  11.684   1.910
93689W        W57248   3.910  15.098  10.579
93690W        W57249  31.061  34.607   1.329
93691W        W57250  40.812  32.466  11.942
93692W        W57251  16.705  40.970   4.295
93693W        W57252  10.251  43.849   0.280
93694W        W57253  20.274  20.228  13.815
93695W        W57254  31.616   7.380  11.934
93696W        W57255  16.701   2.286   0.910
93697W        W57256  36.505  12.732   3.318
93698W        W57257   9.248  16.226  14.850
93699W        W57258  25.619  10.806  12.397
93700W        W57259  37.057  22.522  13.930
93701W        W57260  35.926  26.566   4.198
93702W        W57261  42.293  38.851   1.898
93703W        W57262   3.299  16.767   4.129
93704W        W57263  41.787  14.232  12.010
93705W        W57264   5.741  16.585   2.385
93706W        W57265   3.731  13.769  13.531
93707W        W57266  39.529  30.521   0.800
93708W        W57267  21.231   6.692  11.100
93709W        W57268  35.961  24.158  13.367
93710W        W57269  29.485  22.216   2.874
93711W        W57270  16.262  11.296   4.147
93712W        W57271   3.789  16.168  11.095
93713W        W57272  10.207  10.317  14.375
93714W        W57273  15.596  32.594   5.321
93715W        W57274   8.726   2.464   3.834
93716W        W57275  30.113  34.515  13.986
93717W        W57276   2.753  29.597   4.670
93718W        W57277  18.739  38.531   2.745
93719W        W57278   4.303  34.866   4.268
93720W        W57279   6.702  26.184  12.094
93721W        W57280  27.993   5.221  10.645
93722W        W57281  24.628  18.136   1.365
93723W        W57282  28.465  18.775   3.728
93724W        W57283  21.121  29.489  10.055
93725W        W57284  33.545  33.514   4.201
93726W        W57285  33.958  34.414  10.522
93727W        W57286  36.859  32.416   3.817
93728W        W57287  33.882  13.195  11.606
93729W        W57288  26.111   1.784  14.835
93730W        W57289  13.344   2.390   0.741
93731W        W57290   5.924  13.284  14.283
93732W        W57291   2.958  14.247   3.155
93733W        W57292   9.391  39.535   2.686
93734W        W57293  38.919   0.785   2.184
93735W        W57294  39.491  28.664  13.329
93736W        W57295  21.533  30.438   3.717
93737W        W57296  27.533  37.986  14.878
93738W        W57297  25.600  22.164   0.856
93739W        W57298  31.486  26.091   2.692
93740W        W57299  28.630  14.256  11.895
93741W        W57300   3.885  23.683  11.489
93742W        W57301   5.778  11.187   2.293
93743W        W57302  37.498  35.423  14.323
93744W        W57303  41.357  42.440  12.013
93745W        W57304  37.435  27.546   1.738
93746W        W57305  44.472  40.836  10.611
93747W        W57306  31.042  29.988   1.806
93748W        W57307  13.681  33.557  10.460
93749W        W57308  14.687  18.566   3.820
93750W        W57309  11.687  13.324   1.351
93751W        W57310  29.503  19.676   2.199
93752W        W57311   2.847   0.342   2.790
93753W        W57312  42.003  10.235   2.785
93754W        W57313   6.923  43.495   4.706
93755W        W57314  11.191  25.591  12.388
93756W        W57315  12.781  38.365   4.279
93757W        W57316  12.635  28.983   1.354
93758W        W57317  44.339   1.765  11.001
93759W        W57318  36.504  26.195  13.972
93760W        W57319  44.328   1.428  10.442
93761W        W57320   4.898  22.638   0.798
93762W        W57321  31.544   6.691   2.849
93763W        W57322  17.256   1.341   2.241
93764W        W57323   1.314  21.127  14.982
93765W        W57324  42.434  33.483  12.907
93766W        W57325   2.825  34.588   1.835
93767W        W57326  39.361  22.169  10.632
93768W        W57327  17.288  23.697   4.637
93769W        W57328  40.493  29.053   2.883
93770W        W57329  44.988  42.442  10.640
93771W        W57330   6.328  16.809   0.283
93772W        W57331  25.697  32.473   1.911
93773W        W57332   1.307  39.466  12.492
93774W        W57333  18.083  29.990  14.442
93775W        W57334  15.205  16.263  12.339
93776W        W57335   6.267  34.091  12.560
93777W        W57336  20.719  34.490   2.901
93778W        W57337   7.722  15.316   4.756
93779W        W57338  14.210  29.005  11.441
93780W        W57339   4.778   1.978   9.920
93781W        W57340   1.440  34.965  14.351
93782W        W57341  15.293   5.759   1.301
93783W        W57342  30.992  40.303  11.958
93784W        W57343  13.720   7.306   3.166
93785W        W57344  13.145  22.589  13.037
93786W        W57345  31.063  35.011  13.030
93787W        W57346  44.792  41.312   4.312
93788W        W57347  25.080  18.184   0.397
93789W        W57348  23.153  28.943  14.002
93790W        W57349  35.010  33.024   1.835
93791W        W57350   0.351  12.223   2.311
93792W        W57351  34.524  18.061  13.981
93793W        W57352  10.141  31.508  12.988
93794W        W57353  22.223   5.828   3.281
93795W        W57354   2.751  13.185  11.461
93796W        W57355  27.511  24.566   0.921
93797W        W57356   8.305   2.927  13.861
93798W        W57357  22.670  38.934  14.817
93799W        W57358  41.981   1.818   1.718
93800W        W57359  35.594  37.925   2.773
93801W        W57360  10.273  28.448   2.859
93802W        W57361   3.217  22.238  13.508
93803W        W57362  35.487  38.940   2.777
93804W        W57363  11.193  42.284   3.226
93805W        W57364   1.303   7.324   3.367
93806W        W57365  28.616  23.023  13.836
93807W        W57366  25.605  18.144   4.274
93808W        W57367  26.689  18.205   4.723
93809W        W57368  37.835   3.934  14.510
93810W        W57369   0.749  27.641   2.245
93811W        W57370  39.465  44.462   4.660
93812W        W57371  11.699   8.230   3.794
93813W        W57372  42.282  35.390  12.404
93814W        W57373  23.098  22.006   0.288
93815W        W57374  39.485  16.744  11.990
93816W        W57375  19.534  41.891   0.893
93817W        W57376  30.535  22.006   4.343
93818W        W57377   5.216  11.864  13.022
93819W        W57378  21.035  14.679   0.398
93820W        W57379  35.035  31.516  14.764
93821W        W57380  33.007  11.163   3.270
93822W        W57381  16.251   7.793  12.537
93823W        W57382  25.009  11.190  12.876
93824W        W57383  10.699  12.838  11.949
93825W        W57384  35.532  30.958   4.621
93826W        W57385   6.754  16.633   1.361
93827W        W57386  13.626  27.606   2.837
93828W        W57387  34.107   5.704   4.809
93829W        W57388  38.434  11.186  10.592
93830W        W57389  19.042  22.676   1.923
93831W        W57390  24.724   0.340   0.378
93832W        W57391  35.041  21.182   4.333
93833W        W57392  10.256   2.232   3.266
93834W        W57393  42.326  16.807   1.397
93835W        W57394  19.766  38.012  12.510
93836W        W57395  30.969  26.168  10.457
93837W        W57396   6.197  31.909  14.325
93838W        W57397  36.459   7.343  11.107
93839W        W57398  44.358  13.748  13.999
93840W        W57399  38.444  19.130   2.803
93841W        W57400  25.626  20.710  14.280
93842W        W57401  39.475  41.377   3.767
93843W        W57402   0.432  42.507  11.924
93844W        W57403  20.064  24.582   1.867
93845W        W57404  10.153  21.575  11.984
93846W        W57405  30.967  32.440  12.020
93847W        W57406  26.488   6.763  13.537
93848W        W57407  41.521  28.068   3.366
93849W        W57408  37.060  20.149   4.688
93850W        W57409  26.594  38.332  13.401
93851W        W57410  20.216   0.951  13.980
93852W        W57411  29.440  38.375  14.361
93853W        W57412  37.442  29.553  10.957
93854W        W57413  34.959  34.924   0.455
93855W        W57414  39.871   5.223  13.484
93856W        W57415  20.271  40.828  13.486
93857W        W57416   1.268  32.018   3.327
93858W        W57417   2.233  18.243   0.364
93859W        W57418  22.568  31.051   4.837
93860W        W57419  37.831  12.766   1.729
93861W        W57420   9.656   4.761  12.032
93862W        W57421   9.694  27.155  10.445
93863W        W57422  38.571  23.182   0.813
93864W        W57423   3.820  24.189   1.388
93865W        W57424  25.206   8.658   4.663
93866W        W57425  24.046  25.472  10.410
93867W        W57426   3.951  32.452  14.822
93868W        W57427  37.532  27.969  14.397
93869W        W57428  23.584  19.172  14.818
93870W        W57429  39.406  44.763  14.415
93871W        W57430   3.921  27.067   2.281
93872W        W57431  25.197   4.911  10.545
93873W        W57432  21.066  40.326  10.548
93874W        W57433  42.351  24.678  12.447
93875W        W57434   7.193  32.634  13.454
93876W        W57435  27.150   1.408   2.897
93877W        W57436  22.573  30.916   2.221
93878W        W57437  10.330   7.184  13.860
93879W        W57438   9.843  30.073  11.415
93880W        W57439  14.282  39.543   1.734
93881W        W57440   1.797  39.036  12.559
93882W        W57441   3.256  22.632   0.782
93883W        W57442  44.850  27.100   1.870
93884W        W57443   5.413  36.846  14.958
93885W        W57444  12.279   6.780  12.902
93886W        W57445  20.272  41.418   1.236
93887W        W57446  30.100  20.625  10.918
93888W        W57447  31.564  21.234   1.218
93889W        W57448  25.539  37.518  11.006
93890W        W57449  24.166  16.118  12.008
93891W        W57450  38.053   2.318   1.243
93892W        W57451   0.392  23.082   0.259
93893W        W57452  20.270  39.559  12.428
93894W        W57453  25.639  12.180  14.013
93895W        W57454  27.487  24.111   9.599
93896W        W57455  22.093   3.812   2.825
93897W        W57456   6.726  19.617  11.025
93898W        W57457  44.764  29.028   3.360
93899W        W57458   7.751  22.226  10.436
93900W        W57459  23.021  39.489  13.940
93901W        W57460   3.746  34.565  12.461
93902W        W57461   9.854  14.194   2.182
93903W        W57462  14.336  42.317   2.886
93904W        W57463  38.516  28.983   1.926
93905W        W57464  26.057  44.874   2.798
93906W        W57465  34.516  39.381   2.856
93907W        W57466  24.586  23.139   9.454
93908W        W57467  10.267  25.030  10.938
93909W        W57468  22.651   5.727  14.968
93910W        W57469  23.146  37.867  12.933
93911W        W57470  42.915  12.829  12.956
93912W        W57471  14.815   0.943   1.286
93913W        W57472  11.681  36.983  13.346
93914W        W57473  24.225  17.727   1.835
93915W        W57474  17.682  21.740   4.275
93916W        W57475  22.520  20.137   4.113
93917W        W57476  30.142   3.314  11.371
93918W        W57477   2.732  39.516   4.174
93919W        W57478  10.778  23.037  12.474
93920W        W57479  12.685  40.800   2.291
93921W        W57480  37.582   8.166   3.681
93922W        W57481  44.375   1.295  12.434
93923W        W57482  23.045   4.292   0.869
93924W        W57483  35.495  16.671   4.723
93925W        W57484  41.458  22.240   0.311
93926W        W57485  27.456  22.510  11.092
93927W        W57486   6.836  11.269  14.871
93928W        W57487  33.615   7.408   9.601
93929W        W57488  39.468  38.419  11.044
93930W        W57489  22.554  43.932   4.655
93931W        W57490  17.702  30.464   2.878
93932W        W57491  13.243  20.053  12.883
93933W        W57492  42.296  23.642  11.463
93934W        W57493  43.339  44.753  12.524
93935W        W57494  44.791  35.423   4.307
93936W        W57495   4.910  38.508  14.030
93937W        W57496  27.455  35.936  11.968
93938W        W57497  11.198  44.842  10.506
93939W        W57498  13.278  21.142  11.081
93940W        W57499  21.034   1.329   1.721
93941W        W57500  34.417  19.241   0.415
93942W        W57501   6.274  22.532   3.738
93943W        W57502  43.411  14.802  11.037
93944W        W57503  27.987   6.863   4.210
93945W        W57504  35.874  42.959  11.902
93946W        W57505  22.695  22.740   1.270
93947W        W57506  18.708  36.042  10.932
93948W        W57507   0.396  26.196   0.346
93949W        W57508  28.998  33.480  14.498
93950W        W57509  42.330  36.081   1.823
93951W        W57510  30.997  41.968   3.338
93952W        W57511  31.432  24.694   1.757
93953W        W57512  15.638   0.385   2.239
93954W        W57513  31.605  38.372   3.694
93955W        W57514  19.647   8.715  12.388
93956W        W57515  20.624  28.463   9.541
93957W        W57516  36.523   5.219  11.997
93958W        W57517  15.192  28.448  13.829
93959W        W57518  14.160  26.093  11.997
93960W        W57519   8.865  28.060  11.546
93961W        W57520  43.415  15.105   4.772
93962W        W57521  11.174   0.841   3.333
93963W        W57522  29.039  44.905   4.771
93964W        W57523  43.917  21.072   4.768
93965W        W57524   2.299   3.284  10.416
93966W        W57525   1.429  29.447   1.733
93967W        W57526  13.332   2.461  10.586
93968W        W57527  16.689  33.989   4.340
93969W        W57528  27.999  17.194  13.052
93970W        W57529  12.132  43.959  13.358
93971W        W57530  11.807  13.800  13.960
93972W        W57531   6.884   0.267   3.772
93973W        W57532  27.603  44.793   3.246
93974W        W57533  29.146  43.840  11.103
93975W        W57534  39.534  32.475   1.346
93976W        W57535  15.159  17.080  11.956
93977W        W57536   4.717  41.411  14.787
93978W        W57537  26.083  10.349   1.350
93979W        W57538  38.960  24.042  11.061
93980W        W57539   4.448  41.475  11.948
93981W        W57540  44.368  22.223  13.406
93982W        W57541  25.616  42.016  13.965
93983W        W57542  25.618  38.465  12.932
93984W        W57543  30.507  22.555  11.967
93985W        W57544  20.217   1.375   0.806
93986W        W57545  23.056  35.058  13.970
93987W        W57546  33.594  37.979  13.467
93988W        W57547  39.907   3.439   4.338
93989W        W57548  34.879  20.221   0.909
93990W        W57549  14.298  13.210   0.815
93991W        W57550  32.620   8.726  14.465
93992W        W57551  30.970   9.681   4.601
93993W        W57552  13.624  19.542   4.346
93994W        W57553  19.225  38.014  11.372
93995W        W57554  31.099  41.324   1.260
93996W        W57555  10.297  35.062  12.373
93997W        W57556  10.684  35.908   1.891
93998W        W57557  10.821  29.608  14.434
93999W        W57558  31.533  26.164  13.914
94000W        W57559  26.051  27.676  11.472
94001W        W57560  39.453  36.535  10.552
94002W        W57561  18.573   4.282   4.648
94003W        W57562  19.593  44.909   0.463
94004W        W57563  19.044  38.458  10.997
94005W        W57564  25.980  40.867  14.882
94006W        W57565  40.456   1.834   0.252
94007W        W57566   6.894  32.494  10.951
94008W        W57567  14.625   4.283  13.854
94009W        W57568  19.095   8.728  12.481
94010W        W57569  36.052   8.796  10.998
94011W        W57570  11.757  16.698  14.863
94012W        W57571  31.574  39.521   2.828
94013W        W57572  41.391  10.710   0.890
94014W        W57573  15.115  40.427   0.271
94015W        W57574  26.093  40.417  13.510
94016W        W57575  17.211  16.313   1.749
94017W        W57576  35.975   1.305  13.357
94018W        W57577  35.012  19.621   1.415
94019W        W57578  43.417  41.786  13.027
94020W        W57579  12.224  35.903   0.332
94021W        W57580  35.581  20.764   0.910
94022W        W57581  15.201  23.990   3.199
94023W        W57582  23.152  22.637  14.477
94024W        W57583  18.072  40.346  13.905
94025W        W57584  12.242   4.217  12.039
94026W        W57585  43.921  24.520  11.903
94027W        W57586   3.789   9.647   4.661
94028W        W57587  11.162   1.844   4.750
94029W        W57588  23.031  23.991  14.341
94030W        W57589  43.515  18.622  12.438
94031W        W57590  39.399  12.341  13.872
94032W        W57591  40.854   1.731   0.318
94033W        W57592  23.227  28.094   4.673
94034W        W57593  25.531  36.586  10.539
94035W        W57594  27.609  20.259   0.269
94036W        W57595  39.036  43.472  10.980
94037W        W57596  36.435  39.932  13.403
94038W        W57597   6.361   6.400   0.258
94039W        W57598  22.526  33.625   0.817
94040W        W57599  24.197  21.131   4.826
94041W        W57600  23.566  30.101   4.319
94042W        W57601  44.776   0.745  14.468
94043W        W57602  27.565  15.586   4.706
94044W        W57603  22.168  43.863   0.435
94045W        W57604   1.953  42.328   3.332
94046W        W57605  21.733  27.141   3.244
94047W        W57606  33.038  31.450  14.516
94048W        W57607  20.632   6.231   3.328
94049W        W57608  39.337  44.773  12.062
94050W        W57609   6.691   3.383  11.999
94051W        W57610  16.646  29.482  14.441
94052W        W57611  19.747  17.152   1.283
94053W        W57612  11.734  18.560   0.761
94054W        W57613  19.070  35.600  14.887
94055W        W57614  26.107  27.119   3.842
94056W        W57615  18.096  22.059   2.785
94057W        W57616  33.590   3.434  13.903
94058W        W57617   6.265   8.254   2.824
94059W        W57618  42.809  43.866  13.831
94060W        W57619   0.354  32.021  12.437
94061W        W57620  44.453  36.940  14.482
94062W        W57621  32.931  39.385   3.292
94063W        W57622  28.672  11.188  10.624
94064W        W57623  28.530  39.548   2.825
94065W        W57624  30.558  12.220   1.293
94066W        W57625  39.361  21.244   3.346
94067W        W57626  28.118  10.174  14.437
94068W        W57627  16.212  16.074   4.120
94069W        W57628  18.130  18.161  11.872
94070W        W57629   0.806   2.820   2.266
94071W        W57630  26.630  28.444   1.801
94072W        W57631  37.912  34.413   4.231
94073W        W57632   3.782  22.572  14.999
94074W        W57633  25.674   0.371   3.234
94075W        W57634  13.135   1.799   2.734
94076W        W57635  26.193  29.977  10.931
94077W        W57636   9.365  33.565  10.566
94078W        W57637  19.215  11.850  10.591
94079W        W57638  18.075  10.275  13.905
94080W        W57639   6.777   3.752   0.391
94081W        W57640  33.517   7.320   4.342
94082W        W57641  33.934  29.131   4.115
94083W        W57642  33.418  17.291  14.784
94084W        W57643   9.786  10.852   0.452
94085W        W57644  15.151   3.910  13.868
94086W        W57645   2.402   8.256  11.124
94087W        W57646   8.315  38.566   1.847
94088W        W57647   7.889   9.355  11.517
94089W        W57648  30.647   2.868   3.345
94090W        W57649  23.085  17.615   1.718
94091W        W57650  31.975  34.396   1.784
94092W        W57651  40.385  34.375  11.403
94093W        W57652  29.144  26.502   0.753
94094W        W57653  22.086   9.669  12.877
94095W        W57654   2.880  34.041  12.346
94096W        W57655   6.263  40.046   5.310
94097W        W57656  36.371  14.335   4.167
94098W        W57657   6.269  12.648   0.375
94099W        W57658  26.603  44.451   4.348
94100W        W57659  26.483   3.914  13.838
94101W        W57660  18.556  28.071   0.794
94102W        W57661  19.706  40.876  14.868
94103W        W57662   8.200  13.293   2.771
94104W        W57663  20.198  22.162  11.067
94105W        W57664  17.559  28.595  14.814
94106W        W57665  30.975  17.206   0.248
94107W        W57666  36.928   5.269   2.382
94108W        W57667   1.840  31.056   1.340
94109W        W57668  36.987   0.439   4.643
94110W        W57669  21.657  11.726  13.003
94111W        W57670  33.607  27.468  13.430
94112W        W57671  26.629   1.344   2.751
94113W        W57672  35.562  19.574  12.031
94114W        W57673   8.353   5.370   2.350
94115W        W57674  30.524  35.868  10.993
94116W        W57675  21.551   2.397  11.969
94117W        W57676  33.081  14.258  13.987
94118W        W57677  23.097  20.748  14.330
94119W        W57678  15.627  11.827  13.996
94120W        W57679  32.959  19.649  14.929
94121W        W57680   9.282  27.078  10.622
94122W        W57681  11.801  14.167   2.354
94123W        W57682  24.006  33.951   2.235
94124W        W57683  24.170   4.783  11.531
94125W        W57684  10.182  15.139   5.196
94126W        W57685   4.846  21.236   0.794
94127W        W57686   4.910  21.184  11.989
94128W        W57687  19.573  15.821   4.156
94129W        W57688  24.570  31.611  12.977
94130W        W57689  21.209  36.890   1.237
94131W        W57690  25.019  36.506   0.879
94132W        W57691   4.409  29.960  11.927
94133W        W57692  12.321   2.943  11.512
94134W        W57693   9.224  39.322  13.381
94135W        W57694  21.151  41.366   3.730
94136W        W57695  19.164  29.437   1.373
94137W        W57696  11.200   7.693   0.804
94138W        W57697   4.776  35.074  10.439
94139W        W57698  32.522  20.756   4.627
94140W        W57699  14.811   3.915  14.482
94141W        W57700  21.047  41.790   1.746
94142W        W57701  28.019  25.194   3.820
94143W        W57702  30.925  17.618   2.721
94144W        W57703  20.668  30.617  11.415
94145W        W57704  35.508   9.234  13.029
94146W        W57705  34.464  40.004   2.264
94147W        W57706   4.437  21.722   1.403
94148W        W57707   7.727  29.509   4.625
94149W        W57708  15.289   4.361   0.869
94150W        W57709  40.437   7.205   3.722
94151W        W57710  43.925  38.881  14.877
94152W        W57711  43.002  38.053   2.666
94153W        W57712  41.787  37.899  13.908
94154W        W57713  21.702  36.983   1.289
94155W        W57714  29.655   8.398  12.352
94156W        W57715   6.916   8.179  11.948
94157W        W57716  42.829  35.907   1.277
94158W        W57717  40.320  30.047   4.663
94159W        W57718  12.134  33.940   3.296
94160W        W57719  17.162  39.334   3.382
94161W        W57720   4.728   0.300  11.483
94162W        W57721  44.335  28.174  14.780
94163W        W57722  42.516  32.560   4.620
94164W        W57723  25.965  22.169   1.322
94165W        W57724  25.578  43.015   1.343
94166W        W57725  33.556  18.593  14.451
94167W        W57726  42.484   6.269  12.480
94168W        W57727  38.495   1.897  11.529
94169W        W57728  42.920   3.777   3.205
94170W        W57729  36.380  37.921   3.300
94171W        W57730  44.923  11.621   3.186
94172W        W57731  20.166  43.381   1.312
94173W        W57732  41.034  38.421   3.861
94174W        W57733  41.995  34.969  14.459
94175W        W57734  32.489  13.160   2.746
94176W        W57735  40.042  27.081   4.786
94177W        W57736   7.321  40.415   2.379
94178W        W57737   4.939  25.157  13.852
94179W        W57738  44.762  21.744   2.797
94180W        W57739  39.058  31.940  14.326
94181W        W57740  38.010  41.949   2.679
94182W        W57741  29.120  21.613  11.061
94183W        W57742  40.862   1.970  12.375
94184W        W57743   4.917  29.013   1.826
94185W        W57744  15.186   9.723  13.490
94186W        W57745  37.549  24.214   3.314
94187W        W57746  44.477   4.924   2.684
94188W        W57747   1.867  41.354  14.391
94189W        W57748   6.248   8.301   0.324
94190W        W57749  22.504  39.399  12.482
94191W        W57750   0.286  11.358   1.794
94192W        W57751  11.688  32.452  11.496
94193W        W57752  38.877  30.102  10.541
94194W        W57753  43.794  22.213  13.995
94195W        W57754  41.469  29.144  10.969
94196W        W57755  34.999  35.387  12.823
94197W        W57756  42.414  39.431  13.877
94198W        W57757   9.784  22.087  13.013
94199W        W57758  33.998  27.618  12.095
94200W        W57759  44.484  16.261   3.280
94201W        W57760  19.775   1.319   3.652
94202W        W57761  24.178  13.181  12.385
94203W        W57762  37.553  26.484  12.420
94204W        W57763  10.159  22.024  13.442
94205W        W57764  38.986  44.375  10.454
94206W        W57765  14.329  42.973   0.281
94207W        W57766  14.702   8.693   5.166
94208W        W57767  28.073  25.615  10.066
94209W        W57768  14.637  17.617   4.317
94210W        W57769   2.252  36.025  10.995
94211W        W57770   9.732  22.577  11.424
94212W        W57771  29.485  21.556   4.271
94213W        W57772  11.208   5.896  11.863
94214W        W57773  18.098  10.838   4.277
94215W        W57774  12.746  30.595  14.323
94216W        W57775  33.500  27.100   4.192
94217W        W57776  33.901  25.215   0.272
94218W        W57777  23.634  13.193  14.928
94219W        W57778  31.108  13.117   3.284
94220W        W57779   5.391  35.393   4.295
94221W        W57780   8.271  23.211  11.918
94222W        W57781  15.268  29.442  11.920
94223W        W57782   9.365  11.302   0.463
94224W        W57783  10.852  32.042  11.478
94225W        W57784  38.830  24.063  13.035
94226W        W57785   0.889   1.942   3.683
94227W        W57786  20.551  27.602  10.519
94228W        W57787  30.467  26.585  10.520
94229W        W57788  40.304  22.579   0.786
94230W        W57789  41.794  44.283  14.776
94231W        W57790  18.693   7.292  12.849
94232W        W57791   1.874   0.328  11.088
94233W        W57792  41.477  21.617  14.784
94234W        W57793  17.071  37.835   0.357
94235W        W57794  31.471  11.789   0.905
94236W        W57795   7.745  36.433   3.847
94237W        W57796  12.844  16.686  14.819
94238W        W57797  41.450  28.552  10.624
94239W        W57798  34.536  40.892  14.996
94240W        W57799  30.598   3.361   1.718
94241W        W57800  35.974  29.453   1.728
94242W        W57801  15.716  37.908   1.927
94243W        W57802  21.565  20.724  10.511
94244W        W57803  34.925  42.895   2.412
94245W        W57804   3.328  41.990  11.973
94246W        W57805  34.406  35.903   3.248
94247W        W57806  20.558  30.069  13.442
94248W        W57807  16.634   1.896  12.527
94249W        W57808  37.911   1.289   3.329
94250W        W57809  19.597  15.299   4.261
94251W        W57810  39.925   8.829  12.530
94252W        W57811  21.085  41.440  14.887
94253W        W57812  15.117   4.377   1.420
94254W        W57813   2.375   9.877   1.255
94255W        W57814  27.147   7.401   4.264
94256W        W57815  44.953  39.405  14.434
94257W        W57816  11.288  32.079  12.849
94258W        W57817  25.195   4.341   4.608
94259W        W57818  30.057  11.678  14.819
94260W        W57819  12.151   7.330   3.673
94261W        W57820  20.056  25.578  10.929
94262W        W57821   4.719  32.903  13.520
94263W        W57822  14.296   2.965  13.425
94264W        W57823  10.664  44.397   4.676
94265W        W57824  39.395  30.055   1.886
94266W        W57825  39.364  18.703   3.267
94267W        W57826  11.696  36.945   3.673
94268W        W57827  40.994  43.447  11.948
94269W        W57828  33.123   7.263  13.005
94270W        W57829  27.082  23.170  14.773
94271W        W57830  39.932  22.166  13.912
94272W        W57831   3.774  27.574  11.006
94273W        W57832  34.974   1.399   1.439
94274W        W57833  15.099  10.641  14.405
94275W        W57834  27.063   0.863  13.519
94276W        W57835   5.911   2.918   3.825
94277W        W57836  20.199  31.480   2.685
94278W        W57837   9.374   6.355  12.530
94279W        W57838   5.407  44.959   4.315
94280W        W57839   0.275   4.741   2.746
94281W        W57840  16.300  15.608   1.894
94282W        W57841  18.584  28.574   3.178
94283W        W57842   3.762  21.089  13.808
94284W        W57843  23.127   3.391   2.352
94285W        W57844  27.091  40.036  12.034
94286W        W57845   1.911   9.374   0.727
94287W        W57846   0.949  14.826   4.207
94288W        W57847  18.207  35.597  12.343
94289W        W57848  11.705  33.943   2.875
94290W        W57849  27.683  25.207   3.298
94291W        W57850  36.899  44.793  12.044
94292W        W57851  12.254  20.703   3.175
94293W        W57852  33.947  34.000   1.294
94294W        W57853  10.660  24.526   2.392
94295W        W57854  18.761  27.092   2.395
94296W        W57855  28.493  27.152  12.509
94297W        W57856  16.174  15.273   1.408
94298W        W57857  31.953  33.526   1.870
94299W        W57858  12.276   9.810   9.665
94300W        W57859  26.177  18.597  13.994
94301W        W57860   9.728  33.420   4.207
94302W        W57861  37.399  35.539   0.810
94303W        W57862  41.948  14.703  10.437
94304W        W57863  41.028  24.130  12.544
94305W        W57864  42.015  10.228  13.319
94306W        W57865  35.072   0.931   0.880
94307W        W57866  19.752  18.239  14.891
94308W        W57867  37.980   2.926  11.426
94309W        W57868  12.177  37.415   0.406
94310W        W57869  20.608  42.923   3.805
94311W        W57870  36.494  30.910   2.883
94312W        W57871   3.341  16.162  10.913
94313W        W57872   9.272  13.215  12.093
94314W        W57873  29.464  20.602   1.445
94315W        W57874  26.975  17.107  14.478
94316W        W57875  36.061   8.776   3.155
94317W        W57876  31.540  39.410   0.794
94318W        W57877  21.528  43.271   2.796
94319W        W57878  14.688  37.373  14.413
94320W        W57879   2.800  21.626   2.296
94321W        W57880   5.374   5.427   3.293
94322W        W57881  41.826   1.369   4.835
94323W        W57882  28.172  12.856   3.744
94324W        W57883  17.161  29.932   3.757
94325W        W57884  13.212  11.232   1.214
94326W        W57885   3.804  23.593  12.014
94327W        W57886   1.829  12.715  12.050
94328W        W57887  40.445  32.907  10.629
94329W        W57888  23.624   7.172   1.368
94330W        W57889  36.867  29.099   3.146
94331W        W57890  36.353  23.158  14.339
94332W        W57891  16.668   6.299  10.092
94333W        W57892  43.995  32.403  13.468
94334W        W57893  20.560  35.942  12.489
94335W        W57894  44.921  34.501  14.884
94336W        W57895   2.799   2.429   3.189
94337W        W57896  30.546  22.065  14.299
94338W        W57897  36.072  18.600  14.889
94339W        W57898  15.686   8.845  14.841
94340W        W57899   5.341  27.095  12.461
94341W        W57900   8.676   6.748  10.439
94342W        W57901   6.896  14.171   1.229
94343W        W57902  10.663  10.354  10.895
94344W        W57903  27.611  36.846  14.813
94345W        W57904  19.651  23.675   1.737
94346W        W57905  23.039  21.702  11.540
94347W        W57906  40.315  18.236  11.493
94348W        W57907  13.835  18.091  14.812
94349W        W57908  44.366  27.588  13.492
94350W        W57909  44.399  34.504   2.300
94351W        W57910  29.668  38.910  11.866
94352W        W57911  41.393   4.862   0.289
94353W        W57912   1.850  14.646   1.330
94354W        W57913  40.996  32.027  13.874
94355W        W57914  29.623   8.220  10.588
94356W        W57915  14.754  40.964   0.473
94357W        W57916  20.107  10.861   1.294
94358W        W57917  12.158  41.787  13.885
94359W        W57918  15.176  30.079   0.967
94360W        W57919  30.540  24.074  11.099
94361W        W57920   4.894  14.760  14.399
94362W        W57921  42.403  38.542   1.446
94363W        W57922  36.569  25.091  10.923
94364W        W57923   9.790  12.204  10.615
94365W        W57924  29.935  44.991   3.177
94366W        W57925  38.968  11.229  10.993
94367W        W57926  40.540  23.204   0.254
94368W        W57927  41.338  34.577  10.513
94369W        W57928  16.220   2.834   4.227
94370W        W57929  41.420  13.810   0.937
94371W        W57930  42.844  35.014   1.697
94372W        W57931   8.350  35.095  12.079
94373W        W57932  31.001   2.886  13.813
94374W        W57933  28.633  43.992  11.579
94375W        W57934  25.632  29.162  14.401
94376W        W57935  38.838  27.084  13.446
94377W        W57936  17.759  10.184   1.819
94378W        W57937  40.907  27.592  14.838
94379W        W57938  20.236  19.258  13.309
94380W        W57939  38.514  40.828   2.681
94381W        W57940  19.546   8.173   4.633
94382W        W57941   3.321   9.865  11.597
94383W        W57942  16.122  43.893   0.371
94384W        W57943  40.029  38.396  14.322
94385W        W57944  29.015  18.690   3.336
94386W        W57945  31.516  39.519  14.366
94387W        W57946  18.650  22.577  10.915
94388W        W57947  40.348  11.739  14.928
94389W        W57948  40.438  31.965   0.798
94390W        W57949  18.682  27.080  13.354
94391W        W57950  33.530   7.176  10.040
94392W        W57951  18.169  19.567  14.328
94393W        W57952  30.481   7.676   3.329
94394W        W57953  39.968   4.345  13.921
94395W        W57954  32.975   6.880  11.079
94396W        W57955  15.186  14.779   3.242
94397W        W57956  42.507  10.759   1.886
94398W        W57957  11.310  38.516  13.055
94399W        W57958  12.782   9.688  12.088
94400W        W57959   5.921  25.031  14.377
94401W        W57960   1.783  40.424   1.735
94402W        W57961  27.943   9.366   0.472
94403W        W57962  39.419  27.151  12.500
94404W        W57963  16.153   7.355  11.457
94405W        W57964   4.887   5.394  14.988
94406W        W57965  41.489  24.479  12.096
94407W        W57966  39.522  36.992   0.340
94408W        W57967  35.423   5.890   0.796
94409W        W57968  28.145  13.265   4.202
94410W        W57969   9.228  12.766  11.392
94411W        W57970  16.269  37.071   2.194
94412W        W57971  16.239   6.252  14.962
94413W        W57972  25.546  34.486   3.695
94414W        W57973  14.693  19.649   1.715
94415W        W57974   1.883  41.890  10.523
94416W        W57975  15.103  33.905  10.556
94417W        W57976   9.155  35.081  12.032
94418W        W57977  33.443  27.514   3.288
94419W        W57978  19.566  29.607   1.378
94420W        W57979  32.105  23.224  11.073
94421W        W57980  21.519  18.207   3.694
94422W        W57981  24.592  24.206  10.453
94423W        W57982  30.111  11.155   4.125
94424W        W57983  30.646  27.113  13.384
94425W        W57984  24.517  23.080   5.321
94426W        W57985   2.303   7.298   5.183
94427W        W57986  16.316  38.850  10.077
94428W        W57987  23.084  29.991   4.272
94429W        W57988  19.730   8.806  10.524
94430W        W57989   5.405   1.877   3.671
94431W        W57990  31.452   1.871   0.399
94432W        W57991   1.414  18.782  13.049
94433W        W57992  32.113   6.815   1.719
94434W        W57993  11.313   2.721  12.369
94435W        W57994  42.436  12.650   0.832
94436W        W57995   9.814  20.639   0.907
94437W        W57996  23.561  25.967  14.772
94438W        W57997  13.274  13.620  14.814
94439W        W57998  34.432  11.855  14.931
94440W        W57999  16.094  25.481  14.984
94441W        W58000  19.192  22.568  11.871
94442W        W58001  19.253  39.543  13.835
94443W        W58002  17.607  38.351  10.583
94444W        W58003  19.227  10.154   2.707
94445W        W58004  34.374  13.251   0.781
94446W        W58005  39.867  44.496  11.042
94447W        W58006  43.961  22.614   3.814
94448W        W58007  29.571  36.912   3.667
94449W        W58008   7.339  31.905  12.831
94450W        W58009  15.649  12.705   3.848
94451W        W58010  16.082  37.056  11.035
94452W        W58011  42.838  35.092   4.351
94453W        W58012  15.702  35.503   3.832
94454W        W58013  34.028   7.740  11.892
94455W        W58014  11.712   1.914  14.458
94456W        W58015   8.719   2.868  14.898
94457W        W58016  38.380  35.907  11.858
94458W        W58017   0.931   4.264  11.405
94459W        W58018  24.001  20.183  14.905
94460W        W58019  14.259  35.469  14.342
94461W        W58020   8.865  30.074   4.706
94462W        W58021  13.795  41.329   1.789
94463W        W58022   0.476  31.097   0.846
94464W        W58023  19.195  28.680  14.473
94465W        W58024  27.961  14.119  13.478
94466W        W58025  43.470  23.183  12.080
94467W        W58026   4.342  24.718  13.815
94468W        W58027  42.395  12.819  10.908
94469W        W58028  40.838  35.500  13.017
94470W        W58029  41.873  35.902  12.900
94471W        W58030   2.790  17.680   4.780
94472W        W58031  12.753  11.244  12.836
94473W        W58032  24.715  43.358  14.825
94474W        W58033  11.354  42.872  11.050
94475W        W58034  34.875   8.881   2.399
94476W        W58035  18.069  15.135  13.427
94477W        W58036  36.526  12.775  10.078
94478W        W58037  37.441  19.263   2.724
94479W        W58038  23.077  26.658   1.843
94480W        W58039  13.330  30.017  13.856
94481W        W58040   5.740  21.520  12.399
94482W        W58041  20.683  34.416  14.917
94483W        W58042  41.792   0.256  13.966
94484W        W58043  41.803  15.691   2.666
94485W        W58044  14.624  35.562  13.342
94486W        W58045  44.837   1.973   3.235
94487W        W58046  29.432   3.441   4.158
94488W        W58047  37.479  42.858   3.252
94489W        W58048  39.053  40.329   3.860
94490W        W58049  42.004  35.469  11.510
94491W        W58050  34.935  42.925   2.689
94492W        W58051  24.008  10.685  13.491
94493W        W58052  31.130  43.346  14.440
94494W        W58053  25.564  23.002  14.816
94495W        W58054   4.840  12.132  13.461
94496W        W58055  43.830   8.811  13.004
94497W        W58056  27.081   8.302   4.821
94498W        W58057  21.171   8.207  14.872
94499W        W58058  11.366  16.645   1.322
94500W        W58059   8.333   6.726   1.832
94501W        W58060  11.711   5.399  12.543
94502W        W58061  19.063  23.706  11.070
94503W        W58062   5.330  40.372  14.785
94504W        W58063  11.135   9.728  13.001
94505W        W58064  20.147  23.162  12.532
94506W        W58065  15.179  30.914  13.395
94507W        W58066  10.807  42.962  13.890
94508W        W58067  27.648  44.853   0.749
94509W        W58068  24.049   0.295  12.048
94510W        W58069  26.092  15.747   2.788
94511W        W58070  11.778   7.263  10.428
94512W        W58071  13.605  40.836  11.019
94513W        W58072  13.172   1.402   3.359
94514W        W58073  24.526  14.096   1.275
94515W        W58074   7.757  21.101   5.097
94516W        W58075  17.739  14.275  11.880
94517W        W58076  14.285  17.076   0.736
94518W        W58077  20.527  35.529   3.372
94519W        W58078  30.127   7.321  11.601
94520W        W58079   5.800  44.928  14.403
94521W        W58080  23.148  11.759   1.795
94522W        W58081  31.459   7.811   3.296
94523W        W58082  31.527   8.791   2.898
94524W        W58083   9.205  44.979   1.226
94525W        W58084  11.706  15.265   4.171
94526W        W58085  22.504  22.183  11.396
94527W        W58086  30.960  39.459  11.975
94528W        W58087  30.151  25.180  12.083
94529W        W58088  35.064  34.961   4.191
94530W        W58089  29.061  12.651   2.317
94531W        W58090  35.081  20.161  12.921
94532W        W58091   3.804  13.224   2.812
94533W        W58092  13.749  16.595  14.798
94534W        W58093  23.689  26.118  12.038
94535W        W58094   5.842  12.853  13.430
94536W        W58095  28.455   2.958   0.475
94537W        W58096  25.474   5.852  12.864
94538W        W58097   5.809   1.263   1.880
94539W        W58098  31.467  41.360  14.292
94540W        W58099  15.322  21.614   3.863
94541W        W58100  38.064  22.103   9.999
94542W        W58101  24.533  15.823   2.296
94543W        W58102  24.155  40.499   4.141
94544W        W58103   2.725   2.758  10.485
94545W        W58104  38.009   6.256   4.289
94546W        W58105  34.080   9.856  13.352
94547W        W58106  28.934  40.506   2.389
94548W        W58107  29.154  43.277   4.294
94549W        W58108  16.602   9.699   1.825
94550W        W58109   8.399  21.528  14.810
94551W        W58110  33.423  39.010  12.879
94552W        W58111   7.206   6.779   1.362
94553W        W58112  10.780   9.271   4.217
94554W        W58113  40.862  40.008  14.279
94555W        W58114  18.261  40.530  13.421
94556W        W58115   6.264  34.972  12.460
94557W        W58116   0.803  33.087  13.394
94558W        W58117  40.427  42.461  10.941
94559W        W58118  26.699   0.852   1.777
94560W        W58119  19.181   8.727   5.132
94561W        W58120  34.865   8.757   2.840
94562W        W58121   0.879  11.714   3.171
94563W        W58122  30.545   8.845  12.913
94564W        W58123   8.823  17.229   0.430
94565W        W58124  10.259   3.289  12.950
94566W        W58125  30.039  23.556   3.229
94567W        W58126   9.345  43.510  13.996
94568W        W58127  22.006  36.393   1.278
94569W        W58128   9.158   5.796  14.309
94570W        W58129  33.394   9.353  14.484
94571W        W58130  22.155  18.123  13.987
94572W        W58131  25.076  19.737   4.830
94573W        W58132  27.967  10.208   3.225
94574W        W58133  42.928  25.638   3.202
94575W        W58134   4.232  14.713  13.343
94576W        W58135  20.733   4.916   4.690
94577W        W58136   6.783  41.361   1.404
94578W        W58137   4.726  42.402   3.824
94579W        W58138  24.121   4.357  10.453
94580W        W58139   9.302  21.069  11.447
94581W        W58140  21.217   3.914   2.249
94582W        W58141  23.101  32.967   2.901
94583W        W58142  21.200  18.776  11.903
94584W        W58143   3.823  44.346  11.083
94585W        W58144  13.310   3.271   2.372
94586W        W58145  21.069  20.113  10.479
94587W        W58146  29.930  32.401  12.433
94588W        W58147  23.198  44.939  14.279
94589W        W58148  23.178  15.578   0.857
94590W        W58149  34.928  23.015  10.434
94591W        W58150  28.457  34.579   1.433
94592W        W58151   6.895  19.235   0.429
94593W        W58152   1.374   3.334   3.672
94594W        W58153   9.371  26.665   2.788
94595W        W58154  10.166  21.524   3.637
94596W        W58155  39.967  30.974  12.883
94597W        W58156  26.201  27.020  13.043
94598W        W58157  22.071  15.711  12.483
94599W        W58158  21.725  42.425  11.466
94600W        W58159  39.390  20.697  11.408
94601W        W58160  21.523  11.338   4.308
94602W        W58161  23.100  43.981  12.457
94603W        W58162  21.669   5.802  14.778
94604W        W58163  11.158  11.199   0.764
94605W        W58164  36.049  19.551   2.412
94606W        W58165  43.833  25.111   2.669
94607W        W58166  42.784  11.789   4.217
94608W        W58167  26.468  15.287  13.840
94609W        W58168  21.122  13.762  10.930
94610W        W58169  15.125  11.127  13.415
94611W        W58170  13.737  14.187   3.734
94612W        W58171  21.660  16.142  10.995
94613W        W58172  34.978  21.525   3.286
94614W        W58173  10.340  32.587  13.862
94615W        W58174  36.017  25.085  14.933
94616W        W58175  11.160  13.148  10.992
94617W        W58176  32.592  34.388  13.911
94618W        W58177  16.153  40.347   3.844
94619W        W58178  29.972   3.850   3.637
94620W        W58179  13.615  14.207  13.849
94621W        W58180  34.535  14.645   3.256
94622W        W58181  41.994  15.741   5.271
94623W        W58182  33.572  36.523  13.451
94624W        W58183  19.674   3.440   2.841
94625W        W58184   8.695  23.178   3.338
94626W        W58185   6.887   6.685   0.375
94627W        W58186   2.743  37.432   3.252
94628W        W58187  15.180  10.320   0.394
94629W        W58188  15.227  36.409   1.912
94630W        W58189  34.535  29.036  12.981
94631W        W58190   8.375  31.982  12.387
94632W        W58191   3.284  21.527  11.029
94633W        W58192  42.398  29.078   4.237
94634W        W58193  40.405  43.331  10.928
94635W        W58194  30.444   4.358   2.328
94636W        W58195   0.415  31.145  12.427
94637W        W58196  10.802  41.359   4.196
94638W        W58197  31.438  38.507  12.495
94639W        W58198  28.006  18.238   0.415
94640W        W58199  10.292  12.349  10.010
94641W        W58200  43.826  20.258  12.422
94642W        W58201  31.988  12.850   4.668
94643W        W58202  14.801  39.429  11.579
94644W        W58203  28.567   8.878  13.037
94645W        W58204  38.900  19.178  11.458
94646W        W58205   3.456  12.853  13.942
94647W        W58206  28.476  33.884  14.832
94648W        W58207  27.194  34.425  10.486
94649W        W58208  14.760  15.611  13.335
94650W        W58209   5.878  38.385   4.248
94651W        W58210  36.494  19.610   5.171
94652W        W58211  29.481  42.331   2.264
94653W        W58212   2.288  16.675  12.419
94654W        W58213  19.119  36.988  10.611
94655W        W58214  18.772  36.394  12.347
94656W        W58215  26.990   9.254   4.779
94657W        W58216  35.907   1.243   4.684
94658W        W58217   0.769  41.950  14.852
94659W        W58218  43.391   0.782  13.324
94660W        W58219  28.607  19.191  12.535
94661W        W58220  25.583   4.917   0.926
94662W        W58221  33.101  35.937  14.843
94663W        W58222  36.868  43.972   4.743
94664W        W58223  41.520  20.105   2.379
94665W        W58224  17.602  14.747  12.430
94666W        W58225  10.371  44.492  10.456
94667W        W58226  43.891  13.187   3.763
94668W        W58227   5.390  29.137   0.407
94669W        W58228  30.976  14.731   1.862
94670W        W58229  15.601  38.549   5.199
94671W        W58230  38.480  12.161  14.398
94672W        W58231  40.411  14.208   0.304
94673W        W58232  21.045  17.681  14.015
94674W        W58233  26.496  13.132   0.384
94675W        W58234  14.797  16.585  14.001
94676W        W58235  44.288  10.672  14.974
94677W        W58236  10.371   5.244   4.613
94678W        W58237  24.496   4.283  11.886
94679W        W58238   2.764  43.838  13.825
94680W        W58239   3.436  44.406  14.470
94681W        W58240  10.238  39.359   2.846
94682W        W58241  43.934  31.931   2.405
94683W        W58242   7.185  12.157   9.943
94684W        W58243   1.296  36.438   4.751
94685W        W58244  36.044   9.706  11.954
94686W        W58245  34.028  29.575   1.842
94687W        W58246   6.686   3.364  11.559
94688W        W58247   7.214  39.505   3.853
94689W        W58248  22.697  15.734  11.927
94690W        W58249  41.963   7.783  12.400
94691W        W58250  33.053  26.195  11.475
94692W        W58251  21.105  20.656  11.463
94693W        W58252   1.874  24.230  11.512
94694W        W58253  21.251  37.544   5.091
94695W        W58254  13.658   4.730  13.800
94696W        W58255  33.108  36.079   1.730
94697W        W58256  19.172  40.422  14.925
94698W        W58257  29.468  29.554  13.059
94699W        W58258  17.252  35.871  10.075
94700W        W58259  23.572  23.722  11.560
94701W        W58260  37.536  43.490  12.420
94702W        W58261  17.119   8.172   0.418
94703W        W58262  37.364   9.801   0.851
94704W        W58263   9.874  36.928   1.256
94705W        W58264  19.196  23.730   3.802
94706W        W58265  37.411  22.689  11.381
94707W        W58266  32.464  31.942  13.338
94708W        W58267  19.114   3.756  10.986
94709W        W58268  38.908   4.911  14.388
94710W        W58269  37.067   2.900  11.036
94711W        W58270   4.927  30.629  13.423
94712W        W58271  34.545  13.602   1.741
94713W        W58272  36.351  15.258  12.565
94714W        W58273  42.463  26.123   1.698
94715W        W58274  10.260  14.811   1.813
94716W        W58275  34.487  16.171   1.816
94717W        W58276   2.871   2.225   1.398
94718W        W58277   7.304  14.787  10.119
94719W        W58278   7.702  44.872   2.784
94720W        W58279  16.728  12.756   3.649
94721W        W58280  31.633  22.109   3.181
94722W        W58281   1.415  16.138  11.962
94723W        W58282  18.095   4.702  10.934
94724W        W58283   1.337  32.957   0.824
94725W        W58284   7.181  42.296   0.853
94726W        W58285   7.289  40.813   3.681
94727W        W58286  40.399  31.082  12.881
94728W        W58287  39.047  17.073  12.883
94729W        W58288  44.458  34.493  10.611
94730W        W58289  21.713  18.274  11.574
94731W        W58290  30.953  42.885  12.461
94732W        W58291  23.987  43.418   2.682
94733W        W58292  36.882  35.070  12.973
94734W        W58293  41.869  17.802  13.532
94735W        W58294  23.653  20.090   1.701
94736W        W58295  44.767  12.642   1.843
94737W        W58296  36.458  32.967  13.975
94738W        W58297  22.660  21.540  11.598
94739W        W58298  41.458  18.711  14.853
94740W        W58299   0.967  15.226  11.593
94741W        W58300  43.823  24.100  13.472
94742W        W58301  24.102  26.154  13.330
94743W        W58302   9.164  36.396   3.702
94744W        W58303   4.809  12.698  10.943
94745W        W58304  10.651  22.101   2.394
94746W        W58305  18.063  39.036   4.664
94747W        W58306  30.480  30.605   4.228
94748W        W58307  28.642   0.266   3.772
94749W        W58308  15.210   9.687   2.874
94750W        W58309  22.037  30.940   4.700
94751W        W58310  19.591  43.321   1.742
94752W        W58311  28.114   6.385  14.497
94753W        W58312  43.368  38.835  11.012
94754W        W58313   9.381  10.150  11.564
94755W        W58314  24.679  19.168  11.941
94756W        W58315  10.206   9.359  11.548
94757W        W58316  25.198  20.768   5.149
94758W        W58317   5.281  23.547  12.499
94759W        W58318   2.416  24.190   0.474
94760W        W58319   7.810  35.986  14.810
94761W        W58320  23.654  20.101   4.317
94762W        W58321  32.410  34.508   2.887
94763W        W58322  23.027  39.360   2.254
94764W        W58323  16.649  10.154  13.547
94765W        W58324   0.441  34.089  14.865
94766W        W58325  36.001  16.140  11.072
94767W        W58326  43.000  15.197  12.925
94768W        W58327  13.135  28.142  14.291
94769W        W58328  19.572  31.406   1.703
94770W        W58329  22.209  29.048   2.681
94771W        W58330  29.626   3.323   2.268
94772W        W58331  30.453  11.281  13.328
94773W        W58332  41.837  29.603  11.430
94774W        W58333  14.693  27.593  14.504
94775W        W58334  15.592   9.780   3.829
94776W        W58335  30.443   2.923   1.864
94777W        W58336  44.359  30.941   4.208
94778W        W58337   3.251  28.151   0.270
94779W        W58338  16.661  28.998  13.313
94780W        W58339  17.750  23.701   3.797
94781W        W58340   6.840  37.427   2.820
94782W        W58341  43.364  35.559  11.413
94783W        W58342  16.790   0.790   4.756
94784W        W58343  32.554   5.933  12.479
94785W        W58344  15.156  18.749  12.839
94786W        W58345  17.109  12.194  10.062
94787W        W58346  38.929  24.193  13.822
94788W        W58347  17.215  32.624   2.825
94789W        W58348   8.281  29.936   3.272
94790W        W58349  23.135  16.734   2.278
94791W        W58350  11.763  20.217   0.400
94792W        W58351  33.045  12.241   0.928
94793W        W58352   9.229  40.909   0.285
94794W        W58353  39.016   3.239   9.946
94795W        W58354  17.179  25.031   0.368
94796W        W58355  43.289  12.829  13.545
94797W        W58356  32.917  22.244   4.351
94798W        W58357  33.448  26.157  12.552
94799W        W58358  44.896   5.783   3.757
94800W        W58359  35.924  38.434  12.972
94801W        W58360   7.816   7.344   1.322
94802W        W58361  31.045  34.380   4.622
94803W        W58362  34.395  12.715   4.200
94804W        W58363  19.541  27.146  14.764
94805W        W58364  23.063  14.773  12.432
94806W        W58365  11.638  32.058   1.280
94807W        W58366  38.336  42.385   1.758
94808W        W58367  12.361   9.720  14.969
94809W        W58368   7.340   1.737  14.802
94810W        W58369  36.431   2.249   4.284
94811W        W58370  33.024  25.057   2.275
94812W        W58371  21.239  21.207   1.253
94813W        W58372  10.853  26.178  11.588
94814W        W58373  23.122  18.719   2.796
94815W        W58374  28.131   6.699   2.227
94816W        W58375  42.422  21.592  13.350
94817W        W58376  42.511  18.250  10.902
94818W        W58377   8.680   3.412   1.287
94819W        W58378  44.774  29.655   4.795
94820W        W58379  19.170   0.304   3.712
94821W        W58380  33.527   7.778  10.457
94822W        W58381  34.945  19.166  13.055
94823W        W58382   2.239  11.135  12.570
94824W        W58383   4.846  43.445   0.735
94825W        W58384  17.577   4.447   2.188
94826W        W58385  43.452  21.041   3.383
94827W        W58386  40.541  36.021   1.287
94828W        W58387  17.248  34.424  12.911
94829W        W58388  23.510  34.064  14.424
94830W        W58389  29.441  27.160  11.965
94831W        W58390  32.043  17.765  10.504
94832W        W58391  43.370  39.022  11.884
94833W        W58392  42.830  35.591   3.379
94834W        W58393   1.968  35.476  10.457
94835W        W58394  41.880  12.267   4.325
94836W        W58395  14.296  15.279  10.562
94837W        W58396  15.244  18.131   1.358
94838W        W58397  28.018   3.856   1.448
94839W        W58398  13.184  21.757  10.480
94840W        W58399  43.434   4.446  11.529
94841W        W58400  33.579  41.837   5.322
94842W        W58401  29.948   5.373  11.461
94843W        W58402   4.399  15.105   3.283
94844W        W58403  36.493   5.233   2.228
94845W        W58404  17.201  12.189   4.258
94846W        W58405   2.413  41.840   3.729
94847W        W58406  14.096   3.851  10.480
94848W        W58407  24.551  21.652  12.926
94849W        W58408  16.122  13.619  11.564
94850W        W58409  20.065  13.607  11.036
94851W        W58410   2.248  13.149  13.505
94852W        W58411  30.053  32.018   1.259
94853W        W58412  13.766   4.897  13.491
94854W        W58413  30.941  10.167  13.464
94855W        W58414  43.927  14.294   0.822
94856W        W58415  40.924  27.993   4.276
94857W        W58416  28.490  24.644  14.327
94858W        W58417  11.371  29.122   4.682
94859W        W58418  25.609  12.127  11.459
94860W        W58419  14.729  38.027   2.899
94861W        W58420  39.958  28.500   1.436
94862W        W58421   9.211  28.990  11.939
94863W        W58422   3.289  22.192  11.518
94864W        W58423  20.114  19.688  14.942
94865W        W58424  21.723  15.207   2.222
94866W        W58425  12.828  42.856   9.952
94867W        W58426  10.370  44.373   1.874
94868W        W58427  16.710  20.092   4.239
94869W        W58428   9.801  31.456   2.793
94870W        W58429  42.885  10.698  14.914
94871W        W58430  29.927  22.190  14.498
94872W        W58431  30.443  18.256   0.290
94873W        W58432  22.057  41.509   3.210
94874W        W58433   7.808  19.563  11.016
94875W        W58434  34.584  20.687  14.841
94876W        W58435  11.214  12.198  13.037
94877W        W58436  26.956  18.564  13.484
94878W        W58437  21.578  12.741   4.330
94879W        W58438  16.129  24.626  10.437
94880W        W58439  36.365  17.568  11.573
94881W        W58440  44.961  23.700  11.502
94882W        W58441  15.676  43.392  13.795
94883W        W58442  32.059   9.245  10.907
94884W        W58443  33.927  19.586   4.213
94885W        W58444  32.084   7.317   3.668
94886W        W58445  43.451  44.480  14.346
94887W        W58446  42.288  19.153  12.989
94888W        W58447  32.538  32.569  10.414
94889W        W58448  38.065  24.701  11.482
94890W        W58449   3.239  14.275  12.048
94891W        W58450  18.761   3.260   4.719
94892W        W58451  41.931  27.465   0.250
94893W        W58452  25.166  20.156   2.686
94894W        W58453  42.330  11.758   1.433
94895W        W58454  37.493   3.364   3.162
94896W        W58455  24.095  32.466   1.879
94897W        W58456  34.393  18.214   3.344
94898W        W58457  27.602  29.970  11.581
94899W        W58458  44.496  42.501   3.840
94900W        W58459  41.021  15.308  14.953
94901W        W58460   1.296  26.595   4.723
94902W        W58461  26.561  31.524  12.546
94903W        W58462  16.757  29.128  11.012
94904W        W58463  23.047  13.808  12.513
94905W        W58464  10.739   1.259   2.675
94906W        W58465   0.254   1.856   4.173
94907W        W58466  37.502  19.555   2.740
94908W        W58467   8.878  40.858   2.710
94909W        W58468  19.115   4.723  13.515
94910W        W58469  33.441  14.667  11.869
94911W        W58470  16.218  14.094   2.294
94912W        W58471  28.513  39.346  13.527
94913W        W58472  36.517  22.686  14.282
94914W        W58473   3.886  10.727  11.058
94915W        W58474   7.384  17.707   4.289
94916W        W58475  21.652   4.802   2.211
94917W        W58476  14.712  33.464   4.313
94918W        W58477  12.302  24.599  13.515
94919W        W58478  37.425  17.589   4.643
94920W        W58479  20.615   9.288  13.978
94921W        W58480  29.143  14.320   0.369
94922W        W58481   0.878  18.143   4.284
94923W        W58482   3.367   8.205  14.479
94924W        W58483   5.232  17.229   0.866
94925W        W58484  18.547  19.777  13.923
94926W        W58485  14.099  44.758   2.673
94927W        W58486  19.690  32.441  14.000
94928W        W58487   0.478   1.353  11.466
94929W        W58488  22.537  36.918   3.692
94930W        W58489  27.592  25.494  12.403
94931W        W58490   1.398  43.788   1.287
94932W        W58491   1.474  10.382   3.252
94933W        W58492  17.307  24.975   3.176
94934W        W58493  10.865  17.714   3.229
94935W        W58494  12.120  13.235  12.459
94936W        W58495  23.648  41.932  10.423
94937W        W58496  37.024  11.145  12.084
94938W        W58497   9.707  23.719   1.248
94939W        W58498  38.924   4.410   3.184
94940W        W58499  43.869  41.788  10.902
94941W        W58500   2.824  10.750   0.952
94942W        W58501  38.931  14.296   3.679
94943W        W58502   4.350  33.454   2.415
94944W        W58503  20.605  10.182  14.923
94945W        W58504   1.367  30.435  10.493
94946W        W58505  20.234  15.324   1.317
94947W        W58506  37.918  12.332  13.326
94948W        W58507   1.829  25.481   3.814
94949W        W58508  31.447  44.002  14.859
94950W        W58509  33.097  41.918   5.726
94951W        W58510  27.001   0.424  10.530
94952W        W58511   3.337  28.449   2.888
94953W        W58512  42.825   2.807  14.458
94954W        W58513  33.090  41.890  12.996
94955W        W58514  27.155   1.311  11.028
94956W        W58515  10.737  19.565   1.738
94957W        W58516  40.471  26.005  14.762
94958W        W58517  13.631  36.375   2.346
94959W        W58518  14.328  24.159  11.876
94960W        W58519  13.142   3.355   2.798
94961W        W58520  19.707   7.339   1.860
94962W        W58521  20.583   6.250  14.277
94963W        W58522  25.135  16.247   1.370
94964W        W58523  28.060  16.677   2.855
94965W        W58524  13.735  12.756   4.644
94966W        W58525  25.665  37.840  11.005
94967W        W58526  25.472   6.887   0.472
94968W        W58527  40.368  26.091   3.713
94969W        W58528  19.225  39.972   0.913
94970W        W58529  15.663  17.079  11.937
94971W        W58530   8.795   7.293   0.746
94972W        W58531   5.303   3.746   2.752
94973W        W58532  31.567   9.793   1.764
94974W        W58533  20.041  41.396  12.846
94975W        W58534  10.704  11.834  14.913
94976W        W58535  34.866  43.964  14.000
94977W        W58536   4.413  31.125   4.209
94978W        W58537  32.048  19.207   2.746
94979W        W58538  40.402  12.126  13.935
94980W        W58539  26.192  10.717  14.022
94981W        W58540  33.511  22.184  12.955
94982W        W58541   8.794  41.814  11.987
94983W        W58542  30.524  12.740   2.903
94984W        W58543  23.491  22.160  11.596
94985W        W58544   2.272  28.509  10.573
94986W        W58545  22.016   7.769  11.443
94987W        W58546  30.006  14.166  10.440
94988W        W58547   2.785  11.843   2.768
94989W        W58548  35.436   6.352   0.879
94990W        W58549  33.399  16.319   2.820
94991W        W58550  14.801   3.457   4.239
94992W        W58551  26.108  36.351   2.255
94993W        W58552  44.854  39.533   1.311
94994W        W58553   0.838  41.817   4.205
94995W        W58554  25.044  15.628  13.872
94996W        W58555  24.163  17.125   2.397
94997W        W58556  14.792  34.092   4.661
94998W        W58557  19.554  17.687  12.429
94999W        W58558  28.484  43.980   0.243
95000W        W58559  44.281   1.918  11.975
95001W        W58560   8.219   9.384  11.933
95002W        W58561  12.817   2.372   0.772
95003W        W58562  38.508  12.262   4.338
95004W        W58563  21.622  12.347  14.356
95005W        W58564   5.818  18.200  10.416
95006W        W58565  21.037  20.717  13.535
95007W        W58566  42.315  26.129   3.384
95008W        W58567  18.572  42.983  11.404
95009W        W58568   3.867  14.705  12.568
95010W        W58569  14.730  42.846  11.939
95011W        W58570   3.856  22.635  13.820
95012W        W58571  11.805  44.987   2.868
95013W        W58572  40.343   6.763  12.369
95014W        W58573  37.460  37.022   2.330
95015W        W58574  36.972  38.002  14.813
95016W        W58575  32.135  35.858  11.402
95017W        W58576  10.841  35.873   3.280
95018W        W58577  32.945   6.775   2.279
95019W        W58578  12.632  32.928  12.970
95020W        W58579  38.571  38.027  10.546
95021W        W58580  41.528  27.059  13.948
95022W        W58581  11.826  15.088  14.304
95023W        W58582  31.613  27.539   0.847
95024W        W58583  29.602  38.844  10.599
95025W        W58584  31.451  23.124   4.186
95026W        W58585  23.561  36.855  13.528
95027W        W58586  44.437  44.958  10.493
95028W        W58587  44.290  22.712  11.439
95029W        W58588   2.458  13.270  12.898
95030W        W58589  30.558   2.389  11.581
95031W        W58590  12.799  43.812  11.964
95032W        W58591  23.994   7.833   3.165
95033W        W58592  17.666  34.925  12.021
95034W        W58593  14.298  24.603  14.489
95035W        W58594  10.776  24.588   4.813
95036W        W58595  33.998   0.749  14.412
95037W        W58596  18.714  28.155   9.964
95038W        W58597  31.574  38.996   4.694
95039W        W58598   7.723   1.474  11.883
95040W        W58599  37.928  41.357  10.544
95041W        W58600  25.006  31.095   0.877
95042W        W58601   9.844  44.305  13.932
95043W        W58602  39.011   1.419   0.758
95044W        W58603  31.644  41.007   5.308
95045W        W58604  44.840  39.462  12.416
95046W        W58605   3.362  43.338  10.592
95047W        W58606   1.782  42.524  14.872
95048W        W58607  35.562  38.864   3.706
95049W        W58608  13.749  17.107   4.249
95050W        W58609  20.546  37.472  14.886
95051W        W58610  10.669  37.937  12.047
95052W        W58611  13.328  16.184   2.218
95053W        W58612  30.641   4.915   2.270
95054W        W58613  22.220  33.967   4.759
95055W        W58614  14.188  19.243  10.496
95056W        W58615  12.357  40.509   4.205
95057W        W58616   1.967   2.319   2.396
95058W        W58617  22.016  40.940  10.467
95059W        W58618  14.720   8.898   0.768
95060W        W58619  20.100  33.394   2.325
95061W        W58620  32.443  20.099  14.514
95062W        W58621  43.361   4.334  13.845
95063W        W58622  17.710  43.288   0.866
95064W        W58623  31.111  23.205   4.639
95065W        W58624   0.303  14.109  13.936
95066W        W58625  14.806   7.806   1.351
95067W        W58626  32.896   2.384   0.866
95068W        W58627  18.141  35.064   1.767
95069W        W58628  30.059   4.406   3.780
95070W        W58629  43.775  36.405   2.810
95071W        W58630  33.443  17.687   2.416
95072W        W58631  34.007  24.089  14.829
95073W        W58632  34.969  38.344   3.188
95074W        W58633  39.549  39.432   4.351
95075W        W58634   5.413  36.057   3.709
95076W        W58635  15.321  37.887  12.417
95077W        W58636  13.699  12.339   4.645
95078W        W58637  18.702   1.288   0.457
95079W        W58638  16.658  18.242   2.272
95080W        W58639  41.300  37.395  13.976
95081W        W58640  11.234  36.957   1.797
95082W        W58641   4.397  13.816   4.765
95083W        W58642  16.728  35.010   2.268
95084W        W58643   4.761  22.033  13.985
95085W        W58644   7.732  29.551  13.024
95086W        W58645  13.153  33.123  14.026
95087W        W58646   9.794  13.264  13.003
95088W        W58647  40.888   6.914  11.591
95089W        W58648  18.687  42.874  13.799
95090W        W58649  11.362  18.150  12.961
95091W        W58650   8.295  20.108  11.098
95092W        W58651  12.616   4.813   0.473
95093W        W58652  22.646  43.275  10.609
95094W        W58653  20.166   0.757   3.770
95095W        W58654  19.743  42.832  11.941
95096W        W58655  40.509  30.638   5.275
95097W        W58656  40.901  10.155   1.343
95098W        W58657  44.963   1.367  12.073
95099W        W58658  41.988  43.276  13.414
95100W        W58659  38.340   4.248  14.394
95101W        W58660   1.796  38.530   2.364
95102W        W58661   6.850   0.366  12.368
95103W        W58662  36.849   0.758   1.909
95104W        W58663  20.267   3.839  11.016
95105W        W58664   5.297  38.827   3.369
95106W        W58665  40.335   3.949   1.801
95107W        W58666  14.724  41.999   2.732
95108W        W58667   4.860  23.556   1.444
95109W        W58668   6.696  18.080   3.751
95110W        W58669  32.960  19.744  10.564
95111W        W58670  27.604  11.255   5.090
95112W        W58671  23.672  39.387  10.603
95113W        W58672  34.413   8.345   3.368
95114W        W58673  28.040  32.102   1.756
95115W        W58674  18.230  13.222   0.880
95116W        W58675  14.802  41.009  13.015
95117W        W58676  19.119  16.141   3.787
95118W        W58677  23.216  15.819   5.228
95119W        W58678   5.281  15.768  12.923
95120W        W58679   6.798   1.449   2.359
95121W        W58680   7.186  17.130   2.773
95122W        W58681   0.762  33.001  10.584
95123W        W58682  22.707  37.923   4.838
95124W        W58683  43.422  23.670   4.666
95125W        W58684   5.833  25.056  14.801
95126W        W58685  43.853  16.114   4.116
95127W        W58686  12.274  24.660  11.898
95128W        W58687  18.778  43.816   2.327
95129W        W58688  18.061  18.787   1.431
95130W        W58689   7.390  26.176  13.969
95131W        W58690   3.309  36.981  12.939
95132W        W58691  11.260  14.137   1.923
95133W        W58692  28.049  44.500  14.508
95134W        W58693  32.961  24.040  11.093
95135W        W58694   3.912  18.069  12.922
95136W        W58695  29.462  15.775   0.441
95137W        W58696  12.672   7.803  14.318
95138W        W58697  29.442  30.597  12.960
95139W        W58698  29.667  28.086  10.046
95140W        W58699  11.628  24.623  13.342
95141W        W58700  24.595  43.365   3.759
95142W        W58701   4.904  14.646  10.904
95143W        W58702   5.869  40.442   4.660
95144W        W58703  18.778   3.901   0.764
95145W        W58704  21.722   1.240  13.373
95146W        W58705  30.651  24.077   5.309
95147W        W58706  27.028  24.230   3.735
95148W        W58707  23.090  30.984  11.554
95149W        W58708  32.432  19.568   1.411
95150W        W58709  43.356  27.977   2.246
95151W        W58710  20.610  21.609  12.452
95152W        W58711   2.440  40.038   2.201
95153W        W58712  41.354  27.518   0.431
95154W        W58713  25.209  34.484   4.817
95155W        W58714   5.712  40.521  12.952
95156W        W58715  12.751  31.947  14.763
95157W        W58716  20.686  31.599   4.707
95158W        W58717  41.992  30.630   3.335
95159W        W58718  37.945   1.842  11.892
95160W        W58719  24.992   3.793   3.845
95161W        W58720  32.615   4.263   2.348
95162W        W58721   7.306  10.783   3.672
95163W        W58722  24.585  31.413  12.526
95164W        W58723  25.128   9.337   1.268
95165W        W58724   1.940  18.731  13.488
95166W        W58725  43.774   3.256   1.215
95167W        W58726  35.085  11.640   5.142
95168W        W58727  23.732  41.341   2.828
95169W        W58728  13.777  17.165   0.730
95170W        W58729  19.185  11.169  11.576
95171W        W58730  34.021   6.711   1.835
95172W        W58731  28.969  25.061  11.549
95173W        W58732  12.184   3.772   0.413
95174W        W58733   1.311  35.090   3.742
95175W        W58734  34.399  37.450  11.507
95176W        W58735  34.071  28.095   0.317
95177W        W58736  10.660  24.058  14.330
95178W        W58737  42.811  40.519  13.906
95179W        W58738  43.813  26.678   2.666
95180W        W58739  10.270  22.649   4.293
95181W        W58740  43.852  35.043  13.911
95182W        W58741  34.491  31.958  10.077
95183W        W58742  27.689   2.966   3.863
95184W        W58743  16.800  22.163  10.573
95185W        W58744  26.639   8.250   2.832
95186W        W58745  14.140  10.253   0.945
95187W        W58746   7.227   9.821   1.244
95188W        W58747  24.156  16.199  14.335
95189W        W58748  27.110  26.085  14.938
95190W        W58749   6.742  30.567  14.971
95191W        W58750   8.693  31.572   2.677
95192W        W58751   4.938  13.667   3.697
95193W        W58752  38.836  43.768   1.878
95194W        W58753  32.018  38.555   9.934
95195W        W58754  18.097  44.338   3.810
95196W        W58755   3.251  19.620  10.592
95197W        W58756  15.754  28.097  11.403
95198W        W58757  11.692   5.810  10.500
95199W        W58758  15.680   9.179  11.373
95200W        W58759  18.081  26.534  12.571
95201W        W58760  19.677  15.135  13.063
95202W        W58761  41.320  40.814   4.722
95203W        W58762  13.812  12.737  12.365
95204W        W58763  37.507  21.529   3.247
95205W        W58764  38.003   8.341  12.384
95206W        W58765   0.407   0.945   2.416
95207W        W58766  15.734  35.952  10.458
95208W        W58767   0.909  30.910  13.330
95209W        W58768  30.566  25.560   1.739
95210W        W58769  18.632   1.263  11.541
95211W        W58770  25.071  12.128   0.349
95212W        W58771   8.697  33.078   0.847
95213W        W58772  33.505  24.211  13.942
95214W        W58773   1.323   0.815   0.912
95215W        W58774  24.555  33.928  14.440
95216W        W58775  16.810  27.085   4.789
95217W        W58776  27.049  39.830  10.509
95218W        W58777  42.031   0.913   1.384
95219W        W58778  21.545  12.362   1.398
95220W        W58779   9.683  41.876  14.865
95221W        W58780  14.332  40.334   5.280
95222W        W58781  40.827   8.844   0.282
95223W        W58782   5.276  16.627  10.439
95224W        W58783  23.570  36.583   1.763
95225W        W58784   6.394   9.243   3.358
95226W        W58785  20.093  43.896   2.395
95227W        W58786  10.313  20.728   4.278
95228W        W58787  39.000   8.750  12.503
95229W        W58788   5.750  38.073   4.704
95230W        W58789  27.086  13.267   5.281
95231W        W58790   5.195  39.459  11.913
95232W        W58791  18.702  29.951   3.636
95233W        W58792  17.148   7.354   2.184
95234W        W58793  20.576  31.588   0.759
95235W        W58794  38.011  33.064  12.846
95236W        W58795   3.875  23.216  12.449
95237W        W58796  34.524   4.725  14.451
95238W        W58797  12.352  38.868   3.855
95239W        W58798  40.912  41.022   4.253
95240W        W58799  27.184  30.501   4.718
95241W        W58800  34.054  22.028  11.513
95242W        W58801  37.416  34.440   2.389
95243W        W58802  10.691  32.563   3.639
95244W        W58803  25.198  38.879  10.591
95245W        W58804  44.957   2.959   0.955
95246W        W58805   9.855  34.501  14.025
95247W        W58806  33.120  20.592  13.023
95248W        W58807  14.612   4.301  12.983
95249W        W58808   6.921   0.916   3.282
95250W        W58809   7.271   4.419  10.538
95251W        W58810  35.507  11.230  10.627
95252W        W58811  34.448  43.994   2.247
95253W        W58812  23.071  11.629  12.859
95254W        W58813  16.262   7.223   4.157
95255W        W58814  26.101  42.932   3.734
95256W        W58815  42.015  25.196   2.348
95257W        W58816  19.600  39.338  11.001
95258W        W58817  13.105   9.307  14.823
95259W        W58818  10.669  39.974   4.212
95260W        W58819  14.286  25.476  11.898
95261W        W58820  30.507   7.676   4.240
95262W        W58821   4.265  34.564   0.442
95263W        W58822  37.962   7.307   3.237
95264W        W58823  36.561   0.348   3.207
95265W        W58824  34.917  31.424   1.878
95266W        W58825  15.220  29.988   2.872
95267W        W58826  27.087  26.648  12.483
95268W        W58827  16.090  24.661  12.992
95269W        W58828  30.998  41.313  13.901
95270W        W58829  22.078   1.378   2.392
95271W        W58830   5.834  20.048   1.728
95272W        W58831  34.480   3.440  10.452
95273W        W58832  15.300   4.750  10.521
95274W        W58833  44.302   7.214  13.523
95275W        W58834  41.973  24.983   4.281
95276W        W58835  19.078  17.703   3.646
95277W        W58836  28.537  25.599  10.596
95278W        W58837  26.670  17.147  12.344
95279W        W58838   1.942   2.333  12.399
95280W        W58839  40.850   0.279   1.451
95281W        W58840  22.194  33.074   5.309
95282W        W58841  42.294  18.604   1.889
95283W        W58842  33.582  35.904   3.345
95284W        W58843  27.171  16.202   3.706
95285W        W58844  44.270  10.218   3.205
95286W        W58845   9.174  21.709  13.332
95287W        W58846   8.169  23.630   4.322
95288W        W58847  40.823  38.408  14.768
95289W        W58848   4.343  40.801  13.982
95290W        W58849   9.863   2.309   2.398
95291W        W58850  22.028  36.942  12.457
95292W        W58851   2.366  27.142   0.456
95293W        W58852  36.014  43.448   0.312
95294W        W58853   0.256  33.041  14.989
95295W        W58854  35.065   3.896   0.342
95296W        W58855  42.892  16.228   1.921
95297W        W58856  33.920  25.065  14.997
95298W        W58857  40.449  24.708   2.793
95299W        W58858   1.844   4.721   2.879
95300W        W58859  18.193  11.834  10.537
95301W        W58860  18.547  36.886  12.346
95302W        W58861  22.137  22.131   4.619
95303W        W58862  19.217  43.981   4.788
95304W        W58863   9.330  11.808   4.712
95305W        W58864  26.112  43.280  13.979
95306W        W58865  19.547  25.634   0.327
95307W        W58866   5.360  15.628   3.676
95308W        W58867  27.057  30.967  13.942
95309W        W58868  27.451  30.059  10.520
95310W        W58869  44.412  20.682   1.323
95311W        W58870   5.692  42.806  11.124
95312W        W58871  17.754  21.036   0.250
95313W        W58872  37.856   2.887  11.956
95314W        W58873  39.442  18.695  12.082
95315W        W58874  29.042  30.590  12.087
95316W        W58875  16.603   2.371   4.250
95317W        W58876  39.031  41.808  12.944
95318W        W58877  32.403  10.210  14.922
95319W        W58878  42.312  36.552   1.780
95320W        W58879  44.435  11.634  11.037
95321W        W58880  14.691  12.255   1.899
95322W        W58881   6.400  37.908   4.162
95323W        W58882  11.330  19.772   1.451
95324W        W58883  24.114   3.866  13.480
95325W        W58884   3.243  31.505  11.377
95326W        W58885   7.190  34.460  12.455
95327W        W58886  30.503  10.307   3.210
95328W        W58887  11.792   8.267   2.847
95329W        W58888  33.024  20.716   4.753
95330W        W58889   0.396  38.535   4.193
95331W        W58890   6.320  41.325   2.366
95332W        W58891  32.990  18.645   3.170
95333W        W58892  17.161  10.189  14.784
95334W        W58893  21.651  28.182  11.479
95335W        W58894   4.246  15.652  11.550
95336W        W58895   3.895  24.064  13.063
95337W        W58896  37.524  25.165   2.342
95338W        W58897  37.076  12.727   2.372
95339W        W58898  38.470   6.412  11.590
95340W        W58899  12.205   9.327  14.973
95341W        W58900   4.428  34.467  11.103
95342W        W58901  10.843   5.390  10.941
95343W        W58902  36.995   3.332   2.256
95344W        W58903  41.811  37.912   0.821
95345W        W58904  39.434  18.131  12.938
95346W        W58905   0.742  22.523   2.719
95347W        W58906  35.065  30.608  14.845
95348W        W58907  24.166   4.929   1.737
95349W        W58908  23.666  44.263   1.213
95350W        W58909  38.554  20.585   2.880
95351W        W58910  28.992  12.306   2.393
95352W        W58911  16.592  25.157  13.356
95353W        W58912  14.194   6.194  14.029
95354W        W58913   8.802  34.551   1.847
95355W        W58914   9.322  22.580  13.526
95356W        W58915  36.454  11.712   1.273
95357W        W58916  41.950  31.616  13.431
95358W        W58917  27.167  29.494  14.001
95359W        W58918  26.970  41.484  14.493
95360W        W58919  12.136  37.557   2.859
95361W        W58920  38.394   3.784   3.279
95362W        W58921  13.248  15.718   0.911
95363W        W58922   7.378  24.630   1.316
95364W        W58923  36.008  33.891  11.406
95365W        W58924  19.088  24.201  14.402
95366W        W58925  34.021  16.624   0.292
95367W        W58926  36.371  35.948   1.892
95368W        W58927  19.127  43.901   1.274
95369W        W58928  36.373  34.980  13.335
95370W        W58929  16.193  21.713  14.325
95371W        W58930  42.871  26.603   3.181
95372W        W58931  15.670  41.398   4.247
95373W        W58932  31.139  10.282  11.608
95374W        W58933  31.536   4.348  13.052
95375W        W58934  13.627  32.585  10.985
95376W        W58935  31.900   7.666  11.438
95377W        W58936  13.265  41.428   4.183
95378W        W58937  10.300  19.640  13.809
95379W        W58938  21.256  23.002  12.976
95380W        W58939   9.234  37.390  11.865
95381W        W58940  19.194  36.494  10.408
95382W        W58941  17.714  14.724   4.116
95383W        W58942  38.915  18.634  14.426
95384W        W58943  14.118  33.611   2.241
95385W        W58944  11.130  39.557   2.667
95386W        W58945  34.466  44.295  14.010
95387W        W58946  35.480  10.790   4.288
95388W        W58947  19.620  33.541   3.787
95389W        W58948  16.077   8.221  13.020
95390W        W58949   3.872  39.315  13.951
95391W        W58950  30.609  14.625  11.430
95392W        W58951  15.269   9.854  11.038
95393W        W58952  25.211  37.418  13.463
95394W        W58953  26.063  41.989  13.312
95395W        W58954  15.212  43.516   1.243
95396W        W58955   3.756  21.202   1.245
95397W        W58956  33.091  38.860  12.419
95398W        W58957  25.642  25.004   3.345
95399W        W58958  13.629  19.041   2.782
95400W        W58959  36.532   9.344   2.299
95401W        W58960   1.269  19.274   1.767
95402W        W58961   9.804   7.199   0.849
95403W        W58962  10.336  32.590  10.897
95404W        W58963  14.665  11.850   3.640
95405W        W58964  14.332  44.448   5.109
95406W        W58965  35.460  13.142  12.060
95407W        W58966   9.720  16.659   9.944
95408W        W58967  14.708  25.575   1.242
95409W        W58968  20.759  20.766   0.265
95410W        W58969  31.525   8.746  12.410
95411W        W58970  35.902   0.490  13.526
95412W        W58971  14.219  39.983   3.300
95413W        W58972  34.980  23.603  11.579
95414W        W58973  23.690  19.154  10.547
95415W        W58974  36.591   0.311  12.485
95416W        W58975  39.044   3.230  13.398
95417W        W58976  37.877  38.457  11.404
95418W        W58977  40.484  34.596  10.968
95419W        W58978  20.700  19.752   0.782
95420W        W58979   6.247  20.145  14.448
95421W        W58980   1.904   6.798   4.716
95422W        W58981  30.625  26.150  14.488
95423W        W58982  18.691  12.790  11.527
95424W        W58983  23.003  33.473  10.915
95425W        W58984  30.139  12.349   4.665
95426W        W58985  16.294  31.962  12.880
95427W        W58986   0.944  35.468   1.422
95428W        W58987  35.396  34.908  12.909
95429W        W58988  27.640  29.065  11.599
95430W        W58989  19.268  10.707   2.678
95431W        W58990  13.214   4.364   3.649
95432W        W58991  36.963  25.207  14.511
95433W        W58992  31.963  10.236  12.576
95434W        W58993  11.783  42.912  12.350
95435W        W58994  44.865  19.574  10.461
95436W        W58995  16.203  44.900   0.826
95437W        W58996  35.024   4.920   0.821
95438W        W58997   1.415  11.186  10.453
95439W        W58998   1.799   1.415   1.420
95440W        W58999  37.992  23.506  12.934
95441W        W59000  19.589   2.964   4.689
95442W        W59001  38.346  24.145  11.046
95443W        W59002  44.335  42.420   1.439
95444W        W59003  19.689  10.162   4.734
95445W        W59004  14.721  17.584  14.901
95446W        W59005  40.396   6.294  11.518
95447W        W59006  17.638  44.942   0.939
95448W        W59007   3.817   1.929   4.758
95449W        W59008  30.583   5.857   0.899
95450W        W59009  19.121   9.157   4.809
95451W        W59010   0.251  38.336  12.083
95452W        W59011  44.887  35.600  11.565
95453W        W59012  29.160  23.706  13.313
95454W        W59013  38.882  19.088  14.971
95455W        W59014  30.591  33.037  11.027
95456W        W59015  29.955  18.673   3.274
95457W        W59016  27.996  27.547   0.740
95458W        W59017  12.851  18.671   1.324
95459W        W59018  20.222   5.245  11.415
95460W        W59019  29.958  31.426   3.246
95461W        W59020  44.983   9.861  10.438
95462W        W59021   7.407  32.978  10.930
95463W        W59022  29.478  29.627  13.355
95464W        W59023  26.067  36.584   0.858
95465W        W59024  23.686  21.747   3.727
95466W        W59025  11.237  27.026  11.959
95467W        W59026  35.468   6.210  11.608
95468W        W59027   6.297  21.259  14.808
95469W        W59028   1.265  40.997  11.876
95470W        W59029  31.493  35.553   3.821
95471W        W59030  23.224  31.116  11.080
95472W        W59031  34.614   1.372  11.926
95473W        W59032  36.414   8.854  11.429
95474W        W59033  28.939  30.572   4.808
95475W        W59034   4.344  29.989   3.288
95476W        W59035   5.836  11.657  13.407
95477W        W59036  29.084  18.234  13.356
95478W        W59037   0.816   6.377  13.847
95479W        W59038  14.277   1.479   4.186
95480W        W59039  34.394  16.313  11.994
95481W        W59040  42.800   1.886   2.761
95482W        W59041  15.639  18.742  11.598
95483W        W59042  33.063  20.250   4.290
95484W        W59043  41.525  22.604   4.128
95485W        W59044  20.125  34.501   4.152
95486W        W59045  28.546  14.787  11.543
95487W        W59046  27.049  12.169   5.100
95488W        W59047  36.504  25.144  14.881
95489W        W59048  35.908  19.245  13.312
95490W        W59049  18.279  39.403  14.032
95491W        W59050   9.244   2.430   2.416
95492W        W59051   7.804  43.840  14.869
95493W        W59052  12.303  25.501   1.350
95494W        W59053  15.096  34.865  14.383
95495W        W59054  20.250  39.471  14.019
95496W        W59055  23.714   9.806  10.493
95497W        W59056  13.277  33.893   2.898
95498W        W59057  20.540  11.335   4.136
95499W        W59058  37.028  16.263   3.169
95500W        W59059  16.295  14.774   0.431
95501W        W59060  27.597  24.493   5.128
95502W        W59061  21.224  34.006  13.964
95503W        W59062  16.236  12.272   2.215
95504W        W59063  30.108   4.224   3.356
95505W        W59064   4.401  32.538   1.317
95506W        W59065  23.695   7.357  14.813
95507W        W59066   9.158   6.386  13.969
95508W        W59067  16.590  33.477  12.437
95509W        W59068  22.170  21.214   3.261
95510W        W59069   4.432  37.509  13.023
95511W        W59070  15.696   3.763   5.283
95512W        W59071  37.085  16.699  13.798
95513W        W59072  11.285  37.550   4.272
95514W        W59073  37.467   2.444   1.930
95515W        W59074  35.001  30.136   3.162
95516W        W59075  10.360  11.821  11.521
95517W        W59076  14.745  41.316   4.268
95518W        W59077  40.512  15.579   4.629
95519W        W59078  24.637   2.904  10.470
95520W        W59079  21.092  19.624   2.789
95521W        W59080  23.198  16.124   4.611
95522W        W59081  42.031  17.693   4.646
95523W        W59082   5.396  13.269   1.396
95524W        W59083  26.101  44.996   1.875
95525W        W59084   5.730  40.857  13.490
95526W        W59085  30.019   6.737  13.403
95527W        W59086  35.362  41.325  14.320
95528W        W59087  17.108  16.286  14.430
95529W        W59088   2.769   7.785   4.287
95530W        W59089  14.760  37.028  11.531
95531W        W59090   3.910   6.773  14.406
95532W        W59091  18.104   6.911   1.826
95533W        W59092   7.286  29.929   1.923
95534W        W59093  23.709   7.248   4.697
95535W        W59094  12.715  17.764  11.399
95536W        W59095   2.226  10.710   4.135
95537W        W59096  28.452   1.313  11.963
95538W        W59097  18.092  33.597   4.769
95539W        W59098  40.935  27.123   0.414
95540W        W59099  39.410  38.421  14.931
95541W        W59100   4.750  32.028  10.972
95542W        W59101  23.592   5.879  13.409
95543W        W59102  36.525  13.763  12.469
95544W        W59103  12.652  22.201  14.444
95545W        W59104  39.886   7.720  11.026
95546W        W59105   7.264  31.447  11.954
95547W        W59106   7.800  23.577   2.772
95548W        W59107  40.936  19.044   3.855
95549W        W59108  31.131  10.703  14.475
95550W        W59109  28.674  43.363   0.786
95551W        W59110  39.432  14.680   4.235
95552W        W59111   3.375   9.668   0.851
95553W        W59112  23.605  29.151   5.155
95554W        W59113  27.686  16.738  12.037
95555W        W59114   3.921   6.734  14.923
95556W        W59115  13.804  25.066   5.714
95557W        W59116  23.504   2.929   3.367
95558W        W59117   4.359  41.439   1.872
95559W        W59118  20.574  18.750   3.181
95560W        W59119   8.373  19.735   2.740
95561W        W59120  44.978   9.360   3.660
95562W        W59121  27.672  30.618  13.528
95563W        W59122  24.646  22.730  12.976
95564W        W59123  31.511  28.603  14.343
95565W        W59124  31.592   4.278  14.410
95566W        W59125  29.670  42.336   4.819
95567W        W59126  29.565  32.481   2.185
95568W        W59127  13.224   6.893   1.717
95569W        W59128  39.814  19.197  10.948
95570W        W59129  37.386  15.086   0.471
95571W        W59130  22.021  20.230  13.950
95572W        W59131   8.362   9.192  14.810
95573W        W59132  28.653  29.560  11.855
95574W        W59133  36.352  25.540   1.396
95575W        W59134  27.983  15.217  10.542
95576W        W59135   7.860  21.603   0.769
95577W        W59136   3.343  14.105  14.356
95578W        W59137  23.493  25.493   1.339
95579W        W59138  28.491  34.481  11.505
95580W        W59139  13.153  20.664   0.307
95581W        W59140   6.721   1.346   0.385
95582W        W59141  32.474   7.180   1.313
95583W        W59142  30.418   6.915  11.005
95584W        W59143  18.707  37.547   0.308
95585W        W59144  30.164   7.235  11.963
95586W        W59145  13.121  13.739  13.821
95587W        W59146   3.938  37.356  13.520
95588W        W59147  24.671  31.556   4.211
95589W        W59148  20.191  10.752  14.918
95590W        W59149  27.179   2.234   1.217
95591W        W59150  16.095   5.771  10.534
95592W        W59151   0.297   4.939   2.384
95593W        W59152  32.594  22.112  12.550
95594W        W59153   2.884  16.614  10.472
95595W        W59154  41.506  28.541  12.443
95596W        W59155  39.821   4.852   1.320
95597W        W59156  39.320   6.814  14.908
95598W        W59157  31.495  30.131  10.582
95599W        W59158  29.086   4.293   3.866
95600W        W59159  10.741  24.197  12.846
95601W        W59160  23.209  39.042  14.965
95602W        W59161  40.511  31.040  11.987
95603W        W59162  12.730   3.788  14.404
95604W        W59163  36.402  31.041   1.336
95605W        W59164   0.899  10.785   0.293
95606W        W59165   2.841   3.439   4.622
95607W        W59166  31.587  17.082   3.341
95608W        W59167   0.299  40.391  14.450
95609W        W59168  34.034  31.105  11.009
95610W        W59169  39.406  30.137  12.035
95611W        W59170  44.780  16.789  12.096
95612W        W59171  19.566   3.424   4.716
95613W        W59172  20.087   6.360   5.313
95614W        W59173   6.322   0.891   4.706
95615W        W59174  14.244  11.816   2.842
95616W        W59175  44.863  12.208  10.565
95617W        W59176   2.826  28.608   3.159
95618W        W59177   9.202  21.230   2.223
95619W        W59178  18.215  19.177  14.447
95620W        W59179  40.825  24.679  14.284
95621W        W59180  27.685  40.501   2.864
95622W        W59181  39.843   1.346   1.861
95623W        W59182  22.104  16.813   3.323
95624W        W59183   9.796   0.460   4.198
95625W        W59184  33.523  31.118   4.715
95626W        W59185  15.703  25.022   0.800
95627W        W59186  32.994   7.350  12.535
95628W        W59187  12.666   2.357  12.970
95629W        W59188  11.658  31.517   1.835
95630W        W59189  27.040  22.162  14.387
95631W        W59190  42.909  17.718  12.953
95632W        W59191   9.679  17.605   2.877
95633W        W59192  36.974  31.565   4.312
95634W        W59193   4.731  22.511  11.071
95635W        W59194  34.477  18.683  14.997
95636W        W59195  19.681   0.396   2.402
95637W        W59196   4.773  15.193  14.344
95638W        W59197  27.591  24.221   3.356
95639W        W59198   1.959  44.438  11.905
95640W        W59199  29.639  29.138  14.937
95641W        W59200   9.229  11.689  14.819
95642W        W59201  26.464  21.703   3.636
95643W        W59202  29.000   3.356  13.826
95644W        W59203  25.654   0.848   1.393
95645W        W59204   3.888   5.741   2.314
95646W        W59205  31.966  28.151  12.442
95647W        W59206  38.380  35.011   2.372
95648W        W59207  39.475  35.085   4.242
95649W        W59208  23.201  14.148  12.537
95650W        W59209  21.034   6.890   0.852
95651W        W59210  42.844  20.198   0.827
95652W        W59211  37.973  40.456   1.786
95653W        W59212  41.479  23.004  12.908
95654W        W59213  29.669  39.945   0.425
95655W        W59214  43.270  44.260   3.229
95656W        W59215   3.916  16.768   2.394
95657W        W59216   2.295  18.597   1.816
95658W        W59217  42.982   6.424   1.935
95659W        W59218  35.853  17.743   2.299
95660W        W59219  34.474  23.506   1.767
95661W        W59220   2.464  16.773   2.411
95662W        W59221  39.436  36.489   0.955
95663W        W59222  37.927  17.172  14.972
95664W        W59223  44.953  25.550   2.256
95665W        W59224  30.499  20.116  12.018
95666W        W59225   3.232  37.512  11.423
95667W        W59226  16.744  34.600  14.357
95668W        W59227   4.228  16.214  10.888
95669W        W59228  36.421  38.904   0.779
95670W        W59229  31.510  21.139  10.955
95671W        W59230  26.625  37.050   4.241
95672W        W59231   5.395  44.890  12.500
95673W        W59232   7.306  17.105  11.045
95674W        W59233  41.803  17.259  11.417
95675W        W59234  17.694  38.036   2.367
95676W        W59235  24.181  41.980  12.458
95677W        W59236  41.532  22.565   0.364
95678W        W59237   8.363  40.037  14.958
95679W        W59238  41.526  31.153   1.293
95680W        W59239  33.875  40.962  12.072
95681W        W59240   2.863   9.806  13.330
95682W        W59241  39.063  36.074   0.740
95683W        W59242  29.923  44.960  12.492
95684W        W59243  21.728  18.700  12.354
95685W        W59244   1.876  40.335   3.857
95686W        W59245  10.330  19.092  11.923
95687W        W59246   7.182  37.009   4.306
95688W        W59247  43.411  17.146  13.832
95689W        W59248  14.742  28.042   4.619
95690W        W59249  19.675  40.536  10.589
95691W        W59250   4.872  14.812  12.094
95692W        W59251   9.332  18.054   4.166
95693W        W59252  40.503  18.250   1.829
95694W        W59253  17.744  29.458  10.973
95695W        W59254   4.895   4.235  14.415
95696W        W59255  26.091   2.351   3.386
95697W        W59256  16.076  36.484   1.372
95698W        W59257  20.100  12.678   1.380
95699W        W59258  13.630  12.201  14.783
95700W        W59259  13.343   4.769  11.571
95701W        W59260   1.343  30.562   2.369
95702W        W59261  27.049  32.957  13.046
95703W        W59262  20.126  35.392   4.746
95704W        W59263   7.360   5.314  11.872
95705W        W59264  21.215  17.140   4.197
95706W        W59265   1.403   4.931   1.287
95707W        W59266  35.912  36.094   4.737
95708W        W59267  27.185  37.916  11.856
95709W        W59268  35.372  31.036   2.321
95710W        W59269  37.865  35.918   1.913
95711W        W59270  17.266  17.722   3.638
95712W        W59271   1.246  41.313  13.878
95713W        W59272  36.480  22.187  12.866
95714W        W59273  28.565   7.184  14.782
95715W        W59274  43.421  14.624  12.568
95716W        W59275  23.092  38.563  14.803
95717W        W59276   5.383  41.507   0.849
95718W        W59277  40.006   3.289  13.473
95719W        W59278  33.978  10.333  12.407
95720W        W59279  15.265  43.270   0.465
95721W        W59280  34.999   7.276  12.439
95722W        W59281  30.553  23.229  13.833
95723W        W59282  41.979  40.547  10.516
95724W        W59283   2.286   4.710  10.574
95725W        W59284  11.706  26.541   4.219
95726W        W59285  23.138   2.894   1.763
95727W        W59286   6.843  30.548   2.239
95728W        W59287  25.570  38.935   0.776
95729W        W59288  13.344  40.947  10.453
95730W        W59289  29.643  35.573   2.678
95731W        W59290   4.848  16.614   1.215
95732W        W59291  38.444  15.125   0.441
95733W        W59292   5.216  28.550   3.304
95734W        W59293  33.119  33.958  13.056
95735W        W59294  18.635  44.314  11.498
95736W        W59295  29.040  26.997  10.404
95737W        W59296  14.313  40.822   2.834
95738W        W59297  31.942  33.902   3.699
95739W        W59298   0.326   9.385   2.375
95740W        W59299  11.373   9.668   3.296
95741W        W59300  42.809  14.124  10.094
95742W        W59301  27.504  36.428   2.759
95743W        W59302  25.139  12.728   1.426
95744W        W59303  33.435  12.746   1.819
95745W        W59304  25.182   2.906   4.299
95746W        W59305  25.545  44.414   2.759
95747W        W59306  26.641  33.941  14.285
95748W        W59307  26.132   3.713  12.014
95749W        W59308  39.996   3.826   3.298
95750W        W59309   8.204  43.010  10.585
95751W        W59310  17.784  34.062  12.359
95752W        W59311   0.808  19.764   4.289
95753W        W59312  18.251  36.379  12.457
95754W        W59313  12.803   1.359  13.473
95755W        W59314   4.732  39.886  10.433
95756W        W59315  10.843   4.892   3.352
95757W        W59316  25.635  34.025   2.712
95758W        W59317  37.377  35.044  10.427
95759W        W59318  16.306  26.680  12.513
95760W        W59319  37.854  41.292  11.971
95761W        W59320  33.903  44.298   0.875
95762W        W59321  24.615  25.219  12.578
95763W        W59322  40.324  40.322   4.150
95764W        W59323  24.537   0.331  12.944
95765W        W59324  27.644  14.783   3.278
95766W        W59325  22.071   0.387  12.893
95767W        W59326  27.641  34.079   2.739
95768W        W59327  41.444  27.539   3.385
95769W        W59328  22.062   9.647  11.924
95770W        W59329  29.932  24.078   1.324
95771W        W59330  39.346  42.431  13.997
95772W        W59331  16.115  38.490   0.480
95773W        W59332  31.428   9.245   2.887
95774W        W59333   0.355  16.579  10.557
95775W        W59334  17.575  41.897   4.833
95776W        W59335  20.132   3.790  12.889
95777W        W59336  18.650  25.172   4.333
95778W        W59337  14.258  42.464  13.469
95779W        W59338  21.186  44.428   4.236
95780W        W59339   8.741  10.734  14.443
95781W        W59340  23.498  29.520   4.608
95782W        W59341   9.165  23.712  13.059
95783W        W59342  19.206   0.467  14.978
95784W        W59343   1.345  30.940   0.369
95785W        W59344   5.397  20.597  12.903
95786W        W59345  33.558   1.436  14.835
95787W        W59346  22.034  15.126  10.451
95788W        W59347   7.746   2.418   3.255
95789W        W59348  38.845  18.633   0.466
95790W        W59349  16.603  38.416  14.512
95791W        W59350  38.007  20.091   1.278
95792W        W59351   1.754  43.436  11.901
95793W        W59352  13.184  11.260  10.940
95794W        W59353  17.148  26.204  12.464
95795W        W59354  20.042  29.511  13.507
95796W        W59355  28.955  18.590  10.634
95797W        W59356  26.075  25.616   4.744
95798W        W59357  44.407  38.400  12.463
95799W        W59358  19.228  16.573  14.814
95800W        W59359  37.427  23.548  14.334
95801W        W59360   5.872   9.219  14.353
95802W        W59361  13.629  18.063  13.955
95803W        W59362  38.018  26.649   0.468
95804W        W59363  24.578   8.803   2.249
95805W        W59364  14.103   9.753  14.859
95806W        W59365  41.537  22.094   1.286
95807W        W59366   6.877  33.126   0.410
95808W        W59367  28.130  44.347  10.998
95809W        W59368  14.787  10.201   4.640
95810W        W59369  42.345  31.102   1.365
95811W        W59370  15.208   5.405  12.062
95812W        W59371  32.466  14.658  13.845
95813W        W59372  17.692  43.280  13.358
95814W        W59373   7.401  36.526  13.060
95815W        W59374   8.700  10.274   3.175
95816W        W59375  21.744  41.311  12.471
95817W        W59376  17.693  35.407   3.382
95818W        W59377   7.315  41.457   2.714
95819W        W59378  31.045  44.000  12.884
95820W        W59379  37.575  12.314  13.527
95821W        W59380  14.633  35.040   5.184
95822W        W59381  16.774  18.289   1.766
95823W        W59382  33.926  24.992  12.547
95824W        W59383  24.622   3.366   4.216
95825W        W59384  23.567  21.546  13.061
95826W        W59385  38.470  31.559   0.908
95827W        W59386  36.499  19.257   1.391
95828W        W59387  40.901  30.581   3.775
95829W        W59388  38.030  10.793  10.953
95830W        W59389  31.558  12.776  10.497
95831W        W59390  26.515  19.216   3.372
95832W        W59391  24.023  33.933   2.758
95833W        W59392  34.517  32.050  14.899
95834W        W59393  42.293  15.124  12.560
95835W        W59394  33.004   1.893  14.031
95836W        W59395  32.492  24.201  13.477
95837W        W59396   6.398  34.042   0.736
95838W        W59397  34.926  22.509  10.456
95839W        W59398  12.190   9.217  13.347
95840W        W59399  20.252   3.908   2.245
95841W        W59400  23.132  36.484  10.966
95842W        W59401   6.196  33.549  13.473
95843W        W59402   6.224  32.042   9.962
95844W        W59403  28.011  41.837  14.380
95845W        W59404  35.863  10.269  13.936
95846W        W59405  18.566  38.924   3.769
95847W        W59406  31.060   2.962   2.735
95848W        W59407  13.693  21.736  13.453
95849W        W59408   3.375  23.119  14.502
95850W        W59409   0.915  17.723  14.899
95851W        W59410  30.440   6.425  12.532
95852W        W59411  27.616  36.387   4.795
95853W        W59412   4.373  37.393   2.201
95854W        W59413  27.055  30.418   1.832
95855W        W59414  13.287  42.435   4.599
95856W        W59415  11.748   4.423   4.215
95857W        W59416  13.840  13.733   4.244
95858W        W59417  35.893  40.844  11.524
95859W        W59418  33.408   6.239  12.435
95860W        W59419  14.326  34.950  12.452
95861W        W59420  44.379  21.665   1.236
95862W        W59421  21.741  28.175   0.270
95863W        W59422  37.020  44.294   2.208
95864W        W59423  40.493  37.580  13.507
95865W        W59424   7.343  20.543   2.240
95866W        W59425  41.525  40.496  13.427
95867W        W59426  22.697  41.991   3.154
95868W        W59427  40.920   7.897  11.442
95869W        W59428  14.716  11.230   3.671
95870W        W59429  10.645  23.491  12.577
95871W        W59430  26.528  41.896  11.450
95872W        W59431  26.476  27.582   4.761
95873W        W59432   4.293  32.944  11.398
95874W        W59433  44.465  42.303   4.305
95875W        W59434  27.674  43.777  11.934
95876W        W59435  14.656   3.861   3.355
95877W        W59436   9.758   9.694   0.462
95878W        W59437  41.354  39.443   2.271
95879W        W59438  39.987  25.649   3.824
95880W        W59439  11.704   8.766  13.883
95881W        W59440  11.845  41.843   4.284
95882W        W59441  12.279  44.492  11.066
95883W        W59442  10.366  40.501  13.886
95884W        W59443  12.181  27.633   3.831
95885W        W59444  21.133  26.118  12.897
95886W        W59445   7.405  18.623   1.238
95887W        W59446  32.487  19.575  13.380
95888W        W59447  14.703  38.975  12.868
95889W        W59448   8.836  20.756  10.058
95890W        W59449  19.779  39.839   0.298
95891W        W59450   9.671  13.222   4.300
95892W        W59451  26.666  25.707  12.851
95893W        W59452  13.669  26.507  13.911
95894W        W59453  28.651   7.328  13.438
95895W        W59454  35.989  39.837   4.599
95896W        W59455  43.341  40.465   3.633
95897W        W59456   0.892  44.431  11.444
95898W        W59457  15.100  31.956   0.810
95899W        W59458  19.626  24.131  12.912
95900W        W59459  36.041  38.416   3.840
95901W        W59460   4.803  13.130  11.499
95902W        W59461  37.565  33.394   4.217
95903W        W59462  34.028  30.140   4.213
95904W        W59463   7.686  38.505   1.261
95905W        W59464  42.030  31.499  10.465
95906W        W59465  15.243  34.926  13.843
95907W        W59466  24.616   8.384  12.917
95908W        W59467   5.725   1.247   1.440
95909W        W59468   0.936  21.108   4.218
95910W        W59469  23.724  30.145   2.781
95911W        W59470  32.075   9.758  13.500
95912W        W59471  31.556  11.733   1.421
95913W        W59472  16.111  30.053  14.357
95914W        W59473  10.808   8.684   3.782
95915W        W59474  44.467  16.160   4.786
95916W        W59475  26.643   5.379   2.714
95917W        W59476  19.596   5.757  10.140
95918W        W59477  35.515   3.714   3.672
95919W        W59478   0.391   4.786  11.430
95920W        W59479  25.672   6.372  14.399
95921W        W59480   1.288  38.562  14.818
95922W        W59481  17.256   6.299   2.716
95923W        W59482  27.985  41.934  13.488
95924W        W59483  43.384  32.582  10.511
95925W        W59484  42.467  26.672   4.167
95926W        W59485  20.731  19.596  14.278
95927W        W59486  12.749  28.632  13.307
95928W        W59487  27.524   1.947  11.062
95929W        W59488  42.826  27.481   2.723
95930W        W59489  11.348  25.516  11.607
95931W        W59490  34.019  17.289  10.066
95932W        W59491  24.037  41.451  10.519
95933W        W59492  44.986  22.649   0.804
95934W        W59493  32.445  44.983  13.982
95935W        W59494  23.736  12.619  13.997
95936W        W59495  24.223  36.846   3.320
95937W        W59496  24.662  24.188  13.432
95938W        W59497   9.288  22.644  10.504
95939W        W59498  31.618  33.949  13.311
95940W        W59499  24.555   7.780  13.365
95941W        W59500  29.998  39.334  11.019
95942W        W59501  41.498   0.789  14.498
95943W        W59502  25.121   0.887   3.162
95944W        W59503  43.417   1.331   1.715
95945W        W59504  35.966   2.470   0.309
95946W        W59505  25.533  21.104  13.473
95947W        W59506   4.318   4.928   0.276
95948W        W59507  20.567   1.910  10.578
95949W        W59508  13.842   5.861   1.718
95950W        W59509  21.131  16.702  11.906
95951W        W59510  11.825  25.145   3.350
95952W        W59511   7.390  27.942  13.839
95953W        W59512  37.926   1.440   2.680
95954W        W59513  30.577   4.884  10.603
95955W        W59514  38.456  40.799  11.942
95956W        W59515  21.606  12.298   3.842
95957W        W59516  40.391  18.607   1.753
95958W        W59517  32.555  31.549  14.386
95959W        W59518  26.082  21.200  10.116
95960W        W59519   3.888  38.039   2.257
95961W        W59520  22.551  42.937   9.923
95962W        W59521  40.455  18.777  12.483
95963W        W59522  25.566  29.970  11.879
95964W        W59523  33.877  12.188  12.480
95965W        W59524   7.750  26.568  14.924
95966W        W59525  14.340  19.107   0.854
95967W        W59526  24.612  24.994  11.043
95968W        W59527  32.100   9.309   0.759
95969W        W59528  30.526  24.026   0.921
95970W        W59529  23.220   8.184   0.282
95971W        W59530   0.334  31.458  12.552
95972W        W59531  11.658  41.400  14.862
95973W        W59532  18.761  27.008  12.050
95974W        W59533   1.796  40.493   4.124
95975W        W59534  13.146   2.863  11.078
95976W        W59535  38.974  29.534   4.755
95977W        W59536  44.489  29.430  12.551
95978W        W59537  36.975   4.744  11.909
95979W        W59538  40.402  40.862   0.886
95980W        W59539  11.169   5.343  12.067
95981W        W59540   6.397  36.049  12.093
95982W        W59541  36.858   0.315   0.439
95983W        W59542  41.823  18.122   2.388
95984W        W59543  44.937  41.889  11.450
95985W        W59544  30.020  22.620  10.547
95986W        W59545  39.050  19.285   0.917
95987W        W59546  20.573   6.286  11.457
95988W        W59547  35.430  20.038   4.665
95989W        W59548   4.442  19.156   2.700
95990W        W59549  39.901  22.716   1.321
95991W        W59550   1.928  10.275   0.308
95992W        W59551  16.196  18.201  13.382
95993W        W59552   6.908  35.592  12.441
95994W        W59553  13.299  22.223  10.416
95995W        W59554  16.114  12.312   1.883
95996W        W59555  11.265  29.013  13.440
95997W        W59556  41.476   1.242  10.451
95998W        W59557  31.560  13.726   2.812
95999W        W59558  31.533  14.338   4.683
96000W        W59559  32.586   2.899  14.791
96001W        W59560  14.100  16.221  13.856
96002W        W59561   8.726  18.589   2.751
96003W        W59562  36.089  29.046  12.387
96004W        W59563  39.998  40.458  12.859
96005W        W59564  33.578  17.098   1.817
96006W        W59565  28.657  44.807  10.454
96007W        W59566   3.725  24.222   0.457
96008W        W59567  41.377   4.751  11.088
96009W        W59568  21.248  24.999  11.918
96010W        W59569  18.225  38.842   0.852
96011W        W59570  32.609  44.399   0.869
96012W        W59571  18.196  11.225  14.953
96013W        W59572  30.643  42.994   4.276
96014W        W59573  32.618  15.187   2.225
96015W        W59574  35.915  21.633   0.808
96016W        W59575   5.902  25.572   0.401
96017W        W59576  38.068  38.992  10.048
96018W        W59577  15.735   2.966  14.953
96019W        W59578  23.546  17.592   0.355
96020W        W59579   9.735  33.587  11.969
96021W        W59580  20.710   4.361  12.841
96022W        W59581  27.098  33.459   0.278
96023W        W59582  39.510  33.010  12.916
96024W        W59583  24.056  44.298  14.505
96025W        W59584  23.096  18.293   4.193
96026W        W59585  35.381  36.948   2.311
96027W        W59586   1.963  41.332  14.812
96028W        W59587  35.926   6.329  10.553
96029W        W59588  30.970  13.309  11.564
96030W        W59589  33.498   1.366  13.999
96031W        W59590  19.188  23.174  13.439
96032W        W59591  28.132  37.032   1.722
96033W        W59592   4.240   9.394   0.805
96034W        W59593  29.441  41.410   2.356
96035W        W59594   1.848  28.933  11.918
96036W        W59595   8.808  39.048   0.453
96037W        W59596  41.009   4.336  13.996
96038W        W59597  14.697  12.182   2.394
96039W        W59598  39.548  34.430   2.732
96040W        W59599  12.815  15.156   9.610
96041W        W59600  38.068  43.391  13.407
96042W        W59601  17.198  32.414   2.327
96043W        W59602   7.877  23.620  11.456
96044W        W59603  39.812  26.547   3.183
96045W        W59604  43.272  21.135   1.415
96046W        W59605   8.727  18.780   3.371
96047W        W59606  27.970  23.499   9.980
96048W        W59607  18.141  33.604  14.337
96049W        W59608  26.051   9.327   4.654
96050W        W59609  17.607  31.905  11.603
96051W        W59610  39.934   2.895  11.856
96052W        W59611  11.783  13.692   1.834
96053W        W59612  41.404  40.480  10.961
96054W        W59613   6.277   5.373   1.315
96055W        W59614  44.944  44.491  14.012
96056W        W59615  18.129  18.696  13.328
96057W        W59616  22.118   0.474   0.465
96058W        W59617  15.664  35.959   3.162
96059W        W59618  13.625   5.200   4.196
96060W        W59619  25.573  13.729   0.842
96061W        W59620  36.009  30.495  13.478
96062W        W59621  29.457  10.716   3.766
96063W        W59622  11.715  41.922  10.595
96064W        W59623  17.611  23.659   4.810
96065W        W59624  43.980  41.997   3.174
96066W        W59625  21.179   4.726   4.832
96067W        W59626  40.378  23.522  11.575
96068W        W59627   8.836  37.920   1.280
96069W        W59628  12.772  32.939  14.388
96070W        W59629   6.772  11.743   3.351
96071W        W59630   0.306  15.242   2.725
96072W        W59631  12.227  19.580  12.858
96073W        W59632  22.141  12.278   0.437
96074W        W59633   6.427  31.434  11.018
96075W        W59634   6.332   1.420  13.362
96076W        W59635  40.390  19.537  10.498
96077W        W59636   2.259  37.392   2.662
96078W        W59637  33.067   4.313  10.462
96079W        W59638  10.315  21.611   4.158
96080W        W59639  37.453   1.394   3.854
96081W        W59640  43.497  38.935  11.510
96082W        W59641  30.087  31.420  13.817
96083W        W59642  16.100  43.317   3.209
96084W        W59643  22.087   6.342  11.935
96085W        W59644  41.950  23.597  12.577
96086W        W59645  38.859  38.499  13.836
96087W        W59646   1.454  29.158   1.313
96088W        W59647  33.480  25.543   0.353
96089W        W59648  27.583  34.029  11.571
96090W        W59649  33.564   1.858   3.173
96091W        W59650  39.829  19.211   4.344
96092W        W59651   0.888  44.953   2.853
96093W        W59652  21.122  17.172   0.791
96094W        W59653  42.359   1.917  11.599
96095W        W59654  17.191  43.005   2.719
96096W        W59655  41.967  12.286  14.928
96097W        W59656   7.406  24.033  13.475
96098W        W59657  18.091  24.991   1.315
96099W        W59658   0.843  43.912   2.415
96100W        W59659  22.566  31.570   1.778
96101W        W59660  33.063  44.914   4.761
96102W        W59661  18.694  33.929  13.043
96103W        W59662  36.405  11.853  13.808
96104W        W59663  36.368   8.886   3.227
96105W        W59664   0.900  25.628  11.550
96106W        W59665   4.401  20.227   1.917
96107W        W59666  13.805  34.603   4.600
96108W        W59667   3.445  19.716   4.298
96109W        W59668  28.540  37.359  10.982
96110W        W59669  10.345  40.465   3.811
96111W        W59670  36.848  43.346  13.049
96112W        W59671  14.665  31.443   2.199
96113W        W59672  11.179  22.599  12.006
96114W        W59673  11.194   0.807  11.421
96115W        W59674  35.596   2.418  12.484
96116W        W59675   0.806   3.920  10.131
96117W        W59676  36.424  10.280  12.058
96118W        W59677  16.711  12.683   2.738
96119W        W59678   6.382  35.087   1.746
96120W        W59679  39.378  38.528   1.345
96121W        W59680  40.533  40.801  14.337
96122W        W59681  13.205  22.637  14.389
96123W        W59682  28.541  40.816  13.372
96124W        W59683   8.713  29.004   4.732
96125W        W59684  38.029  44.447  10.948
96126W        W59685  20.234  19.742   1.734
96127W        W59686  11.822  43.834  11.070
96128W        W59687  36.523  11.817  12.904
96129W        W59688  41.928  30.986  10.977
96130W        W59689   3.360  32.596   0.766
96131W        W59690  39.465  29.647  13.870
96132W        W59691  26.603  11.761  11.389
96133W        W59692  36.543  33.994   3.246
96134W        W59693  44.792  37.341  14.332
96135W        W59694  43.469  22.610   2.236
96136W        W59695  34.476  44.915   4.237
96137W        W59696  32.120  15.801   3.670
96138W        W59697  44.967   8.678   0.897
96139W        W59698  30.521  35.101   0.956
96140W        W59699  30.029  29.536   3.708
96141W        W59700   4.838  36.571  11.602
96142W        W59701   5.912   7.417   0.458
96143W        W59702  18.284  39.330   4.280
96144W        W59703  21.758   1.973   2.765
96145W        W59704   5.835   9.723  10.908
96146W        W59705  13.698  35.442   4.728
96147W        W59706  38.887  16.288  10.932
96148W        W59707  18.237   7.272   4.167
96149W        W59708  22.050  42.471  13.996
96150W        W59709  19.642   4.205  11.536
96151W        W59710  24.980  29.156   2.667
96152W        W59711   8.226  24.698  13.323
96153W        W59712  36.448  25.142   1.863
96154W        W59713  23.161  15.085  12.345
96155W        W59714  19.160  28.502   0.279
96156W        W59715  35.409  38.557  12.384
96157W        W59716  34.065  34.042   1.706
96158W        W59717  24.185  20.128   0.480
96159W        W59718  17.281  31.582  14.913
96160W        W59719   9.761  11.137   3.237
96161W        W59720  23.206  10.789  13.881
96162W        W59721   6.707  24.663  10.586
96163W        W59722  27.148  37.543   2.689
96164W        W59723  29.973  18.752   3.707
96165W        W59724  44.424  24.007  12.951
96166W        W59725   5.763  41.476  11.513
96167W        W59726   8.887  19.191   3.166
96168W        W59727   0.907  15.329   0.370
96169W        W59728  34.038  39.960  14.773
96170W        W59729  32.028  11.297  11.071
96171W        W59730   3.333  23.205  11.914
96172W        W59731  31.522   5.366  14.957
96173W        W59732   7.182   1.390  12.931
96174W        W59733   3.244  30.426   0.749
96175W        W59734  28.626   2.372   1.240
96176W        W59735  24.036  35.969  10.507
96177W        W59736  10.718  32.081  13.904
96178W        W59737   9.880  14.775  11.525
96179W        W59738  33.048  40.046   1.246
96180W        W59739  15.198   1.471   1.790
96181W        W59740  29.076  22.198  13.341
96182W        W59741  34.451   5.320   2.829
96183W        W59742  40.468   6.417  12.062
96184W        W59743   6.294  10.659   0.756
96185W        W59744  15.661  42.487  14.447
96186W        W59745  43.885  25.686   1.332
96187W        W59746  19.740   2.917  12.979
96188W        W59747  25.121  31.032  12.910
96189W        W59748  16.309  36.421  11.052
96190W        W59749  17.131  33.428   2.708
96191W        W59750   4.832  17.262  11.562
96192W        W59751  20.205   0.832  14.370
96193W        W59752   9.715  17.695  13.021
96194W        W59753  34.545  24.582   4.354
96195W        W59754  25.609  41.310  11.576
96196W        W59755   8.392  20.122  12.014
96197W        W59756  10.832  41.957  13.468
96198W        W59757   5.759   7.336   4.255
96199W        W59758  41.488  39.894  10.415
96200W        W59759  11.227  12.258   3.286
96201W        W59760  36.078  22.076   0.809
96202W        W59761  40.990  26.022  14.863
96203W        W59762   2.875  20.746  14.789
96204W        W59763  18.767  19.546  14.457
96205W        W59764  19.190  42.017  11.497
96206W        W59765  12.773  36.958   4.675
96207W        W59766  33.598  38.568   1.362
96208W        W59767  20.645   1.430  14.448
96209W        W59768  28.099  37.932  11.531
96210W        W59769  21.630   2.368  12.480
96211W        W59770  34.587  34.606   0.248
96212W        W59771  40.976  37.392   1.712
96213W        W59772  26.629   9.221   0.812
96214W        W59773  25.041  37.041   1.337
96215W        W59774   4.273   1.894   4.152
96216W        W59775  15.659  23.034  11.498
96217W        W59776  22.666  29.556   0.458
96218W        W59777   1.257  18.549  13.542
96219W        W59778  20.261  41.458  12.075
96220W        W59779  40.926  33.087  10.990
96221W        W59780   1.342   3.830  12.403
96222W        W59781  41.402  23.171   2.863
96223W        W59782  29.086  28.578   3.318
96224W        W59783   1.370  12.132  13.339
96225W        W59784  14.595   9.863   9.437
96226W        W59785  40.810  25.111  14.873
96227W        W59786  40.808  41.333   4.681
96228W        W59787   6.704  27.558   2.900
96229W        W59788  13.646  26.625  11.472
96230W        W59789  31.028  22.209   2.783
96231W        W59790  25.068  28.646  12.508
96232W        W59791   1.303  41.360  11.030
96233W        W59792  17.185   5.912  12.970
96234W        W59793  18.549  17.784  14.805
96235W        W59794  39.405  42.963  13.000
96236W        W59795  32.630  36.010   4.603
96237W        W59796  38.336  16.766   0.351
96238W        W59797  28.503  43.410   3.358
96239W        W59798  39.559  22.722  12.833
96240W        W59799  19.564  10.198   2.754
96241W        W59800  34.573  17.303  11.414
96242W        W59801  42.886  23.087  13.043
96243W        W59802  39.049  29.126  14.822
96244W        W59803  33.115   6.907  13.946
96245W        W59804  11.142  32.624  11.497
96246W        W59805  15.208   6.827   5.318
96247W        W59806   8.202   8.301   1.324
96248W        W59807   6.315  27.571  11.040
96249W        W59808  25.708  38.412  11.506
96250W        W59809  24.664   0.903  11.891
96251W        W59810   0.888  14.712  14.420
96252W        W59811  28.148   9.173  13.875
96253W        W59812   3.231  26.133   0.367
96254W        W59813   7.300   9.263   3.308
96255W        W59814  24.117  27.007  14.969
96256W        W59815   3.810  33.556  10.404
96257W        W59816  35.862   0.944  11.591
96258W        W59817   5.227  30.609   2.830
96259W        W59818  20.745  35.576   0.409
96260W        W59819  40.417  15.147   2.313
96261W        W59820  32.522  32.511   3.381
96262W        W59821   7.380   7.848  12.038
96263W        W59822  33.024   7.394   5.103
96264W        W59823  38.543  27.537   0.387
96265W        W59824  35.942  10.288  12.023
96266W        W59825  40.359  14.148   4.199
96267W        W59826  26.980  33.624  12.481
96268W        W59827  41.973  17.558   0.378
96269W        W59828  38.521  25.474   3.364
96270W        W59829  43.282   4.816   2.207
96271W        W59830  22.192  19.182   3.650
96272W        W59831  34.427   1.347  11.395
96273W        W59832   6.231  44.822  10.981
96274W        W59833   6.718  20.115   0.266
96275W        W59834  18.668  24.112   3.163
96276W        W59835  28.988   8.865   0.774
96277W        W59836  20.760  19.042  14.879
96278W        W59837  12.673  44.808  13.438
96279W        W59838   2.363  16.610   0.387
96280W        W59839   8.221   1.253  14.443
96281W        W59840   3.878  23.208   4.794
96282W        W59841  25.613  18.185  13.490
96283W        W59842  19.706   5.207  14.465
96284W        W59843  11.213   6.185  14.458
96285W        W59844   3.335  29.482   4.152
96286W        W59845  42.379   5.373  14.797
96287W        W59846  38.358  16.151   1.439
96288W        W59847  14.107  33.577  12.359
96289W        W59848  32.081   4.270   1.857
96290W        W59849  11.678  16.763   1.730
96291W        W59850  32.985  31.557  13.499
96292W        W59851  44.963  39.848   4.779
96293W        W59852   9.250   5.789  12.857
96294W        W59853  27.477  10.258   1.390
96295W        W59854  34.446  39.915  11.044
96296W        W59855  27.094  31.017  13.030
96297W        W59856   4.834   6.698   1.400
96298W        W59857  19.738  42.471  13.436
96299W        W59858   4.357  26.090   3.799
96300W        W59859  20.150  29.488  12.341
96301W        W59860  11.306  29.981  14.960
96302W        W59861  15.096  10.211   4.777
96303W        W59862  14.150  25.602  11.385
96304W        W59863  26.469   9.698  14.895
96305W        W59864   7.214  12.140   0.788
96306W        W59865  21.544  29.157  13.525
96307W        W59866  25.145  21.152  14.508
96308W        W59867  21.139  20.746  14.802
96309W        W59868  35.409  43.911  10.530
96310W        W59869  39.898  19.153   1.732
96311W        W59870  24.974  11.705  11.012
96312W        W59871  34.610  44.323   4.817
96313W        W59872  35.413  40.801   4.795
96314W        W59873  42.025  40.308   1.226
96315W        W59874  27.103  29.125   1.844
96316W        W59875  14.688   1.320  12.936
96317W        W59876  36.083  38.482   1.924
96318W        W59877  35.991  39.398   3.862
96319W        W59878  37.079   1.784  14.801
96320W        W59879  14.753  40.430   2.379
96321W        W59880   3.296  19.693   2.903
96322W        W59881  25.709  29.074  11.488
96323W        W59882  16.715   3.357   2.413
96324W        W59883  38.547   3.383   0.257
96325W        W59884  43.319   0.967  10.600
96326W        W59885  26.687  19.778   1.713
96327W        W59886  18.234  25.002  10.546
96328W        W59887  32.428   5.331   4.316
96329W        W59888  28.482  19.631   0.414
96330W        W59889  35.369   0.794   4.269
96331W        W59890  28.967   9.824   0.263
96332W        W59891  15.198   5.334   2.186
96333W        W59892  22.545  32.475   4.599
96334W        W59893   7.764   8.327   0.744
96335W        W59894  21.249  18.276   1.893
96336W        W59895  41.889   8.709  13.519
96337W        W59896   0.772  42.791   0.273
96338W        W59897   3.272  39.429   3.830
96339W        W59898  36.361  41.292  12.912
96340W        W59899  24.656  34.497   2.188
96341W        W59900  40.860  28.547   3.685
96342W        W59901  11.761   2.276  12.443
96343W        W59902  40.314   0.860   3.682
96344W        W59903  14.742  18.077   2.399
96345W        W59904  27.505   0.799   2.663
96346W        W59905  29.468   8.836  10.914
96347W        W59906  29.520  36.447  13.918
96348W        W59907  33.089  27.498  13.895
96349W        W59908  30.579  10.322   4.818
96350W        W59909   0.407  28.004  12.988
96351W        W59910  24.544  22.078   5.758
96352W        W59911   9.155  18.755   4.131
96353W        W59912  18.733  15.579  11.492
96354W        W59913  42.910  17.663   3.383
96355W        W59914  18.054   6.270   0.444
96356W        W59915   4.295   5.852  14.491
96357W        W59916   9.867  28.048  14.310
96358W        W59917   2.348  24.698   2.347
96359W        W59918  41.386   9.652  12.823
96360W        W59919  14.123  31.896  13.310
96361W        W59920  36.511   0.248  12.866
96362W        W59921  22.051  17.724   1.315
96363W        W59922  25.981   6.288  13.942
96364W        W59923  10.331  42.859  13.480
96365W        W59924  17.654  43.952   1.904
96366W        W59925  17.203  36.419  14.986
96367W        W59926  24.110  27.645   1.918
96368W        W59927  28.158  15.136   1.298
96369W        W59928  44.808  25.139  11.872
96370W        W59929  38.509  17.790   2.830
96371W        W59930  11.793  32.981  11.976
96372W        W59931  20.088  18.668   4.785
96373W        W59932   5.314  22.080   4.156
96374W        W59933  26.034   2.242   0.908
96375W        W59934   9.854  13.306  11.482
96376W        W59935  13.162  19.713   1.325
96377W        W59936   2.785  11.259  12.877
96378W        W59937   9.674  24.119  11.438
96379W        W59938  27.005  19.284   0.374
96380W        W59939  40.327  35.058  10.012
96381W        W59940  23.716  11.706  12.347
96382W        W59941  30.925  36.041   2.693
96383W        W59942  23.115  35.044  11.611
96384W        W59943   1.441   2.755   4.170
96385W        W59944  30.638   0.415   3.864
96386W        W59945   5.384  42.349  13.423
96387W        W59946  15.315   5.755   2.336
96388W        W59947  38.429  19.620   4.242
96389W        W59948  19.116  10.773   1.421
96390W        W59949  39.038  15.087  13.810
96391W        W59950   3.896  10.652   3.162
96392W        W59951   8.755  14.603  13.816
96393W        W59952  13.201   6.310   9.506
96394W        W59953  41.430   2.416   4.820
96395W        W59954  10.219  20.047   4.333
96396W        W59955   0.879  21.701  13.318
96397W        W59956  36.476   6.676  13.796
96398W        W59957  29.564  33.064   2.410
96399W        W59958  31.431  20.626   0.847
96400W        W59959  33.400  15.180  14.971
96401W        W59960   9.671  14.785  12.948
96402W        W59961  40.547  18.050  14.885
96403W        W59962  32.970  42.345   2.189
96404W        W59963  29.149  32.407  11.865
96405W        W59964  23.129  22.212   1.823
96406W        W59965  11.333  28.100  11.984
96407W        W59966   6.908   6.378   3.210
96408W        W59967  31.998  19.561  10.944
96409W        W59968  15.702   8.291   4.157
96410W        W59969  28.007  22.222   2.403
96411W        W59970  19.123  16.625  10.464
96412W        W59971  38.561  33.551   2.301
96413W        W59972  28.480  37.434   2.862
96414W        W59973  30.627  33.569  10.904
96415W        W59974  34.112  15.186  12.362
96416W        W59975  31.991  26.081  14.344
96417W        W59976   4.935  17.179   3.823
96418W        W59977  24.206  20.576  14.783
96419W        W59978   2.425  27.538  11.028
96420W        W59979  35.856   1.482   3.669
96421W        W59980  22.646  28.615  14.488
96422W        W59981  37.419  43.846  13.010
96423W        W59982  34.019   6.682   4.793
96424W        W59983  23.017  32.426  14.026
96425W        W59984  26.107  33.028   2.678
96426W        W59985   2.907  31.043  11.036
96427W        W59986  28.145   4.253  11.116
96428W        W59987  40.935   0.451  10.490
96429W        W59988  17.741  11.140  11.991
96430W        W59989   6.734  40.977  12.542
96431W        W59990   7.193  35.080  13.319
96432W        W59991  44.422   7.338   2.806
96433W        W59992  27.145   0.317  12.084
96434W        W59993  38.403  13.177   4.815
96435W        W59994  25.559   6.861  11.569
96436W        W59995  12.172  30.636  10.938
96437W        W59996  17.255  23.540   3.151
96438W        W59997  23.500  28.624  14.515
96439W        W59998  43.270   7.254   4.836
96440W        W59999  10.666   0.381  11.946
96441W        W60000  34.006  32.941   0.369
96442W        W60001  34.409  20.051   0.742
96443W        W60002  19.554  23.538  13.031
96444W        W60003  39.490   6.910  11.869
96445W        W60004   5.249  40.809   2.872
96446W        W60005   2.858  16.168   0.928
96447W        W60006   8.806  36.883  13.829
96448W        W60007   4.767  11.718   3.759
96449W        W60008  29.553   8.339  14.987
96450W        W60009  12.202  12.697   4.273
96451W        W60010  11.150   2.450   4.269
96452W        W60011   1.427  43.326  14.010
96453W        W60012   7.373  30.583   1.924
96454W        W60013  21.748  33.463  12.451
96455W        W60014  40.994  42.782   3.778
96456W        W60015   0.786  30.082  12.505
96457W        W60016   1.835  21.171   4.740
96458W        W60017  32.490  17.583  12.568
96459W        W60018   8.854  41.837  11.450
96460W        W60019  26.617  23.145  12.057
96461W        W60020  13.702  28.084  14.332
96462W        W60021  32.072  14.651   0.802
96463W        W60022  20.723  32.563  13.415
96464W        W60023  13.277   6.734  11.388
96465W        W60024  14.191  13.734   1.405
96466W        W60025  26.544  14.610  13.960
96467W        W60026   0.813   5.864   0.910
96468W        W60027  32.052  32.615  14.289
96469W        W60028  23.721   8.331  12.470
96470W        W60029   8.221  14.684   0.324
96471W        W60030  40.518  35.475   4.766
96472W        W60031  20.684   2.961  12.556
96473W        W60032   0.463  37.509  12.904
96474W        W60033  31.507  40.979   2.313
96475W        W60034   2.384   4.795  12.071
96476W        W60035  22.174  24.173   4.125
96477W        W60036   3.888  17.604  12.452
96478W        W60037  37.552  29.496   4.355
96479W        W60038  44.807  21.647   3.863
96480W        W60039  43.511  11.630   3.285
96481W        W60040  33.492  10.871  12.342
96482W        W60041  14.691  33.569  14.813
96483W        W60042  38.428  29.601   1.823
96484W        W60043  18.277  30.015  10.408
96485W        W60044  40.806   7.386   3.320
96486W        W60045  13.154  19.547   5.311
96487W        W60046  14.287   7.751  13.487
96488W        W60047  18.659  16.724  11.577
96489W        W60048  10.359  18.786  10.512
96490W        W60049  40.478   0.253  12.093
96491W        W60050  34.449  21.037   3.660
96492W        W60051  13.245  29.152   4.319
96493W        W60052   7.307  20.208   2.308
96494W        W60053  39.846  27.610   0.839
96495W        W60054  10.877  33.571  13.377
96496W        W60055  24.612  39.029   0.426
96497W        W60056   7.884  13.672  11.520
96498W        W60057  28.002  14.809  14.330
96499W        W60058  29.122  14.115  11.534
96500W        W60059  38.427  37.971  14.934
96501W        W60060   8.873  22.046  12.919
96502W        W60061  11.173   9.836   2.694
96503W        W60062  27.623  38.931   3.669
96504W        W60063  29.457  38.346   4.774
96505W        W60064  42.305   4.446   1.216
96506W        W60065   5.723  19.713  13.939
96507W        W60066  41.790   0.976   9.925
96508W        W60067  12.694   7.822  11.871
96509W        W60068  21.526  15.805   5.082
96510W        W60069  10.301   2.472  12.877
96511W        W60070  43.410  33.070   1.223
96512W        W60071   0.933  15.732   3.726
96513W        W60072  20.139   8.865  12.433
96514W        W60073  24.066  14.801  14.328
96515W        W60074  37.378  41.413   0.766
96516W        W60075  22.535  40.892   3.756
96517W        W60076  39.396  30.647  12.423
96518W        W60077   0.432  20.071  12.526
96519W        W60078   1.782  11.231  14.772
96520W        W60079   4.911  38.505  12.833
96521W        W60080  27.121  28.486   0.924
96522W        W60081  22.069  31.948   2.719
96523W        W60082  26.017  33.077  13.530
96524W        W60083  18.138  10.348   0.758
96525W        W60084  15.631  31.121   2.206
96526W        W60085  11.234  19.068   4.153
96527W        W60086  30.624  44.301  12.956
96528W        W60087  11.231  26.645  13.056
96529W        W60088  40.883  23.212  12.992
96530W        W60089  17.646  23.030   0.314
96531W        W60090   1.245  30.926  11.390
96532W        W60091  25.131  36.455   1.757
96533W        W60092   9.695  28.941   2.897
96534W        W60093  20.081  26.645   4.246
96535W        W60094  19.740  14.601  12.573
96536W        W60095  27.093  37.517   3.847
96537W        W60096  29.984  18.677   0.879
96538W        W60097  44.306  38.339   4.783
96539W        W60098   8.771  17.633   0.902
96540W        W60099  23.144   9.265  13.959
96541W        W60100   6.885  37.447  14.971
96542W        W60101  14.766  39.411   2.736
96543W        W60102  35.436  39.859   3.346
96544W        W60103  24.542   0.742   3.297
96545W        W60104  41.462   0.449  13.981
96546W        W60105  23.141  31.537   1.799
96547W        W60106  24.096   1.274   2.322
96548W        W60107   4.890  35.445  13.333
96549W        W60108  34.937  15.317  10.540
96550W        W60109  29.648  23.506  11.062
96551W        W60110  36.508  32.402  13.805
96552W        W60111  13.845  30.952  12.576
96553W        W60112   8.317  21.529  13.030
96554W        W60113  44.412  34.883   0.753
96555W        W60114  15.681  36.945  12.559
96556W        W60115   1.846  26.023   2.695
96557W        W60116   0.832  28.117  10.480
96558W        W60117  15.271  21.059   3.201
96559W        W60118  15.271  43.392  11.991
96560W        W60119  32.624   8.669  11.401
96561W        W60120  12.801  12.826   3.789
96562W        W60121   1.464  26.645  11.452
96563W        W60122   8.764  21.717  13.422
96564W        W60123  13.184  20.642  10.101
96565W        W60124  12.852  35.558   0.419
96566W        W60125  28.653  36.346   1.714
96567W        W60126   5.798  19.179   4.751
96568W        W60127  41.873  39.890  12.563
96569W        W60128   5.761   4.365  10.495
96570W        W60129   8.364   1.272  14.808
96571W        W60130   3.917  30.528   3.260
96572W        W60131  18.059  21.744   3.335
96573W        W60132  15.774   1.750   0.405
96574W        W60133  29.019  11.134  11.076
96575W        W60134   6.405   8.860   1.374
96576W        W60135  42.302   1.933   2.325
96577W        W60136  19.164   9.707   3.345
96578W        W60137  13.335  16.767  10.501
96579W        W60138  12.273  44.873  11.924
96580W        W60139  37.027  19.057   3.721
96581W        W60140   1.246  29.941  11.543
96582W        W60141  29.989  12.237  12.519
96583W        W60142  15.201  10.237   2.333
96584W        W60143  22.641  38.945  12.003
96585W        W60144  28.182  37.954   0.404
96586W        W60145   8.275  15.822  14.377
96587W        W60146  14.591  34.422  12.539
96588W        W60147  19.691  14.315  11.896
96589W        W60148  44.785   8.385   4.631
96590W        W60149   7.233  41.831  14.764
96591W        W60150  26.544   6.867   1.365
96592W        W60151  22.187  16.095   1.359
96593W        W60152  28.609  28.166   3.756
96594W        W60153   1.956  18.591   0.467
96595W        W60154  29.922  24.123  14.030
96596W        W60155  18.276  11.144   4.284
96597W        W60156  10.661  16.668   3.246
96598W        W60157  42.472  18.656  13.973
96599W        W60158  10.808   7.291   2.414
96600W        W60159   9.337  16.736   0.320
96601W        W60160   1.369  19.707   4.717
96602W        W60161  14.205  39.898   1.253
96603W        W60162  29.112  44.805  13.029
96604W        W60163   2.422  28.148   3.718
96605W        W60164   5.404   6.286   2.833
96606W        W60165  41.037  18.176   4.686
96607W        W60166  44.812  21.746  11.899
96608W        W60167  13.738   4.835   0.905
96609W        W60168   2.723  39.535   3.369
96610W        W60169  30.455  40.020  10.916
96611W        W60170  39.059  36.493   4.188
96612W        W60171  36.564  35.079   2.238
96613W        W60172  37.001  22.085   0.754
96614W        W60173  23.598   1.240   2.184
96615W        W60174  25.024   5.248  14.786
96616W        W60175   5.926  35.476   3.268
96617W        W60176   3.422  37.883   3.689
96618W        W60177  11.292  16.191  11.925
96619W        W60178   8.169   5.851   2.399
96620W        W60179   7.848  11.344   1.222
96621W        W60180   1.817  18.196  12.884
96622W        W60181  13.763  13.179  10.999
96623W        W60182   9.230  12.165   3.210
96624W        W60183  17.275  19.238   9.933
96625W        W60184  36.411  43.799   2.768
96626W        W60185   9.784  42.478   4.730
96627W        W60186   1.731   2.872  14.935
96628W        W60187  39.063  21.621  13.816
96629W        W60188  19.569  44.319  11.395
96630W        W60189  15.316   9.230   3.856
96631W        W60190  42.459   7.405   1.319
96632W        W60191  16.161  32.962   1.227
96633W        W60192  31.137  33.945   3.694
96634W        W60193  14.171   8.253   4.836
96635W        W60194  20.718  43.410   0.299
96636W        W60195  24.512  16.220  12.010
96637W        W60196  24.592  41.532  10.510
96638W        W60197   4.868   4.390   9.988
96639W        W60198  12.356  26.579  14.430
96640W        W60199   6.842  26.140   4.743
96641W        W60200  13.781   7.749   3.863
96642W        W60201  22.218  19.754  11.040
96643W        W60202  28.069  29.063   9.973
96644W        W60203  27.055   3.244  11.059
96645W        W60204  20.266  30.464   4.182
96646W        W60205   5.906  23.065  11.956
96647W        W60206  13.222   4.448  13.407
96648W        W60207   7.243  20.744   0.386
96649W        W60208  40.477  35.994  13.848
96650W        W60209  32.411  27.021   2.730
96651W        W60210  20.630  23.513  13.813
96652W        W60211  41.008   2.954   2.721
96653W        W60212  36.519   8.404   1.754
96654W        W60213  33.451  34.883  10.921
96655W        W60214  26.046  30.444  13.797
96656W        W60215  44.004   4.217   4.827
96657W        W60216   7.896  16.608  10.889
96658W        W60217  24.141  34.907   2.853
96659W        W60218  24.006  15.779  11.055
96660W        W60219  40.031   1.915   0.480
96661W        W60220   6.293  16.783  13.317
96662W        W60221  17.669   5.829   0.747
96663W        W60222  31.067   4.724   3.653
96664W        W60223  41.898   5.250  13.431
96665W        W60224   7.291  25.598  11.511
96666W        W60225  44.465   7.353  10.101
96667W        W60226  43.767  40.854  11.899
96668W        W60227   6.360  17.254   4.289
96669W        W60228  32.585  21.179  13.048
96670W        W60229  14.232  42.973  12.511
96671W        W60230  41.790  29.610   3.833
96672W        W60231  14.662  12.675  10.088
96673W        W60232  12.306  26.698  12.885
96674W        W60233  24.138  26.097  13.849
96675W        W60234   7.376  36.499  13.967
96676W        W60235  39.064   5.400  10.902
96677W        W60236   6.364  31.559   4.342
96678W        W60237  16.695  28.948  12.562
96679W        W60238  19.713  25.517  13.495
96680W        W60239  14.217  32.605  12.554
96681W        W60240  41.981   9.655  10.917
96682W        W60241  23.241   7.355  13.328
96683W        W60242  15.240  28.081   2.262
96684W        W60243  30.492  36.845   3.705
96685W        W60244  38.860  28.605  14.365
96686W        W60245   8.385   4.710   2.791
96687W        W60246  40.509  41.021  14.835
96688W        W60247  42.012  26.201  14.360
96689W        W60248  27.168  32.531   1.804
96690W        W60249   9.244  10.853   9.607
96691W        W60250  22.025  26.573  13.011
96692W        W60251  21.206   9.820  12.350
96693W        W60252  18.256   3.308  13.494
96694W        W60253  25.006  38.015  13.036
96695W        W60254  17.749  28.439  11.919
96696W        W60255   0.449   7.274  13.487
96697W        W60256  35.912  35.980  13.823
96698W        W60257   6.279   9.185   4.699
96699W        W60258  12.805  26.470  10.927
96700W        W60259  37.477  20.266  11.042
96701W        W60260  27.152  17.145  13.523
96702W        W60261  12.638   7.277   3.294
96703W        W60262  21.221   7.372   2.851
96704W        W60263  27.186   7.721  12.534
96705W        W60264  17.698  17.770   3.256
96706W        W60265  32.499  16.766   1.251
96707W        W60266  27.033   0.424  14.844
96708W        W60267   3.248  33.961   3.845
96709W        W60268  19.277  19.079  11.606
96710W        W60269   8.734   3.350  13.342
96711W        W60270  25.699  27.126   1.721
96712W        W60271   4.754   5.335  11.991
96713W        W60272  41.293  18.641   2.401
96714W        W60273  18.570   8.383   3.802
96715W        W60274   6.219  11.676   3.788
96716W        W60275  40.438   9.234  12.930
96717W        W60276   9.316   6.326  12.942
96718W        W60277  17.207   6.865  11.550
96719W        W60278  16.748  25.702   0.904
96720W        W60279  19.620  17.656   2.898
96721W        W60280  18.546  12.330  11.968
96722W        W60281  42.306  34.599   0.381
96723W        W60282  44.901   4.867   3.247
96724W        W60283   5.239   1.829  13.871
96725W        W60284  15.658  16.728  12.930
96726W        W60285  36.359  33.554  13.026
96727W        W60286  19.547  18.555   1.695
96728W        W60287  12.685   3.860   2.310
96729W        W60288  42.856  38.851   0.340
96730W        W60289  21.086   5.828   2.858
96731W        W60290   9.876   0.950  13.983
96732W        W60291  30.159  22.659   3.782
96733W        W60292  35.109  44.827   3.309
96734W        W60293   6.840   6.332   4.124
96735W        W60294  36.019  12.191  14.848
96736W        W60295  33.497  37.387  13.954
96737W        W60296  24.047  26.990   2.698
96738W        W60297   9.251  17.197   3.795
96739W        W60298  31.055   5.691   0.740
96740W        W60299  27.191   7.748  13.521
96741W        W60300   2.964  21.702  14.879
96742W        W60301  42.462  44.996   3.350
96743W        W60302  24.694  13.214  11.566
96744W        W60303   2.359  25.130   4.191
96745W        W60304  34.453   5.774  11.973
96746W        W60305  24.650  35.972   3.245
96747W        W60306   5.898  37.984   0.765
96748W        W60307  29.436  26.676   4.137
96749W        W60308  25.051  21.105  10.948
96750W        W60309   3.233  29.462   2.225
96751W        W60310  17.216  41.476   5.300
96752W        W60311  37.980  10.201  10.551
96753W        W60312  42.967  20.662  11.945
96754W        W60313  19.130   0.776  11.052
96755W        W60314  18.653  19.218   4.250
96756W        W60315  41.502  37.503  11.407
96757W        W60316   8.240  40.463  12.459
96758W        W60317   5.868   3.775   2.752
96759W        W60318  22.154  18.185  10.892
96760W        W60319  31.551  21.030   3.167
96761W        W60320   8.374  28.644   4.288
96762W        W60321  42.341  13.119   1.892
96763W        W60322  17.089  17.225   5.220
96764W        W60323  39.831  24.699   0.358
96765W        W60324   8.228  12.621   1.353
96766W        W60325  33.496   5.362   1.698
96767W        W60326  41.911  18.733   3.657
96768W        W60327   0.977  17.591   1.777
96769W        W60328  14.814  43.429  13.533
96770W        W60329   3.235  11.314   1.370
96771W        W60330  18.163  28.995  14.969
96772W        W60331  18.717   4.743   0.963
96773W        W60332   8.656  26.571  11.035
96774W        W60333   3.387   5.257   4.752
96775W        W60334  18.675  22.608  11.508
96776W        W60335  43.413  30.064   4.156
96777W        W60336   7.397   4.351   1.329
96778W        W60337  39.947   8.773   5.120
96779W        W60338  18.659  41.350  11.882
96780W        W60339  11.815  34.948  14.844
96781W        W60340  10.293  41.991   3.656
96782W        W60341   2.825  21.617  11.915
96783W        W60342  27.091  40.449  12.091
96784W        W60343  13.692   5.313   3.190
96785W        W60344  35.384  10.217   2.254
96786W        W60345  26.459  40.918   4.715
96787W        W60346  28.077   2.752  10.587
96788W        W60347  37.409  14.308   0.917
96789W        W60348   2.453  32.022  14.315
96790W        W60349  19.549  21.635   0.414
96791W        W60350   4.909   4.431  11.914
96792W        W60351  43.832  24.676   2.218
96793W        W60352   5.835   3.783   1.799
96794W        W60353   2.231  35.483  13.498
96795W        W60354  10.260  35.473   1.787
96796W        W60355  16.132  18.595  12.942
96797W        W60356  40.879  14.339  11.875
96798W        W60357   0.860  29.921  13.919
96799W        W60358  20.112  44.263  11.894
96800W        W60359  23.566  27.064   2.732
96801W        W60360  15.629  23.224  10.014
96802W        W60361  43.950  16.752  13.535
96803W        W60362  41.874  11.310  12.916
96804W        W60363   3.849  31.958  12.092
96805W        W60364   7.718  33.005   4.122
96806W        W60365  10.315   6.193   0.784
96807W        W60366   2.763  36.094  12.954
96808W        W60367  39.019  34.871   3.377
96809W        W60368  37.392   1.318  13.966
96810W        W60369  36.473   9.664   1.322
96811W        W60370  26.545  25.077  13.791
96812W        W60371  32.589  40.465   0.406
96813W        W60372   3.887  35.578   0.349
96814W        W60373   0.817  42.314  13.417
96815W        W60374  37.487   5.933  13.462
96816W        W60375  21.701   4.746  11.447
96817W        W60376  17.706   2.358  11.862
96818W        W60377   3.421  20.648  10.599
96819W        W60378  26.509   5.725   0.880
96820W        W60379  33.444  31.997   4.715
96821W        W60380  38.021  30.159  13.981
96822W        W60381  42.401  27.653   0.326
96823W        W60382   7.197  20.580  12.013
96824W        W60383  42.863  23.081   0.329
96825W        W60384   8.224  18.250  14.944
96826W        W60385  34.369   2.964   2.820
96827W        W60386   9.326  38.057   3.869
96828W        W60387   2.350   2.429   2.251
96829W        W60388  39.465  44.006   0.283
96830W        W60389  23.050   9.814   2.882
96831W        W60390  40.495  42.317  12.554
96832W        W60391   6.746   8.722   1.868
96833W        W60392  13.756   5.918  12.949
96834W        W60393  15.698  30.117   2.716
96835W        W60394   9.258  15.593   3.250
96836W        W60395  34.924  12.327   4.704
96837W        W60396  13.603  23.492  10.564
96838W        W60397  28.443  40.021   0.960
96839W        W60398  20.033   8.317  13.049
96840W        W60399   2.254  37.337  11.481
96841W        W60400  41.951   9.821   0.243
96842W        W60401  27.503  29.002   3.296
96843W        W60402  34.483   6.198   4.703
96844W        W60403  18.263   1.971  10.923
96845W        W60404  24.126  34.381   2.283
96846W        W60405  10.189  39.913  14.894
96847W        W60406  30.163  19.641  13.001
96848W        W60407   1.759  20.034   2.710
96849W        W60408   9.690  30.620   3.250
96850W        W60409  29.535  34.958  14.860
96851W        W60410  44.458  38.336   2.214
96852W        W60411  31.611  30.978  10.481
96853W        W60412  20.571  24.084  12.428
96854W        W60413  44.456   8.820   1.336
96855W        W60414   3.229  39.487  11.377
96856W        W60415  11.142   0.925  13.807
96857W        W60416  44.803  12.161  14.507
96858W        W60417  17.096  39.994   4.217
96859W        W60418  17.147  18.721   2.335
96860W        W60419  16.207  14.226   3.670
96861W        W60420  16.279  25.577   4.337
96862W        W60421  23.575   4.910  10.510
96863W        W60422  41.920   9.341  14.807
96864W        W60423  30.516  42.869  12.979
96865W        W60424  14.160   9.342  13.519
96866W        W60425   4.914   7.187  13.526
96867W        W60426  36.583   8.406  14.912
96868W        W60427   1.743  32.998   3.705
96869W        W60428  24.116  20.032  12.395
96870W        W60429  43.799   4.270  12.898
96871W        W60430  30.539  25.031   0.894
96872W        W60431  18.262  36.497   4.122
96873W        W60432  24.039  23.189  14.467
96874W        W60433  35.459  38.064  10.639
96875W        W60434  21.657   0.488   0.482
96876W        W60435  28.147  42.870   0.829
96877W        W60436   4.913  14.095   4.258
96878W        W60437  37.405  44.990  10.585
96879W        W60438  33.504  40.358   2.769
96880W        W60439  27.957  23.494   4.347
96881W        W60440  30.056  25.535  14.031
96882W        W60441  33.100  13.762  13.879
96883W        W60442  15.757   2.815  10.888
96884W        W60443   3.422  28.621  11.603
96885W        W60444  28.005  33.581  14.815
96886W        W60445  38.073  40.842   0.846
96887W        W60446  18.162  36.975  14.977
96888W        W60447   3.789   0.318  13.870
96889W        W60448  31.065  12.300  12.013
96890W        W60449  14.744  23.551  12.928
96891W        W60450   8.193   5.927  12.092
96892W        W60451  40.920  17.742   3.667
96893W        W60452   7.347   5.896  11.375
96894W        W60453   4.223  23.521  11.521
96895W        W60454  33.462  41.504  11.453
96896W        W60455  27.689  26.548   1.412
96897W        W60456  16.080  22.996  12.840
96898W        W60457   2.889  43.998   1.344
96899W        W60458  44.004  42.476   0.728
96900W        W60459   5.312  14.192  14.337
96901W        W60460   6.428  34.026  14.758
96902W        W60461  40.993  33.385  13.901
96903W        W60462   7.880  30.461  13.015
96904W        W60463  25.109  19.221  13.482
96905W        W60464  42.879  26.476   1.731
96906W        W60465  17.127  41.469   0.278
96907W        W60466  17.717  29.170  10.519
96908W        W60467  21.536  17.168  14.827
96909W        W60468  34.553  41.296  13.905
96910W        W60469  10.199   9.185  12.526
96911W        W60470  42.904   3.858   1.326
96912W        W60471  39.528  37.552   4.230
96913W        W60472  30.597   7.758   3.848
96914W        W60473   0.415  11.287   0.844
96915W        W60474  38.399  23.610  12.848
96916W        W60475  27.599   6.677   4.712
96917W        W60476  19.564  39.936   2.807
96918W        W60477   4.734  39.044   3.156
96919W        W60478  31.558  21.699  13.950
96920W        W60479  29.429  39.345   1.891
96921W        W60480  43.815  11.771   3.636
96922W        W60481   8.258   0.476   2.777
96923W        W60482  10.317  34.869  13.425
96924W        W60483  24.717  36.884   1.309
96925W        W60484  26.539  25.543   2.210
96926W        W60485  40.970  17.627  14.845
96927W        W60486  36.575   8.703  12.901
96928W        W60487   2.273   1.850   9.928
96929W        W60488  12.178  33.480   3.725
96930W        W60489   9.261  26.637   0.819
96931W        W60490  23.986  32.092   4.831
96932W        W60491  33.060  38.030   3.315
96933W        W60492  17.789   3.376   3.300
96934W        W60493   7.334  12.734   4.272
96935W        W60494  11.642  43.945   4.814
96936W        W60495  38.860  26.512   3.147
96937W        W60496  17.727   5.238   3.716
96938W        W60497  41.949  17.246   0.831
96939W        W60498  30.455   2.732   4.254
96940W        W60499   5.436   8.868   2.194
96941W        W60500  19.570  35.891   1.815
96942W        W60501  43.311  10.360   1.836
96943W        W60502  20.167   8.165  14.893
96944W        W60503  11.359  12.360   0.831
96945W        W60504  26.078  31.001   4.153
96946W        W60505   0.860  28.679   1.705
96947W        W60506   5.333   1.958   4.148
96948W        W60507   4.787   5.238  11.496
96949W        W60508  40.835  36.495   2.901
96950W        W60509   1.329  23.682  11.388
96951W        W60510  23.113  39.052  13.500
96952W        W60511  38.964  38.004   3.765
96953W        W60512   9.224  36.574   1.367
96954W        W60513  15.705  26.461  10.519
96955W        W60514  24.573  36.502  14.959
96956W        W60515  25.991  39.950  12.533
96957W        W60516  40.969  30.531   4.736
96958W        W60517  14.673  34.496  11.570
96959W        W60518  23.722  29.967   0.331
96960W        W60519  35.550  10.209  12.077
96961W        W60520  15.254  19.151   1.746
96962W        W60521  12.149  10.844  11.507
96963W        W60522  36.506  20.640  11.533
96964W        W60523  29.109  27.196   2.880
96965W        W60524  43.455  24.601  12.547
96966W        W60525   1.830  23.543   1.220
96967W        W60526  21.087  17.701   0.479
96968W        W60527   6.393   1.388   2.342
96969W        W60528  31.073  14.204  14.352
96970W        W60529  40.028   2.900  14.274
96971W        W60530  29.947  39.911  14.894
96972W        W60531   4.804  33.586  10.992
96973W        W60532  14.785  34.436   0.243
96974W        W60533  40.021  12.287  12.480
96975W        W60534  41.957  41.537   5.291
96976W        W60535  32.094  23.112   1.409
96977W        W60536  34.912   2.795   0.398
96978W        W60537  15.610   1.355  12.980
96979W        W60538  10.797  24.554  10.150
96980W        W60539   1.283  35.509   1.433
96981W        W60540  16.722  30.014   2.711
96982W        W60541  44.294   7.771   5.198
96983W        W60542  12.818  40.347  13.454
96984W        W60543  23.709  15.221   2.672
96985W        W60544  29.523  11.239  11.567
96986W        W60545  25.087   7.689   1.358
96987W        W60546  17.301  21.259  13.368
96988W        W60547  34.521   8.355   4.324
96989W        W60548  30.980  32.472   3.652
96990W        W60549  34.974  15.659  13.817
96991W        W60550  26.517  13.749  10.434
96992W        W60551  27.078  22.600  13.362
96993W        W60552   6.305  40.529   1.327
96994W        W60553  11.223  35.454  10.902
96995W        W60554  30.909  33.520   0.445
96996W        W60555  43.340  10.734  14.384
96997W        W60556   3.871  34.489   2.333
96998W        W60557  42.852   0.470   2.410
96999W        W60558  23.719  16.671  10.405
97000W        W60559  15.320  23.070  14.767
97001W        W60560  18.763  11.634  13.966
97002W        W60561  17.075  18.686  13.424
97003W        W60562  33.403   5.307   1.379
97004W        W60563  18.597  43.361  11.874
97005W        W60564  15.804  14.257   2.391
97006W        W60565  17.225  43.363   0.836
97007W        W60566  37.517   4.805   2.874
97008W        W60567  15.273  22.710   1.881
97009W        W60568  18.570  34.113   3.217
97010W        W60569  39.466  23.065   1.352
97011W        W60570  23.228  21.132   3.246
97012W        W60571  38.415  30.465   2.216
97013W        W60572  24.108  26.008  10.529
97014W        W60573  31.517  12.698  12.493
97015W        W60574  10.332  18.142  11.522
97016W        W60575  28.953   4.873  11.990
97017W        W60576   1.738  23.988  14.021
97018W        W60577  15.186   7.733   2.240
97019W        W60578   2.794  36.460   4.342
97020W        W60579   3.807  18.229  10.485
97021W        W60580  11.132  26.499   2.266
97022W        W60581  12.154   3.720   4.779
97023W        W60582  24.125  42.997  11.527
97024W        W60583  43.467   3.246  12.504
97025W        W60584  40.506   4.871  11.572
97026W        W60585   1.276  10.345  13.469
97027W        W60586  13.821  34.051  10.447
97028W        W60587  20.616  44.844  13.993
97029W        W60588  28.662  23.605  10.642
97030W        W60589  32.455  17.206  11.390
97031W        W60590  27.589  37.011   2.265
97032W        W60591   8.170  29.425   2.296
97033W        W60592   0.406  24.999   3.373
97034W        W60593   3.771  38.929  11.864
97035W        W60594  29.045  40.055   5.789
97036W        W60595  42.905  19.593   9.972
97037W        W60596  22.732   7.273   5.299
97038W        W60597   7.700  33.486   2.675
97039W        W60598  38.528   2.772  13.450
97040W        W60599   5.222  10.280  12.049
97041W        W60600  27.492   7.868   0.941
97042W        W60601  31.966  15.255   1.871
97043W        W60602   3.379  15.268  11.559
97044W        W60603  22.729  30.047   0.301
97045W        W60604   8.223   9.317  10.930
97046W        W60605  29.048  42.925   2.765
97047W        W60606  17.655  13.263  10.501
97048W        W60607  35.924   6.227  11.864
97049W        W60608  44.378  15.670   5.182
97050W        W60609   1.256  15.282  12.407
97051W        W60610  14.165  13.841  12.958
97052W        W60611  43.395  23.523   0.851
97053W        W60612   3.450  34.465   2.379
97054W        W60613  28.494  20.220   1.747
97055W        W60614  26.063  36.493  11.013
97056W        W60615   7.367  44.952  13.804
97057W        W60616  29.602  36.935   1.443
97058W        W60617  24.566  17.717  10.447
97059W        W60618  15.626   1.861   4.324
97060W        W60619  32.045  20.582  14.482
97061W        W60620  11.268  22.185   1.807
97062W        W60621  14.217  26.008  13.447
97063W        W60622  31.528  23.649   1.394
97064W        W60623  12.251  15.199  10.418
97065W        W60624  42.380  37.420   2.402
97066W        W60625  39.436  15.645  14.463
97067W        W60626  32.521  43.299   2.365
97068W        W60627  31.125  10.726   1.890
97069W        W60628  44.295  34.458   4.832
97070W        W60629   9.289   4.226   4.731
97071W        W60630  40.444   1.935  10.046
97072W        W60631  23.492  32.399   4.248
97073W        W60632  15.676  21.263  13.989
97074W        W60633  30.602  11.781  14.449
97075W        W60634  10.741  39.929  13.911
97076W        W60635  34.374   5.226  11.960
97077W        W60636  36.041  10.150  12.557
97078W        W60637  44.443  24.074   2.753
97079W        W60638   6.418  36.540   0.896
97080W        W60639  21.661  10.224  10.490
97081W        W60640  33.551  29.047   3.246
97082W        W60641  39.415  22.226   0.385
97083W        W60642  29.628  14.726   0.901
97084W        W60643  42.470  12.121   0.920
97085W        W60644   1.933  11.176   0.950
97086W        W60645  15.175  27.127   4.163
97087W        W60646  14.630  34.559  11.864
97088W        W60647  20.712   5.747  11.030
97089W        W60648  18.168  14.597   2.302
97090W        W60649   2.365  30.143   1.704
97091W        W60650   4.714  44.780  14.349
97092W        W60651  42.924  38.941   4.633
97093W        W60652  13.627  24.991  10.974
97094W        W60653  20.094  35.588  12.421
97095W        W60654  13.305  11.730  14.361
97096W        W60655  19.622   5.843  13.816
97097W        W60656  35.017  10.678   2.737
97098W        W60657  31.540  14.148  12.863
97099W        W60658  35.020   3.419  13.421
97100W        W60659  26.489  18.212  12.936
97101W        W60660   8.769  20.705  12.077
97102W        W60661  37.424   9.648  14.018
97103W        W60662  18.139  41.395  13.327
97104W        W60663  11.311  11.140  11.491
97105W        W60664   9.388  17.274   9.991
97106W        W60665  34.075  16.215  13.009
97107W        W60666  35.025  24.587  12.541
97108W        W60667   5.371  16.270  14.930
97109W        W60668  40.911   0.401  11.438
97110W        W60669  36.002  22.241   4.786
97111W        W60670   2.306   1.438   1.245
97112W        W60671  44.771   4.246  12.086
97113W        W60672  36.574  16.137  10.408
97114W        W60673  43.833  42.782  14.761
97115W        W60674  13.666  22.044  13.362
97116W        W60675  42.397  24.031  14.308
97117W        W60676  11.742   5.257   1.848
97118W        W60677  13.117   1.760  14.344
97119W        W60678  35.034  17.775   4.805
97120W        W60679  37.983  24.992   2.302
97121W        W60680   1.325  42.347  12.901
97122W        W60681  39.419  43.340  13.961
97123W        W60682   0.950   7.294   4.240
97124W        W60683  24.630  23.496   2.327
97125W        W60684  18.111   5.224   1.282
97126W        W60685  28.468  14.816   2.752
97127W        W60686  17.592  35.923   0.347
97128W        W60687  15.813  34.925  12.858
97129W        W60688   3.405   0.981  12.345
97130W        W60689  18.659   1.343  13.046
97131W        W60690  23.511  39.931   2.826
97132W        W60691  28.174  15.674  10.095
97133W        W60692  13.727  28.058   0.344
97134W        W60693  34.875   6.341   4.809
97135W        W60694  18.631  39.521  13.857
97136W        W60695  28.566  15.630  10.525
97137W        W60696   5.876   6.895   4.253
97138W        W60697  34.533  41.469   4.633
97139W        W60698  33.032  16.083   0.429
97140W        W60699  28.941  20.231  12.064
97141W        W60700  13.206  30.988   4.178
97142W        W60701  23.718   2.766  13.030
97143W        W60702  30.007  12.245  14.828
97144W        W60703  11.146  29.579  10.480
97145W        W60704  29.933  38.333   1.752
97146W        W60705   5.320  10.346   0.831
97147W        W60706   2.823   5.821   3.312
97148W        W60707  19.190  44.839   0.328
97149W        W60708   9.799  14.267  14.810
97150W        W60709  28.977  17.204   4.348
97151W        W60710  35.476   5.703  12.917
97152W        W60711  39.949  43.396  11.611
97153W        W60712   1.438   3.732   1.228
97154W        W60713  13.122   9.841  14.329
97155W        W60714  33.427  28.636  10.426
97156W        W60715  33.930  30.953   1.413
97157W        W60716   2.423  30.604   3.807
97158W        W60717  24.167  34.061  12.474
97159W        W60718  38.071  21.721   2.879
97160W        W60719  18.063  13.245   0.455
97161W        W60720  43.404  23.155   1.253
97162W        W60721   5.785  36.494  12.503
97163W        W60722  13.802   6.832  10.982
97164W        W60723  10.718  20.673   3.721
97165W        W60724  19.186  15.106   4.256
97166W        W60725   8.793  31.519   0.391
97167W        W60726  11.651  19.234  13.401
97168W        W60727  44.770   5.893  14.994
97169W        W60728  31.114  26.035  13.494
97170W        W60729  37.862  34.548   1.280
97171W        W60730  32.997   9.361   1.431
97172W        W60731  38.502  12.786   3.239
97173W        W60732  25.093  40.880  12.059
97174W        W60733  18.062   2.302  11.919
97175W        W60734   2.377  18.145  11.598
97176W        W60735  38.938   7.836   4.763
97177W        W60736  27.663  15.237  14.030
97178W        W60737  29.535  38.403   4.313
97179W        W60738  29.045  13.844  12.502
97180W        W60739  13.111   3.714   3.785
97181W        W60740  30.152  33.124  11.521
97182W        W60741  35.882  12.820   4.286
97183W        W60742  24.190   2.737  12.883
97184W        W60743  20.733  33.536   3.272
97185W        W60744  31.103  18.058   3.661
97186W        W60745  11.746  19.747  12.881
97187W        W60746  24.583  22.560  14.786
97188W        W60747  38.974  15.117  13.375
97189W        W60748  19.658   1.397   0.963
97190W        W60749  10.146  30.086   2.795
97191W        W60750  29.443  32.036   5.296
97192W        W60751  43.460   3.732  14.362
97193W        W60752  23.688  26.695   4.285
97194W        W60753  30.425  29.048   3.183
97195W        W60754  27.151  37.835  13.432
97196W        W60755   4.941  38.916  12.841
97197W        W60756  25.199  26.525   4.124
97198W        W60757   2.312  16.762  12.829
97199W        W60758  38.968  14.324   3.237
97200W        W60759  29.947  13.311  14.346
97201W        W60760  44.291   3.282  11.930
97202W        W60761  29.519   1.367   2.269
97203W        W60762   2.340   8.264   0.791
97204W        W60763  14.780  16.655   0.361
97205W        W60764  18.263  40.309   3.370
97206W        W60765  21.571  17.144  14.491
97207W        W60766  17.253  39.354  12.045
97208W        W60767  43.286   2.934   4.608
97209W        W60768  39.904  44.837   0.910
97210W        W60769  44.347  27.074   1.774
97211W        W60770  33.086  10.246   9.923
97212W        W60771  43.001  41.429   3.824
97213W        W60772  14.219  35.011   4.727
97214W        W60773  13.767   9.182  14.290
97215W        W60774  25.473  25.049   1.883
97216W        W60775  14.294  43.810   4.716
97217W        W60776  18.277   6.265  12.390
97218W        W60777  24.045  24.713  10.576
97219W        W60778  41.330   1.797  13.332
97220W        W60779  31.429  33.066  10.930
97221W        W60780  44.974  15.784  14.909
97222W        W60781  27.534  35.883   3.165
97223W        W60782  20.665  11.792  11.466
97224W        W60783  39.427  21.519  11.876
97225W        W60784   8.219  41.891  11.996
97226W        W60785  35.429  38.456  10.421
97227W        W60786  41.017  27.982   2.693
97228W        W60787  32.500   8.748  12.076
97229W        W60788   4.924   6.317   5.116
97230W        W60789   0.860  32.030   2.336
97231W        W60790  16.745   3.360  14.993
97232W        W60791   7.789  22.066   4.721
97233W        W60792  43.329  34.034  12.048
97234W        W60793  20.721  38.402   4.713
97235W        W60794   2.414   9.763  13.519
97236W        W60795  14.804  39.502  10.554
97237W        W60796   8.814  23.531   2.332
97238W        W60797  38.987  42.380   1.932
97239W        W60798  37.833   7.911  12.497
97240W        W60799  11.813  21.103  11.490
97241W        W60800  13.239  26.680   3.662
97242W        W60801  34.528  14.147  14.952
97243W        W60802  26.648  18.556   5.269
97244W        W60803  28.660  38.903   4.254
97245W        W60804  19.266  14.824   1.374
97246W        W60805   7.225  24.028   4.603
97247W        W60806  23.659  42.336   3.639
97248W        W60807  42.994   4.291   1.823
97249W        W60808  38.530  15.276   1.796
97250W        W60809  16.281  24.518  13.993
97251W        W60810  30.955  15.580  12.503
97252W        W60811  38.520  30.956  13.331
97253W        W60812   3.867   9.807   3.798
97254W        W60813  19.759  12.739   2.309
97255W        W60814  19.680   8.807  11.046
97256W        W60815  36.417  37.519   1.810
97257W        W60816  16.616  24.169  11.612
97258W        W60817  23.039  10.221  14.404
97259W        W60818  16.727  37.002   3.658
97260W        W60819  33.498  15.620  12.891
97261W        W60820  36.887  28.595  12.872
97262W        W60821  36.044  35.066  12.027
97263W        W60822   9.708   6.312  14.800
97264W        W60823  42.360  17.116  10.570
97265W        W60824  24.050  37.373  14.860
97266W        W60825  24.030  12.665   1.298
97267W        W60826  20.223   0.877   5.084
97268W        W60827  33.531   8.342  13.891
97269W        W60828   2.875  31.560  12.433
97270W        W60829   9.374  14.114   2.796
97271W        W60830   6.225  31.518  13.907
97272W        W60831  14.212  12.753  13.363
97273W        W60832  35.599  26.489  11.409
97274W        W60833  39.901   0.872   2.686
97275W        W60834  11.713  44.282  13.320
97276W        W60835  31.960   3.853  12.970
97277W        W60836  31.050  14.602   3.691
97278W        W60837  15.773  27.488   1.816
97279W        W60838  24.583  32.094  11.024
97280W        W60839   5.360  34.029   4.626
97281W        W60840  24.009  24.624  11.055
97282W        W60841  26.162  43.870  14.338
97283W        W60842  21.145  38.995   2.735
97284W        W60843  10.691  32.459  10.411
97285W        W60844  32.535  27.021   0.927
97286W        W60845  24.533  11.808  13.347
97287W        W60846  18.189  13.315   3.771
97288W        W60847  37.844   0.790  12.549
97289W        W60848  25.182  21.557   3.356
97290W        W60849   2.780   4.859   3.335
97291W        W60850  20.752  13.771   4.285
97292W        W60851  28.957  24.045  11.993
97293W        W60852  44.801   0.902  12.416
97294W        W60853  34.420   1.901  12.546
97295W        W60854  27.156   9.718   3.164
97296W        W60855  34.524  17.802  10.944
97297W        W60856  42.820  33.471   4.599
97298W        W60857   6.735  23.514  10.490
97299W        W60858  32.632  18.067  12.526
97300W        W60859  18.266  37.476   0.883
97301W        W60860  36.363  37.444  11.537
97302W        W60861  40.491  18.197  12.396
97303W        W60862   3.789  27.669  13.523
97304W        W60863  23.997  32.535   1.337
97305W        W60864   7.174  26.155  11.505
97306W        W60865  14.168  15.747  11.529
97307W        W60866  38.406  31.599   5.261
97308W        W60867   5.896  11.231  13.898
97309W        W60868  10.822  40.353   0.741
97310W        W60869  22.088  10.716  14.904
97311W        W60870  31.108  42.307   1.283
97312W        W60871   1.756  22.690   0.775
97313W        W60872   4.798  38.483  13.398
97314W        W60873   7.237  12.341   4.345
97315W        W60874   5.737  32.507  14.901
97316W        W60875   0.958  39.555  11.541
97317W        W60876   5.772  15.197   1.261
97318W        W60877  37.015  38.329  10.593
97319W        W60878  30.651  33.889  13.369
97320W        W60879  17.568  42.986   2.245
97321W        W60880  37.343  10.669  13.469
97322W        W60881  19.050  34.597  14.436
97323W        W60882  24.560  27.597   0.431
97324W        W60883  27.052  21.171   5.765
97325W        W60884  22.743   1.850   1.215
97326W        W60885  18.583  15.315   2.242
97327W        W60886   2.871  16.688  12.876
97328W        W60887  27.692   8.311   1.761
97329W        W60888  41.825  37.390   0.357
97330W        W60889  28.147   0.753  10.478
97331W        W60890  20.747   7.365   2.357
97332W        W60891  21.259  31.449   2.282
97333W        W60892  22.719  14.759   3.202
97334W        W60893  41.918   3.344   1.724
97335W        W60894  20.710  23.217  11.985
97336W        W60895  23.590  41.868   2.410
97337W        W60896  38.408   9.276  12.930
97338W        W60897  10.142  24.601  12.951
97339W        W60898  41.338   5.704  12.046
97340W        W60899  43.414   7.892   2.267
97341W        W60900  11.197   1.974  12.058
97342W        W60901  31.521   3.852   2.749
97343W        W60902  33.615  21.216   1.295
97344W        W60903  35.593  37.047   0.362
97345W        W60904   2.335  12.236  13.923
97346W        W60905  44.879  31.974  11.105
97347W        W60906  16.138  39.005  11.864
97348W        W60907   1.900  10.795   2.788
97349W        W60908   1.357  25.711  14.912
97350W        W60909   9.303  13.260   2.344
97351W        W60910  19.094  29.457  14.862
97352W        W60911  41.870  24.091  12.076
97353W        W60912   5.771  10.632   0.287
97354W        W60913  44.376  31.614  13.854
97355W        W60914  44.851  36.996   2.416
97356W        W60915  18.628  11.768   2.319
97357W        W60916  36.065  37.087  11.084
97358W        W60917  34.954  11.327   0.290
97359W        W60918  37.451  31.419   2.300
97360W        W60919   9.686   8.269  12.399
97361W        W60920  30.151  28.515  14.934
97362W        W60921  18.681   7.375   5.135
97363W        W60922  22.046  28.086  13.056
97364W        W60923  37.438   5.222   3.245
97365W        W60924   6.837  23.225  14.945
97366W        W60925  20.242  22.707   3.302
97367W        W60926  39.450  39.486  12.454
97368W        W60927  38.336  30.504  12.846
97369W        W60928  17.613  34.372   2.755
97370W        W60929   2.371  42.386   0.739
97371W        W60930  24.681   2.896   2.235
97372W        W60931  34.428  25.967  14.473
97373W        W60932  21.720  31.983  13.417
97374W        W60933  36.094  23.180  11.118
97375W        W60934  16.652  41.469  12.020
97376W        W60935   3.717   9.857  13.431
97377W        W60936  44.953  18.559   1.841
97378W        W60937  37.980  13.670  14.433
97379W        W60938   7.911  40.341  13.517
97380W        W60939   3.377   6.350  13.531
97381W        W60940  43.991  36.348   1.338
97382W        W60941  30.970  12.800   1.884
97383W        W60942  37.930  14.330   1.700
97384W        W60943  18.161  18.714   4.298
97385W        W60944   1.740   4.245  14.016
97386W        W60945  44.857   4.216   2.899
97387W        W60946   9.747  31.044  14.000
97388W        W60947  24.507  29.494   3.647
97389W        W60948  37.336  33.445  12.450
97390W        W60949  20.175  26.995  12.094
97391W        W60950  31.458  28.091  13.810
97392W        W60951  30.647  31.433   4.786
97393W        W60952  20.182  33.003   4.742
97394W        W60953  37.432   8.301  11.084
97395W        W60954  28.597   3.791   0.243
97396W        W60955  16.109  18.124  12.512
97397W        W60956  44.930  22.184  14.878
97398W        W60957  33.571  17.120  14.030
97399W        W60958  12.117  44.370   2.182
97400W        W60959  35.891  19.766   1.817
97401W        W60960   4.362   6.795  13.968
97402W        W60961  15.590  36.349   4.743
97403W        W60962  22.600  31.028   0.281
97404W        W60963  11.249  35.025  11.594
97405W        W60964  30.134  42.487   1.258
97406W        W60965   1.923  30.608   0.405
97407W        W60966   9.373  42.925   3.765
97408W        W60967  24.592   7.801   0.874
97409W        W60968  16.264  28.490  13.364
97410W        W60969  29.934  14.259  11.491
97411W        W60970  32.139  34.925  13.497
97412W        W60971  39.001  13.828  12.994
97413W        W60972   1.870   8.166   3.286
97414W        W60973  26.025  35.090   1.765
97415W        W60974  34.055   7.808   2.809
97416W        W60975   4.753   6.293   4.348
97417W        W60976  29.957  13.688   4.628
97418W        W60977  41.446  32.923   0.324
97419W        W60978  30.516  22.734  13.802
97420W        W60979   7.734  39.883   9.930
97421W        W60980  41.394  42.789   2.830
97422W        W60981  26.995   9.757   1.373
97423W        W60982   8.840  35.411   5.111
97424W        W60983  42.825   1.411  13.050
97425W        W60984   2.276   1.400   4.601
97426W        W60985  14.643   8.336  11.942
97427W        W60986  21.714  11.752   3.721
97428W        W60987  13.324   9.181   1.802
97429W        W60988   5.359  24.197   2.234
97430W        W60989  20.541  20.674  10.948
97431W        W60990  35.057  26.029  13.417
97432W        W60991   1.742  30.463  13.903
97433W        W60992  15.590   9.384  13.965
97434W        W60993  34.980  27.479   2.194
97435W        W60994   2.380  42.991   2.249
97436W        W60995  16.171  18.721   4.616
97437W        W60996  31.514  37.041   3.717
97438W        W60997  26.163  28.018   3.783
97439W        W60998  28.607  35.402   3.694
97440W        W60999   7.272  10.369  13.889
97441W        W61000  28.447  26.029  10.610
97442W        W61001   5.386  27.094   3.368
97443W        W61002  22.582  27.117   4.310
97444W        W61003  15.255  30.615  14.301
97445W        W61004  15.197   3.776   2.745
97446W        W61005  43.419  15.678  14.887
97447W        W61006  24.034   9.745   0.929
97448W        W61007  25.637   2.242   3.829
97449W        W61008   4.879  25.198  11.063
97450W        W61009  27.592  33.922  14.966
97451W        W61010  23.664  30.500  13.478
97452W        W61011  21.245  27.145   3.772
97453W        W61012   8.704  23.642  10.138
97454W        W61013   4.767  22.665  13.490
97455W        W61014  36.859   4.899   0.305
97456W        W61015   1.247  33.961  12.561
97457W        W61016  37.409   5.762  12.544
97458W        W61017  40.884  20.629   2.248
97459W        W61018   0.957   3.753   0.482
97460W        W61019  27.526  14.105  13.940
97461W        W61020   9.210  34.596  13.377
97462W        W61021  38.999  35.504  14.363
97463W        W61022  39.457  11.277  14.807
97464W        W61023  11.698  26.578  12.948
97465W        W61024  37.852   0.320  12.470
97466W        W61025  21.157  37.962   3.224
97467W        W61026  12.170  15.148   3.859
97468W        W61027  29.986  28.142   0.333
97469W        W61028  32.550  39.933   1.697
97470W        W61029   4.259  23.075   0.898
97471W        W61030  42.946  38.026  14.759
97472W        W61031   8.779  17.643  13.489
97473W        W61032  25.691  36.965  11.019
97474W        W61033  37.482  31.583   5.777
97475W        W61034   9.376  34.115   1.223
97476W        W61035  34.881  23.691   1.778
97477W        W61036   7.912  26.001  13.333
97478W        W61037  23.044  43.925   4.748
97479W        W61038   4.857   6.803   0.794
97480W        W61039  31.030   5.713   4.830
97481W        W61040  43.451  30.064  14.927
97482W        W61041  16.169  14.225   4.602
97483W        W61042  32.532  31.401   4.320
97484W        W61043  10.816  32.622  14.868
97485W        W61044  25.628  44.266  10.074
97486W        W61045  19.606  19.278  11.407
97487W        W61046  30.513  28.568   1.390
97488W        W61047  24.165  37.030  11.083
97489W        W61048  19.691  18.673   0.821
97490W        W61049   8.352   7.746   2.782
97491W        W61050  21.054  10.848   3.683
97492W        W61051  17.682  25.032   3.657
97493W        W61052  44.476  35.412  14.501
97494W        W61053   3.458   7.884  14.327
97495W        W61054  14.094   0.840   3.286
97496W        W61055  11.814  35.558  13.500
97497W        W61056  18.236  23.496   4.212
97498W        W61057  28.945   5.196  13.417
97499W        W61058   5.740  37.578   2.203
97500W        W61059   1.380  37.035  14.383
97501W        W61060   5.353   8.682  11.506
97502W        W61061  31.974  29.008   1.767
97503W        W61062   2.836  35.975   2.241
97504W        W61063  37.944  37.936   4.276
97505W        W61064  13.186  22.132   5.567
97506W        W61065  32.959  31.098  11.049
97507W        W61066  18.772   2.263  14.515
97508W        W61067  22.644  41.470   0.892
97509W        W61068  21.692  43.354   0.323
97510W        W61069  14.284  29.146   2.275
97511W        W61070  23.650  42.501  12.887
97512W        W61071  16.657  40.362   4.610
97513W        W61072   6.679  12.317  13.836
97514W        W61073  26.526  16.132   2.184
97515W        W61074  22.082  40.533  13.841
97516W        W61075  34.975  25.583   4.838
97517W        W61076   0.874  26.466   2.379
97518W        W61077  30.120   2.452  12.494
97519W        W61078  35.013  35.864   0.959
97520W        W61079  22.698  28.638   2.324
97521W        W61080  25.172   2.306  12.953
97522W        W61081  40.487  15.138  14.484
97523W        W61082   4.920  32.543   5.224
97524W        W61083  20.096  40.423  13.915
97525W        W61084   9.299  19.768   3.651
97526W        W61085   9.809  39.054   4.171
97527W        W61086   1.954  31.100  11.463
97528W        W61087  35.422  18.745  11.124
97529W        W61088  15.822  33.900  10.900
97530W        W61089   6.252  25.023  14.953
97531W        W61090   5.269  40.884  11.032
97532W        W61091  12.856  44.874   1.695
97533W        W61092  11.765  11.196  12.916
97534W        W61093   0.354  38.917   0.419
97535W        W61094   3.915  14.683   4.291
97536W        W61095  16.670  26.551   0.297
97537W        W61096   5.746  27.962   1.709
97538W        W61097   3.723  32.591   4.607
97539W        W61098  10.788  10.198   1.445
97540W        W61099  21.055  32.981  11.044
97541W        W61100  27.161  38.467   4.834
97542W        W61101  17.234  19.132  14.764
97543W        W61102  35.377   4.797   0.854
97544W        W61103  19.704  20.749  14.383
97545W        W61104  26.082   3.769  10.903
97546W        W61105  44.362  21.616  11.959
97547W        W61106  39.893  32.128  11.476
97548W        W61107  35.371  10.726  13.040
97549W        W61108  25.155  26.992  13.392
97550W        W61109  10.774  43.292   0.477
97551W        W61110  41.478  44.429  10.597
97552W        W61111  26.659  34.102  10.502
97553W        W61112  17.722   6.850   0.938
97554W        W61113  13.331  41.861  10.505
97555W        W61114   0.402   7.821  14.309
97556W        W61115  28.113  12.189   2.403
97557W        W61116  31.559  27.017   4.728
97558W        W61117   2.354  30.592  11.440
97559W        W61118  30.472  17.099  11.576
97560W        W61119  26.101  43.984  12.528
97561W        W61120   8.208  12.793  13.925
97562W        W61121  15.301   5.337  11.574
97563W        W61122  28.941   5.851   4.638
97564W        W61123  21.678  28.091   0.888
97565W        W61124  21.516  18.747   3.339
97566W        W61125  16.576  34.459  12.527
97567W        W61126   0.886  32.029  13.417
97568W        W61127  36.052  13.285   3.160
97569W        W61128   1.469   2.776   3.861
97570W        W61129  15.159   5.249   1.403
97571W        W61130  44.336   1.339  10.940
97572W        W61131  31.045  16.757   0.366
97573W        W61132   7.181  34.077  13.054
97574W        W61133  31.617  30.001  14.857
97575W        W61134  41.849  42.851  10.936
97576W        W61135  28.613  36.529   3.793
97577W        W61136  24.517  32.958   4.183
97578W        W61137  42.424  25.604   2.789
97579W        W61138  21.691  21.207   0.355
97580W        W61139  31.099  44.380  13.355
97581W        W61140   5.893  25.003   3.674
97582W        W61141  11.361  10.278  14.790
97583W        W61142   0.905   9.290   3.714
97584W        W61143  41.791  39.907  14.933
97585W        W61144  18.769  23.577  13.364
97586W        W61145  30.073  19.255  10.629
97587W        W61146  32.488  19.737  14.946
97588W        W61147   9.654  10.819   1.738
97589W        W61148  41.794   0.776  12.466
97590W        W61149  16.771  42.924  14.477
97591W        W61150   1.898  23.570   4.837
97592W        W61151  20.558  11.757  14.864
97593W        W61152  26.650  25.135   1.819
97594W        W61153  14.176  27.156   9.950
97595W        W61154  34.050   4.934   1.268
97596W        W61155  12.157  22.717   0.405
97597W        W61156   0.842  29.552  10.933
97598W        W61157  44.375  19.596  12.537
97599W        W61158  19.570  23.694  12.439
97600W        W61159  40.517  43.893  14.792
97601W        W61160   8.871  40.969  14.897
97602W        W61161  28.663  15.316  10.431
97603W        W61162   7.211   1.861  12.911
97604W        W61163  14.204  10.680   5.108
97605W        W61164  39.977  29.514   4.634
97606W        W61165   9.335   8.787  12.897
97607W        W61166  22.675  32.022   2.309
97608W        W61167  14.757  26.042   5.213
97609W        W61168  37.900  15.095   4.670
97610W        W61169  24.487  32.984  12.364
97611W        W61170  14.271  27.970   2.286
97612W        W61171   1.350  13.816  13.857
97613W        W61172   7.274  35.526   1.862
97614W        W61173  10.250  28.530   1.388
97615W        W61174  23.114  35.547  10.909
97616W        W61175  44.936  28.939  10.631
97617W        W61176  12.857  41.398  14.797
97618W        W61177   1.479  34.444  10.976
97619W        W61178  35.096   0.262  11.861
97620W        W61179  21.666  20.249   3.726
97621W        W61180  23.147  20.260  13.385
97622W        W61181   8.337  15.163  11.438
97623W        W61182  31.571  34.482  11.987
97624W        W61183  33.987  20.676   3.361
97625W        W61184   8.766   5.234   1.247
97626W        W61185   2.369  43.867  11.034
97627W        W61186   8.182  26.614  14.455
97628W        W61187  14.147  36.591   0.263
97629W        W61188   9.692  16.749   4.649
97630W        W61189  23.093  23.145  10.405
97631W        W61190  42.898  41.954   3.239
97632W        W61191   1.935  18.234   3.712
97633W        W61192  42.322  34.020  12.023
97634W        W61193  18.244  40.799   3.749
97635W        W61194  41.453  42.475   2.700
97636W        W61195   5.259  43.793  10.509
97637W        W61196  42.925   1.483   1.809
97638W        W61197  43.014  29.663  13.866
97639W        W61198  42.332  25.121  13.480
97640W        W61199  41.436  29.155   1.269
97641W        W61200  18.225   3.282  12.485
97642W        W61201   3.226  12.698   1.393
97643W        W61202   2.228  11.232   3.821
97644W        W61203   0.403  15.820  14.486
97645W        W61204  36.562  30.125  13.850
97646W        W61205  28.556  12.204  12.492
97647W        W61206  13.180  10.155  13.797
97648W        W61207   1.405  19.052   1.435
97649W        W61208   6.922   3.862   3.640
97650W        W61209  19.589  43.997   3.699
97651W        W61210  26.545  17.756  12.923
97652W        W61211  13.613  29.547   3.810
97653W        W61212  21.158  11.318  13.930
97654W        W61213  24.228   2.781   3.790
97655W        W61214   9.864  24.218  12.828
97656W        W61215  42.992   0.448   4.742
97657W        W61216   5.783  10.139  13.503
97658W        W61217   6.355  30.431   4.279
97659W        W61218  25.522  20.723   4.324
97660W        W61219  32.492  12.202   4.674
97661W        W61220   3.252  20.050   4.125
97662W        W61221  30.494  15.299  14.769
97663W        W61222  25.196   3.281  11.924
97664W        W61223  39.374  28.504  12.073
97665W        W61224  15.690   7.736  13.366
97666W        W61225  39.841  39.437  12.425
97667W        W61226  30.132  30.536   0.922
97668W        W61227  44.993  41.482  11.520
97669W        W61228  28.508  29.500   4.312
97670W        W61229  24.990  10.321  11.587
97671W        W61230  31.004  29.597  13.539
97672W        W61231  41.793  39.009   0.321
97673W        W61232  38.066  22.245  11.431
97674W        W61233   2.763  38.034   1.317
97675W        W61234  31.067  44.895  11.067
97676W        W61235  33.575  37.536   2.858
97677W        W61236  32.518  28.494  14.781
97678W        W61237  12.152   8.840  13.832
97679W        W61238  25.480  30.499  11.979
97680W        W61239  30.510  32.518   4.146
97681W        W61240   5.213  14.337  10.566
97682W        W61241  12.336   3.801   0.760
97683W        W61242  35.092  20.669   2.387
97684W        W61243   4.371   3.384  11.491
97685W        W61244   7.837  32.989  12.090
97686W        W61245  23.564   9.287  11.914
97687W        W61246  22.109  15.304   2.338
97688W        W61247  33.464   9.186  12.897
97689W        W61248   4.802  35.080   5.133
97690W        W61249   0.822  24.074   1.767
97691W        W61250  28.497  25.151  13.388
97692W        W61251  28.174  43.926   2.396
97693W        W61252   4.776  39.914  11.445
97694W        W61253  33.614  40.973   9.953
97695W        W61254  33.130   2.298  11.082
97696W        W61255  40.991  31.407  11.544
97697W        W61256   0.470  14.694  14.872
97698W        W61257  40.391  16.235   2.871
97699W        W61258  39.323  32.586   1.751
97700W        W61259   7.799  24.517   0.404
97701W        W61260   9.883  44.781  14.361
97702W        W61261  10.865  18.240  14.780
97703W        W61262  20.131  32.587  10.479
97704W        W61263  34.002  12.677  13.484
97705W        W61264  28.439  41.937  12.374
97706W        W61265   1.958   7.171  13.912
97707W        W61266  34.107  37.002  14.287
97708W        W61267   3.877  12.622  14.789
97709W        W61268  15.278  16.295   4.177
97710W        W61269  28.655  40.473   4.187
97711W        W61270   5.341  37.965  12.952
97712W        W61271  30.463  36.892  13.982
97713W        W61272  32.938  20.706  10.947
97714W        W61273  26.515   9.652   2.252
97715W        W61274   5.694  42.003   2.849
97716W        W61275  37.362   5.755   0.470
97717W        W61276  39.980  10.773   1.215
97718W        W61277   3.798  38.981  10.056
97719W        W61278  37.966   0.454   1.813
97720W        W61279   6.910  21.519  12.858
97721W        W61280  10.699  33.956   2.689
97722W        W61281  17.303  36.475   1.919
97723W        W61282  41.838  27.484  12.017
97724W        W61283  29.950   4.440  11.383
97725W        W61284  30.590   5.402  12.051
97726W        W61285  27.045  15.309   4.151
97727W        W61286  23.721  41.345  12.844
97728W        W61287  21.131   3.736  10.417
97729W        W61288  18.562  11.337   0.835
97730W        W61289  18.696  10.705   2.377
97731W        W61290  17.567  25.190   2.721
97732W        W61291  11.703   2.923  11.517
97733W        W61292  43.791  16.236  14.457
97734W        W61293  11.162  43.879  12.498
97735W        W61294  42.952  40.894   2.228
97736W        W61295  32.049  30.134   5.285
97737W        W61296  15.615  29.451   4.695
97738W        W61297  24.657  25.633   3.253
97739W        W61298  24.500  22.595   1.347
97740W        W61299  19.139  42.815   3.245
97741W        W61300  34.541  36.550   1.729
97742W        W61301   7.278   2.855  11.513
97743W        W61302  25.632  35.928   1.707
97744W        W61303  22.621  15.229   4.122
97745W        W61304  24.980  13.273   3.732
97746W        W61305  32.636  18.558   1.837
97747W        W61306  34.985  43.993  13.380
97748W        W61307  19.641  18.648   3.692
97749W        W61308  25.144  40.931   0.433
97750W        W61309   3.325  16.632   2.301
97751W        W61310  44.432  40.438  14.874
97752W        W61311   4.730  31.408   5.250
97753W        W61312  21.528  38.374  12.929
97754W        W61313  27.165  12.340  11.890
97755W        W61314  17.258  18.285  14.879
97756W        W61315  32.896  31.612  14.805
97757W        W61316  31.469  36.415   4.193
97758W        W61317   2.812   0.428  11.085
97759W        W61318  41.883  44.389  12.924
97760W        W61319   6.389   2.444  13.998
97761W        W61320  16.801  37.087  11.905
97762W        W61321   3.955  37.008  11.091
97763W        W61322  41.795  18.589   1.794
97764W        W61323  29.925   8.697  11.511
97765W        W61324  31.090  38.820   3.841
97766W        W61325  21.089  24.219  10.471
97767W        W61326  39.523  36.952   1.918
97768W        W61327   1.799  39.507  10.549
97769W        W61328  24.069  18.215  14.804
97770W        W61329   5.781  43.311   3.286
97771W        W61330  15.745  34.403  10.947
97772W        W61331  41.881  37.490   0.863
97773W        W61332  33.093  21.133   0.742
97774W        W61333  25.068  27.036  12.444
97775W        W61334   9.711  24.514   0.242
97776W        W61335  14.323   9.756   2.222
97777W        W61336   8.182  15.319  11.916
97778W        W61337  16.684  23.517   2.298
97779W        W61338  11.676  11.747   4.143
97780W        W61339  13.844  30.989  12.887
97781W        W61340  22.202  34.956  10.403
97782W        W61341  42.975   7.698  14.829
97783W        W61342  35.472  28.540  12.035
97784W        W61343   8.773  11.333   4.128
97785W        W61344  22.715  14.324  12.825
97786W        W61345   7.783  13.310  11.471
97787W        W61346   5.398  38.048   0.421
97788W        W61347  43.947  30.018   3.669
97789W        W61348  34.967  11.701  10.525
97790W        W61349   6.896  16.628  11.559
97791W        W61350  24.562  39.035   1.783
97792W        W61351  27.137   1.903  14.467
97793W        W61352  42.891  38.513   3.357
97794W        W61353   6.388   7.827  11.598
97795W        W61354  20.036  29.108   0.864
97796W        W61355  26.594   3.907   1.368
97797W        W61356  32.416   8.752   2.276
97798W        W61357  21.032   3.789   1.267
97799W        W61358  15.810  26.072   3.188
97800W        W61359  22.203  10.687   4.771
97801W        W61360  13.198  11.213   2.209
97802W        W61361   1.277  25.478  14.308
97803W        W61362   3.292  37.854   0.920
97804W        W61363  15.696  14.809  12.922
97805W        W61364  13.269  29.094  10.098
97806W        W61365  15.687   0.287   0.453
97807W        W61366  41.408  20.194   1.760
97808W        W61367   4.243  39.452  11.463
97809W        W61368  36.562   8.668   2.220
97810W        W61369   1.839  18.228  14.402
97811W        W61370  13.677  12.664   3.756
97812W        W61371  42.428  24.153  10.971
97813W        W61372  23.116  23.171  12.826
97814W        W61373  30.601  18.665   1.789
97815W        W61374  30.078   7.782  10.634
97816W        W61375  10.726  30.601   4.763
97817W        W61376  44.808  29.482  14.792
97818W        W61377  17.101   1.436  11.388
97819W        W61378  42.349  34.919   1.770
97820W        W61379  37.526  36.583   2.895
97821W        W61380  14.592  20.709  10.126
97822W        W61381   1.359   5.879   4.795
97823W        W61382  21.200  26.058   5.142
97824W        W61383  19.652  37.957   3.183
97825W        W61384  43.931  44.351   4.600
97826W        W61385  16.231  22.117   3.261
97827W        W61386  35.876   2.916  13.325
97828W        W61387  34.416  11.314  11.383
97829W        W61388   2.279  17.760   3.378
97830W        W61389  29.002  16.223   0.387
97831W        W61390   4.930  29.133  13.046
97832W        W61391  22.136  39.457   0.456
97833W        W61392  13.730  33.041  10.045
97834W        W61393  24.002  25.578   2.265
97835W        W61394  20.180  42.813  14.926
97836W        W61395   1.851  38.505   1.844
97837W        W61396  22.204  27.627  14.898
97838W        W61397   0.332  36.984  12.832
97839W        W61398  29.039  24.215   2.234
97840W        W61399  14.204   4.896  14.899
97841W        W61400   9.193  10.676   3.827
97842W        W61401   6.700  15.317  14.469
97843W        W61402  30.913  41.855  14.966
97844W        W61403   6.293  33.479  13.050
97845W        W61404   1.334  34.962   1.750
97846W        W61405  39.065  32.501  14.464
97847W        W61406  19.092  19.203   4.771
97848W        W61407  42.352  31.501  14.762
97849W        W61408  18.214   8.757  11.445
97850W        W61409  18.784  24.642  10.545
97851W        W61410   0.323   3.226   1.412
97852W        W61411   5.865  15.629  14.924
97853W        W61412  20.666  18.653   3.861
97854W        W61413  16.238  32.097   0.416
97855W        W61414  38.983  16.666  10.970
97856W        W61415  39.408  11.745  13.314
97857W        W61416  42.476   8.360   0.883
97858W        W61417  36.899  14.094  11.977
97859W        W61418  44.908  37.878   4.184
97860W        W61419  11.237  28.930  11.375
97861W        W61420  23.081  21.164  14.441
97862W        W61421  33.086  14.820   0.901
97863W        W61422  42.320  15.090   2.295
97864W        W61423  20.702  40.009   2.786
97865W        W61424   9.243  40.901   3.811
97866W        W61425   2.757  19.268   0.860
97867W        W61426  37.055  22.544   2.838
97868W        W61427  25.129  20.195  13.820
97869W        W61428  18.057  21.702   4.167
97870W        W61429  32.539  19.256  14.441
97871W        W61430  29.007  29.536  14.996
97872W        W61431  22.154  34.883  12.009
97873W        W61432  15.822  29.104   0.328
97874W        W61433  40.430  34.001  14.768
97875W        W61434  16.721  13.627  12.838
97876W        W61435  29.977  32.927  11.103
97877W        W61436  43.817  12.246   3.373
97878W        W61437  18.589  18.611   3.818
97879W        W61438   0.976  35.518  12.400
97880W        W61439  30.972   4.920  14.322
97881W        W61440  20.704  15.605  14.822
97882W        W61441  37.488  18.285  13.509
97883W        W61442  26.086   0.743  13.511
97884W        W61443  18.225  38.375   4.329
97885W        W61444  39.336  14.724   3.808
97886W        W61445  38.396   8.281   4.794
97887W        W61446  26.042  33.962  13.951
97888W        W61447  37.390  35.956   3.649
97889W        W61448   9.695  26.087   1.276
97890W        W61449   3.235  18.592  10.912
97891W        W61450  44.842  34.978  13.360
97892W        W61451  36.509  42.282   1.728
97893W        W61452  19.577   8.359  11.529
97894W        W61453  32.077   6.753  11.514
97895W        W61454   4.784  18.110   4.114
97896W        W61455  25.639  42.424   2.678
97897W        W61456   3.838  36.941   1.728
97898W        W61457  20.155   5.898  13.357
97899W        W61458   3.385  37.389   1.713
97900W        W61459   6.399   6.245   5.240
97901W        W61460  35.032  31.595  13.867
97902W        W61461   9.849  41.414   4.126
97903W        W61462  12.689  16.633   0.726
97904W        W61463  39.430  17.767  10.474
97905W        W61464   7.803  21.205  13.484
97906W        W61465  16.176  12.618   1.261
97907W        W61466  26.959  27.529   0.798
97908W        W61467  14.304  23.010   4.171
97909W        W61468  40.491  20.737   3.846
97910W        W61469  41.390   3.766   0.431
97911W        W61470  34.552   9.768   3.760
97912W        W61471   4.355  23.156   4.623
97913W        W61472  43.848  12.149   1.309
97914W        W61473  34.002  38.353   3.246
97915W        W61474  28.988  30.528  14.411
97916W        W61475  42.821   5.704  12.853
97917W        W61476  34.023   8.687  12.085
97918W        W61477  10.140  21.258  10.502
97919W        W61478  16.578  18.193   3.820
97920W        W61479  40.929   3.897  13.852
97921W        W61480   8.370  36.855   3.242
97922W        W61481  20.705  14.603  11.031
97923W        W61482  18.554  13.146  11.374
97924W        W61483   2.838  38.377  12.945
97925W        W61484  40.308  38.934   5.248
97926W        W61485  35.896  39.980  11.063
97927W        W61486  39.432  11.706  14.385
97928W        W61487   3.903   8.784   2.864
97929W        W61488   4.940  38.514   2.350
97930W        W61489  40.396  43.911   1.913
97931W        W61490  40.519  13.682   4.665
97932W        W61491  37.937  32.128   9.544
97933W        W61492  42.892  42.859  10.465
97934W        W61493  42.451   1.761  13.491
97935W        W61494   3.770  36.982  11.534
97936W        W61495  33.048  34.449  13.797
97937W        W61496  35.862  43.409  11.404
97938W        W61497   7.332  27.684  11.855
97939W        W61498  22.712  18.549  14.812
97940W        W61499   7.686   6.890  11.374
97941W        W61500  15.121  17.644   4.302
97942W        W61501  28.470  30.931   4.199
97943W        W61502  37.916  24.090   2.313
97944W        W61503  29.158  43.317   3.181
97945W        W61504  31.617  40.391   0.367
97946W        W61505  28.139  14.815   2.214
97947W        W61506  27.632  29.070  13.794
97948W        W61507  34.556  34.473   3.274
97949W        W61508  34.872  25.636  10.900
97950W        W61509  24.569  18.752   3.787
97951W        W61510  10.194  27.021  11.862
97952W        W61511  10.282  13.336  11.416
97953W        W61512   0.909  11.321  11.420
97954W        W61513  19.769   3.894   1.697
97955W        W61514   0.799  36.058   4.608
97956W        W61515  35.440   3.937  13.495
97957W        W61516  25.050  36.974   3.820
97958W        W61517   5.730  12.664  10.542
97959W        W61518  22.689  27.177  14.334
97960W        W61519   2.880  40.927   1.239
97961W        W61520   3.782   7.798  11.992
97962W        W61521   2.811  18.778   4.161
97963W        W61522  37.913  11.320  11.881
97964W        W61523  16.749  38.565   1.834
97965W        W61524  11.351  35.005   3.645
97966W        W61525  36.943  24.586   2.670
97967W        W61526  22.057  38.509   2.197
97968W        W61527  43.983   3.405   5.268
97969W        W61528  35.424  16.222   3.240
97970W        W61529  24.675  23.994  12.475
97971W        W61530   3.252  12.250  14.467
97972W        W61531  44.264   9.273   3.207
97973W        W61532   7.860  11.219  11.527
97974W        W61533  25.004   0.356   3.209
97975W        W61534   0.970   6.259   3.231
97976W        W61535  32.916  14.673   1.851
97977W        W61536  14.249  44.270   0.874
97978W        W61537  30.600  43.325  11.919
97979W        W61538  15.599  26.993   2.299
97980W        W61539  40.875   3.398   5.257
97981W        W61540  17.694  18.197   1.755
97982W        W61541  22.737  29.575   2.790
97983W        W61542  33.486  34.387  14.950
97984W        W61543  16.103  31.916  10.640
97985W        W61544  34.935   8.827  13.058
97986W        W61545  36.004   2.381  10.548
97987W        W61546  27.523  17.691  11.073
97988W        W61547  34.922  40.029   5.151
97989W        W61548  32.489  22.689   0.912
97990W        W61549  31.540  34.938   0.387
97991W        W61550  13.204  29.648  13.976
97992W        W61551  42.296   2.824   3.853
97993W        W61552  41.043   0.884   2.350
97994W        W61553  24.007  39.045  11.372
97995W        W61554  42.937  35.940  13.510
97996W        W61555  16.626  39.984  13.886
97997W        W61556  42.865   0.356  10.157
97998W        W61557   9.835  10.748  14.403
97999W        W61558   1.333  13.738  10.978
98000W        W61559   3.247  13.196  13.929
98001W        W61560  19.279  38.461  14.485
98002W        W61561  33.988  35.899   1.894
98003W        W61562  40.952  35.479   3.337
98004W        W61563  40.049   4.361  11.028
98005W        W61564  39.944  18.576   0.347
98006W        W61565  42.862  43.494   1.277
98007W        W61566  35.989  12.125  13.033
98008W        W61567  32.139  10.313  14.408
98009W        W61568  39.517   5.734  10.895
98010W        W61569  21.231  32.446   9.964
98011W        W61570  30.941  38.512   4.616
98012W        W61571  20.248  30.036   3.634
98013W        W61572  32.983  41.490  14.762
98014W        W61573  23.685  37.553  10.994
98015W        W61574  21.654  21.744  11.465
98016W        W61575   2.252  18.213   4.639
98017W        W61576  43.310  18.731  11.881
98018W        W61577   7.199  24.054  12.362
98019W        W61578   5.863  27.662  12.078
98020W        W61579  29.027  28.119   4.271
98021W        W61580   7.271   8.768  14.779
98022W        W61581   5.248  23.644   4.188
98023W        W61582  19.071  26.143  14.515
98024W        W61583  39.963  20.724  13.396
98025W        W61584  16.197  32.395  12.529
98026W        W61585  23.637   4.237   1.357
98027W        W61586  15.619  32.509   2.682
98028W        W61587  11.138  12.837  11.961
98029W        W61588   6.334  43.019   3.241
98030W        W61589  31.493  37.401  11.472
98031W        W61590  22.101  14.677   1.397
98032W        W61591  12.720  13.641   0.959
98033W        W61592   3.329  21.093  10.944
98034W        W61593   1.445   6.791   2.419
98035W        W61594   0.892  31.137  10.930
98036W        W61595  25.035  18.265   0.857
98037W        W61596  27.478  27.614   4.801
98038W        W61597   9.737  31.139   3.737
98039W        W61598  18.196  30.429  10.549
98040W        W61599  18.205  17.682  11.585
98041W        W61600   2.387  32.074  10.543
98042W        W61601  44.379  40.843  13.350
98043W        W61602  29.578  41.440   5.230
98044W        W61603   4.399  19.606   4.710
98045W        W61604  15.103  17.721  11.107
98046W        W61605  16.104  13.275  12.477
98047W        W61606  32.492  44.313  14.867
98048W        W61607  44.943  34.985  12.002
98049W        W61608  26.468  15.610   0.947
98050W        W61609  32.095  28.513   0.277
98051W        W61610   0.357  15.278   3.163
98052W        W61611  12.759  41.368   0.911
98053W        W61612  23.230  43.862  14.287
98054W        W61613   9.258  16.303   0.427
98055W        W61614   8.199  32.546  11.862
98056W        W61615  38.032  33.911   5.648
98057W        W61616  36.875  13.618  14.503
98058W        W61617  23.993  15.676   1.810
98059W        W61618  37.038  29.147   4.310
98060W        W61619  14.163   7.305   3.654
98061W        W61620  33.402  44.890   1.850
98062W        W61621  40.891  32.969  14.984
98063W        W61622  17.612  10.766   3.378
98064W        W61623  37.916  36.417   1.778
98065W        W61624  23.203  37.559   4.115
98066W        W61625  29.070  36.429  13.381
98067W        W61626  28.997  23.201  11.979
98068W        W61627  34.931  26.977  11.466
98069W        W61628  10.636  18.751  12.832
98070W        W61629   4.323   3.268   1.815
98071W        W61630  16.174  34.007  14.280
98072W        W61631  21.160   9.187   3.666
98073W        W61632   1.774  15.118   4.617
98074W        W61633  17.724  24.720  11.864
98075W        W61634  40.810  16.593  11.927
98076W        W61635   7.179   3.758   2.812
98077W        W61636  20.685  36.973   3.644
98078W        W61637   9.793  15.329  11.905
98079W        W61638  19.285  43.866  12.567
98080W        W61639  29.943  26.062  14.028
98081W        W61640  37.483  38.071  11.569
98082W        W61641  19.562   9.151   3.345
98083W        W61642  10.796  43.847  12.405
98084W        W61643   5.846  16.657  10.939
98085W        W61644   4.390  17.629  13.472
98086W        W61645  41.943   2.390  14.999
98087W        W61646   3.345  11.275   9.994
98088W        W61647  28.099   8.238  14.409
98089W        W61648   4.815  18.074   0.790
98090W        W61649  34.118   1.248   1.380
98091W        W61650  18.145  12.141  12.835
98092W        W61651   1.483   5.870   1.720
98093W        W61652   0.290  10.211  10.436
98094W        W61653  17.725  17.785  12.443
98095W        W61654  28.167  15.153   4.157
98096W        W61655  44.464  10.264  12.490
98097W        W61656   5.195   9.313   3.852
98098W        W61657  29.494  32.051   1.917
98099W        W61658   8.202  29.989  10.911
98100W        W61659  30.435  21.220  11.592
98101W        W61660  36.414   1.249  14.945
98102W        W61661  42.413  32.532   4.183
98103W        W61662  35.110  27.616  13.490
98104W        W61663  28.179  37.878  13.401
98105W        W61664   5.902   9.167   4.316
98106W        W61665  29.971  36.878   3.801
98107W        W61666  43.958  12.258  10.992
98108W        W61667  36.095  42.928   2.279
98109W        W61668  16.591  12.314  13.922
98110W        W61669  30.493   9.214  11.054
98111W        W61670  14.323  42.498   4.159
98112W        W61671  44.807  40.443   4.835
98113W        W61672  29.609   8.313   4.821
98114W        W61673   0.287  22.228  13.524
98115W        W61674  21.521  10.299  13.858
98116W        W61675  37.389   2.370   2.211
98117W        W61676  24.141  35.597  10.498
98118W        W61677  43.826  29.949   4.715
98119W        W61678  17.245  40.019  11.111
98120W        W61679  41.998   2.284   3.235
98121W        W61680  11.324  30.012  13.424
98122W        W61681   5.386  30.608   2.187
98123W        W61682  27.624  36.990   3.686
98124W        W61683  15.307  34.097  11.980
98125W        W61684  24.984  30.443   3.180
98126W        W61685  26.009   7.260  14.493
98127W        W61686  27.953  37.343  11.415
98128W        W61687  26.632  18.620   3.702
98129W        W61688  44.419  42.849  11.527
98130W        W61689  40.504  15.273   1.709
98131W        W61690  35.854  14.156  12.454
98132W        W61691  22.165  31.412   3.764
98133W        W61692  28.141   2.275  14.302
98134W        W61693  19.729  43.467  11.946
98135W        W61694  43.333  37.083   4.235
98136W        W61695   3.909  41.966   4.600
98137W        W61696  29.485  35.003   1.710
98138W        W61697   6.397  37.461   3.646
98139W        W61698  19.653  30.520   2.850
98140W        W61699   7.708  33.405   4.209
98141W        W61700  38.948  11.867   4.293
98142W        W61701  37.547  14.142   2.882
98143W        W61702  15.116  30.595  14.884
98144W        W61703  17.130   6.331  12.047
98145W        W61704  31.443   2.472  13.996
98146W        W61705  22.061  18.642   4.784
98147W        W61706  41.954  16.292   0.371
98148W        W61707  43.901  10.661   4.314
98149W        W61708  40.822  30.423   1.394
98150W        W61709  14.137   6.846  11.930
98151W        W61710  33.104  32.980   2.243
98152W        W61711  15.087  35.446   1.842
98153W        W61712  27.973  40.471  14.841
98154W        W61713  38.942  20.753  10.145
98155W        W61714  38.834  12.285   3.847
98156W        W61715  22.500   3.422   1.263
98157W        W61716  27.979   2.406   3.220
98158W        W61717  17.168  18.688  11.088
98159W        W61718   6.426   0.310   0.864
98160W        W61719  21.224  28.158  10.084
98161W        W61720  20.265  12.702  14.854
98162W        W61721   1.741  16.301   4.776
98163W        W61722  41.357   7.846  11.929
98164W        W61723  24.668   4.743   4.636
98165W        W61724  36.850  11.678   4.259
98166W        W61725  41.340  22.207  10.446
98167W        W61726  12.248   9.206   4.686
98168W        W61727  14.130  20.697  14.759
98169W        W61728  14.228  24.643   2.267
98170W        W61729  36.417   5.848   2.362
98171W        W61730  17.222   4.843   4.120
98172W        W61731  24.090   3.234  11.404
98173W        W61732  41.460  26.647   1.743
98174W        W61733  43.771   1.807  10.582
98175W        W61734   7.899  39.004   1.821
98176W        W61735   9.768  33.973  10.024
98177W        W61736   2.785  33.107   0.306
98178W        W61737  32.575  38.974  13.314
98179W        W61738   3.318   7.194   1.806
98180W        W61739  17.289   5.769  11.532
98181W        W61740  32.480  34.018   4.336
98182W        W61741  15.718  40.513   1.927
98183W        W61742  19.164   0.408   0.383
98184W        W61743  34.471   6.914   9.964
98185W        W61744   7.825   1.424   0.830
98186W        W61745   3.857  14.684  11.513
98187W        W61746   5.854  14.276   0.739
98188W        W61747   6.281  10.680  12.962
98189W        W61748  15.147  42.870   4.191
98190W        W61749  41.514  21.155   0.277
98191W        W61750  44.931  14.112  11.552
98192W        W61751  10.154  30.951   0.748
98193W        W61752  29.045   7.809   2.801
98194W        W61753  10.811  28.993  13.034
98195W        W61754  20.217   2.276  11.445
98196W        W61755   6.701  30.441  12.075
98197W        W61756   4.717  29.462  13.510
98198W        W61757  44.008  39.450  13.956
98199W        W61758  35.396  39.005  11.956
98200W        W61759  34.891  27.557  10.453
98201W        W61760  43.804  20.592  14.288
98202W        W61761  44.778  10.244   2.275
98203W        W61762  25.581   8.317   3.165
98204W        W61763   8.388   6.826   0.468
98205W        W61764  32.434  20.547  13.943
98206W        W61765  27.039  30.087  14.961
98207W        W61766  10.206  12.837   2.841
98208W        W61767  11.285  29.008   3.179
98209W        W61768  24.025  26.502  12.944
98210W        W61769   1.241  26.642  11.086
98211W        W61770  37.520  22.216   4.734
98212W        W61771  12.272  14.715   4.680
98213W        W61772  21.754  14.633  14.945
98214W        W61773  25.059  33.876   1.792
98215W        W61774   4.855  29.137  11.969
98216W        W61775  28.016  13.840  11.435
98217W        W61776  24.578  38.012  14.430
98218W        W61777  26.643   2.785  13.503
98219W        W61778  11.151  42.812   0.455
98220W        W61779  37.486   8.336  14.956
98221W        W61780  39.367  30.138   0.960
98222W        W61781   8.714  21.260   2.834
98223W        W61782  39.353  32.105   4.659
98224W        W61783  34.372   3.273   3.245
98225W        W61784  41.840  16.748  14.503
98226W        W61785   5.274  15.105   2.728
98227W        W61786  43.314  36.536  13.361
98228W        W61787  11.333  14.287  13.967
98229W        W61788  37.400   8.395  13.921
98230W        W61789  24.179  38.931   1.739
98231W        W61790  33.575  26.660  12.078
98232W        W61791  22.217  44.498   1.731
98233W        W61792  21.193  33.951  14.312
98234W        W61793  31.545   2.441  11.511
98235W        W61794  14.208  23.672   2.707
98236W        W61795   2.728  27.034   4.793
98237W        W61796  23.163  17.751  12.057
98238W        W61797   8.247   7.738   1.905
98239W        W61798  22.215  23.550  12.575
98240W        W61799  33.606  20.680   2.705
98241W        W61800  17.062   5.779  12.367
98242W        W61801   6.748   9.721  13.901
98243W        W61802  15.781  17.631  10.911
98244W        W61803  33.454  40.961   4.739
98245W        W61804  11.251   3.758  13.790
98246W        W61805  21.540  22.649  12.480
98247W        W61806  44.334   3.836   5.168
98248W        W61807  41.816   9.207   3.812
98249W        W61808  17.264  17.265  11.428
98250W        W61809   2.445  24.678  10.565
98251W        W61810  19.271  19.620   1.335
98252W        W61811  18.130  44.970   0.789
98253W        W61812   7.692  32.425   0.249
98254W        W61813  20.028   5.811   2.244
98255W        W61814  13.189   8.900   9.937
98256W        W61815   5.402  18.736   0.401
98257W        W61816  29.449  26.620   4.620
98258W        W61817  36.049   1.820  14.777
98259W        W61818  43.446  17.583   0.381
98260W        W61819  30.996  17.061  14.414
98261W        W61820  30.981  18.172  12.958
98262W        W61821  11.297  11.354   4.307
98263W        W61822   7.313   1.357   1.266
98264W        W61823   8.202  38.456   2.390
98265W        W61824  18.556  41.876   2.786
98266W        W61825  26.039  39.466  12.981
98267W        W61826  11.866  13.639   3.714
98268W        W61827  27.063  27.593   3.253
98269W        W61828  33.562   8.288  14.864
98270W        W61829  12.351   1.902   2.801
98271W        W61830   2.350  22.229   4.313
98272W        W61831  44.839   7.903   1.863
98273W        W61832   2.747  34.502   1.441
98274W        W61833  15.617  25.588   5.705
98275W        W61834  23.552  17.766  13.960
98276W        W61835   8.759  34.570   3.358
98277W        W61836  43.830  13.107   1.755
98278W        W61837  41.459  25.505   2.776
98279W        W61838  34.032  35.000  12.461
98280W        W61839  15.141  23.616  13.388
98281W        W61840   3.236  42.497  12.968
98282W        W61841  39.549  37.402   4.602
98283W        W61842  44.462  13.787   2.789
98284W        W61843  33.962   6.759   5.700
98285W        W61844   1.288  15.665   2.678
98286W        W61845  22.179  43.863   2.262
98287W        W61846  11.156  19.131  10.589
98288W        W61847  15.296  37.974   1.780
98289W        W61848  34.603  29.653  14.876
98290W        W61849  21.170  22.116  12.518
98291W        W61850  12.722   7.295  13.376
98292W        W61851   3.352   5.888  14.863
98293W        W61852  18.086  21.188  11.869
98294W        W61853  33.125  28.044  10.605
98295W        W61854  12.715  43.906   3.811
98296W        W61855  25.672  44.473   4.776
98297W        W61856  41.877  22.576  13.056
98298W        W61857  32.396   8.832   0.952
98299W        W61858  30.548  41.479   1.874
98300W        W61859  42.024   4.276   3.269
98301W        W61860  33.395  36.980  10.959
98302W        W61861  23.587  20.109   4.769
98303W        W61862  11.269   4.299   2.197
98304W        W61863   8.721   8.857  14.345
98305W        W61864  12.668  21.752   4.245
98306W        W61865   9.291  16.594   4.605
98307W        W61866  22.016   8.381   0.954
98308W        W61867  41.371  18.109  11.977
98309W        W61868  18.717   9.273   2.756
98310W        W61869   1.318  33.587   4.287
98311W        W61870  23.033  36.075  11.870
98312W        W61871   2.808  20.187   4.769
98313W        W61872  23.511  20.130  11.022
98314W        W61873  36.851  24.033  13.476
98315W        W61874  24.015  13.645   1.341
98316W        W61875  12.273  26.164  10.903
98317W        W61876  31.901  15.744   3.297
98318W        W61877   1.962   7.397   3.207
98319W        W61878  29.579   6.372  12.415
98320W        W61879  29.919  35.969  11.047
98321W        W61880   1.425  35.551  11.933
98322W        W61881  34.567  38.410  13.498
98323W        W61882  15.658   4.291  13.992
98324W        W61883  30.449  39.553   1.321
98325W        W61884  24.643   3.344   3.383
98326W        W61885  24.209  14.229   3.649
98327W        W61886  20.534   0.459   0.760
98328W        W61887  27.688   7.315  10.426
98329W        W61888  30.924  20.160  11.919
98330W        W61889   7.258  17.200  12.060
98331W        W61890  33.430  39.389  11.885
98332W        W61891  14.104   4.798  12.907
98333W        W61892  20.763  16.094  11.892
98334W        W61893   1.735  28.970  10.502
98335W        W61894  44.316   6.242  14.287
98336W        W61895  36.910   4.930  12.474
98337W        W61896  28.156  37.929   2.705
98338W        W61897  42.295  24.553  14.886
98339W        W61898   4.829  41.926   2.755
98340W        W61899  17.739  15.117  10.642
98341W        W61900  28.040  34.876   1.718
98342W        W61901  16.770  13.267  11.416
98343W        W61902  15.749  32.064  10.563
98344W        W61903  23.106  32.137  10.449
98345W        W61904  21.191   9.739  13.809
98346W        W61905  27.984   6.856  14.335
98347W        W61906   2.849   5.703  14.815
98348W        W61907   9.203  23.239   3.775
98349W        W61908   9.688  39.861  14.488
98350W        W61909  37.565  11.756  13.351
98351W        W61910   4.930  35.602   1.734
98352W        W61911  34.432  11.711  13.981
98353W        W61912  40.477  35.479   3.867
98354W        W61913   6.695   4.393  12.926
98355W        W61914  31.025   3.320  12.453
98356W        W61915  14.776  24.640  12.374
98357W        W61916   2.800  31.411   3.756
98358W        W61917  32.099  40.896  12.854
98359W        W61918  13.204  29.068   0.843
98360W        W61919  16.166  36.434   0.903
98361W        W61920  14.808  42.969   1.231
98362W        W61921   7.886  11.136  11.953
98363W        W61922  36.384  24.974  14.317
98364W        W61923   8.327  38.484   4.313
98365W        W61924  37.473  39.345   4.668
98366W        W61925  25.552  42.953   3.852
98367W        W61926  43.332  28.507   2.214
98368W        W61927  14.786   1.762   9.935
98369W        W61928  12.263   4.898   2.345
98370W        W61929   9.209  13.675  14.327
98371W        W61930  14.206  12.690   4.208
98372W        W61931  42.916   4.808  10.515
98373W        W61932  20.747  21.666  14.987
98374W        W61933  31.469  43.780  14.303
98375W        W61934  32.094  15.187  10.528
98376W        W61935  27.157  25.497   3.826
98377W        W61936  11.344  26.524   4.707
98378W        W61937   1.918  36.960   2.728
98379W        W61938  37.528  12.714   2.894
98380W        W61939   2.441   6.844  14.501
98381W        W61940  21.122   3.757  10.908
98382W        W61941  21.117  13.821  12.823
98383W        W61942  17.626  13.683   0.245
98384W        W61943  32.543  19.045   2.374
98385W        W61944  25.489   5.866  10.105
98386W        W61945   7.334   7.690  10.546
98387W        W61946  28.599  29.494  14.858
98388W        W61947  35.862  41.005  11.120
98389W        W61948  40.512  38.364   3.289
98390W        W61949  16.673  13.785   1.845
98391W        W61950  36.982   9.849  12.936
98392W        W61951  25.514  28.108  10.899
98393W        W61952  36.528  36.063  13.368
98394W        W61953  35.001  14.137   4.769
98395W        W61954  10.309   3.339   0.477
98396W        W61955   2.421   8.777  10.020
98397W        W61956   7.232  27.135  12.502
98398W        W61957   5.879  36.011   2.274
98399W        W61958  15.597  11.785  14.972
98400W        W61959  41.828  41.011  12.501
98401W        W61960  28.082  35.519   3.280
98402W        W61961   6.711   6.760  10.539
98403W        W61962  13.708  29.521  13.446
98404W        W61963  27.117  35.595  13.932
98405W        W61964  38.921  33.453  13.474
98406W        W61965   2.814  39.338  14.808
98407W        W61966  10.721   5.804  11.426
98408W        W61967  34.027  28.932  12.385
98409W        W61968   4.936   2.382  14.922
98410W        W61969  26.162  36.897  11.873
98411W        W61970  19.757  38.483  10.532
98412W        W61971  34.059  21.073  13.054
98413W        W61972  34.110  33.391  11.865
98414W        W61973  32.065  41.318  14.447
98415W        W61974  27.032  44.970  12.453
98416W        W61975  19.668  19.095   0.931
98417W        W61976  11.677  18.101   5.219
98418W        W61977  15.139   1.422  12.085
98419W        W61978  24.641  31.119  14.505
98420W        W61979  13.120  38.411  12.403
98421W        W61980  13.725   9.167   0.942
98422W        W61981   4.914  17.083   2.668
98423W        W61982  11.292  10.690   1.779
98424W        W61983  16.634   6.311  12.977
98425W        W61984  30.601  33.054  11.927
98426W        W61985  18.082   7.282   2.877
98427W        W61986  16.214  14.307   1.868
98428W        W61987  11.636  15.580  12.435
98429W        W61988   9.654   5.352   1.377
98430W        W61989  41.868  27.121  14.894
98431W        W61990  35.032  44.910   4.645
98432W        W61991   2.324   2.266  13.966
98433W        W61992  25.104  19.110  13.902
98434W        W61993  22.661  39.837   0.270
98435W        W61994  15.116  38.353   3.179
98436W        W61995   6.723   7.727   3.633
98437W        W61996  37.002  35.383   3.387
98438W        W61997  25.161  18.120  13.949
98439W        W61998  14.217  17.788  14.317
98440W        W61999  12.211  44.926   2.419
98441W        W62000  42.523   9.369   0.829
98442W        W62001   9.199   8.778  13.421
98443W        W62002  37.879  22.065   2.400
98444W        W62003  24.173  21.072  12.510
98445W        W62004  31.093  34.534  14.418
98446W        W62005  19.058  26.054  11.464
98447W        W62006  24.679  43.325  12.961
98448W        W62007   5.919  32.118  10.975
98449W        W62008  10.369   7.857  13.810
98450W        W62009  18.775  40.501  14.850
98451W        W62010  10.335   9.352   3.690
98452W        W62011  11.174  19.539   0.332
98453W        W62012  29.623  11.233  11.103
98454W        W62013  26.014  17.217   0.411
98455W        W62014  14.641  15.229  12.494
98456W        W62015   7.828  21.151  14.986
98457W        W62016  14.774  31.941   9.923
98458W        W62017  10.778   1.357   3.695
98459W        W62018   8.303   3.434  12.036
98460W        W62019   2.421  41.332  14.819
98461W        W62020  33.500  32.925  14.832
98462W        W62021  16.577  16.743   2.336
98463W        W62022  28.592  44.370   4.147
98464W        W62023   3.742  34.442  14.865
98465W        W62024  42.026   2.938   4.334
98466W        W62025   8.231  12.829   4.632
98467W        W62026  24.571  15.637   3.236
98468W        W62027  10.876  40.533   1.241
98469W        W62028  25.016  34.863  11.392
98470W        W62029   1.732  23.683   0.780
98471W        W62030  10.802  43.379   2.764
98472W        W62031  14.807  24.677  11.972
98473W        W62032  42.812  40.507   1.794
98474W        W62033  43.271  34.952  12.991
98475W        W62034  24.617  37.852  14.977
98476W        W62035  13.636   8.828   2.831
98477W        W62036  41.336  39.955   4.704
98478W        W62037   3.443  29.668  10.520
98479W        W62038  24.158   9.860  11.462
98480W        W62039  23.189   2.727   2.800
98481W        W62040   6.342  41.908  12.400
98482W        W62041  23.061  43.277  12.355
98483W        W62042  38.397  23.502   1.709
98484W        W62043  19.108   9.327  13.510
98485W        W62044  25.205  22.669   0.472
98486W        W62045   2.774   9.297  13.814
98487W        W62046  12.762   0.328   3.232
98488W        W62047  35.538  10.163   3.677
98489W        W62048  13.690  31.441  11.027
98490W        W62049   4.878  28.100  10.086
98491W        W62050   7.858  39.520  10.520
98492W        W62051   2.743   6.681  14.504
98493W        W62052  39.049  44.462   2.216
98494W        W62053  43.479  19.586   3.234
98495W        W62054   2.357  42.906  10.541
98496W        W62055  13.609  27.521  12.874
98497W        W62056  27.147  18.597  12.359
98498W        W62057  33.616  31.571   4.179
98499W        W62058  36.384  26.694  14.862
98500W        W62059  23.139  37.343  14.764
98501W        W62060  39.543   0.863   2.280
98502W        W62061  19.726  19.674  13.463
98503W        W62062   5.352  17.063  13.417
98504W        W62063   2.831  41.358   3.323
98505W        W62064  42.864  34.928   4.732
98506W        W62065   0.939  37.034  12.878
98507W        W62066  12.185  13.247   9.923
98508W        W62067  24.985  20.582   0.271
98509W        W62068   8.742  37.864   3.367
98510W        W62069  28.520  24.699  11.605
98511W        W62070  17.646  38.968  14.366
98512W        W62071  35.870  20.591   0.836
98513W        W62072  31.104  13.792   3.743
98514W        W62073  19.763  30.620  12.478
98515W        W62074   4.402   8.216  12.525
98516W        W62075   0.798  24.059   3.731
98517W        W62076  24.528  24.608  14.852
98518W        W62077  27.125  30.070   0.959
98519W        W62078  38.449  18.247   4.733
98520W        W62079  40.491  35.585   2.860
98521W        W62080  37.004  29.134   2.669
98522W        W62081  22.086  14.596  13.949
98523W        W62082  41.862   5.866  13.954
98524W        W62083  34.522   0.269  11.537
98525W        W62084  19.574  22.104   2.419
98526W        W62085   7.895   3.787  14.338
98527W        W62086   6.297   4.753  10.549
98528W        W62087   8.187  21.686  14.285
98529W        W62088   9.276  11.228  12.094
98530W        W62089  38.066  14.308  13.481
98531W        W62090  35.920  16.660   0.324
98532W        W62091  34.515  33.992   9.943
98533W        W62092  21.221  23.615   2.241
98534W        W62093  13.323  26.060   3.317
98535W        W62094  38.011  24.529  13.478
98536W        W62095   9.771  27.121   3.829
98537W        W62096  22.044  15.606   3.377
98538W        W62097   4.900  41.299   5.295
98539W        W62098  38.899  22.542  14.887
98540W        W62099   5.807  24.109   2.346
98541W        W62100  35.527  10.763   3.771
98542W        W62101  33.932  23.116   3.827
98543W        W62102  14.729  15.819   0.888
98544W        W62103  28.167   4.297   2.216
98545W        W62104  15.654   7.795   4.194
98546W        W62105   4.941  13.174   4.761
98547W        W62106   7.377   5.879   0.749
98548W        W62107   7.380  27.667   3.231
98549W        W62108  21.756  22.718   0.458
98550W        W62109  14.693  39.879   3.673
98551W        W62110  16.179  42.285  12.971
98552W        W62111  19.730   0.869   0.819
98553W        W62112  43.405  21.198  10.411
98554W        W62113  40.409   6.724  13.946
98555W        W62114  28.617  42.847   1.422
98556W        W62115  24.035   6.418  10.516
98557W        W62116  26.974  20.128  13.481
98558W        W62117  39.433  40.349  12.497
98559W        W62118  38.919  23.538  14.461
98560W        W62119   6.208  39.433  12.500
98561W        W62120  23.238  38.382  14.405
98562W        W62121  20.188  18.097   0.418
98563W        W62122   7.872  34.906   1.250
98564W        W62123   7.750  33.118  12.922
98565W        W62124  35.026  17.789   2.797
98566W        W62125   5.724  25.527  13.033
98567W        W62126  26.572  35.579  13.455
98568W        W62127  13.630   5.262  11.561
98569W        W62128  39.870  24.135  14.487
98570W        W62129  32.005  32.465   0.875
98571W        W62130  31.938  13.297   1.241
98572W        W62131  22.614   0.882   0.886
98573W        W62132  32.505  13.782   4.613
98574W        W62133  17.626  41.383   1.841
98575W        W62134  24.614  30.972   1.848
98576W        W62135  14.623  11.776   0.909
98577W        W62136  23.110  29.442   1.338
98578W        W62137   8.187  34.916  13.962
98579W        W62138  16.573  24.503   9.588
98580W        W62139   5.794  29.061  11.480
98581W        W62140  32.526  10.729   4.171
98582W        W62141   2.786  43.415   4.817
98583W        W62142  24.530  35.054  12.825
98584W        W62143  10.678   5.225  10.476
98585W        W62144  42.878  31.429   1.892
98586W        W62145   0.384  17.693   3.828
98587W        W62146  26.606  27.516   1.247
98588W        W62147   4.889  44.434  13.463
98589W        W62148   7.286   0.849  13.510
98590W        W62149   0.472  15.272   1.422
98591W        W62150  36.377  19.561   2.232
98592W        W62151  43.451  24.578  13.043
98593W        W62152  27.631  32.541  14.806
98594W        W62153  21.643  13.107  11.942
98595W        W62154  27.560   3.943   4.635
98596W        W62155  34.558  15.202   1.309
98597W        W62156  42.498  22.571  13.477
98598W        W62157  36.414  27.515   1.798
98599W        W62158  15.143  16.280  10.507
98600W        W62159  37.365  41.864   2.358
98601W        W62160  26.630  38.934   4.255
98602W        W62161  32.617  16.694  12.447
98603W        W62162  19.767  43.964  11.896
98604W        W62163  44.385  32.011   4.176
98605W        W62164  35.530  29.003  11.430
98606W        W62165   7.288  41.468  11.041
98607W        W62166  14.825  25.969   0.370
98608W        W62167  35.091  35.972   0.295
98609W        W62168  40.897   2.401   1.916
98610W        W62169  14.658   0.417  13.443
98611W        W62170  18.166  43.325   2.710
98612W        W62171  13.117  22.208   2.837
98613W        W62172  24.064   4.227  12.491
98614W        W62173  36.880  25.000  12.499
98615W        W62174  15.259  16.285   4.654
98616W        W62175  12.780  43.419   5.294
98617W        W62176  24.111  40.362  12.988
98618W        W62177  12.688  39.394   2.795
98619W        W62178  21.613  31.141  12.873
98620W        W62179   4.423  32.456  11.547
98621W        W62180  18.622  38.494  13.041
98622W        W62181  12.702  12.228   3.651
98623W        W62182  21.680  23.723  14.927
98624W        W62183  34.397  11.622   2.323
98625W        W62184   3.908   6.836   4.731
98626W        W62185  30.934  30.025  14.881
98627W        W62186  14.647  29.058  12.435
98628W        W62187  38.006  18.722   1.796
98629W        W62188  44.484  39.819   4.219
98630W        W62189  24.025  37.034   1.744
98631W        W62190  20.037  14.596  12.483
98632W        W62191  21.554   0.891  10.966
98633W        W62192  14.757  29.039  14.498
98634W        W62193  42.292  24.120   0.437
98635W        W62194  33.565   2.784   0.305
98636W        W62195   7.236  35.966   4.791
98637W        W62196   3.837  42.514   1.324
98638W        W62197  19.137  43.790  11.544
98639W        W62198  40.005  38.421   0.452
98640W        W62199  27.687  11.769   5.309
98641W        W62200  18.582  21.169   3.334
98642W        W62201  37.043   9.737  11.101
98643W        W62202   6.879  41.341  14.934
98644W        W62203  41.343  13.718  14.950
98645W        W62204  22.508  34.014   1.871
98646W        W62205  33.450   9.862  14.994
98647W        W62206   6.692  35.555   4.348
98648W        W62207  27.941  44.975  14.508
98649W        W62208   4.920  11.132   2.738
98650W        W62209  38.865  11.355  11.870
98651W        W62210  13.643  23.632   0.245
98652W        W62211  18.246  26.613  11.988
98653W        W62212   3.747  43.919   4.279
98654W        W62213  11.129  16.079   2.680
98655W        W62214  28.049   9.250  14.422
98656W        W62215  14.733   1.263  11.872
98657W        W62216   1.894  38.337  13.806
98658W        W62217  27.023  36.884  12.886
98659W        W62218   8.711  34.099   1.331
98660W        W62219  44.489  17.644  12.039
98661W        W62220  15.606  29.666  14.425
98662W        W62221  28.121   1.309  11.947
98663W        W62222  33.077  44.430   3.855
98664W        W62223  14.813  26.042   1.327
98665W        W62224   6.811  16.592   1.733
98666W        W62225  16.592  32.583  11.892
98667W        W62226  40.388  38.458   3.728
98668W        W62227  32.562  38.504  14.327
98669W        W62228  20.691  23.016   4.353
98670W        W62229   1.851  26.128   3.266
98671W        W62230  25.592  10.816   1.761
98672W        W62231  42.460   5.318   2.723
98673W        W62232  19.254  40.866   4.728
98674W        W62233  15.644  20.690  11.032
98675W        W62234  18.172  32.130  13.963
98676W        W62235  33.594  18.260  11.449
98677W        W62236  17.739  24.022  14.799
98678W        W62237  27.586  15.206   0.464
98679W        W62238   4.347  17.305   1.449
98680W        W62239   7.276  13.639   2.898
98681W        W62240   2.388  21.247  12.357
98682W        W62241  17.110   3.316   5.142
98683W        W62242  37.577   9.764   2.789
98684W        W62243  14.800  26.482   0.308
98685W        W62244  36.845   0.322   2.833
98686W        W62245   5.206  35.020  13.027
98687W        W62246  43.992   5.896   4.205
98688W        W62247   1.744  41.534  14.030
98689W        W62248  36.885  26.466  14.292
98690W        W62249   7.175  30.035   3.806
98691W        W62250   5.869  11.212   0.251
98692W        W62251  41.341  40.993  12.987
98693W        W62252  11.364   5.216  13.413
98694W        W62253   4.233  23.663  13.044
98695W        W62254  24.631  28.546   3.371
98696W        W62255   6.318  31.555   3.799
98697W        W62256  41.428  35.530   0.450
98698W        W62257  40.825   3.288   0.913
98699W        W62258  32.083   3.441  13.050
98700W        W62259  30.012  33.120   4.280
98701W        W62260  22.605  37.961  13.846
98702W        W62261   8.691  37.538   0.752
98703W        W62262  25.597  14.612   4.288
98704W        W62263  36.500  36.437  13.350
98705W        W62264  23.130  23.066   0.931
98706W        W62265  24.131  43.508   3.306
98707W        W62266  34.486  23.145   0.735
98708W        W62267   1.919   1.921  12.560
98709W        W62268  13.350  22.580   2.771
98710W        W62269   7.389  15.665  14.420
98711W        W62270  20.550  22.251  12.339
98712W        W62271  19.073   2.917  14.474
98713W        W62272   6.232  20.220   2.312
98714W        W62273  39.924  24.536  13.925
98715W        W62274   7.243  31.991  13.794
98716W        W62275  41.922  22.097   0.458
98717W        W62276  36.574  43.488   0.351
98718W        W62277  30.032  43.271  14.028
98719W        W62278  29.637  33.053   3.316
98720W        W62279  42.897  27.970  11.048
98721W        W62280  22.204  24.493   4.723
98722W        W62281   0.307  28.616  13.449
98723W        W62282  25.006  14.705  14.825
98724W        W62283  20.036  15.619   1.260
98725W        W62284  32.404  26.637   1.749
98726W        W62285  30.614   4.390  14.409
98727W        W62286  31.561  25.710  12.966
98728W        W62287  26.469   7.221  12.045
98729W        W62288  10.312   0.851  11.035
98730W        W62289  14.113  27.645   3.292
98731W        W62290   0.421  35.368   0.772
98732W        W62291  43.396  28.636   4.140
98733W        W62292  28.990  33.036  12.894
98734W        W62293  18.196  33.433  12.953
98735W        W62294  12.788  12.617   4.203
98736W        W62295  29.632   8.760   0.757
98737W        W62296  12.130  24.593  10.516
98738W        W62297  43.018  37.537  10.475
98739W        W62298  20.234  41.438  12.430
98740W        W62299  14.239  12.766   2.739
98741W        W62300  10.211   0.278   0.480
98742W        W62301  12.349  31.632  13.522
98743W        W62302  32.603  15.224   0.255
98744W        W62303  14.803   3.849  12.864
98745W        W62304  26.656  33.614   3.302
98746W        W62305   3.759   9.732  14.471
98747W        W62306  43.451  18.578   0.294
98748W        W62307  30.130   8.174  11.418
98749W        W62308   8.729  41.966   2.242
98750W        W62309  27.503  26.505   0.944
98751W        W62310  13.289  41.834   1.392
98752W        W62311   3.351  31.535   3.683
98753W        W62312  14.101  37.410  12.957
98754W        W62313   6.190  34.513  13.343
98755W        W62314   7.897  14.138  13.875
98756W        W62315  28.967  23.608  13.008
98757W        W62316   2.409  10.656   1.772
98758W        W62317  29.588  43.836  10.483
98759W        W62318  40.329  32.110   4.254
98760W        W62319  17.745  13.119  11.472
98761W        W62320  18.753  20.547   2.222
98762W        W62321   0.866   6.788   0.832
98763W        W62322   0.940   0.436   0.832
98764W        W62323  22.072  41.462  14.759
98765W        W62324  10.734  11.857  13.337
98766W        W62325   4.319  39.823  12.050
98767W        W62326   5.345  32.086  12.838
98768W        W62327  26.626  22.514   2.673
98769W        W62328  29.165  39.972   0.910
98770W        W62329  20.080  38.908   2.749
98771W        W62330  36.498  23.188   3.335
98772W        W62331  21.181   5.811  13.935
98773W        W62332  32.965  39.004   0.361
98774W        W62333  26.980  25.969  12.556
98775W        W62334  42.291  31.937  14.445
98776W        W62335  10.743  40.361  10.944
98777W        W62336   0.282  17.772   1.332
98778W        W62337  40.331  29.970   1.758
98779W        W62338   4.837  41.825  10.451
98780W        W62339  36.428  41.829  12.455
98781W        W62340  13.301  21.627  10.989
98782W        W62341  26.542  27.656  10.475
98783W        W62342  39.416  30.426  10.543
98784W        W62343  18.134  11.313  10.612
98785W        W62344  19.719  29.096  13.411
98786W        W62345   7.330   2.721   1.840
98787W        W62346  16.108  29.932   2.337
98788W        W62347   4.253   0.776   2.859
98789W        W62348  19.752  19.226  13.971
98790W        W62349  43.962  10.284  12.379
98791W        W62350   4.282  25.621  12.571
98792W        W62351  29.652  14.702   1.742
98793W        W62352  32.107  21.243   2.183
98794W        W62353  10.767  13.623   3.845
98795W        W62354  35.449   5.272   3.360
98796W        W62355  35.452  28.483  14.294
98797W        W62356   7.825  11.206  10.503
98798W        W62357  42.927  32.413   4.203
98799W        W62358  10.138  29.536  12.379
98800W        W62359  16.783   2.825  10.488
98801W        W62360  33.990  44.949  10.412
98802W        W62361  15.161  32.429   2.408
98803W        W62362  12.735  30.512   2.866
98804W        W62363  39.919  18.088   2.266
98805W        W62364  34.079  42.347  11.918
98806W        W62365   6.921  16.680   4.719
98807W        W62366  20.646   6.401   1.935
98808W        W62367  24.047  33.496  13.446
98809W        W62368  43.323  26.976   4.833
98810W        W62369  10.227   7.771  12.000
98811W        W62370  33.522  37.561   1.370
98812W        W62371  28.534  31.515  14.285
98813W        W62372  12.353  15.314   1.695
98814W        W62373  16.250  34.511   3.171
98815W        W62374  13.129  22.198  11.478
98816W        W62375  28.974  42.521   0.791
98817W        W62376   6.375  36.380  11.865
98818W        W62377  40.922  15.093  10.584
98819W        W62378  24.063  41.321   1.783
98820W        W62379  40.399  43.869   3.324
98821W        W62380  18.625   1.901  12.515
98822W        W62381  18.266  17.099   1.340
98823W        W62382  19.200   2.270  10.614
98824W        W62383  32.544  15.195   3.854
98825W        W62384   5.853  21.263   2.903
98826W        W62385  11.641  41.922   2.283
98827W        W62386  36.875  34.961  14.870
98828W        W62387   6.423  27.011  14.816
98829W        W62388  15.764  16.648   4.200
98830W        W62389  16.252  10.319   1.357
98831W        W62390  27.071  37.503   2.417
98832W        W62391   2.296   6.419   3.832
98833W        W62392  44.930  33.431  13.974
98834W        W62393  40.930  12.282   0.247
98835W        W62394  17.732  26.196  13.360
98836W        W62395  17.183  21.570   4.785
98837W        W62396  40.378   4.884   1.904
98838W        W62397  16.130   6.346   4.328
98839W        W62398  16.145  44.865   3.364
98840W        W62399  38.443  37.875  12.444
98841W        W62400  30.508  23.003  12.494
98842W        W62401   2.373  29.166  14.277
98843W        W62402  14.136  40.303  11.974
98844W        W62403  42.325  16.757  14.998
98845W        W62404  31.564  42.011  13.991
98846W        W62405  22.593  11.347  13.928
98847W        W62406   7.288  15.767   0.423
98848W        W62407  35.478   0.470   1.863
98849W        W62408  12.198  42.414   2.806
98850W        W62409  15.646  42.390  10.913
98851W        W62410   7.253   3.760   3.323
98852W        W62411  18.604   9.804  13.983
98853W        W62412  11.731  31.948   2.774
98854W        W62413  18.550  27.948  14.329
98855W        W62414  21.581  43.430  11.543
98856W        W62415   1.348  26.070   0.431
98857W        W62416  11.749  21.195  13.512
98858W        W62417  18.659  39.864   1.275
98859W        W62418   6.676  28.100  14.395
98860W        W62419  37.472  28.996  14.279
98861W        W62420  18.253  28.526  13.793
98862W        W62421   4.408  36.859   2.747
98863W        W62422  14.133  13.205   2.391
98864W        W62423   2.919  10.159   1.432
98865W        W62424   4.449   1.847   2.861
98866W        W62425  26.191  21.119   1.359
98867W        W62426  33.905  31.073  12.998
98868W        W62427   6.247  16.098   3.849
98869W        W62428  18.136  19.780   2.268
98870W        W62429  20.095  39.819  11.018
98871W        W62430  19.719  21.741   0.730
98872W        W62431  33.598  14.601   0.296
98873W        W62432  15.128  29.021   3.307
98874W        W62433   5.904  29.601   0.398
98875W        W62434  36.896   6.255   2.838
98876W        W62435  17.284   1.751  12.371
98877W        W62436   6.814   3.735  14.773
98878W        W62437  25.598  18.715   1.310
98879W        W62438   5.329  15.262   1.283
98880W        W62439  13.667  19.564   2.867
98881W        W62440   3.373  10.852   2.794
98882W        W62441   2.853  41.029   4.634
98883W        W62442  14.239  26.694  11.033
98884W        W62443   0.849  30.027   1.775
98885W        W62444  28.486  25.156  11.985
98886W        W62445   8.800  17.181   5.214
98887W        W62446  28.515  10.216   2.199
98888W        W62447  20.163   4.251   2.726
98889W        W62448  40.518   6.379  11.047
98890W        W62449  24.089  18.056  14.279
98891W        W62450  23.605  20.170   0.381
98892W        W62451  14.141   4.941  10.102
98893W        W62452  35.020  35.927  11.530
98894W        W62453  25.707  29.506  10.467
98895W        W62454  28.125  16.265  12.349
98896W        W62455  14.111   9.822   3.368
98897W        W62456  30.635  18.730  13.952
98898W        W62457   4.321   1.306  10.543
98899W        W62458  35.493  33.101  10.942
98900W        W62459   4.774   7.708   3.694
98901W        W62460  25.630  42.502  11.046
98902W        W62461  28.448  11.863  14.423
98903W        W62462  41.032  19.762   0.302
98904W        W62463  33.515  41.441   2.380
98905W        W62464  17.300  26.472  13.362
98906W        W62465  38.981  14.722   3.191
98907W        W62466   9.865  21.749   0.828
98908W        W62467   2.358  11.774  10.044
98909W        W62468   0.745  21.722   2.250
98910W        W62469   7.688  24.484  11.053
98911W        W62470  21.599  40.017   2.234
98912W        W62471  36.457   5.932  12.488
98913W        W62472  31.447  38.968   0.792
98914W        W62473  38.421   7.246   4.718
98915W        W62474  43.351  22.029   3.759
98916W        W62475  34.892   0.474  12.848
98917W        W62476  43.880  37.853   3.794
98918W        W62477  14.645   2.295   4.652
98919W        W62478  35.601   5.348   2.763
98920W        W62479   8.324  29.599   3.838
98921W        W62480  35.957  22.186   1.277
98922W        W62481  38.939  39.537   4.213
98923W        W62482  38.048  40.334  14.803
98924W        W62483  35.924   3.770   1.215
98925W        W62484  35.470   0.888  12.579
98926W        W62485  21.681  17.738   3.344
98927W        W62486  21.151   2.922  13.539
98928W        W62487  21.057  35.593  13.410
98929W        W62488   6.355  26.199   3.178
98930W        W62489  36.539  41.350  10.516
98931W        W62490  22.628   2.462   1.328
98932W        W62491  25.663  38.947   0.462
98933W        W62492  38.446  24.690  14.385
98934W        W62493   0.751  38.378  13.996
98935W        W62494   6.379  43.799   4.837
98936W        W62495  10.681  11.633   3.733
98937W        W62496  15.261  24.011   0.360
98938W        W62497  37.527  31.902   5.678
98939W        W62498  30.480  39.405   3.293
98940W        W62499  13.222  39.485   1.873
98941W        W62500  34.476  43.409   3.376
98942W        W62501  32.578  37.013   0.427
98943W        W62502  27.659  21.755  14.936
98944W        W62503  36.449  10.268   4.720
98945W        W62504   8.236   5.326  12.515
98946W        W62505   1.306  30.546  14.407
98947W        W62506  18.645  38.044  12.374
98948W        W62507  10.293  11.300   1.707
98949W        W62508  12.341  15.741  10.412
98950W        W62509  25.971  18.296  14.979
98951W        W62510  28.585  30.554  13.465
98952W        W62511  36.976   3.901  13.810
98953W        W62512  42.502   3.426  12.414
98954W        W62513  11.180   0.288  14.504
98955W        W62514  26.071  38.541   4.652
98956W        W62515  12.694   8.203  11.944
98957W        W62516  11.295   8.164  12.523
98958W        W62517   4.207  41.859  11.563
98959W        W62518  28.058   7.694   1.279
98960W        W62519  29.663  43.943   0.951
98961W        W62520  33.380  10.697  14.766
98962W        W62521  13.755   7.755  12.832
98963W        W62522  34.466   1.370   2.768
98964W        W62523  42.448   1.336   2.275
98965W        W62524  40.862  19.039  10.628
98966W        W62525  30.158  13.818   0.441
98967W        W62526   8.722  13.330   1.720
98968W        W62527  42.504  35.494  13.805
98969W        W62528  17.651   1.461   0.369
98970W        W62529   2.251  16.154  11.487
98971W        W62530  42.471  15.798  14.366
98972W        W62531  43.882  31.134   1.786
98973W        W62532  19.568   9.651   1.712
98974W        W62533  34.560  43.380  11.559
98975W        W62534  20.079  16.286   3.778
98976W        W62535  30.979  22.577   1.446
98977W        W62536   8.815  15.765  12.898
98978W        W62537  15.716   6.220  10.063
98979W        W62538  18.072   5.399  14.972
98980W        W62539   3.804  10.794   4.812
98981W        W62540  12.318  29.112   2.814
98982W        W62541  12.711  38.950   2.870
98983W        W62542   2.438  40.048  10.597
98984W        W62543  44.302   3.379   2.413
98985W        W62544  15.231  30.621   4.719
98986W        W62545  23.505  40.415   1.378
98987W        W62546  20.211  12.671   5.262
98988W        W62547  20.057  44.401   1.792
98989W        W62548  26.999  23.591   2.838
98990W        W62549  12.276  39.532   1.428
98991W        W62550   1.903   1.808   1.321
98992W        W62551  39.530  29.440  12.533
98993W        W62552  22.114  34.385   2.389
98994W        W62553   0.800  10.261   5.308
98995W        W62554   8.662  14.258  12.475
98996W        W62555  39.541  27.632   1.788
98997W        W62556  42.464  10.856   0.468
98998W        W62557  20.528  40.308  11.071
98999W        W62558  30.447  17.259   4.626
99000W        W62559   7.850  43.415   2.880
99001W        W62560  44.286  28.951   1.421
99002W        W62561   3.855  30.087  11.965
99003W        W62562  26.663   0.980   2.184
99004W        W62563  31.507   8.707  11.374
99005W        W62564  22.132  42.377  13.415
99006W        W62565  21.210  27.103  10.946
99007W        W62566  41.313   8.876   4.314
99008W        W62567  41.480  27.578  14.975
99009W        W62568  33.098  22.621  14.440
99010W        W62569  41.413  38.370   3.703
99011W        W62570  19.664   4.227   3.782
99012W        W62571  40.049  26.624   2.349
99013W        W62572  12.137  22.629  12.074
99014W        W62573   7.795  39.905   1.359
99015W        W62574  34.385  26.992  11.891
99016W        W62575  25.582  15.800   2.754
99017W        W62576  28.649  32.530  10.617
99018W        W62577  16.080  27.520  11.390
99019W        W62578   1.372  41.897  11.945
99020W        W62579  11.205  41.463   0.900
99021W        W62580  28.959   1.383  12.056
99022W        W62581  35.937  34.374   1.409
99023W        W62582  35.570  44.407  12.426
99024W        W62583  12.638   0.336   2.893
99025W        W62584  37.445  31.148   4.114
99026W        W62585   5.397  21.661  10.588
99027W        W62586  16.093  35.931   2.266
99028W        W62587  30.492  30.587  14.399
99029W        W62588  43.284  28.571  13.353
99030W        W62589  28.988   0.789   0.876
99031W        W62590  17.761  32.421  13.346
99032W        W62591   7.688  33.422  13.470
99033W        W62592  13.615  22.180   5.687
99034W        W62593  35.074   6.694  13.790
99035W        W62594  10.768  32.401   4.296
99036W        W62595  20.088  21.126  11.898
99037W        W62596   8.201  41.368  13.488
99038W        W62597  27.626  24.110  10.503
99039W        W62598  33.391  30.512   0.755
99040W        W62599   3.391  12.238   0.927
99041W        W62600  11.133  30.642   3.817
99042W        W62601  11.209   5.262  14.002
99043W        W62602  39.386  22.248  11.415
99044W        W62603   2.919   1.806  13.831
99045W        W62604  32.973  33.943  14.305
99046W        W62605  33.536  28.456  12.527
99047W        W62606  13.154  44.418   3.377
99048W        W62607  22.035  42.488   2.864
99049W        W62608  30.535   1.735  11.593
99050W        W62609   7.340  19.635   4.122
99051W        W62610  18.221  39.852  12.943
99052W        W62611  24.609  11.209   2.879
99053W        W62612   9.332  44.950   4.166
99054W        W62613  37.838   7.755   1.355
99055W        W62614  34.935  30.010  13.026
99056W        W62615  11.253  10.698  13.889
99057W        W62616  12.194  22.544   2.259
99058W        W62617  12.845  15.303   1.847
99059W        W62618   7.225  43.814   3.217
99060W        W62619  31.553  19.646  12.829
99061W        W62620  32.571  31.546  12.387
99062W        W62621  23.185  32.898   4.668
99063W        W62622  14.781  16.676   2.784
99064W        W62623  25.693   7.385   4.747
99065W        W62624  20.563   5.833  12.828
99066W        W62625  34.115  12.268   4.240
99067W        W62626  28.581  29.145  13.986
99068W        W62627  13.284  10.185   1.415
99069W        W62628  22.191  10.362   2.859
99070W        W62629   1.278  28.451   0.885
99071W        W62630  20.257   3.248  10.589
99072W        W62631  23.625  21.070   2.869
99073W        W62632  24.048  33.623  14.378
99074W        W62633  28.078  13.807   3.287
99075W        W62634   1.859   5.745   0.376
99076W        W62635  13.837  32.504   4.803
99077W        W62636  40.310   9.719   4.676
99078W        W62637  15.168  11.279   2.690
99079W        W62638  38.874  34.019   0.766
99080W        W62639  15.251   7.760  12.917
99081W        W62640  22.710  34.022   2.874
99082W        W62641  35.475  26.125  13.828
99083W        W62642   8.713   7.280  14.899
99084W        W62643  28.554  44.904   4.756
99085W        W62644  30.466  24.980  12.565
99086W        W62645  44.979  26.121   4.753
99087W        W62646  28.144  38.901   5.227
99088W        W62647  10.382  24.675  13.904
99089W        W62648  42.496  34.052   3.808
99090W        W62649  43.934  31.531  13.483
99091W        W62650  21.580  43.990   1.226
99092W        W62651  34.415  15.787  11.505
99093W        W62652   1.948  28.606   1.373
99094W        W62653  24.097   3.261  12.383
99095W        W62654   2.448  34.878   4.285
99096W        W62655  37.537  43.466  11.470
99097W        W62656  40.483  38.352  12.535
99098W        W62657   4.923  17.575   2.213
99099W        W62658  40.867  14.828   1.916
99100W        W62659  35.596   3.789   2.754
99101W        W62660  26.581  34.907  10.513
99102W        W62661  24.582  24.707  12.575
99103W        W62662  12.796  32.538  14.386
99104W        W62663   0.483  20.551  11.449
99105W        W62664  29.938   1.398  14.773
99106W        W62665  19.279  41.354   3.367
99107W        W62666  37.475  31.626  14.486
99108W        W62667  15.652  33.885  14.477
99109W        W62668  43.773  35.434   4.162
99110W        W62669  10.648   3.778   3.716
99111W        W62670  21.188  20.159   1.867
99112W        W62671  42.841   6.258  12.402
99113W        W62672  37.570  13.181  11.995
99114W        W62673   4.371  21.047   0.383
99115W        W62674  23.531  44.374  11.922
99116W        W62675   7.764   8.722   5.210
99117W        W62676  32.109  10.746   2.671
99118W        W62677   9.169  43.929  10.601
99119W        W62678  14.805  26.980  10.087
99120W        W62679  22.120  10.158   3.850
99121W        W62680  18.092  21.160  13.004
99122W        W62681  31.419  25.154  14.760
99123W        W62682  25.050  23.610   4.731
99124W        W62683  32.061   2.309  14.501
99125W        W62684  23.054   8.331   4.734
99126W        W62685  32.504  21.746  14.999
99127W        W62686  10.179  17.652  10.560
99128W        W62687  16.137  34.877  13.935
99129W        W62688  42.504  35.472  11.432
99130W        W62689  28.612   9.261  11.579
99131W        W62690  25.211  35.075   2.770
99132W        W62691  40.050  11.296  13.504
99133W        W62692  14.598  33.416   3.316
99134W        W62693   5.203  29.493  13.388
99135W        W62694  14.178  44.946   1.894
99136W        W62695  25.659  13.250   1.349
99137W        W62696  33.926  13.650   1.909
99138W        W62697  14.778  40.407  14.996
99139W        W62698  23.655  42.907   1.419
99140W        W62699  25.068  38.931   3.817
99141W        W62700  37.045  25.592   3.857
99142W        W62701  40.974  12.667   3.256
99143W        W62702  13.328  25.537   2.200
99144W        W62703  43.365  32.506  13.398
99145W        W62704   0.420  14.611   3.674
99146W        W62705  28.564   2.865  11.570
99147W        W62706  37.442   9.352  12.490
99148W        W62707  36.507  28.462  14.354
99149W        W62708  11.813  38.003   5.179
99150W        W62709  33.495  11.226  13.869
99151W        W62710  30.654  38.529   9.946
99152W        W62711  11.711  20.051   0.768
99153W        W62712   1.857  40.363   4.608
99154W        W62713   6.719  11.628  13.369
99155W        W62714  15.118  32.424  12.388
99156W        W62715  20.744  40.469   3.703
99157W        W62716  21.034  11.716  13.037
99158W        W62717  40.946  37.016  14.413
99159W        W62718   0.984  41.951  10.916
99160W        W62719   2.936   5.821   2.380
99161W        W62720  27.129  20.258  12.411
99162W        W62721  44.845  19.671  13.476
99163W        W62722   8.782  37.874   2.873
99164W        W62723  24.643  14.264  11.025
99165W        W62724  26.008  40.039  10.925
99166W        W62725  10.266   1.387  11.091
99167W        W62726  34.060  41.516   2.241
99168W        W62727  38.056  22.622  10.614
99169W        W62728  23.544  23.662  13.510
99170W        W62729   2.869  26.568   3.197
99171W        W62730  30.982  32.014  14.994
99172W        W62731  38.898  13.719  10.536
99173W        W62732  41.898  35.551   0.918
99174W        W62733  19.733  16.241  11.411
99175W        W62734   9.300  41.895  10.645
99176W        W62735  39.500  14.786  12.883
99177W        W62736  15.172  21.514   2.327
99178W        W62737  40.434   2.445  10.525
99179W        W62738  11.783   3.294  14.492
99180W        W62739  26.165  17.084  10.936
99181W        W62740  13.195  42.374  13.924
99182W        W62741   4.204  40.872   0.339
99183W        W62742  20.173   0.833  10.904
99184W        W62743  32.116  25.505   1.709
99185W        W62744  10.792  40.430  10.406
99186W        W62745  41.958   9.811   0.824
99187W        W62746  33.943   7.414   1.364
99188W        W62747   8.756  35.436  12.017
99189W        W62748  27.635  21.150   4.318
99190W        W62749  25.682   5.690  11.036
99191W        W62750  19.669  18.600   4.644
99192W        W62751  14.630  44.424  13.844
99193W        W62752  20.257  28.437   4.292
99194W        W62753  16.199   1.845  10.896
99195W        W62754  38.927   5.831   1.289
99196W        W62755  31.092  29.595  14.297
99197W        W62756   0.384  16.799   3.733
99198W        W62757  23.151  33.036  13.887
99199W        W62758   4.805  37.374   2.786
99200W        W62759  17.206  16.613  12.533
99201W        W62760  28.956  27.983  13.026
99202W        W62761  30.125  23.518   1.334
99203W        W62762  31.011  38.010   4.216
99204W        W62763   1.935  28.088  14.371
99205W        W62764  36.390  28.074   0.298
99206W        W62765  14.233  30.021   2.716
99207W        W62766  26.985  20.713  12.369
99208W        W62767  30.566  25.627   5.092
99209W        W62768  33.430   2.812   2.873
99210W        W62769  37.462  43.822  12.506
99211W        W62770  10.253  22.174  11.036
99212W        W62771   7.768  26.515   3.202
99213W        W62772  34.911  26.204  12.471
99214W        W62773  10.173  33.546   1.762
99215W        W62774  33.083  36.014  11.002
99216W        W62775  30.073  44.499  13.510
99217W        W62776  15.802  29.574  14.032
99218W        W62777  12.680  11.184   2.204
99219W        W62778  18.226  26.031   2.806
99220W        W62779  27.056  43.896   0.811
99221W        W62780   6.274  20.623   0.848
99222W        W62781   9.833  29.126  14.353
99223W        W62782   2.411  23.153  13.801
99224W        W62783  22.702  40.820   2.345
99225W        W62784  27.960   6.249   0.444
99226W        W62785  11.280   1.731  14.506
99227W        W62786  15.175  29.050   0.466
99228W        W62787   4.303   1.794   2.290
99229W        W62788   2.339  16.259  13.414
99230W        W62789  41.007   9.830  10.926
99231W        W62790  20.674  32.002   4.216
99232W        W62791  38.389  24.566  11.122
99233W        W62792  38.516   4.818  14.989
99234W        W62793  33.942  37.071   2.671
99235W        W62794  43.901  23.534  13.979
99236W        W62795  30.110  23.992  12.546
99237W        W62796  17.672  21.254   4.149
99238W        W62797  37.473  16.230  13.800
99239W        W62798  12.632  44.988  12.445
99240W        W62799  32.135  43.426   1.378
99241W        W62800  15.183  34.950  12.357
99242W        W62801  38.362   5.896   0.890
99243W        W62802  19.546  27.054  11.607
99244W        W62803   1.404  18.588  14.798
99245W        W62804   2.861  23.499   0.418
99246W        W62805  37.921   1.405   3.754
99247W        W62806  38.865  19.046  13.886
99248W        W62807  23.571  21.056  11.900
99249W        W62808  22.175  41.367  11.050
99250W        W62809   4.823  28.124  11.000
99251W        W62810  39.872  21.662  12.036
99252W        W62811  44.954  29.075   3.752
99253W        W62812  10.354   9.234   4.342
99254W        W62813  42.920  40.491   2.670
99255W        W62814  27.957  40.406   4.237
99256W        W62815  28.479  14.097   2.262
99257W        W62816  16.104  23.133   1.284
99258W        W62817   6.334  43.899  12.986
99259W        W62818  24.112  10.699   1.278
99260W        W62819  24.613  30.500  14.963
99261W        W62820  29.552   1.848  12.522
99262W        W62821  30.996  12.742  10.147
99263W        W62822  37.467  23.018  14.000
99264W        W62823  21.662  26.152   4.732
99265W        W62824  23.510  35.541   0.304
99266W        W62825  39.861  21.074   4.772
99267W        W62826   7.827  41.400  12.920
99268W        W62827  15.260  40.517  10.992
99269W        W62828   7.327  21.066   4.337
99270W        W62829  42.796  38.070  13.946
99271W        W62830  22.007  29.526  12.002
99272W        W62831  22.569  29.156  11.604
99273W        W62832  15.760  27.976  14.883
99274W        W62833  25.022  41.831   2.855
99275W        W62834   7.816   7.417  10.022
99276W        W62835  41.998   0.858   4.173
99277W        W62836   5.242   3.948  14.433
99278W        W62837  26.034   3.265   5.161
99279W        W62838  26.087  35.555   4.236
99280W        W62839  43.953  25.484  11.895
99281W        W62840   1.878  34.041  13.948
99282W        W62841  12.749  40.394   4.287
99283W        W62842  18.711  33.587   3.841
99284W        W62843  19.041  41.894   1.369
99285W        W62844  15.779  35.522   2.264
99286W        W62845  18.290  30.146   4.282
99287W        W62846  16.724  18.548   4.737
99288W        W62847   2.426   9.150   4.616
99289W        W62848  16.111  30.056  11.990
99290W        W62849  40.896  13.183  13.937
99291W        W62850  14.814  14.292  10.410
99292W        W62851  38.054  35.003   4.605
99293W        W62852  20.690  11.168   4.731
99294W        W62853  14.161  11.262  13.441
99295W        W62854  42.523  12.737   3.357
99296W        W62855   9.222  36.414  12.879
99297W        W62856  40.958  42.956  10.593
99298W        W62857   0.756  40.820   2.818
99299W        W62858  28.542  25.675  14.868
99300W        W62859  27.479  22.505  12.426
99301W        W62860   4.880  36.519   0.802
99302W        W62861  11.318   3.329   2.812
99303W        W62862  19.570  33.600   2.810
99304W        W62863  29.542  44.451   4.765
99305W        W62864   3.882  36.583   4.702
99306W        W62865  35.000   8.850  11.455
99307W        W62866  18.614  43.352  10.977
99308W        W62867   9.280   1.957  13.358
99309W        W62868  34.090   0.884   1.214
99310W        W62869  33.957  33.532  12.511
99311W        W62870  29.050   0.924  13.315
99312W        W62871  44.916  43.783   4.268
99313W        W62872  15.620  36.512  14.410
99314W        W62873  23.091  23.702  11.957
99315W        W62874  37.946  40.979   3.726
99316W        W62875  35.062  24.010  11.563
99317W        W62876  27.477  25.050  13.973
99318W        W62877   5.836  37.488  10.644
99319W        W62878  14.810  14.742  11.120
99320W        W62879  38.405  38.921   0.778
99321W        W62880  27.064  28.087  10.963
99322W        W62881  31.434  32.413   4.627
99323W        W62882  20.533  27.463  10.073
99324W        W62883  28.478  20.218  11.397
99325W        W62884  24.570  30.125  12.088
99326W        W62885  37.392  11.210  11.904
99327W        W62886  12.665  42.346   3.237
99328W        W62887  30.121   2.413  14.000
99329W        W62888   6.792  10.656   4.775
99330W        W62889  26.580   5.337  13.898
99331W        W62890  11.359  22.250   4.309
99332W        W62891  41.323   2.418   2.719
99333W        W62892  36.964  11.818   1.908
99334W        W62893  27.504  21.656   0.310
99335W        W62894  31.942   7.867  14.898
99336W        W62895  15.314  41.470   0.861
99337W        W62896  19.648  18.589  12.478
99338W        W62897  27.473  18.239  13.414
99339W        W62898  42.776   2.416  11.056
99340W        W62899   7.903   8.686   4.760
99341W        W62900  28.666  36.883  13.024
99342W        W62901   1.317   8.174   4.261
99343W        W62902   6.681  18.623  10.443
99344W        W62903  28.060  29.053   5.164
99345W        W62904   7.902   4.805   4.786
99346W        W62905  27.080  22.250   3.168
99347W        W62906  19.634  34.423   0.326
99348W        W62907  28.940  24.672  14.422
99349W        W62908  43.296  27.445   3.830
99350W        W62909  20.612   2.360  14.305
99351W        W62910  41.976  32.586   1.364
99352W        W62911   9.685  15.091  13.863
99353W        W62912   9.688  19.153  11.973
99354W        W62913   1.880  37.424   3.168
99355W        W62914   7.253  23.118   0.251
99356W        W62915  44.299  32.525   1.260
99357W        W62916  15.177   0.969  13.994
99358W        W62917  28.468  12.646   0.746
99359W        W62918   8.225   5.256   1.896
99360W        W62919  28.932  41.323   2.286
99361W        W62920  24.182  36.565  13.035
99362W        W62921   8.774   5.818  14.448
99363W        W62922  14.256   8.372  10.642
99364W        W62923  15.322   8.396  12.412
99365W        W62924   2.242  19.095   4.307
99366W        W62925  34.438   2.370   2.207
99367W        W62926  40.321  19.712  14.798
99368W        W62927  30.543  35.417   0.938
99369W        W62928   4.410   0.427  14.473
99370W        W62929  14.620   5.255   9.533
99371W        W62930  21.250  44.813  12.840
99372W        W62931  16.605  39.890   4.791
99373W        W62932  35.960  28.057  11.529
99374W        W62933  43.413   2.838   0.430
99375W        W62934  14.749  40.022   4.826
99376W        W62935  29.994  20.562   3.193
99377W        W62936  40.983   5.696   1.216
99378W        W62937  39.546  17.585   1.744
99379W        W62938  12.332  22.194   4.337
99380W        W62939   2.375  33.616   4.148
99381W        W62940  37.434  15.706  11.457
99382W        W62941  16.746  32.931  11.046
99383W        W62942  44.502  33.427  14.408
99384W        W62943   3.919  11.356   0.414
99385W        W62944  26.528   6.375  11.506
99386W        W62945  24.592  34.978  10.974
99387W        W62946  34.596  43.352   4.646
99388W        W62947  22.220  24.698  14.018
99389W        W62948  13.761  12.301   3.714
99390W        W62949   6.190   7.209  10.436
99391W        W62950  32.910  36.091   0.380
99392W        W62951  42.998  37.948   1.277
99393W        W62952  26.498   7.339   9.926
99394W        W62953  13.667   1.868   2.315
99395W        W62954  42.336  41.829   1.449
99396W        W62955   3.414  36.429   1.268
99397W        W62956  25.706  17.255   3.716
99398W        W62957  20.055  26.207   2.370
99399W        W62958  35.562  13.250  10.538
99400W        W62959   9.868  30.641   2.312
99401W        W62960  38.938  26.999  10.621
99402W        W62961  40.025  34.588  12.369
99403W        W62962  31.646  36.902   1.716
99404W        W62963  32.944  24.032  14.482
99405W        W62964   4.367  34.883  13.987
99406W        W62965   9.697  24.511   4.641
99407W        W62966  29.950  10.219   2.366
99408W        W62967   2.841  28.136   1.770
99409W        W62968   2.253  32.468  14.393
99410W        W62969  20.092   0.417   0.883
99411W        W62970  30.644  31.052  10.437
99412W        W62971  34.552  34.599  11.498
99413W        W62972   1.739  29.598   3.667
99414W        W62973   4.238  41.512  11.526
99415W        W62974  21.029   5.718  11.990
99416W        W62975   4.416   0.387   0.347
99417W        W62976  44.370  42.415  12.031
99418W        W62977  22.681  31.954  10.575
99419W        W62978  36.400  31.036   4.689
99420W        W62979   0.817  33.054   0.316
99421W        W62980   6.371  28.671   3.287
99422W        W62981   4.751  38.365   4.700
99423W        W62982   4.388  24.499  11.964
99424W        W62983   0.797  23.179  14.826
99425W        W62984  33.898  39.894   9.575
99426W        W62985  32.087  41.444  11.905
99427W        W62986  20.071  26.681  13.849
99428W        W62987   7.379  11.172  12.075
99429W        W62988  24.644  13.195  13.980
99430W        W62989  21.652  29.610  14.814
99431W        W62990  36.551  30.453   2.183
99432W        W62991  43.336  30.489   2.686
99433W        W62992  35.097  44.790  12.977
99434W        W62993   3.341  36.949  10.512
99435W        W62994  22.186  36.051   1.901
99436W        W62995   8.287  21.125  13.841
99437W        W62996  15.204  34.951   4.706
99438W        W62997  44.343  33.963   4.310
99439W        W62998   5.847  39.318   2.366
99440W        W62999  26.456  14.317   0.252
99441W        W63000  28.572  19.732  13.862
99442W        W63001   9.827  21.562   2.194
99443W        W63002  20.062  42.380  13.466
99444W        W63003  30.573  25.048  11.070
99445W        W63004  19.197   3.405   3.769
99446W        W63005   3.819  10.362  14.848
99447W        W63006  21.688  16.810  12.469
99448W        W63007  33.573  40.360   3.741
99449W        W63008  13.263  20.244  14.850
99450W        W63009   1.348  10.185   1.730
99451W        W63010  37.867  25.007  12.859
99452W        W63011  21.034  14.131   3.687
99453W        W63012  26.597  26.571   3.707
99454W        W63013  28.452   4.282  10.945
99455W        W63014  36.585  39.388  13.937
99456W        W63015  18.122  42.344   2.868
99457W        W63016   1.805  41.427   4.230
99458W        W63017  25.166   4.930   2.371
99459W        W63018  12.753  21.114  13.827
99460W        W63019  38.534   6.678   2.400
99461W        W63020  31.909  43.392  11.018
99462W        W63021  24.505  30.587   4.724
99463W        W63022  34.066  30.051   4.828
99464W        W63023   4.838  32.045  14.359
99465W        W63024   3.457   3.750   4.313
99466W        W63025  44.880  30.079  13.497
99467W        W63026  27.475  19.677   3.278
99468W        W63027  26.560  27.133   2.796
99469W        W63028  16.586  26.488  13.466
99470W        W63029  21.538  30.429  14.482
99471W        W63030  43.495  12.706   3.344
99472W        W63031  17.129   4.850   0.462
99473W        W63032  43.386  34.510  12.538
99474W        W63033   4.378  16.765   2.687
99475W        W63034  21.150  17.102   1.904
99476W        W63035  40.370  25.551   0.430
99477W        W63036  29.611  15.214  11.416
99478W        W63037  34.071  43.404   4.799
99479W        W63038  15.298  44.842   3.789
99480W        W63039  36.505  21.231   0.797
99481W        W63040   3.419  39.960  10.473
99482W        W63041  14.709   0.492   4.144
99483W        W63042  42.887  39.828   0.281
99484W        W63043   9.373  35.576  10.924
99485W        W63044  11.134  41.477  11.127
99486W        W63045  37.468  12.726  14.865
99487W        W63046  10.193  42.427   2.369
99488W        W63047  32.589  13.233   2.344
99489W        W63048  37.551   5.206  13.543
99490W        W63049   6.400   9.150  11.601
99491W        W63050  30.489  13.201   0.265
99492W        W63051  44.484  44.454   3.715
99493W        W63052  13.111   5.299  13.348
99494W        W63053  40.976  22.674   2.281
99495W        W63054  31.976   0.391   4.190
99496W        W63055   2.903  10.859  14.890
99497W        W63056  25.677  40.411  10.515
99498W        W63057  21.648  17.307   0.847
99499W        W63058  44.009  32.537   2.715
99500W        W63059   7.378  40.985   0.818
99501W        W63060  20.588  31.402  14.411
99502W        W63061   4.299  38.995  12.913
99503W        W63062   7.270  24.673  11.968
99504W        W63063  23.005  14.659   1.404
99505W        W63064  22.102  44.877   3.327
99506W        W63065  31.093  26.076   3.313
99507W        W63066   1.406  39.460   1.766
99508W        W63067  11.698  35.582  14.295
99509W        W63068   8.188  25.562  14.906
99510W        W63069   5.886   9.273   2.310
99511W        W63070   9.319  36.049  14.422
99512W        W63071  17.612  39.545  11.982
99513W        W63072   2.740  38.540  11.505
99514W        W63073   7.746  18.647   0.335
99515W        W63074   8.198  38.948   0.811
99516W        W63075  34.407  37.928  11.572
99517W        W63076  29.574  23.224   5.200
99518W        W63077  29.557  14.610   3.735
99519W        W63078  12.682  29.665  13.452
99520W        W63079  22.232  36.415  12.398
99521W        W63080   3.447  37.839   2.286
99522W        W63081  17.601  18.702  11.927
99523W        W63082   1.261   1.824  10.557
99524W        W63083  25.035  33.389   2.836
99525W        W63084  41.531  24.160  11.076
99526W        W63085  17.756  30.629   1.842
99527W        W63086  42.969  22.073   0.355
99528W        W63087  20.734   1.248   1.817
99529W        W63088  35.512  21.568   1.257
99530W        W63089  25.052   9.286   5.122
99531W        W63090  44.503  41.446   2.401
99532W        W63091  33.605  29.996   1.907
99533W        W63092  38.910  36.039   3.335
99534W        W63093  28.142  10.207  11.039
99535W        W63094   1.918   2.299  14.317
99536W        W63095  28.588   3.797   1.392
99537W        W63096  36.415  36.868  11.471
99538W        W63097  31.485  30.975  11.416
99539W        W63098  35.067   0.927  14.483
99540W        W63099  30.564  40.516  11.931
99541W        W63100  23.682   5.405  14.762
99542W        W63101  33.530  40.915  14.969
99543W        W63102  13.303   1.892   3.837
99544W        W63103  26.502   2.275  14.319
99545W        W63104   3.303  41.790   1.414
99546W        W63105  19.084   1.312   4.168
99547W        W63106  13.280  30.020   4.654
99548W        W63107  39.903   2.383   0.301
99549W        W63108  15.675  32.083   3.229
99550W        W63109  35.375   4.902   3.346
99551W        W63110  18.735  39.529  12.405
99552W        W63111  16.162  33.457  13.799
99553W        W63112   1.752  10.850   2.327
99554W        W63113  36.383  11.696   2.200
99555W        W63114  18.267  37.833   3.335
99556W        W63115  34.044  28.020  13.461
99557W        W63116   6.780   9.709  12.454
99558W        W63117  33.485  18.743   4.282
99559W        W63118  30.631  40.354   4.206
99560W        W63119  17.752  39.514   4.636
99561W        W63120  43.286  21.692   3.351
99562W        W63121   2.750  28.109   3.688
99563W        W63122  17.564   0.361   1.907
99564W        W63123  32.561  16.192  12.055
99565W        W63124  22.697  11.623  10.158
99566W        W63125  33.996   3.386   1.835
99567W        W63126   9.827  30.995  11.376
99568W        W63127  36.012  31.626   3.643
99569W        W63128  21.138  32.955  13.456
99570W        W63129  29.547   4.863   0.783
99571W        W63130  35.911  11.226   0.930
99572W        W63131  44.292  19.561   0.322
99573W        W63132  41.379  28.616   0.458
99574W        W63133  33.884  15.679   1.729
99575W        W63134  23.004  28.583   9.953
99576W        W63135   2.806  44.846  13.338
99577W        W63136   0.464   8.657  10.962
99578W        W63137   9.241   0.326   2.206
99579W        W63138   3.418  20.184  11.535
99580W        W63139   4.326  12.737  12.925
99581W        W63140   8.840   4.723  13.394
99582W        W63141  28.047  13.829  13.806
99583W        W63142  11.327  42.370   2.792
99584W        W63143   0.453  44.810  12.089
99585W        W63144  26.187  13.193  12.481
99586W        W63145  17.749  23.693   3.358
99587W        W63146  40.395  18.200   0.873
99588W        W63147  31.115   4.841   4.283
99589W        W63148  25.118  29.629   0.469
99590W        W63149  30.930  37.849   3.724
99591W        W63150  26.199  22.574   0.895
99592W        W63151  27.023  19.550  10.009
99593W        W63152  11.203   3.806   0.933
99594W        W63153  19.223  17.763   1.411
99595W        W63154  21.651  41.804   1.328
99596W        W63155  11.202  22.711  13.974
99597W        W63156   4.724   7.804   5.281
99598W        W63157  29.432  28.104  12.888
99599W        W63158   6.302  39.913   2.323
99600W        W63159  36.076  26.119   0.302
99601W        W63160  41.324   3.378   1.891
99602W        W63161  33.444  14.099   9.927
99603W        W63162  21.549  23.611  14.373
99604W        W63163  38.993  36.945   1.807
99605W        W63164   7.212  39.467   2.884
99606W        W63165  29.632  19.112   1.887
99607W        W63166   3.215  15.811   0.933
99608W        W63167  28.172  25.195  14.415
99609W        W63168  11.645  43.889  11.572
99610W        W63169   2.303  41.470  14.340
99611W        W63170   6.903  22.729  13.472
99612W        W63171  25.983  33.989  14.913
99613W        W63172  28.172  30.001   1.706
99614W        W63173  14.203  30.030  10.424
99615W        W63174  18.293   3.781   1.747
99616W        W63175   8.869  43.331   0.851
99617W        W63176  28.963   8.727   1.400
99618W        W63177  17.633  20.103  10.501
99619W        W63178  34.024  29.920   0.726
99620W        W63179  10.318  21.692   1.391
99621W        W63180  22.070  29.491   3.752
99622W        W63181   5.244  14.280  10.973
99623W        W63182  22.158  40.881  12.885
99624W        W63183   7.722  17.616  14.866
99625W        W63184  39.822  29.981  14.425
99626W        W63185   6.394  18.258   4.136
99627W        W63186  19.743   9.283  12.836
99628W        W63187  16.642  30.515  11.549
99629W        W63188  29.663   1.438   2.812
99630W        W63189  42.475  28.614   4.249
99631W        W63190  25.089   3.728  11.913
99632W        W63191  42.324  35.525  11.939
99633W        W63192  12.827  30.461   2.404
99634W        W63193  17.776  36.018   2.667
99635W        W63194   3.899  10.148   3.181
99636W        W63195  30.961  42.829   2.207
99637W        W63196  16.615  19.673  12.933
99638W        W63197  16.588  43.827  14.334
99639W        W63198  42.970  12.697   0.802
99640W        W63199   6.241  29.635  10.900
99641W        W63200  32.894  15.215   4.678
99642W        W63201  14.180   3.230   0.860
99643W        W63202  34.574  30.600  12.906
99644W        W63203  25.614  40.970   2.282
99645W        W63204  32.999  44.458  10.414
99646W        W63205   1.969  32.934  11.418
99647W        W63206   5.320   3.872   0.871
99648W        W63207  44.259   2.410  12.979
99649W        W63208  27.983  32.097   0.375
99650W        W63209   4.281  34.025  12.828
99651W        W63210  33.587   2.771   1.442
99652W        W63211  33.617  10.282  14.282
99653W        W63212  41.518   9.739  13.824
99654W        W63213  14.608   5.695   2.378
99655W        W63214  13.281  28.107   0.954
99656W        W63215  13.706  17.798   3.329
99657W        W63216   9.785  10.865   2.200
99658W        W63217  28.143  31.601  12.374
99659W        W63218  31.929   2.912   2.899
99660W        W63219  29.982  24.665   0.441
99661W        W63220  35.498  12.162  10.443
99662W        W63221   7.872  40.897   2.673
99663W        W63222  44.961  13.780  13.904
99664W        W63223  30.467  35.933  11.516
99665W        W63224   6.366  18.209  10.459
99666W        W63225   3.905  10.845  13.923
99667W        W63226  14.814  20.717  10.430
99668W        W63227  11.843  40.433   3.703
99669W        W63228  38.005   7.177  14.809
99670W        W63229  32.004  24.030  14.864
99671W        W63230  19.220  31.555  10.084
99672W        W63231  15.686  10.307   0.277
99673W        W63232   8.688  44.505   4.801
99674W        W63233  22.996  20.542  10.507
99675W        W63234   2.460  39.932  11.432
99676W        W63235  17.156   6.355   3.319
99677W        W63236  31.497  37.445   2.729
99678W        W63237  13.120  20.561   5.660
99679W        W63238  14.818  22.074  12.563
99680W        W63239  13.804  28.629   0.365
99681W        W63240  41.997  13.230  14.300
99682W        W63241  17.777  22.208   2.377
99683W        W63242  28.501   9.327  14.912
99684W        W63243  11.367  36.987   2.376
99685W        W63244  40.339  38.935   0.790
99686W        W63245   2.851  12.284  12.001
99687W        W63246  40.814  14.687   4.346
99688W        W63247  30.007  32.923  10.405
99689W        W63248  24.130  30.496  13.931
99690W        W63249   2.419   8.242  14.442
99691W        W63250  42.875  44.329   0.416
99692W        W63251   2.909  43.340  12.446
99693W        W63252  25.063  42.865  12.977
99694W        W63253  21.578  21.162  11.894
99695W        W63254  19.096  24.228   1.338
99696W        W63255  31.459  24.686   0.756
99697W        W63256  44.301  35.895  10.627
99698W        W63257   7.285  14.709  12.375
99699W        W63258  18.237  36.351  13.866
99700W        W63259  38.414  15.666   4.223
99701W        W63260  40.050  38.846  13.483
99702W        W63261  19.620  37.564  10.891
99703W        W63262   3.771  11.253  12.554
99704W        W63263  33.534  23.037   1.875
99705W        W63264   5.799  28.131   0.392
99706W        W63265  34.910   8.765  13.523
99707W        W63266  10.193  32.394   0.423
99708W        W63267  40.974  24.213   2.723
99709W        W63268  24.672  37.883  11.581
99710W        W63269  37.482  18.291   2.854
99711W        W63270  33.953  44.438  10.089
99712W        W63271  35.885  17.645   2.775
99713W        W63272  43.927   7.822   3.266
99714W        W63273  32.063  30.977  12.939
99715W        W63274  27.644  42.343  13.436
99716W        W63275  35.357  24.546  10.606
99717W        W63276  41.868  18.784   0.735
99718W        W63277   9.271   0.412   1.432
99719W        W63278  18.291  43.325   3.263
99720W        W63279  17.307  26.111   2.350
99721W        W63280   6.300  20.574   1.706
99722W        W63281  25.561  44.913   2.860
99723W        W63282  14.282  14.703   0.916
99724W        W63283  22.723  44.975  13.497
99725W        W63284   7.353  24.202  14.842
99726W        W63285   3.826  29.106   0.948
99727W        W63286  30.978  17.074  10.041
99728W        W63287  29.990  17.105  14.472
99729W        W63288  31.455  34.521  14.788
99730W        W63289  36.026  44.417   3.314
99731W        W63290  18.696  21.747  11.514
99732W        W63291  43.325  11.212   2.342
99733W        W63292  25.595  38.542   0.474
99734W        W63293  27.549   3.837  12.563
99735W        W63294  23.735  35.908  14.902
99736W        W63295  37.415  35.531  12.824
99737W        W63296  35.018   2.784  13.049
99738W        W63297  17.236  32.072   5.250
99739W        W63298  42.869  24.212  14.787
99740W        W63299  33.069  14.667  11.989
99741W        W63300  33.565  39.406   1.718
99742W        W63301  29.455   0.950   2.366
99743W        W63302  12.116   9.705  11.392
99744W        W63303  23.205  41.443   4.283
99745W        W63304  40.468   4.234   3.207
99746W        W63305  43.419  19.131   1.421
99747W        W63306   9.843  33.483   0.771
99748W        W63307  15.093  41.403  14.791
99749W        W63308  18.664  24.649   2.219
99750W        W63309  31.602  23.505  12.937
99751W        W63310  38.900  16.706   4.678
99752W        W63311  20.213  34.066   1.881
99753W        W63312  37.399  11.304   0.818
99754W        W63313  24.593   8.186   2.241
99755W        W63314  11.252  33.607  12.399
99756W        W63315  24.982  38.328   3.186
99757W        W63316  27.151  42.327   2.766
99758W        W63317  23.731  18.656  11.381
99759W        W63318  41.418  20.058  11.598
99760W        W63319  15.255   4.803   2.364
99761W        W63320  28.930  26.615  10.596
99762W        W63321  14.306  13.830   4.300
99763W        W63322  30.443   7.724   2.325
99764W        W63323  37.464  22.116  14.322
99765W        W63324   0.847  37.987   2.256
99766W        W63325  34.524  12.628  10.431
99767W        W63326  10.234   0.284  14.845
99768W        W63327  17.171  16.251  10.893
99769W        W63328   4.376  32.054   1.855
99770W        W63329  33.099   9.180  13.398
99771W        W63330  32.431   0.456  14.801
99772W        W63331  31.006  43.388   3.293
99773W        W63332  42.372  42.281  10.414
99774W        W63333  33.991   2.966  14.790
99775W        W63334   7.883  14.592  13.514
99776W        W63335  13.267  35.428   4.331
99777W        W63336  35.906   4.340  12.471
99778W        W63337  30.037  23.656   2.696
99779W        W63338  36.512  36.910  14.886
99780W        W63339  39.015  18.710   3.858
99781W        W63340  44.912   5.849  12.452
99782W        W63341   2.465  16.593  10.952
99783W        W63342  39.829  12.730  13.471
99784W        W63343  16.105  24.606  13.498
99785W        W63344  43.509  35.948  14.342
99786W        W63345   0.413  43.903   2.281
99787W        W63346  33.944  40.331   5.204
99788W        W63347  29.119  41.928  13.978
99789W        W63348  38.912  37.412   2.367
99790W        W63349  16.202  37.527  13.494
99791W        W63350   1.473  25.630  12.929
99792W        W63351  21.151  34.608   4.328
99793W        W63352  13.164   6.234   3.754
99794W        W63353  24.604   0.886   1.299
99795W        W63354   9.293  10.777   1.784
99796W        W63355  41.332  11.166  10.524
99797W        W63356  14.125  21.056  13.988
99798W        W63357  18.206  22.231  11.520
99799W        W63358  15.194  18.156  12.902
99800W        W63359  15.657  19.754   1.266
99801W        W63360  36.018  21.578  13.952
99802W        W63361  23.689  44.773   2.793
99803W        W63362  22.551  28.946   9.660
99804W        W63363  39.362  24.009   2.268
99805W        W63364  16.290  39.507   3.724
99806W        W63365  22.155   3.939  13.467
99807W        W63366  23.735  25.078   3.767
99808W        W63367  42.390  43.359   4.198
99809W        W63368   6.295  37.391   4.197
99810W        W63369  16.649  28.576   3.288
99811W        W63370   7.779  13.149   3.765
99812W        W63371  10.846   9.176   3.214
99813W        W63372  36.501  10.170  14.935
99814W        W63373  21.051  22.564  14.490
99815W        W63374  13.724  37.401   1.930
99816W        W63375  13.761  42.494   4.831
99817W        W63376  13.153  20.650   4.336
99818W        W63377  32.458  17.671  13.843
99819W        W63378   0.805  40.343  13.042
99820W        W63379  11.670  10.328   5.299
99821W        W63380  24.122  15.764  13.420
99822W        W63381   3.351  11.713  13.806
99823W        W63382  31.111   2.326   2.719
99824W        W63383  20.618  30.013   1.267
99825W        W63384  21.057  25.988   0.825
99826W        W63385  23.065  27.490   2.275
99827W        W63386  23.635  13.306  12.420
99828W        W63387  25.647   7.384  11.574
99829W        W63388  27.943  36.525   2.194
99830W        W63389  17.097   5.385   4.759
99831W        W63390  17.304  11.794   1.445
99832W        W63391  22.540   8.744   0.378
99833W        W63392  30.952  34.111  13.311
99834W        W63393   7.883  19.084  11.588
99835W        W63394  36.443  33.045   0.769
99836W        W63395  20.231  36.516   4.795
99837W        W63396  12.834   6.730  10.404
99838W        W63397  14.200  29.509  11.021
99839W        W63398  39.477  28.031   3.737
99840W        W63399  34.386  43.926  13.968
99841W        W63400  34.434  26.155   4.796
99842W        W63401  41.892  42.796   4.241
99843W        W63402   7.177  21.709  10.910
99844W        W63403  30.431  29.091  12.841
99845W        W63404   4.430  24.135   0.295
99846W        W63405  13.175   2.790   4.329
99847W        W63406  26.152  16.283   0.459
99848W        W63407  36.864  32.984   2.392
99849W        W63408  42.485  37.578   4.207
99850W        W63409   2.878  36.457  11.371
99851W        W63410  39.900  22.648  12.518
99852W        W63411  43.793  41.527  11.592
99853W        W63412   6.242  13.709   1.731
99854W        W63413  16.642  15.634  14.816
99855W        W63414  24.205   8.846   5.145
99856W        W63415  23.549  44.769  12.542
99857W        W63416  27.180  41.502  14.981
99858W        W63417  14.317  28.615  13.514
99859W        W63418  21.218   2.755   1.716
99860W        W63419   2.364  34.373   4.303
99861W        W63420  15.128  29.937  13.956
99862W        W63421  21.228  10.286  10.984
99863W        W63422   3.338  31.431   2.314
99864W        W63423   7.230  34.058   0.908
99865W        W63424   4.305  40.040  14.300
99866W        W63425   7.809  41.910  12.832
99867W        W63426  12.194   0.829  13.419
99868W        W63427  12.336  10.703  13.058
99869W        W63428   5.882  41.435  14.298
99870W        W63429  38.010  34.376  12.354
99871W        W63430  25.206  22.086  11.080
99872W        W63431   2.329  19.249  10.632
99873W        W63432  40.546   3.932   4.291
99874W        W63433  33.989  29.010   3.228
99875W        W63434  17.692  37.575   5.320
99876W        W63435  38.070  34.111   4.618
99877W        W63436  11.250   6.272  13.524
99878W        W63437  38.954  21.676   3.766
99879W        W63438   8.738   4.402  13.897
99880W        W63439  40.838  25.526  10.938
99881W        W63440   1.424   0.490   3.863
99882W        W63441  40.958   7.808   2.220
99883W        W63442  28.544  34.875  13.395
99884W        W63443  41.863  28.461   2.686
99885W        W63444  40.889  42.516  13.024
99886W        W63445   1.244   8.784  13.820
99887W        W63446  22.654  14.129  13.364
99888W        W63447  31.640  35.028   2.186
99889W        W63448  42.788  18.566  13.349
99890W        W63449  21.029  11.349   1.361
99891W        W63450  17.558  11.288  11.382
99892W        W63451  20.167  40.820   1.218
99893W        W63452  12.725  37.916  10.535
99894W        W63453  37.910  34.376   3.770
99895W        W63454   4.297  11.715  14.809
99896W        W63455  43.959   5.774   2.359
99897W        W63456   9.773  40.446   3.806
99898W        W63457   9.356   7.275  10.107
99899W        W63458  17.610  33.107   3.269
99900W        W63459  37.559  28.468   1.789
99901W        W63460   2.370  22.685   4.330
99902W        W63461  34.386  22.022  13.422
99903W        W63462  15.808  38.976  14.485
99904W        W63463  37.346  19.051  11.411
99905W        W63464  23.722   3.365   3.695
99906W        W63465  19.199  19.590  10.488
99907W        W63466   9.792  12.176   5.229
99908W        W63467  13.615  38.872  14.405
99909W        W63468  18.216  31.471   3.333
99910W        W63469   1.269  22.742  13.869
99911W        W63470   4.418   9.210   1.326
99912W        W63471  14.214  25.628   4.258
99913W        W63472  25.495  26.657  11.961
99914W        W63473   5.767   4.383   1.248
99915W        W63474  44.443   3.894   0.395
99916W        W63475   6.837   5.333   0.319
99917W        W63476   7.197   9.780  13.828
99918W        W63477  27.459   5.294  10.442
99919W        W63478  19.192  44.368   4.251
99920W        W63479  29.637  12.770   5.167
99921W        W63480  13.670   6.694  10.426
99922W        W63481  11.692   5.386  10.523
99923W        W63482  25.587  42.418   2.373
99924W        W63483  12.274  28.086  13.449
99925W        W63484  35.853  25.485  12.412
99926W        W63485  34.118  28.025   0.933
99927W        W63486  34.479  16.287   2.261
99928W        W63487  42.983   9.871   3.201
99929W        W63488  14.120  31.612   2.762
99930W        W63489  11.318  41.923   1.307
99931W        W63490  34.477  35.970  10.944
99932W        W63491   1.865   0.329   3.738
99933W        W63492  27.582   7.316   3.258
99934W        W63493  35.911  27.177   2.799
99935W        W63494   0.296  10.178   4.132
99936W        W63495   1.348  16.133  12.983
99937W        W63496  10.726  34.116  11.953
99938W        W63497   9.393  24.507   0.250
99939W        W63498  11.131  44.969  12.580
99940W        W63499  25.516  17.274  14.413
99941W        W63500  24.126  34.903  11.031
99942W        W63501   0.430  30.494  13.887
99943W        W63502  15.637   2.449  12.396
99944W        W63503  43.427  14.627   0.893
99945W        W63504  43.494  31.002   3.716
99946W        W63505  24.208  40.433   1.884
99947W        W63506  10.313  36.585   0.737
99948W        W63507   2.421   3.430   4.240
99949W        W63508  12.838  40.854  12.940
99950W        W63509  27.564  25.688   1.379
99951W        W63510  32.077  35.047   4.163
99952W        W63511  24.627  21.027  13.481
99953W        W63512  26.161  22.058  11.932
99954W        W63513  28.660  38.469   3.183
99955W        W63514   2.422  32.408   4.696
99956W        W63515  29.936  38.831  12.365
99957W        W63516  38.943  40.019   2.679
99958W        W63517  29.567  22.627   9.955
99959W        W63518  35.100  14.687  13.334
99960W        W63519  44.805   0.436   0.829
99961W        W63520  42.970  44.776   3.649
99962W        W63521  18.743  23.985   3.643
99963W        W63522  35.418   7.345  12.500
99964W        W63523  39.020  12.350  11.503
99965W        W63524  28.606   2.336  13.399
99966W        W63525  20.578   3.914   4.334
99967W        W63526  18.086  28.929  10.962
99968W        W63527  23.199  22.134  13.834
99969W        W63528  19.686   3.440   2.324
99970W        W63529  42.467  41.301   0.861
99971W        W63530   7.295  11.627   3.860
99972W        W63531  17.188  26.970  11.536
99973W        W63532   1.788  33.456   4.243
99974W        W63533  19.682  18.652   0.322
99975W        W63534  31.046  23.145  10.537
99976W        W63535  23.236   9.690  11.928
99977W        W63536  15.255  37.944   4.709
99978W        W63537  43.302  19.211   2.854
99979W        W63538  20.121  43.986  12.554
99980W        W63539   1.264  35.525  14.014
99981W        W63540  25.516  22.090   3.633
99982W        W63541  42.989   9.257  13.981
99983W        W63542  32.410  26.659   0.901
99984W        W63543  28.154  29.019  11.060
99985W        W63544  40.482  39.434  11.454
99986W        W63545  42.791   8.868   4.267
99987W        W63546  11.688   5.930   4.740
99988W        W63547  24.694   8.845  11.932
99989W        W63548  44.485   3.914  13.342
99990W        W63549  15.595  13.242  12.988
99991W        W63550  42.958  13.136  13.478
99992W        W63551  17.218  22.102   1.783
99993W        W63552   8.211  35.037   3.852
99994W        W63553   1.760   4.411  11.015
99995W        W63554  25.659  37.545   2.833
99996W        W63555   6.828  12.163  13.451
99997W        W63556  23.561   9.759   1.232
99998W        W63557  20.074  35.923   4.639
99999W        W63558  38.418   1.337   0.951
    0W        W63559  33.543   3.223  10.512
    1W        W63560  44.264   0.391  14.292
    2W        W63561  28.063  32.620   2.693
    3W        W63562  38.421  22.737  12.065
    4W        W63563  16.201   0.963   2.235
    5W        W63564  21.534  31.495  10.082
    6W        W63565  19.758   7.795  14.849
    7W        W63566   1.434  21.699   1.412
    8W        W63567  31.500  22.204   0.460
    9W        W63568  28.676   1.891  13.998
   10W        W63569  31.465  32.117  10.438
   11W        W63570  14.626  44.876   0.298
   12W        W63571  34.463  21.739  12.884
   13W        W63572  14.340  15.157  12.854
   14W        W63573  32.060  30.607   1.323
   15W        W63574  25.124   5.293  13.445
   16W        W63575  13.311  28.579   2.192
   17W        W63576   7.193  11.335  11.427
   18W        W63577  44.845  38.970  14.940
   19W        W63578  19.039  15.253  14.431
   20W        W63579   1.919  41.914  13.918
   21W        W63580  14.668  32.985  14.289
   22W        W63581  26.099  22.623  12.878
   23W        W63582  10.177  20.187   1.329
   24W        W63583  40.478   6.251  12.519
   25W        W63584  34.119   0.249   4.669
   26W        W63585  33.406  14.658   1.347
   27W        W63586  16.631  25.621   4.271
   28W        W63587  29.933  26.190   2.228
   29W        W63588  15.623  34.121   3.164
   30W        W63589  23.058   2.865   3.656
   31W        W63590  30.606  20.224  11.069
   32W        W63591   9.881  20.201   0.827
   33W        W63592  44.441   4.281   3.690
   34W        W63593  39.331  39.954  11.887
   35W        W63594   4.276  29.667   3.260
   36W        W63595  39.929  44.285   1.255
   37W        W63596  15.232  14.640  13.059
   38W        W63597  18.074   4.738  14.903
   39W        W63598  14.673  33.019   3.720
   40W        W63599  39.533  34.602   2.239
   41W        W63600   6.716  36.516  11.385
   42W        W63601  31.942  31.051  13.418
   43W        W63602  34.408  37.364   4.246
   44W        W63603  13.185  25.030  11.606
   45W        W63604  37.419  30.623  13.509
   46W        W63605   9.731  44.822   3.678
   47W        W63606  22.023   4.714   2.361
   48W        W63607  43.401  34.501   0.771
   49W        W63608   3.268  17.200   2.207
   50W        W63609  36.846  33.904   0.782
   51W        W63610  38.437  38.960  11.908
   52W        W63611  21.707   0.293   4.746
   53W        W63612   4.364  21.702   0.346
   54W        W63613  28.437   8.277   4.725
   55W        W63614  38.517  27.512   1.297
   56W        W63615  24.666   7.250   0.802
   57W        W63616   6.853  23.025   4.760
   58W        W63617   6.428  17.749   2.378
   59W        W63618  33.455  32.582  13.371
   60W        W63619  36.080   8.768   5.212
   61W        W63620  28.483  20.085   3.168
   62W        W63621  40.797  36.022  11.569
   63W        W63622  24.197   4.742  14.341
   64W        W63623  35.073  25.143   2.717
   65W        W63624  10.322  28.971  13.349
   66W        W63625  11.319  10.174  13.428
   67W        W63626  30.571  28.651   2.812
   68W        W63627   6.686  31.470   2.298
   69W        W63628  11.302  26.663   0.837
   70W        W63629  27.461   6.320   2.342
   71W        W63630  43.328  29.955   3.211
   72W        W63631  22.595  30.105  12.478
   73W        W63632  40.513  23.573  14.010
   74W        W63633  10.697  11.828  14.456
   75W        W63634  13.716  10.819   4.216
   76W        W63635  34.980   4.304  14.333
   77W        W63636   4.212  18.708  11.957
   78W        W63637  25.130  37.876   2.314
   79W        W63638  34.930  10.643   4.318
   80W        W63639  11.149  10.673   2.370
   81W        W63640  11.264  44.323   1.820
   82W        W63641   1.276  29.467   3.741
   83W        W63642  39.887  28.638  11.925
   84W        W63643   0.922   1.266  10.596
   85W        W63644  24.975  44.305   3.664
   86W        W63645  39.910  21.049   2.279
   87W        W63646  36.017  27.147   3.699
   88W        W63647  22.673   9.697   2.327
   89W        W63648   0.854  41.527   0.379
   90W        W63649   2.405  28.549   1.238
   91W        W63650  10.862  39.885   3.307
   92W        W63651  27.482  13.220   0.478
   93W        W63652  34.942  44.260   1.428
   94W        W63653  14.667  26.127   3.358
   95W        W63654  37.357  40.528   1.868
   96W        W63655   6.412  15.717  12.356
   97W        W63656   4.397  42.527   0.887
   98W        W63657  29.616  42.459  12.363
   99W        W63658  19.113  41.294  11.376
  100W        W63659  37.864  17.571  11.874
  101W        W63660  25.179   7.886   0.348
  102W        W63661  21.554   2.749   1.720
  103W        W63662  17.557  42.943   2.686
  104W        W63663  26.461  33.516  14.998
  105W        W63664   0.433  36.941  13.958
  106W        W63665  23.494  26.991  10.435
  107W        W63666  44.269  36.936   3.353
  108W        W63667   3.289  34.044   4.195
  109W        W63668  17.084  17.569  12.520
  110W        W63669  28.057   4.811  14.281
  111W        W63670  23.215  40.850   0.313
  112W        W63671  10.823  22.154   3.793
  113W        W63672  37.377   4.829   1.870
  114W        W63673  27.520  16.592   0.834
  115W        W63674  23.520   2.454   3.227
  116W        W63675  23.035  16.622  11.474
  117W        W63676  22.542  24.132  13.514
  118W        W63677  26.641  32.617   4.265
  119W        W63678  25.153  44.922   2.848
  120W        W63679  42.419   2.752  12.828
  121W        W63680  13.810  29.643  10.580
  122W        W63681  20.558   5.872   1.421
  123W        W63682  12.225  15.740   1.305
  124W        W63683  21.216  38.511  12.901
  125W        W63684  24.577   7.696  10.428
  126W        W63685  30.606  27.048   5.093
  127W        W63686   8.242  29.118   3.667
  128W        W63687  39.440  15.792   2.324
  129W        W63688  10.261  37.831   0.368
  130W        W63689  41.011  34.019   5.709
  131W        W63690  33.602  25.627   4.602
  132W        W63691   1.276  30.964   2.828
  133W        W63692   8.223  11.823   3.163
  134W        W63693  42.363  10.231   1.722
  135W        W63694  14.772  14.759  13.979
  136W        W63695  11.226   4.213   0.931
  137W        W63696  32.542   9.826  13.328
  138W        W63697   6.917  29.649   1.430
  139W        W63698   3.359  34.604   1.384
  140W        W63699  37.349  41.491   2.365
  141W        W63700  24.150   5.722   2.793
  142W        W63701   9.154   9.287   4.714
  143W        W63702   5.736   4.872   4.680
  144W        W63703  19.108  18.652  11.994
  145W        W63704  34.589  36.535  14.904
  146W        W63705  42.372  29.662   0.923
  147W        W63706  30.095  19.250  12.471
  148W        W63707  29.044  13.255   4.270
  149W        W63708  41.394  36.987   4.756
  150W        W63709   7.291  28.082   1.881
  151W        W63710   6.352  11.320   2.701
  152W        W63711  16.694  14.693   4.702
  153W        W63712  20.749  11.358  13.937
  154W        W63713   8.324  34.971  11.602
  155W        W63714  40.504  33.622   3.778
  156W        W63715  13.748  14.284  12.084
  157W        W63716  20.045  34.427   3.278
  158W        W63717  33.488  35.955   2.795
  159W        W63718   8.719  11.270   1.414
  160W        W63719  38.562  33.618  14.829
  161W        W63720  41.370  24.177  13.881
  162W        W63721  35.470  14.655  14.445
  163W        W63722  14.650  21.557   1.733
  164W        W63723  18.632   0.469  10.899
  165W        W63724   5.743  33.593   0.746
  166W        W63725  36.998  39.555  14.897
  167W        W63726  10.671  34.902   2.199
  168W        W63727  41.990   9.744  10.454
  169W        W63728  15.180  26.465   3.793
  170W        W63729   0.326  29.009   4.124
  171W        W63730  28.596   2.451   4.278
  172W        W63731  11.326  28.134  13.920
  173W        W63732   9.765  44.313  12.067
  174W        W63733   6.866  17.722  13.538
  175W        W63734   5.724  16.309   2.409
  176W        W63735   5.697   7.904   3.759
  177W        W63736  28.533  18.296   4.813
  178W        W63737  30.075  13.292  12.567
  179W        W63738  40.864  28.107   3.794
  180W        W63739   0.370   9.878   1.933
  181W        W63740   9.209   7.710  11.877
  182W        W63741  11.776  31.902   1.844
  183W        W63742  40.037   8.705  12.025
  184W        W63743  44.965  11.239   3.236
  185W        W63744  12.653  19.040   3.753
  186W        W63745   7.701   0.284  14.361
  187W        W63746  39.811  40.516   4.659
  188W        W63747  22.173  21.163  11.403
  189W        W63748   4.777  39.812  13.961
  190W        W63749  21.661  43.845  12.367
  191W        W63750  18.764  18.720   1.878
  192W        W63751   8.306  18.130   1.715
  193W        W63752  34.907  32.421  14.022
  194W        W63753  28.459  44.943  13.505
  195W        W63754  10.374  14.311  12.460
  196W        W63755  35.075  14.271  13.801
  197W        W63756  16.074  27.672  12.511
  198W        W63757  18.623  31.943   3.173
  199W        W63758   7.326   5.760  12.842
  200W        W63759  35.037  10.699  11.119
  201W        W63760  38.467  34.059  13.045
  202W        W63761   0.888  41.464  13.934
  203W        W63762   1.251  42.478  11.956
  204W        W63763  19.088  31.966   0.843
  205W        W63764  30.465  41.841  11.511
  206W        W63765  13.811  15.272  14.012
  207W        W63766  38.553  42.999  13.372
  208W        W63767  42.335  18.253  13.912
  209W        W63768  15.171  30.038  13.450
  210W        W63769   0.860  24.510   4.694
  211W        W63770  35.512  25.051  12.905
  212W        W63771  14.612   1.740   5.100
  213W        W63772  20.582   9.840  14.443
  214W        W63773  33.616  31.450   1.318
  215W        W63774  42.850   0.844  12.897
  216W        W63775  36.067  18.574   2.757
  217W        W63776  14.109  32.980  13.058
  218W        W63777  36.962  33.107   1.273
  219W        W63778  31.121  17.564   0.907
  220W        W63779  12.799  42.916  12.548
  221W        W63780  29.929   9.231  14.026
  222W        W63781   9.224  30.469   0.791
  223W        W63782   6.776  34.579   0.861
  224W        W63783  35.553  26.179   2.856
  225W        W63784  23.161  20.564   3.385
  226W        W63785  40.364  17.675   1.355
  227W        W63786  34.528  20.713   2.845
  228W        W63787  44.418  14.597   2.181
  229W        W63788  24.715  42.450  10.581
  230W        W63789  19.699  40.363   1.895
  231W        W63790  29.034  16.234   3.340
  232W        W63791  33.055  41.378  12.447
  233W        W63792  16.766  37.384  13.885
  234W        W63793  43.946  24.168   4.354
  235W        W63794   2.361  41.808   0.873
  236W        W63795  24.063  16.254  10.465
  237W        W63796   9.184   9.287  12.049
  238W        W63797  36.576  40.982   4.251
  239W        W63798  39.314  39.532  11.933
  240W        W63799  19.109   1.261  10.896
  241W        W63800  41.981  41.469  10.615
  242W        W63801   2.895  34.870  12.377
  243W        W63802   4.230  36.583   4.646
  244W        W63803  15.795  44.916  12.973
  245W        W63804  35.893   8.847   0.861
  246W        W63805  28.615  32.071  14.904
  247W        W63806   5.193  25.974  12.437
  248W        W63807  30.155  10.708  14.954
  249W        W63808   7.404   7.749  12.954
  250W        W63809  10.330  23.150  10.449
  251W        W63810  38.921  16.241  11.909
  252W        W63811  15.269  16.109   2.834
  253W        W63812  20.139  35.043   4.271
  254W        W63813  15.167   0.460   1.260
  255W        W63814  43.766  44.000   3.811
  256W        W63815  18.068   4.917   4.182
  257W        W63816  22.204  20.607  12.881
  258W        W63817   6.307   1.897   0.958
  259W        W63818   5.841  27.956   1.259
  260W        W63819  42.846  38.437  13.029
  261W        W63820  13.627  10.693   2.401
  262W        W63821   9.265  39.500   3.282
  263W        W63822  19.723  31.607  12.386
  264W        W63823   9.850   1.240  14.304
  265W        W63824  42.892  13.282  12.899
  266W        W63825  40.536  33.067  14.371
  267W        W63826   8.198   6.796  13.798
  268W        W63827  26.483  27.116  11.509
  269W        W63828  31.931  26.137   0.726
  270W        W63829   1.250  21.665  14.901
  271W        W63830   4.252   8.734   4.217
  272W        W63831   0.481  32.511   3.845
  273W        W63832  10.877   7.197  12.987
  274W        W63833  32.974  29.521  10.524
  275W        W63834   7.813  43.879   0.244
  276W        W63835  21.646  27.564   2.842
  277W        W63836  13.282  21.050  11.968
  278W        W63837  29.136   9.785   2.738
  279W        W63838  38.423  35.970  10.443
  280W        W63839  18.585  22.181   0.276
  281W        W63840  26.607  15.122   2.766
  282W        W63841  14.172   4.371   4.171
  283W        W63842  27.470  23.697  14.446
  284W        W63843   2.270  14.104  14.936
  285W        W63844  32.434  21.152   4.706
  286W        W63845  28.515   9.796  11.058
  287W        W63846  31.127   3.398   0.771
  288W        W63847  23.508  33.459   4.198
  289W        W63848   1.901  38.874   0.278
  290W        W63849  20.646   3.757   1.800
  291W        W63850  11.213  31.445  10.424
  292W        W63851   7.703  12.631  10.526
  293W        W63852  41.381  21.670   0.864
  294W        W63853  22.696  44.335   0.747
  295W        W63854  13.293   6.912  13.318
  296W        W63855   7.713  30.909  13.513
  297W        W63856  34.569  11.857   0.319
  298W        W63857   5.439   5.341  11.466
  299W        W63858   7.368   4.256   1.917
  300W        W63859  30.513  30.541   0.768
  301W        W63860  22.218   8.890   0.842
  302W        W63861   2.361  38.385  13.800
  303W        W63862  35.996  40.018   0.268
  304W        W63863  10.265  20.540  11.588
  305W        W63864  27.992  26.478  13.475
  306W        W63865   0.316  25.615   1.425
  307W        W63866  31.965  40.534   1.213
  308W        W63867  21.576  32.935  11.029
  309W        W63868  38.902  10.632  13.819
  310W        W63869   8.163  43.783   0.400
  311W        W63870  37.910   1.962   1.794
  312W        W63871  30.057  34.505   1.909
  313W        W63872  20.543  37.412   0.470
  314W        W63873   9.870  27.953   2.798
  315W        W63874  17.581  13.773   1.868
  316W        W63875  25.110   0.923  11.916
  317W        W63876  20.046  41.455   3.662
  318W        W63877   7.774  39.395   0.290
  319W        W63878  10.661  31.905  14.500
  320W        W63879  30.066  40.410   2.688
  321W        W63880  10.811   7.852   4.311
  322W        W63881  38.420  22.656   2.217
  323W        W63882  27.455  13.209  14.278
  324W        W63883   9.316  32.429   2.813
  325W        W63884   3.725   6.843  13.390
  326W        W63885  17.782  12.324   2.297
  327W        W63886  34.481  12.675   2.799
  328W        W63887  17.799  34.065   0.877
  329W        W63888  10.672  22.061  14.387
  330W        W63889   6.274  26.197   0.333
  331W        W63890  25.179  31.410  11.444
  332W        W63891   7.333  11.867  10.519
  333W        W63892  29.107  34.554  13.453
  334W        W63893  32.506  25.072  12.458
  335W        W63894   3.798  43.963   4.748
  336W        W63895   5.198  41.803  12.858
  337W        W63896  38.539  17.164   4.157
  338W        W63897  36.875  27.683   4.252
  339W        W63898  31.555  28.015   3.344
  340W        W63899   8.681  32.634   0.478
  341W        W63900  41.888   6.198  14.441
  342W        W63901  30.531  35.882   0.436
  343W        W63902   1.847  26.149  13.338
  344W        W63903  37.927  10.690  13.898
  345W        W63904  44.455   5.800  12.384
  346W        W63905  29.629   2.232  10.894
  347W        W63906  35.056   1.328   1.836
  348W        W63907  42.939  34.024  11.894
  349W        W63908  10.755  37.917  10.918
  350W        W63909   7.808  36.414  10.441
  351W        W63910  41.508  15.760  12.427
  352W        W63911  43.498  42.814   0.748
  353W        W63912  13.630  31.537   0.376
  354W        W63913  22.169   8.353  13.854
  355W        W63914  21.226  26.700   0.393
  356W        W63915   2.285  39.967   0.400
  357W        W63916  28.539   5.352   0.284
  358W        W63917  18.600   1.803   1.782
  359W        W63918  23.538  42.962  14.392
  360W        W63919  24.219   1.370  11.950
  361W        W63920  33.463  24.533   0.327
  362W        W63921  13.142  16.750   2.191
  363W        W63922  32.420  25.708  14.872
  364W        W63923  20.749  38.365  10.484
  365W        W63924  27.941   4.785   0.882
  366W        W63925  43.907  32.625  12.017
  367W        W63926  25.645  26.666   1.393
  368W        W63927  17.179  35.497   3.769
  369W        W63928  25.192  44.290   0.873
  370W        W63929  19.216  16.609  12.046
  371W        W63930  12.734  11.804  13.521
  372W        W63931  42.326  13.215  14.846
  373W        W63932  22.717  41.455   1.705
  374W        W63933   1.779  37.024  11.408
  375W        W63934   5.837   1.757   2.746
  376W        W63935  33.956  35.430  14.891
  377W        W63936   4.369  35.926   3.253
  378W        W63937  25.594  36.932  11.590
  379W        W63938  28.611   3.248  14.852
  380W        W63939  16.188  33.989  13.383
  381W        W63940  39.871   0.942   3.843
  382W        W63941   7.713   5.848  12.003
  383W        W63942   4.218  23.523  13.349
  384W        W63943  34.605  23.049   4.627
  385W        W63944  12.621  23.681   3.723
  386W        W63945   1.874  19.708  11.523
  387W        W63946  23.999  26.566  11.018
  388W        W63947  31.994  10.300   4.318
  389W        W63948  35.990  27.619  10.510
  390W        W63949   7.693  37.386   5.279
  391W        W63950  39.985  22.589  10.561
  392W        W63951  41.933  20.764   3.821
  393W        W63952  40.832  31.955  13.392
  394W        W63953  39.440  11.862   3.669
  395W        W63954  30.125  34.121  13.048
  396W        W63955   8.238  43.013   2.776
  397W        W63956  16.158  21.135  12.037
  398W        W63957   3.808  32.057  10.900
  399W        W63958  13.727  17.636   1.879
  400W        W63959   6.738  42.461  11.487
  401W        W63960  38.544   6.338  13.345
  402W        W63961  16.615  34.986   1.916
  403W        W63962  38.972   2.364   3.214
  404W        W63963  16.135   5.727  14.293
  405W        W63964   7.297   1.297  12.490
  406W        W63965  26.098  16.317   0.750
  407W        W63966  29.148  12.769  10.580
  408W        W63967  28.601  27.502  12.439
  409W        W63968  21.026  39.948  11.523
  410W        W63969  37.371  22.671  13.934
  411W        W63970  26.967  24.180  12.455
  412W        W63971  26.574  34.512   0.950
  413W        W63972  19.121  20.617   0.949
  414W        W63973  41.430  32.094  10.024
  415W        W63974  41.878  26.580   1.912
  416W        W63975   1.328  36.440   4.198
  417W        W63976  16.246  35.064  10.140
  418W        W63977  42.916  14.596  14.911
  419W        W63978  34.045  14.326   1.328
  420W        W63979  18.579  18.144   1.336
  421W        W63980  43.331  25.508   0.808
  422W        W63981  29.926  34.923   3.200
  423W        W63982  18.728  12.840  14.487
  424W        W63983  27.196  39.318  11.429
  425W        W63984  24.642  36.352  13.025
  426W        W63985   2.886  19.715   1.828
  427W        W63986  39.552   0.862  10.411
  428W        W63987  42.821  37.857  11.565
  429W        W63988  36.090   9.768  13.013
  430W        W63989  33.506  10.309  11.066
  431W        W63990  13.295   3.771  13.467
  432W        W63991  37.540  37.400  14.335
  433W        W63992  37.046  21.041  10.950
  434W        W63993   1.886  25.537   2.257
  435W        W63994   3.388  38.022   2.903
  436W        W63995  29.514  15.240   3.264
  437W        W63996  16.259  34.980  13.375
  438W        W63997  41.366  11.289   2.210
  439W        W63998   2.345  35.519  12.394
  440W        W63999  10.661   7.211   1.273
  441W        W64000  23.721  43.958   4.308
  442W        W64001  15.123  21.540  14.468
  443W        W64002   4.272  37.895   2.742
  444W        W64003  24.178  11.364  12.454
  445W        W64004  31.082   4.429   1.772
  446W        W64005  36.364  43.806  12.360
  447W        W64006  15.730  37.378   2.805
  448W        W64007  32.571   8.316  10.566
  449W        W64008  39.048   3.378   5.306
  450W        W64009  38.913   4.357   2.875
  451W        W64010   6.883  21.625  12.570
  452W        W64011  11.249  35.527   9.466
  453W        W64012  36.051  42.918   2.834
  454W        W64013  27.644  44.413  13.306
  455W        W64014  13.198  22.014  13.947
  456W        W64015  34.951   8.379  11.117
  457W        W64016  29.475  42.784  10.619
  458W        W64017   6.217  38.035  13.834
  459W        W64018  10.358  35.865  12.422
  460W        W64019   2.907  34.106  13.882
  461W        W64020   2.836   0.848   2.297
  462W        W64021  36.850  24.512  11.966
  463W        W64022  13.640  31.422   1.828
  464W        W64023  12.841  39.370  11.963
  465W        W64024  15.231  22.519   1.312
  466W        W64025  13.614  22.012  12.355
  467W        W64026  24.490   6.234   0.252
  468W        W64027  12.731  32.471   1.235
  469W        W64028   9.833  32.447  13.027
  470W        W64029   1.756  32.526  14.796
  471W        W64030  28.512  40.885  12.067
  472W        W64031  39.532  36.027   0.950
  473W        W64032  37.893   3.438   3.227
  474W        W64033  29.139  41.367  11.915
  475W        W64034  29.568   9.151   0.740
  476W        W64035  38.908  19.612   2.853
  477W        W64036  11.178   9.225  10.130
  478W        W64037  26.197  25.208   3.819
  479W        W64038  20.651   3.445   0.368
  480W        W64039  43.289  25.169  12.548
  481W        W64040  26.106  17.241  10.470
  482W        W64041  26.131  13.795   3.377
  483W        W64042   4.704   3.461  10.985
  484W        W64043   6.334  44.412   2.292
  485W        W64044  14.645  32.497  13.501
  486W        W64045   5.855   1.470  13.425
  487W        W64046  42.985  39.381  11.026
  488W        W64047  39.905  30.420  12.846
  489W        W64048  11.841  12.693  10.521
  490W        W64049   5.241  43.497  13.876
  491W        W64050   6.269  11.773   2.381
  492W        W64051  39.469   1.254  12.362
  493W        W64052   0.303  13.282  12.503
  494W        W64053  37.007  25.652  10.553
  495W        W64054  38.044  32.034  11.466
  496W        W64055  22.610  39.836   1.260
  497W        W64056  29.082  32.603  10.985
  498W        W64057  38.897  34.407  11.595
  499W        W64058  35.970   0.389   1.387
  500W        W64059  27.972   3.294  14.926
  501W        W64060   5.214   9.360  14.460
  502W        W64061   2.804   1.745   3.213
  503W        W64062  16.644   5.396  10.513
  504W        W64063  40.359  19.760   1.438
  505W        W64064  10.839  25.575   2.710
  506W        W64065  21.654  40.932   3.266
  507W        W64066  32.055  40.973   0.846
  508W        W64067  20.633  26.662  11.402
  509W        W64068  12.748   7.387  14.986
  510W        W64069   7.792  17.294  12.893
  511W        W64070  26.489  28.489  14.778
  512W        W64071   7.883  14.750  14.400
  513W        W64072  35.885   7.395   1.228
  514W        W64073  18.202  40.993   4.776
  515W        W64074  16.797  12.126  14.779
  516W        W64075   0.376  37.497   3.664
  517W        W64076  13.109  35.559  13.802
  518W        W64077  21.625  37.019  12.975
  519W        W64078  40.923  21.663   4.598
  520W        W64079  10.725  35.934   4.294
  521W        W64080  14.683  36.483   4.353
  522W        W64081  36.586  27.950  12.502
  523W        W64082   4.351  44.973   3.164
  524W        W64083  23.563  24.702  12.531
  525W        W64084  30.078  14.196  12.468
  526W        W64085  32.023  33.954   1.723
  527W        W64086   1.251   1.852  10.954
  528W        W64087  29.983  20.048  14.968
  529W        W64088  10.168  39.374   1.887
  530W        W64089   5.881  20.557  11.519
  531W        W64090  13.213  27.151   1.399
  532W        W64091  21.252  18.283   4.226
  533W        W64092  33.388  30.452   1.778
  534W        W64093   9.339  26.147  12.859
  535W        W64094  41.894  44.849  11.906
  536W        W64095  33.428  34.606  13.527
  537W        W64096   9.879   2.776   3.755
  538W        W64097  29.059  13.825   1.838
  539W        W64098  25.588  10.186   0.380
  540W        W64099  43.448  22.138  14.514
  541W        W64100  21.726  40.340   0.878
  542W        W64101  12.213   6.772   4.605
  543W        W64102  14.709  30.076   0.291
  544W        W64103   2.742  38.917   4.697
  545W        W64104  25.098  31.542   1.412
  546W        W64105  12.263  40.381  12.496
  547W        W64106  38.526   7.714  11.517
  548W        W64107  16.652  10.685   4.746
  549W        W64108  35.884  43.881  11.546
  550W        W64109  21.697  10.754  11.078
  551W        W64110  35.913  16.123  12.927
  552W        W64111  34.035   1.388  12.461
  553W        W64112   5.756  41.491   3.644
  554W        W64113  35.927  24.721  14.986
  555W        W64114   0.877  38.965  14.422
  556W        W64115   9.865  18.171   1.349
  557W        W64116   3.320  35.901  11.062
  558W        W64117  37.390  27.556  12.841
  559W        W64118  31.590  36.430   1.766
  560W        W64119  20.119  11.661   2.687
  561W        W64120  28.666  29.606   2.222
  562W        W64121  17.703   6.800   4.183
  563W        W64122  36.503  19.550   0.779
  564W        W64123  25.204  29.543  14.331
  565W        W64124  13.185  19.187   3.214
  566W        W64125  40.013  17.070   1.331
  567W        W64126  20.537   1.803  13.499
  568W        W64127  34.383  44.983   1.821
  569W        W64128  34.080   8.820  13.034
  570W        W64129  10.335  44.928   2.786
  571W        W64130  40.410  17.158  12.033
  572W        W64131  20.642   1.387  12.442
  573W        W64132  42.894  44.441  10.489
  574W        W64133  30.949  25.035   3.757
  575W        W64134  23.570  34.119   4.334
  576W        W64135   2.792  20.091   4.353
  577W        W64136   7.274  29.646  11.868
  578W        W64137  13.631  39.418  11.018
  579W        W64138  28.182  17.758  12.359
  580W        W64139  35.040  41.823   3.296
  581W        W64140   5.713  42.811   4.124
  582W        W64141  17.079  30.027  11.918
  583W        W64142  43.924  10.793  11.485
  584W        W64143  23.220  20.615   4.232
  585W        W64144  28.607  43.875  10.411
  586W        W64145   2.814  44.756   4.617
  587W        W64146  20.239  30.074   2.739
  588W        W64147  21.700  17.150   4.620
  589W        W64148  32.542  37.844  12.949
  590W        W64149   8.666  25.693  14.994
  591W        W64150  40.374  16.074  11.052
  592W        W64151   0.451  37.491  10.585
  593W        W64152  35.558  30.581  13.312
  594W        W64153  11.167  22.251   1.266
  595W        W64154  33.887  10.352   1.356
  596W        W64155  20.766  14.229   5.316
  597W        W64156  20.264  15.141   3.301
  598W        W64157   6.295  14.127   2.668
  599W        W64158  18.734  33.603  14.782
  600W        W64159  22.220   2.387   2.820
  601W        W64160  19.712  17.086  14.458
  602W        W64161   3.281  40.849  12.385
  603W        W64162   5.283  14.161   1.450
  604W        W64163  28.478  43.466   4.140
  605W        W64164  26.023  19.183  10.522
  606W        W64165  30.574   6.849   1.359
  607W        W64166   0.864  37.372  12.484
  608W        W64167  25.112   4.750   0.371
  609W        W64168  42.314  16.643   2.285
  610W        W64169  13.245  36.489   2.767
  611W        W64170  15.803  42.832   2.378
  612W        W64171  22.659   1.388  13.923
  613W        W64172  26.607  31.147  14.332
  614W        W64173  36.510   9.275  11.463
  615W        W64174  10.209  29.643  10.618
  616W        W64175  31.063  33.558  11.019
  617W        W64176  17.083  13.709   0.831
  618W        W64177  34.408  42.780  12.097
  619W        W64178  36.489   4.323   1.745
  620W        W64179  44.385   1.437   4.234
  621W        W64180  29.479   1.337  14.396
  622W        W64181   3.245   3.396   4.214
  623W        W64182  26.462   5.797  11.601
  624W        W64183  23.619   0.757  14.430
  625W        W64184  14.695  38.505   3.739
  626W        W64185  12.121   5.337  10.538
  627W        W64186  41.902  40.415  12.400
  628W        W64187  31.468  15.796   2.696
  629W        W64188  32.598  38.535   1.748
  630W        W64189  12.306  42.917   1.396
  631W        W64190  24.042   0.268   5.283
  632W        W64191  36.558   2.310  12.935
  633W        W64192  32.420  16.198   3.232
  634W        W64193   7.218  44.344  11.970
  635W        W64194   0.829  38.473   2.715
  636W        W64195  18.061  31.043   4.692
  637W        W64196   2.258   1.862   2.899
  638W        W64197  14.589  36.099  10.935
  639W        W64198  36.866  33.031   3.828
  640W        W64199  27.520   6.268   3.274
  641W        W64200   7.732   6.686  12.405
  642W        W64201  16.223  13.270   3.823
  643W        W64202  33.070  20.172   4.706
  644W        W64203  34.025  21.031   3.299
  645W        W64204  14.119   7.379  11.069
  646W        W64205  14.786  13.767   0.844
  647W        W64206   2.331  44.853   2.317
  648W        W64207  11.359   3.886  10.446
  649W        W64208  37.526  41.879   0.397
  650W        W64209  34.955   5.262   3.632
  651W        W64210   7.314   2.326  11.425
  652W        W64211  11.811  39.983  13.328
  653W        W64212   6.734  22.548  10.959
  654W        W64213   1.266   3.348  12.979
  655W        W64214  41.301  12.293  12.939
  656W        W64215  11.791  41.465  10.150
  657W        W64216  35.026  11.772   2.706
  658W        W64217  25.213  24.084  14.300
  659W        W64218   4.896  14.779  12.418
  660W        W64219  32.991   5.285   0.353
  661W        W64220  37.364   8.165   0.317
  662W        W64221  43.497  21.701  12.070
  663W        W64222  37.546  15.251  10.568
  664W        W64223   2.307  28.552  13.487
  665W        W64224  33.404  37.909  14.503
  666W        W64225  40.451  33.112   4.729
  667W        W64226  35.553  33.446   3.748
  668W        W64227  41.292   4.842  14.407
  669W        W64228  39.987   9.266   3.673
  670W        W64229  30.621   6.403   4.320
  671W        W64230  34.469  19.070   0.915
  672W        W64231   3.786  31.637   2.284
  673W        W64232  33.400  24.652  12.029
  674W        W64233   6.200  26.540  14.308
  675W        W64234  13.685  30.125   2.762
  676W        W64235  26.513   0.761   5.266
  677W        W64236  42.904  17.587  11.126
  678W        W64237  40.885  30.632  11.006
  679W        W64238  11.174   9.286  13.333
  680W        W64239  14.213  38.854  10.468
  681W        W64240  41.388  40.459   4.224
  682W        W64241  21.735   9.824  14.920
  683W        W64242   1.353  35.978  13.470
  684W        W64243  14.312  36.960   1.313
  685W        W64244  21.061  37.064  14.018
  686W        W64245  17.708  41.914   3.840
  687W        W64246  31.466  39.453  12.484
  688W        W64247  22.038  35.101   3.765
  689W        W64248  12.150  22.707   4.723
  690W        W64249  44.845  37.932  11.028
  691W        W64250  34.873  38.947  12.971
  692W        W64251  25.031  38.558   0.926
  693W        W64252  22.708  10.206   0.834
  694W        W64253   9.161   8.399  11.483
  695W        W64254  32.022   6.339  14.804
  696W        W64255  23.677   6.896   4.643
  697W        W64256  14.644  32.118   3.318
  698W        W64257  19.684  36.495   0.279
  699W        W64258  25.647  10.763   2.881
  700W        W64259  24.128  13.127  12.870
  701W        W64260   2.854  38.059   2.700
  702W        W64261  28.659   6.682  11.934
  703W        W64262  15.632   1.936   1.746
  704W        W64263  14.179   3.841   3.212
  705W        W64264  12.854   8.827   2.814
  706W        W64265  20.143  32.074   3.308
  707W        W64266  37.005   8.187  10.092
  708W        W64267  44.771  43.455  14.988
  709W        W64268  39.971   1.458  13.943
  710W        W64269  21.559  25.577   0.948
  711W        W64270  14.762  43.927   4.746
  712W        W64271   2.754  24.077   2.894
  713W        W64272   4.777  17.798  13.338
  714W        W64273  24.648   9.267  10.146
  715W        W64274  34.589  16.703   3.358
  716W        W64275  24.619  10.374   4.164
  717W        W64276  33.947  14.612  12.064
  718W        W64277   9.286  27.491   2.348
  719W        W64278  44.376  17.638   5.104
  720W        W64279   1.942  35.009  13.315
  721W        W64280  26.638   0.333   2.740
  722W        W64281   1.772   9.277  14.362
  723W        W64282   8.743  24.620   4.240
  724W        W64283   0.299  27.673   1.436
  725W        W64284  31.647  42.325   2.837
  726W        W64285   9.678  20.269  10.432
  727W        W64286  39.992  30.142   2.407
  728W        W64287  12.629  25.026   2.724
  729W        W64288  15.711  23.233   3.694
  730W        W64289  30.010  14.238   4.838
  731W        W64290  12.323  25.154  11.596
  732W        W64291  37.428  22.172  12.452
  733W        W64292   0.284  16.294  13.472
  734W        W64293  14.621   8.745   2.814
  735W        W64294   7.384   3.286  11.951
  736W        W64295  34.977  34.574  11.375
  737W        W64296  39.996  44.486  12.045
  738W        W64297  20.158  13.690  11.558
  739W        W64298  11.731  19.551  13.846
  740W        W64299  16.076  43.304   1.859
  741W        W64300   0.847  44.313   9.989
  742W        W64301  35.497  27.954  14.858
  743W        W64302  14.645  22.627  12.937
  744W        W64303   1.970  21.591   0.260
  745W        W64304  16.756  10.269  10.569
  746W        W64305  18.135  43.511   3.734
  747W        W64306  19.282  22.094   0.302
  748W        W64307  19.212  27.125   3.784
  749W        W64308  17.255   8.655   2.675
  750W        W64309  10.709  10.194   0.379
  751W        W64310  41.854  30.920   1.439
  752W        W64311  40.858  19.565   0.729
  753W        W64312  40.528  42.473   3.732
  754W        W64313   4.298  36.858  11.509
  755W        W64314   1.253  31.111  14.928
  756W        W64315   1.434  41.873   4.307
  757W        W64316  21.622  43.827  11.570
  758W        W64317  28.946  22.088   4.602
  759W        W64318  34.581   8.378   1.821
  760W        W64319  40.823  38.410  14.425
  761W        W64320  16.598  20.035  14.766
  762W        W64321  35.883  38.562   2.763
  763W        W64322  44.872  14.627   2.879
  764W        W64323  33.916  43.969   2.804
  765W        W64324   5.881  31.444  13.375
  766W        W64325  13.742  21.242   2.192
  767W        W64326  31.562  25.664  14.330
  768W        W64327  44.351   4.829   0.430
  769W        W64328  27.608  33.096   0.302
  770W        W64329   4.747  14.110  12.904
  771W        W64330   5.763   4.379  13.044
  772W        W64331  42.372  22.694   1.290
  773W        W64332  29.103  43.343  13.793
  774W        W64333   2.227  30.081  12.549
  775W        W64334  24.012  13.762  12.400
  776W        W64335  13.718  30.129   4.310
  777W        W64336  19.271  10.643   0.964
  778W        W64337  42.923  42.402  12.361
  779W        W64338  15.134  16.778   0.472
  780W        W64339  34.034   2.294  12.938
  781W        W64340  34.959  18.274  10.991
  782W        W64341  39.988  24.712  14.387
  783W        W64342  25.538  40.379   0.825
  784W        W64343   8.899  14.797   1.773
  785W        W64344  26.641  25.057  12.085
  786W        W64345  14.598  34.975   2.178
  787W        W64346  43.294  27.067  14.980
  788W        W64347   1.354   7.339  13.500
  789W        W64348  43.004   3.300   3.232
  790W        W64349  18.194  32.472  14.791
  791W        W64350  16.781   8.714   0.909
  792W        W64351  12.265  15.236   4.155
  793W        W64352  42.016  43.982  14.373
  794W        W64353  16.140  40.495   4.194
  795W        W64354  37.919  23.552  12.079
  796W        W64355  25.708  40.858   4.142
  797W        W64356  39.066   3.909  11.493
  798W        W64357  13.144  23.113   4.185
  799W        W64358  41.038  30.964  14.351
  800W        W64359  36.464  21.140   1.914
  801W        W64360   3.391  11.259  14.330
  802W        W64361   5.266   2.818  11.406
  803W        W64362   8.678  36.471  13.813
  804W        W64363  36.580  10.223  14.359
  805W        W64364  12.335   0.947  14.915
  806W        W64365  24.058  37.019  10.616
  807W        W64366  33.516  18.678  11.964
  808W        W64367   0.928   7.761  11.081
  809W        W64368  10.802   4.792  13.518
  810W        W64369  36.977  12.813   0.418
  811W        W64370  32.924  30.656  10.499
  812W        W64371  22.579   8.819  10.007
  813W        W64372   1.329  42.825  11.963
  814W        W64373   2.318  39.466   1.725
  815W        W64374  24.651   4.368  10.899
  816W        W64375  20.145   9.828  14.421
  817W        W64376  40.905  17.596   3.284
  818W        W64377  15.717  34.065  11.965
  819W        W64378  44.869  16.124   1.733
  820W        W64379  33.017   0.789  11.436
  821W        W64380  35.595  24.037  11.106
  822W        W64381  12.243  42.986   0.777
  823W        W64382   1.877   9.733  14.361
  824W        W64383   4.272  20.101   2.727
  825W        W64384  44.383  15.643  14.504
  826W        W64385  17.196  36.094   5.173
  827W        W64386  16.159   5.884  12.055
  828W        W64387  22.582  17.659   3.196
  829W        W64388  10.733  43.001  13.347
  830W        W64389  36.448  30.121  10.590
  831W        W64390  18.095  27.118   0.765
  832W        W64391  11.763  25.581   0.248
  833W        W64392  25.061   1.762   4.682
  834W        W64393  34.022  21.069   1.866
  835W        W64394  37.002  21.546  10.576
  836W        W64395   1.923  35.977   3.303
  837W        W64396   3.793  41.911  13.896
  838W        W64397  26.090   4.325  13.467
  839W        W64398  34.514  11.324   3.793
  840W        W64399  44.847   8.217   3.381
  841W        W64400  30.571  26.983  10.624
  842W        W64401  10.761   9.678   1.724
  843W        W64402  43.006   8.846  13.978
  844W        W64403   8.717  15.736  13.430
  845W        W64404  18.205  21.660  14.975
  846W        W64405  31.072  16.074  13.546
  847W        W64406  36.856  44.904  14.399
  848W        W64407  17.564  43.390  12.350
  849W        W64408  38.029  26.483   4.626
  850W        W64409  32.041  43.007   3.748
  851W        W64410   4.894  17.114   5.084
  852W        W64411  13.260   6.373   4.711
  853W        W64412  39.538  44.373   3.688
  854W        W64413   0.795  41.909   0.366
  855W        W64414   1.459  30.979  12.382
  856W        W64415   0.922  11.148  14.912
  857W        W64416  19.597  23.232   3.803
  858W        W64417  33.396  23.057   4.157
  859W        W64418  14.108   0.387   0.388
  860W        W64419  19.212  39.899   2.757
  861W        W64420  38.454   8.722  14.344
  862W        W64421  11.849  19.555   4.629
  863W        W64422   2.257  22.143  14.865
  864W        W64423  32.054  28.543   1.443
  865W        W64424  30.161  16.681  13.815
  866W        W64425  30.531  38.417  11.880
  867W        W64426  18.594   3.441  13.406
  868W        W64427   4.223  27.974  13.882
  869W        W64428  16.764  32.487   2.344
  870W        W64429  33.046  26.080   0.393
  871W        W64430   5.301  41.924   1.399
  872W        W64431  13.667  29.115   2.249
  873W        W64432  27.960  30.132   4.625
  874W        W64433  31.612  14.638   1.729
  875W        W64434  13.105   7.801  13.855
  876W        W64435   4.310  41.900  13.942
  877W        W64436  16.257   1.902  14.462
  878W        W64437  27.556  29.990   2.242
  879W        W64438  28.643  12.359  12.031
  880W        W64439   6.302   6.425  12.869
  881W        W64440  26.029  25.090   1.718
  882W        W64441   7.806  18.566   1.852
  883W        W64442  29.037  22.016   1.844
  884W        W64443  18.255  28.605  13.363
  885W        W64444  38.528  15.753   5.212
  886W        W64445  30.055  27.574  11.104
  887W        W64446  19.699  12.190  12.563
  888W        W64447  20.610  40.419  14.364
  889W        W64448   9.312  21.024  10.633
  890W        W64449  36.842  18.173   3.656
  891W        W64450  18.684   8.658  13.929
  892W        W64451   9.821  24.498  14.304
  893W        W64452  29.442  32.397  12.920
  894W        W64453  28.051  41.516  10.987
  895W        W64454  30.633  41.426  12.386
  896W        W64455   0.900  41.850   4.744
  897W        W64456  41.396   3.255   0.791
  898W        W64457  35.455  13.128   1.872
  899W        W64458  24.112   0.813   1.927
  900W        W64459  42.006   0.447  10.928
  901W        W64460  28.157  34.902   0.282
  902W        W64461  25.526  20.267  12.364
  903W        W64462  27.561  44.458  13.870
  904W        W64463   4.427  35.512  11.387
  905W        W64464  40.428  33.112  12.554
  906W        W64465  41.825  13.786  10.972
  907W        W64466   2.963  18.560   1.446
  908W        W64467  44.398   8.201   4.334
  909W        W64468  29.519  21.528   2.899
  910W        W64469  38.036  38.483   4.159
  911W        W64470  40.928  31.966   1.278
  912W        W64471   3.915  39.398  12.525
  913W        W64472  10.849  24.079   4.647
  914W        W64473  40.984  16.659  14.319
  915W        W64474  31.082  18.108  13.970
  916W        W64475  18.245  26.069  11.874
  917W        W64476   8.891   3.240   1.764
  918W        W64477  26.463   1.748   2.712
  919W        W64478   2.276  29.573  11.097
  920W        W64479   0.793  27.017   4.661
  921W        W64480  30.419  18.563   4.709
  922W        W64481  27.520   1.839   2.724
  923W        W64482  11.815  32.082   4.789
  924W        W64483  28.127  21.704   2.742
  925W        W64484  20.120   1.290   4.218
  926W        W64485  43.876  39.555   3.291
  927W        W64486  27.506  12.164  13.961
  928W        W64487   0.971   5.863   2.876
  929W        W64488   6.271  26.520   0.871
  930W        W64489  18.640  44.277  10.524
  931W        W64490  25.596  44.464   2.234
  932W        W64491  40.816   7.690  14.873
  933W        W64492  35.375  12.747  14.876
  934W        W64493  44.359  42.854   2.825
  935W        W64494  13.793  33.612   3.690
  936W        W64495  15.754   1.342  10.488
  937W        W64496  20.765  17.563   1.240
  938W        W64497   6.247  38.410  12.928
  939W        W64498  34.103  35.425   1.255
  940W        W64499  14.277  23.197   0.898
  941W        W64500  40.310  30.466   0.251
  942W        W64501  20.619   3.711   0.276
  943W        W64502   6.201  26.550   5.260
  944W        W64503  31.571  25.965  13.470
  945W        W64504  20.696  11.194   3.242
  946W        W64505  15.590  31.095   4.677
  947W        W64506  35.099  32.463  10.623
  948W        W64507  14.094   9.208   3.151
  949W        W64508   9.378  24.543   4.259
  950W        W64509  19.117  27.976   3.838
  951W        W64510  29.434  38.860  12.345
  952W        W64511   1.825  33.393   2.835
  953W        W64512  33.019   0.287   1.776
  954W        W64513  14.320  39.342  12.908
  955W        W64514  10.321  41.793  11.394
  956W        W64515   9.747  43.021   4.329
  957W        W64516  14.121  10.180   4.243
  958W        W64517  18.211  32.451   3.639
  959W        W64518  19.108  29.561  13.858
  960W        W64519  32.471  43.958  11.961
  961W        W64520  15.760  43.015   5.301
  962W        W64521  28.948  32.908  12.000
  963W        W64522  42.853  31.487   3.180
  964W        W64523  14.717  11.680  12.576
  965W        W64524  40.399  23.646  12.843
  966W        W64525  39.840   2.385  12.870
  967W        W64526  41.802  18.257   4.794
  968W        W64527  25.496  33.116  14.026
  969W        W64528  32.018  15.778   4.615
  970W        W64529  40.916  44.463   4.711
  971W        W64530  10.226  40.323  11.511
  972W        W64531  25.699  41.322   1.838
  973W        W64532   4.862  35.984  14.005
  974W        W64533  13.808   9.155  13.937
  975W        W64534  28.046  18.709   5.183
  976W        W64535  22.104  25.534  11.516
  977W        W64536  39.854  11.305   3.709
  978W        W64537  19.628   2.250   4.699
  979W        W64538  18.128  24.046   3.277
  980W        W64539  41.852  11.144   1.250
  981W        W64540  22.511  39.991   4.284
  982W        W64541  31.051  10.281  14.912
  983W        W64542  15.183   3.817  10.991
  984W        W64543  14.259  28.063   3.236
  985W        W64544  32.519  21.186  10.496
  986W        W64545  43.398  42.901   5.227
  987W        W64546  36.521  14.820  11.074
  988W        W64547  27.036  28.544  11.953
  989W        W64548  17.558  26.594  11.509
  990W        W64549  29.526  42.980   4.167
  991W        W64550  40.499  39.846   4.781
  992W        W64551  22.687  39.456  14.445
  993W        W64552  23.131  19.256   2.876
  994W        W64553  32.629  35.474   1.271
  995W        W64554  16.679   2.886  13.356
  996W        W64555  41.997  35.919   2.898
  997W        W64556   2.919   6.681  11.479
  998W        W64557   9.845  10.853   4.783
  999W        W64558   7.794  22.538   3.806
 1000W        W64559  33.977  16.703  14.986
 1001W        W64560  36.468  33.038   2.248
 1002W        W64561  24.040  23.608   2.404
 1003W        W64562  23.998  25.108  14.986
 1004W        W64563   6.805  44.931   1.914
 1005W        W64564  35.577  10.231  14.791
 1006W        W64565   3.741  22.243  11.902
 1007W        W64566  10.175  43.810   3.291
 1008W        W64567  17.777  36.042   0.963
 1009W        W64568  36.484  13.240   0.842
 1010W        W64569  21.224   7.254   0.883
 1011W        W64570  11.793  21.039   3.348
 1012W        W64571  36.579  39.329  14.347
 1013W        W64572   5.758  13.263   4.720
 1014W        W64573   3.747  27.500   3.236
 1015W        W64574  37.429  10.861  11.857
 1016W        W64575   1.928   1.476  13.333
 1017W        W64576  28.136  28.165   2.199
 1018W        W64577  24.673   4.369   1.413
 1019W        W64578  31.072  18.066  10.990
 1020W        W64579  38.461  31.958   1.279
 1021W        W64580  32.921  44.948   0.452
 1022W        W64581  24.066  15.252  13.927
 1023W        W64582  18.101  22.632   3.314
 1024W        W64583  20.200   4.405  11.442
 1025W        W64584  41.422  25.201  11.037
 1026W        W64585  35.387   6.713  10.565
 1027W        W64586  15.084  19.280   0.310
 1028W        W64587  26.624   4.843  13.873
 1029W        W64588  35.589   8.699  11.987
 1030W        W64589  15.183  16.163   2.304
 1031W        W64590  41.407   0.468   4.693
 1032W        W64591  12.231  40.468  12.833
 1033W        W64592  44.980  15.181   3.813
 1034W        W64593  22.194  25.493   2.851
 1035W        W64594  14.164  38.510  14.459
 1036W        W64595  34.872   7.276   1.367
 1037W        W64596  31.563  22.600  13.350
 1038W        W64597   1.337  28.571   1.927
 1039W        W64598  37.450  30.990   1.373
 1040W        W64599  14.157  42.972  10.432
 1041W        W64600  14.613   4.845   4.142
 1042W        W64601   9.312  42.428   3.236
 1043W        W64602  35.562  38.561  13.308
 1044W        W64603  31.503   3.357  11.513
 1045W        W64604  14.279  28.442   2.303
 1046W        W64605   0.930  22.165  14.029
 1047W        W64606  40.026  13.709  12.055
 1048W        W64607   3.842   4.426  13.942
 1049W        W64608  41.393  43.939   2.751
 1050W        W64609  21.537   5.695  10.537
 1051W        W64610  37.397  32.047   2.792
 1052W        W64611  33.971  18.175   4.272
 1053W        W64612  36.545   2.860  14.413
 1054W        W64613  33.431  40.797  10.409
 1055W        W64614  26.517  18.692  13.477
 1056W        W64615  19.203  31.584  14.918
 1057W        W64616   2.389  36.977   4.291
 1058W        W64617  40.451  27.595  14.759
 1059W        W64618  43.308   6.696  11.592
 1060W        W64619   9.767  42.869   0.794
 1061W        W64620  29.547  39.855  11.583
 1062W        W64621   3.819  28.112   2.230
 1063W        W64622  21.048   9.886   0.321
 1064W        W64623  23.211  20.177   1.217
 1065W        W64624   8.344  35.452   5.619
 1066W        W64625  42.877  40.811  14.370
 1067W        W64626  10.280  37.462   1.290
 1068W        W64627   9.677  11.151   2.276
 1069W        W64628  17.704   0.960  12.924
 1070W        W64629  23.150  31.494   0.931
 1071W        W64630   4.944  37.434   4.197
 1072W        W64631   4.749   4.796  14.792
 1073W        W64632   0.261  44.312   3.180
 1074W        W64633  43.494  13.798  13.048
 1075W        W64634  39.432  25.547   0.357
 1076W        W64635  30.135  10.790   1.282
 1077W        W64636  37.832  35.924  13.308
 1078W        W64637  35.923  10.373  13.361
 1079W        W64638  14.334  39.002   2.192
 1080W        W64639  31.432  16.147   0.330
 1081W        W64640  39.841   3.947   1.925
 1082W        W64641  37.927  17.204  12.890
 1083W        W64642  10.194  37.844  13.452
 1084W        W64643  22.158   7.787   4.301
 1085W        W64644  21.584  37.387   4.205
 1086W        W64645  15.166  10.758   2.245
 1087W        W64646  42.436   7.707  12.553
 1088W        W64647  22.660   3.398   3.182
 1089W        W64648  44.766  31.600  13.024
 1090W        W64649  30.624   4.811  13.023
 1091W        W64650   2.325  13.602  10.900
 1092W        W64651  37.379  24.599  11.074
 1093W        W64652   1.948  12.194  13.313
 1094W        W64653  44.782  44.898  10.956
 1095W        W64654  39.497  15.794  12.095
 1096W        W64655  39.829  13.303   1.746
 1097W        W64656  28.070  41.036  13.521
 1098W        W64657  15.249  27.974   4.774
 1099W        W64658  44.325  31.913  14.780
 1100W        W64659  43.775  26.060  14.296
 1101W        W64660  10.744  38.861  14.451
 1102W        W64661  13.225   7.703   1.423
 1103W        W64662  34.566   7.790  12.053
 1104W        W64663  36.590  42.434   3.263
 1105W        W64664  24.654  22.739  13.328
 1106W        W64665  10.783  23.495   0.756
 1107W        W64666   3.305   4.230   4.325
 1108W        W64667  23.088   0.492  12.501
 1109W        W64668  43.333  25.213   4.158
 1110W        W64669  16.128  36.065  11.096
 1111W        W64670  20.251  21.637  12.370
 1112W        W64671  43.979  26.620   0.278
 1113W        W64672  12.211  31.439  12.964
 1114W        W64673  12.680  42.405  13.496
 1115W        W64674  25.124  18.766   3.683
 1116W        W64675   3.951  16.630   4.743
 1117W        W64676  19.779  41.912  10.905
 1118W        W64677  32.406  33.538  14.021
 1119W        W64678  36.521  27.610  12.955
 1120W        W64679  33.000  37.019  14.384
 1121W        W64680  16.610  12.139   0.953
 1122W        W64681  38.416  35.060   1.391
 1123W        W64682  31.982   2.267   4.671
 1124W        W64683  29.131  21.042  11.858
 1125W        W64684  23.543  43.795  10.896
 1126W        W64685  38.504   9.672  14.805
 1127W        W64686  32.517  13.751  13.050
 1128W        W64687   8.365  10.137  10.624
 1129W        W64688  27.508  30.948   1.284
 1130W        W64689   7.276   1.467   4.718
 1131W        W64690  34.080  40.514   3.149
 1132W        W64691  22.681  29.543  13.386
 1133W        W64692  32.611  30.137   0.813
 1134W        W64693  35.585  37.482   3.677
 1135W        W64694  26.979  32.916   2.838
 1136W        W64695  39.522  25.034   4.806
 1137W        W64696  20.686  13.817  10.902
 1138W        W64697  13.658  44.370  12.840
 1139W        W64698  12.723  32.980   2.409
 1140W        W64699  33.500   3.449  12.413
 1141W        W64700  28.539  14.268   0.289
 1142W        W64701  28.497  24.099   3.758
 1143W        W64702  25.495  32.097   3.791
 1144W        W64703   4.715  41.372   3.825
 1145W        W64704   7.359  19.687  13.898
 1146W        W64705  36.928  27.488  13.320
 1147W        W64706  19.232  25.625   2.891
 1148W        W64707  20.198  43.349  14.935
 1149W        W64708  17.712   2.370  10.899
 1150W        W64709   1.317  23.522  14.491
 1151W        W64710   5.829  40.047   3.231
 1152W        W64711  36.946  10.329   3.181
 1153W        W64712  11.158   2.904   1.861
 1154W        W64713  42.850  25.115  13.321
 1155W        W64714  42.410   0.782   1.701
 1156W        W64715  18.581   1.815   3.817
 1157W        W64716  15.204  29.040  10.537
 1158W        W64717  16.723  17.555   4.212
 1159W        W64718  38.055  28.484   4.195
 1160W        W64719  13.168   3.318  13.538
 1161W        W64720  33.970  17.715   3.204
 1162W        W64721  23.169  28.976  13.483
 1163W        W64722  24.094   0.326  11.586
 1164W        W64723  36.509  37.383   2.896
 1165W        W64724   4.366  40.842  12.572
 1166W        W64725  24.670  21.048   2.830
 1167W        W64726  18.688  38.890   4.348
 1168W        W64727   8.819  28.011   0.351
 1169W        W64728  36.057  41.448   3.730
 1170W        W64729  22.579  25.469  10.426
 1171W        W64730  44.753   3.418  11.591
 1172W        W64731   5.915  27.519   3.638
 1173W        W64732  14.147  19.638   4.776
 1174W        W64733  21.079   3.371   0.407
 1175W        W64734  12.219  32.140  13.488
 1176W        W64735  34.967  35.368  14.876
 1177W        W64736  36.912  23.579   0.416
 1178W        W64737   9.258  18.731  12.342
 1179W        W64738  37.575  39.842   3.791
 1180W        W64739  18.250  31.045   0.327
 1181W        W64740  28.549   8.887   4.694
 1182W        W64741   8.771  10.711  10.093
 1183W        W64742  36.910  28.563  13.519
 1184W        W64743  40.819  26.559   0.296
 1185W        W64744  36.426  26.641   0.794
 1186W        W64745  14.250   3.776  13.339
 1187W        W64746  22.546   2.467  14.476
 1188W        W64747   5.395  35.544  12.023
 1189W        W64748   2.308  31.958   5.246
 1190W        W64749   6.766  40.421  11.948
 1191W        W64750  19.594  14.594  10.978
 1192W        W64751  29.644  40.466   9.923
 1193W        W64752  42.304   8.810  10.570
 1194W        W64753  15.691   7.801   2.763
 1195W        W64754  34.009  39.983   1.874
 1196W        W64755  10.846  25.682   4.650
 1197W        W64756  41.984  37.050  11.032
 1198W        W64757  30.433  35.542  11.448
 1199W        W64758  16.784  32.886  14.875
 1200W        W64759  13.827  31.999   4.673
 1201W        W64760  22.102  33.009   0.390
 1202W        W64761  31.452  38.006  11.123
 1203W        W64762  39.429   4.796  10.415
 1204W        W64763  33.880  28.130  12.862
 1205W        W64764  10.823   3.217   3.267
 1206W        W64765  12.814  42.420   3.785
 1207W        W64766  25.066  33.513  10.524
 1208W        W64767  32.454  12.623   1.322
 1209W        W64768  31.012  23.654   3.194
 1210W        W64769   9.290  26.047   0.412
 1211W        W64770  43.782  37.916  12.363
 1212W        W64771  20.559  18.619  13.865
 1213W        W64772  39.409  32.991  12.029
 1214W        W64773  37.428  39.460   0.261
 1215W        W64774  30.493  12.753  11.023
 1216W        W64775  25.477  24.505   3.685
 1217W        W64776   0.333  27.671  14.764
 1218W        W64777  42.015   7.876   1.230
 1219W        W64778  17.687  41.447   3.861
 1220W        W64779  31.510  19.576   2.200
 1221W        W64780  39.395   5.304  13.376
 1222W        W64781  19.167  26.164  12.084
 1223W        W64782  25.613   7.865  11.936
 1224W        W64783  16.703  13.227   0.850
 1225W        W64784  31.560   9.651  12.512
 1226W        W64785  16.202  11.861   3.179
 1227W        W64786  28.565   6.759  12.578
 1228W        W64787   0.474  12.201  10.620
 1229W        W64788  25.483  33.385   4.677
 1230W        W64789   4.409  37.525  14.309
 1231W        W64790  42.466  13.741  11.452
 1232W        W64791  25.649  17.082  13.015
 1233W        W64792  17.668  28.485  14.376
 1234W        W64793  37.519  36.512   5.263
 1235W        W64794  30.658   9.759   2.396
 1236W        W64795  34.602  19.581  11.894
 1237W        W64796  26.956  24.117  10.105
 1238W        W64797  29.062  40.483   1.858
 1239W        W64798  29.528  21.593   5.642
 1240W        W64799  43.342  18.195  11.524
 1241W        W64800  22.146  15.319   3.763
 1242W        W64801   9.708  27.170   0.860
 1243W        W64802  12.736  41.385   4.199
 1244W        W64803  36.091  15.707  11.868
 1245W        W64804  11.297   3.307  13.487
 1246W        W64805  42.498  31.107  14.913
 1247W        W64806  33.932  15.742  12.081
 1248W        W64807  16.691  20.191  10.930
 1249W        W64808  14.697  36.518  10.577
 1250W        W64809  42.289  15.663   5.207
 1251W        W64810  34.052   4.917  14.478
 1252W        W64811  40.362   1.822   4.224
 1253W        W64812  19.207  30.413   2.236
 1254W        W64813   9.870  40.860   0.466
 1255W        W64814  21.055  36.937  13.023
 1256W        W64815  16.799  22.630   3.325
 1257W        W64816  31.940  34.556  12.444
 1258W        W64817  31.141  12.798  11.600
 1259W        W64818  37.900   5.248  13.882
 1260W        W64819  32.423  35.930   3.205
 1261W        W64820  11.300  41.005  14.276
 1262W        W64821  37.434  10.758   0.785
 1263W        W64822  13.786  35.448   2.877
 1264W        W64823  24.025  43.461   1.802
 1265W        W64824  44.316  19.133  13.443
 1266W        W64825  37.511   6.900  13.844
 1267W        W64826   2.375   5.312   0.425
 1268W        W64827  11.755   5.257   0.804
 1269W        W64828  28.978  44.417   0.851
 1270W        W64829  43.345  19.215   0.944
 1271W        W64830  32.886   4.408  13.922
 1272W        W64831  27.059  11.265   3.345
 1273W        W64832  19.214  12.800   0.854
 1274W        W64833  11.645  28.070  12.412
 1275W        W64834  25.089  10.793  12.550
 1276W        W64835  30.571   6.857  10.472
 1277W        W64836  34.502  12.811   3.782
 1278W        W64837  32.991  14.323   0.783
 1279W        W64838   8.661  14.327  13.029
 1280W        W64839  29.095  42.449  12.898
 1281W        W64840  24.501  24.230  12.953
 1282W        W64841  38.868  38.413   0.452
 1283W        W64842   2.949  22.711   2.266
 1284W        W64843   4.213  31.449  12.007
 1285W        W64844  42.776  15.749   3.360
 1286W        W64845  35.465  32.523   2.864
 1287W        W64846  40.876  22.558  10.410
 1288W        W64847  22.199   5.687  12.904
 1289W        W64848  33.559  31.561  12.415
 1290W        W64849  35.531  23.155   0.956
 1291W        W64850  12.658  15.712  12.487
 1292W        W64851  16.723   5.911  14.389
 1293W        W64852  44.407  39.061  11.062
 1294W        W64853  14.097  21.605   4.812
 1295W        W64854   0.942  14.818   3.243
 1296W        W64855   1.309   4.242  13.036
 1297W        W64856   4.867  23.630  13.372
 1298W        W64857   5.754   3.381   2.845
 1299W        W64858  41.974   6.397   3.296
 1300W        W64859  40.339   8.174   1.863
 1301W        W64860  41.911  18.276  10.494
 1302W        W64861  32.918  12.219   3.258
 1303W        W64862  40.390  33.061   2.188
 1304W        W64863   5.905  10.288   2.832
 1305W        W64864  24.645  14.712   4.836
 1306W        W64865  18.691   0.828  13.952
 1307W        W64866  26.050  40.956   2.291
 1308W        W64867  38.057   7.255  13.400
 1309W        W64868  16.712   0.373  12.838
 1310W        W64869  22.695  20.726   2.266
 1311W        W64870  33.389  28.064  11.576
 1312W        W64871  11.637  33.620  12.078
 1313W        W64872  19.268  36.493   2.288
 1314W        W64873  27.075   5.768   2.215
 1315W        W64874  12.835  31.008  14.943
 1316W        W64875  18.635  38.467  14.492
 1317W        W64876  22.163  43.366   2.302
 1318W        W64877  39.404  15.299  13.963
 1319W        W64878   3.883  14.201   1.902
 1320W        W64879  33.616  42.524   2.194
 1321W        W64880  34.369  29.087  13.522
 1322W        W64881  30.428  12.768  14.018
 1323W        W64882   4.211  14.803   1.831
 1324W        W64883  28.035  37.365  13.500
 1325W        W64884  21.624   0.333  10.502
 1326W        W64885   2.315  22.111   1.880
 1327W        W64886   2.427  23.027   2.190
 1328W        W64887  42.886  38.053   4.132
 1329W        W64888  24.126  24.659   2.302
 1330W        W64889  24.028  22.673  14.395
 1331W        W64890   6.335  41.870   0.404
 1332W        W64891  20.109  35.360   2.808
 1333W        W64892   5.824   8.390  12.536
 1334W        W64893  39.341   9.803   4.354
 1335W        W64894   7.369  39.324  12.942
 1336W        W64895   8.806  43.987  12.954
 1337W        W64896  13.202  34.947  14.967
 1338W        W64897  41.345   0.484  10.639
 1339W        W64898  43.401  11.653  13.519
 1340W        W64899   3.929   5.375   0.813
 1341W        W64900  40.433   6.370   0.483
 1342W        W64901   4.770  27.620  11.993
 1343W        W64902  10.257   8.346  10.557
 1344W        W64903  28.963  40.844   0.764
 1345W        W64904   6.807  23.073   4.154
 1346W        W64905  20.041  16.692  10.541
 1347W        W64906   0.813   9.253  10.470
 1348W        W64907   1.785  41.319  11.504
 1349W        W64908  40.303   2.948  14.283
 1350W        W64909   6.702   4.366  12.458
 1351W        W64910  13.261   2.390   4.668
 1352W        W64911  13.819   5.826  11.056
 1353W        W64912  29.057  17.186  12.019
 1354W        W64913  16.749  34.466  14.792
 1355W        W64914  13.811  34.610  13.879
 1356W        W64915  11.744  19.555   3.646
 1357W        W64916   7.815  11.715  14.478
 1358W        W64917   6.339   5.276   2.381
 1359W        W64918  28.933  29.485   0.451
 1360W        W64919  39.841  15.283   1.934
 1361W        W64920  26.574  27.164   4.767
 1362W        W64921  24.504  35.383   4.251
 1363W        W64922  21.698  22.678   1.214
 1364W        W64923  21.145  27.945   4.353
 1365W        W64924   7.902   0.288   3.655
 1366W        W64925   2.397  11.247  13.831
 1367W        W64926  23.616  22.718   4.331
 1368W        W64927  23.550  43.364   1.279
 1369W        W64928  34.106  27.108   4.704
 1370W        W64929  28.072  41.383  13.900
 1371W        W64930   3.751   5.783  13.451
 1372W        W64931  34.605  37.861   3.817
 1373W        W64932   6.781  40.889   0.950
 1374W        W64933  18.658  11.655   4.825
 1375W        W64934  32.633  20.096  14.767
 1376W        W64935  24.641  20.184  10.528
 1377W        W64936  16.679  44.884  11.539
 1378W        W64937  26.636   7.762  13.821
 1379W        W64938  44.359   6.366  12.555
 1380W        W64939   8.267  40.818   2.185
 1381W        W64940  15.293  44.945   0.762
 1382W        W64941  16.708   9.818  11.561
 1383W        W64942  38.420  16.772  14.302
 1384W        W64943  27.540   7.278   1.752
 1385W        W64944  22.659  29.039  10.117
 1386W        W64945  34.425  26.146  13.030
 1387W        W64946  34.994  41.039  12.855
 1388W        W64947  26.165  37.030   4.332
 1389W        W64948  25.050  39.538   0.734
 1390W        W64949  28.054   2.284  13.358
 1391W        W64950  17.694  11.169  13.821
 1392W        W64951  11.158  28.663   0.798
 1393W        W64952  32.591  29.973   4.762
 1394W        W64953   2.875  32.392  14.793
 1395W        W64954  43.485  37.555  11.556
 1396W        W64955  34.612  34.052   3.286
 1397W        W64956  40.381   1.424   4.257
 1398W        W64957  36.446   0.774  14.769
 1399W        W64958  25.122  30.944  14.485
 1400W        W64959  44.772   6.232   0.751
 1401W        W64960  20.136  12.761  11.978
 1402W        W64961  40.363  11.631  14.359
 1403W        W64962  43.872  35.543  14.295
 1404W        W64963  13.228   6.428   0.790
 1405W        W64964  37.982   4.257  14.866
 1406W        W64965   7.895  34.074  13.834
 1407W        W64966  29.552  35.861  14.956
 1408W        W64967  33.433  41.918   2.307
 1409W        W64968  20.225  33.507   2.687
 1410W        W64969   9.854  18.069   2.238
 1411W        W64970   3.870  12.196  10.413
 1412W        W64971  42.440  23.040   4.771
 1413W        W64972  25.216   7.218  12.073
 1414W        W64973   5.375  32.931   3.367
 1415W        W64974  34.377  19.680   4.597
 1416W        W64975  16.719  16.219  10.419
 1417W        W64976  11.326  44.971  11.384
 1418W        W64977  30.643   3.370   0.262
 1419W        W64978  27.082  29.029  13.797
 1420W        W64979  12.233   1.289  10.937
 1421W        W64980  19.248  27.995  11.549
 1422W        W64981   0.338   3.888   3.794
 1423W        W64982  40.857  28.107  13.378
 1424W        W64983  16.723  15.139  12.546
 1425W        W64984  41.368   4.416  12.368
 1426W        W64985   0.463   6.739   4.236
 1427W        W64986   2.815   3.416  14.931
 1428W        W64987  35.388  19.539   0.877
 1429W        W64988   6.276  27.447   1.269
 1430W        W64989  34.091  10.345   1.789
 1431W        W64990  16.295  19.544  10.535
 1432W        W64991   8.165  15.288   3.282
 1433W        W64992  37.463  23.689   4.346
 1434W        W64993  12.207  30.923  11.385
 1435W        W64994   7.380  31.118  14.336
 1436W        W64995  24.670  25.507  10.578
 1437W        W64996   3.432  34.960   5.318
 1438W        W64997  10.271  33.990  13.972
 1439W        W64998  31.562  41.015  13.902
 1440W        W64999  32.454  38.883  14.378
 1441W        W65000  31.455  18.733  11.604
 1442W        W65001  29.463  25.648   4.796
 1443W        W65002  34.929  12.198   1.722
 1444W        W65003  23.712  11.250   3.306
 1445W        W65004  30.443   8.276   4.748
 1446W        W65005  35.055   3.323  12.940
 1447W        W65006  34.577  28.578   3.769
 1448W        W65007  24.977  32.962  10.923
 1449W        W65008   2.438  38.007   4.718
 1450W        W65009  25.564  39.921   3.760
 1451W        W65010  19.061   8.868   1.800
 1452W        W65011  19.136  15.744  13.994
 1453W        W65012   4.779  43.818   0.423
 1454W        W65013  23.063  38.841   3.314
 1455W        W65014  40.420  13.838  10.969
 1456W        W65015  20.641  25.572   1.241
 1457W        W65016  37.048  30.644  12.012
 1458W        W65017   9.373  44.359  14.494
 1459W        W65018  37.840  39.957   2.236
 1460W        W65019  44.402  43.491  14.348
 1461W        W65020  41.820  35.884   0.830
 1462W        W65021  32.565  21.732  14.502
 1463W        W65022  27.085  29.133   0.463
 1464W        W65023  19.654  23.545  14.936
 1465W        W65024  12.661  41.529   2.858
 1466W        W65025   3.760   3.951  12.378
 1467W        W65026  15.751  14.144  11.052
 1468W        W65027  28.507  26.694  13.447
 1469W        W65028   3.921  13.842  11.109
 1470W        W65029   4.385   8.390  13.977
 1471W        W65030  28.540   1.849  10.898
 1472W        W65031  41.003  33.587   3.186
 1473W        W65032  14.301  22.153  11.405
 1474W        W65033   8.269  36.362   4.820
 1475W        W65034  25.041  30.161   4.791
 1476W        W65035   5.870  27.507  12.359
 1477W        W65036  36.369  11.265  14.972
 1478W        W65037  40.512  13.160   1.260
 1479W        W65038  21.590  12.318   1.820
 1480W        W65039  30.563  31.123   0.763
 1481W        W65040  16.622  42.429  10.515
 1482W        W65041  30.421  19.241  11.912
 1483W        W65042   8.858  29.481   4.684
 1484W        W65043  22.094  44.386   2.206
 1485W        W65044  22.655  33.098   3.267
 1486W        W65045  17.250  20.273  11.868
 1487W        W65046  28.610  26.983   2.804
 1488W        W65047  13.655  23.222  12.422
 1489W        W65048  28.138  44.310   5.158
 1490W        W65049   3.358  43.788   1.228
 1491W        W65050  12.830  10.159  12.436
 1492W        W65051  11.729   0.927   4.263
 1493W        W65052   2.265   9.722  11.051
 1494W        W65053  39.386  16.582  13.375
 1495W        W65054   2.897  25.608  12.079
 1496W        W65055  37.433  34.999  13.821
 1497W        W65056   3.823  22.514  12.831
 1498W        W65057   8.228  35.368  12.381
 1499W        W65058  41.418  38.424   0.952
 1500W        W65059  11.835  12.264   0.368
 1501W        W65060  40.973  18.272   1.722
 1502W        W65061  18.565  38.883   3.225
 1503W        W65062  24.528   5.248   2.321
 1504W        W65063  17.709   4.343   3.247
 1505W        W65064  19.725  22.181  13.355
 1506W        W65065  18.147   1.966  10.404
 1507W        W65066  12.272  11.260   1.422
 1508W        W65067  16.782  40.840  14.377
 1509W        W65068  23.672  38.383   0.327
 1510W        W65069  17.756   6.354   4.688
 1511W        W65070  25.011   9.834   4.606
 1512W        W65071  22.536  15.792  13.319
 1513W        W65072  23.599  13.693  10.498
 1514W        W65073  22.097  18.607   2.339
 1515W        W65074   4.292   5.780   1.243
 1516W        W65075  42.947  24.205   4.177
 1517W        W65076   7.285  26.538  12.552
 1518W        W65077  19.610  43.918   4.259
 1519W        W65078  24.480  13.761  13.026
 1520W        W65079  33.532  43.962   1.926
 1521W        W65080   6.922  32.578   4.325
 1522W        W65081   3.368  25.500   3.198
 1523W        W65082  29.044  43.378  14.286
 1524W        W65083  44.893   4.265  14.489
 1525W        W65084  28.590  13.726   3.780
 1526W        W65085  23.721  23.563   0.803
 1527W        W65086  20.737  23.028  13.918
 1528W        W65087  36.464  24.004   2.701
 1529W        W65088  12.741  18.250   3.796
 1530W        W65089  39.960  17.106  13.364
 1531W        W65090  16.634  22.082  13.491
 1532W        W65091  36.460  11.286  12.026
 1533W        W65092  10.331  33.022  11.980
 1534W        W65093  17.762  29.601  13.542
 1535W        W65094   3.891  27.148  13.872
 1536W        W65095  15.194   7.361  12.071
 1537W        W65096  40.514  38.362   0.268
 1538W        W65097  26.673   2.864  10.412
 1539W        W65098  16.235   7.870   2.680
 1540W        W65099  40.975  19.044   1.271
 1541W        W65100   9.761  39.461   1.829
 1542W        W65101  16.651  27.967   4.667
 1543W        W65102  37.850  41.478  13.504
 1544W        W65103  35.914   7.277   3.737
 1545W        W65104  40.937  44.765   3.817
 1546W        W65105  43.490  24.607   0.471
 1547W        W65106   0.418  41.877  11.940
 1548W        W65107  26.639  41.794  10.592
 1549W        W65108   9.648  24.632   3.276
 1550W        W65109  15.714  19.220   2.760
 1551W        W65110   3.891  21.568   2.879
 1552W        W65111  15.178  38.046  11.975
 1553W        W65112   2.824  14.136   2.781
 1554W        W65113   7.177  42.945  14.403
 1555W        W65114  15.623  27.633   9.959
 1556W        W65115  39.371   4.297  12.884
 1557W        W65116  32.494  30.021  11.033
 1558W        W65117  37.929  14.201  11.395
 1559W        W65118  38.416  20.246  10.443
 1560W        W65119  19.212  12.243   2.826
 1561W        W65120   1.892   2.768  11.991
 1562W        W65121  32.569  34.516  10.958
 1563W        W65122  31.448  35.081   1.774
 1564W        W65123  39.440  17.085  13.371
 1565W        W65124   3.904  31.085   1.312
 1566W        W65125   4.815  22.234   3.685
 1567W        W65126  13.733  34.092  12.571
 1568W        W65127  32.928  17.300   4.793
 1569W        W65128  10.869  36.927   0.734
 1570W        W65129  27.542   8.363   2.389
 1571W        W65130  31.593  41.451   1.706
 1572W        W65131   5.918   0.761  14.970
 1573W        W65132  14.668  39.055  10.155
 1574W        W65133  23.665  22.143   5.229
 1575W        W65134   3.281  10.374   4.345
 1576W        W65135  15.183  30.652  10.982
 1577W        W65136  25.059  24.124   4.763
 1578W        W65137  19.755  28.517  12.375
 1579W        W65138  11.865  28.943   3.798
 1580W        W65139  44.904  24.206  11.110
 1581W        W65140  21.142  30.450   0.942
 1582W        W65141  17.569  34.377  12.835
 1583W        W65142  37.886  31.535   5.191
 1584W        W65143   7.808  24.128   4.770
 1585W        W65144  31.567  21.118  12.050
 1586W        W65145  30.552  19.106  12.859
 1587W        W65146  27.104  44.310   1.442
 1588W        W65147  14.145  15.223  11.493
 1589W        W65148  29.012  35.466  12.432
 1590W        W65149  31.453  15.661  11.411
 1591W        W65150  37.470  27.125  13.839
 1592W        W65151   0.890  42.795   2.219
 1593W        W65152  11.273  24.506  13.796
 1594W        W65153  32.466  40.307  12.914
 1595W        W65154  34.397  28.476   2.284
 1596W        W65155  15.149   4.808  12.994
 1597W        W65156  42.886  44.882  11.939
 1598W        W65157  41.338  26.120   3.360
 1599W        W65158  10.722  41.948  14.867
 1600W        W65159  17.681  32.528   2.403
 1601W        W65160  30.490  23.492  11.544
 1602W        W65161  40.370  30.147  12.074
 1603W        W65162  35.961  25.970  12.944
 1604W        W65163  35.943  26.079  12.487
 1605W        W65164  39.533  10.790   0.894
 1606W        W65165  17.167  34.960   4.262
 1607W        W65166  23.157  37.971   2.389
 1608W        W65167  44.367  34.443   2.675
 1609W        W65168  21.615  44.391  14.773
 1610W        W65169   3.296  42.378  13.981
 1611W        W65170  42.869   8.894  13.023
 1612W        W65171  10.840  36.457  13.884
 1613W        W65172  13.327   9.226   3.236
 1614W        W65173  18.633  36.380   2.365
 1615W        W65174  21.751   7.192  13.050
 1616W        W65175   7.354  44.496  12.553
 1617W        W65176  38.497  20.172   0.481
 1618W        W65177  40.341  19.225   0.924
 1619W        W65178  31.426   4.392   3.202
 1620W        W65179   3.800   4.235   3.284
 1621W        W65180   7.714   5.396  11.070
 1622W        W65181  30.060  28.531  10.462
 1623W        W65182  28.501  33.070  13.333
 1624W        W65183  43.992  16.803   0.370
 1625W        W65184   9.299  30.992  11.407
 1626W        W65185   1.853  29.628  13.985
 1627W        W65186   4.726  37.581  10.422
 1628W        W65187   0.471   9.860  13.799
 1629W        W65188  11.831  10.278   0.383
 1630W        W65189  12.832  27.510   4.834
 1631W        W65190  35.397  15.310  12.974
 1632W        W65191   3.339  23.687  12.022
 1633W        W65192  37.446  25.541  13.954
 1634W        W65193  36.065  25.468   0.848
 1635W        W65194   2.396  34.085   0.259
 1636W        W65195  25.105  33.479   4.603
 1637W        W65196  21.557  22.015  14.357
 1638W        W65197  39.952  12.214   0.311
 1639W        W65198  41.389  40.957  14.788
 1640W        W65199   5.730  25.512   1.797
 1641W        W65200  39.314  24.206  13.544
 1642W        W65201  21.032  28.939  10.983
 1643W        W65202   1.908  44.291  11.580
 1644W        W65203  18.159  13.253  13.522
 1645W        W65204  41.313  35.500  10.502
 1646W        W65205  13.337  22.118   1.740
 1647W        W65206  33.487  28.133   4.625
 1648W        W65207  16.166  40.967   2.204
 1649W        W65208  20.640   7.879   4.615
 1650W        W65209  36.988  32.051   4.271
 1651W        W65210  19.592  16.649  14.796
 1652W        W65211   8.722  27.947   3.752
 1653W        W65212  22.158  22.019  11.597
 1654W        W65213  40.047  14.277  12.007
 1655W        W65214   0.751   4.718  13.435
 1656W        W65215   2.337   6.914   3.720
 1657W        W65216  28.963  12.635   0.760
 1658W        W65217  37.469  34.068   5.270
 1659W        W65218  23.560  34.610   4.280
 1660W        W65219   5.369  28.515   4.299
 1661W        W65220  29.983  11.741  11.432
 1662W        W65221  26.523   9.702   3.729
 1663W        W65222  36.369   8.766   0.441
 1664W        W65223  35.884  34.909   1.715
 1665W        W65224  21.167  38.515   9.969
 1666W        W65225   1.891  20.212   3.676
 1667W        W65226  11.826  15.094   0.336
 1668W        W65227  10.653   3.441   1.322
 1669W        W65228   7.838  24.526  11.867
 1670W        W65229  25.078  23.541   4.339
 1671W        W65230  22.172  42.823   2.240
 1672W        W65231  10.204   8.674   1.706
 1673W        W65232  17.111  43.784  12.851
 1674W        W65233  18.764  26.017   3.245
 1675W        W65234  39.980   7.406   1.800
 1676W        W65235  37.577  42.303  12.571
 1677W        W65236  34.419  37.503   2.394
 1678W        W65237  11.282  11.739   3.166
 1679W        W65238  31.007  14.154  10.529
 1680W        W65239  12.333  27.599   4.728
 1681W        W65240  27.054  44.792  11.506
 1682W        W65241  20.677  36.024   1.719
 1683W        W65242  32.512  43.889  13.954
 1684W        W65243  28.593  35.088  13.925
 1685W        W65244  18.714  36.032  11.543
 1686W        W65245  28.465  40.432   2.864
 1687W        W65246  29.533   7.184   1.800
 1688W        W65247   2.755   5.296   0.385
 1689W        W65248   2.848  36.548   3.357
 1690W        W65249  11.776  20.205  13.513
 1691W        W65250   3.849  13.708  10.527
 1692W        W65251  27.996   4.276   1.725
 1693W        W65252  40.332  42.436   2.395
 1694W        W65253   9.774  35.427  12.495
 1695W        W65254  13.205  35.598  14.948
 1696W        W65255  40.394  29.459   3.307
 1697W        W65256  36.358   0.333   0.932
 1698W        W65257  25.624  34.411  11.090
 1699W        W65258  12.222  37.506   1.211
 1700W        W65259   9.774  13.116   2.197
 1701W        W65260  24.535  32.575  10.539
 1702W        W65261  29.562   6.291   4.758
 1703W        W65262  30.946  14.681   0.870
 1704W        W65263  25.696  25.072  11.549
 1705W        W65264  12.240  36.580  13.503
 1706W        W65265  30.137   1.345   2.852
 1707W        W65266   5.787  14.639   0.448
 1708W        W65267  12.845  43.436   0.762
 1709W        W65268   0.462   0.314  13.810
 1710W        W65269  34.566  11.720  10.472
 1711W        W65270  32.631   2.345  12.938
 1712W        W65271  13.199  25.170   2.414
 1713W        W65272   0.810  44.292  14.928
 1714W        W65273   5.294  26.526  12.071
 1715W        W65274   3.241   5.270   0.278
 1716W        W65275  10.827  14.743   0.373
 1717W        W65276   8.251  14.126  12.911
 1718W        W65277  24.044  34.445  11.582
 1719W        W65278  27.099   4.760   2.346
 1720W        W65279   2.370  23.169  10.594
 1721W        W65280   9.773  26.119   0.450
 1722W        W65281   4.266  11.263   1.800
 1723W        W65282  42.929   1.356   2.676
 1724W        W65283   8.184  24.497  14.282
 1725W        W65284  22.694  44.889  11.934
 1726W        W65285   3.746  10.755  13.389
 1727W        W65286  11.266  16.811  13.978
 1728W        W65287  16.746  14.673   1.258
 1729W        W65288   4.220  24.567  13.359
 1730W        W65289  23.189  30.452   0.856
 1731W        W65290  35.105   3.321  12.094
 1732W        W65291   9.209   2.871  10.564
 1733W        W65292   1.949  24.534   0.285
 1734W        W65293  18.595  39.812   2.339
 1735W        W65294   2.758  28.026  12.534
 1736W        W65295  39.557  12.232  11.959
 1737W        W65296  28.999  37.454  11.909
 1738W        W65297  34.117  21.127   3.825
 1739W        W65298   5.892  17.236  10.491
 1740W        W65299  37.551  40.458   2.403
 1741W        W65300  19.688  36.462   4.642
 1742W        W65301   6.853  43.335   3.183
 1743W        W65302  19.738  15.265   1.338
 1744W        W65303  29.595  29.586   1.860
 1745W        W65304  14.290  43.922  11.009
 1746W        W65305   5.703  32.903   1.709
 1747W        W65306  36.006   7.818  14.348
 1748W        W65307  35.022   8.304   2.809
 1749W        W65308  13.201  32.594   1.284
 1750W        W65309  32.955  32.469   3.851
 1751W        W65310   0.389  38.024  11.569
 1752W        W65311  42.891  23.716   1.343
 1753W        W65312  36.524  28.091  10.471
 1754W        W65313  29.090  28.646  12.366
 1755W        W65314  43.472  38.992   4.123
 1756W        W65315  37.037  13.192   2.197
 1757W        W65316   2.359  12.245  10.407
 1758W        W65317  18.596  21.665  14.933
 1759W        W65318   8.222  32.986   0.328
 1760W        W65319  34.615   0.303  13.947
 1761W        W65320  14.130  37.855  10.519
 1762W        W65321  34.891   3.894   2.727
 1763W        W65322  28.091  20.044  12.540
 1764W        W65323   4.809  18.103   1.306
 1765W        W65324  34.529  37.535  10.976
 1766W        W65325  27.044   3.714   0.760
 1767W        W65326  38.881  20.691   3.205
 1768W        W65327   4.810   9.805   4.206
 1769W        W65328   4.710   8.796   5.137
 1770W        W65329   0.431   5.860  14.947
 1771W        W65330  11.735  42.408  12.565
 1772W        W65331   0.769  44.400   4.621
 1773W        W65332   4.345   1.885   0.911
 1774W        W65333  39.365  17.726   2.324
 1775W        W65334  43.349  43.414  10.576
 1776W        W65335  12.354  11.629  10.923
 1777W        W65336  25.635   1.351   3.369
 1778W        W65337  38.930  14.308   1.888
 1779W        W65338  17.292  11.254  13.030
 1780W        W65339  31.084  26.672  13.997
 1781W        W65340   8.794  31.946   0.313
 1782W        W65341  41.981  21.207  13.345
 1783W        W65342  30.056  29.089  14.286
 1784W        W65343  25.093  33.415  13.802
 1785W        W65344   5.327  32.099   2.191
 1786W        W65345  14.294   8.848   5.237
 1787W        W65346   5.417  25.068  12.368
 1788W        W65347  26.663  10.285   0.327
 1789W        W65348  24.552   0.484  13.501
 1790W        W65349  13.334  40.882   2.341
 1791W        W65350  28.445   2.853   0.878
 1792W        W65351  10.175  33.453   0.282
 1793W        W65352  22.673  22.132   2.822
 1794W        W65353   4.767  39.059   3.728
 1795W        W65354  43.326  43.890   2.391
 1796W        W65355  20.665   0.770  10.486
 1797W        W65356   2.432  21.553  11.866
 1798W        W65357  26.531  12.733  13.360
 1799W        W65358  24.698  21.081  10.579
 1800W        W65359   1.841  36.860   4.295
 1801W        W65360  11.226   2.856   2.340
 1802W        W65361  10.637  33.392  12.920
 1803W        W65362  20.125  10.289   0.374
 1804W        W65363  26.102   9.715   2.260
 1805W        W65364  18.648   5.692  10.461
 1806W        W65365  26.648  17.274   0.932
 1807W        W65366  41.934  12.632  12.832
 1808W        W65367  16.298  41.458  14.902
 1809W        W65368  35.003   0.837  11.988
 1810W        W65369  35.972  30.617   0.397
 1811W        W65370   0.750  15.248  14.505
 1812W        W65371  10.779  36.968   1.697
 1813W        W65372  21.565  28.504   0.851
 1814W        W65373  29.067  39.899  12.039
 1815W        W65374  30.999  12.838  11.102
 1816W        W65375  40.033  13.181  14.016
 1817W        W65376   0.459  38.554   4.685
 1818W        W65377  11.258  11.194   9.558
 1819W        W65378  39.884   5.317  14.982
 1820W        W65379   1.448   1.467   1.273
 1821W        W65380  34.581  22.679   0.809
 1822W        W65381  31.080  34.021   4.656
 1823W        W65382  33.884   6.846  13.891
 1824W        W65383  26.678  14.599   4.791
 1825W        W65384  26.048  35.540   3.741
 1826W        W65385  44.363  17.555  12.980
 1827W        W65386  15.781  34.900   5.239
 1828W        W65387  21.194  30.975  12.057
 1829W        W65388  17.560  42.810  13.794
 1830W        W65389   7.335  30.520  11.960
 1831W        W65390   2.467  35.402   3.157
 1832W        W65391  11.820  22.577  14.374
 1833W        W65392   1.403  14.783  14.944
 1834W        W65393  13.168  29.062  10.928
 1835W        W65394  33.416  39.949  11.877
 1836W        W65395  42.994  17.617  14.988
 1837W        W65396  36.538  20.709   0.423
 1838W        W65397  24.084  24.558   0.799
 1839W        W65398   6.275  38.548  13.374
 1840W        W65399  11.663  10.350  10.915
 1841W        W65400  24.132  11.234  14.439
 1842W        W65401  17.782  18.637   1.900
 1843W        W65402  38.463  43.462  14.851
 1844W        W65403  28.962  16.807   4.171
 1845W        W65404  26.570  38.451   1.752
 1846W        W65405   9.701  21.179   3.153
 1847W        W65406  39.906  35.970  11.607
 1848W        W65407   8.893  18.248  10.984
 1849W        W65408  33.391   9.890   0.958
 1850W        W65409  18.218   8.268   0.780
 1851W        W65410   9.692  20.548  11.923
 1852W        W65411  13.237  35.047   2.681
 1853W        W65412  26.674   5.332  14.367
 1854W        W65413   0.428  44.910   0.326
 1855W        W65414  11.843  42.821   0.474
 1856W        W65415  11.234  27.176   3.643
 1857W        W65416   6.244   6.242   2.770
 1858W        W65417  29.980  20.033   0.398
 1859W        W65418   7.718  30.141  12.066
 1860W        W65419  24.032  39.507   4.264
 1861W        W65420   7.833  11.197   4.693
 1862W        W65421  28.060  21.729  13.880
 1863W        W65422  34.090  29.135   1.732
 1864W        W65423   7.748  24.063   3.380
 1865W        W65424   4.801  39.010  11.935
 1866W        W65425  10.717  10.657   9.454
 1867W        W65426  10.806   4.877   1.238
 1868W        W65427   4.878   8.684  14.849
 1869W        W65428  18.181  26.578   2.325
 1870W        W65429   5.870  18.723   2.266
 1871W        W65430  42.421  17.076   3.777
 1872W        W65431   0.436  42.956  10.630
 1873W        W65432  15.313  41.304   3.641
 1874W        W65433  31.586  26.532  14.295
 1875W        W65434  38.020  33.478   0.780
 1876W        W65435   7.329  25.589   1.812
 1877W        W65436  23.654  21.192   2.214
 1878W        W65437   1.394  34.565  11.603
 1879W        W65438   9.815   1.390  11.994
 1880W        W65439  43.311  30.630  13.030
 1881W        W65440   4.842  44.321   2.743
 1882W        W65441   2.930   9.834   1.802
 1883W        W65442  22.087  28.079  10.613
 1884W        W65443  27.659   1.751   4.339
 1885W        W65444  29.455  34.886   1.385
 1886W        W65445  32.972  25.687  14.972
 1887W        W65446  40.545  18.131   1.323
 1888W        W65447  30.429   0.788  14.415
 1889W        W65448  30.113   5.837  10.976
 1890W        W65449  10.383  36.391  12.405
 1891W        W65450  20.132  11.685   0.768
 1892W        W65451   9.862  35.451   0.884
 1893W        W65452   2.437  14.318   3.152
 1894W        W65453   8.314  30.079  13.462
 1895W        W65454  41.978  25.117  10.407
 1896W        W65455  30.086  26.998   1.843
 1897W        W65456   9.362  20.752  13.031
 1898W        W65457   5.225   5.342  12.072
 1899W        W65458  43.907   2.882  12.578
 1900W        W65459  40.424   9.242   0.772
 1901W        W65460   4.942  38.448  14.820
 1902W        W65461   9.768  20.136   3.771
 1903W        W65462  11.171  38.559   2.775
 1904W        W65463   6.799  14.729   4.636
 1905W        W65464  33.599  43.344  13.341
 1906W        W65465  44.913   9.843  11.541
 1907W        W65466  15.641   0.302  12.833
 1908W        W65467  12.627   5.404   1.702
 1909W        W65468   7.411  16.083   2.722
 1910W        W65469  26.490  28.449  14.343
 1911W        W65470  18.114  44.957   1.918
 1912W        W65471  11.267   1.458   1.781
 1913W        W65472  41.899  36.884  12.020
 1914W        W65473  36.862  32.398   1.887
 1915W        W65474  31.441   7.377  13.449
 1916W        W65475  10.811  41.451   2.834
 1917W        W65476  42.418  19.588  12.969
 1918W        W65477  36.424   5.892   2.866
 1919W        W65478  37.018  10.800   1.725
 1920W        W65479  43.890   6.362  13.466
 1921W        W65480  22.515  17.767   2.226
 1922W        W65481  38.919  35.054  11.081
 1923W        W65482  21.110   4.295   1.250
 1924W        W65483   8.207  43.850  12.505
 1925W        W65484  30.165  35.869   3.195
 1926W        W65485   6.799   8.702  13.484
 1927W        W65486   0.298  34.601   2.277
 1928W        W65487   3.757  16.129   3.643
 1929W        W65488  22.563   4.712  14.480
 1930W        W65489  31.132  43.363   2.837
 1931W        W65490  39.909  21.722  13.319
 1932W        W65491   0.970   4.296  11.054
 1933W        W65492  13.695  31.609  12.856
 1934W        W65493  43.369   7.261   2.389
 1935W        W65494  30.589  38.391  14.911
 1936W        W65495   3.796  44.818  10.536
 1937W        W65496  29.056  37.578   1.408
 1938W        W65497  20.522  25.202   2.313
 1939W        W65498  43.968  37.017   1.854
 1940W        W65499  11.276   8.358   3.296
 1941W        W65500  33.401   6.350   3.310
 1942W        W65501  15.280  36.404   4.692
 1943W        W65502  28.493  32.479   3.284
 1944W        W65503  24.224   8.683  14.980
 1945W        W65504  43.864   9.284   4.667
 1946W        W65505  16.707  36.964   4.670
 1947W        W65506   3.790  38.555   2.766
 1948W        W65507  26.025  25.647   4.174
 1949W        W65508  29.628  12.833   4.706
 1950W        W65509   5.362  31.119  11.909
 1951W        W65510   6.315  35.860  10.637
 1952W        W65511   8.215  26.600   2.800
 1953W        W65512  39.950  35.088   5.202
 1954W        W65513  17.248  33.604   1.362
 1955W        W65514  25.203  18.684  12.941
 1956W        W65515  28.045   4.747  13.797
 1957W        W65516  37.848  43.811   1.716
 1958W        W65517  12.308  37.340  10.014
 1959W        W65518  36.431  23.111  13.871
 1960W        W65519  19.533  18.134  10.429
 1961W        W65520  18.126  40.842  12.079
 1962W        W65521  38.865   2.938  12.371
 1963W        W65522  41.400  43.871   2.281
 1964W        W65523  18.547  34.480   3.272
 1965W        W65524  25.547  23.150  14.385
 1966W        W65525  44.356  37.955  11.027
 1967W        W65526  30.595  19.103  11.114
 1968W        W65527   8.755  10.777  14.943
 1969W        W65528   0.356  32.576  11.481
 1970W        W65529  23.602   7.326   1.754
 1971W        W65530  24.987   9.887   5.583
 1972W        W65531  24.135  31.143   1.861
 1973W        W65532  23.192  31.134   3.834
 1974W        W65533  10.657  15.195  14.911
 1975W        W65534  18.676  17.591   3.242
 1976W        W65535  33.068  22.587  14.005
 1977W        W65536  17.085  21.160  14.928
 1978W        W65537  10.730  32.517  12.428
 1979W        W65538  15.297  30.546   0.956
 1980W        W65539  37.021  39.835  13.958
 1981W        W65540  11.632   6.797  14.372
 1982W        W65541  29.457  31.626   2.723
 1983W        W65542  35.373  24.213   3.868
 1984W        W65543  15.212  33.501  13.935
 1985W        W65544  36.971   9.788  14.794
 1986W        W65545   9.190  37.534  12.381
 1987W        W65546  24.570  22.135   3.259
 1988W        W65547  33.040  26.694  10.422
 1989W        W65548  35.052  11.769  11.594
 1990W        W65549  44.333   4.722   0.755
 1991W        W65550  20.592  27.068   4.752
 1992W        W65551  37.490  37.000  14.383
 1993W        W65552  26.623   3.388  11.377
 1994W        W65553   1.238  14.704   3.861
 1995W        W65554  21.698   8.235  14.284
 1996W        W65555  41.004  25.584  13.444
 1997W        W65556  35.925  39.503  13.347
 1998W        W65557  34.022  15.316   0.481
 1999W        W65558  44.856  21.603  10.901
 2000W        W65559  42.427   4.435   2.695
 2001W        W65560  41.788  27.146   0.468
 2002W        W65561  28.980  36.467   2.179
 2003W        W65562  44.962  31.901  11.463
 2004W        W65563  39.931  35.041   2.824
 2005W        W65564  43.828  29.451  10.932
 2006W        W65565  32.443  22.689  14.283
 2007W        W65566  10.799  22.704  11.534
 2008W        W65567  42.820  29.098  13.987
 2009W        W65568  11.243  25.556   0.806
 2010W        W65569  38.526  21.736   4.130
 2011W        W65570  28.615  23.577   2.719
 2012W        W65571   4.308  17.609  10.555
 2013W        W65572  29.968  23.062   2.715
 2014W        W65573  13.280  40.372  13.316
 2015W        W65574  23.126  37.936   2.755
 2016W        W65575  21.690   3.362  14.839
 2017W        W65576  32.991  21.623  14.327
 2018W        W65577  28.065   5.305  12.951
 2019W        W65578  17.652  11.750   0.799
 2020W        W65579  28.536  27.136   4.644
 2021W        W65580   6.808  12.710  10.981
 2022W        W65581  29.473   0.924   0.376
 2023W        W65582  24.666  16.230   0.376
 2024W        W65583  43.824  35.369  11.409
 2025W        W65584   6.882   7.197   3.748
 2026W        W65585  34.953  36.846   2.841
 2027W        W65586  30.940   9.274   4.157
 2028W        W65587  34.973  10.833  14.023
 2029W        W65588  31.931  25.192   3.812
 2030W        W65589   1.833  33.566  14.029
 2031W        W65590  29.148   4.343   0.438
 2032W        W65591  27.122  24.559  12.895
 2033W        W65592   8.688  27.020   1.895
 2034W        W65593   9.291  17.072  12.461
 2035W        W65594   4.392  40.416   3.641
 2036W        W65595   1.298  32.632   3.778
 2037W        W65596  42.401  36.363   2.302
 2038W        W65597  33.939   7.292  10.954
 2039W        W65598   2.878  14.796   0.256
 2040W        W65599  38.382  32.507   2.195
 2041W        W65600  26.493  29.591   4.205
 2042W        W65601  10.284  28.118   2.852
 2043W        W65602  23.089  28.518  12.539
 2044W        W65603  16.302  17.723  10.486
 2045W        W65604   8.830  25.190  10.971
 2046W        W65605  28.937  34.051   4.665
 2047W        W65606  22.071   4.720   0.921
 2048W        W65607  31.013  27.472   3.704
 2049W        W65608   4.384  39.815   0.845
 2050W        W65609   0.782  23.628   2.755
 2051W        W65610  20.648  18.659   1.379
 2052W        W65611  41.895  10.284  10.464
 2053W        W65612  19.622  35.469   0.874
 2054W        W65613  32.111   5.909   0.948
 2055W        W65614  20.574   4.323  14.765
 2056W        W65615  30.146   9.311  13.315
 2057W        W65616  25.532  14.157   4.805
 2058W        W65617  42.315  33.617  10.967
 2059W        W65618  34.920  13.150   1.706
 2060W        W65619  30.988   0.970  12.429
 2061W        W65620  10.678  18.609   3.679
 2062W        W65621  40.532  33.540   2.414
 2063W        W65622  26.038  30.518  11.444
 2064W        W65623  26.201   0.965   4.139
 2065W        W65624  36.902  27.668  14.779
 2066W        W65625   5.353  29.542   3.220
 2067W        W65626  24.151   0.983  11.563
 2068W        W65627   0.862   8.666   3.640
 2069W        W65628   2.265  17.091  13.485
 2070W        W65629  37.002  42.822  13.547
 2071W        W65630  31.430   8.690   4.825
 2072W        W65631  22.698  28.641  13.056
 2073W        W65632  36.995  23.146  13.896
 2074W        W65633  25.974  14.822  14.480
 2075W        W65634  43.466  17.562   3.802
 2076W        W65635  20.691  33.071   4.181
 2077W        W65636  30.492  38.840   0.480
 2078W        W65637  13.618   9.688  14.360
 2079W        W65638  11.259  16.217   1.914
 2080W        W65639  38.070  26.464   1.797
 2081W        W65640   0.486  17.079  13.799
 2082W        W65641  17.595  39.859   2.276
 2083W        W65642  42.800  42.916   0.807
 2084W        W65643  23.522  43.273  14.896
 2085W        W65644  20.630  36.351  10.439
 2086W        W65645   5.339  39.945  10.980
 2087W        W65646  33.080   6.278   3.284
 2088W        W65647  21.625  26.530   0.784
 2089W        W65648   2.884  44.944  10.622
 2090W        W65649   0.323   6.315  13.432
 2091W        W65650  20.652   4.869  12.426
 2092W        W65651  28.620  10.339   3.791
 2093W        W65652  42.338  18.140  14.938
 2094W        W65653  20.050  27.186  10.434
 2095W        W65654  27.130  42.318  11.118
 2096W        W65655  12.154  23.711   1.275
 2097W        W65656   0.375  16.079   2.233
 2098W        W65657  40.897  43.364  14.944
 2099W        W65658  40.837  30.016  12.522
 2100W        W65659  11.345  18.178   1.435
 2101W        W65660  14.269   3.843   3.712
 2102W        W65661  12.276  18.624  12.364
 2103W        W65662   3.306  41.312   0.254
 2104W        W65663   2.305  40.986  10.566
 2105W        W65664  33.477  17.184  10.521
 2106W        W65665  37.903  43.309  13.841
 2107W        W65666  16.628  39.895   0.444
 2108W        W65667   0.477  21.208   1.712
 2109W        W65668  21.626   2.748   3.653
 2110W        W65669  30.000   9.219  10.419
 2111W        W65670  18.730   1.964  10.124
 2112W        W65671  10.163  24.089  11.609
 2113W        W65672  22.200   3.840  12.864
 2114W        W65673   2.756  36.938  10.527
 2115W        W65674  33.894  21.203   4.314
 2116W        W65675  14.616  18.657   4.722
 2117W        W65676  41.931  41.404   0.319
 2118W        W65677  15.240  38.864  14.875
 2119W        W65678   5.728  13.703  13.016
 2120W        W65679  31.130   5.916   3.671
 2121W        W65680   6.833  13.294   0.929
 2122W        W65681  14.256  23.607  10.919
 2123W        W65682   6.731  17.259  13.536
 2124W        W65683  12.755   9.169   3.726
 2125W        W65684  17.568   5.401  11.862
 2126W        W65685  20.680   4.738  13.055
 2127W        W65686  10.371   0.927   1.757
 2128W        W65687   0.780  18.588  10.631
 2129W        W65688   8.844  34.526   2.395
 2130W        W65689  24.150  28.455  14.932
 2131W        W65690   9.857  35.030   2.776
 2132W        W65691  23.621   1.855   3.302
 2133W        W65692  42.812   7.348   0.823
 2134W        W65693  23.522  28.053  13.833
 2135W        W65694  30.161  36.050   4.119
 2136W        W65695  23.165  29.567  11.083
 2137W        W65696  35.530  24.106   0.430
 2138W        W65697  22.995   4.397   1.384
 2139W        W65698  28.076  40.496  12.042
 2140W        W65699  24.178  19.680  10.060
 2141W        W65700  13.672   2.289   2.331
 2142W        W65701  37.581   4.249   1.720
 2143W        W65702  39.985  16.315   1.309
 2144W        W65703  12.197   7.259  10.927
 2145W        W65704  24.592  16.160  12.485
 2146W        W65705  27.176  19.584   3.769
 2147W        W65706   1.438  44.395  10.515
 2148W        W65707  17.703  18.690  12.904
 2149W        W65708   1.318  32.512  13.932
 2150W        W65709  27.942   6.386   1.321
 2151W        W65710  24.030   8.273   3.364
 2152W        W65711  34.028  22.114  10.576
 2153W        W65712  41.321  10.223  12.376
 2154W        W65713  37.918  16.211  13.021
 2155W        W65714  14.801  31.552   1.700
 2156W        W65715  34.509  17.762   0.918
 2157W        W65716  44.807  15.818  13.410
 2158W        W65717  20.605  29.429  12.467
 2159W        W65718  36.537  22.035   0.878
 2160W        W65719  36.423   6.361  11.950
 2161W        W65720  40.375  11.354  12.489
 2162W        W65721  37.344  28.590  13.333
 2163W        W65722  32.562   6.238   3.714
 2164W        W65723  38.947  13.155  14.026
 2165W        W65724  12.348  12.219   1.352
 2166W        W65725   4.779   2.248   0.374
 2167W        W65726   2.307  28.040  11.027
 2168W        W65727  24.096  12.286  11.073
 2169W        W65728  14.668  35.553   4.747
 2170W        W65729  29.020  39.548   5.618
 2171W        W65730  29.491  24.485   3.757
 2172W        W65731   4.944   1.841  10.900
 2173W        W65732  40.395  18.224   4.720
 2174W        W65733   9.175  12.362   2.209
 2175W        W65734  35.911  25.114   3.151
 2176W        W65735  16.099  12.228   0.301
 2177W        W65736  27.190   6.722   1.431
 2178W        W65737  36.004  43.000  10.455
 2179W        W65738  25.553  24.220  11.465
 2180W        W65739  11.782  18.056   1.710
 2181W        W65740   3.224  10.840  13.356
 2182W        W65741   0.801  44.397  12.039
 2183W        W65742  15.094  15.108   3.657
 2184W        W65743   2.337   7.676  10.546
 2185W        W65744  40.329   3.344  13.996
 2186W        W65745  18.548   9.671  10.425
 2187W        W65746  34.494  23.084  14.379
 2188W        W65747  37.534  21.057  13.508
 2189W        W65748  37.942  29.618   3.259
 2190W        W65749  21.171  14.206   4.639
 2191W        W65750  31.106   7.784   5.144
 2192W        W65751  36.095  38.954   0.441
 2193W        W65752  40.001  25.530   3.310
 2194W        W65753  33.934  37.039  12.979
 2195W        W65754  24.033  21.080   3.837
 2196W        W65755   5.224   1.797   0.301
 2197W        W65756  21.521  13.306  12.483
 2198W        W65757  26.647  26.048  13.063
 2199W        W65758   0.746   6.783   1.704
 2200W        W65759   3.952  16.205  12.354
 2201W        W65760   5.307  41.904  14.782
 2202W        W65761  30.570  10.145  12.870
 2203W        W65762  43.308  29.579  11.992
 2204W        W65763  11.719  28.117   1.727
 2205W        W65764  16.673  28.551   0.886
 2206W        W65765  27.081   5.830   1.839
 2207W        W65766  37.461  27.579   1.438
 2208W        W65767  44.322  25.647   2.719
 2209W        W65768  14.733  41.303  10.918
 2210W        W65769  25.214   3.789  13.964
 2211W        W65770  37.997  30.062  11.595
 2212W        W65771  39.442  24.982   1.274
 2213W        W65772  41.861  36.884   1.919
 2214W        W65773   6.384  18.637   0.869
 2215W        W65774   9.173  27.592   0.827
 2216W        W65775   3.224  17.603  10.891
 2217W        W65776   0.984  17.569  12.949
 2218W        W65777   9.317   4.714   2.279
 2219W        W65778  19.163   0.442   3.192
 2220W        W65779  43.405  38.922   2.867
 2221W        W65780   3.820  32.546   2.814
 2222W        W65781  35.376  12.208   0.744
 2223W        W65782   1.927  29.129  12.496
 2224W        W65783  15.821  11.866  14.347
 2225W        W65784  17.660  44.463  14.817
 2226W        W65785   2.226  32.079   3.305
 2227W        W65786  42.980  39.915   1.223
 2228W        W65787  40.818  29.941   4.797
 2229W        W65788  28.085  38.002   4.638
 2230W        W65789  25.073   8.272   4.774
 2231W        W65790  33.544  26.156  12.864
 2232W        W65791  40.496  35.065   0.375
 2233W        W65792   3.821  13.630   0.462
 2234W        W65793  41.974  40.345   4.795
 2235W        W65794   1.429  14.590  12.380
 2236W        W65795  23.034  31.136   9.936
 2237W        W65796  43.901  11.816  12.406
 2238W        W65797  26.019  26.468  10.887
 2239W        W65798  22.641  38.969   5.245
 2240W        W65799  10.750  26.971  14.371
 2241W        W65800   8.900  29.998  14.291
 2242W        W65801  26.486  22.716  14.019
 2243W        W65802  22.178  39.002  11.563
 2244W        W65803  30.605  17.757  10.634
 2245W        W65804  25.208  16.631  13.842
 2246W        W65805  43.002   2.291   2.247
 2247W        W65806  11.234  23.196  10.528
 2248W        W65807  21.586  41.991  13.397
 2249W        W65808   1.260  36.367  11.894
 2250W        W65809  10.648  18.161   2.248
 2251W        W65810  35.101  28.541   0.333
 2252W        W65811   4.349  23.585   2.756
 2253W        W65812  40.867  32.608   5.714
 2254W        W65813  26.537  37.009   0.925
 2255W        W65814  11.812  42.484   1.839
 2256W        W65815  19.554  13.174  11.387
 2257W        W65816  21.700  21.064  12.357
 2258W        W65817  31.990  29.498  14.289
 2259W        W65818  31.098   1.358  11.047
 2260W        W65819  40.016   0.306   4.220
 2261W        W65820   8.797  12.148  12.494
 2262W        W65821  15.771  22.669   9.970
 2263W        W65822  22.149  34.575  12.885
 2264W        W65823  38.943  12.724   3.237
 2265W        W65824  38.518  29.464   4.286
 2266W        W65825  24.654  44.938   2.279
 2267W        W65826  13.626   6.195  14.452
 2268W        W65827   8.726  20.677   0.759
 2269W        W65828  44.967  19.727   2.815
 2270W        W65829   9.793  26.516  11.933
 2271W        W65830   6.712   7.342   2.416
 2272W        W65831  10.845  16.253   3.231
 2273W        W65832  11.202  28.980   0.375
 2274W        W65833  34.385  27.661   0.335
 2275W        W65834   4.285  14.814   0.893
 2276W        W65835  34.552  41.898  13.888
 2277W        W65836  29.120  43.490   0.807
 2278W        W65837  41.893  24.117   3.210
 2279W        W65838  41.461  21.171   1.883
 2280W        W65839  41.536  44.888  10.465
 2281W        W65840   1.864  40.343  12.356
 2282W        W65841   7.315   7.826   0.819
 2283W        W65842  13.838  34.484   0.441
 2284W        W65843  39.896  42.358  14.924
 2285W        W65844  17.215  14.696   0.907
 2286W        W65845  21.626  12.732   2.834
 2287W        W65846  19.771  41.898   2.755
 2288W        W65847   2.350  13.732   3.689
 2289W        W65848   4.403  26.143   0.307
 2290W        W65849  30.587  36.023  13.516
 2291W        W65850   3.881  35.543   3.231
 2292W        W65851  24.546   0.940  10.958
 2293W        W65852  44.265  29.935  12.083
 2294W        W65853  28.936  29.062   3.767
 2295W        W65854  39.544  12.147   2.295
 2296W        W65855  20.678   1.943   0.367
 2297W        W65856  31.111   2.312  11.545
 2298W        W65857  39.319  33.899   5.183
 2299W        W65858  27.048  35.531  12.422
 2300W        W65859   5.376   1.847   1.295
 2301W        W65860  21.529  33.098   2.754
 2302W        W65861  42.788   3.843   3.763
 2303W        W65862   7.678  36.351  13.895
 2304W        W65863   0.364   8.268  11.531
 2305W        W65864  17.559  41.335  14.027
 2306W        W65865  24.535  23.497  14.305
 2307W        W65866   4.823  37.964   0.785
 2308W        W65867   2.259  23.724   4.606
 2309W        W65868  19.761   9.730  13.428
 2310W        W65869  30.461  37.465   1.247
 2311W        W65870   1.274  34.107   3.821
 2312W        W65871  35.854  11.643  14.002
 2313W        W65872  15.145  31.929  12.379
 2314W        W65873   7.229  17.118   3.244
 2315W        W65874  39.954  19.566   4.683
 2316W        W65875  34.937  23.008   4.739
 2317W        W65876  29.626  23.074  12.893
 2318W        W65877  44.999  18.202  12.963
 2319W        W65878  35.978  17.131  13.404
 2320W        W65879   2.282  25.552  12.426
 2321W        W65880  24.591  10.759  11.058
 2322W        W65881  25.163   8.669  14.825
 2323W        W65882  34.053  26.655  13.361
 2324W        W65883  11.135   4.376   4.731
 2325W        W65884  22.136  28.933  13.840
 2326W        W65885   0.448   1.409  10.469
 2327W        W65886  34.466  42.843   5.176
 2328W        W65887  42.987  22.694  11.417
 2329W        W65888  24.121  29.109   1.356
 2330W        W65889   5.383  22.647   1.448
 2331W        W65890  16.589  29.585  11.518
 2332W        W65891  42.014  27.527   3.758
 2333W        W65892  31.536  27.006  13.976
 2334W        W65893  31.120  17.078  11.446
 2335W        W65894  32.140  11.359   1.348
 2336W        W65895   0.941  25.973   3.251
 2337W        W65896  22.510  24.663   2.342
 2338W        W65897  13.646  21.256  14.801
 2339W        W65898  21.639  19.644   2.234
 2340W        W65899  13.176   8.340  11.955
 2341W        W65900  13.304  38.374  14.395
 2342W        W65901  29.539  16.768  14.305
 2343W        W65902  41.411  36.098   1.279
 2344W        W65903   9.378  24.144  11.010
 2345W        W65904  31.112  17.717  12.490
 2346W        W65905  22.522  40.874  14.761
 2347W        W65906  11.733  36.936  10.455
 2348W        W65907  20.571  40.307   2.418
 2349W        W65908  40.000  39.002   3.706
 2350W        W65909  20.069   4.342   3.283
 2351W        W65910  41.349  34.516  12.904
 2352W        W65911   1.239  38.563   0.878
 2353W        W65912   6.809  31.492   0.441
 2354W        W65913  36.038  23.127   1.787
 2355W        W65914  26.978  12.698   4.622
 2356W        W65915   6.376  14.287   3.805
 2357W        W65916   3.437  36.001  10.634
 2358W        W65917   0.456  11.359  11.039
 2359W        W65918  15.275  42.787  13.503
 2360W        W65919  20.229  18.114  10.025
 2361W        W65920   3.890   0.359  14.365
 2362W        W65921  42.340  36.490   0.782
 2363W        W65922  43.315   4.239   4.262
 2364W        W65923   6.887  27.667   0.285
 2365W        W65924  24.207  31.974  12.991
 2366W        W65925  36.000  37.447   4.629
 2367W        W65926  44.881  21.721   2.184
 2368W        W65927  24.486  44.768  14.816
 2369W        W65928  24.572  42.508  12.835
 2370W        W65929  29.025   7.899   1.359
 2371W        W65930  10.376   1.921  12.384
 2372W        W65931   6.867   1.896  12.076
 2373W        W65932  25.543  28.086  13.808
 2374W        W65933  19.259   4.912   2.307
 2375W        W65934  39.908   0.817  11.535
 2376W        W65935  20.234  22.683   0.949
 2377W        W65936  34.581   8.350  14.841
 2378W        W65937  12.829   7.834  10.982
 2379W        W65938  24.701  29.669   0.737
 2380W        W65939  16.607  32.578   3.271
 2381W        W65940  10.170  34.583  11.917
 2382W        W65941   8.717   3.930  10.545
 2383W        W65942   8.209  31.085   3.861
 2384W        W65943  14.219  36.531   5.209
 2385W        W65944  40.043   5.705   2.367
 2386W        W65945  13.221  40.364  11.951
 2387W        W65946  29.032   3.795   3.181
 2388W        W65947  29.156  39.867  14.309
 2389W        W65948   8.396   7.751   3.709
 2390W        W65949  44.311  26.650   2.240
 2391W        W65950   8.187   1.372   2.269
 2392W        W65951  27.054   1.781  13.977
 2393W        W65952  31.569   1.874  12.973
 2394W        W65953  34.437  14.146   1.872
 2395W        W65954  36.543  33.120  11.491
 2396W        W65955  21.195   2.914  12.912
 2397W        W65956  24.039  38.379   1.920
 2398W        W65957   2.890  13.837  14.965
 2399W        W65958  23.677   6.231  11.888
 2400W        W65959   7.181   1.450   3.721
 2401W        W65960   0.930  14.220   4.691
 2402W        W65961   7.203  43.930   2.350
 2403W        W65962  43.890  27.450  11.395
 2404W        W65963  34.867  37.830   3.806
 2405W        W65964  23.731  44.863  12.002
 2406W        W65965  34.901  34.588   0.800
 2407W        W65966  42.394  14.195  13.006
 2408W        W65967  10.705  38.051  11.389
 2409W        W65968  31.602   2.810  14.401
 2410W        W65969   9.647  44.976   4.613
 2411W        W65970  37.015   3.753  12.048
 2412W        W65971  12.154   8.289  11.934
 2413W        W65972  28.184  33.054   1.724
 2414W        W65973   4.835  44.307  11.484
 2415W        W65974   9.252  36.883  12.921
 2416W        W65975  20.129  38.529   2.395
 2417W        W65976  34.103  18.725  12.445
 2418W        W65977  34.058  31.973  13.020
 2419W        W65978  42.897  27.114  13.951
 2420W        W65979   3.810  39.365   2.300
 2421W        W65980   4.808  41.964   0.746
 2422W        W65981  11.800  30.937   4.620
 2423W        W65982  22.228  23.499  14.365
 2424W        W65983  39.516  18.182   2.236
 2425W        W65984   4.889  19.185   4.255
 2426W        W65985  15.305  17.210   4.186
 2427W        W65986  44.457  32.122  13.313
 2428W        W65987  15.094  31.094   3.837
 2429W        W65988   0.317  44.889  13.842
 2430W        W65989  14.262   3.903   1.261
 2431W        W65990   9.816  43.383   4.806
 2432W        W65991  18.162   7.226   0.366
 2433W        W65992  31.958   8.802   2.742
 2434W        W65993  23.728   5.907   2.674
 2435W        W65994  23.570  18.580   4.225
 2436W        W65995  43.798  22.645   0.793
 2437W        W65996  19.245  12.210  10.532
 2438W        W65997   3.738   0.942  14.837
 2439W        W65998   0.799  24.007   5.322
 2440W        W65999  38.071  43.815   3.296
 2441W        W66000  30.549   8.183   0.377
 2442W        W66001  28.124  16.593  13.463
 2443W        W66002  29.940  39.527  11.582
 2444W        W66003  43.840  42.353  10.462
 2445W        W66004  34.913  11.317  14.489
 2446W        W66005  28.977  14.675   0.893
 2447W        W66006  41.471  20.561   3.809
 2448W        W66007   3.380   0.887  13.327
 2449W        W66008  12.641   0.834  10.950
 2450W        W66009   1.871  28.973  11.405
 2451W        W66010  31.054  37.975  13.448
 2452W        W66011  34.026  21.561  11.520
 2453W        W66012  34.423  35.458   1.933
 2454W        W66013  39.396   0.919   3.199
 2455W        W66014  28.577  26.179   2.798
 2456W        W66015  41.855  35.384  14.758
 2457W        W66016  13.237  17.580   4.774
 2458W        W66017  36.462   8.357  14.311
 2459W        W66018  31.116  22.231   1.361
 2460W        W66019   0.785  18.600  14.503
 2461W        W66020  42.442  40.549  11.954
 2462W        W66021  23.643  15.780  11.906
 2463W        W66022   6.399  44.928   3.308
 2464W        W66023  17.710  41.999   1.296
 2465W        W66024  23.716  13.244  13.432
 2466W        W66025   0.965  30.138  10.443
 2467W        W66026  20.705  21.692   1.249
 2468W        W66027  10.776  14.738  13.820
 2469W        W66028   6.909  44.868  12.354
 2470W        W66029   0.320   2.260  10.536
 2471W        W66030  10.342  37.834   5.243
 2472W        W66031  18.192  31.132   5.134
 2473W        W66032   2.457   4.391   1.711
 2474W        W66033  34.876  17.598  13.933
 2475W        W66034  28.013  28.095  10.906
 2476W        W66035  31.616  30.076  13.535
 2477W        W66036   5.380  34.407   2.828
 2478W        W66037   7.286   0.851   1.823
 2479W        W66038  27.545  14.834   4.808
 2480W        W66039  27.649  38.325  10.984
 2481W        W66040  20.134  41.502  14.328
 2482W        W66041  27.005   2.799  13.828
 2483W        W66042  17.159   7.212  14.383
 2484W        W66043  31.923  11.217   2.223
 2485W        W66044  17.267  33.392  10.573
 2486W        W66045  12.193  34.025   3.679
 2487W        W66046   0.414  39.367   1.291
 2488W        W66047  34.410   9.746   4.791
 2489W        W66048  23.145  44.867   3.354
 2490W        W66049  43.515  44.398  12.941
 2491W        W66050  20.225  26.548   1.717
 2492W        W66051  43.782  40.958   1.384
 2493W        W66052  38.920  31.626   1.800
 2494W        W66053   7.417  28.507  14.350
 2495W        W66054  25.159  41.469  11.918
 2496W        W66055  42.315  42.935   3.333
 2497W        W66056  17.250  43.382   1.292
 2498W        W66057  25.091  20.043  13.473
 2499W        W66058  31.405  20.694  11.919
 2500W        W66059  32.458   3.339   3.861
 2501W        W66060  35.948  37.417   3.278
 2502W        W66061   2.855   2.888   2.216
 2503W        W66062   6.694  25.139   1.891
 2504W        W66063  37.994   8.327   2.718
 2505W        W66064   6.291  43.015  13.529
 2506W        W66065  40.032  17.692   4.126
 2507W        W66066   2.281  31.061  11.044
 2508W        W66067  33.051  38.892  11.096
 2509W        W66068  14.680  35.361  14.967
 2510W        W66069   4.334   5.795  13.894
 2511W        W66070   7.262  19.090   2.813
 2512W        W66071  29.158  41.498   3.147
 2513W        W66072  28.511  40.016  10.583
 2514W        W66073   6.767   7.187   2.793
 2515W        W66074  10.370   5.922  13.411
 2516W        W66075  35.531  36.394   1.861
 2517W        W66076  21.645  13.207  11.089
 2518W        W66077  27.189   7.900  14.324
 2519W        W66078  17.729   1.302  14.803
 2520W        W66079  41.298  12.675  14.400
 2521W        W66080  40.867  14.217  14.363
 2522W        W66081  14.209  21.748   0.942
 2523W        W66082  35.043  35.445   1.415
 2524W        W66083  36.394  11.777  10.081
 2525W        W66084  32.471  34.958   0.251
 2526W        W66085  18.067  25.572   3.374
 2527W        W66086   1.898  43.965   3.696
 2528W        W66087  16.201   9.778  13.497
 2529W        W66088   7.820  41.024   0.883
 2530W        W66089  16.809  38.843   0.906
 2531W        W66090  22.159   7.376   1.730
 2532W        W66091  35.517  39.376   3.630
 2533W        W66092  40.877  25.692   1.740
 2534W        W66093  11.647   6.338   1.380
 2535W        W66094   6.717  29.508   4.741
 2536W        W66095  32.095  39.026  11.963
 2537W        W66096  30.533   5.329   4.730
 2538W        W66097   3.347  27.189  10.923
 2539W        W66098   8.172   0.420  11.061
 2540W        W66099  10.654   7.744  12.476
 2541W        W66100  15.309  38.936   2.809
 2542W        W66101  10.198  36.019   1.288
 2543W        W66102  44.820  36.360   4.830
 2544W        W66103   4.804  23.031  12.996
 2545W        W66104  41.529  40.949  11.111
 2546W        W66105  42.419  24.010  12.502
 2547W        W66106   1.252   4.899  10.422
 2548W        W66107  23.047  25.167   4.210
 2549W        W66108  43.976  28.617  11.409
 2550W        W66109   1.898  13.275  13.328
 2551W        W66110  23.703  29.964   9.440
 2552W        W66111  31.559  30.543   4.711
 2553W        W66112   3.239  27.680  14.778
 2554W        W66113  20.268  42.396  12.867
 2555W        W66114  22.230   9.708  11.463
 2556W        W66115  20.043  37.422  11.882
 2557W        W66116  31.073  36.844   3.697
 2558W        W66117   7.813  35.971  12.450
 2559W        W66118  16.662   2.243   3.736
 2560W        W66119   1.865  20.249  12.059
 2561W        W66120  40.390  32.029   2.744
 2562W        W66121  33.445  23.550  13.026
 2563W        W66122  23.122  14.765   2.417
 2564W        W66123  32.469  40.462  14.936
 2565W        W66124  29.457  40.939   2.317
 2566W        W66125  44.837  25.623   1.863
 2567W        W66126  40.983  27.605  11.426
 2568W        W66127  29.088  24.524  11.383
 2569W        W66128  39.516  40.436   0.853
 2570W        W66129  32.518  14.286  14.849
 2571W        W66130  37.897  30.128   1.270
 2572W        W66131  18.758  21.637  12.376
 2573W        W66132  34.400  17.674   4.208
 2574W        W66133   6.721  42.820   0.435
 2575W        W66134  39.910   4.205  14.401
 2576W        W66135  40.932  23.736   4.803
 2577W        W66136  43.342  29.955   0.352
 2578W        W66137  43.391  11.337   4.810
 2579W        W66138   3.853  19.214  11.432
 2580W        W66139   5.299  23.991   0.728
 2581W        W66140  15.702  38.989  11.105
 2582W        W66141  30.137   1.809   4.210
 2583W        W66142  11.255  20.594  13.467
 2584W        W66143  44.001  40.926   1.721
 2585W        W66144  24.496  33.589   4.676
 2586W        W66145  42.381  18.245  12.985
 2587W        W66146  36.935   9.780  14.436
 2588W        W66147  19.056  31.421  11.538
 2589W        W66148  21.641   6.297  13.025
 2590W        W66149  18.583  26.134  14.941
 2591W        W66150  19.050  20.717  13.518
 2592W        W66151  27.176  37.026  11.603
 2593W        W66152  30.460  12.215  10.472
 2594W        W66153  24.998  24.150   0.849
 2595W        W66154  44.906  18.086  11.417
 2596W        W66155  18.086  36.485  11.517
 2597W        W66156  40.448  22.665  13.372
 2598W        W66157  22.189   3.920   4.599
 2599W        W66158  13.698  17.137   3.222
 2600W        W66159   4.765  19.172   2.733
 2601W        W66160  13.127  10.355   2.331
 2602W        W66161  17.172  32.999   0.933
 2603W        W66162  21.059   6.245  12.377
 2604W        W66163  34.981  27.189   3.146
 2605W        W66164  35.423  14.290  11.926
 2606W        W66165  29.559  41.856   0.386
 2607W        W66166  37.538  31.598  11.520
 2608W        W66167  22.673  15.305  11.120
 2609W        W66168  19.750  30.053  13.013
 2610W        W66169  25.482  20.261  11.880
 2611W        W66170  16.186  25.025  11.405
 2612W        W66171   2.324   6.280   2.854
 2613W        W66172   7.820  27.059  11.106
 2614W        W66173   8.318  29.036   2.319
 2615W        W66174  12.313  20.105  11.085
 2616W        W66175  40.894  14.308   1.803
 2617W        W66176  35.984  28.446   4.708
 2618W        W66177  34.612  40.999   4.769
 2619W        W66178   7.242  15.115   1.897
 2620W        W66179   5.809  37.061   1.214
 2621W        W66180  22.178  22.712  13.373
 2622W        W66181   4.918  40.841  11.389
 2623W        W66182  33.010   7.906   2.366
 2624W        W66183   9.835   5.263  11.044
 2625W        W66184  24.627   3.847   4.211
 2626W        W66185  14.757  31.950   4.192
 2627W        W66186  21.068  26.983   0.857
 2628W        W66187  36.006  42.294   1.402
 2629W        W66188  17.601  34.013   3.814
 2630W        W66189  38.420  12.673  11.107
 2631W        W66190  30.487  43.793   0.927
 2632W        W66191  24.072  14.762   3.265
 2633W        W66192  32.431  42.294   4.156
 2634W        W66193   9.889  28.569   2.732
 2635W        W66194  39.457  10.223  11.121
 2636W        W66195  16.140  40.985   0.792
 2637W        W66196   4.901  16.264   2.799
 2638W        W66197   1.352  40.029  13.872
 2639W        W66198  37.523  39.443  11.064
 2640W        W66199  14.640  19.615  13.011
 2641W        W66200  15.626  40.495   3.344
 2642W        W66201  44.858  11.211  13.398
 2643W        W66202  35.558  37.062   4.188
 2644W        W66203  44.949   0.923  12.831
 2645W        W66204  37.990  17.219   0.432
 2646W        W66205  19.144  43.388  12.977
 2647W        W66206  38.980  21.133  14.310
 2648W        W66207   2.272  37.018  13.994
 2649W        W66208  35.941  41.473   2.262
 2650W        W66209  16.792   6.852   2.239
 2651W        W66210  35.560  21.229   5.089
 2652W        W66211  22.611  20.527  14.318
 2653W        W66212  37.882  18.617  12.924
 2654W        W66213  40.907  34.601   3.756
 2655W        W66214  29.661  10.656  12.848
 2656W        W66215  33.589  43.424   4.248
 2657W        W66216  33.041  10.870  14.923
 2658W        W66217  39.341   1.320   2.219
 2659W        W66218   7.320   7.901   4.778
 2660W        W66219  23.177   1.264  10.408
 2661W        W66220  11.132  40.537  13.921
 2662W        W66221  34.875  23.169   3.364
 2663W        W66222   3.357  26.007  10.427
 2664W        W66223  34.975  18.564   2.390
 2665W        W66224  31.144  17.792  13.972
 2666W        W66225   1.753  29.110  14.436
 2667W        W66226  33.475  27.592   0.282
 2668W        W66227  19.060  37.511  12.456
 2669W        W66228  28.970  28.025   2.187
 2670W        W66229  35.062  39.470   3.712
 2671W        W66230  16.269  25.644  13.836
 2672W        W66231   8.355  19.589  12.976
 2673W        W66232  10.218  10.808   2.701
 2674W        W66233  18.262   4.709  10.485
 2675W        W66234  27.658  18.594  11.886
 2676W        W66235  20.104  25.702  14.322
 2677W        W66236  31.938   0.801   0.742
 2678W        W66237  31.540   4.420  14.023
 2679W        W66238  44.285  40.540   2.876
 2680W        W66239  25.188  33.420   2.275
 2681W        W66240  35.590   1.337  13.025
 2682W        W66241  29.636  42.868  13.915
 2683W        W66242  23.202  11.136   3.766
 2684W        W66243  38.338  36.531  12.491
 2685W        W66244   7.345  32.038  10.974
 2686W        W66245  35.922  11.339  12.062
 2687W        W66246  13.184  28.002  10.477
 2688W        W66247  37.045   4.249  13.447
 2689W        W66248  16.282  33.036  11.465
 2690W        W66249  32.899  36.424  11.430
 2691W        W66250  35.565   4.741   1.747
 2692W        W66251  35.078   1.910  13.525
 2693W        W66252   0.318  43.296   3.746
 2694W        W66253  41.339  14.798  12.947
 2695W        W66254  16.761  14.738   1.797
 2696W        W66255   5.332  13.242  12.030
 2697W        W66256  35.585  11.784  13.978
 2698W        W66257  17.559  27.589  14.432
 2699W        W66258  25.217  17.139  11.478
 2700W        W66259  12.826  40.004  14.397
 2701W        W66260  44.794   3.902  14.401
 2702W        W66261   5.923  34.918  10.962
 2703W        W66262  30.527  26.201  12.037
 2704W        W66263   9.263  44.868  12.842
 2705W        W66264  27.542  16.728   2.889
 2706W        W66265   0.761  29.547   3.684
 2707W        W66266  39.477  20.609  11.099
 2708W        W66267  28.099  32.125   5.180
 2709W        W66268  28.462  11.323  12.906
 2710W        W66269   3.342  40.501  13.028
 2711W        W66270   3.817  34.014  13.441
 2712W        W66271   9.662   7.279  11.044
 2713W        W66272   2.434  28.609   2.326
 2714W        W66273  17.790  32.122   2.725
 2715W        W66274   4.938  12.337  11.868
 2716W        W66275  11.258  17.137   0.355
 2717W        W66276  38.909   6.412   3.847
 2718W        W66277  29.003  26.139  10.917
 2719W        W66278  31.403  16.250   3.186
 2720W        W66279  40.990  12.797  10.460
 2721W        W66280  15.196   0.825   4.142
 2722W        W66281  21.572  10.288   1.874
 2723W        W66282  40.013  12.274   1.374
 2724W        W66283  29.052  11.220  12.488
 2725W        W66284  36.069  30.472  12.035
 2726W        W66285   4.265  38.485  11.973
 2727W        W66286  11.825  16.758  13.838
 2728W        W66287  27.518  30.559  10.483
 2729W        W66288  16.672   4.846  12.985
 2730W        W66289  23.118  23.054  14.014
 2731W        W66290  23.611  33.528  13.854
 2732W        W66291  37.989   1.932   4.341
 2733W        W66292   4.769  19.052   3.324
 2734W        W66293  33.596   5.237   0.274
 2735W        W66294  27.588  42.854   0.896
 2736W        W66295  21.128  39.853  10.451
 2737W        W66296  29.051  30.635   0.309
 2738W        W66297  17.645  22.246   0.470
 2739W        W66298  24.171  12.348   4.682
 2740W        W66299  40.856  33.437  14.838
 2741W        W66300  29.486  39.533  12.879
 2742W        W66301  36.925  14.608   0.965
 2743W        W66302  33.961   1.961   2.418
 2744W        W66303  44.806  33.930   1.313
 2745W        W66304   9.744  23.090   2.768
 2746W        W66305  26.554  30.004   2.837
 2747W        W66306  14.224  10.649  12.035
 2748W        W66307  39.443   2.397  13.358
 2749W        W66308   5.236  16.239   4.191
 2750W        W66309  29.996  26.055   0.777
 2751W        W66310  33.894  34.982   3.714
 2752W        W66311   5.415  13.713  11.412
 2753W        W66312  14.784  18.749  11.497
 2754W        W66313  25.975  34.936   1.311
 2755W        W66314  32.050   4.930   2.791
 2756W        W66315  13.704  14.118  11.563
 2757W        W66316  19.192  25.098  12.570
 2758W        W66317   5.859  22.677  11.115
 2759W        W66318  11.323  21.076  11.446
 2760W        W66319   7.765  39.326   0.790
 2761W        W66320  36.500  12.271   2.178
 2762W        W66321  22.163  36.460   1.925
 2763W        W66322   1.942  23.238   2.320
 2764W        W66323  18.659   8.173   2.714
 2765W        W66324   1.768  16.728   2.714
 2766W        W66325   4.253  40.881   0.875
 2767W        W66326  16.089  21.142   3.369
 2768W        W66327  16.744  20.239  13.002
 2769W        W66328  13.138   6.767   3.231
 2770W        W66329  40.504  11.266   2.371
 2771W        W66330   2.449  19.535  14.972
 2772W        W66331  12.803   9.338  11.590
 2773W        W66332  38.469  43.933   1.748
 2774W        W66333  13.233  30.075   1.874
 2775W        W66334  34.457  33.000   0.943
 2776W        W66335  35.003  20.061  14.009
 2777W        W66336  40.450  40.448  14.334
 2778W        W66337  26.561  29.969  14.022
 2779W        W66338  14.775  14.105   2.340
 2780W        W66339  23.066  32.509   4.616
 2781W        W66340  36.522  14.801   1.726
 2782W        W66341  40.504   4.717   1.273
 2783W        W66342  44.357  39.862   3.821
 2784W        W66343  25.698  27.499  14.448
 2785W        W66344  42.963  13.637  13.458
 2786W        W66345  38.399  27.161   4.736
 2787W        W66346   7.287   7.726   2.726
 2788W        W66347   8.201  40.859   3.362
 2789W        W66348  40.032   7.352   0.786
 2790W        W66349  19.753  16.100  14.448
 2791W        W66350  14.696  18.621  11.124
 2792W        W66351  31.509  33.589   3.869
 2793W        W66352  43.834  12.262   4.152
 2794W        W66353  21.571  11.844  12.471
 2795W        W66354   6.234  11.695  13.451
 2796W        W66355  19.055  42.430   0.363
 2797W        W66356  12.322   3.894  13.415
 2798W        W66357  12.282   1.421  11.882
 2799W        W66358  42.371  34.392  11.515
 2800W        W66359  11.655   9.662  11.888
 2801W        W66360  18.756  40.798  14.801
 2802W        W66361   0.357  39.873   1.705
 2803W        W66362  42.388  12.721   4.698
 2804W        W66363  27.568  10.778   2.223
 2805W        W66364  11.136  17.631   2.687
 2806W        W66365  28.464  33.981  13.909
 2807W        W66366   4.716   2.743   2.720
 2808W        W66367  33.526  21.544  11.115
 2809W        W66368   4.699  10.311  11.449
 2810W        W66369   1.810  11.725   3.694
 2811W        W66370  38.545   8.741   2.682
 2812W        W66371  17.203  18.095   0.960
 2813W        W66372  44.949  10.239  12.963
 2814W        W66373  15.087  33.076  11.881
 2815W        W66374   5.379  38.503  10.629
 2816W        W66375  26.521  26.965   2.211
 2817W        W66376  30.056  35.427   4.331
 2818W        W66377   5.919  22.622  13.850
 2819W        W66378   6.194   8.755   5.098
 2820W        W66379  20.680  31.470   4.211
 2821W        W66380   2.917  10.254  11.577
 2822W        W66381   3.427  23.180   2.805
 2823W        W66382  28.055  10.869  11.439
 2824W        W66383  16.675  33.130  12.994
 2825W        W66384  35.916   4.433  14.890
 2826W        W66385  39.889  28.480  13.427
 2827W        W66386  36.857  36.049   3.729
 2828W        W66387  43.398  40.838  14.874
 2829W        W66388  41.381  36.035  10.897
 2830W        W66389   9.756  36.952   1.745
 2831W        W66390   3.906   5.368  13.034
 2832W        W66391  33.402   1.858   0.340
 2833W        W66392  37.520  16.582   0.411
 2834W        W66393  26.476  32.109  10.918
 2835W        W66394  26.980  24.159   0.958
 2836W        W66395  19.747  30.123  10.909
 2837W        W66396  37.416  26.653  13.546
 2838W        W66397   1.911  28.532  14.766
 2839W        W66398   9.364  30.912   3.768
 2840W        W66399   2.926   1.371   4.783
 2841W        W66400  28.149  37.931  12.430
 2842W        W66401  34.923   5.412  10.930
 2843W        W66402  13.654  33.388   4.701
 2844W        W66403  26.111  19.138  13.339
 2845W        W66404  37.546  12.310   1.411
 2846W        W66405  33.475  13.843   2.806
 2847W        W66406  22.718  13.773   0.242
 2848W        W66407  27.172   7.352   5.156
 2849W        W66408  22.252  39.824  13.350
 2850W        W66409  11.139  13.267  11.496
 2851W        W66410  42.326   2.796  13.965
 2852W        W66411  23.566   9.290   0.460
 2853W        W66412  43.879  12.631  13.452
 2854W        W66413  30.014  31.046   4.704
 2855W        W66414   2.918  43.891  12.488
 2856W        W66415  36.990  16.658   1.783
 2857W        W66416  29.431  11.127   0.729
 2858W        W66417  23.683  37.364  13.488
 2859W        W66418  15.744  29.129   3.847
 2860W        W66419  21.582  27.676   0.820
 2861W        W66420  35.978  32.629   2.401
 2862W        W66421  32.066  18.686  12.894
 2863W        W66422  15.773  23.166   2.842
 2864W        W66423  39.044  20.631   0.391
 2865W        W66424  12.722  38.397  14.315
 2866W        W66425   4.884   7.298   1.418
 2867W        W66426  17.609   5.218  12.539
 2868W        W66427  25.581  40.948   2.747
 2869W        W66428   8.744  20.590  12.449
 2870W        W66429  10.277   2.395   5.089
 2871W        W66430  10.304  10.728   1.215
 2872W        W66431   7.409  29.134  13.308
 2873W        W66432  18.775  18.135   0.359
 2874W        W66433   4.755  33.044   9.969
 2875W        W66434   2.299  18.050  11.973
 2876W        W66435  24.193  13.268   3.670
 2877W        W66436  28.134  29.637  12.856
 2878W        W66437   3.304   1.873  11.554
 2879W        W66438  15.693  13.248   3.734
 2880W        W66439   9.357   9.693   3.649
 2881W        W66440  14.620  38.886  13.453
 2882W        W66441  16.739  40.493  11.942
 2883W        W66442  20.525  13.801   1.900
 2884W        W66443   6.716  14.213  12.979
 2885W        W66444   3.795  10.853  14.472
 2886W        W66445  34.468  34.437   0.963
 2887W        W66446  12.811  36.468   1.356
 2888W        W66447  40.305  32.038  12.916
 2889W        W66448  36.401  35.039  14.961
 2890W        W66449  40.052  29.648   3.332
 2891W        W66450  24.708  36.989   3.286
 2892W        W66451  19.711  11.773  12.504
 2893W        W66452  18.612  43.881  14.919
 2894W        W66453  15.084  42.938   0.834
 2895W        W66454  43.824  18.104   2.722
 2896W        W66455  43.983  43.996   3.195
 2897W        W66456  44.922  14.768  13.981
 2898W        W66457  32.927  27.505  14.367
 2899W        W66458  31.973   3.324  10.955
 2900W        W66459  40.369  21.607   0.348
 2901W        W66460  40.810  20.260   1.257
 2902W        W66461  22.193  25.189  11.499
 2903W        W66462   9.209  11.198   1.831
 2904W        W66463  24.589  32.484  10.963
 2905W        W66464  44.489  15.089  11.602
 2906W        W66465   0.387  11.127   0.481
 2907W        W66466  32.440  12.215   0.450
 2908W        W66467  23.024  27.690   0.243
 2909W        W66468   9.738   3.253   3.768
 2910W        W66469  11.316  28.055   4.600
 2911W        W66470  34.377  43.022   4.715
 2912W        W66471   7.848  23.231  13.462
 2913W        W66472  39.889  42.015  11.910
 2914W        W66473  30.655  24.520  11.998
 2915W        W66474  22.064  11.253   4.251
 2916W        W66475  10.168  17.562  14.497
 2917W        W66476   1.825   9.887  11.541
 2918W        W66477  39.501  14.724   1.391
 2919W        W66478  30.054  36.525  11.112
 2920W        W66479   9.276  27.102   3.674
 2921W        W66480  16.159  42.371   4.711
 2922W        W66481  14.163  20.258  14.342
 2923W        W66482  44.262  26.137   0.805
 2924W        W66483  37.434  42.357   1.341
 2925W        W66484   6.350  30.038  13.019
 2926W        W66485   8.307  14.634   3.304
 2927W        W66486  25.623  44.477   1.751
 2928W        W66487   8.659   8.306  11.474
 2929W        W66488  34.608  19.081  13.523
 2930W        W66489  12.334  42.026   3.701
 2931W        W66490  39.520  18.248   3.381
 2932W        W66491  20.633  29.662  14.944
 2933W        W66492  33.593  26.638   4.227
 2934W        W66493  44.837  24.564  10.982
 2935W        W66494  10.837  33.489  14.291
 2936W        W66495  43.334  16.152  14.862
 2937W        W66496  21.659  37.998   4.741
 2938W        W66497  13.324  28.656   1.238
 2939W        W66498   8.317  20.688   3.358
 2940W        W66499  43.978  15.083   0.878
 2941W        W66500  22.548  20.063  11.921
 2942W        W66501   5.310  30.117   4.245
 2943W        W66502   7.846  31.475  14.513
 2944W        W66503  33.941   7.189  11.477
 2945W        W66504  30.981  32.986   1.298
 2946W        W66505   4.427   1.322   1.239
 2947W        W66506  34.005  32.411  10.930
 2948W        W66507  30.562  10.826  11.453
 2949W        W66508  21.535  23.065   4.150
 2950W        W66509  22.613  17.273   3.304
 2951W        W66510  18.158  39.558  12.991
 2952W        W66511  28.679  39.406   5.789
 2953W        W66512  30.950  28.977  10.090
 2954W        W66513   6.738  29.133  13.041
 2955W        W66514  40.925  19.072  14.325
 2956W        W66515  39.946  42.363   2.315
 2957W        W66516  42.029  43.374   2.307
 2958W        W66517   3.710   9.702   0.471
 2959W        W66518  31.907   3.843   3.217
 2960W        W66519  11.865   1.926  11.947
 2961W        W66520  29.553  38.058   0.755
 2962W        W66521  39.348   4.726  12.926
 2963W        W66522  25.684  10.356  11.862
 2964W        W66523  25.681  16.696   0.420
 2965W        W66524  10.830  39.426  11.035
 2966W        W66525  21.529  37.512  10.894
 2967W        W66526  21.144  43.950   1.934
 2968W        W66527   0.376  19.195  11.943
 2969W        W66528  36.354  39.994  13.956
 2970W        W66529  39.382   7.792  14.494
 2971W        W66530   6.356  17.085  10.613
 2972W        W66531  11.362   1.320  11.121
 2973W        W66532  29.076  22.060  11.590
 2974W        W66533  16.732  42.786   3.153
 2975W        W66534  15.250  40.802   0.243
 2976W        W66535  31.100  43.909  14.866
 2977W        W66536  30.067  17.577   3.676
 2978W        W66537  27.594  22.747  14.318
 2979W        W66538  16.651  23.576  11.463
 2980W        W66539  25.202   4.726   2.750
 2981W        W66540   4.260  34.907   2.729
 2982W        W66541  11.797  30.464  10.959
 2983W        W66542  19.092   1.329   2.688
 2984W        W66543  13.351  10.823   3.695
 2985W        W66544   9.235  41.358   1.399
 2986W        W66545   2.237  30.526  12.066
 2987W        W66546  10.783  21.621  13.522
 2988W        W66547  33.562   2.751  12.487
 2989W        W66548  11.776   3.395   3.792
 2990W        W66549  25.552  12.638   0.389
 2991W        W66550  21.639  33.083   3.202
 2992W        W66551  26.555  35.895   4.263
 2993W        W66552  33.974   8.402   3.809
 2994W        W66553  10.656  12.638   2.189
 2995W        W66554  11.366  42.417  11.977
 2996W        W66555   5.432  40.378   0.767
 2997W        W66556  41.877  36.973  14.415
 2998W        W66557  31.613  10.737   2.731
 2999W        W66558  42.797   7.779  10.540
 3000W        W66559  38.336  28.129  11.976
 3001W        W66560  25.195  17.295   4.684
 3002W        W66561   7.730  26.675  14.004
 3003W        W66562  18.729   7.184   3.165
 3004W        W66563  17.590  18.057  10.478
 3005W        W66564  15.605   2.265  14.301
 3006W        W66565   1.276   1.323   0.956
 3007W        W66566  40.314  37.524  10.954
 3008W        W66567   7.175   5.841   2.839
 3009W        W66568   3.950  31.609   0.743
 3010W        W66569  13.171  12.319   1.420
 3011W        W66570  13.675  39.011   1.307
 3012W        W66571  31.514  19.039   4.790
 3013W        W66572  15.613  20.599   3.223
 3014W        W66573  13.708  13.164   1.744
 3015W        W66574  28.020  33.446   2.704
 3016W        W66575  12.624  10.367   4.346
 3017W        W66576  42.845  33.898  10.487
 3018W        W66577  40.484  26.653   5.208
 3019W        W66578  33.382  42.863  12.021
 3020W        W66579   9.824   4.751  14.275
 3021W        W66580  31.416  37.417  14.833
 3022W        W66581  12.200  10.150  10.104
 3023W        W66582  27.610  42.399   4.217
 3024W        W66583  29.583  24.513   1.819
 3025W        W66584  31.948  22.723   4.616
 3026W        W66585  18.672   3.770  12.930
 3027W        W66586  32.945  28.048  11.092
 3028W        W66587  35.882  33.491  14.503
 3029W        W66588  41.468  15.687   1.881
 3030W        W66589  11.823  41.005  11.940
 3031W        W66590  34.550  37.393   0.370
 3032W        W66591  25.606  39.324   0.825
 3033W        W66592  25.102  35.973   1.255
 3034W        W66593  16.795  24.164   2.870
 3035W        W66594   3.920  30.966  11.552
 3036W        W66595   0.860  10.752   4.292
 3037W        W66596   9.789  26.141   2.758
 3038W        W66597  12.668  41.404   3.797
 3039W        W66598  26.578  18.547   4.731
 3040W        W66599  10.243  42.003  10.622
 3041W        W66600  32.890   8.357   2.774
 3042W        W66601  14.800  29.002  10.472
 3043W        W66602  11.263  43.764   0.882
 3044W        W66603  41.407  25.211  13.493
 3045W        W66604  15.232  26.098  10.534
 3046W        W66605  11.231  39.971  10.968
 3047W        W66606  20.584  21.539  14.369
 3048W        W66607  29.017  22.709   0.335
 3049W        W66608  24.538  31.480  14.326
 3050W        W66609  30.950  38.425  11.463
 3051W        W66610   7.735  22.008   1.437
 3052W        W66611  17.729   5.195  12.911
 3053W        W66612   6.774  16.107   2.837
 3054W        W66613  37.870  13.226  12.573
 3055W        W66614  15.276  26.071  14.390
 3056W        W66615  36.005  32.131  10.544
 3057W        W66616  10.353  21.184   1.371
 3058W        W66617  11.653  14.225   4.674
 3059W        W66618   8.900   0.272   3.321
 3060W        W66619  17.102  42.875  11.885
 3061W        W66620   1.841   1.737   4.291
 3062W        W66621   3.250   3.234  13.901
 3063W        W66622  30.616  22.741   3.694
 3064W        W66623  12.758  14.772  13.881
 3065W        W66624  21.609  26.964  13.947
 3066W        W66625   6.371  27.521  13.893
 3067W        W66626  17.122   5.363  14.375
 3068W        W66627  22.550  25.104   2.231
 3069W        W66628  37.434  27.446  13.393
 3070W        W66629  43.329   4.863  12.566
 3071W        W66630  38.411  25.588   2.789
 3072W        W66631  26.597  15.818   4.644
 3073W        W66632  25.607  16.211   1.694
 3074W        W66633  42.525   8.316   1.359
 3075W        W66634  11.320   0.768  13.367
 3076W        W66635  22.188   5.722   2.687
 3077W        W66636  12.804   8.308  14.403
 3078W        W66637  13.214   2.391   4.248
 3079W        W66638  24.556  29.606  14.005
 3080W        W66639   3.884  28.997   3.240
 3081W        W66640  24.630   9.293   0.759
 3082W        W66641  32.890  25.501  10.926
 3083W        W66642   7.253  20.706   0.940
 3084W        W66643  23.546  38.964  11.049
 3085W        W66644   7.787  37.449   4.331
 3086W        W66645  26.648  24.155   5.284
 3087W        W66646   5.898  10.764   4.259
 3088W        W66647  42.374  39.857   1.833
 3089W        W66648  37.832  41.450  12.474
 3090W        W66649  15.257  14.304   1.889
 3091W        W66650  43.769  40.030  12.371
 3092W        W66651  28.124   4.774   2.234
 3093W        W66652  41.529  28.479  13.467
 3094W        W66653  27.013  42.944  12.418
 3095W        W66654  22.744  22.570  12.339
 3096W        W66655  38.371  41.966   1.258
 3097W        W66656  19.058   9.797  11.452
 3098W        W66657  20.186   5.386   4.158
 3099W        W66658  26.626  32.900   4.237
 3100W        W66659  25.531   4.356   2.731
 3101W        W66660  31.416   6.210  12.507
 3102W        W66661  31.500  37.897  12.035
 3103W        W66662   1.285  15.765  10.133
 3104W        W66663  10.856   3.747  13.821
 3105W        W66664  42.017  21.112   9.948
 3106W        W66665  37.943  42.952  12.957
 3107W        W66666  33.401  21.520  13.935
 3108W        W66667  44.476  39.038   2.693
 3109W        W66668  33.456  20.137   0.820
 3110W        W66669   9.202  37.540   1.440
 3111W        W66670  20.266  37.954  13.533
 3112W        W66671  14.648  20.119   4.151
 3113W        W66672   9.729  19.132  13.923
 3114W        W66673  41.787   0.256  11.608
 3115W        W66674  25.643  16.172  11.879
 3116W        W66675  29.938  32.636  13.793
 3117W        W66676   0.466  19.694  13.439
 3118W        W66677   4.325  33.936  11.100
 3119W        W66678  28.646  16.775  11.939
 3120W        W66679   1.378  34.922   0.340
 3121W        W66680   8.767  12.781  12.880
 3122W        W66681  13.832   1.367   1.760
 3123W        W66682  11.265   7.675   5.213
 3124W        W66683  31.080  10.145  14.396
 3125W        W66684  26.026  14.714   4.116
 3126W        W66685  32.011   9.836  12.394
 3127W        W66686  39.464  29.106  14.861
 3128W        W66687  18.160   5.365   2.234
 3129W        W66688  25.578  11.320   3.204
 3130W        W66689  23.221   0.291   0.321
 3131W        W66690  31.005   2.726   1.808
 3132W        W66691   9.803  11.756  14.427
 3133W        W66692  31.476  19.623   0.866
 3134W        W66693  38.866   8.205  10.491
 3135W        W66694   3.414  13.729   4.647
 3136W        W66695  43.331   8.179  11.582
 3137W        W66696  42.963  38.367  11.501
 3138W        W66697  36.590  31.643  13.917
 3139W        W66698  42.815  12.122  14.396
 3140W        W66699   4.840  18.680  11.004
 3141W        W66700  26.998  32.100  12.468
 3142W        W66701  14.657  29.443  12.979
 3143W        W66702  31.491  11.788   4.206
 3144W        W66703  12.646  21.229   5.162
 3145W        W66704  22.106   2.321   2.252
 3146W        W66705  42.417  27.145   3.739
 3147W        W66706  13.335  30.002  13.045
 3148W        W66707  21.601   3.458  11.943
 3149W        W66708  27.170  36.427  11.976
 3150W        W66709   8.172  26.085  14.783
 3151W        W66710   7.370  37.524   0.301
 3152W        W66711  44.501  32.436  10.521
 3153W        W66712  20.090  37.981  10.967
 3154W        W66713   9.772  17.277   4.235
 3155W        W66714   5.335   6.864   3.276
 3156W        W66715   9.716  34.489   0.243
 3157W        W66716  34.903  43.469   2.811
 3158W        W66717  15.088  41.334   1.227
 3159W        W66718  25.986  28.585  11.876
 3160W        W66719  20.212   1.955  13.406
 3161W        W66720  30.991   5.735  12.573
 3162W        W66721  33.590  23.641   2.854
 3163W        W66722  39.453  27.057   2.677
 3164W        W66723  22.632  25.469   3.703
 3165W        W66724  11.128  34.524   0.302
 3166W        W66725  34.984  30.501  12.954
 3167W        W66726  12.643  16.128  14.951
 3168W        W66727  28.999  21.717   2.867
 3169W        W66728  41.043  33.121   1.270
 3170W        W66729   2.761  15.756  11.899
 3171W        W66730  13.604   8.835   4.737
 3172W        W66731   3.864  19.640   3.358
 3173W        W66732  11.288  16.310  13.990
 3174W        W66733  16.131  36.361   3.377
 3175W        W66734  26.505   3.921  12.979
 3176W        W66735  19.242  24.508   0.867
 3177W        W66736  23.589  31.085   3.805
 3178W        W66737  27.994  34.600  10.488
 3179W        W66738  38.909  12.639   1.757
 3180W        W66739  20.600   9.390   2.740
 3181W        W66740  26.959  31.029  12.417
 3182W        W66741  20.178  39.518  11.937
 3183W        W66742   2.748  15.328  10.550
 3184W        W66743  44.450   3.885  12.419
 3185W        W66744  34.961  34.577  10.973
 3186W        W66745   8.399  36.088   4.281
 3187W        W66746   8.717  37.437  14.961
 3188W        W66747  25.067  13.312  10.426
 3189W        W66748  14.600  14.124  11.428
 3190W        W66749  25.518  33.477  10.972
 3191W        W66750  14.321  12.696   1.860
 3192W        W66751  40.002  11.246  12.482
 3193W        W66752  39.403  40.414  12.954
 3194W        W66753   2.452   5.396   1.299
 3195W        W66754  23.505  31.102  14.946
 3196W        W66755  17.268  40.472   2.270
 3197W        W66756  41.353  30.017   4.155
 3198W        W66757  33.572  35.519  14.422
 3199W        W66758   9.716  31.613  10.593
 3200W        W66759  35.603  24.689  12.909
 3201W        W66760   6.240   9.729   1.767
 3202W        W66761   5.352   1.359  14.454
 3203W        W66762  14.103  21.202   3.165
 3204W        W66763  43.333  36.912  13.536
 3205W        W66764  36.061   3.726  11.050
 3206W        W66765   6.678   2.818  12.439
 3207W        W66766  36.923  27.976  11.464
 3208W        W66767  15.214   0.289  13.018
 3209W        W66768  36.443  31.047  14.364
 3210W        W66769  42.805   9.758   4.726
 3211W        W66770  38.402  12.845   4.662
 3212W        W66771  42.326   3.337  11.903
 3213W        W66772  25.586  30.939  14.978
 3214W        W66773   9.787  16.244   4.642
 3215W        W66774  40.343   4.854  13.443
 3216W        W66775  32.529  11.240  12.400
 3217W        W66776   9.878   9.205  13.910
 3218W        W66777   1.951  20.700  12.485
 3219W        W66778  16.102  15.632  13.477
 3220W        W66779  31.961  24.503   0.820
 3221W        W66780  22.083  40.535   2.683
 3222W        W66781   5.296  15.326  13.988
 3223W        W66782   6.401  23.526   3.734
 3224W        W66783  21.118  22.080  13.382
 3225W        W66784  33.469   2.439   1.230
 3226W        W66785  29.045  41.999   4.156
 3227W        W66786   7.864   8.222   1.860
 3228W        W66787  38.421  35.101  11.981
 3229W        W66788   8.279  21.219   3.765
 3230W        W66789  28.508  21.046  11.013
 3231W        W66790   8.258   5.265   1.375
 3232W        W66791  12.150  35.510  11.970
 3233W        W66792  22.651  30.562   1.914
 3234W        W66793   2.452  27.972   4.124
 3235W        W66794  39.816  31.126   1.879
 3236W        W66795  24.978  27.072  12.833
 3237W        W66796  37.531   7.766   0.744
 3238W        W66797  10.680  34.443  14.465
 3239W        W66798  19.759  14.777   4.819
 3240W        W66799   9.221  21.622  14.463
 3241W        W66800  41.002   8.775  12.957
 3242W        W66801  14.340  30.015  14.278
 3243W        W66802   4.904  16.085  13.350
 3244W        W66803   2.261   2.745   2.878
 3245W        W66804  28.065  11.315   3.803
 3246W        W66805  19.067  32.506  11.540
 3247W        W66806  31.512  28.559  11.115
 3248W        W66807  44.779  30.535   4.208
 3249W        W66808  11.305  39.452   0.370
 3250W        W66809  44.790  14.716   4.704
 3251W        W66810   2.798  24.717   3.176
 3252W        W66811  18.262  41.956  12.050
 3253W        W66812  34.050  17.170   4.246
 3254W        W66813   4.445  22.651   0.778
 3255W        W66814   3.409  26.558   1.765
 3256W        W66815  11.774  26.195   4.181
 3257W        W66816   6.268   3.426   4.138
 3258W        W66817  11.790  14.236   1.781
 3259W        W66818  21.259  18.770  13.353
 3260W        W66819  37.960  29.052  13.459
 3261W        W66820  35.873  35.550  11.407
 3262W        W66821  29.486  40.030   5.109
 3263W        W66822  17.079   3.368   1.321
 3264W        W66823  29.957  35.363  10.629
 3265W        W66824   4.878  24.208  12.972
 3266W        W66825  26.061  15.252   4.269
 3267W        W66826  23.010  25.145   0.356
 3268W        W66827   6.334  21.110   3.816
 3269W        W66828  22.671  17.634   4.616
 3270W        W66829  29.157  24.170   4.176
 3271W        W66830   4.945  23.997  12.349
 3272W        W66831  36.445  44.992   0.772
 3273W        W66832  11.626  36.921  14.909
 3274W        W66833  12.160  38.008  11.472
 3275W        W66834  10.273  25.193   9.941
 3276W        W66835  41.435  17.801   2.415
 3277W        W66836  24.108  35.885   0.887
 3278W        W66837  20.719  23.608   1.718
 3279W        W66838  10.154  17.117   5.288
 3280W        W66839  30.096   0.470  14.440
 3281W        W66840  29.465   9.269  10.613
 3282W        W66841   6.694  35.087   4.250
 3283W        W66842  24.652   6.746   3.787
 3284W        W66843  15.796  42.306   2.229
 3285W        W66844  25.614  17.128  13.988
 3286W        W66845  36.851  17.677   3.865
 3287W        W66846  19.177  35.047  13.408
 3288W        W66847   6.752  40.892  13.372
 3289W        W66848  36.580  33.950   2.758
 3290W        W66849  35.935   5.717   2.888
 3291W        W66850  25.094  22.604   3.780
 3292W        W66851  20.060   0.943  11.495
 3293W        W66852  32.514  12.819  14.381
 3294W        W66853  26.491  33.557   4.613
 3295W        W66854  22.551  19.744   1.398
 3296W        W66855  41.829  13.330  11.892
 3297W        W66856  28.002  43.409   0.815
 3298W        W66857   0.957  26.629  13.043
 3299W        W66858  14.197   4.925   0.361
 3300W        W66859  38.542  24.508   4.169
 3301W        W66860  13.165  15.596  14.429
 3302W        W66861  13.803   5.407   1.902
 3303W        W66862  22.557   7.218  10.580
 3304W        W66863  39.038  33.946   3.346
 3305W        W66864  41.034  26.199  11.491
 3306W        W66865  21.232   5.396   1.431
 3307W        W66866  38.454  23.646   4.657
 3308W        W66867  11.791  12.829  11.889
 3309W        W66868  29.960  19.062   1.816
 3310W        W66869  12.655  43.503  12.070
 3311W        W66870  21.213  18.052  12.485
 3312W        W66871  10.835  27.134  12.408
 3313W        W66872  12.322  35.031   3.233
 3314W        W66873  13.718  15.161   1.871
 3315W        W66874  39.058   2.347   0.301
 3316W        W66875  11.218  26.039   2.685
 3317W        W66876  12.251  14.829   5.096
 3318W        W66877  13.606   2.254  14.004
 3319W        W66878  33.565  37.386  11.948
 3320W        W66879  22.509  12.666   1.719
 3321W        W66880  34.924  25.681   0.478
 3322W        W66881  43.943  28.573  12.412
 3323W        W66882  32.456  17.258   1.264
 3324W        W66883  15.704  39.941  14.322
 3325W        W66884  22.231   5.716   0.468
 3326W        W66885   1.461  38.343   1.889
 3327W        W66886  43.864  24.596   1.899
 3328W        W66887  23.074  33.048   0.373
 3329W        W66888  26.480   7.253  10.543
 3330W        W66889  24.512  44.889  13.520
 3331W        W66890  33.501  16.674   0.443
 3332W        W66891  44.837   6.413   1.396
 3333W        W66892  11.642  33.475  14.407
 3334W        W66893  39.314   3.908   1.412
 3335W        W66894  21.715  31.956   3.236
 3336W        W66895  15.603   4.312  13.003
 3337W        W66896  37.578  11.150   4.640
 3338W        W66897   1.262  22.088  14.908
 3339W        W66898  27.075  17.067   1.907
 3340W        W66899  42.884  20.686   1.286
 3341W        W66900  37.986  25.011   5.102
 3342W        W66901   1.771  39.873   2.302
 3343W        W66902  29.452  31.447  12.872
 3344W        W66903  41.452  13.223   2.878
 3345W        W66904  35.033  12.161   3.656
 3346W        W66905  39.511  26.599   2.216
 3347W        W66906  43.437  12.156   2.847
 3348W        W66907  17.771  19.170   3.779
 3349W        W66908   0.753   4.872  14.827
 3350W        W66909   3.778  17.074  14.928
 3351W        W66910   9.885  31.526  14.311
 3352W        W66911  35.998  25.641   4.679
 3353W        W66912  34.425  17.802   2.670
 3354W        W66913  10.183  26.967  12.388
 3355W        W66914  33.561  11.689   3.218
 3356W        W66915  13.794  18.734   1.790
 3357W        W66916  31.083  44.374   1.746
 3358W        W66917  23.633  33.985  14.942
 3359W        W66918  12.849  32.469   2.184
 3360W        W66919  20.267  19.177  13.895
 3361W        W66920   0.909   4.830  12.014
 3362W        W66921   0.848  33.558  14.874
 3363W        W66922  23.721   8.271   1.850
 3364W        W66923  19.053  25.531   3.161
 3365W        W66924  35.963   3.713  11.521
 3366W        W66925   2.460  44.808   0.364
 3367W        W66926  18.619  24.590  11.986
 3368W        W66927  41.511   2.947   4.688
 3369W        W66928  18.091  12.321  11.506
 3370W        W66929  15.815  33.391   5.246
 3371W        W66930  34.500  20.525   0.348
 3372W        W66931  25.129   7.200  13.420
 3373W        W66932  41.371  23.655   2.330
 3374W        W66933  17.125  21.588  14.312
 3375W        W66934   6.372   5.200  11.983
 3376W        W66935  26.043   3.894   0.333
 3377W        W66936  27.550   5.842  10.986
 3378W        W66937  12.125  43.776  10.635
 3379W        W66938  33.599  15.803   2.678
 3380W        W66939  43.313  23.572   4.271
 3381W        W66940  25.684  12.347   5.653
 3382W        W66941  26.064  30.461  13.525
 3383W        W66942  12.823  10.346  12.893
 3384W        W66943   3.743  25.018   2.724
 3385W        W66944   3.429  23.658  14.787
 3386W        W66945   3.368  31.068   2.220
 3387W        W66946  20.115  42.318   4.153
 3388W        W66947  37.868  39.537  10.437
 3389W        W66948  41.347  38.328  10.512
 3390W        W66949  26.457  17.109   2.696
 3391W        W66950  26.204  39.400  14.958
 3392W        W66951   5.696  44.969   3.831
 3393W        W66952  25.087  16.701  13.328
 3394W        W66953  18.754  13.681  10.643
 3395W        W66954  15.268  35.421  11.043
 3396W        W66955   2.819  19.548   2.780
 3397W        W66956  19.067  40.970   1.818
 3398W        W66957  25.166  27.545   1.359
 3399W        W66958  34.472  27.997  12.552
 3400W        W66959  31.026  37.535   3.337
 3401W        W66960  29.528  12.734   0.915
 3402W        W66961  14.799   0.899  13.544
 3403W        W66962  10.280  35.570   2.188
 3404W        W66963  11.693  25.528  12.857
 3405W        W66964  27.615   3.921  10.473
 3406W        W66965   0.348  40.873   3.674
 3407W        W66966   7.411   6.203   4.235
 3408W        W66967  39.888  27.073   2.414
 3409W        W66968  33.427  35.473   3.324
 3410W        W66969  31.585  25.590   3.827
 3411W        W66970  20.752  15.812   4.647
 3412W        W66971  26.594  30.463  10.026
 3413W        W66972  39.407  10.275   1.704
 3414W        W66973  29.458  16.604   0.399
 3415W        W66974   2.341  38.901   9.978
 3416W        W66975  28.551  36.005  12.877
 3417W        W66976  33.970  31.007   2.813
 3418W        W66977  30.149  17.698  14.001
 3419W        W66978  36.474   1.740   9.963
 3420W        W66979  27.501   5.299  11.404
 3421W        W66980  35.028  26.555   3.694
 3422W        W66981   2.457   8.843   1.825
 3423W        W66982  29.521  12.250  11.072
 3424W        W66983  33.579  12.217  11.102
 3425W        W66984   5.382  30.528  12.463
 3426W        W66985  27.689  17.098  12.903
 3427W        W66986  27.568  28.554   2.742
 3428W        W66987  24.480  19.647  14.423
 3429W        W66988  35.383  20.199   3.759
 3430W        W66989  10.217  29.584  14.777
 3431W        W66990  21.194  16.573   1.879
 3432W        W66991  29.049  18.677   2.330
 3433W        W66992  33.981  34.576   1.922
 3434W        W66993  18.714  28.653  13.815
 3435W        W66994  28.164  15.677   4.690
 3436W        W66995  33.465  24.515  13.920
 3437W        W66996   0.893  40.308  13.999
 3438W        W66997  28.130   3.254  12.900
 3439W        W66998  21.063  43.302   4.206
 3440W        W66999   5.872  38.401  10.930
 3441W        W67000   8.897   0.855   0.767
 3442W        W67001  31.059  13.659  13.899
 3443W        W67002  24.109  33.117   2.405
 3444W        W67003  22.714  28.459   1.869
 3445W        W67004  27.070   7.285   0.878
 3446W        W67005  38.370  17.792  14.995
 3447W        W67006  28.167  31.064   3.817
 3448W        W67007   4.881  14.736   3.357
 3449W        W67008  40.508  26.649  12.476
 3450W        W67009  25.018  21.080  13.883
 3451W        W67010   7.240   4.945  14.983
 3452W        W67011  20.655   5.285  10.432
 3453W        W67012  28.610   7.318   3.210
 3454W        W67013  23.121  18.657   0.293
 3455W        W67014  44.403   2.878   3.855
 3456W        W67015   0.899  42.502  13.859
 3457W        W67016  37.031  10.217  12.449
 3458W        W67017  27.952   1.339  14.031
 3459W        W67018  32.564  42.967   0.299
 3460W        W67019  20.719  25.629   3.377
 3461W        W67020  30.983  33.925  14.337
 3462W        W67021  18.763  22.663  12.514
 3463W        W67022  21.569   1.338   3.755
 3464W        W67023  34.906  21.521   1.368
 3465W        W67024   7.226  16.122   4.244
 3466W        W67025   6.182  39.545  11.944
 3467W        W67026  27.095  25.535   0.452
 3468W        W67027   0.328  14.182  14.322
 3469W        W67028  30.510  35.379  12.870
 3470W        W67029  17.230  40.306  10.603
 3471W        W67030  42.302  10.778  14.991
 3472W        W67031  30.618  11.770   4.639
 3473W        W67032   8.284  38.419   0.775
 3474W        W67033  33.032  31.013  10.606
 3475W        W67034   8.835  35.399   9.949
 3476W        W67035  25.155  18.753   3.254
 3477W        W67036  26.558  12.849   4.766
 3478W        W67037  23.683  13.179   4.674
 3479W        W67038   5.823  27.184  11.594
 3480W        W67039  42.865   7.388  11.426
 3481W        W67040   8.900  27.483  11.980
 3482W        W67041  27.020  27.606   1.777
 3483W        W67042  32.960  17.197   1.914
 3484W        W67043  26.071  28.986   2.413
 3485W        W67044  15.304  39.843  11.478
 3486W        W67045   8.736  30.600  12.513
 3487W        W67046  21.694  38.877   4.163
 3488W        W67047  27.956  24.164   2.302
 3489W        W67048  29.113  39.942  12.426
 3490W        W67049  12.693  20.055   3.371
 3491W        W67050   3.882  31.458  10.595
 3492W        W67051  19.624  32.977  13.381
 3493W        W67052  44.326   8.797   3.785
 3494W        W67053   0.970  14.705   0.470
 3495W        W67054   5.844  17.106  12.887
 3496W        W67055   2.339   2.363  11.047
 3497W        W67056   9.784  32.618  11.457
 3498W        W67057  24.221   9.674  12.962
 3499W        W67058   1.944  37.456  13.474
 3500W        W67059  15.702  12.625   0.348
 3501W        W67060   5.876  33.437   3.184
 3502W        W67061  12.796  28.500   0.861
 3503W        W67062  13.705  20.273  13.902
 3504W        W67063  42.812  22.019   4.804
 3505W        W67064  15.104  26.695   1.281
 3506W        W67065   3.448  18.072   4.606
 3507W        W67066   8.368  21.552  10.605
 3508W        W67067  34.414  42.349   3.722
 3509W        W67068  36.074  24.622  11.932
 3510W        W67069  42.010   9.648   4.827
 3511W        W67070   1.735  29.025  13.989
 3512W        W67071  19.091  17.756  12.824
 3513W        W67072  33.101  42.368  14.763
 3514W        W67073  26.970  38.849  12.848
 3515W        W67074  24.563   4.292  12.857
 3516W        W67075   1.297  28.591  14.824
 3517W        W67076  23.044  10.380   3.638
 3518W        W67077  22.226  28.047   3.698
 3519W        W67078  26.066  38.388   3.183
 3520W        W67079  35.104  15.306  11.425
 3521W        W67080  35.958  41.466  13.834
 3522W        W67081  35.982  40.050  13.965
 3523W        W67082   3.434  26.568  13.369
 3524W        W67083  25.547  13.323   3.304
 3525W        W67084  37.918  44.846   4.134
 3526W        W67085  19.147  27.195  11.476
 3527W        W67086  36.029   7.789  14.863
 3528W        W67087  22.584  25.653   2.284
 3529W        W67088   9.347  22.033   4.225
 3530W        W67089  17.751   5.356   3.241
 3531W        W67090  43.839   8.782  10.416
 3532W        W67091  30.599  39.041   3.764
 3533W        W67092   4.754  17.224   4.295
 3534W        W67093  41.476  28.150   2.245
 3535W        W67094  10.215   5.372   2.247
 3536W        W67095  38.400   1.238  11.582
 3537W        W67096  23.989  22.028   3.221
 3538W        W67097  14.658   5.200  11.932
 3539W        W67098   6.773  11.346  10.481
 3540W        W67099  12.709  18.248  14.305
 3541W        W67100  36.085  44.348  12.392
 3542W        W67101  31.532  38.928   3.690
 3543W        W67102   6.856  24.565   2.716
 3544W        W67103   6.299  42.354   1.911
 3545W        W67104  25.649  14.305  10.583
 3546W        W67105  35.920  19.132  12.435
 3547W        W67106  19.217  38.369  12.066
 3548W        W67107  20.704  11.646   3.270
 3549W        W67108  13.318  20.544  14.462
 3550W        W67109  38.048  22.549   0.349
 3551W        W67110   5.898   6.877   0.358
 3552W        W67111  37.069   1.465  13.541
 3553W        W67112  41.334  30.455   3.632
 3554W        W67113  29.969  14.598  13.435
 3555W        W67114  40.315  17.066   3.159
 3556W        W67115   8.787   5.244   0.776
 3557W        W67116  24.032   4.310   4.799
 3558W        W67117   4.231  42.499   4.660
 3559W        W67118   0.472  37.550  13.834
 3560W        W67119  13.622  27.157   3.169
 3561W        W67120  36.507   1.366   2.860
 3562W        W67121  22.584  20.168   2.784
 3563W        W67122  36.865   6.835   2.221
 3564W        W67123   2.923  31.471   0.375
 3565W        W67124  13.784  10.803   1.388
 3566W        W67125   7.333  40.495   0.777
 3567W        W67126   6.781   3.369   4.628
 3568W        W67127  24.493  14.626  13.916
 3569W        W67128   6.220  18.705   0.391
 3570W        W67129  27.492  13.271  11.512
 3571W        W67130  37.900  16.640   0.906
 3572W        W67131  25.512   4.787  12.084
 3573W        W67132  32.596  29.001   4.127
 3574W        W67133   5.277  17.080   4.131
 3575W        W67134  30.079   8.853   0.389
 3576W        W67135  40.360  43.779  11.116
 3577W        W67136  19.091   0.870  11.880
 3578W        W67137   1.752  26.651   0.263
 3579W        W67138  32.442  10.346  11.940
 3580W        W67139  13.235  39.894  14.405
 3581W        W67140  20.616  27.953  14.787
 3582W        W67141  31.908   2.839  11.025
 3583W        W67142   6.700  11.279  12.973
 3584W        W67143  31.590  42.978   4.834
 3585W        W67144  36.907  22.197   2.211
 3586W        W67145  17.183   0.253   0.314
 3587W        W67146  12.292  37.544  13.058
 3588W        W67147  30.425   6.332  13.345
 3589W        W67148   6.862  12.840  13.344
 3590W        W67149  41.420  12.784   2.717
 3591W        W67150  15.820  43.492  11.612
 3592W        W67151  40.036  27.054  12.520
 3593W        W67152   7.201   2.302  14.431
 3594W        W67153  42.434  19.638   0.441
 3595W        W67154   5.857  18.782  13.482
 3596W        W67155  34.592   8.352  11.562
 3597W        W67156   6.253  41.001  11.103
 3598W        W67157  24.641   0.316   1.297
 3599W        W67158  27.990  13.337   2.406
 3600W        W67159  40.484   6.280  12.920
 3601W        W67160   4.294  42.450  11.978
 3602W        W67161  42.347  25.151   2.381
 3603W        W67162  43.936  24.982   4.832
 3604W        W67163   4.807  17.071   2.308
 3605W        W67164  27.536  30.519   3.223
 3606W        W67165  20.648  25.559   4.166
 3607W        W67166   1.870  12.348   0.272
 3608W        W67167  14.779   6.880  13.025
 3609W        W67168  13.665  24.171  11.580
 3610W        W67169  16.752  20.033   3.791
 3611W        W67170  21.639  41.036  13.515
 3612W        W67171  21.257  11.228   0.960
 3613W        W67172  20.672  15.232  13.433
 3614W        W67173  12.321  33.509  11.969
 3615W        W67174   9.238  32.636  12.850
 3616W        W67175  34.997  38.970  14.993
 3617W        W67176  26.515  39.427   0.960
 3618W        W67177  15.579  21.732   3.643
 3619W        W67178  27.159  14.675   1.719
 3620W        W67179  44.372   2.457   3.812
 3621W        W67180  21.623  14.209  11.009
 3622W        W67181   1.399   8.353  14.393
 3623W        W67182  40.870  28.182  13.007
 3624W        W67183  30.016  10.178  14.504
 3625W        W67184  25.552  42.853   9.947
 3626W        W67185  25.013  24.525   9.576
 3627W        W67186  16.692  42.010   1.355
 3628W        W67187  32.938  13.171   3.202
 3629W        W67188  40.388  21.194  13.360
 3630W        W67189   7.824  23.654  13.036
 3631W        W67190   4.881  19.581  11.373
 3632W        W67191  27.132  43.274  13.534
 3633W        W67192  34.462  40.428   9.456
 3634W        W67193  27.451   1.390   0.335
 3635W        W67194  16.787  30.131  13.960
 3636W        W67195  12.638  33.488  11.460
 3637W        W67196  14.799  31.600  14.289
 3638W        W67197  17.221  23.063   0.393
 3639W        W67198  14.593  37.450  11.958
 3640W        W67199  43.447  30.925   1.407
 3641W        W67200  19.731  33.942   2.340
 3642W        W67201  42.286  14.254   1.383
 3643W        W67202  41.801  21.642  11.001
 3644W        W67203   8.333  15.711   2.383
 3645W        W67204  21.188   5.411   4.163
 3646W        W67205  33.886   7.679  11.115
 3647W        W67206   1.249  31.994   2.828
 3648W        W67207  41.796  33.949   4.309
 3649W        W67208  33.956   8.674  11.117
 3650W        W67209  33.540  35.042   0.851
 3651W        W67210  16.774   7.416  10.477
 3652W        W67211   7.683  26.476  11.896
 3653W        W67212  15.095  22.208  14.311
 3654W        W67213  37.472   7.754   3.735
 3655W        W67214  20.526  13.736  11.868
 3656W        W67215  27.664  27.153   4.317
 3657W        W67216  16.109  30.547  13.334
 3658W        W67217   0.775  10.142   9.996
 3659W        W67218  22.183  34.892   0.474
 3660W        W67219  21.697  13.185   1.787
 3661W        W67220  44.292  13.232  11.106
 3662W        W67221  19.075  13.264  10.587
 3663W        W67222  25.077  20.710  12.561
 3664W        W67223  23.575  18.251  11.915
 3665W        W67224  39.333  12.643  13.050
 3666W        W67225  23.536   6.678  11.025
 3667W        W67226  14.695  13.264   4.755
 3668W        W67227  18.146  28.997   0.727
 3669W        W67228   6.211  33.904   4.114
 3670W        W67229  22.038  42.409  10.916
 3671W        W67230  38.341  10.670  10.918
 3672W        W67231  29.563   1.959   3.343
 3673W        W67232  14.669  39.020   0.904
 3674W        W67233  41.902  41.822   3.800
 3675W        W67234  43.375  15.235   4.178
 3676W        W67235   0.377  26.526  13.946
 3677W        W67236  40.961  32.097   9.942
 3678W        W67237  23.222  27.503   1.886
 3679W        W67238  42.460  10.863   0.955
 3680W        W67239  17.073  39.423  10.448
 3681W        W67240   6.723  31.497  11.579
 3682W        W67241   3.320   0.838  10.595
 3683W        W67242  31.067  26.970   3.687
 3684W        W67243  39.956  37.407  14.328
 3685W        W67244   7.780  33.979   1.873
 3686W        W67245   4.368  22.094   3.799
 3687W        W67246  22.666   1.787   4.644
 3688W        W67247  24.568  16.625   2.678
 3689W        W67248   3.850  40.341   0.766
 3690W        W67249   6.341  22.114   4.711
 3691W        W67250  44.385  14.230  12.950
 3692W        W67251  19.204  26.971   2.406
 3693W        W67252  12.711   9.333   2.376
 3694W        W67253  31.555   0.447  10.948
 3695W        W67254  23.234   7.345   1.843
 3696W        W67255  39.852  39.377   1.751
 3697W        W67256   3.440  12.356   1.863
 3698W        W67257  10.848   8.890  10.643
 3699W        W67258   9.322  39.001   2.822
 3700W        W67259  14.205  30.549   2.875
 3701W        W67260  26.603  30.998   3.830
 3702W        W67261  25.602   0.982  10.111
 3703W        W67262  26.576  19.779  13.339
 3704W        W67263  18.077   0.287  14.458
 3705W        W67264  14.621  37.851  13.320
 3706W        W67265  34.384   7.872   3.237
 3707W        W67266  18.715  26.134   2.206
 3708W        W67267  42.851  27.482   1.703
 3709W        W67268  36.530  36.944   1.229
 3710W        W67269  34.945  17.666  11.874
 3711W        W67270   2.924  43.953  10.498
 3712W        W67271  26.198  44.795  14.975
 3713W        W67272   4.774  32.011  13.372
 3714W        W67273  25.557   5.873  13.873
 3715W        W67274  24.533   8.290   4.142
 3716W        W67275  18.594   1.784  12.002
 3717W        W67276   0.491  17.077  14.975
 3718W        W67277  28.047  42.863  11.118
 3719W        W67278  11.794  40.472   9.989
 3720W        W67279   9.179  44.378  14.025
 3721W        W67280  24.643   0.436  14.862
 3722W        W67281  21.540   7.759  13.514
 3723W        W67282  38.349  30.550   0.944
 3724W        W67283  25.211  30.606  10.583
 3725W        W67284  40.418   8.234  11.901
 3726W        W67285  17.567  20.062  13.852
 3727W        W67286   1.373  31.611  10.453
 3728W        W67287  14.743   9.195  10.988
 3729W        W67288   9.754   6.711   1.328
 3730W        W67289  22.201   4.897  11.460
 3731W        W67290  27.616  16.232  14.992
 3732W        W67291  25.208  38.858  11.444
 3733W        W67292  18.632  36.475  12.835
 3734W        W67293  24.558   7.266  12.074
 3735W        W67294   4.863  18.695  13.929
 3736W        W67295  16.239  37.459  11.612
 3737W        W67296  35.556  15.628  10.576
 3738W        W67297  14.616  21.647  13.960
 3739W        W67298  10.328  22.616   4.687
 3740W        W67299  18.715  41.446   4.833
 3741W        W67300  16.117  44.476  13.358
 3742W        W67301  40.491  38.365  13.506
 3743W        W67302  41.877   6.699   4.115
 3744W        W67303  37.886   4.231   1.444
 3745W        W67304  37.577  23.602   3.375
 3746W        W67305  39.544  36.512   2.760
 3747W        W67306  13.135  37.571  10.983
 3748W        W67307  40.448  26.002   1.390
 3749W        W67308  30.956  17.071  11.882
 3750W        W67309  43.942  17.615  14.801
 3751W        W67310   2.793  32.440   4.140
 3752W        W67311  23.048   1.264  13.999
 3753W        W67312  24.037  24.096  14.815
 3754W        W67313  35.367  27.542   3.767
 3755W        W67314  40.808  16.113  12.432
 3756W        W67315   2.745  10.755  11.878
 3757W        W67316   7.869  42.874   0.319
 3758W        W67317   4.387  13.160   2.409
 3759W        W67318  26.531  32.015   2.180
 3760W        W67319   8.377   4.920  12.464
 3761W        W67320  23.990   7.383  10.958
 3762W        W67321   9.196  44.396   3.740
 3763W        W67322  13.136  38.565  11.893
 3764W        W67323   2.427  17.228  10.627
 3765W        W67324  14.764  14.118  12.433
 3766W        W67325   1.250  26.515   1.735
 3767W        W67326  34.496   2.771   3.693
 3768W        W67327  26.486  39.898   4.257
 3769W        W67328  43.343   3.954  10.531
 3770W        W67329  13.779  16.796  11.991
 3771W        W67330  26.572   5.824  14.419
 3772W        W67331  22.085   4.752   1.414
 3773W        W67332  44.915  31.044   3.735
 3774W        W67333  18.255  10.351  10.588
 3775W        W67334  24.616  33.430   0.304
 3776W        W67335  26.660   5.277   4.145
 3777W        W67336  24.197  20.704   3.270
 3778W        W67337  27.116  14.710  14.291
 3779W        W67338  35.590  15.735   4.223
 3780W        W67339  35.071  13.274  11.949
 3781W        W67340  31.600  41.901   9.963
 3782W        W67341  14.126  18.156   4.728
 3783W        W67342  13.191   6.421   1.356
 3784W        W67343   9.678  30.077   4.165
 3785W        W67344  14.709  36.461  14.917
 3786W        W67345  41.296  30.554   2.316
 3787W        W67346   1.445  34.557   3.154
 3788W        W67347  26.020  30.471   2.811
 3789W        W67348  14.618  22.251  10.506
 3790W        W67349   1.916  25.489  10.985
 3791W        W67350  22.537  34.488  10.554
 3792W        W67351  14.633  20.549   2.265
 3793W        W67352  32.513  27.502   1.836
 3794W        W67353  23.687  35.874  11.534
 3795W        W67354  34.944  41.871   4.750
 3796W        W67355  40.477  25.066   1.901
 3797W        W67356   8.683  24.117  13.876
 3798W        W67357  34.923  32.414   5.295
 3799W        W67358  11.351  29.643   2.814
 3800W        W67359  10.649  20.575   1.313
 3801W        W67360  43.404  12.272  13.038
 3802W        W67361   0.375  23.010  11.466
 3803W        W67362   6.683  11.780   2.866
 3804W        W67363  23.012   3.780  13.341
 3805W        W67364  11.809  37.965  11.081
 3806W        W67365  39.326  32.495  14.842
 3807W        W67366  23.601  15.213   3.248
 3808W        W67367  36.916  29.956   2.356
 3809W        W67368  39.950   2.841   0.801
 3810W        W67369  39.004  24.705  11.989
 3811W        W67370  37.080  30.146  13.371
 3812W        W67371  12.725  27.630  10.605
 3813W        W67372   4.825  19.282   1.753
 3814W        W67373  22.088  33.484  11.114
 3815W        W67374  25.700  17.149   0.784
 3816W        W67375  32.091  43.386   0.885
 3817W        W67376  27.991   2.882  11.596
 3818W        W67377  38.059  25.209   4.204
 3819W        W67378  16.285  20.641  13.438
 3820W        W67379   3.436   8.183  14.869
 3821W        W67380  35.387  23.154   3.357
 3822W        W67381   9.667  30.590  11.392
 3823W        W67382  32.073  27.973   3.752
 3824W        W67383  12.790  31.098   4.613
 3825W        W67384  34.581  13.293   0.310
 3826W        W67385  12.213  34.480  12.975
 3827W        W67386  20.206  29.170   2.260
 3828W        W67387  40.034  15.690   0.287
 3829W        W67388   6.228  16.116  13.893
 3830W        W67389  32.553   3.755   0.928
 3831W        W67390  31.092   2.447  12.400
 3832W        W67391  26.172  40.532  11.373
 3833W        W67392  22.673   7.295   0.430
 3834W        W67393  13.751  17.778   3.632
 3835W        W67394  24.190  26.506   4.300
 3836W        W67395  40.962  19.594  12.342
 3837W        W67396  28.081  20.188   3.727
 3838W        W67397   4.288  26.501   0.859
 3839W        W67398   2.893  33.587  11.923
 3840W        W67399  31.007  27.044  12.561
 3841W        W67400   0.745  15.263  12.524
 3842W        W67401  27.955  14.108   1.357
 3843W        W67402  23.085   8.865  12.345
 3844W        W67403   5.802  40.049  11.527
 3845W        W67404  32.062  32.435   3.656
 3846W        W67405  31.450  39.831  14.027
 3847W        W67406  13.298  28.098  11.558
 3848W        W67407  10.665  37.869  12.890
 3849W        W67408  36.967  30.649   0.921
 3850W        W67409  29.582  18.055  10.917
 3851W        W67410  18.694   8.242   3.293
 3852W        W67411   3.244  19.065   4.221
 3853W        W67412  41.935   2.313   2.363
 3854W        W67413  12.322  36.844   0.445
 3855W        W67414  14.708  12.753  11.005
 3856W        W67415   5.228  37.066  11.083
 3857W        W67416   1.963  30.039   0.285
 3858W        W67417   5.827  24.064   0.806
 3859W        W67418  31.099  16.111   3.366
 3860W        W67419   5.768  16.115  13.818
 3861W        W67420  12.761   9.307   4.802
 3862W        W67421  31.141  40.937   0.772
 3863W        W67422  20.227   6.198  13.479
 3864W        W67423   2.856  28.157   1.396
 3865W        W67424  19.182   6.394   1.773
 3866W        W67425   5.928  28.003   3.800
 3867W        W67426  10.273   1.366  10.599
 3868W        W67427  29.467  19.248   3.706
 3869W        W67428  42.920  29.561  11.002
 3870W        W67429  14.156  23.985   0.965
 3871W        W67430  26.071  27.611  11.910
 3872W        W67431   3.804   3.394  14.867
 3873W        W67432  38.035  41.961  10.430
 3874W        W67433  40.454  39.061   2.355
 3875W        W67434   7.401   4.789  14.329
 3876W        W67435  24.982  14.323   1.449
 3877W        W67436  35.065  17.664  11.036
 3878W        W67437   1.393  16.667  10.619
 3879W        W67438  41.476   7.263   1.793
 3880W        W67439  13.683  37.841   0.763
 3881W        W67440  32.047  41.363   1.295
 3882W        W67441  34.905  31.528   0.296
 3883W        W67442  34.425  14.628   2.396
 3884W        W67443  33.541   3.800   2.384
 3885W        W67444   7.910  38.551  12.896
 3886W        W67445  29.041   2.848   2.702
 3887W        W67446  42.843  39.827  11.514
 3888W        W67447  42.527  38.410  11.526
 3889W        W67448  22.040  10.830   4.255
 3890W        W67449  14.760  14.251  12.941
 3891W        W67450   4.209   2.878   4.134
 3892W        W67451   3.833  17.087  10.932
 3893W        W67452   3.338  40.414   1.332
 3894W        W67453  13.638  33.040  12.052
 3895W        W67454  37.347  44.358  11.443
 3896W        W67455   9.291   5.725   4.140
 3897W        W67456  34.613   5.377   1.906
 3898W        W67457  44.991   1.456   3.220
 3899W        W67458  37.072   2.861   4.288
 3900W        W67459   7.668  36.054   5.185
 3901W        W67460  23.537  32.908  13.414
 3902W        W67461  38.913  33.911  13.452
 3903W        W67462  26.134  27.486   0.363
 3904W        W67463   6.832   5.375   3.287
 3905W        W67464  31.984  21.178   1.443
 3906W        W67465  19.718  40.811   1.364
 3907W        W67466   7.824  19.591   2.216
 3908W        W67467  10.306  10.669   1.780
 3909W        W67468  14.821  29.581  14.902
 3910W        W67469  39.906  37.550   0.729
 3911W        W67470  25.609  42.886   0.931
 3912W        W67471  31.926  13.795  12.375
 3913W        W67472  24.697   9.333  13.309
 3914W        W67473  27.457  34.433   3.814
 3915W        W67474   9.381  15.713  12.830
 3916W        W67475  23.024  19.064   4.338
 3917W        W67476  38.064   8.297   3.334
 3918W        W67477  42.424  37.887  14.019
 3919W        W67478  29.162  33.620  13.023
 3920W        W67479  25.608  17.094   4.639
 3921W        W67480  27.102   5.778  13.812
 3922W        W67481  34.881   6.387  14.942
 3923W        W67482  15.267  38.522   2.271
 3924W        W67483  42.313   0.291   2.361
 3925W        W67484   4.719   9.872  13.791
 3926W        W67485  14.250  28.965  12.095
 3927W        W67486  39.444  32.413   2.804
 3928W        W67487   5.884  16.223   3.807
 3929W        W67488   7.891  12.613  11.415
 3930W        W67489   5.428  18.781   4.336
 3931W        W67490  26.994  26.578  11.473
 3932W        W67491   3.832  13.754   4.612
 3933W        W67492  23.241  40.319   3.848
 3934W        W67493  16.201  36.471  12.943
 3935W        W67494  14.705  19.710   3.772
 3936W        W67495   7.699   3.846   3.703
 3937W        W67496  21.547  22.116  12.551
 3938W        W67497   6.723  29.603  10.527
 3939W        W67498  30.923  20.222   0.933
 3940W        W67499   6.892  17.155   2.332
 3941W        W67500  33.513  29.066  12.487
 3942W        W67501   5.367  29.975   3.353
 3943W        W67502   6.812  39.556   4.751
 3944W        W67503  18.167  40.978   1.780
 3945W        W67504  29.567  42.305   1.225
 3946W        W67505  28.177   8.778  12.042
 3947W        W67506   9.310  10.336  13.391
 3948W        W67507  27.160  16.589   0.480
 3949W        W67508  37.048  24.154  10.894
 3950W        W67509  39.549  11.247   0.818
 3951W        W67510  31.939  13.305  11.000
 3952W        W67511  34.518   7.726   4.821
 3953W        W67512  33.610  19.110   3.319
 3954W        W67513  11.335  33.056   2.187
 3955W        W67514  12.648  14.743   4.645
 3956W        W67515  12.255  37.432  11.078
 3957W        W67516  26.555  43.803   4.682
 3958W        W67517  23.011   5.760  14.984
 3959W        W67518  15.284  20.541  12.578
 3960W        W67519  22.227  39.455  14.929
 3961W        W67520   5.802  24.985  10.576
 3962W        W67521   1.806  38.528   4.224
 3963W        W67522  43.880  35.497  12.402
 3964W        W67523   3.316  30.978   0.410
 3965W        W67524  40.477  27.658   3.722
 3966W        W67525  30.917  32.999  10.937
 3967W        W67526  14.813  30.104  13.870
 3968W        W67527  31.983   3.260  14.014
 3969W        W67528   7.316  39.558   4.210
 3970W        W67529  20.193  13.760   3.825
 3971W        W67530  42.920   2.316  11.611
 3972W        W67531  29.669  11.732   3.274
 3973W        W67532   7.201   4.232  13.540
 3974W        W67533  17.065   1.380   3.683
 3975W        W67534  17.670  14.172  12.869
 3976W        W67535  12.268   6.283  10.464
 3977W        W67536   2.384   7.705  14.382
 3978W        W67537  28.157  27.569  14.373
 3979W        W67538  32.964  25.058  12.884
 3980W        W67539   5.846  19.166  10.533
 3981W        W67540  18.216  43.792   4.155
 3982W        W67541  40.881   0.989   2.688
 3983W        W67542  41.420  30.473   4.606
 3984W        W67543   4.858   4.784   2.715
 3985W        W67544  22.205   2.847   3.386
 3986W        W67545  36.849  11.787   0.924
 3987W        W67546  28.970  36.853  10.928
 3988W        W67547  25.488  25.590  13.993
 3989W        W67548  12.239   2.738  12.440
 3990W        W67549  30.416  20.111   4.221
 3991W        W67550  14.096  14.203   0.820
 3992W        W67551   3.425  18.226   3.285
 3993W        W67552  32.467  36.027  11.109
 3994W        W67553   9.382  28.604   4.656
 3995W        W67554  19.771  15.685  13.458
 3996W        W67555  35.420   6.346  12.493
 3997W        W67556  32.099   5.335   4.270
 3998W        W67557  38.935  21.111   4.636
 3999W        W67558  16.748  26.032  14.935
 4000W        W67559  39.425  42.803  10.115
 4001W        W67560  18.071  26.029  14.420
 4002W        W67561  19.644  39.014  10.435
 4003W        W67562  19.560  39.913  12.907
 4004W        W67563   0.779   2.378  14.505
 4005W        W67564  21.195  29.600   5.118
 4006W        W67565  16.792  10.275   4.676
 4007W        W67566   0.874  26.958  14.482
 4008W        W67567   7.692  15.237   1.258
 4009W        W67568  40.369  11.232  13.028
 4010W        W67569  37.446  11.789  10.442
 4011W        W67570  40.489   5.782  14.993
 4012W        W67571  13.267  40.533  13.837
 4013W        W67572  30.625  23.027   3.637
 4014W        W67573   6.327  33.922  10.535
 4015W        W67574  14.183  34.492   2.898
 4016W        W67575  26.159  11.132  14.835
 4017W        W67576  39.321  32.054   2.723
 4018W        W67577  41.383  41.412  14.837
 4019W        W67578  24.087   6.912   2.868
 4020W        W67579  16.208  42.953   1.695
 4021W        W67580   7.253  21.046  10.943
 4022W        W67581  17.754  36.574  14.839
 4023W        W67582  44.897  28.131   0.405
 4024W        W67583   3.397  41.520  14.882
 4025W        W67584  18.695   8.319  10.910
 4026W        W67585  15.615  40.823   4.202
 4027W        W67586   3.866  14.116  14.410
 4028W        W67587  31.460  21.075  12.512
 4029W        W67588  44.813  13.282   1.316
 4030W        W67589   7.728   2.327  12.026
 4031W        W67590  31.040  36.563  10.446
 4032W        W67591  36.392   1.739  13.372
 4033W        W67592  33.559  14.291   2.269
 4034W        W67593  42.854  34.391   2.876
 4035W        W67594  40.798  22.040   2.756
 4036W        W67595  18.246  38.565  11.601
 4037W        W67596  42.865   8.888  12.507
 4038W        W67597  28.117   8.324   4.305
 4039W        W67598  21.524  39.495   1.791
 4040W        W67599  20.077  18.180  11.606
 4041W        W67600  21.035  18.731   3.660
 4042W        W67601   5.366  24.065  12.827
 4043W        W67602  31.030  25.498  11.382
 4044W        W67603   8.259  22.642  13.448
 4045W        W67604  40.369  26.560   4.707
 4046W        W67605  33.934  18.788  12.896
 4047W        W67606   7.220  41.015  10.479
 4048W        W67607   9.735  16.123   4.242
 4049W        W67608  25.520  31.479  10.532
 4050W        W67609  19.692   6.340   3.724
 4051W        W67610   8.817  14.626  14.832
 4052W        W67611  29.924  27.171  13.452
 4053W        W67612  44.826  14.180   5.212
 4054W        W67613   9.345  31.433   1.265
 4055W        W67614  39.873  34.460   2.753
 4056W        W67615  13.789   5.403   5.230
 4057W        W67616   7.376  14.690   3.355
 4058W        W67617  31.090   6.192  14.939
 4059W        W67618  40.894   1.779   4.738
 4060W        W67619  34.993   6.831   0.906
 4061W        W67620  41.340  10.162   2.663
 4062W        W67621  41.868  26.012   0.268
 4063W        W67622  39.473   9.268   4.209
 4064W        W67623  25.681  11.839   2.854
 4065W        W67624  12.266  30.034   2.686
 4066W        W67625  39.987  36.020   2.751
 4067W        W67626   2.728   2.272   1.736
 4068W        W67627  20.738  24.716   4.674
 4069W        W67628  25.695  39.899   2.378
 4070W        W67629  26.621  27.059   3.350
 4071W        W67630   1.280   7.726  13.318
 4072W        W67631  10.854  28.977   0.367
 4073W        W67632  41.992   4.883   4.256
 4074W        W67633  30.130  39.489   0.909
 4075W        W67634  18.177  35.067   1.392
 4076W        W67635   4.410   6.726  12.457
 4077W        W67636  14.287   0.441  13.973
 4078W        W67637  25.037  40.956   2.733
 4079W        W67638  17.233   2.743   0.896
 4080W        W67639   8.667  21.234   1.922
 4081W        W67640   3.910  18.069  10.052
 4082W        W67641   4.706  32.475  12.498
 4083W        W67642   3.289   1.419  12.566
 4084W        W67643   3.877  30.127  13.002
 4085W        W67644  42.369  19.612   1.406
 4086W        W67645   1.909   2.953  11.577
 4087W        W67646  21.188   1.320   0.418
 4088W        W67647  10.212  37.924   2.793
 4089W        W67648  39.914  12.188  14.915
 4090W        W67649   2.254  20.562   2.278
 4091W        W67650  32.098  34.032   0.809
 4092W        W67651  20.736  41.864  11.389
 4093W        W67652  26.531  21.743  13.399
 4094W        W67653   2.818  44.360   0.963
 4095W        W67654  37.059   0.887  13.313
 4096W        W67655  39.540  43.014  10.909
 4097W        W67656   1.451  11.646   4.228
 4098W        W67657   7.363  44.833  11.864
 4099W        W67658  36.946   5.325   0.967
 4100W        W67659  23.014  14.678  14.414
 4101W        W67660   6.783  15.643  13.836
 4102W        W67661  21.058  21.685  12.987
 4103W        W67662  35.423  10.734   3.368
 4104W        W67663  14.596   9.689   4.188
 4105W        W67664  17.230   0.294   0.811
 4106W        W67665  18.742   5.323  10.512
 4107W        W67666  43.410  21.750  13.320
 4108W        W67667  19.133  25.676   1.432
 4109W        W67668  44.844  11.650   2.418
 4110W        W67669  15.095   2.243  13.804
 4111W        W67670  34.903  15.300  13.888
 4112W        W67671  21.202  11.760  14.447
 4113W        W67672  24.086  33.875   0.442
 4114W        W67673  24.639   9.208   5.770
 4115W        W67674   9.161  25.009  14.783
 4116W        W67675  43.910  42.413  13.382
 4117W        W67676   2.468  18.595   4.255
 4118W        W67677   8.239  35.523   1.761
 4119W        W67678  16.723  40.891  14.937
 4120W        W67679  40.023  31.421   4.691
 4121W        W67680   1.244  28.641  12.970
 4122W        W67681  25.649  29.148  13.941
 4123W        W67682   5.215  26.651   2.738
 4124W        W67683  16.239  38.019  14.868
 4125W        W67684  32.967  25.680  12.433
 4126W        W67685  24.028  42.827  11.873
 4127W        W67686  29.541  10.163  12.568
 4128W        W67687  24.691  35.421  11.860
 4129W        W67688   7.842  17.664   0.912
 4130W        W67689  27.003  33.537  12.040
 4131W        W67690  23.990   9.727  12.359
 4132W        W67691  39.343  33.609   1.894
 4133W        W67692  32.597   0.901  14.844
 4134W        W67693  34.562   3.731  14.498
 4135W        W67694   2.292  22.057   2.698
 4136W        W67695  38.985  19.733   2.210
 4137W        W67696   1.429   2.283   1.716
 4138W        W67697  18.730   4.213   3.371
 4139W        W67698   8.162   0.271   3.839
 4140W        W67699  21.096  10.687   3.243
 4141W        W67700  29.009  12.761   2.888
 4142W        W67701  11.636   0.822   2.211
 4143W        W67702   8.183  26.128   4.325
 4144W        W67703  10.836  14.781   1.216
 4145W        W67704  41.425  25.471   4.672
 4146W        W67705  44.792   7.209   0.744
 4147W        W67706  18.104  32.604  10.438
 4148W        W67707   5.931  23.667  13.450
 4149W        W67708   5.247  21.114  14.283
 4150W        W67709  44.496  35.383  11.980
 4151W        W67710  29.646  11.762   1.214
 4152W        W67711   7.821  39.045   0.810
 4153W        W67712  32.935  24.645   3.291
 4154W        W67713  25.496  15.801  12.451
 4155W        W67714  41.973  30.655   4.345
 4156W        W67715  27.122   7.679   3.658
 4157W        W67716  27.133  31.023  11.941
 4158W        W67717  41.862  38.828   2.353
 4159W        W67718  31.645   4.914   1.754
 4160W        W67719  19.089  17.706   2.720
 4161W        W67720  43.327  25.687   3.848
 4162W        W67721  24.651  28.483  12.346
 4163W        W67722  20.249  22.642  11.911
 4164W        W67723  14.828  11.649  12.824
 4165W        W67724   5.373   3.919  12.027
 4166W        W67725   0.416  41.339   1.322
 4167W        W67726  17.756  31.416  12.059
 4168W        W67727   4.788  19.267  14.328
 4169W        W67728   2.387  20.658  12.062
 4170W        W67729  38.401  44.914  11.481
 4171W        W67730  25.629  35.968  13.429
 4172W        W67731  28.672  36.508  12.941
 4173W        W67732  21.626  15.578   3.658
 4174W        W67733  20.144   2.445   2.787
 4175W        W67734  12.216  30.428  13.363
 4176W        W67735  24.175  13.624   2.720
 4177W        W67736  27.681  31.446  13.860
 4178W        W67737  37.832   7.375   2.407
 4179W        W67738  32.514  32.488  13.327
 4180W        W67739  37.888  24.084  12.473
 4181W        W67740  17.266  12.317  13.891
 4182W        W67741   2.419  35.452  11.435
 4183W        W67742  10.865  22.707   0.299
 4184W        W67743  15.323  30.492   4.331
 4185W        W67744  41.471  23.588  11.594
 4186W        W67745  18.064  34.401  14.876
 4187W        W67746  37.874  32.412   0.870
 4188W        W67747  37.579  14.144  14.005
 4189W        W67748  16.809  33.059  11.959
 4190W        W67749  16.671  43.870   0.730
 4191W        W67750   3.437   0.844  14.461
 4192W        W67751  10.820   6.246  14.847
 4193W        W67752   6.897  34.557   3.222
 4194W        W67753  19.054  28.037   4.795
 4195W        W67754   6.375  10.294   0.352
 4196W        W67755   9.175   7.807   0.418
 4197W        W67756   3.856   0.744   2.249
 4198W        W67757  42.497  15.288   1.329
 4199W        W67758  23.996  38.887   2.280
 4200W        W67759  39.493  38.893  10.501
 4201W        W67760  15.613  20.195  11.926
 4202W        W67761  10.878  18.295  13.820
 4203W        W67762  24.040  15.267  10.464
 4204W        W67763   0.389  23.542  11.502
 4205W        W67764   9.803   1.273   2.826
 4206W        W67765   9.880  38.525  10.924
 4207W        W67766  42.349   1.756   1.446
 4208W        W67767  32.520  35.554   3.272
 4209W        W67768  21.155  39.444   4.695
 4210W        W67769  22.517   9.859  11.947
 4211W        W67770   6.344   0.778  14.290
 4212W        W67771  11.684  10.328  11.944
 4213W        W67772  20.733   0.933   3.821
 4214W        W67773  14.826  23.564  12.516
 4215W        W67774  38.406  11.637   2.303
 4216W        W67775  12.313  25.112  11.027
 4217W        W67776  42.360   3.757  12.551
 4218W        W67777  35.478  26.991   3.335
 4219W        W67778  36.898  33.055   1.894
 4220W        W67779  33.017   1.810   4.220
 4221W        W67780   3.711  42.375  12.503
 4222W        W67781  28.017   1.915   4.223
 4223W        W67782  44.271   6.916   3.851
 4224W        W67783   4.704  38.513   1.757
 4225W        W67784  23.142  34.448   4.635
 4226W        W67785  13.676   2.804   1.862
 4227W        W67786  41.005  10.250  13.902
 4228W        W67787  18.654   6.256  13.309
 4229W        W67788  23.061   9.781  11.113
 4230W        W67789  35.906  29.466   3.803
 4231W        W67790   3.746  40.364  10.945
 4232W        W67791  37.516  28.959  10.586
 4233W        W67792   0.843  10.172  10.952
 4234W        W67793  16.716  39.537  14.922
 4235W        W67794   8.394  30.453   1.912
 4236W        W67795  38.987  41.828  10.522
 4237W        W67796  12.821  35.975   0.946
 4238W        W67797  10.211  38.059   4.669
 4239W        W67798  35.000  29.601   0.776
 4240W        W67799  24.081  25.134   0.753
 4241W        W67800   9.693   5.326   0.778
 4242W        W67801  37.926  30.098   2.784
 4243W        W67802  31.642  33.413   3.382
 4244W        W67803  15.739  38.491  14.316
 4245W        W67804  17.174  21.598   1.441
 4246W        W67805  42.831   5.431   4.611
 4247W        W67806   5.209  39.937   4.710
 4248W        W67807  24.043   9.345   1.874
 4249W        W67808  22.660  15.640  11.020
 4250W        W67809  26.678   9.798   0.433
 4251W        W67810  10.207  28.986  13.992
 4252W        W67811   0.406  44.486   0.398
 4253W        W67812  31.594   0.882  12.981
 4254W        W67813   0.851  14.630   0.795
 4255W        W67814  18.242   6.398  14.416
 4256W        W67815  28.113  35.504  12.448
 4257W        W67816  34.374   4.884   4.703
 4258W        W67817  33.592  28.042  12.571
 4259W        W67818   7.305  20.768   4.293
 4260W        W67819  22.694  17.144  12.854
 4261W        W67820  27.014  37.551   5.268
 4262W        W67821  12.225  42.326   3.338
 4263W        W67822  33.396  44.293  14.505
 4264W        W67823   9.878  10.806  13.958
 4265W        W67824   0.268   0.321   0.425
 4266W        W67825  10.702  16.598  13.351
 4267W        W67826  12.147   1.820   3.345
 4268W        W67827   9.654  18.622  12.052
 4269W        W67828  10.866  44.271  14.945
 4270W        W67829   5.246  42.332   4.333
 4271W        W67830   7.275  19.064  14.800
 4272W        W67831   8.679   0.460  10.088
 4273W        W67832   6.327  28.031  14.352
 4274W        W67833  18.782  24.177  11.102
 4275W        W67834  30.622  35.423   3.793
 4276W        W67835  34.402   3.271   1.796
 4277W        W67836  29.548  36.932  13.491
 4278W        W67837  22.637  26.682  12.936
 4279W        W67838   8.341  31.625   2.896
 4280W        W67839  24.975  39.963  13.481
 4281W        W67840  42.895  17.089   1.261
 4282W        W67841   1.795  11.334   2.730
 4283W        W67842  27.550  21.193  14.287
 4284W        W67843  32.537  30.463   3.831
 4285W        W67844  13.674   6.222   3.222
 4286W        W67845  28.541   3.716   3.652
 4287W        W67846  36.946   7.862  11.879
 4288W        W67847   2.397  36.980   1.902
 4289W        W67848  27.974   5.704   4.715
 4290W        W67849  41.403  27.487  11.493
 4291W        W67850   4.743  27.136   4.729
 4292W        W67851  13.199  35.489   1.435
 4293W        W67852   2.257   0.431  14.420
 4294W        W67853  34.978  16.254   3.736
 4295W        W67854  26.074  26.517   0.785
 4296W        W67855  30.483  25.699   3.379
 4297W        W67856  43.797   1.367  12.576
 4298W        W67857  23.620   4.267  14.803
 4299W        W67858  37.960   5.292  13.395
 4300W        W67859   3.338  40.843   4.163
 4301W        W67860  22.626  31.079  12.019
 4302W        W67861  39.327  17.220  11.564
 4303W        W67862  32.548  16.258   1.368
 4304W        W67863  24.025  27.168  10.996
 4305W        W67864   5.242  44.298   2.405
 4306W        W67865   1.871  28.151   1.250
 4307W        W67866  33.924  20.090   3.315
 4308W        W67867  13.333  25.588  12.541
 4309W        W67868  28.587  41.332   4.265
 4310W        W67869   4.829  39.511  11.384
 4311W        W67870  29.043  41.907   1.315
 4312W        W67871  44.357  30.536  10.525
 4313W        W67872  11.185  24.702   5.788
 4314W        W67873   5.798   0.251   3.751
 4315W        W67874  11.799   7.836   9.670
 4316W        W67875   5.408  29.091  11.097
 4317W        W67876   7.268  10.182  11.074
 4318W        W67877   1.771  27.126   0.443
 4319W        W67878  43.496   0.970   0.823
 4320W        W67879  36.510  43.397  12.838
 4321W        W67880  35.096  34.414   3.688
 4322W        W67881  40.329  41.836   4.206
 4323W        W67882   8.224  44.269   1.762
 4324W        W67883  14.340   7.853   2.209
 4325W        W67884  42.991  39.501  11.407
 4326W        W67885  28.953  16.267  11.482
 4327W        W67886   2.450  19.622   2.900
 4328W        W67887  39.939  20.245   3.261
 4329W        W67888   5.399  29.668   3.685
 4330W        W67889  31.024   0.334   2.355
 4331W        W67890   2.925   8.883  14.304
 4332W        W67891  33.489  13.189   1.320
 4333W        W67892  24.607   1.239  10.533
 4334W        W67893   9.698   0.348   4.677
 4335W        W67894  39.393  10.757  11.522
 4336W        W67895  26.201  27.608  12.999
 4337W        W67896  38.417  15.297   3.261
 4338W        W67897  15.266  31.478  13.538
 4339W        W67898   1.346  43.412  12.873
 4340W        W67899   1.404  33.509  12.945
 4341W        W67900  26.086  21.021   4.163
 4342W        W67901  29.094   4.292  11.506
 4343W        W67902   5.817  44.787  12.968
 4344W        W67903  13.750   2.893  13.944
 4345W        W67904  18.054  42.919   1.883
 4346W        W67905  24.594  37.077   2.402
 4347W        W67906  14.826   0.328  14.910
 4348W        W67907  44.437  21.535   3.795
 4349W        W67908  16.250  36.463   2.400
 4350W        W67909   1.445  10.878   3.382
 4351W        W67910  21.595  19.255   3.219
 4352W        W67911  43.474  19.278  14.881
 4353W        W67912  30.978  22.565  11.430
 4354W        W67913  28.073  25.174  13.866
 4355W        W67914  32.901  14.145  14.378
 4356W        W67915  33.078  24.107   2.662
 4357W        W67916  41.350  36.956   1.824
 4358W        W67917  34.868   6.768   5.172
 4359W        W67918  32.965  30.640   0.960
 4360W        W67919  22.723  10.832   0.751
 4361W        W67920  42.384  19.105  10.524
 4362W        W67921  13.110  18.163  10.047
 4363W        W67922  38.016  25.181   2.885
 4364W        W67923  14.234  16.694   3.776
 4365W        W67924  12.789  22.602   4.176
 4366W        W67925  37.953  16.087   1.702
 4367W        W67926  19.543   1.357   4.313
 4368W        W67927   9.220  32.600   3.651
 4369W        W67928   4.405  21.116  12.408
 4370W        W67929  24.127  41.022  10.899
 4371W        W67930  35.388  36.397  12.057
 4372W        W67931  28.078  27.095   3.656
 4373W        W67932  19.607  19.722   3.338
 4374W        W67933   2.892  17.269   2.795
 4375W        W67934   9.207  22.080  13.889
 4376W        W67935  21.599  21.141  10.643
 4377W        W67936  20.537  28.444   2.299
 4378W        W67937  24.696  24.201   4.608
 4379W        W67938  37.005  32.950   3.188
 4380W        W67939   8.351  21.151  10.039
 4381W        W67940   8.182  15.788   0.855
 4382W        W67941   8.712  38.007  10.981
 4383W        W67942  31.639  21.186  14.487
 4384W        W67943   3.220  22.573   4.259
 4385W        W67944  34.002  42.957   1.400
 4386W        W67945  14.253  43.961   1.735
 4387W        W67946   8.808  27.526  11.067
 4388W        W67947   9.842  42.898  11.467
 4389W        W67948   8.696  27.142   3.303
 4390W        W67949  37.950  27.131   1.250
 4391W        W67950  25.179  21.129   3.363
 4392W        W67951  27.616  17.157  13.868
 4393W        W67952  28.938  26.980   4.171
 4394W        W67953  12.828  30.035  11.397
 4395W        W67954  41.884   8.312   1.810
 4396W        W67955   1.380  10.326  11.074
 4397W        W67956   7.866   8.326  11.472
 4398W        W67957  40.313  41.401   2.756
 4399W        W67958  44.275   1.756  13.980
 4400W        W67959  38.941  42.304  11.915
 4401W        W67960  25.975  21.186   3.693
 4402W        W67961  39.954   6.375  11.025
 4403W        W67962   6.319  25.588  13.410
 4404W        W67963  32.078  39.896  11.095
 4405W        W67964  28.037   9.842   0.728
 4406W        W67965  11.190  25.486  12.949
 4407W        W67966  37.473  24.569  13.345
 4408W        W67967  41.460  37.535   0.263
 4409W        W67968   3.233  27.601  12.537
 4410W        W67969  30.439  41.799  13.041
 4411W        W67970  35.859   8.376   4.335
 4412W        W67971   4.309  36.352  11.981
 4413W        W67972  34.501  36.916  13.837
 4414W        W67973  25.194  37.370   4.225
 4415W        W67974  20.045  10.169   3.155
 4416W        W67975  30.984  30.011   4.619
 4417W        W67976  10.239  42.813   3.741
 4418W        W67977  37.033  34.501  11.876
 4419W        W67978   9.848  12.362  13.433
 4420W        W67979  33.964  32.513   2.872
 4421W        W67980  38.044  33.014   3.267
 4422W        W67981  22.096  33.603  10.097
 4423W        W67982  44.322  38.494   4.303
 4424W        W67983  29.944   7.369  13.415
 4425W        W67984  21.687  42.359   1.811
 4426W        W67985  42.302  15.219  13.458
 4427W        W67986  32.422  13.304  13.348
 4428W        W67987   6.226  14.829  13.386
 4429W        W67988  22.205  41.497   0.779
 4430W        W67989  23.615  19.551  14.324
 4431W        W67990  21.213  13.738  13.320
 4432W        W67991  23.198   8.243  13.868
 4433W        W67992   6.355   3.238   3.257
 4434W        W67993  16.580  37.490  10.974
 4435W        W67994   9.246  24.667  14.004
 4436W        W67995   8.724   0.424  12.878
 4437W        W67996  27.078  44.416  10.555
 4438W        W67997  36.039  35.884   2.240
 4439W        W67998  20.757   8.865   3.336
 4440W        W67999  19.658  31.492   1.438
 4441W        W68000  35.472  38.861  13.036
 4442W        W68001  34.978  35.431  10.610
 4443W        W68002   4.765  13.816  12.467
 4444W        W68003  38.571  32.120  10.017
 4445W        W68004  42.482  19.231   3.318
 4446W        W68005  35.941  29.493  11.019
 4447W        W68006  24.097  31.602   4.238
 4448W        W68007  13.210  30.522   1.232
 4449W        W68008  22.510   2.894   0.393
 4450W        W68009  20.131  17.638  10.435
 4451W        W68010  14.771  40.861   1.347
 4452W        W68011   2.731  25.023  10.548
 4453W        W68012  44.337  24.610  14.291
 4454W        W68013   7.668   9.181   1.732
 4455W        W68014  44.485  37.562  10.906
 4456W        W68015   3.875  24.590   3.849
 4457W        W68016  27.537  14.124   4.659
 4458W        W68017  32.963  42.524  12.047
 4459W        W68018  14.746  14.266   1.735
 4460W        W68019  14.789  38.912  10.492
 4461W        W68020   3.712  41.012  11.955
 4462W        W68021  41.934  10.225   5.218
 4463W        W68022  35.577  27.182   4.197
 4464W        W68023  13.311  27.980   5.222
 4465W        W68024  25.972  22.063   4.259
 4466W        W68025  13.819  30.512   3.729
 4467W        W68026   5.395   7.849   0.833
 4468W        W68027  14.265  39.920   0.327
 4469W        W68028   8.809   9.694  12.411
 4470W        W68029   5.910  24.106  10.562
 4471W        W68030  20.755  36.958  12.038
 4472W        W68031   7.376   2.817   3.171
 4473W        W68032  40.850  11.272   3.731
 4474W        W68033   6.288  21.613  11.913
 4475W        W68034   9.655  39.933   1.379
 4476W        W68035  16.156  21.589  13.988
 4477W        W68036  31.535  31.041  14.447
 4478W        W68037  23.605  34.972   3.152
 4479W        W68038  33.127   5.724   3.838
 4480W        W68039  39.328   2.926   2.665
 4481W        W68040  41.342  17.172  11.907
 4482W        W68041  30.617  16.802   3.146
 4483W        W68042   4.402  21.037   1.762
 4484W        W68043  34.059  42.019  13.527
 4485W        W68044   1.240  43.376  10.607
 4486W        W68045   2.410  12.662  12.440
 4487W        W68046  16.734  10.351   2.206
 4488W        W68047  26.007   6.351   1.906
 4489W        W68048  36.436  26.018  11.525
 4490W        W68049  19.710   9.725  10.963
 4491W        W68050  20.192  44.865   2.272
 4492W        W68051  21.746  36.002   3.805
 4493W        W68052  22.584  32.067  14.318
 4494W        W68053  43.484   8.404   3.370
 4495W        W68054  42.515  24.111  13.361
 4496W        W68055  36.474  42.964  12.363
 4497W        W68056   1.259  42.344   3.643
 4498W        W68057  33.625  25.646   1.399
 4499W        W68058   2.725  25.111  12.385
 4500W        W68059  19.155  37.085   1.211
 4501W        W68060   1.341  30.026  10.987
 4502W        W68061  38.850  11.309   4.601
 4503W        W68062  21.713  44.822   4.707
 4504W        W68063  39.998  41.418  12.891
 4505W        W68064  13.222  26.995  11.425
 4506W        W68065  38.013  43.862  10.548
 4507W        W68066  44.399   6.317   1.389
 4508W        W68067   6.891   9.205  12.374
 4509W        W68068  24.523  11.308  12.839
 4510W        W68069  20.732   8.860   2.808
 4511W        W68070   5.815  14.637   4.721
 4512W        W68071  39.422  33.486  12.848
 4513W        W68072   5.377  30.917   4.786
 4514W        W68073   3.365  35.046   1.333
 4515W        W68074   6.258  26.192  12.372
 4516W        W68075   3.235  33.555   2.792
 4517W        W68076  34.941  37.879  13.919
 4518W        W68077   6.368  41.838   2.254
 4519W        W68078  24.550  40.836  11.104
 4520W        W68079  38.973  32.963  11.434
 4521W        W68080  23.103  21.741   4.172
 4522W        W68081  15.104  35.934   4.278
 4523W        W68082  17.288   2.366  11.546
 4524W        W68083  16.103  43.419   0.745
 4525W        W68084  16.185  18.631  10.925
 4526W        W68085  24.125  35.084  14.298
 4527W        W68086  19.606  40.970  11.526
 4528W        W68087  35.035  20.668  14.013
 4529W        W68088  26.152   9.795  11.605
 4530W        W68089  20.582  12.615   4.821
 4531W        W68090  17.198  24.658  13.403
 4532W        W68091   8.390   5.845  14.408
 4533W        W68092  41.880   5.854  13.440
 4534W        W68093   8.237  10.171   3.344
 4535W        W68094  15.251  25.568  10.568
 4536W        W68095  32.135   0.409   3.658
 4537W        W68096   3.865  22.139   2.783
 4538W        W68097  18.694  10.637  13.810
 4539W        W68098  30.608  37.063   4.342
 4540W        W68099  24.674  19.073   4.773
 4541W        W68100  40.882  36.417   0.899
 4542W        W68101  27.113  21.122   2.189
 4543W        W68102  43.765  21.215  12.062
 4544W        W68103  19.735  16.276  12.525
 4545W        W68104  25.100  23.126   3.234
 4546W        W68105  32.914   5.832   4.131
 4547W        W68106  25.497  11.736  14.409
 4548W        W68107  22.107   4.254   4.246
 4549W        W68108  19.577  31.898   0.778
 4550W        W68109  38.549  25.630   2.279
 4551W        W68110  34.082  14.227  10.470
 4552W        W68111  34.903  24.226  13.822
 4553W        W68112  21.729  34.090   2.824
 4554W        W68113  10.761   8.184   0.910
 4555W        W68114  28.540  39.513   9.639
 4556W        W68115  43.963  37.013   1.328
 4557W        W68116  29.971  34.983  14.875
 4558W        W68117  11.248   8.843   5.670
 4559W        W68118  36.414   2.737  11.919
 4560W        W68119  32.520  20.764   1.290
 4561W        W68120  18.133  37.365   4.750
 4562W        W68121  21.215  26.978   2.267
 4563W        W68122  30.965  10.776   0.830
 4564W        W68123  19.117  32.457  12.890
 4565W        W68124  14.144  32.528  12.011
 4566W        W68125  28.181  40.533   0.275
 4567W        W68126  29.668  23.649   3.823
 4568W        W68127  30.086  17.747  12.469
 4569W        W68128  16.159   3.725  12.053
 4570W        W68129   5.876  31.590   2.831
 4571W        W68130  14.225  21.159  10.924
 4572W        W68131   3.764  42.820   1.860
 4573W        W68132  11.235  21.609  11.529
 4574W        W68133   0.396   6.711   3.823
 4575W        W68134  21.532   7.689  12.555
 4576W        W68135   0.426  31.915   3.284
 4577W        W68136  40.483   1.765  11.577
 4578W        W68137  23.680  20.128   1.267
 4579W        W68138  11.128  10.288   0.765
 4580W        W68139  13.677  16.605  14.404
 4581W        W68140  42.005  11.817   4.777
 4582W        W68141  28.051  38.949   3.831
 4583W        W68142  41.378  24.596  11.443
 4584W        W68143  32.469  20.105  11.598
 4585W        W68144  22.545  42.450  14.887
 4586W        W68145   7.373  19.060   0.886
 4587W        W68146  22.705  40.362  13.501
 4588W        W68147  10.687  38.503  12.417
 4589W        W68148   6.359  42.871  11.084
 4590W        W68149  41.042  37.412  10.132
 4591W        W68150  19.196  37.852  12.340
 4592W        W68151  31.035  19.052   1.337
 4593W        W68152  25.645  22.009   1.810
 4594W        W68153  14.766  30.925   3.743
 4595W        W68154  34.937  15.306  14.499
 4596W        W68155  23.634   3.853  12.450
 4597W        W68156  38.024  31.600  13.055
 4598W        W68157  29.051  10.727   4.828
 4599W        W68158  11.777  33.935   2.226
 4600W        W68159  43.009  22.179  14.988
 4601W        W68160  22.705  37.366   2.817
 4602W        W68161  24.015  28.573  11.012
 4603W        W68162   8.806  15.589  12.438
 4604W        W68163  11.741  11.766  12.370
 4605W        W68164  43.408  26.012   0.460
 4606W        W68165   6.316  13.165   2.315
 4607W        W68166  31.432   0.936  11.600
 4608W        W68167  34.928  43.991   4.186
 4609W        W68168  40.990  28.589   2.780
 4610W        W68169  27.036   5.432   0.395
 4611W        W68170   3.942  32.514  12.533
 4612W        W68171  26.469  33.106  10.556
 4613W        W68172  35.943  33.535   0.912
 4614W        W68173   9.769  37.083   2.825
 4615W        W68174  15.083   3.857   0.775
 4616W        W68175  36.427  14.742   4.189
 4617W        W68176  26.665  22.574   4.147
 4618W        W68177  16.132  21.104   3.774
 4619W        W68178  31.620  39.506  13.339
 4620W        W68179  28.445  35.007   0.404
 4621W        W68180   5.316  29.608   0.942
 4622W        W68181  23.098  25.602  13.860
 4623W        W68182  22.745  21.150  12.892
 4624W        W68183   0.749  17.297   1.763
 4625W        W68184  29.121  17.650  10.468
 4626W        W68185  32.044  44.890  11.404
 4627W        W68186  33.024  31.598   4.713
 4628W        W68187  10.344  34.994   0.441
 4629W        W68188   4.807  23.648  12.523
 4630W        W68189   8.715   4.715  10.939
 4631W        W68190  18.550  27.651  12.947
 4632W        W68191   0.355   1.371   1.865
 4633W        W68192  32.601  27.450  10.476
 4634W        W68193  13.673   6.286   5.149
 4635W        W68194  40.830  36.518   1.857
 4636W        W68195  32.076  43.828   3.667
 4637W        W68196  14.117  18.172  12.455
 4638W        W68197  12.148  16.090  10.055
 4639W        W68198  21.040  15.221   3.155
 4640W        W68199  30.644  44.866  12.066
 4641W        W68200  43.280  18.757   4.702
 4642W        W68201  42.966  22.672   3.769
 4643W        W68202  39.933  15.668   3.196
 4644W        W68203   8.659  20.056   2.330
 4645W        W68204  31.531  41.320  10.077
 4646W        W68205  28.511  19.176   2.801
 4647W        W68206  42.925  27.676   4.248
 4648W        W68207  11.135  16.787   4.687
 4649W        W68208  27.542   3.430  14.392
 4650W        W68209  12.664   6.700   5.134
 4651W        W68210   1.784   4.862   3.702
 4652W        W68211  36.047  43.287  14.827
 4653W        W68212   9.681  15.206  12.839
 4654W        W68213   1.447  17.218   0.912
 4655W        W68214  15.645  41.399  10.133
 4656W        W68215  38.900  19.718   3.217
 4657W        W68216  38.454  12.251  11.511
 4658W        W68217  41.419   1.917  11.068
 4659W        W68218   5.342  27.456  12.929
 4660W        W68219  32.398  18.055  14.005
 4661W        W68220  15.697  12.789   2.372
 4662W        W68221  42.424   2.884   2.675
 4663W        W68222  38.000  36.858   4.324
 4664W        W68223  10.206  23.186   1.284
 4665W        W68224  38.958  13.112   3.281
 4666W        W68225   0.982  16.767   0.757
 4667W        W68226   4.414  17.721  12.017
 4668W        W68227  34.411  17.300  13.986
 4669W        W68228  36.467  39.811   2.695
 4670W        W68229  22.161   7.851  13.456
 4671W        W68230  11.279  32.988   5.091
 4672W        W68231   8.836   2.470   5.292
 4673W        W68232  12.149  42.392   4.225
 4674W        W68233  34.571  15.282  14.369
 4675W        W68234  39.493  37.901  12.414
 4676W        W68235  37.015  33.537   0.300
 4677W        W68236  18.603  37.341   5.102
 4678W        W68237   1.881   9.186  13.308
 4679W        W68238  21.539  40.327  11.401
 4680W        W68239  38.074  36.964  14.285
 4681W        W68240   7.879  44.770  14.017
 4682W        W68241  21.033  44.331  14.930
 4683W        W68242  39.358  21.112   1.226
 4684W        W68243  34.891   4.739   5.260
 4685W        W68244  33.929  18.635   4.327
 4686W        W68245  18.083  12.621   4.192
 4687W        W68246   9.841  40.338   0.765
 4688W        W68247  27.154  15.645   0.313
 4689W        W68248  41.489   8.862   0.963
 4690W        W68249   6.709   5.785  12.920
 4691W        W68250  37.856   3.790  12.373
 4692W        W68251  24.572   2.238  14.805
 4693W        W68252  34.084  37.423   1.319
 4694W        W68253   2.769  19.055  13.850
 4695W        W68254  44.771  13.688  13.409
 4696W        W68255  20.207  27.029   1.871
 4697W        W68256  11.821  22.674  11.095
 4698W        W68257  21.633  32.071  10.446
 4699W        W68258  13.171  17.208  14.842
 4700W        W68259   8.717   4.290   4.185
 4701W        W68260  36.865  22.563   4.137
 4702W        W68261  18.787   9.672   1.853
 4703W        W68262   5.288  26.077   2.386
 4704W        W68263  23.138  30.553   9.954
 4705W        W68264  36.416   4.366  13.856
 4706W        W68265  44.327  43.468   3.756
 4707W        W68266   7.280  21.576   1.286
 4708W        W68267   2.388   1.945   1.918
 4709W        W68268   3.238  38.571   2.340
 4710W        W68269  37.504  23.024  12.429
 4711W        W68270  40.010   8.283  11.459
 4712W        W68271  37.049  28.469  14.443
 4713W        W68272  15.738  22.093  11.060
 4714W        W68273  16.120   1.737   3.836
 4715W        W68274  19.590  19.648  14.491
 4716W        W68275  15.252  30.608   2.789
 4717W        W68276  10.749  33.503   4.336
 4718W        W68277  16.140  39.441  12.407
 4719W        W68278  12.159  43.806   0.832
 4720W        W68279  21.020  16.117  12.361
 4721W        W68280  25.535  42.465  11.442
 4722W        W68281  37.850  16.259  14.841
 4723W        W68282   5.807  23.638   1.862
 4724W        W68283   1.266   6.325   4.609
 4725W        W68284  15.804  25.982   2.193
 4726W        W68285  15.665  24.061   3.641
 4727W        W68286  36.877  23.131   3.373
 4728W        W68287   7.753  37.984  12.958
 4729W        W68288  38.996  11.361   0.411
 4730W        W68289  26.108  36.846  10.557
 4731W        W68290  26.192  27.490   2.760
 4732W        W68291  35.555  14.611  13.971
 4733W        W68292  25.683   2.309   1.879
 4734W        W68293  37.039  29.496  10.456
 4735W        W68294  40.023   3.879   3.708
 4736W        W68295  27.676  42.471  10.405
 4737W        W68296  36.417   7.671  14.352
 4738W        W68297  44.866  24.666   3.228
 4739W        W68298  22.200   5.910  14.478
 4740W        W68299  22.521  35.042   2.213
 4741W        W68300  35.451  38.065   4.206
 4742W        W68301  42.940  38.357  10.407
 4743W        W68302  27.594  37.432  11.004
 4744W        W68303  32.407  27.037   1.876
 4745W        W68304  11.200  33.051  12.003
 4746W        W68305  31.546  11.192  14.395
 4747W        W68306   4.275  38.448   0.743
 4748W        W68307  18.085  28.019   2.684
 4749W        W68308  43.995  18.729   4.340
 4750W        W68309  15.789  16.615   1.425
 4751W        W68310  30.149  29.036  13.370
 4752W        W68311  34.436  40.416  13.353
 4753W        W68312   7.709  22.108   0.389
 4754W        W68313   8.890  44.009  12.385
 4755W        W68314  35.583   0.840  14.306
 4756W        W68315  21.719  21.227   3.778
 4757W        W68316  13.681   6.263  14.883
 4758W        W68317  13.295  31.465   0.308
 4759W        W68318  25.148   3.459  13.966
 4760W        W68319  27.052  22.169   2.737
 4761W        W68320  33.531  38.327  14.871
 4762W        W68321  13.290   5.814   5.645
 4763W        W68322  37.341  40.994   2.229
 4764W        W68323   5.929   1.377  14.321
 4765W        W68324   5.905  12.213   2.225
 4766W        W68325  14.680  39.862  11.461
 4767W        W68326  36.512  33.097   2.676
 4768W        W68327  40.332  39.461   1.836
 4769W        W68328  28.147  15.783  13.319
 4770W        W68329  38.563  26.996  14.470
 4771W        W68330  16.074  37.569   3.743
 4772W        W68331   7.809  26.980   3.166
 4773W        W68332  30.435   7.832   4.739
 4774W        W68333  19.710  11.825   1.884
 4775W        W68334  23.668  34.440   2.409
 4776W        W68335  20.173   0.450  10.440
 4777W        W68336  10.656   9.691  12.013
 4778W        W68337  22.517  42.288   1.747
 4779W        W68338  26.059   5.268  11.594
 4780W        W68339  36.402  22.727   4.780
 4781W        W68340  21.186  33.396  12.436
 4782W        W68341  31.523  44.787  13.317
 4783W        W68342  18.137   1.957   4.178
 4784W        W68343  23.093   4.785   0.868
 4785W        W68344  20.731   2.882   1.897
 4786W        W68345  24.144  41.341  13.051
 4787W        W68346  15.304  39.375   3.247
 4788W        W68347  10.165  36.407   1.828
 4789W        W68348  15.217  37.403  14.423
 4790W        W68349   7.312  21.640  13.802
 4791W        W68350   5.798  19.254  14.843
 4792W        W68351  42.779   6.755  10.595
 4793W        W68352   1.951  34.545   3.252
 4794W        W68353  27.067  25.674   0.889
 4795W        W68354  33.560  25.218  10.022
 4796W        W68355  29.634   4.710   5.151
 4797W        W68356  25.075  17.700  14.904
 4798W        W68357   2.387  32.044   4.814
 4799W        W68358  27.952  20.604  11.442
 4800W        W68359  20.615  14.805   2.756
 4801W        W68360  33.583  17.666   1.841
 4802W        W68361   7.845  40.828  14.900
 4803W        W68362  41.339  20.676   0.813
 4804W        W68363  20.130  38.932   2.221
 4805W        W68364  38.390  19.254   3.376
 4806W        W68365   5.823  30.997   4.628
 4807W        W68366   0.852  18.765  13.539
 4808W        W68367  35.988  37.030   4.757
 4809W        W68368  19.253  39.526   1.424
 4810W        W68369  35.890   4.387  14.496
 4811W        W68370  31.897  28.177   3.175
 4812W        W68371  12.715  15.718  14.869
 4813W        W68372  18.719  11.723  12.567
 4814W        W68373  20.123  16.734  14.871
 4815W        W68374   9.279  11.737   9.601
 4816W        W68375  25.983  23.503  14.430
 4817W        W68376  15.325   5.202   4.790
 4818W        W68377  20.694   3.437   1.255
 4819W        W68378  36.005  14.820   3.722
 4820W        W68379  20.238  18.145   4.731
 4821W        W68380  40.050  12.851   0.886
 4822W        W68381  21.734  30.066  10.505
 4823W        W68382   4.835  38.888   0.807
 4824W        W68383   5.714  32.978  13.808
 4825W        W68384  15.308  13.743  14.762
 4826W        W68385   0.323  12.231  13.053
 4827W        W68386   9.190  16.612  13.476
 4828W        W68387  25.087   7.372  13.955
 4829W        W68388   7.678  15.136   2.306
 4830W        W68389   6.858  33.583  13.958
 4831W        W68390   2.387   7.329  13.423
 4832W        W68391  10.299  33.610  10.088
 4833W        W68392  26.196  43.277  11.944
 4834W        W68393  23.711   2.750  14.407
 4835W        W68394  21.241  14.636  14.865
 4836W        W68395   9.840  32.517   4.203
 4837W        W68396  17.242  24.599   4.302
 4838W        W68397  25.648  24.536   3.252
 4839W        W68398  26.624  11.629   4.756
 4840W        W68399  41.346  16.183  13.448
 4841W        W68400  35.914   5.712  12.370
 4842W        W68401   6.340   5.398   0.384
 4843W        W68402   3.790   2.804   1.914
 4844W        W68403  23.502  43.465  10.619
 4845W        W68404   1.857  29.114   3.753
 4846W        W68405  33.876  25.520  13.385
 4847W        W68406   9.770  14.785  14.310
 4848W        W68407  43.358   5.735   1.256
 4849W        W68408  18.278   3.955   3.320
 4850W        W68409  40.842   0.304  14.276
 4851W        W68410   3.457  17.561   0.879
 4852W        W68411   1.237  20.752   4.698
 4853W        W68412  43.949  12.178   3.785
 4854W        W68413  43.422   8.197   4.321
 4855W        W68414  19.571   7.900  11.417
 4856W        W68415   7.198  19.226   3.796
 4857W        W68416  31.493  40.399   9.489
 4858W        W68417  21.115  19.198   0.437
 4859W        W68418  30.100  39.982  13.446
 4860W        W68419  17.675  42.905   0.954
 4861W        W68420  11.762  21.225  11.884
 4862W        W68421  32.135  26.609   5.245
 4863W        W68422  38.877  18.108  13.430
 4864W        W68423  40.446  34.492  11.937
 4865W        W68424   5.211  18.105   1.697
 4866W        W68425  17.092  43.283   0.448
 4867W        W68426  28.122  35.991   1.419
 4868W        W68427   5.286  43.921   3.215
 4869W        W68428  39.338  33.610   2.267
 4870W        W68429   2.745  29.610   1.803
 4871W        W68430  11.856  10.169   4.271
 4872W        W68431   9.291  19.225  12.079
 4873W        W68432  21.190   5.356   1.817
 4874W        W68433  44.959  40.349  14.913
 4875W        W68434   6.888   0.961  11.020
 4876W        W68435   1.794  43.952   4.751
 4877W        W68436  44.945  37.501   4.267
 4878W        W68437  44.865  19.106   1.769
 4879W        W68438  38.351  21.729  14.308
 4880W        W68439  30.645  12.648  11.417
 4881W        W68440  20.689  31.514  13.355
 4882W        W68441   9.379  34.876   3.795
 4883W        W68442  22.101  38.360  10.432
 4884W        W68443  24.558   5.410  12.852
 4885W        W68444   8.368  29.139   4.838
 4886W        W68445  32.910  17.561   1.750
 4887W        W68446  11.790  30.945   3.682
 4888W        W68447  25.577  10.148  14.893
 4889W        W68448   8.899   3.910  11.535
 4890W        W68449  26.024  35.571   0.765
 4891W        W68450   0.756   3.285   3.702
 4892W        W68451  11.808   1.895  14.768
 4893W        W68452   9.833  37.042   4.669
 4894W        W68453  35.043  18.289   4.165
 4895W        W68454  29.653   3.257  12.557
 4896W        W68455  33.075  20.590   0.384
 4897W        W68456  11.198  17.693   2.361
 4898W        W68457  44.954  37.348  12.471
 4899W        W68458  16.790  36.416  12.890
 4900W        W68459  17.254  27.173  10.581
 4901W        W68460  41.432  25.087   4.263
 4902W        W68461  18.223  32.066  12.456
 4903W        W68462  17.791  27.151  11.514
 4904W        W68463   1.894  12.721  10.598
 4905W        W68464  20.610   6.416  13.063
 4906W        W68465   3.375  39.363   2.899
 4907W        W68466   5.384  20.163  13.531
 4908W        W68467  15.598  31.087  13.511
 4909W        W68468  16.252   7.789   1.842
 4910W        W68469  14.191  36.842  14.888
 4911W        W68470  15.111  22.058   0.256
 4912W        W68471  31.091  17.687  12.079
 4913W        W68472  18.162   3.893   4.256
 4914W        W68473  40.972  28.673  10.561
 4915W        W68474  40.907   7.321   4.698
 4916W        W68475   6.261  44.826  14.983
 4917W        W68476  37.579  29.019   3.279
 4918W        W68477  44.879  13.822  14.921
 4919W        W68478  43.282  13.681   4.630
 4920W        W68479  33.493  20.158  10.938
 4921W        W68480  44.272  23.066   4.243
 4922W        W68481  19.767  26.039   0.265
 4923W        W68482  12.306   6.324  11.455
 4924W        W68483  32.974   8.809   2.832
 4925W        W68484  30.649   5.798  10.890
 4926W        W68485  16.285   8.405   2.400
 4927W        W68486  22.727  42.899  12.508
 4928W        W68487   5.274  34.054   3.732
 4929W        W68488  40.819  27.601   2.760
 4930W        W68489  30.649  16.085   3.282
 4931W        W68490  28.553  35.483   2.864
 4932W        W68491  31.499   0.444   0.808
 4933W        W68492  37.422  30.649   5.241
 4934W        W68493  21.555  16.105   1.393
 4935W        W68494  21.636  14.168   1.249
 4936W        W68495  16.184   7.385   3.822
 4937W        W68496   9.159  30.923  12.929
 4938W        W68497  39.518  30.036  14.789
 4939W        W68498  31.928  30.574  11.989
 4940W        W68499   1.800   0.806   2.816
 4941W        W68500  20.164  22.573   3.741
 4942W        W68501   1.834  12.617  12.489
 4943W        W68502  28.160  29.008  14.848
 4944W        W68503   1.286   6.287  14.831
 4945W        W68504  13.652  25.681   5.134
 4946W        W68505  16.090  16.194  12.912
 4947W        W68506  23.222  23.100   3.842
 4948W        W68507  37.523  39.469   2.393
 4949W        W68508  29.503  11.628   2.214
 4950W        W68509  38.948  31.093  10.567
 4951W        W68510   6.237  27.002   3.252
 4952W        W68511  30.991  26.629  11.869
 4953W        W68512  35.604  33.911   3.690
 4954W        W68513  37.027  12.179   4.765
 4955W        W68514  19.218  28.653   2.830
 4956W        W68515   6.828  39.458   1.318
 4957W        W68516   1.370  37.358  12.061
 4958W        W68517  26.473  31.549   1.900
 4959W        W68518  24.977  30.435   0.795
 4960W        W68519  13.685  42.953  14.842
 4961W        W68520  24.229  28.112   4.644
 4962W        W68521  12.340  34.028  12.374
 4963W        W68522  42.446  20.167  11.568
 4964W        W68523  21.753  37.859  12.919
 4965W        W68524  31.546   2.356   3.309
 4966W        W68525   8.255  34.050  11.870
 4967W        W68526  40.826   7.310   1.825
 4968W        W68527   5.289  17.656  12.569
 4969W        W68528  26.089   2.963   0.839
 4970W        W68529  26.675  20.733   5.186
 4971W        W68530  42.911  37.478  11.994
 4972W        W68531  25.490  27.016   3.804
 4973W        W68532   0.383  14.748  11.585
 4974W        W68533  17.111  36.060   0.760
 4975W        W68534  44.468   0.353  13.858
 4976W        W68535   3.218  43.767   0.810
 4977W        W68536  13.211  17.164   3.226
 4978W        W68537  41.044  28.067   4.616
 4979W        W68538  25.053  25.076  14.885
 4980W        W68539  18.580  20.648   0.329
 4981W        W68540  14.694   1.918   0.882
 4982W        W68541   4.870   0.941  14.984
 4983W        W68542  17.255  17.232   4.169
 4984W        W68543  40.054   7.766   2.774
 4985W        W68544   4.427  39.476   3.694
 4986W        W68545   3.407  22.725   4.687
 4987W        W68546   4.723   8.731   2.251
 4988W        W68547   1.940  20.268  12.942
 4989W        W68548  17.637  34.894   1.270
 4990W        W68549  24.135  26.675  10.596
 4991W        W68550   0.914  33.024  11.012
 4992W        W68551  44.890   1.426   3.690
 4993W        W68552   3.923  19.753   2.220
 4994W        W68553  34.070  33.396   0.473
 4995W        W68554  40.868  26.508   1.244
 4996W        W68555   4.935  43.905  10.640
 4997W        W68556  14.825   9.391   2.878
 4998W        W68557   7.907  29.107   4.209
 4999W        W68558  26.557  29.015   1.374
 5000W        W68559  32.064  43.354   2.890
 5001W        W68560  15.091   0.968   2.750
 5002W        W68561   4.291  14.680   0.398
 5003W        W68562  12.141  30.920  13.523
 5004W        W68563  38.380  24.499   3.165
 5005W        W68564  44.784  16.798  14.778
 5006W        W68565  19.054   2.720  13.506
 5007W        W68566  44.810   9.260  10.948
 5008W        W68567  21.543  18.557  13.890
 5009W        W68568  31.532  32.400  14.489
 5010W        W68569  14.281  23.029  13.334
 5011W        W68570  28.042  31.916  14.875
 5012W        W68571  35.590  12.184   2.279
 5013W        W68572  14.190  42.461  13.047
 5014W        W68573  16.616  28.141   0.375
 5015W        W68574  41.971  27.967   3.277
 5016W        W68575  16.084  43.420  13.933
 5017W        W68576  10.219  26.475  11.077
 5018W        W68577  19.230  23.646   4.827
 5019W        W68578  35.433  18.584  10.545
 5020W        W68579  20.767  34.026   1.344
 5021W        W68580   7.850  10.780  14.497
 5022W        W68581  43.924  40.338   0.255
 5023W        W68582  41.841   2.860   1.916
 5024W        W68583  27.015  39.850   3.745
 5025W        W68584  26.662  19.164   1.856
 5026W        W68585  24.682  12.767   0.961
 5027W        W68586  35.598   8.278   3.748
 5028W        W68587   8.795  27.053   0.459
 5029W        W68588  10.275  19.136   2.286
 5030W        W68589  35.587   7.367   2.299
 5031W        W68590  11.694  22.705   2.712
 5032W        W68591  12.764  13.797   2.412
 5033W        W68592  43.356   1.805  11.439
 5034W        W68593  11.165  38.000   0.840
 5035W        W68594   3.291  37.027  12.416
 5036W        W68595  26.692   3.456   5.235
 5037W        W68596  42.805   8.305  12.924
 5038W        W68597  35.449   6.841   3.699
 5039W        W68598  34.118  38.490   1.432
 5040W        W68599  35.852  34.606   0.436
 5041W        W68600   1.254  22.555   0.966
 5042W        W68601  12.291   4.250   3.699
 5043W        W68602  38.567  43.998   4.702
 5044W        W68603  37.905  35.525  12.565
 5045W        W68604   2.824  15.311   1.807
 5046W        W68605  22.189   1.368   4.799
 5047W        W68606   1.769  36.905  13.959
 5048W        W68607  22.591  19.279  14.893
 5049W        W68608  43.336   4.248  10.640
 5050W        W68609  29.432   5.321  13.825
 5051W        W68610  18.226   7.879  11.603
 5052W        W68611  40.476  12.760   4.682
 5053W        W68612  11.356  43.829  11.888
 5054W        W68613  41.461   2.312  10.531
 5055W        W68614  34.577  30.942  14.314
 5056W        W68615   8.176  30.049   2.821
 5057W        W68616  23.686   4.246  11.924
 5058W        W68617  43.444   7.242   3.358
 5059W        W68618  35.017  30.101   1.402
 5060W        W68619  18.758  16.726  12.905
 5061W        W68620  22.075  26.967  14.913
 5062W        W68621   5.696  42.950  12.531
 5063W        W68622   2.372   5.817   3.222
 5064W        W68623  31.413  20.270   2.841
 5065W        W68624   8.161  16.113  11.104
 5066W        W68625   9.784  27.506  14.029
 5067W        W68626  11.339  24.500   0.335
 5068W        W68627  23.106  21.608  14.392
 5069W        W68628  29.557  31.902   3.244
 5070W        W68629   4.931   1.397  13.508
 5071W        W68630  31.040  12.217   3.749
 5072W        W68631   9.785  31.610  11.994
 5073W        W68632  16.184   2.902  14.895
 5074W        W68633  44.290  37.932   0.446
 5075W        W68634   2.367   9.795   4.612
 5076W        W68635  10.794  21.579   0.797
 5077W        W68636  18.136  29.035   0.259
 5078W        W68637  13.785  11.645   1.738
 5079W        W68638  31.574  33.106  10.495
 5080W        W68639  13.217   1.238   3.740
 5081W        W68640  37.055  23.600  13.890
 5082W        W68641  41.518  23.176  13.827
 5083W        W68642   9.851  14.607  14.783
 5084W        W68643   5.344  25.173   4.666
 5085W        W68644   0.318   9.708   4.303
 5086W        W68645  35.895  34.057  13.538
 5087W        W68646  37.958  23.223  11.896
 5088W        W68647  15.694  25.688   3.360
 5089W        W68648  27.625  34.083  14.320
 5090W        W68649   9.202  36.869   1.391
 5091W        W68650  18.738  18.273  12.941
 5092W        W68651  18.546   1.321   1.235
 5093W        W68652  32.106  34.417   4.598
 5094W        W68653  20.259  40.511   0.344
 5095W        W68654  22.746   7.732   4.123
 5096W        W68655  32.967  27.154   2.379
 5097W        W68656  38.991  17.137   3.189
 5098W        W68657  34.087  26.501  10.428
 5099W        W68658  43.429   1.772   4.619
 5100W        W68659  27.504  15.137  13.045
 5101W        W68660  28.459   0.259   2.248
 5102W        W68661  18.572  26.185   1.231
 5103W        W68662  26.208  14.162   4.750
 5104W        W68663  11.710  28.937  10.423
 5105W        W68664  42.985  22.061   1.444
 5106W        W68665  21.665   1.290  12.533
 5107W        W68666  39.951  11.727   1.854
 5108W        W68667  18.186  27.158   4.834
 5109W        W68668   6.383  27.117  14.481
 5110W        W68669  39.951  33.475  11.400
 5111W        W68670  31.446  25.542   2.280
 5112W        W68671   9.288  24.529   3.846
 5113W        W68672  27.067  15.151  10.907
 5114W        W68673  44.864  11.171  12.053
 5115W        W68674  38.492  13.347   3.781
 5116W        W68675   5.855  10.696  14.867
 5117W        W68676  35.396  21.093   4.265
 5118W        W68677  34.589  29.949  11.906
 5119W        W68678   6.904  11.677   3.799
 5120W        W68679  44.777  44.870   4.290
 5121W        W68680  33.120  30.982  13.031
 5122W        W68681  18.741  15.184  11.498
 5123W        W68682   0.252  31.915  13.976
 5124W        W68683  33.489   9.813  13.518
 5125W        W68684   0.467  31.083   4.819
 5126W        W68685  30.917  12.241  11.520
 5127W        W68686  43.454   3.247  14.473
 5128W        W68687  21.135  39.819  14.769
 5129W        W68688  17.297  17.152  13.052
 5130W        W68689  22.140  36.377  11.042
 5131W        W68690  18.640  19.126   2.211
 5132W        W68691  15.752  36.882   2.811
 5133W        W68692  29.037   2.923  10.625
 5134W        W68693  16.092  30.637   0.428
 5135W        W68694  16.653  28.086  12.497
 5136W        W68695  13.798  37.388  13.509
 5137W        W68696  19.671  16.275   4.240
 5138W        W68697  26.681  39.909   3.226
 5139W        W68698  42.809  36.473  14.786
 5140W        W68699  29.091  25.706   0.403
 5141W        W68700  16.090   9.333   1.387
 5142W        W68701  34.378  18.141  12.010
 5143W        W68702  15.218  24.042   4.233
 5144W        W68703  19.536  43.405  13.933
 5145W        W68704   6.294   6.183   4.737
 5146W        W68705  31.516  10.337   0.786
 5147W        W68706  22.560  42.832   3.697
 5148W        W68707  16.278  11.811   0.409
 5149W        W68708   2.357  42.937  14.979
 5150W        W68709   9.176  26.694  13.452
 5151W        W68710  23.667  43.501  12.405
 5152W        W68711  20.227  33.064   2.850
 5153W        W68712   1.248  22.128   1.826
 5154W        W68713  39.491   9.311  11.389
 5155W        W68714  36.562  16.140  10.991
 5156W        W68715  28.585  43.430   3.850
 5157W        W68716  23.608  36.031  10.623
 5158W        W68717  10.382  27.449  14.908
 5159W        W68718  11.826  29.633  12.094
 5160W        W68719  18.662  39.027  14.774
 5161W        W68720  32.399  23.613  11.595
 5162W        W68721  25.075  40.348  10.894
 5163W        W68722  13.143  36.352  12.414
 5164W        W68723  35.954   2.387   2.689
 5165W        W68724  11.215   6.214  11.557
 5166W        W68725  38.982  39.861   2.372
 5167W        W68726  16.245  26.983   4.170
 5168W        W68727  29.487  31.611   2.404
 5169W        W68728  38.854  12.255  11.084
 5170W        W68729  29.523   9.713   2.210
 5171W        W68730  31.582  43.498  12.527
 5172W        W68731  25.151  44.374  11.875
 5173W        W68732  24.099  18.193   1.712
 5174W        W68733  15.713  16.279   1.905
 5175W        W68734  41.395  32.620  11.991
 5176W        W68735   7.301  38.437  12.906
 5177W        W68736  39.819  18.219  14.368
 5178W        W68737  26.649  38.991   1.220
 5179W        W68738   3.734  30.598  13.468
 5180W        W68739  16.701  43.391  11.062
 5181W        W68740  14.296  26.661  11.594
 5182W        W68741  17.673   9.307   1.877
 5183W        W68742  41.294   3.425   2.760
 5184W        W68743  44.753  21.211   3.353
 5185W        W68744  31.960   4.392   2.285
 5186W        W68745  35.942   6.687  11.952
 5187W        W68746  27.646  23.223  13.342
 5188W        W68747  35.019   7.816   2.712
 5189W        W68748   5.365  21.217  14.793
 5190W        W68749  31.626  42.032   0.798
 5191W        W68750  10.758   7.281  13.498
 5192W        W68751  22.508  33.551  12.420
 5193W        W68752  24.194  44.386  12.912
 5194W        W68753  34.571  18.221  10.934
 5195W        W68754  26.152  13.745  14.955
 5196W        W68755  41.914  40.421   4.243
 5197W        W68756  13.322  29.427   1.402
 5198W        W68757  42.357  16.583   3.810
 5199W        W68758  39.401  22.583   1.343
 5200W        W68759  30.031   8.351  14.773
 5201W        W68760   9.330   2.394   2.672
 5202W        W68761  18.634  21.060   2.746
 5203W        W68762  42.891  39.403  12.852
 5204W        W68763  19.078   2.417  11.970
 5205W        W68764  39.874  14.828   4.804
 5206W        W68765  11.173  32.963  10.009
 5207W        W68766   9.174  24.193   4.798
 5208W        W68767  12.847  16.660   3.723
 5209W        W68768  42.888  33.609   3.182
 5210W        W68769  29.129   5.911  11.514
 5211W        W68770  36.847  38.943  11.468
 5212W        W68771  18.658   8.811  10.906
 5213W        W68772  28.963  42.472  10.611
 5214W        W68773  36.427  18.296   2.353
 5215W        W68774   3.776  12.758   4.807
 5216W        W68775  42.480  24.511  14.303
 5217W        W68776  20.164  31.416  11.449
 5218W        W68777  13.309   5.367   2.223
 5219W        W68778   4.758  43.484  14.341
 5220W        W68779  44.008  19.090  14.381
 5221W        W68780  11.281  20.602   2.703
 5222W        W68781  29.536  22.056   2.288
 5223W        W68782  38.446  43.804   4.351
 5224W        W68783  13.678  41.845   3.339
 5225W        W68784   9.218   3.249   2.268
 5226W        W68785  40.368  35.514  12.036
 5227W        W68786  29.616  23.664  12.989
 5228W        W68787  41.825   2.805  12.976
 5229W        W68788  20.034  24.039  11.966
 5230W        W68789  36.043  34.924   0.930
 5231W        W68790  18.281  21.086   4.812
 5232W        W68791   4.845  18.677   4.204
 5233W        W68792  34.950  26.016  13.799
 5234W        W68793  25.106   8.305   0.471
 5235W        W68794  25.017  22.104   0.456
 5236W        W68795   1.747  41.962   2.891
 5237W        W68796  16.748   3.897  12.853
 5238W        W68797  37.361   2.824   3.711
 5239W        W68798  25.980  24.026  10.449
 5240W        W68799  43.971  11.733   1.439
 5241W        W68800  41.838  23.139  14.788
 5242W        W68801  44.841  32.513   1.330
 5243W        W68802  36.414  28.947  13.506
 5244W        W68803   9.655  10.805  11.957
 5245W        W68804   7.847  13.703   2.848
 5246W        W68805  19.214  41.461  11.886
 5247W        W68806  25.184   3.951  14.365
 5248W        W68807  34.420  21.223   3.180
 5249W        W68808  33.126   8.364  14.945
 5250W        W68809  12.723  20.748  10.406
 5251W        W68810  26.620  43.492   1.320
 5252W        W68811  10.670  33.874   3.867
 5253W        W68812  26.952   9.267  14.415
 5254W        W68813  36.893  11.838   9.938
 5255W        W68814  22.229  24.165  12.495
 5256W        W68815   5.229  28.177   1.255
 5257W        W68816   3.312  39.430  13.311
 5258W        W68817  11.192  31.606   0.841
 5259W        W68818   0.399  39.454  13.944
 5260W        W68819  27.648  13.148   0.860
 5261W        W68820   2.800  23.172   0.392
 5262W        W68821   0.457  13.338   3.841
 5263W        W68822   4.786  44.880   5.272
 5264W        W68823   2.374  10.834   3.858
 5265W        W68824  14.273  32.100  11.105
 5266W        W68825  22.741   7.301  12.952
 5267W        W68826  14.648  33.515   1.743
 5268W        W68827   4.828  26.534   2.835
 5269W        W68828  10.813   7.343   0.911
 5270W        W68829  28.510  31.463   1.414
 5271W        W68830  30.002   5.236   4.825
 5272W        W68831  13.646  31.605   4.729
 5273W        W68832  28.033  41.013   4.612
 5274W        W68833   0.917  19.709  12.545
 5275W        W68834  35.991  10.766  12.841
 5276W        W68835  18.073  25.023  14.432
 5277W        W68836  26.494  11.748  13.052
 5278W        W68837  33.890  23.100  12.905
 5279W        W68838   5.385  32.530  10.466
 5280W        W68839  37.844  14.742   4.304
 5281W        W68840  40.808  40.453  14.810
 5282W        W68841  20.054  14.333   5.124
 5283W        W68842  12.748  20.711   1.898
 5284W        W68843  39.371  37.064  14.853
 5285W        W68844  41.039  24.180   4.746
 5286W        W68845   6.275   0.336   3.818
 5287W        W68846  38.511  11.235  13.422
 5288W        W68847   1.374  27.675   4.287
 5289W        W68848  16.618  42.503  12.553
 5290W        W68849  27.550  14.277   1.920
 5291W        W68850  25.657  33.104   3.254
 5292W        W68851  42.336  27.519   3.271
 5293W        W68852  21.143  36.917  14.504
 5294W        W68853   7.335   5.844   0.291
 5295W        W68854  32.893  20.540  10.527
 5296W        W68855  40.510  38.860  13.315
 5297W        W68856   2.763  22.180  11.996
 5298W        W68857  33.481  32.499  11.586
 5299W        W68858  11.204  33.459  10.541
 5300W        W68859  36.016  24.549  12.369
 5301W        W68860   4.208  11.155  14.929
 5302W        W68861  29.961  43.414   3.268
 5303W        W68862  32.396  17.776   1.906
 5304W        W68863   3.422  36.428  11.407
 5305W        W68864   8.172  24.555   0.271
 5306W        W68865  17.215   6.914   1.418
 5307W        W68866  18.210  18.663   3.248
 5308W        W68867   3.398   5.871  13.312
 5309W        W68868  24.116  23.725  10.947
 5310W        W68869  18.714  35.912   1.884
 5311W        W68870  35.855  27.132   0.742
 5312W        W68871  33.521  21.252  11.453
 5313W        W68872  40.402  28.165   2.744
 5314W        W68873   9.189  42.929  10.573
 5315W        W68874  26.490  36.097  14.862
 5316W        W68875  15.753   2.432   5.297
 5317W        W68876  32.464  26.685  13.429
 5318W        W68877   0.340  19.145  14.412
 5319W        W68878  36.433  16.699   4.266
 5320W        W68879  18.776  18.081   3.287
 5321W        W68880  44.773  28.607  11.438
 5322W        W68881  15.706  33.081   4.311
 5323W        W68882  28.972   7.806  10.645
 5324W        W68883  15.753  42.899  13.929
 5325W        W68884  22.157  24.578  13.494
 5326W        W68885   4.821  24.647   2.723
 5327W        W68886  16.812  34.445   1.863
 5328W        W68887  21.034  33.130   1.317
 5329W        W68888  17.638   6.287  12.920
 5330W        W68889  20.745  38.350   3.630
 5331W        W68890   6.754  10.213  11.531
 5332W        W68891   5.814  38.910  12.844
 5333W        W68892  10.735  22.604   4.647
 5334W        W68893  31.022  38.406   2.347
 5335W        W68894  42.289  21.026   4.690
 5336W        W68895  35.586  27.672   4.143
 5337W        W68896  41.940  26.987   4.303
 5338W        W68897  38.976  11.241   1.294
 5339W        W68898  27.064  22.601   9.642
 5340W        W68899  27.078  23.234   5.167
 5341W        W68900   8.400  26.672   3.257
 5342W        W68901  16.231  12.756   5.255
 5343W        W68902   9.848  11.652   3.649
 5344W        W68903  16.726  31.462   4.804
 5345W        W68904  16.192  29.569   1.923
 5346W        W68905  37.833  28.511   0.425
 5347W        W68906  41.517  19.721   1.749
 5348W        W68907  28.670  42.470  10.890
 5349W        W68908  14.772  17.236   1.839
 5350W        W68909  15.238  18.214  11.124
 5351W        W68910   0.984  32.418   3.297
 5352W        W68911  35.601  22.100   0.471
 5353W        W68912  26.496  23.019   3.170
 5354W        W68913  12.768  41.344  11.920
 5355W        W68914  27.534  24.600  14.945
 5356W        W68915  13.613  41.312  11.579
 5357W        W68916  36.351   1.421  11.438
 5358W        W68917  27.555  23.676  14.794
 5359W        W68918  32.600  13.709  12.566
 5360W        W68919   1.423  38.044   1.289
 5361W        W68920  30.639  30.003   3.369
 5362W        W68921  33.936  28.492   0.934
 5363W        W68922  27.994  12.164   2.738
 5364W        W68923  15.699  13.620   4.114
 5365W        W68924  41.804  11.807  11.388
 5366W        W68925  31.590  44.808   3.309
 5367W        W68926  13.334   8.874   3.694
 5368W        W68927  36.021  18.724  12.076
 5369W        W68928   6.762   4.815   4.607
 5370W        W68929  10.710  43.777   0.410
 5371W        W68930   2.817  12.644  12.060
 5372W        W68931   5.737  26.510  11.552
 5373W        W68932  12.839  25.155   0.958
 5374W        W68933  30.527  28.110  11.496
 5375W        W68934  34.939   8.696   3.738
 5376W        W68935  42.865  25.062  11.523
 5377W        W68936  43.435  25.132   9.927
 5378W        W68937  33.055  12.355   1.314
 5379W        W68938  20.038   4.817  10.458
 5380W        W68939  28.119  44.894   2.405
 5381W        W68940   2.467  22.007  12.917
 5382W        W68941  20.749  23.077  14.890
 5383W        W68942  41.940  17.792  10.453
 5384W        W68943  42.418   1.880   3.247
 5385W        W68944  34.397   7.338  11.090
 5386W        W68945  20.093  12.721  13.901
 5387W        W68946   7.333   8.880  14.370
 5388W        W68947  16.162  19.682  13.487
 5389W        W68948  34.971  20.270   3.173
 5390W        W68949  11.771  26.508   2.298
 5391W        W68950  31.919  32.088   2.837
 5392W        W68951  31.092  38.437   1.889
 5393W        W68952   2.446  34.890   3.377
 5394W        W68953  38.038  19.665  11.500
 5395W        W68954  35.992   5.841  11.466
 5396W        W68955   1.975   9.667  13.985
 5397W        W68956   3.248  18.253   2.845
 5398W        W68957  21.597  10.822   4.663
 5399W        W68958  21.711   0.384  14.768
 5400W        W68959  17.777  23.502  14.883
 5401W        W68960  16.270  18.777   0.957
 5402W        W68961  17.188  14.280  14.287
 5403W        W68962   6.688   1.734   0.751
 5404W        W68963  30.077  20.637  14.866
 5405W        W68964  20.210   1.461   3.346
 5406W        W68965  13.160  18.771  12.572
 5407W        W68966  42.316  16.714  10.911
 5408W        W68967  32.106  23.632   2.242
 5409W        W68968  32.417  42.498  10.568
 5410W        W68969  37.052  28.071   0.274
 5411W        W68970  27.141   5.713  14.360
 5412W        W68971  19.203  16.790  13.416
 5413W        W68972  29.144  20.651   0.370
 5414W        W68973  11.779  32.433   4.641
 5415W        W68974  42.447  15.278  11.419
 5416W        W68975  26.085  27.147   4.169
 5417W        W68976  20.055  43.303  13.018
 5418W        W68977  14.290  16.652  10.638
 5419W        W68978   2.721  35.000  11.374
 5420W        W68979  28.072  13.148  13.865
 5421W        W68980  31.587  37.997  14.276
 5422W        W68981  24.034  14.171  10.089
 5423W        W68982   8.818  36.023  14.372
 5424W        W68983  19.140  18.118  11.606
 5425W        W68984  43.423  10.381   2.815
 5426W        W68985  19.161  40.006  14.416
 5427W        W68986  15.161  25.150  14.294
 5428W        W68987  42.357  23.241  13.041
 5429W        W68988  44.504   4.867  10.939
 5430W        W68989   3.349  42.952  14.876
 5431W        W68990  19.125  41.461  13.318
 5432W        W68991  26.480  36.022  12.908
 5433W        W68992   3.353  38.858   1.747
 5434W        W68993  25.208  39.332   4.119
 5435W        W68994  25.572  27.501  12.397
 5436W        W68995  43.776  22.243   3.298
 5437W        W68996  38.977   8.827   4.300
 5438W        W68997  43.343  31.091  11.542
 5439W        W68998   9.290  25.003   5.275
 5440W        W68999   2.922   5.821   0.766
 5441W        W69000  39.945  29.517  11.048
 5442W        W69001  20.238  16.777   3.256
 5443W        W69002  18.665  22.599   9.959
 5444W        W69003  24.092  29.134  12.568
 5445W        W69004   3.851  12.709  10.891
 5446W        W69005  21.101   3.931  12.371
 5447W        W69006  34.917  27.632  12.558
 5448W        W69007  43.882   6.285   2.334
 5449W        W69008   7.748   7.333  13.397
 5450W        W69009  18.066   5.296  14.288
 5451W        W69010   4.725  22.026   2.852
 5452W        W69011  16.683  35.028   4.728
 5453W        W69012  18.606  44.346   1.808
 5454W        W69013  10.654  42.798   1.768
 5455W        W69014   9.820  31.534  12.465
 5456W        W69015   4.941  13.787   4.823
 5457W        W69016  22.634  35.971   1.885
 5458W        W69017  30.043   7.368   0.931
 5459W        W69018  37.914   6.771  13.991
 5460W        W69019  38.476   6.334  10.964
 5461W        W69020  18.771   5.742   1.405
 5462W        W69021  15.722  21.149   4.229
 5463W        W69022   1.338  33.075  13.860
 5464W        W69023  22.060  38.568  12.564
 5465W        W69024  31.645  43.853   4.280
 5466W        W69025   0.251  41.342   2.369
 5467W        W69026   6.858   3.752   0.918
 5468W        W69027   7.717  41.433  13.516
 5469W        W69028  20.258   4.830  11.982
 5470W        W69029  36.998  25.135   2.763
 5471W        W69030   5.234  18.714   0.780
 5472W        W69031  33.452  22.692  10.556
 5473W        W69032   9.192   2.232  10.936
 5474W        W69033  22.023  43.848  12.931
 5475W        W69034   9.344  10.198   4.762
 5476W        W69035  38.896  29.445   0.731
 5477W        W69036  37.531  12.266  14.871
 5478W        W69037   2.783  26.600  13.002
 5479W        W69038  20.176  43.004   3.152
 5480W        W69039  37.957  34.042   3.164
 5481W        W69040  21.712  26.556   2.880
 5482W        W69041  34.581  19.762  12.370
 5483W        W69042  31.412  35.594   4.175
 5484W        W69043   0.969  27.940  14.847
 5485W        W69044   5.350  26.165   4.319
 5486W        W69045  13.804   9.734  12.386
 5487W        W69046   5.805  10.728  12.996
 5488W        W69047  39.922  40.983   3.310
 5489W        W69048  15.614   4.863   3.149
 5490W        W69049  39.002  27.562   0.764
 5491W        W69050   9.890   5.841   3.220
 5492W        W69051  23.688   6.390  11.083
 5493W        W69052   0.325  31.595  13.024
 5494W        W69053   0.251  19.602  14.469
 5495W        W69054   2.891  35.938  11.088
 5496W        W69055  27.449  36.005  11.491
 5497W        W69056  18.593  29.644  10.509
 5498W        W69057   3.316  20.250  12.019
 5499W        W69058  19.139  27.180  12.971
 5500W        W69059  15.611  16.274  11.921
 5501W        W69060  16.617  37.368   4.125
 5502W        W69061  43.406  32.549  12.506
 5503W        W69062  37.894  26.627  10.145
 5504W        W69063  27.010  23.526  11.484
 5505W        W69064  16.171   0.465   4.275
 5506W        W69065   8.307  23.673   0.812
 5507W        W69066   0.751  21.262  14.870
 5508W        W69067   5.841  25.143   2.376
 5509W        W69068  16.304  42.453   1.298
 5510W        W69069  24.037  19.687  12.362
 5511W        W69070  14.288  27.077   5.787
 5512W        W69071  22.538  34.563  14.958
 5513W        W69072   3.765  41.846   0.757
 5514W        W69073  31.429   6.821  14.328
 5515W        W69074  25.496  21.567  11.457
 5516W        W69075  12.340  21.079   3.177
 5517W        W69076  23.996   1.441   1.387
 5518W        W69077  30.026   3.408  11.006
 5519W        W69078  29.175  32.887  14.915
 5520W        W69079  37.889  12.314   2.389
 5521W        W69080   8.306  11.248  14.323
 5522W        W69081  25.494   3.378   0.378
 5523W        W69082  24.633   3.308  13.907
 5524W        W69083  38.840  26.201  13.522
 5525W        W69084  41.295  41.443  13.326
 5526W        W69085  11.627  34.032  14.471
 5527W        W69086  20.214   4.884  14.277
 5528W        W69087   3.348  25.038   9.998
 5529W        W69088  42.885  22.091   2.874
 5530W        W69089  24.495  22.674   2.184
 5531W        W69090   5.695   5.193  11.441
 5532W        W69091  27.029  18.746  13.907
 5533W        W69092  31.922   4.344   0.303
 5534W        W69093  12.159  17.279   4.838
 5535W        W69094  40.005  36.925  11.573
 5536W        W69095  22.672  13.309  10.918
 5537W        W69096  19.601  18.287   2.693
 5538W        W69097  22.569  13.729  13.460
 5539W        W69098  21.659  16.638  11.386
 5540W        W69099  42.502  20.232  10.615
 5541W        W69100  12.229  23.723   3.688
 5542W        W69101  29.080  31.018  13.957
 5543W        W69102  10.203  15.658  13.053
 5544W        W69103  41.439   9.218  14.878
 5545W        W69104  31.970  41.996  10.428
 5546W        W69105  26.591  17.260   1.776
 5547W        W69106   0.863  13.152  14.309
 5548W        W69107   8.372   1.436  12.481
 5549W        W69108  15.283  14.145  10.951
 5550W        W69109  19.268   6.347  11.903
 5551W        W69110  41.490  29.652  14.424
 5552W        W69111  41.814   4.838   2.707
 5553W        W69112  32.547   5.779  10.543
 5554W        W69113  34.965  21.740   1.740
 5555W        W69114  20.146  32.461   1.360
 5556W        W69115  18.126  26.165  12.946
 5557W        W69116  17.280   3.453   4.141
 5558W        W69117  18.054  20.546  13.453
 5559W        W69118  44.503   0.479  12.064
 5560W        W69119  17.684   6.712  12.987
 5561W        W69120  34.408  42.031  13.410
 5562W        W69121  16.084   5.224  11.453
 5563W        W69122  20.207  19.724  10.416
 5564W        W69123  11.277   2.952  14.338
 5565W        W69124  37.390  25.497  12.362
 5566W        W69125   8.783   1.267   4.123
 5567W        W69126  38.943   7.258  14.473
 5568W        W69127   4.781  40.510  13.336
 5569W        W69128  41.343  16.724  14.479
 5570W        W69129  20.258  39.399  14.965
 5571W        W69130  41.441  43.500  14.285
 5572W        W69131   5.842  16.075   4.142
 5573W        W69132  18.582  35.366   1.257
 5574W        W69133  32.550   0.762  14.341
 5575W        W69134  34.408   5.354  12.433
 5576W        W69135  14.733  15.703   2.221
 5577W        W69136   5.251  18.150  10.430
 5578W        W69137   2.365  25.974   2.353
 5579W        W69138  44.833  22.537   4.139
 5580W        W69139   1.377  28.148  14.971
 5581W        W69140  18.281   5.910   3.177
 5582W        W69141  18.229  39.377  12.508
 5583W        W69142  25.138   5.777  10.942
 5584W        W69143  16.151  34.511  10.517
 5585W        W69144   7.172  30.919   4.706
 5586W        W69145  21.192  40.320  14.453
 5587W        W69146  32.951   6.867  11.574
 5588W        W69147  30.013  13.254  14.772
 5589W        W69148  24.113  35.592  13.415
 5590W        W69149  34.904  25.034  13.517
 5591W        W69150  34.904  39.500   1.429
 5592W        W69151  23.498  23.599   0.330
 5593W        W69152  12.664  41.804  13.521
 5594W        W69153   1.268  43.372   4.814
 5595W        W69154  28.593  18.649  10.991
 5596W        W69155  19.126  39.019  13.460
 5597W        W69156  34.994  13.641   1.360
 5598W        W69157  22.633   9.781   3.233
 5599W        W69158  13.730   2.867  12.837
 5600W        W69159  32.547   7.669  11.078
 5601W        W69160  18.759  14.736   4.214
 5602W        W69161   6.370   8.692  10.116
 5603W        W69162   3.823  29.655   0.871
 5604W        W69163  39.351  30.625   1.733
 5605W        W69164   2.752   3.257  12.876
 5606W        W69165  19.575   5.251   4.783
 5607W        W69166  36.537   3.800  14.941
 5608W        W69167  37.018  22.505   1.779
 5609W        W69168  40.463  40.485   2.803
 5610W        W69169  31.943  24.531   3.202
 5611W        W69170  42.321  13.188   0.259
 5612W        W69171  18.197   2.294  14.452
 5613W        W69172  22.738  41.374  11.897
 5614W        W69173   3.432  17.299  12.348
 5615W        W69174  36.907  37.004  13.934
 5616W        W69175  23.545  16.699  12.058
 5617W        W69176   5.921  35.989  12.878
 5618W        W69177  14.251  24.489  11.957
 5619W        W69178  30.656  14.172   0.463
 5620W        W69179  11.203  10.309   2.757
 5621W        W69180   4.240  22.239  13.527
 5622W        W69181  21.156   8.186  14.412
 5623W        W69182  34.418  43.329  13.345
 5624W        W69183  18.681   3.424  10.564
 5625W        W69184  35.896   2.458  13.863
 5626W        W69185  15.716  42.936   0.469
 5627W        W69186  12.729  33.588   5.257
 5628W        W69187  18.135  43.017  10.427
 5629W        W69188   5.699  10.185   4.702
 5630W        W69189   6.187  12.663  11.434
 5631W        W69190  39.436  37.839   2.188
 5632W        W69191  19.271  24.048  11.986
 5633W        W69192  29.133  40.399  13.410
 5634W        W69193   9.191  19.176  12.491
 5635W        W69194  34.460  24.710   4.775
 5636W        W69195  11.697   1.829  13.795
 5637W        W69196  11.710  34.613   3.630
 5638W        W69197  38.505  30.134  11.464
 5639W        W69198  16.132   2.322  11.532
 5640W        W69199   4.382   7.185  14.803
 5641W        W69200  42.517  44.834   1.729
 5642W        W69201  34.983  29.027  11.490
 5643W        W69202  34.086  19.211   3.348
 5644W        W69203  28.097  15.763  12.365
 5645W        W69204  40.861  32.992   2.223
 5646W        W69205  12.121   2.429  11.116
 5647W        W69206  43.391  28.081   1.294
 5648W        W69207   9.347  43.487  11.509
 5649W        W69208   0.819  18.697   1.210
 5650W        W69209   6.420  37.416  11.025
 5651W        W69210   6.311  15.291   3.361
 5652W        W69211  44.469  18.636   0.269
 5653W        W69212   1.414  25.575  13.860
 5654W        W69213  33.406   6.193  10.067
 5655W        W69214   9.718  13.682   4.818
 5656W        W69215   0.361  21.135   1.252
 5657W        W69216  25.162  15.258  14.362
 5658W        W69217   7.215  41.867   1.886
 5659W        W69218   6.732  41.351   3.780
 5660W        W69219  10.676  31.068   4.810
 5661W        W69220  43.915  11.659   3.149
 5662W        W69221  25.669  17.787   3.729
 5663W        W69222   1.737  35.105   4.243
 5664W        W69223  39.055  40.831  13.505
 5665W        W69224   6.845   2.469  14.011
 5666W        W69225  22.726  29.171  13.033
 5667W        W69226  39.322   2.725  14.300
 5668W        W69227   6.322  13.601  12.471
 5669W        W69228  15.263  40.323  12.453
 5670W        W69229  29.447  44.758   2.381
 5671W        W69230  10.269  36.015   4.717
 5672W        W69231  13.288  17.257  14.410
 5673W        W69232  13.732  16.653  11.534
 5674W        W69233   0.777   5.767  12.094
 5675W        W69234  17.652   2.722  11.535
 5676W        W69235   6.395   8.810  10.552
 5677W        W69236  12.252  30.527   0.761
 5678W        W69237  30.986   9.707   0.349
 5679W        W69238  19.581   4.430   3.325
 5680W        W69239  13.162   5.282  10.532
 5681W        W69240  32.045  40.997   1.696
 5682W        W69241  43.418   2.427   0.795
 5683W        W69242  27.670  41.483  13.043
 5684W        W69243   5.233  11.712  14.778
 5685W        W69244  21.534  35.980  14.309
 5686W        W69245  33.083   5.758   1.838
 5687W        W69246  23.549  39.443   2.345
 5688W        W69247  11.688   6.392  11.902
 5689W        W69248  44.912  14.731  14.993
 5690W        W69249  39.316  18.748   3.789
 5691W        W69250  22.154  15.628   1.415
 5692W        W69251   7.401  40.026   3.336
 5693W        W69252  39.521  24.722   2.751
 5694W        W69253  12.741  19.767  12.933
 5695W        W69254  33.905  41.452   0.737
 5696W        W69255  42.801  18.076   2.260
 5697W        W69256  11.204   5.826   2.344
 5698W        W69257   4.703   6.187  14.945
 5699W        W69258  40.514  42.518   3.268
 5700W        W69259  17.765   7.189   1.449
 5701W        W69260  43.910   8.724   1.239
 5702W        W69261  37.503   2.938   1.751
 5703W        W69262  44.006   7.907  11.117
 5704W        W69263  36.368  16.584  13.332
 5705W        W69264  12.625  26.621  13.408
 5706W        W69265  27.006   5.381  12.963
 5707W        W69266  38.421  41.922   3.802
 5708W        W69267   2.259  33.995  14.324
 5709W        W69268  18.623   9.386  13.462
 5710W        W69269  13.215  10.218  11.995
 5711W        W69270  38.475  11.769  11.993
 5712W        W69271  41.345  39.910  13.993
 5713W        W69272  21.115  20.537  12.826
 5714W        W69273   5.761  19.592  12.532
 5715W        W69274  33.624  13.284  12.910
 5716W        W69275  22.054  20.547   2.271
 5717W        W69276  35.895   3.244  14.810
 5718W        W69277  41.452  12.650   3.862
 5719W        W69278  44.363  12.727   1.404
 5720W        W69279   0.375   4.894   3.158
 5721W        W69280  18.580  16.178   2.695
 5722W        W69281   6.248  10.231   3.213
 5723W        W69282  26.470  42.907   2.767
 5724W        W69283  10.329  16.208  13.477
 5725W        W69284  35.874  10.747  11.117
 5726W        W69285  18.677  24.676   4.666
 5727W        W69286  10.371  20.261   3.659
 5728W        W69287  39.939  14.163   3.700
 5729W        W69288   1.431   3.330   0.323
 5730W        W69289  17.620  26.972  14.006
 5731W        W69290  22.531  36.993  12.969
 5732W        W69291   7.696  35.382   4.289
 5733W        W69292  13.129  18.596  14.410
 5734W        W69293  41.498   6.903   2.774
 5735W        W69294  19.747  34.449  14.379
 5736W        W69295  39.908  19.611  13.495
 5737W        W69296  19.614   8.262   0.963
 5738W        W69297  40.534  13.254  11.395
 5739W        W69298  44.814  36.970  12.339
 5740W        W69299  23.995   4.204   1.285
 5741W        W69300  23.640  14.691  10.956
 5742W        W69301  42.477  12.740   4.256
 5743W        W69302  44.302  15.307  10.630
 5744W        W69303  36.996  39.408   2.187
 5745W        W69304  22.510  25.055   4.659
 5746W        W69305  28.134  42.443  14.881
 5747W        W69306  44.495  22.244  13.916
 5748W        W69307  14.284   3.860  11.093
 5749W        W69308  30.575   8.320   1.827
 5750W        W69309  33.034   9.230   0.342
 5751W        W69310  40.801  37.887   3.344
 5752W        W69311  41.357   8.687  10.410
 5753W        W69312   0.750  24.023  12.971
 5754W        W69313  35.958  27.093  11.438
 5755W        W69314  37.357  29.158   0.749
 5756W        W69315  21.696  18.666   9.972
 5757W        W69316  36.496  32.890   0.324
 5758W        W69317  41.805  40.485   3.340
 5759W        W69318   8.667  34.928  11.096
 5760W        W69319  43.959  34.082   0.835
 5761W        W69320   7.795   0.283   2.329
 5762W        W69321   3.380  33.000  11.497
 5763W        W69322  10.304  42.489  11.969
 5764W        W69323  40.032   7.889  12.565
 5765W        W69324  26.064   0.482   0.922
 5766W        W69325   2.470   2.863  10.502
 5767W        W69326  22.632  29.547   2.375
 5768W        W69327  23.135  37.553  14.029
 5769W        W69328  40.986  15.138   4.312
 5770W        W69329  13.340  26.606   0.962
 5771W        W69330  33.520  26.673   2.186
 5772W        W69331  37.021  12.128  10.950
 5773W        W69332   5.708  15.199   3.281
 5774W        W69333  35.450   0.975  11.932
 5775W        W69334   3.284  20.268  13.931
 5776W        W69335  37.525  28.639   3.663
 5777W        W69336   5.767   6.689   1.417
 5778W        W69337  22.598  14.238  14.454
 5779W        W69338  11.713   5.866   1.885
 5780W        W69339  16.122   6.879  13.051
 5781W        W69340   8.865  15.160   3.160
 5782W        W69341  21.700  31.098  11.599
 5783W        W69342  29.928  38.036  11.599
 5784W        W69343   2.826  10.372   1.803
 5785W        W69344  34.577  21.545   1.300
 5786W        W69345  24.483  39.376   1.764
 5787W        W69346  23.668  35.910   3.655
 5788W        W69347  30.990  35.441   2.898
 5789W        W69348   3.838   3.275  10.569
 5790W        W69349   4.373  36.555  10.498
 5791W        W69350  21.187   6.884   0.412
 5792W        W69351  24.177   2.959   0.338
 5793W        W69352  42.524  21.137  10.949
 5794W        W69353  43.847  18.611   3.662
 5795W        W69354  10.745  28.084   1.726
 5796W        W69355  13.208  11.156  11.508
 5797W        W69356  15.693   2.964   4.792
 5798W        W69357  28.091  11.679   4.173
 5799W        W69358  12.830  26.483   0.752
 5800W        W69359  36.357  21.541  13.023
 5801W        W69360  44.912  30.104   3.218
 5802W        W69361  21.535  22.735  11.584
 5803W        W69362  27.503  20.704   2.819
 5804W        W69363  13.771  35.922  14.417
 5805W        W69364   1.481  42.493  14.457
 5806W        W69365   5.848  23.005   2.898
 5807W        W69366  11.864  12.750   0.427
 5808W        W69367  35.099  33.916  13.375
 5809W        W69368  21.700  39.483   4.329
 5810W        W69369  43.880  28.443   1.242
 5811W        W69370   0.350   2.457   3.656
 5812W        W69371  36.073  30.492   4.756
 5813W        W69372  40.942   2.392  14.481
 5814W        W69373  27.125   9.765  11.113
 5815W        W69374  14.709  44.485   4.637
 5816W        W69375  44.445  21.251   4.249
 5817W        W69376  31.509  37.411  13.859
 5818W        W69377  34.964  15.328   1.324
 5819W        W69378  36.348   3.929   4.670
 5820W        W69379  33.054  13.341   2.709
 5821W        W69380   9.314   6.823   3.860
 5822W        W69381  39.457  26.998   2.199
 5823W        W69382  39.860  23.543  10.896
 5824W        W69383  28.992  25.669  11.018
 5825W        W69384  17.733   7.867   4.250
 5826W        W69385  12.711   6.865  14.336
 5827W        W69386  16.671  30.113  13.321
 5828W        W69387  31.921  18.094  13.336
 5829W        W69388  19.155   0.394  12.089
 5830W        W69389   2.964   5.781   3.710
 5831W        W69390   0.339  37.066  13.496
 5832W        W69391  20.264  30.597   3.810
 5833W        W69392  25.215  40.317   1.220
 5834W        W69393   4.875   2.366  12.866
 5835W        W69394  31.451  19.645   1.778
 5836W        W69395  35.099  32.400  11.032
 5837W        W69396   5.786  23.493   4.126
 5838W        W69397   5.346  14.286  13.419
 5839W        W69398  16.624  23.499   0.896
 5840W        W69399  27.140   2.235  11.862
 5841W        W69400  34.010   6.371  11.987
 5842W        W69401  39.939  21.053  14.422
 5843W        W69402   7.751  18.620  11.025
 5844W        W69403  22.006   6.332  11.411
 5845W        W69404  19.158   9.210   1.402
 5846W        W69405   1.261   2.301   0.279
 5847W        W69406  18.733  44.346  13.466
 5848W        W69407  37.425  20.547  11.411
 5849W        W69408  12.773  42.989   1.226
 5850W        W69409   3.861  38.867  12.460
 5851W        W69410  11.646  37.081  11.981
 5852W        W69411  40.845  37.374   5.283
 5853W        W69412   9.863  36.445  11.894
 5854W        W69413   0.442   1.451   4.610
 5855W        W69414   3.872  44.306   2.883
 5856W        W69415  41.448  30.615   3.313
 5857W        W69416  33.026   2.800  12.024
 5858W        W69417   0.971  31.913   4.122
 5859W        W69418   4.352  43.401   2.337
 5860W        W69419  15.193  16.749  14.967
 5861W        W69420  10.744  24.137  11.488
 5862W        W69421  10.681  26.545  11.052
 5863W        W69422  41.406  27.590   4.165
 5864W        W69423   7.870  43.329  10.957
 5865W        W69424  40.492   4.391   2.400
 5866W        W69425  42.909   1.785   2.288
 5867W        W69426  21.560  35.439   1.784
 5868W        W69427   2.264  40.877   2.299
 5869W        W69428  43.018   7.708  13.855
 5870W        W69429  30.093  16.286   1.285
 5871W        W69430  14.651   1.433   3.722
 5872W        W69431  20.612  17.220  13.962
 5873W        W69432  19.240  20.172   4.820
 5874W        W69433  37.881  36.975  11.007
 5875W        W69434   1.255  14.192   0.256
 5876W        W69435  19.056  33.907  10.604
 5877W        W69436  43.473   2.414  11.043
 5878W        W69437   6.888  15.819   1.337
 5879W        W69438  22.139  23.500   3.163
 5880W        W69439  17.660  15.274   2.179
 5881W        W69440  10.826   7.694  13.346
 5882W        W69441  31.907  22.019   3.862
 5883W        W69442  35.062  25.181   1.356
 5884W        W69443  29.949  40.394   5.161
 5885W        W69444  26.586  22.248   1.873
 5886W        W69445  34.110  43.993   3.801
 5887W        W69446  23.177  16.761   1.796
 5888W        W69447   9.377  30.116  10.416
 5889W        W69448  30.007  24.673   0.745
 5890W        W69449   9.260  18.194   2.717
 5891W        W69450   5.397  44.798   2.242
 5892W        W69451  17.604   6.902  14.983
 5893W        W69452  21.179  41.875  14.275
 5894W        W69453  17.725  30.642  13.511
 5895W        W69454   9.327  12.725   1.225
 5896W        W69455  25.146   1.813  13.326
 5897W        W69456   0.838  20.581  12.851
 5898W        W69457  34.973  29.015  10.962
 5899W        W69458  22.625   1.827  14.300
 5900W        W69459  23.587  28.119   0.391
 5901W        W69460  36.902  19.102   4.768
 5902W        W69461  14.153  21.556  12.391
 5903W        W69462  11.129  10.800   0.302
 5904W        W69463   9.379  13.343   1.743
 5905W        W69464  44.421   9.862  13.452
 5906W        W69465  26.605  29.972   2.225
 5907W        W69466  27.011  17.642  14.451
 5908W        W69467   5.690  40.046   0.267
 5909W        W69468   4.403  32.002   2.286
 5910W        W69469  36.848  20.153   3.674
 5911W        W69470   1.830  20.714  12.033
 5912W        W69471  34.882   8.403  13.865
 5913W        W69472  34.416  39.813  14.005
 5914W        W69473  30.144  29.998   1.376
 5915W        W69474   8.160  26.494   3.770
 5916W        W69475  42.496  44.328  12.401
 5917W        W69476  19.760  25.503   2.835
 5918W        W69477   7.769  28.581  13.804
 5919W        W69478  19.613  29.602   0.482
 5920W        W69479  42.932  32.967  13.529
 5921W        W69480  17.557  23.032  11.960
 5922W        W69481  27.006  42.783   2.255
 5923W        W69482  10.220   9.696  10.111
 5924W        W69483  12.640  22.129   0.254
 5925W        W69484  34.062  11.656  13.510
 5926W        W69485  16.191  37.004   4.657
 5927W        W69486  34.004  31.579   2.418
 5928W        W69487  38.400  32.415  13.034
 5929W        W69488  17.583  10.792  13.005
 5930W        W69489   9.330  28.182   4.278
 5931W        W69490   7.686  10.710  12.915
 5932W        W69491  37.024  21.246  12.404
 5933W        W69492  27.181   0.479   4.205
 5934W        W69493  30.603  16.640   4.764
 5935W        W69494  40.389  36.368   4.293
 5936W        W69495  42.866  12.717  14.997
 5937W        W69496  19.053  33.104  10.974
 5938W        W69497  39.908  16.764   4.698
 5939W        W69498  32.107  25.062   1.785
 5940W        W69499   9.689   8.372  13.976
 5941W        W69500  27.977  39.454  10.589
 5942W        W69501   7.836  25.554   2.300
 5943W        W69502   8.706  33.454   1.838
 5944W        W69503  38.444   4.841  12.878
 5945W        W69504  10.797  15.684   0.854
 5946W        W69505  36.040  37.515   1.427
 5947W        W69506   1.815  18.164  13.355
 5948W        W69507  18.703  12.150   1.725
 5949W        W69508  10.186  12.214  10.614
 5950W        W69509  10.223  32.601  10.436
 5951W        W69510  43.880   8.190  12.960
 5952W        W69511  24.062  21.630   3.316
 5953W        W69512   9.356  35.071   2.344
 5954W        W69513  25.592  26.585   2.329
 5955W        W69514   0.273  31.581  13.952
 5956W        W69515  26.656  33.401  13.829
 5957W        W69516   3.896  36.413  10.593
 5958W        W69517  24.537  12.705   4.189
 5959W        W69518   4.334  40.870  11.374
 5960W        W69519  41.931  39.539   3.797
 5961W        W69520   4.411  12.850   4.176
 5962W        W69521  39.514  37.854   3.727
 5963W        W69522  11.373  39.032   1.338
 5964W        W69523  26.502  35.074   0.740
 5965W        W69524   1.463   1.442   4.707
 5966W        W69525  44.779  17.172   4.755
 5967W        W69526  24.620  15.118  10.890
 5968W        W69527  27.454   6.908   4.169
 5969W        W69528  33.964  19.253  11.539
 5970W        W69529  11.302  32.121  13.315
 5971W        W69530  18.578   7.744  11.085
 5972W        W69531  20.095  39.815   3.716
 5973W        W69532  32.121  37.948   4.294
 5974W        W69533  41.515  10.279  11.581
 5975W        W69534  37.944  43.504   3.151
 5976W        W69535  14.192  38.065   3.324
 5977W        W69536  40.544   0.461   0.920
 5978W        W69537  12.659  32.057   2.335
 5979W        W69538  40.837  17.223  10.915
 5980W        W69539  15.252   2.332  12.529
 5981W        W69540  13.687  24.977  13.400
 5982W        W69541  34.018   8.844  14.773
 5983W        W69542  18.780  36.403   4.239
 5984W        W69543  34.461  29.090   4.617
 5985W        W69544   5.391   4.865   4.167
 5986W        W69545  44.424  11.644  14.469
 5987W        W69546  37.005   0.432   3.213
 5988W        W69547  42.948  29.061   4.808
 5989W        W69548  25.185  35.854  12.925
 5990W        W69549  17.265  36.842  14.287
 5991W        W69550  21.148  37.015  12.003
 5992W        W69551  27.085  24.073   3.297
 5993W        W69552  33.891  30.638   0.266
 5994W        W69553  27.124  42.459   3.245
 5995W        W69554  15.805  25.501   4.263
 5996W        W69555  12.824  15.691   4.692
 5997W        W69556  25.048  34.383  12.053
 5998W        W69557   2.940  41.996  11.895
 5999W        W69558  20.555  41.378   0.830
 6000W        W69559  19.138  15.288   0.339
 6001W        W69560   2.904  40.012  14.763
 6002W        W69561  15.303  33.467  12.040
 6003W        W69562  31.107  23.733  13.018
 6004W        W69563  23.515  36.567  12.566
 6005W        W69564  10.317  40.431   1.235
 6006W        W69565  11.710   1.243  13.014
 6007W        W69566   7.800  16.271  11.985
 6008W        W69567  17.681  36.086  14.428
 6009W        W69568  44.260  34.022   3.756
 6010W        W69569  14.306  20.053   5.316
 6011W        W69570  39.553  20.625  13.047
 6012W        W69571  28.932  44.962   1.257
 6013W        W69572  23.996   3.774  12.094
 6014W        W69573   6.300  20.618  13.359
 6015W        W69574  17.598  11.320  10.461
 6016W        W69575  39.821  23.668   3.381
 6017W        W69576  17.275  26.468   2.268
 6018W        W69577   3.414  14.589   0.340
 6019W        W69578  44.502   5.220  14.418
 6020W        W69579  43.421  38.824   3.734
 6021W        W69580  33.469  39.534   0.811
 6022W        W69581   7.837  43.472   2.379
 6023W        W69582  22.583  12.668  11.066
 6024W        W69583  17.237  16.765   1.886
 6025W        W69584   4.760  20.569   2.884
 6026W        W69585  39.380  35.477   2.723
 6027W        W69586  22.140   8.247  10.502
 6028W        W69587  12.619   6.848  14.942
 6029W        W69588  10.270  37.474   3.722
 6030W        W69589  42.853   8.841  10.979
 6031W        W69590  16.749   8.323   1.899
 6032W        W69591   3.946  35.398   4.694
 6033W        W69592   0.340   3.259  11.940
 6034W        W69593  17.783  25.072  13.791
 6035W        W69594  37.877   3.299   1.271
 6036W        W69595  38.523  27.546   3.784
 6037W        W69596   4.891  33.998   3.153
 6038W        W69597  39.042  12.714  12.491
 6039W        W69598   6.400   7.350  11.038
 6040W        W69599  27.140  30.618   0.875
 6041W        W69600   3.278  38.373   4.699
 6042W        W69601   7.369  35.894  10.488
 6043W        W69602   7.380  38.966  10.934
 6044W        W69603  35.957   2.462   2.191
 6045W        W69604  16.688  33.999  14.326
 6046W        W69605   5.390  23.087   4.246
 6047W        W69606  28.095  10.870   4.715
 6048W        W69607  42.887  24.497   3.221
 6049W        W69608  13.106  38.571   1.776
 6050W        W69609  23.222   8.812  14.806
 6051W        W69610   7.778  11.673   2.853
 6052W        W69611  42.939   8.655  10.567
 6053W        W69612  38.412  31.501  13.830
 6054W        W69613  22.549  16.114   3.186
 6055W        W69614   0.792  24.079  14.340
 6056W        W69615  17.769  28.569  11.371
 6057W        W69616  41.805  35.417   1.848
 6058W        W69617   4.359  34.431  14.500
 6059W        W69618  10.276  20.096  14.442
 6060W        W69619   2.821   7.850  12.340
 6061W        W69620   4.740  34.389   1.347
 6062W        W69621  24.685   7.181  12.361
 6063W        W69622  13.287  44.787  11.448
 6064W        W69623  29.052   2.285   3.219
 6065W        W69624  30.957  26.692   3.711
 6066W        W69625  32.121  40.512   0.908
 6067W        W69626  25.132  26.027  14.276
 6068W        W69627  37.953  15.327  12.933
 6069W        W69628  44.450  12.804  10.106
 6070W        W69629  14.791  36.995   3.166
 6071W        W69630  31.118  14.737  11.466
 6072W        W69631  36.389  21.676  12.346
 6073W        W69632  10.795  17.667  13.980
 6074W        W69633  38.959   1.794   0.824
 6075W        W69634  30.004  25.570   4.296
 6076W        W69635  26.979  33.435  10.639
 6077W        W69636  44.408  33.055   1.357
 6078W        W69637   1.468   1.887  11.997
 6079W        W69638  15.785  21.202  12.418
 6080W        W69639  25.524  36.588  11.908
 6081W        W69640  25.177  33.959  10.516
 6082W        W69641   5.276  22.181  11.524
 6083W        W69642  30.625  10.838  14.427
 6084W        W69643  26.508   0.332   0.468
 6085W        W69644  29.438  31.114   3.210
 6086W        W69645  39.993   2.448  14.830
 6087W        W69646  36.554  25.513  11.497
 6088W        W69647  21.112   8.800   3.850
 6089W        W69648  38.827  19.759  12.063
 6090W        W69649  14.793  12.195  14.888
 6091W        W69650   6.206   3.865  13.543
 6092W        W69651  16.317   5.918  11.004
 6093W        W69652   5.318  11.243  11.891
 6094W        W69653   9.180  34.092  11.978
 6095W        W69654  11.730  29.453  14.384
 6096W        W69655  27.508  24.196   1.434
 6097W        W69656  30.413  20.263  13.860
 6098W        W69657  11.212  20.042   3.147
 6099W        W69658  44.330  44.400   5.301
 6100W        W69659  35.852  42.788   0.263
 6101W        W69660   0.338  39.044  11.598
 6102W        W69661  33.930   2.810   3.738
 6103W        W69662  34.485  38.534   1.872
 6104W        W69663  12.751  15.312  12.559
 6105W        W69664   9.781  20.677  14.399
 6106W        W69665  14.633  44.832   3.842
 6107W        W69666  19.631   9.174   1.828
 6108W        W69667   7.807  13.785  12.827
 6109W        W69668  19.090  13.775   1.424
 6110W        W69669  24.103  25.710  13.048
 6111W        W69670  18.210   3.325  11.859
 6112W        W69671  24.207   9.220   0.434
 6113W        W69672  40.935  44.980  10.551
 6114W        W69673   8.681  38.961  13.331
 6115W        W69674  13.281  21.721   4.218
 6116W        W69675   3.370   7.801  13.315
 6117W        W69676  23.512   0.415   2.768
 6118W        W69677  35.485  25.093  11.916
 6119W        W69678   6.327  38.448   3.646
 6120W        W69679  27.571  36.525   0.425
 6121W        W69680   8.846  19.604   3.846
 6122W        W69681   4.370  10.737   4.349
 6123W        W69682  13.161   0.982  14.921
 6124W        W69683  16.251  28.534   3.200
 6125W        W69684  42.005   3.777   4.206
 6126W        W69685  25.644  18.127   3.236
 6127W        W69686  20.539  33.036  14.873
 6128W        W69687  41.374  28.980   1.730
 6129W        W69688  42.864  16.134   0.434
 6130W        W69689   5.322  20.760  14.891
 6131W        W69690  28.665  30.462  13.793
 6132W        W69691  11.812  42.342  11.875
 6133W        W69692   2.250  22.556   1.290
 6134W        W69693  19.610  20.541   1.399
 6135W        W69694  14.706  31.451  14.869
 6136W        W69695  16.753  37.973   4.603
 6137W        W69696   3.429  22.210  11.986
 6138W        W69697   0.744   9.316  12.887
 6139W        W69698   1.262  23.076   1.360
 6140W        W69699  19.553  34.500  11.886
 6141W        W69700  19.575  28.058  11.979
 6142W        W69701  44.858   1.240  13.885
 6143W        W69702  32.442  36.371   3.287
 6144W        W69703  23.700  14.719   3.270
 6145W        W69704  35.001  42.523  11.892
 6146W        W69705  40.445   2.396  11.452
 6147W        W69706  25.989  10.641   0.807
 6148W        W69707  25.545  31.055   1.376
 6149W        W69708  35.968  29.073  12.915
 6150W        W69709  37.083  11.294  11.127
 6151W        W69710  17.769  23.030   0.804
 6152W        W69711  37.452  21.706  14.793
 6153W        W69712   6.290  26.565   1.904
 6154W        W69713  24.693   9.340  14.023
 6155W        W69714   1.279  13.136  10.920
 6156W        W69715  30.049  22.617   1.369
 6157W        W69716  30.058   6.250   1.415
 6158W        W69717  37.851  40.840   3.277
 6159W        W69718   2.263   7.821   4.784
 6160W        W69719   5.764  12.296   1.803
 6161W        W69720   6.824  27.473  11.097
 6162W        W69721  16.093  26.160   5.650
 6163W        W69722  42.470   1.338  12.004
 6164W        W69723  22.689  32.981   1.922
 6165W        W69724  42.364   7.905  11.928
 6166W        W69725  40.479  29.104  14.515
 6167W        W69726  14.328   8.358   3.851
 6168W        W69727  44.837  31.477  13.308
 6169W        W69728  20.596  17.684   0.926
 6170W        W69729  35.382   4.838   4.706
 6171W        W69730  30.457  13.108  12.411
 6172W        W69731  10.822  30.485  11.584
 6173W        W69732  35.484   9.226   2.871
 6174W        W69733  17.711  18.771   2.681
 6175W        W69734  19.151  18.755  11.552
 6176W        W69735  16.640  29.069  13.924
 6177W        W69736  11.202  28.659  12.355
 6178W        W69737   1.811   7.272  11.392
 6179W        W69738  40.455  40.828  13.445
 6180W        W69739  12.263  30.977   3.213
 6181W        W69740  25.070  43.985   2.854
 6182W        W69741  37.558  19.543  13.328
 6183W        W69742   3.264   9.191   3.679
 6184W        W69743  27.659  29.583   4.701
 6185W        W69744  22.514  20.094   2.218
 6186W        W69745  23.599  44.809   3.847
 6187W        W69746  42.826  34.099   4.185
 6188W        W69747   2.730  11.763   1.783
 6189W        W69748   5.739   4.400  14.348
 6190W        W69749  12.154  39.430  11.101
 6191W        W69750   9.780  28.493  11.884
 6192W        W69751  44.497  13.120  10.534
 6193W        W69752  24.050  20.722  12.468
 6194W        W69753  36.571  18.765   2.383
 6195W        W69754  24.661  30.622  10.618
 6196W        W69755  25.580   4.294  13.312
 6197W        W69756  40.465   3.410  10.011
 6198W        W69757   5.878  27.116  13.869
 6199W        W69758  23.527  20.714   1.310
 6200W        W69759   0.832  40.917  11.062
 6201W        W69760  27.003  30.488  10.456
 6202W        W69761   8.658  30.086   3.708
 6203W        W69762   3.949  25.601   3.190
 6204W        W69763  29.987  39.550  13.380
 6205W        W69764  43.924  13.223  12.346
 6206W        W69765  33.521  35.434  13.330
 6207W        W69766  28.183  30.448   3.369
 6208W        W69767  30.460   9.753  11.544
 6209W        W69768  26.959   4.760  11.538
 6210W        W69769  13.621  20.741  13.441
 6211W        W69770  25.015  30.053  14.412
 6212W        W69771  17.133  40.517   2.850
 6213W        W69772  44.470  14.692   1.408
 6214W        W69773   4.846  25.062  12.476
 6215W        W69774  23.733  38.526  14.420
 6216W        W69775  10.793   6.791  12.858
 6217W        W69776  12.277  39.378  12.456
 6218W        W69777  31.976  27.037  12.448
 6219W        W69778  43.912  21.216   4.252
 6220W        W69779  33.455  27.101   2.337
 6221W        W69780  23.621  38.915  13.493
 6222W        W69781  32.533  23.085  13.346
 6223W        W69782  10.142  24.486   2.278
 6224W        W69783  18.653  36.581   0.303
 6225W        W69784  32.973  44.293   2.285
 6226W        W69785  27.197   5.732   3.845
 6227W        W69786  33.920   2.727   0.469
 6228W        W69787   8.162  38.850   2.788
 6229W        W69788  24.186  31.943   3.819
 6230W        W69789  20.188  19.598   3.732
 6231W        W69790   3.855  19.228   4.833
 6232W        W69791   4.846  22.066  13.321
 6233W        W69792  21.032  40.403   4.653
 6234W        W69793  38.965   0.476   2.416
 6235W        W69794  25.085  11.179  14.794
 6236W        W69795  41.899  37.388  11.503
 6237W        W69796  11.134  13.716  13.543
 6238W        W69797  18.600  15.306  14.004
 6239W        W69798   1.433  33.581   1.752
 6240W        W69799   3.753  19.048  14.339
 6241W        W69800  35.409  22.037  12.944
 6242W        W69801  38.503   9.752  13.517
 6243W        W69802  43.003  31.479  14.350
 6244W        W69803  27.481  16.677  14.872
 6245W        W69804  35.417  12.211  10.154
 6246W        W69805  24.717   6.196   0.774
 6247W        W69806  20.252  16.572  11.985
 6248W        W69807  16.643  38.502   2.365
 6249W        W69808  31.072  16.788   0.763
 6250W        W69809   0.272   6.792   3.360
 6251W        W69810  15.720  22.134   3.260
 6252W        W69811  23.611   8.716  12.978
 6253W        W69812  10.310  17.188  11.483
 6254W        W69813   1.427   3.905  13.801
 6255W        W69814  33.392  27.685   4.727
 6256W        W69815  18.285   9.233  14.364
 6257W        W69816  30.080  27.106  14.349
 6258W        W69817  30.579  18.272  12.029
 6259W        W69818  29.134  24.229   2.821
 6260W        W69819  14.288   5.700  10.924
 6261W        W69820  22.116  35.586  12.524
 6262W        W69821  44.360  32.889   1.814
 6263W        W69822   7.190  26.045   4.319
 6264W        W69823  29.934   2.321   0.252
 6265W        W69824  27.163   5.752  11.599
 6266W        W69825  15.186  40.417   3.245
 6267W        W69826   8.717  26.558   1.928
 6268W        W69827  39.505  12.332   3.776
 6269W        W69828  41.311  25.063  12.074
 6270W        W69829  41.444  30.502   4.203
 6271W        W69830  34.541  35.906   4.713
 6272W        W69831  43.003  31.511   0.798
 6273W        W69832   5.902  17.183  11.096
 6274W        W69833   2.462  17.151   2.357
 6275W        W69834  28.649  36.939  14.417
 6276W        W69835  30.142  10.747   3.274
 6277W        W69836  25.634  21.042   3.387
 6278W        W69837  11.822  14.689   0.933
 6279W        W69838   2.433  40.808   2.829
 6280W        W69839  16.635  26.563  14.882
 6281W        W69840  19.701  43.957   2.726
 6282W        W69841  42.389  29.147   1.933
 6283W        W69842  14.251   6.256   2.289
 6284W        W69843  34.426  20.583   4.302
 6285W        W69844   5.870  23.044   2.206
 6286W        W69845  42.293  33.609   4.683
 6287W        W69846  23.197  31.422  10.423
 6288W        W69847  14.698   1.874   4.612
 6289W        W69848  39.853   7.184   2.840
 6290W        W69849  22.656  39.033   1.446
 6291W        W69850  22.709  17.114   1.284
 6292W        W69851  24.113   5.249  13.917
 6293W        W69852  32.448  24.045  12.862
 6294W        W69853  39.993  18.090   0.396
 6295W        W69854  44.954   9.388  12.077
 6296W        W69855  16.288   9.801   2.269
 6297W        W69856  38.820  11.300   3.663
 6298W        W69857  35.491  23.502   2.675
 6299W        W69858  39.491  21.737   3.221
 6300W        W69859   3.829   4.756  14.287
 6301W        W69860   4.299   3.270   4.675
 6302W        W69861  43.874  43.426  14.767
 6303W        W69862   1.736  27.445   1.839
 6304W        W69863  21.703   2.848  11.399
 6305W        W69864  42.325  32.063   3.155
 6306W        W69865  33.911  31.070  11.499
 6307W        W69866  33.448  32.098   4.157
 6308W        W69867  16.189  21.598  11.414
 6309W        W69868  29.474  42.341   3.232
 6310W        W69869  11.829  19.076   3.656
 6311W        W69870   5.794  37.930   2.277
 6312W        W69871  42.409  16.190   1.421
 6313W        W69872  32.103  19.124   4.746
 6314W        W69873   3.224  37.477   2.760
 6315W        W69874   2.361   0.942  13.993
 6316W        W69875  27.969   7.387   4.716
 6317W        W69876  18.207  29.062   1.731
 6318W        W69877  42.787  19.054  10.410
 6319W        W69878   6.849  17.574   2.318
 6320W        W69879  14.742  42.776  13.358
 6321W        W69880  44.399  29.571   3.805
 6322W        W69881  31.578  18.124  12.416
 6323W        W69882   2.257  11.302  14.857
 6324W        W69883  10.205  43.893   2.739
 6325W        W69884  40.805  36.561  12.394
 6326W        W69885  35.427  39.356  14.343
 6327W        W69886  15.210  31.486   4.349
 6328W        W69887  41.507  32.039  10.924
 6329W        W69888  29.925  38.925  11.036
 6330W        W69889  21.650   3.308   3.229
 6331W        W69890  11.368  36.946  13.499
 6332W        W69891  33.420  40.510   3.316
 6333W        W69892   3.876  38.941   3.364
 6334W        W69893  27.500   7.718   4.197
 6335W        W69894   7.677   1.254   0.335
 6336W        W69895  17.725  28.085  14.281
 6337W        W69896  35.597  18.681  11.910
 6338W        W69897  21.057  12.654  14.762
 6339W        W69898  33.918   9.253   4.118
 6340W        W69899   3.267  18.252   4.164
 6341W        W69900   8.769  11.845   0.827
 6342W        W69901   7.907  34.491   2.207
 6343W        W69902   8.241  20.111  13.008
 6344W        W69903  25.104  32.141  12.384
 6345W        W69904  28.494   2.882   1.431
 6346W        W69905   7.303  35.905  13.926
 6347W        W69906  32.078   8.781  11.942
 6348W        W69907  24.986  18.145   4.329
 6349W        W69908  29.149  37.957   4.275
 6350W        W69909  10.249   4.722   4.749
 6351W        W69910  40.820  24.616  12.031
 6352W        W69911   3.243   0.871   4.298
 6353W        W69912  32.449  43.829   1.336
 6354W        W69913  13.271  12.656   3.781
 6355W        W69914   4.727  31.940  14.769
 6356W        W69915  16.651   9.337   2.265
 6357W        W69916  32.027  44.985   2.815
 6358W        W69917  13.177  23.063  13.969
 6359W        W69918  29.423  43.995  13.527
 6360W        W69919  16.107  23.133   2.340
 6361W        W69920  31.524   6.409   2.840
 6362W        W69921  42.954  31.948   2.269
 6363W        W69922  10.285   0.426  14.412
 6364W        W69923  26.530  28.554   4.716
 6365W        W69924  32.602  27.035   2.368
 6366W        W69925  26.175  41.960   3.867
 6367W        W69926  18.236  26.023  11.127
 6368W        W69927  16.594  35.890   2.361
 6369W        W69928  40.528  12.755  12.473
 6370W        W69929   5.231  10.826  13.529
 6371W        W69930   7.417   1.281  14.295
 6372W        W69931  22.534  33.979   2.334
 6373W        W69932   8.176  10.224   4.754
 6374W        W69933  38.420   7.394  13.946
 6375W        W69934  30.450  29.627   0.823
 6376W        W69935   0.321  13.135   3.287
 6377W        W69936  14.133  35.402   0.442
 6378W        W69937  10.696  18.630   2.895
 6379W        W69938  23.157  19.130  11.954
 6380W        W69939  36.886  24.548   3.688
 6381W        W69940  40.893  38.409   3.263
 6382W        W69941   8.383   9.793   4.230
 6383W        W69942  18.561  10.162  13.374
 6384W        W69943  28.005   1.344  14.505
 6385W        W69944  30.643  25.012  10.472
 6386W        W69945  16.661  36.488  13.969
 6387W        W69946   3.385  12.677  14.498
 6388W        W69947  27.522  29.593   3.291
 6389W        W69948  24.529  37.499   0.871
 6390W        W69949   6.717   2.725   3.349
 6391W        W69950  20.182  39.506  14.362
 6392W        W69951  11.159   9.315  14.952
 6393W        W69952  43.006   4.920   0.451
 6394W        W69953  29.980   5.388   2.330
 6395W        W69954  43.491  32.492   3.694
 6396W        W69955  35.578  27.635  10.905
 6397W        W69956  43.941  28.168  12.042
 6398W        W69957  36.412  21.592  14.768
 6399W        W69958  11.313  16.619  11.041
 6400W        W69959  39.844  11.702  14.307
 6401W        W69960  10.717  18.615  14.796
 6402W        W69961   1.864  26.562   3.651
 6403W        W69962  26.101   6.798   4.320
 6404W        W69963  33.426  15.140   4.162
 6405W        W69964  42.422  16.577  14.295
 6406W        W69965  25.185  35.004  12.884
 6407W        W69966  10.222  44.761  10.562
 6408W        W69967  44.354  44.418   1.278
 6409W        W69968  43.767   5.350  11.965
 6410W        W69969  30.429  11.370  13.989
 6411W        W69970  31.969   2.290   3.720
 6412W        W69971  28.020  42.843   9.975
 6413W        W69972  27.064  29.585  13.455
 6414W        W69973  18.215  34.558   3.736
 6415W        W69974  11.627  17.664   3.821
 6416W        W69975  39.546  17.573   4.211
 6417W        W69976  31.940  11.833  11.391
 6418W        W69977  30.128  10.692   3.633
 6419W        W69978   6.711  37.498  11.470
 6420W        W69979  25.670  15.238  10.479
 6421W        W69980   8.379  36.399   0.944
 6422W        W69981  37.449  29.155  12.897
 6423W        W69982  26.487   8.319  12.931
 6424W        W69983  36.563  31.622  10.449
 6425W        W69984  21.534  44.900  12.570
 6426W        W69985  22.682  11.271   3.235
 6427W        W69986  20.217  21.149   2.801
 6428W        W69987  13.832  25.668   2.790
 6429W        W69988  16.110  26.541   1.767
 6430W        W69989  26.550   6.799   4.654
 6431W        W69990  30.443  29.919   1.346
 6432W        W69991   8.257   8.839  12.952
 6433W        W69992   9.239   5.401   0.356
 6434W        W69993  34.986  12.848   1.822
 6435W        W69994  18.639  43.315   2.792
 6436W        W69995  35.428   4.416  13.053
 6437W        W69996  14.338  40.046   2.353
 6438W        W69997   9.867   1.427  13.349
 6439W        W69998  34.094  35.912   4.184
 6440W        W69999  12.708  13.212   1.215
 6441W        W70000  20.132  24.506  13.960
 6442W        W70001  41.476  10.375  11.927
 6443W        W70002  30.912  29.457  12.368
 6444W        W70003  44.948  34.373   5.102
 6445W        W70004   7.352  32.477   4.600
 6446W        W70005  16.570   8.227  11.941
 6447W        W70006   2.803  41.841   4.322
 6448W        W70007  35.085  40.441   4.600
 6449W        W70008  23.992  26.036   2.760
 6450W        W70009  12.154  25.654  14.303
 6451W        W70010  35.542  27.951   2.858
 6452W        W70011  29.923  42.863   2.899
 6453W        W70012   4.772  12.618   0.353
 6454W        W70013  24.648  38.451  14.019
 6455W        W70014  37.974  18.765  10.526
 6456W        W70015  35.863  11.303  12.975
 6457W        W70016   5.873  12.668  12.431
 6458W        W70017  44.474  33.029   0.461
 6459W        W70018  24.107  35.523  11.423
 6460W        W70019  44.504  32.986   0.728
 6461W        W70020   9.271  14.750   1.226
 6462W        W70021  33.876  11.815  14.948
 6463W        W70022  41.388  18.172  10.405
 6464W        W70023   5.368  22.669   3.838
 6465W        W70024  10.762  28.138   0.433
 6466W        W70025  38.820  19.545  12.381
 6467W        W70026   7.791  14.667   3.220
 6468W        W70027  13.175  35.926  11.070
 6469W        W70028   7.888  22.700   2.294
 6470W        W70029   6.200  13.260  11.977
 6471W        W70030  23.538  41.941  11.566
 6472W        W70031  20.529   5.305  10.978
 6473W        W70032   7.691   2.909   3.792
 6474W        W70033  32.929  28.170   2.831
 6475W        W70034   9.260  10.696   1.397
 6476W        W70035   6.922  44.906   1.313
 6477W        W70036   6.894  17.692   2.896
 6478W        W70037  22.717   5.759   1.837
 6479W        W70038  34.499  23.199  12.997
 6480W        W70039  25.651  28.158  12.880
 6481W        W70040  38.076  38.549  14.924
 6482W        W70041   8.244  15.683  12.903
 6483W        W70042  28.458  20.571   3.228
 6484W        W70043  41.925  21.520  13.832
 6485W        W70044  27.102   2.354   4.205
 6486W        W70045  25.022  38.565  11.081
 6487W        W70046  11.656   2.430   2.206
 6488W        W70047   9.337  26.059   3.745
 6489W        W70048  37.345  39.937   2.265
 6490W        W70049  20.528  16.582  12.492
 6491W        W70050  15.755  36.888   1.296
 6492W        W70051  40.871  23.994   1.914
 6493W        W70052   0.309  15.793   1.890
 6494W        W70053  28.592   3.237  10.538
 6495W        W70054   5.826  15.122   2.878
 6496W        W70055  41.005  18.296  13.472
 6497W        W70056  16.682  33.579   4.126
 6498W        W70057  22.564  42.840  12.840
 6499W        W70058  17.269  35.860  12.460
 6500W        W70059   7.398  34.403   4.768
 6501W        W70060   1.861  41.833  12.471
 6502W        W70061  13.273  36.495  12.031
 6503W        W70062  11.863  23.193   5.185
 6504W        W70063  11.347  22.194  12.829
 6505W        W70064  11.128  31.491   2.273
 6506W        W70065  43.982  24.524   0.442
 6507W        W70066  30.139  40.798  13.524
 6508W        W70067  22.592  11.685  12.977
 6509W        W70068  26.702  20.069  13.475
 6510W        W70069  41.416  28.490   0.770
 6511W        W70070  12.349   5.858   3.192
 6512W        W70071  10.695  14.130  13.032
 6513W        W70072  40.303  34.077   3.223
 6514W        W70073  24.497  39.974  11.461
 6515W        W70074  28.659   3.767  13.487
 6516W        W70075  36.461  40.437  13.038
 6517W        W70076  44.474  26.138   3.168
 6518W        W70077  24.054   0.962  14.798
 6519W        W70078  36.000  13.166  14.806
 6520W        W70079  30.531   3.273  14.788
 6521W        W70080  26.187  27.676  14.941
 6522W        W70081  26.581  33.524   2.676
 6523W        W70082   6.391   6.265   1.251
 6524W        W70083  44.391  42.874  14.976
 6525W        W70084  43.454  19.093  11.094
 6526W        W70085  25.673  39.529  10.993
 6527W        W70086   0.823   1.832  13.874
 6528W        W70087   6.871  26.107   4.146
 6529W        W70088  18.779   5.726   1.765
 6530W        W70089  29.028  22.077   0.735
 6531W        W70090  22.225  20.196  11.026
 6532W        W70091  42.299  23.717   0.417
 6533W        W70092  21.600  21.733   3.720
 6534W        W70093  32.094  36.988  13.793
 6535W        W70094  10.313  41.962   2.730
 6536W        W70095  23.998  10.218  13.872
 6537W        W70096   7.276   1.830  13.478
 6538W        W70097   3.446  43.918   4.280
 6539W        W70098  36.970  29.069  12.947
 6540W        W70099  30.653   5.913   3.183
 6541W        W70100  31.454  28.636   3.866
 6542W        W70101   1.857  36.962  13.031
 6543W        W70102  11.710  23.158   1.874
 6544W        W70103  26.029  37.911   1.298
 6545W        W70104   8.882  43.903   2.669
 6546W        W70105   8.356  25.605  12.523
 6547W        W70106  37.035  20.633  13.333
 6548W        W70107   6.891  28.448   2.402
 6549W        W70108  13.829   3.862   3.272
 6550W        W70109  13.828  25.091   1.222
 6551W        W70110  12.800  12.830  11.472
 6552W        W70111  15.716  10.684  14.433
 6553W        W70112  14.779   4.804  14.003
 6554W        W70113  12.626  40.942  13.346
 6555W        W70114  18.141  33.496  13.824
 6556W        W70115  14.691   0.881   4.275
 6557W        W70116  14.163  38.855  13.010
 6558W        W70117  31.978  20.107   3.862
 6559W        W70118  29.940  42.360  11.460
 6560W        W70119  23.523  21.106  12.534
 6561W        W70120  20.546  36.584  13.311
 6562W        W70121  10.173  26.019  14.420
 6563W        W70122  35.855   1.361  14.028
 6564W        W70123  10.856  39.970   1.304
 6565W        W70124  44.282  26.663   4.800
 6566W        W70125  38.926  11.173   1.739
 6567W        W70126  34.502  34.008  11.095
 6568W        W70127  19.592  17.301  10.981
 6569W        W70128  37.045  43.434   4.631
 6570W        W70129  22.620  33.526   3.812
 6571W        W70130  20.192  39.545   4.783
 6572W        W70131  20.636  16.221  10.505
 6573W        W70132  21.644   1.271   4.667
 6574W        W70133  27.496  44.784   2.293
 6575W        W70134  21.586  27.605   9.648
 6576W        W70135  29.001  34.001   2.287
 6577W        W70136  26.114   0.896   4.714
 6578W        W70137  25.704  30.916  13.936
 6579W        W70138  40.539   4.840   0.329
 6580W        W70139  34.001  20.182   2.343
 6581W        W70140   0.911  19.187  12.372
 6582W        W70141  21.027  33.399   5.094
 6583W        W70142   6.379   0.310  10.540
 6584W        W70143   6.830  34.070   0.796
 6585W        W70144  43.271  16.238   2.890
 6586W        W70145  22.019   4.291  11.530
 6587W        W70146  37.028  26.594  12.537
 6588W        W70147  38.463  31.977   0.853
 6589W        W70148  31.124  16.652  13.887
 6590W        W70149   8.384  20.650  11.515
 6591W        W70150  31.644  16.177  10.584
 6592W        W70151  42.471  39.355   3.275
 6593W        W70152   3.949  44.370   1.335
 6594W        W70153  35.087  38.939  14.288
 6595W        W70154  16.571  33.541  11.406
 6596W        W70155  18.254   8.730  13.958
 6597W        W70156  29.093  41.934  12.068
 6598W        W70157  34.577   2.466  12.019
 6599W        W70158   1.904  16.093  13.863
 6600W        W70159  36.923   1.830  14.355
 6601W        W70160  26.623  22.065   2.324
 6602W        W70161  16.291  35.915  14.031
 6603W        W70162  29.497   5.436  13.443
 6604W        W70163  29.082  22.510   1.839
 6605W        W70164  27.594  23.206  11.565
 6606W        W70165   1.830  22.198   3.352
 6607W        W70166  11.863   1.473  10.065
 6608W        W70167  11.168   3.850   4.602
 6609W        W70168  40.535   2.743   2.798
 6610W        W70169  27.137  11.844  14.288
 6611W        W70170  25.062  12.638   3.638
 6612W        W70171  35.052  42.814  13.373
 6613W        W70172  32.936   5.341  12.095
 6614W        W70173  44.492  15.618  12.903
 6615W        W70174  25.585  32.569   1.404
 6616W        W70175  19.650   8.756   0.902
 6617W        W70176  32.925   0.802  13.805
 6618W        W70177  13.633  30.593   1.336
 6619W        W70178  41.026  14.748   2.807
 6620W        W70179  37.919  27.982  14.841
 6621W        W70180  16.653  19.574   0.736
 6622W        W70181  23.100   5.246   2.785
 6623W        W70182  25.475  30.946   1.746
 6624W        W70183  28.977  32.995   4.732
 6625W        W70184  42.361  38.825   1.423
 6626W        W70185  35.915  12.707   0.773
 6627W        W70186   3.806  24.574   3.204
 6628W        W70187  40.419  15.607  11.127
 6629W        W70188  39.039   3.383   3.862
 6630W        W70189  44.781  35.371  10.428
 6631W        W70190  33.544  15.227  10.583
 6632W        W70191  28.939  31.975  13.447
 6633W        W70192  34.428  37.492   0.937
 6634W        W70193  29.596  40.405   1.353
 6635W        W70194  12.214  23.131  12.458
 6636W        W70195  40.540  13.136  14.855
 6637W        W70196  25.486   9.710   1.723
 6638W        W70197  16.638  14.778  14.901
 6639W        W70198   2.455  42.343   4.285
 6640W        W70199  17.563  15.297  13.849
 6641W        W70200  23.613  43.014   3.344
 6642W        W70201  39.476   9.347  14.966
 6643W        W70202  11.649   6.240  12.993
 6644W        W70203  18.214  32.525  13.375
 6645W        W70204  26.999  37.849   4.641
 6646W        W70205  38.959  12.695  12.021
 6647W        W70206   1.287  33.954   1.296
 6648W        W70207  15.785   5.719  11.900
 6649W        W70208  32.039  26.105  13.825
 6650W        W70209  21.020  24.492  13.419
 6651W        W70210  33.923  33.444   1.384
 6652W        W70211  20.195   2.247   0.806
 6653W        W70212  38.386  32.127   0.298
 6654W        W70213   6.242  31.451   3.346
 6655W        W70214  21.710  12.768  13.532
 6656W        W70215  37.345  37.470   0.403
 6657W        W70216  31.573  13.119  10.498
 6658W        W70217   8.813   9.701   1.760
 6659W        W70218  11.268   3.752  11.062
 6660W        W70219  11.217  20.181  13.415
 6661W        W70220  11.680  37.546  13.916
 6662W        W70221   0.936   3.235  13.407
 6663W        W70222  25.068   1.244  12.503
 6664W        W70223  40.929   0.761   3.869
 6665W        W70224  40.499   7.406  10.962
 6666W        W70225   4.442  17.280   4.604
 6667W        W70226  23.152  30.105   9.558
 6668W        W70227  31.479  12.283  13.018
 6669W        W70228  35.598  18.641   0.446
 6670W        W70229  27.679  28.517   4.786
 6671W        W70230  38.899  10.705   9.990
 6672W        W70231  34.079  37.044   0.456
 6673W        W70232  11.352  36.004   3.654
 6674W        W70233  25.608  35.941  12.929
 6675W        W70234   5.741  25.979  14.373
 6676W        W70235  21.087  43.446  11.070
 6677W        W70236   6.241  12.252   0.805
 6678W        W70237  11.307  14.646   3.290
 6679W        W70238  15.765   0.278  13.450
 6680W        W70239  32.954  28.670   3.330
 6681W        W70240  21.047  42.949   0.910
 6682W        W70241  35.498  36.873   3.308
 6683W        W70242  27.475  43.799   2.368
 6684W        W70243  17.127   2.804  10.432
 6685W        W70244  35.962  12.653  11.555
 6686W        W70245   0.796  22.536   2.410
 6687W        W70246  36.376  38.052   2.201
 6688W        W70247  44.914  39.837  14.456
 6689W        W70248  41.915  42.290   4.678
 6690W        W70249  23.150  27.692  12.540
 6691W        W70250  30.067  19.156   1.296
 6692W        W70251   2.731  21.611   2.852
 6693W        W70252  38.530  29.636   1.267
 6694W        W70253  37.523  43.510   0.815
 6695W        W70254  24.651  35.456  12.544
 6696W        W70255  16.173  33.550   4.347
 6697W        W70256  39.349   1.839  13.837
 6698W        W70257  39.397  31.507  10.907
 6699W        W70258  42.782   3.438  14.879
 6700W        W70259  29.968  29.578  12.399
 6701W        W70260  31.996  24.123  12.069
 6702W        W70261  25.005  28.665  13.394
 6703W        W70262  18.144   4.877   2.273
 6704W        W70263  12.846  32.952  11.882
 6705W        W70264  43.847  41.402  12.559
 6706W        W70265  31.525  40.331   0.966
 6707W        W70266  28.152  38.989   1.830
 6708W        W70267   4.794  28.521   0.801
 6709W        W70268  28.098  11.853  13.899
 6710W        W70269  23.131  29.055  11.475
 6711W        W70270  41.429   8.868  13.321
 6712W        W70271  10.343  14.823   5.321
 6713W        W70272   2.934  35.452   1.332
 6714W        W70273  10.331  24.983   2.367
 6715W        W70274  35.593  24.603   1.849
 6716W        W70275  40.524   9.289  12.007
 6717W        W70276  42.482  23.216  13.804
 6718W        W70277  39.439  39.964  12.348
 6719W        W70278  22.053  40.522  11.019
 6720W        W70279  33.014  34.532  14.772
 6721W        W70280   2.377  20.044  11.035
 6722W        W70281   4.767  19.640   4.630
 6723W        W70282  41.406  13.745   2.417
 6724W        W70283  25.707   8.694  13.972
 6725W        W70284   0.294  11.297  12.845
 6726W        W70285   2.236  13.664  14.428
 6727W        W70286  37.939  33.618   5.143
 6728W        W70287   4.727  10.242   1.705
 6729W        W70288   7.180  32.982  12.070
 6730W        W70289  31.959  18.685  14.794
 6731W        W70290   5.194  39.849  14.856
 6732W        W70291  31.112  40.807   1.379
 6733W        W70292  24.574  39.423  12.943
 6734W        W70293  36.029  34.502   0.825
 6735W        W70294  32.627  12.836   2.191
 6736W        W70295  29.969  10.195   4.298
 6737W        W70296  18.589  29.970   2.222
 6738W        W70297  39.953  28.060  13.468
 6739W        W70298  37.062  43.513  13.829
 6740W        W70299  11.747  17.158  10.994
 6741W        W70300  36.861  35.031   4.262
 6742W        W70301  19.194  40.373  13.986
 6743W        W70302  44.916  38.500  10.906
 6744W        W70303   4.256  14.706  11.995
 6745W        W70304  14.281   2.866   1.850
 6746W        W70305   4.361  33.948  13.952
 6747W        W70306  29.557  40.883   2.885
 6748W        W70307  17.563  31.548  12.986
 6749W        W70308  38.472  38.014   3.264
 6750W        W70309  17.189   3.329  13.510
 6751W        W70310   4.876   2.337  13.412
 6752W        W70311  24.169   0.898  10.636
 6753W        W70312   8.694  14.216  14.371
 6754W        W70313  11.717  12.658  14.896
 6755W        W70314  21.196   3.329  11.028
 6756W        W70315  34.104  31.608   2.903
 6757W        W70316  33.464   2.804  10.508
 6758W        W70317  41.363  16.612   0.399
 6759W        W70318  44.876  42.328   4.749
 6760W        W70319   6.235  39.987   0.779
 6761W        W70320  29.006   3.278  12.570
 6762W        W70321  44.328  22.736   2.216
 6763W        W70322  40.484  18.180   9.945
 6764W        W70323  43.456  34.591  11.440
 6765W        W70324  20.097  40.877  14.817
 6766W        W70325  11.225  29.591  11.977
 6767W        W70326   7.201   7.812  14.488
 6768W        W70327  23.196  10.274  10.074
 6769W        W70328  17.092   0.345  14.931
 6770W        W70329  21.238   9.173  14.430
 6771W        W70330  35.046   2.440   4.204
 6772W        W70331   5.426  37.070  11.391
 6773W        W70332   8.204  19.154   2.695
 6774W        W70333   4.275  26.508  14.437
 6775W        W70334   1.843  36.047   0.450
 6776W        W70335   6.416  19.693  10.449
 6777W        W70336  13.342   7.325   0.262
 6778W        W70337   7.788  40.980  13.400
 6779W        W70338  11.621  26.508   2.662
 6780W        W70339  18.052  35.532   1.215
 6781W        W70340  22.208   0.422  12.075
 6782W        W70341  44.830  36.582   1.738
 6783W        W70342   1.798  15.197  14.482
 6784W        W70343  23.073   1.340  11.472
 6785W        W70344   7.862   1.246   3.309
 6786W        W70345  20.768  19.079   1.750
 6787W        W70346  26.604  23.163  12.906
 6788W        W70347  20.704  32.549  12.507
 6789W        W70348  24.030  37.841   3.331
 6790W        W70349  33.540  13.305   4.327
 6791W        W70350  43.439   4.716  10.527
 6792W        W70351   7.889  38.489   3.268
 6793W        W70352  16.765  25.647  14.981
 6794W        W70353  35.045   7.898   1.221
 6795W        W70354  21.090  35.426  11.064
 6796W        W70355  30.156  38.866   9.496
 6797W        W70356  33.527  37.915   0.742
 6798W        W70357   9.699  38.067  10.973
 6799W        W70358  17.593  23.208  13.382
 6800W        W70359  22.160  36.557  14.020
 6801W        W70360  36.407  18.112  14.399
 6802W        W70361  31.911  24.155   5.091
 6803W        W70362   7.695  21.018  11.092
 6804W        W70363  10.673  21.667  11.064
 6805W        W70364   1.795  40.385  10.412
 6806W        W70365  14.121  13.203   0.308
 6807W        W70366  25.640  24.213   3.248
 6808W        W70367  44.405  32.498  11.381
 6809W        W70368  24.979  24.060   1.423
 6810W        W70369  37.068  16.640   3.847
 6811W        W70370  12.723  27.051  14.388
 6812W        W70371  31.639  28.525  11.372
 6813W        W70372  43.816   8.776   3.264
 6814W        W70373  33.519  23.604   0.370
 6815W        W70374  39.322  42.921   1.742
 6816W        W70375  22.510  20.272   1.696
 6817W        W70376  22.660  17.231   4.659
 6818W        W70377  25.539  11.248   1.836
 6819W        W70378   4.391  20.747   0.909
 6820W        W70379  29.456  12.191   0.803
 6821W        W70380  37.535  18.648  14.893
 6822W        W70381  28.562  21.599   4.668
 6823W        W70382  40.548  42.929   0.759
 6824W        W70383  41.350  39.940  14.827
 6825W        W70384  14.182   3.713  14.396
 6826W        W70385  10.728  22.247  12.933
 6827W        W70386  31.553  26.047   0.384
 6828W        W70387  36.353  24.718   3.214
 6829W        W70388  39.492  14.244  12.501
 6830W        W70389  17.582  34.569   2.386
 6831W        W70390   8.385  38.523  11.911
 6832W        W70391  24.512  30.042   3.330
 6833W        W70392  25.197  11.129  13.824
 6834W        W70393   0.367  22.044   4.723
 6835W        W70394  21.548  18.606  11.379
 6836W        W70395   0.948  19.689  10.027
 6837W        W70396  13.306  15.659   2.345
 6838W        W70397  24.595   6.913  13.007
 6839W        W70398  14.660  35.936   5.173
 6840W        W70399  16.789  21.699   1.727
 6841W        W70400   0.867  33.052   2.709
 6842W        W70401  17.139  22.516  12.364
 6843W        W70402  22.049  15.309  10.998
 6844W        W70403   5.295  42.392  12.463
 6845W        W70404  41.300  37.496   1.700
 6846W        W70405  24.648  15.102   4.738
 6847W        W70406  20.209   4.268  11.077
 6848W        W70407  25.664  27.449  14.788
 6849W        W70408  14.776   4.721   1.314
 6850W        W70409  10.294  25.572  10.917
 6851W        W70410  31.900  23.126  12.834
 6852W        W70411  24.092  27.162   1.348
 6853W        W70412  20.043  26.525   4.805
 6854W        W70413   3.269  42.307   1.728
 6855W        W70414  33.978  30.139   2.825
 6856W        W70415  16.791   6.271  14.762
 6857W        W70416  43.802  38.385   3.146
 6858W        W70417   8.373  23.692   2.374
 6859W        W70418  34.595   5.714   4.144
 6860W        W70419  40.004  14.774   3.195
 6861W        W70420   7.831  14.196   2.801
 6862W        W70421   8.382   8.197   3.736
 6863W        W70422  11.687   3.446   3.252
 6864W        W70423   2.436  19.626   0.430
 6865W        W70424  13.610  17.636  11.910
 6866W        W70425  13.167  42.998  10.468
 6867W        W70426   1.475   6.350   3.317
 6868W        W70427  33.080  19.553  14.369
 6869W        W70428   9.370  42.404   1.399
 6870W        W70429  11.240  13.774  12.375
 6871W        W70430  10.270  25.690   1.872
 6872W        W70431  41.948  31.460   0.342
 6873W        W70432  16.582  31.941   4.225
 6874W        W70433   9.735   4.702   0.779
 6875W        W70434  11.267  23.525  13.820
 6876W        W70435  34.429  29.500   4.688
 6877W        W70436  22.140   5.428  13.333
 6878W        W70437  35.892  25.002  10.594
 6879W        W70438  24.479  42.997   1.787
 6880W        W70439  13.707  19.185   1.800
 6881W        W70440  24.097   9.160   4.659
 6882W        W70441   9.788  33.426  11.595
 6883W        W70442  44.971  12.248   1.313
 6884W        W70443   2.420  40.974  12.475
 6885W        W70444  12.644  10.299   3.201
 6886W        W70445   2.237   6.803  10.993
 6887W        W70446  11.832  16.694  14.384
 6888W        W70447  10.667  16.649   4.737
 6889W        W70448  27.063  31.035   4.648
 6890W        W70449  30.621  21.533  10.944
 6891W        W70450  42.975  30.504  14.851
 6892W        W70451  35.443  42.026  12.874
 6893W        W70452  14.786   0.834  11.007
 6894W        W70453  27.004  12.694  11.935
 6895W        W70454   4.829  41.426  12.411
 6896W        W70455  44.897  24.636   4.206
 6897W        W70456  21.217  36.570   2.215
 6898W        W70457   5.908   7.411   1.368
 6899W        W70458   6.203   1.309  14.914
 6900W        W70459   1.857  13.827   2.786
 6901W        W70460  13.322  34.991   3.251
 6902W        W70461  24.695  28.035  10.628
 6903W        W70462  38.886  39.003   1.398
 6904W        W70463  44.322  27.124  14.379
 6905W        W70464  12.751  28.469   4.355
 6906W        W70465   9.219  29.645   4.114
 6907W        W70466  26.651  25.010  10.138
 6908W        W70467  24.043  16.176   3.797
 6909W        W70468  32.135  27.152   3.842
 6910W        W70469  18.260  18.757   2.236
 6911W        W70470  43.506  19.761  14.974
 6912W        W70471  26.115  17.214   2.321
 6913W        W70472  10.268  29.495   1.836
 6914W        W70473  27.981   9.348   4.723
 6915W        W70474   3.447  19.235  11.035
 6916W        W70475  44.808  17.571  14.815
 6917W        W70476   4.912   1.368  12.091
 6918W        W70477  35.864  28.031  12.526
 6919W        W70478   9.270  37.832   4.665
 6920W        W70479   1.322  39.374   3.807
 6921W        W70480  11.856  18.709   2.837
 6922W        W70481  40.884  24.151   0.895
 6923W        W70482  24.479  34.599  12.572
 6924W        W70483  31.080  26.618  12.880
 6925W        W70484  26.479  17.726  10.419
 6926W        W70485  43.996  24.045   0.808
 6927W        W70486  33.940   9.854   0.825
 6928W        W70487  32.047  27.473   1.842
 6929W        W70488  37.352  29.649   0.301
 6930W        W70489  41.519   4.361  11.476
 6931W        W70490  15.610  22.512  10.416
 6932W        W70491  41.932  40.920   2.289
 6933W        W70492  29.946  38.960   1.923
 6934W        W70493   0.858  28.127   5.254
 6935W        W70494  10.157  41.521   2.888
 6936W        W70495  38.017  28.482   0.824
 6937W        W70496  16.181   2.843  10.487
 6938W        W70497  36.526  35.979  12.947
 6939W        W70498  42.968   8.875  14.299
 6940W        W70499  39.019  19.156  13.354
 6941W        W70500  10.819  33.017  12.507
 6942W        W70501  25.072  44.489  11.392
 6943W        W70502  35.953  20.252   3.294
 6944W        W70503  22.139   7.727  12.826
 6945W        W70504  35.415  16.779  11.445
 6946W        W70505  44.810  14.660   1.707
 6947W        W70506  24.520  25.160   3.370
 6948W        W70507  23.079  15.746  12.458
 6949W        W70508   6.262  24.999  12.930
 6950W        W70509  18.202  37.437  14.824
 6951W        W70510  22.627  21.724   3.637
 6952W        W70511  27.605  11.633   1.356
 6953W        W70512  17.228  28.567   1.210
 6954W        W70513  30.059   1.288  10.573
 6955W        W70514  35.987   5.881   1.234
 6956W        W70515   7.858  18.271   4.278
 6957W        W70516  36.459  26.573   9.970
 6958W        W70517  40.445   8.293  12.387
 6959W        W70518  37.521   7.220  11.607
 6960W        W70519  21.139  36.914  11.083
 6961W        W70520   4.808  37.007   0.418
 6962W        W70521  25.004   9.651  14.375
 6963W        W70522   3.405  42.859   3.796
 6964W        W70523  44.390  23.052   5.165
 6965W        W70524  13.698  42.388  12.059
 6966W        W70525  15.623   0.264  14.013
 6967W        W70526  29.424  24.058   9.959
 6968W        W70527  11.626  24.705  10.577
 6969W        W70528  33.941  15.148  13.023
 6970W        W70529  31.450  31.037  13.370
 6971W        W70530  41.446  41.947   1.813
 6972W        W70531  16.246   8.175  12.057
 6973W        W70532  16.694  43.952  13.024
 6974W        W70533   0.268  14.238   5.304
 6975W        W70534   7.667  24.575  13.829
 6976W        W70535  27.003  44.456   0.837
 6977W        W70536   1.894  41.938  14.867
 6978W        W70537  22.688  36.497  12.545
 6979W        W70538   7.272  33.484  14.022
 6980W        W70539   6.380  38.561   1.331
 6981W        W70540   2.889  39.508  14.447
 6982W        W70541  32.428  28.605   1.384
 6983W        W70542  29.937  36.586   2.264
 6984W        W70543  41.956  28.101  14.029
 6985W        W70544  23.603  40.479  10.606
 6986W        W70545  44.479   7.387  13.981
 6987W        W70546  23.209  42.824  11.458
 6988W        W70547  12.662   5.692   3.640
 6989W        W70548   1.346  41.310  14.315
 6990W        W70549  41.891  17.285  14.819
 6991W        W70550  30.450  34.464   1.872
 6992W        W70551   5.253  32.063  13.938
 6993W        W70552  19.701  38.515  13.434
 6994W        W70553   8.801  25.587  12.394
 6995W        W70554  43.465   3.758   1.377
 6996W        W70555   5.769  32.101   1.348
 6997W        W70556  10.737   5.748  13.060
 6998W        W70557  11.266  27.561  13.507
 6999W        W70558  16.294   0.349  10.495
 7000W        W70559  10.769  20.124  12.451
 7001W        W70560  29.593  13.810   2.797
 7002W        W70561   3.800  26.171  14.956
 7003W        W70562   5.761  19.759   2.370
 7004W        W70563  19.675  20.754   3.794
 7005W        W70564  30.982   4.810  11.943
 7006W        W70565  21.040  40.304   2.359
 7007W        W70566   6.901   0.330   2.289
 7008W        W70567  38.871  20.653   1.831
 7009W        W70568  26.680   6.842  12.027
 7010W        W70569   7.264  14.640   2.666
 7011W        W70570   9.263  20.705  10.996
 7012W        W70571  39.363  27.687   0.442
 7013W        W70572   4.715  37.368   3.370
 7014W        W70573  44.965   4.369   0.912
 7015W        W70574   2.954  36.396   2.861
 7016W        W70575  40.824  21.097  14.502
 7017W        W70576  37.441   6.707  11.591
 7018W        W70577  11.207   8.745  12.912
 7019W        W70578   8.352  20.644   1.274
 7020W        W70579  35.883   4.858   4.782
 7021W        W70580   4.331  15.587   0.260
 7022W        W70581   8.246   0.278  13.911
 7023W        W70582   5.826  14.327  14.364
 7024W        W70583  17.626   5.375   1.715
 7025W        W70584   2.763  11.682   1.316
 7026W        W70585  35.979  43.341  10.989
 7027W        W70586  10.754   0.772   0.401
 7028W        W70587  11.796  14.763  11.904
 7029W        W70588  38.370  10.290   2.822
 7030W        W70589  20.220   6.837   0.468
 7031W        W70590  29.550  40.954   1.805
 7032W        W70591  29.111  40.387  10.990
 7033W        W70592  23.109  29.039   3.630
 7034W        W70593  18.779  44.861   2.415
 7035W        W70594   1.323  35.007   1.295
 7036W        W70595   5.381  15.241   0.421
 7037W        W70596  17.643  24.637   0.841
 7038W        W70597  24.133  32.559   3.719
 7039W        W70598   2.893  22.526  11.128
 7040W        W70599   0.942  39.993   0.754
 7041W        W70600  44.947  40.925  11.483
 7042W        W70601  44.791   1.332  14.400
 7043W        W70602  28.977  41.979  13.428
 7044W        W70603  33.124  17.561   1.438
 7045W        W70604  26.967  29.926  14.467
 7046W        W70605  34.529   1.336   4.346
 7047W        W70606  22.222  43.419  12.486
 7048W        W70607  16.675  42.847  11.070
 7049W        W70608  20.645   0.298   4.195
 7050W        W70609  24.098  28.129   3.357
 7051W        W70610  15.270  21.248   4.689
 7052W        W70611  32.634   8.796   4.202
 7053W        W70612   2.454   9.366  11.913
 7054W        W70613  14.162  29.437   2.760
 7055W        W70614  42.324  27.631  14.475
 7056W        W70615  32.456  14.181  11.432
 7057W        W70616  28.038  19.269  12.841
 7058W        W70617  43.845  40.962   0.337
 7059W        W70618   3.818  20.746   0.964
 7060W        W70619  18.715  44.336   3.277
 7061W        W70620  13.169  31.111   3.744
 7062W        W70621  35.097  26.593   4.274
 7063W        W70622   8.326   4.286  12.484
 7064W        W70623   1.925   2.362  11.943
 7065W        W70624   0.434  29.139   3.631
 7066W        W70625  17.693  18.564   4.200
 7067W        W70626  25.592   9.307  10.619
 7068W        W70627  28.144   9.325   2.718
 7069W        W70628   7.807  34.011   1.298
 7070W        W70629   9.868  18.063  14.963
 7071W        W70630  16.745  41.358  14.997
 7072W        W70631  39.970  33.509  12.888
 7073W        W70632  36.971  14.746  10.497
 7074W        W70633  16.709  23.733   2.705
 7075W        W70634  37.000  40.493  14.331
 7076W        W70635   1.243  34.420   4.654
 7077W        W70636  43.857  32.132   1.826
 7078W        W70637  29.429  27.029  13.450
 7079W        W70638   2.448  43.508   0.251
 7080W        W70639  42.364  34.603  13.960
 7081W        W70640  32.120  28.447   2.887
 7082W        W70641  16.773  41.845  14.883
 7083W        W70642  18.291  39.864   3.721
 7084W        W70643  12.241  20.125   3.729
 7085W        W70644  31.017  40.841   3.838
 7086W        W70645  25.655  27.120  12.547
 7087W        W70646  17.150  30.440  14.282
 7088W        W70647  14.679  13.707  11.443
 7089W        W70648   7.687  41.834  11.891
 7090W        W70649  27.961  21.699  14.411
 7091W        W70650  21.541   7.373   2.835
 7092W        W70651  18.251  31.913   0.329
 7093W        W70652  25.998  21.088  13.538
 7094W        W70653   8.684   7.365  11.858
 7095W        W70654  28.118  38.871  14.514
 7096W        W70655  16.767  19.705  10.632
 7097W        W70656  31.412  33.583  12.490
 7098W        W70657  35.910   5.228   3.670
 7099W        W70658  24.210  40.336  12.494
 7100W        W70659  39.848  42.951  13.310
 7101W        W70660  29.117  10.702  10.901
 7102W        W70661  24.070  40.956  14.901
 7103W        W70662  26.179   1.465   0.320
 7104W        W70663  31.483   2.437  13.321
 7105W        W70664  34.462  27.458  12.375
 7106W        W70665  41.865   2.948   4.667
 7107W        W70666  17.149   3.944   4.139
 7108W        W70667   0.484  13.724   4.328
 7109W        W70668  36.405  31.573  11.893
 7110W        W70669  14.736  41.478  12.375
 7111W        W70670  27.978   7.823  14.856
 7112W        W70671  42.506  25.107   1.922
 7113W        W70672   6.820  44.983   4.226
 7114W        W70673  24.540   7.350  14.794
 7115W        W70674  33.509   1.737  10.924
 7116W        W70675  14.747  22.127   2.278
 7117W        W70676   7.692   6.308   2.889
 7118W        W70677  33.504  10.346  13.308
 7119W        W70678   9.361  12.192  10.913
 7120W        W70679  18.571  30.078   0.890
 7121W        W70680  41.499   3.912  10.917
 7122W        W70681  34.105  14.283   1.847
 7123W        W70682  10.664  16.276  13.866
 7124W        W70683   8.387  38.890  11.116
 7125W        W70684  16.624  41.475   0.848
 7126W        W70685   4.405  12.662  11.580
 7127W        W70686  28.635   5.785  14.975
 7128W        W70687  29.139  14.812  13.027
 7129W        W70688  42.840  42.891  10.039
 7130W        W70689  43.464  13.618  12.510
 7131W        W70690   4.255  22.235  12.020
 7132W        W70691  39.467  41.328   2.359
 7133W        W70692  38.985  42.984   1.312
 7134W        W70693  35.959  32.907   4.330
 7135W        W70694   3.353   2.374   5.114
 7136W        W70695  12.638   8.716  14.302
 7137W        W70696  27.452  42.379   4.667
 7138W        W70697  16.283  25.574  11.531
 7139W        W70698  30.601   0.922   3.324
 7140W        W70699  15.764   5.775   2.337
 7141W        W70700  15.275  23.594   2.285
 7142W        W70701  18.639   7.909   2.263
 7143W        W70702  26.495  31.946  10.111
 7144W        W70703  21.072  38.400  10.987
 7145W        W70704   8.823   3.214   3.799
 7146W        W70705  43.958  18.782   4.789
 7147W        W70706  42.326   5.821  14.361
 7148W        W70707   7.855  10.316   3.337
 7149W        W70708  36.089  10.330  11.111
 7150W        W70709  15.741   7.802  11.403
 7151W        W70710  27.554   4.805  11.454
 7152W        W70711  44.332  44.956  11.513
 7153W        W70712  36.092  10.271   3.864
 7154W        W70713  39.434  13.697  14.497
 7155W        W70714   2.368  42.830  11.595
 7156W        W70715   3.954  22.507   2.767
 7157W        W70716   1.341  37.863  14.501
 7158W        W70717  28.174  43.502  13.544
 7159W        W70718  21.711  26.545  12.562
 7160W        W70719  12.621  15.632  10.931
 7161W        W70720  29.002  25.012   0.835
 7162W        W70721  38.406  11.326   4.209
 7163W        W70722  42.455   9.388  13.376
 7164W        W70723  10.319  34.883   1.212
 7165W        W70724  10.279   3.914   2.812
 7166W        W70725  44.465  15.193   0.865
 7167W        W70726  43.967  37.505   2.341
 7168W        W70727  29.053  22.517  13.893
 7169W        W70728  31.085  30.513   4.216
 7170W        W70729  32.101  42.794  11.062
 7171W        W70730  17.706  36.875   3.761
 7172W        W70731   5.437  39.398   4.251
 7173W        W70732  16.739  27.118   4.186
 7174W        W70733  42.306  39.359   4.676
 7175W        W70734  30.164  29.047   1.426
 7176W        W70735  16.097   6.315  12.062
 7177W        W70736  19.677  23.556   4.773
 7178W        W70737  13.743  43.766  11.392
 7179W        W70738  31.615  19.218  13.495
 7180W        W70739  43.349  44.841  14.401
 7181W        W70740  27.195   7.249  11.042
 7182W        W70741  42.982  38.034  11.004
 7183W        W70742   8.848  41.313  14.497
 7184W        W70743  13.188  43.435   1.217
 7185W        W70744   2.377   7.304   3.324
 7186W        W70745  38.998   3.411   2.341
 7187W        W70746  39.999  14.192   0.370
 7188W        W70747  14.298  42.912  14.994
 7189W        W70748  37.346  10.638   5.752
 7190W        W70749  42.935  35.896  12.514
 7191W        W70750  34.901  12.325   2.741
 7192W        W70751  11.202  10.782   4.758
 7193W        W70752  35.039  16.132   1.321
 7194W        W70753  10.324  23.605  10.615
 7195W        W70754  26.473  29.667  14.903
 7196W        W70755  32.037   5.310   3.322
 7197W        W70756  21.514   7.212  10.609
 7198W        W70757   7.711   6.711  13.513
 7199W        W70758  21.635  30.619  13.422
 7200W        W70759   8.875  37.522  12.983
 7201W        W70760  38.529  39.397  13.525
 7202W        W70761  18.115  10.701   2.377
 7203W        W70762  35.386  17.598  10.639
 7204W        W70763  22.056  34.003  14.467
 7205W        W70764  28.029  10.716  13.816
 7206W        W70765  37.858  41.524   4.234
 7207W        W70766  13.665  14.286   3.160
 7208W        W70767  34.577  32.079   2.696
 7209W        W70768  20.597   7.260  14.874
 7210W        W70769  24.608  43.817   4.660
 7211W        W70770  27.450  42.816  12.429
 7212W        W70771  11.323   3.859   2.412
 7213W        W70772  27.453  34.942   1.716
 7214W        W70773   2.380  35.890   0.900
 7215W        W70774   7.858  21.688  14.938
 7216W        W70775  42.373  31.140  13.427
 7217W        W70776   8.718  40.933   1.766
 7218W        W70777  31.040  29.055   0.454
 7219W        W70778   7.413  12.801  12.889
 7220W        W70779  32.425  14.796  14.783
 7221W        W70780  16.302  30.510  14.847
 7222W        W70781  14.717  31.427  11.510
 7223W        W70782  26.654  30.956   1.277
 7224W        W70783  28.012  38.462   3.811
 7225W        W70784  21.044  10.797  14.966
 7226W        W70785   6.400   9.732   0.939
 7227W        W70786   2.357   3.851   1.210
 7228W        W70787   6.689   6.718  11.014
 7229W        W70788  31.479   5.370  10.997
 7230W        W70789  18.279   4.448  11.873
 7231W        W70790  36.377  43.765   3.707
 7232W        W70791  20.673  28.170  11.424
 7233W        W70792  44.982  23.565   3.798
 7234W        W70793  24.504   8.882  14.511
 7235W        W70794  16.287  27.952  11.035
 7236W        W70795  42.454  25.550  14.018
 7237W        W70796  10.836  26.957   4.661
 7238W        W70797  38.520  36.049   0.306
 7239W        W70798  37.843   4.354  13.958
 7240W        W70799  14.257  43.781   2.903
 7241W        W70800   1.359  24.481  14.933
 7242W        W70801   1.780   1.438  11.400
 7243W        W70802  25.105  31.531  10.983
 7244W        W70803   1.350   8.738  13.013
 7245W        W70804  11.187   0.383  12.921
 7246W        W70805   2.417  22.556   5.265
 7247W        W70806  20.266   1.472   3.644
 7248W        W70807  21.755  26.468   5.244
 7249W        W70808  34.992  18.775  12.567
 7250W        W70809  28.030  41.945   4.192
 7251W        W70810  20.102  18.750  12.975
 7252W        W70811  25.154   0.290  13.410
 7253W        W70812  39.323  28.036  14.854
 7254W        W70813  13.241  17.130  12.564
 7255W        W70814  35.485  16.804   3.865
 7256W        W70815  43.814   5.281  10.568
 7257W        W70816   2.904  19.207   4.268
 7258W        W70817  19.053  23.725   1.331
 7259W        W70818  44.999  38.067  13.377
 7260W        W70819  40.491  10.695   3.783
 7261W        W70820  32.405  41.004   1.835
 7262W        W70821   2.267  10.754  13.469
 7263W        W70822  11.291  40.012  13.313
 7264W        W70823  12.259  36.076  10.993
 7265W        W70824   4.237  43.014  13.028
 7266W        W70825  41.442  41.853   0.379
 7267W        W70826  43.811  29.986  14.951
 7268W        W70827  13.700  26.178  10.041
 7269W        W70828   1.384   8.826   0.266
 7270W        W70829  38.328  23.605  12.063
 7271W        W70830  43.337   7.737  12.900
 7272W        W70831  37.415  15.320  14.012
 7273W        W70832  37.035  12.315   3.237
 7274W        W70833  38.032   9.247  14.020
 7275W        W70834  20.531  17.774   2.746
 7276W        W70835  19.255  44.822  12.042
 7277W        W70836  10.725  41.389   4.726
 7278W        W70837  25.498  23.020   2.748
 7279W        W70838  22.236  23.028  13.526
 7280W        W70839  24.673  17.235  12.468
 7281W        W70840   9.674  18.198   3.300
 7282W        W70841  15.774   2.775  13.861
 7283W        W70842  43.333  33.466  12.865
 7284W        W70843  39.883  14.812  14.312
 7285W        W70844   2.938  43.291  11.898
 7286W        W70845  39.506  40.469   4.265
 7287W        W70846  42.893  34.602  14.858
 7288W        W70847   7.899   3.912   2.684
 7289W        W70848  29.921  22.105  13.857
 7290W        W70849  33.998  19.695   0.458
 7291W        W70850  27.972  17.090   3.871
 7292W        W70851  28.636  20.126   2.339
 7293W        W70852  37.520  17.605  10.463
 7294W        W70853  43.330  41.503  13.872
 7295W        W70854  30.972  22.506   0.950
 7296W        W70855  19.136   4.246  14.466
 7297W        W70856  32.001  26.174  11.856
 7298W        W70857  33.394  30.914  14.412
 7299W        W70858  20.655   5.237   1.287
 7300W        W70859  40.022   5.853  13.464
 7301W        W70860   6.330   9.663   3.150
 7302W        W70861   5.433   0.812   3.251
 7303W        W70862  23.992  21.131  12.002
 7304W        W70863  40.387  41.359   4.604
 7305W        W70864  27.608  28.993   4.214
 7306W        W70865  43.385   7.783   0.953
 7307W        W70866  30.004  29.950  12.922
 7308W        W70867   5.806  34.568   4.185
 7309W        W70868   2.268  40.985   1.450
 7310W        W70869  33.468  19.276  11.587
 7311W        W70870  18.074  41.847   3.653
 7312W        W70871  19.743  23.176  10.503
 7313W        W70872  43.906   7.220   4.769
 7314W        W70873  41.301  17.138  10.494
 7315W        W70874  26.206  33.550  12.423
 7316W        W70875  23.223  18.113   1.315
 7317W        W70876  20.746  17.640  14.507
 7318W        W70877   5.855  22.688   4.302
 7319W        W70878  36.946  44.395   3.160
 7320W        W70879   9.822  40.047  13.395
 7321W        W70880  26.968  23.596   4.807
 7322W        W70881  19.279  31.453  10.410
 7323W        W70882  10.274  41.328   0.253
 7324W        W70883  16.306  44.329   3.725
 7325W        W70884   8.730  44.872   4.121
 7326W        W70885  14.819  34.032   9.649
 7327W        W70886  26.602  23.633  14.781
 7328W        W70887  42.852  14.251  12.521
 7329W        W70888  42.980  25.166   0.899
 7330W        W70889  12.736  13.702  11.129
 7331W        W70890  34.424  13.797  11.378
 7332W        W70891  30.651  27.502  11.028
 7333W        W70892  40.977  11.150  14.404
 7334W        W70893  42.020  12.294   1.884
 7335W        W70894  34.025  38.405  10.457
 7336W        W70895  12.692   6.209   3.829
 7337W        W70896  11.766  41.373   5.123
 7338W        W70897   0.987  39.558  10.531
 7339W        W70898  12.633  29.569   0.328
 7340W        W70899  10.347  22.162   2.803
 7341W        W70900  43.424  41.802  14.494
 7342W        W70901  17.744  20.735  12.925
 7343W        W70902  12.224   5.784   4.143
 7344W        W70903   7.361  16.771   2.197
 7345W        W70904  41.428  17.699   3.247
 7346W        W70905  41.872  22.616   4.276
 7347W        W70906  23.999  19.054   2.179
 7348W        W70907  26.512  20.227  13.845
 7349W        W70908  13.728  29.042  13.009
 7350W        W70909  27.034  19.256  13.947
 7351W        W70910  21.164   9.268  13.347
 7352W        W70911  31.514  34.014   0.472
 7353W        W70912  13.268  38.383   3.645
 7354W        W70913  11.711  15.691  14.361
 7355W        W70914  24.486  34.597  11.933
 7356W        W70915  36.955  16.185   2.343
 7357W        W70916  30.639  13.320  12.096
 7358W        W70917   0.415   0.292  10.506
 7359W        W70918  12.634  14.771  12.553
 7360W        W70919   4.357  39.419   0.451
 7361W        W70920  32.073  18.628  10.965
 7362W        W70921  28.145   9.817  14.365
 7363W        W70922  10.362  12.682  12.998
 7364W        W70923  15.647  15.257  13.425
 7365W        W70924  18.078  33.070  12.044
 7366W        W70925  34.899  41.025  12.427
 7367W        W70926   3.853  14.120   2.407
 7368W        W70927  22.684   3.865  14.432
 7369W        W70928  44.911  12.765   4.131
 7370W        W70929  24.546  23.990  11.408
 7371W        W70930  25.554  19.632  13.539
 7372W        W70931  39.039  36.027   5.287
 7373W        W70932  16.746  24.120  12.906
 7374W        W70933  34.501  11.757   0.900
 7375W        W70934  15.790  13.129   2.828
 7376W        W70935   7.194  25.597  13.410
 7377W        W70936   3.307   9.769  10.463
 7378W        W70937  14.599  37.462   0.962
 7379W        W70938   7.312  35.889  12.030
 7380W        W70939  16.605   8.689   5.288
 7381W        W70940  41.030  31.949  14.941
 7382W        W70941  19.161  27.071   0.442
 7383W        W70942   2.878  34.032  14.323
 7384W        W70943  37.368  11.662  14.395
 7385W        W70944  30.646  32.131   1.235
 7386W        W70945  37.404   7.176   1.866
 7387W        W70946  33.405   2.269  11.882
 7388W        W70947  19.706  35.440   3.228
 7389W        W70948   4.316  31.983  14.003
 7390W        W70949  28.035  15.674   4.323
 7391W        W70950  39.413  20.575   3.800
 7392W        W70951  31.120  29.044  12.414
 7393W        W70952  31.998  36.978  11.044
 7394W        W70953  17.232  21.194   2.208
 7395W        W70954   3.952  17.089  11.915
 7396W        W70955   0.767   8.310  12.871
 7397W        W70956  15.148  15.802   3.308
 7398W        W70957   9.858  17.583   4.258
 7399W        W70958  20.076   9.850   3.670
 7400W        W70959  15.244  23.132   9.981
 7401W        W70960  41.529   4.274   0.342
 7402W        W70961  21.615  35.032  13.056
 7403W        W70962  29.541  44.500   3.767
 7404W        W70963  22.144  27.173  10.635
 7405W        W70964  25.177  43.504  12.004
 7406W        W70965  30.045  29.094  12.028
 7407W        W70966  17.646  40.801  14.863
 7408W        W70967  38.396  18.590   2.755
 7409W        W70968  20.055  34.542  14.828
 7410W        W70969   5.375  31.079  13.031
 7411W        W70970  40.878  20.258   4.252
 7412W        W70971  25.038  38.491  11.538
 7413W        W70972  16.764  42.305   2.205
 7414W        W70973  40.468  11.675   2.674
 7415W        W70974  41.938  30.114   4.652
 7416W        W70975  39.819   4.890  12.375
 7417W        W70976  11.212   5.821   1.424
 7418W        W70977   3.268  29.979  13.502
 7419W        W70978  23.560  14.739  10.602
 7420W        W70979  17.084  32.577  11.978
 7421W        W70980  42.920  44.823   4.630
 7422W        W70981   6.859  13.686  11.097
 7423W        W70982  19.139  40.447  13.403
 7424W        W70983  29.091  37.983   0.902
 7425W        W70984  18.764  12.699  13.856
 7426W        W70985  40.888  32.886  12.364
 7427W        W70986  14.778  29.608   4.727
 7428W        W70987  44.964  10.251   3.826
 7429W        W70988  26.999  21.605   2.843
 7430W        W70989  41.466  27.036  14.939
 7431W        W70990  40.338  34.425  14.356
 7432W        W70991  26.951  14.682   2.713
 7433W        W70992  24.040  15.820  10.590
 7434W        W70993  43.993   2.862   2.394
 7435W        W70994  21.713  18.290   0.438
 7436W        W70995   0.849  31.942  12.942
 7437W        W70996  16.688  12.675   1.757
 7438W        W70997  42.495  42.506  11.610
 7439W        W70998  33.570   8.706  10.903
 7440W        W70999  37.497  13.724   4.690
 7441W        W71000  26.106  12.853  11.546
 7442W        W71001  25.549  42.328   1.228
 7443W        W71002  13.677  11.825  12.566
 7444W        W71003  32.029  38.333   9.651
 7445W        W71004  30.589  28.031   3.274
 7446W        W71005  42.965  40.339   5.250
 7447W        W71006  29.546  23.224   4.115
 7448W        W71007   2.328  34.899  13.993
 7449W        W71008  12.141   5.884   1.403
 7450W        W71009  26.962  23.036   0.381
 7451W        W71010  16.742  29.570  13.913
 7452W        W71011  19.087   1.830   3.307
 7453W        W71012   2.262   8.661   4.245
 7454W        W71013  28.580  42.890   3.283
 7455W        W71014  19.085  21.635  10.404
 7456W        W71015  42.406   4.207   4.680
 7457W        W71016  16.169   9.662   9.524
 7458W        W71017   7.326  40.422  10.928
 7459W        W71018  22.652  43.285   0.791
 7460W        W71019  35.477   9.315  14.482
 7461W        W71020  33.524  34.531   4.140
 7462W        W71021  36.858  26.500   3.860
 7463W        W71022  27.083  28.113   1.848
 7464W        W71023  15.113  24.168   3.869
 7465W        W71024  12.813   1.448  12.552
 7466W        W71025   8.368  16.641  12.430
 7467W        W71026   5.691   9.743  11.599
 7468W        W71027  35.601   7.389  11.574
 7469W        W71028  13.158   0.375   1.223
 7470W        W71029  24.166  20.763  10.957
 7471W        W71030  41.375  35.963  13.458
 7472W        W71031   0.783  33.521  11.905
 7473W        W71032  31.075   3.401  10.515
 7474W        W71033  10.178   9.819   2.806
 7475W        W71034  29.628   3.765   0.475
 7476W        W71035  13.668  25.710  13.802
 7477W        W71036  15.744  30.000  12.855
 7478W        W71037  30.549  22.647  14.899
 7479W        W71038  22.110  38.381   4.309
 7480W        W71039   2.728  12.134   3.676
 7481W        W71040  42.384  29.057  13.872
 7482W        W71041  25.209   3.920   4.650
 7483W        W71042  12.771  21.540  12.538
 7484W        W71043  33.572   7.268  12.944
 7485W        W71044   5.932   6.260  14.765
 7486W        W71045  22.056  43.484  12.963
 7487W        W71046   2.378  24.538   4.674
 7488W        W71047  19.049  31.951  12.027
 7489W        W71048  33.030   7.297   1.280
 7490W        W71049  40.364  39.938  12.085
 7491W        W71050  28.015  44.445  13.872
 7492W        W71051   1.381  12.653   4.801
 7493W        W71052  10.383  25.631  12.367
 7494W        W71053  43.277   4.365  14.378
 7495W        W71054   5.288  27.988   4.290
 7496W        W71055  42.963  40.959  13.435
 7497W        W71056   4.744   9.282  13.366
 7498W        W71057  41.326  44.317   1.896
 7499W        W71058  32.465   9.743   0.452
 7500W        W71059  10.208  33.126   3.862
 7501W        W71060   1.360  36.077   3.218
 7502W        W71061  25.971  37.994   2.736
 7503W        W71062   4.766  33.540  14.994
 7504W        W71063  23.065   8.354  11.060
 7505W        W71064  44.960  11.672   3.836
 7506W        W71065  10.170  28.949   9.940
 7507W        W71066  10.863  26.958   4.180
 7508W        W71067  39.529  17.224  11.030
 7509W        W71068   8.838  18.776   1.922
 7510W        W71069  37.981   0.311  11.081
 7511W        W71070  12.677  30.486  14.013
 7512W        W71071  27.501   2.456  11.917
 7513W        W71072  12.351  12.656   5.120
 7514W        W71073  18.632  39.896  12.526
 7515W        W71074  31.046  30.554  10.954
 7516W        W71075   5.278  29.601   4.255
 7517W        W71076  25.579  44.859  13.490
 7518W        W71077  23.237  31.040   2.419
 7519W        W71078  17.133   9.685  13.425
 7520W        W71079  38.949   3.227  11.491
 7521W        W71080  15.236  23.105   4.672
 7522W        W71081   7.666  22.731   2.693
 7523W        W71082   9.801   4.205   3.652
 7524W        W71083  17.177  33.382  13.872
 7525W        W71084   2.952   3.364  11.535
 7526W        W71085  23.575   8.883   0.914
 7527W        W71086  23.082   8.683   3.373
 7528W        W71087  10.658  44.766   4.838
 7529W        W71088   9.657  12.362  11.416
 7530W        W71089  40.370   9.734   1.713
 7531W        W71090  27.029   6.744   2.815
 7532W        W71091  24.703  24.022  13.876
 7533W        W71092  30.499   9.246  13.035
 7534W        W71093  31.046   0.989  10.014
 7535W        W71094  17.183  33.503   5.185
 7536W        W71095  14.155  35.436   5.573
 7537W        W71096  40.352  25.158   4.726
 7538W        W71097   5.405  30.047  12.853
 7539W        W71098  38.892   7.772  14.308
 7540W        W71099  41.393  42.428  13.021
 7541W        W71100  29.436  17.583   4.750
 7542W        W71101  41.335  20.596   4.714
 7543W        W71102  15.204   3.939  14.372
 7544W        W71103  18.153   1.960   0.783
 7545W        W71104   5.333   2.819  13.443
 7546W        W71105  10.311  39.521  14.944
 7547W        W71106   6.783  18.648  14.281
 7548W        W71107  10.212   8.323  12.956
 7549W        W71108  29.527  21.561  14.439
 7550W        W71109  22.529  38.535   4.306
 7551W        W71110  20.232  34.922  13.542
 7552W        W71111  22.523  26.061  13.043
 7553W        W71112   3.319  44.466  12.853
 7554W        W71113   2.926  39.034   2.316
 7555W        W71114  14.169  25.702   0.437
 7556W        W71115  13.197  39.995  11.581
 7557W        W71116  28.081  18.656  13.338
 7558W        W71117   4.767   0.458  13.793
 7559W        W71118  20.760  40.358  14.927
 7560W        W71119  31.567   0.396   3.202
 7561W        W71120  21.549  13.752  13.358
 7562W        W71121  27.484  31.628  10.408
 7563W        W71122   5.267   7.754   3.348
 7564W        W71123  40.505  30.480  13.448
 7565W        W71124  15.667  17.268   2.189
 7566W        W71125  39.909  27.006  11.495
 7567W        W71126  34.459  17.736   1.840
 7568W        W71127  13.831  14.291  12.882
 7569W        W71128  32.899  10.697   0.341
 7570W        W71129   8.304  24.711  12.345
 7571W        W71130  16.206   0.307   2.288
 7572W        W71131   8.859  15.617   4.316
 7573W        W71132  30.624  12.692   0.789
 7574W        W71133  30.550  30.001  13.993
 7575W        W71134  35.557  35.915  13.871
 7576W        W71135  39.533   0.265   3.776
 7577W        W71136   1.316  11.303  12.079
 7578W        W71137  43.437   1.268   0.327
 7579W        W71138  28.073   1.383   0.904
 7580W        W71139   5.432   2.403  12.561
 7581W        W71140  19.183   4.382   1.777
 7582W        W71141  14.303   2.963   3.762
 7583W        W71142   3.330  37.516  13.426
 7584W        W71143  19.712   1.257  12.433
 7585W        W71144  35.556  15.793   9.992
 7586W        W71145  15.186  34.549  10.621
 7587W        W71146   6.333  43.899   1.370
 7588W        W71147  16.242   9.824  12.477
 7589W        W71148  15.807  24.658   5.278
 7590W        W71149  34.114   7.743  12.508
 7591W        W71150   2.318  31.457   0.420
 7592W        W71151  20.681  33.010   5.591
 7593W        W71152   7.906  18.089  12.345
 7594W        W71153  32.104  18.181  11.995
 7595W        W71154   6.269  40.897  14.505
 7596W        W71155   5.819  27.130   2.373
 7597W        W71156   4.247  36.906   0.956
 7598W        W71157  40.515   2.369  10.977
 7599W        W71158  16.137  41.302   2.759
 7600W        W71159   8.363  30.080   2.389
 7601W        W71160   8.283  41.969   4.350
 7602W        W71161  23.727  17.790  13.429
 7603W        W71162  28.174  14.792   2.895
 7604W        W71163  41.441  34.418  12.450
 7605W        W71164   4.358  36.541  14.402
 7606W        W71165  14.194  20.691  13.975
 7607W        W71166  16.103   0.309   4.656
 7608W        W71167   8.210   6.728  10.408
 7609W        W71168   6.381  14.125  12.096
 7610W        W71169  25.578  16.177   2.760
 7611W        W71170  36.009   6.691  14.427
 7612W        W71171  16.096  37.835  11.460
 7613W        W71172  20.191  24.089   1.323
 7614W        W71173  11.275  25.141   1.342
 7615W        W71174  17.101   8.781   3.148
 7616W        W71175  42.522  26.582   0.846
 7617W        W71176   7.392   5.196   0.761
 7618W        W71177  31.930  41.363  14.861
 7619W        W71178   5.333  22.720  11.910
 7620W        W71179   5.213  41.384   4.236
 7621W        W71180   6.384  15.100  13.504
 7622W        W71181  34.984  11.255  12.059
 7623W        W71182  21.257   4.217   3.349
 7624W        W71183   1.876  34.432  11.588
 7625W        W71184  28.584  42.861  12.447
 7626W        W71185  38.845  16.125  13.038
 7627W        W71186  29.560   3.868   2.366
 7628W        W71187   8.834   6.703  11.023
 7629W        W71188  41.934  23.136   0.795
 7630W        W71189   5.736   5.202  13.414
 7631W        W71190  13.332  29.651   1.803
 7632W        W71191  32.950  31.572   4.264
 7633W        W71192  24.227  10.731   3.826
 7634W        W71193  25.093  17.246  14.427
 7635W        W71194  21.526  21.693  13.830
 7636W        W71195  33.981  30.003  14.898
 7637W        W71196  23.643  28.565  11.481
 7638W        W71197  12.789  27.969  11.489
 7639W        W71198  36.902  11.294   2.795
 7640W        W71199   3.818  40.040  14.773
 7641W        W71200  31.627  29.610  12.430
 7642W        W71201  14.799  41.850  13.834
 7643W        W71202  42.502  23.153  14.940
 7644W        W71203   5.703   4.873   0.282
 7645W        W71204  35.575  27.552  14.406
 7646W        W71205  11.845  41.826  12.400
 7647W        W71206  26.692  32.054   0.920
 7648W        W71207  23.237  11.240   1.700
 7649W        W71208   9.840  32.125  14.297
 7650W        W71209  43.276  21.535   1.744
 7651W        W71210   3.225  33.009   3.234
 7652W        W71211   5.250  38.007   1.234
 7653W        W71212   6.686   4.895   3.850
 7654W        W71213  29.496  27.528   1.420
 7655W        W71214  31.034  21.162  10.636
 7656W        W71215  33.956   5.918   2.801
 7657W        W71216  38.431  39.484   2.223
 7658W        W71217   7.298  22.632  12.455
 7659W        W71218  29.141  30.098   4.273
 7660W        W71219  33.993   7.835  13.346
 7661W        W71220  29.160   6.351  11.048
 7662W        W71221  37.482  21.118   1.248
 7663W        W71222   7.414  27.553  14.896
 7664W        W71223   7.265  20.057   1.340
 7665W        W71224  44.946  27.080  11.041
 7666W        W71225  15.700  11.290  14.844
 7667W        W71226  20.694  13.758  10.448
 7668W        W71227  17.115  18.094  10.063
 7669W        W71228   5.395   2.817  10.634
 7670W        W71229  18.606  39.010  14.303
 7671W        W71230  44.361   6.265   0.367
 7672W        W71231   3.950  16.615  10.976
 7673W        W71232   8.238  35.596   3.295
 7674W        W71233  27.173  32.467  14.318
 7675W        W71234   8.774  40.926   4.695
 7676W        W71235  29.967   7.666   0.324
 7677W        W71236  42.815   1.740  11.487
 7678W        W71237   3.942   8.174  10.484
 7679W        W71238  33.967  24.569  10.888
 7680W        W71239  36.475  16.216   4.180
 7681W        W71240  41.902  14.212  13.002
 7682W        W71241  29.110  17.627   2.859
 7683W        W71242  39.866  31.579  13.451
 7684W        W71243   2.394  24.659  14.393
 7685W        W71244  24.229  13.182   4.345
 7686W        W71245  15.223  10.872  13.469
 7687W        W71246  34.922  40.535  10.888
 7688W        W71247  31.141  30.141   4.246
 7689W        W71248   4.822  28.990   4.162
 7690W        W71249  19.635  15.594  10.630
 7691W        W71250   1.773  39.398   0.810
 7692W        W71251   9.201  40.312  10.437
 7693W        W71252   3.820  34.033  11.128
 7694W        W71253  15.644  33.903  12.837
 7695W        W71254  24.517  14.804   2.818
 7696W        W71255   1.940   2.440   4.253
 7697W        W71256  22.082   7.355   0.860
 7698W        W71257  22.506  40.931   1.764
 7699W        W71258   1.791  35.992   1.358
 7700W        W71259   5.418   9.792   0.925
 7701W        W71260  43.932  39.384   0.421
 7702W        W71261  18.555  20.566   1.758
 7703W        W71262  15.195  27.479  12.572
 7704W        W71263  33.945  24.602  11.580
 7705W        W71264   7.751   0.890  10.089
 7706W        W71265  20.142  41.841  11.066
 7707W        W71266  23.210  13.691   4.332
 7708W        W71267  14.222  35.891  14.967
 7709W        W71268  20.031   5.215   1.262
 7710W        W71269  44.418  44.896   2.223
 7711W        W71270  24.186   8.673  13.478
 7712W        W71271  44.295  15.652  10.923
 7713W        W71272  37.490  16.662  12.008
 7714W        W71273   9.744  21.181   3.743
 7715W        W71274  43.001  35.861   1.862
 7716W        W71275   7.823  12.799   5.188
 7717W        W71276  14.737   3.232  10.565
 7718W        W71277  11.754   3.334   4.719
 7719W        W71278  24.513  36.577   2.884
 7720W        W71279  24.984  14.296  11.904
 7721W        W71280  35.570  26.656   3.702
 7722W        W71281  29.129   8.320  14.482
 7723W        W71282   3.427  24.707   3.867
 7724W        W71283  40.442   3.455  12.891
 7725W        W71284  13.197   6.758   0.783
 7726W        W71285   4.925   5.195  13.886
 7727W        W71286   7.827  30.644  11.530
 7728W        W71287  16.251  39.418   3.375
 7729W        W71288  35.069  39.013  13.359
 7730W        W71289  10.306  29.158  12.085
 7731W        W71290  36.512  37.961  13.353
 7732W        W71291  44.369   4.756   3.754
 7733W        W71292  14.761   9.658   5.089
 7734W        W71293  43.342   6.251  10.089
 7735W        W71294  20.640   8.778  11.494
 7736W        W71295  19.088  41.805   0.910
 7737W        W71296  13.776  14.636   2.893
 7738W        W71297  30.142  37.029   1.380
 7739W        W71298  25.973  40.827  13.961
 7740W        W71299   8.720   4.819   0.875
 7741W        W71300  33.577  38.340  12.968
 7742W        W71301  38.855   5.848  14.941
 7743W        W71302  28.649  16.241  13.831
 7744W        W71303  43.867  22.080  11.995
 7745W        W71304  11.835  38.922  10.910
 7746W        W71305  25.546  42.447   4.287
 7747W        W71306  32.106  43.933  11.107
 7748W        W71307  44.901  13.681  12.466
 7749W        W71308  23.236  27.988  14.375
 7750W        W71309  13.252  29.519   2.718
 7751W        W71310  43.823  38.847   3.231
 7752W        W71311  20.083  20.528  14.486
 7753W        W71312  35.596  10.730  13.970
 7754W        W71313  34.452  34.895   1.286
 7755W        W71314  39.544  40.806  10.463
 7756W        W71315  32.099  28.083   2.761
 7757W        W71316   9.175  31.061  14.424
 7758W        W71317  24.718  12.178  14.905
 7759W        W71318   4.412   8.757  12.422
 7760W        W71319  34.873  11.850  11.960
 7761W        W71320  38.889   7.881  12.917
 7762W        W71321  14.619  18.580  14.813
 7763W        W71322  39.403  44.842  13.004
 7764W        W71323  37.373  38.026   3.248
 7765W        W71324  31.060  32.421   2.206
 7766W        W71325  36.494  36.438  11.498
 7767W        W71326  24.633  21.741  10.083
 7768W        W71327  20.679  18.224  12.875
 7769W        W71328  23.197  29.427   1.842
 7770W        W71329  36.491  18.143  13.390
 7771W        W71330  44.282   7.770   1.827
 7772W        W71331  31.988  22.669  12.551
 7773W        W71332  12.182  22.596  10.439
 7774W        W71333  40.452   8.193  13.406
 7775W        W71334  25.074  19.562  13.877
 7776W        W71335  15.808  10.373  11.612
 7777W        W71336  20.228  13.735   1.760
 7778W        W71337   1.957   8.749   5.172
 7779W        W71338  38.036  25.703   2.686
 7780W        W71339  15.634  11.246   1.857
 7781W        W71340  35.884   0.891   3.245
 7782W        W71341  12.313  19.236  12.986
 7783W        W71342  15.758   6.851   4.643
 7784W        W71343   7.282  31.548  11.048
 7785W        W71344   5.926  43.944   1.768
 7786W        W71345  35.069  12.703   4.828
 7787W        W71346   8.170   4.428   0.405
 7788W        W71347  25.613  31.939   0.266
 7789W        W71348  23.632  10.665  11.554
 7790W        W71349   5.315  38.054   4.634
 7791W        W71350  28.157  18.650   1.714
 7792W        W71351   8.162  16.595   2.829
 7793W        W71352  12.291  16.074  10.410
 7794W        W71353   7.221  37.502  12.034
 7795W        W71354  23.580  16.228   3.843
 7796W        W71355  18.647  32.411   1.735
 7797W        W71356  14.226  24.557   4.170
 7798W        W71357  34.100  39.519   1.750
 7799W        W71358  29.138   7.223  14.481
 7800W        W71359  28.561  35.585   1.357
 7801W        W71360  20.051   1.347  13.529
 7802W        W71361  19.600  35.466  13.973
 7803W        W71362  17.632  10.216   2.810
 7804W        W71363  12.135  44.897  13.356
 7805W        W71364  16.161  28.987   2.229
 7806W        W71365  14.332   0.270  12.084
 7807W        W71366   0.349   6.254  11.570
 7808W        W71367  37.023   3.377  11.522
 7809W        W71368  11.729  36.042   2.207
 7810W        W71369   2.768  31.449  11.110
 7811W        W71370  39.391  26.106  14.032
 7812W        W71371  32.527  43.308  12.921
 7813W        W71372  32.919  41.875   2.814
 7814W        W71373  15.631  43.809   0.476
 7815W        W71374  17.663  23.598  14.341
 7816W        W71375  17.732  22.191  14.400
 7817W        W71376  27.101   4.929   3.273
 7818W        W71377   2.764  16.141  13.361
 7819W        W71378  36.012  24.196  14.449
 7820W        W71379  11.156  23.555   0.906
 7821W        W71380  12.174  43.318  14.995
 7822W        W71381  26.589  19.060   4.241
 7823W        W71382  34.450  43.330  13.867
 7824W        W71383  41.449  20.525  11.935
 7825W        W71384  38.411   9.394   4.157
 7826W        W71385  38.404  20.217  11.085
 7827W        W71386   7.188  11.346   2.192
 7828W        W71387  34.395  27.044  12.455
 7829W        W71388  28.495   9.279   2.202
 7830W        W71389  27.173  15.687  11.461
 7831W        W71390  24.565  29.514  11.427
 7832W        W71391  22.222   1.391   2.792
 7833W        W71392  11.348   0.820  14.479
 7834W        W71393   2.922   8.889  12.935
 7835W        W71394   8.724  26.681   0.480
 7836W        W71395   2.848  42.315  13.944
 7837W        W71396   9.792  34.026  12.027
 7838W        W71397  18.632  10.340   3.255
 7839W        W71398  22.183  44.486  12.364
 7840W        W71399  28.446  18.706  12.970
 7841W        W71400  15.224  41.499  11.016
 7842W        W71401  31.409  36.015   0.805
 7843W        W71402   8.680  25.643   3.367
 7844W        W71403  12.268  14.136  13.443
 7845W        W71404  36.934   7.388  11.550
 7846W        W71405   7.767  44.366   2.288
 7847W        W71406  18.110  23.628   3.318
 7848W        W71407   5.410  44.422  13.808
 7849W        W71408  15.254  30.461   2.333
 7850W        W71409  22.050  15.676   2.861
 7851W        W71410  32.571  21.120  10.955
 7852W        W71411  28.025  18.247   2.371
 7853W        W71412  30.648  24.671  10.990
 7854W        W71413  27.165  43.903   1.845
 7855W        W71414  42.393   0.902   2.901
 7856W        W71415  34.551  24.977   2.275
 7857W        W71416  18.211  36.394   1.789
 7858W        W71417  35.042  10.719  11.576
 7859W        W71418  16.645  26.504   1.698
 7860W        W71419  43.788  36.592   4.322
 7861W        W71420   8.237  13.742   1.335
 7862W        W71421   2.272  35.360   2.809
 7863W        W71422  10.209   7.276  13.062
 7864W        W71423   5.297   2.834   0.879
 7865W        W71424  43.950  25.101  14.377
 7866W        W71425  29.032  10.323  12.036
 7867W        W71426  32.046  29.103   0.434
 7868W        W71427  41.398  28.568  12.028
 7869W        W71428  25.517   3.763  13.839
 7870W        W71429  16.113  27.680   1.338
 7871W        W71430  41.353  44.766  14.474
 7872W        W71431  29.470  18.754   3.222
 7873W        W71432  16.273  36.029  12.480
 7874W        W71433  25.522   9.730   2.349
 7875W        W71434  20.208  36.454  12.516
 7876W        W71435  30.601  12.777  14.868
 7877W        W71436  16.682   6.815   5.215
 7878W        W71437  24.649  32.974  14.957
 7879W        W71438  44.986  37.366  12.936
 7880W        W71439   6.198  19.653  13.811
 7881W        W71440   2.232  33.086   1.861
 7882W        W71441   2.837  42.867  13.979
 7883W        W71442  39.841  11.802   3.802
 7884W        W71443   4.879  18.667   3.232
 7885W        W71444  35.417  19.100   4.809
 7886W        W71445  39.432  31.575   2.848
 7887W        W71446  29.644   4.426  12.525
 7888W        W71447  15.724  12.627  12.885
 7889W        W71448  35.869  44.411  11.582
 7890W        W71449  27.028  16.146  11.948
 7891W        W71450  33.562   2.391  14.924
 7892W        W71451  24.646  18.610   2.397
 7893W        W71452  18.769  28.054  13.465
 7894W        W71453   9.792  24.624  10.474
 7895W        W71454  31.051  33.072   4.208
 7896W        W71455   1.471  23.203   4.817
 7897W        W71456  37.845  22.018  10.994
 7898W        W71457  25.504  36.415  11.443
 7899W        W71458   7.226  39.865  13.356
 7900W        W71459   1.795  20.608  13.337
 7901W        W71460  13.700  32.487  14.788
 7902W        W71461  11.698  31.458   1.379
 7903W        W71462   6.715   6.264   4.822
 7904W        W71463  42.892  23.538  12.878
 7905W        W71464  19.127   9.313  14.871
 7906W        W71465  30.522  10.807  10.543
 7907W        W71466  39.866  20.754   1.354
 7908W        W71467  20.563  13.753   3.209
 7909W        W71468  41.448  42.484   2.363
 7910W        W71469  21.751  39.862  14.836
 7911W        W71470   2.736  27.638  11.887
 7912W        W71471  41.021  43.905   3.785
 7913W        W71472  36.883  27.150  10.443
 7914W        W71473  42.976  21.120   5.254
 7915W        W71474   5.859  29.501  14.853
 7916W        W71475  41.297  23.599   2.854
 7917W        W71476  36.451  36.903   3.760
 7918W        W71477  31.031  33.956   2.706
 7919W        W71478  35.481   5.358   0.380
 7920W        W71479  18.172  28.652   3.323
 7921W        W71480   3.739  21.171   0.882
 7922W        W71481  31.903  38.936  12.887
 7923W        W71482  38.406   1.947   3.290
 7924W        W71483  42.503  32.927   2.269
 7925W        W71484  22.024  25.153   3.335
 7926W        W71485   7.416  18.086  12.537
 7927W        W71486  26.057  40.307  10.455
 7928W        W71487  21.618  38.056   1.318
 7929W        W71488  11.638  13.118   5.595
 7930W        W71489  15.179   9.159   1.882
 7931W        W71490   8.237  34.415   2.895
 7932W        W71491  18.750  25.480  10.461
 7933W        W71492  27.590  40.918  14.009
 7934W        W71493   4.261  32.942  12.439
 7935W        W71494  43.428  20.058  14.993
 7936W        W71495  41.863  31.962  10.957
 7937W        W71496  30.637  43.446   1.731
 7938W        W71497   6.414  20.552  12.396
 7939W        W71498  22.138   0.750  14.509
 7940W        W71499  17.629  14.796   3.818
 7941W        W71500  13.715  22.619   1.839
 7942W        W71501  44.813  23.685  11.860
 7943W        W71502   8.311  14.177  13.923
 7944W        W71503  21.243  29.524  14.773
 7945W        W71504   6.795  19.099  14.485
 7946W        W71505   2.345  31.150  13.413
 7947W        W71506  44.285  36.370   1.922
 7948W        W71507   8.834  17.727  11.960
 7949W        W71508   2.878  13.347  10.637
 7950W        W71509  10.707  21.562   2.847
 7951W        W71510  26.472  38.565   2.201
 7952W        W71511  44.865  25.533  14.433
 7953W        W71512  35.918  22.073   1.740
 7954W        W71513  39.525  34.609   4.764
 7955W        W71514  42.338  26.516  14.404
 7956W        W71515   0.871  25.609  10.539
 7957W        W71516   5.903  35.408  10.511
 7958W        W71517   2.848  36.534  14.966
 7959W        W71518   0.360  43.860   4.236
 7960W        W71519  41.445  29.101   4.599
 7961W        W71520  21.563  44.463  10.128
 7962W        W71521  15.615  27.038  14.333
 7963W        W71522  38.553   5.317   3.758
 7964W        W71523   5.934   7.705  12.430
 7965W        W71524  17.604  11.661  13.492
 7966W        W71525  27.962  20.255  14.822
 7967W        W71526  27.968   3.857  13.494
 7968W        W71527  27.667  14.704  12.049
 7969W        W71528   5.355  17.761  10.461
 7970W        W71529   4.216  24.505   4.352
 7971W        W71530  17.720  32.621   0.749
 7972W        W71531  22.220  23.730  11.045
 7973W        W71532  10.287   3.860  14.877
 7974W        W71533  23.157   3.863  12.392
 7975W        W71534   2.360  33.476   1.850
 7976W        W71535   0.988  29.484  10.472
 7977W        W71536  42.524  33.513   3.824
 7978W        W71537  41.979  13.761   1.444
 7979W        W71538  37.847  44.309   4.181
 7980W        W71539  14.314  22.539  12.417
 7981W        W71540  31.024  20.028   1.295
 7982W        W71541  31.007   1.447   1.415
 7983W        W71542  16.762  30.659  14.839
 7984W        W71543  14.720   6.843   3.317
 7985W        W71544   9.267  37.932  12.052
 7986W        W71545  12.794  12.202   1.850
 7987W        W71546  23.567  28.986  12.520
 7988W        W71547  18.226  30.624   0.938
 7989W        W71548   2.922  10.850   2.351
 7990W        W71549  24.674  17.195   0.253
 7991W        W71550  13.118  29.495   3.201
 7992W        W71551   2.860   0.944  13.327
 7993W        W71552  10.744  25.104  14.849
 7994W        W71553  16.167  44.821  13.857
 7995W        W71554   0.325  34.459   3.278
 7996W        W71555  22.707  26.198   3.180
 7997W        W71556  31.444  40.351   3.146
 7998W        W71557  12.283   4.792  11.460
 7999W        W71558  33.507  23.209  13.452
 8000W        W71559  18.230  41.348  14.302
 8001W        W71560  31.492   3.259   0.319
 8002W        W71561  11.184  27.451   2.880
 8003W        W71562  18.091  19.155   4.220
 8004W        W71563  16.277   7.214   2.811
 8005W        W71564   8.391  44.861   1.897
 8006W        W71565  27.666  14.674  11.485
 8007W        W71566  21.187  33.012   3.809
 8008W        W71567   4.848  12.624  13.442
 8009W        W71568  12.116  13.657   2.776
 8010W        W71569  28.548  14.186   3.677
 8011W        W71570   1.899  26.700  14.443
 8012W        W71571   9.717   2.962  12.883
 8013W        W71572  32.407  27.162  11.983
 8014W        W71573  27.689   6.250  11.875
 8015W        W71574  44.301  43.511   2.227
 8016W        W71575  30.042   5.256  13.534
 8017W        W71576  11.778  25.112  14.488
 8018W        W71577  17.239  34.519  10.130
 8019W        W71578  22.523  31.113  10.458
 8020W        W71579   3.761  26.456   4.290
 8021W        W71580  23.047  32.512  11.999
 8022W        W71581  11.694  34.933   1.271
 8023W        W71582  23.516  38.528  11.871
 8024W        W71583  27.959  24.597  14.797
 8025W        W71584  15.102  17.602  11.968
 8026W        W71585   7.282  32.586  12.547
 8027W        W71586  17.633  38.457  14.457
 8028W        W71587   9.807  11.321  14.910
 8029W        W71588   6.892  41.991  11.938
 8030W        W71589  16.642  44.393  12.349
 8031W        W71590  27.161  33.984   1.366
 8032W        W71591  10.283  29.932   1.384
 8033W        W71592   2.895   5.844   1.377
 8034W        W71593  10.356  24.571  12.390
 8035W        W71594  42.442  41.866  14.027
 8036W        W71595  24.574  34.521   0.457
 8037W        W71596  18.709  16.643  13.370
 8038W        W71597  33.529  41.877   0.242
 8039W        W71598  13.834  35.936  10.487
 8040W        W71599  27.120  13.679   4.762
 8041W        W71600  35.880  20.104  13.826
 8042W        W71601  19.197  29.026  11.906
 8043W        W71602  13.646  12.150  12.069
 8044W        W71603  33.955   5.890   3.702
 8045W        W71604  37.016  35.360   2.330
 8046W        W71605  22.585  25.659  14.930
 8047W        W71606  36.351   3.401  14.304
 8048W        W71607  30.638   2.450  12.348
 8049W        W71608  39.049  33.419  12.916
 8050W        W71609   6.391  44.993  12.092
 8051W        W71610  35.561  37.361   4.337
 8052W        W71611  42.949  12.316   4.741
 8053W        W71612  15.215  41.954   4.312
 8054W        W71613  35.095   3.832  13.322
 8055W        W71614  29.993   4.429  14.935
 8056W        W71615  29.990  41.791   9.951
 8057W        W71616  14.741  24.695   0.940
 8058W        W71617  17.219  36.483   0.777
 8059W        W71618  43.904  13.120  10.472
 8060W        W71619  36.862  11.855   3.321
 8061W        W71620   7.260  15.588   4.264
 8062W        W71621  43.306   8.346  11.991
 8063W        W71622  39.986   0.974   4.169
 8064W        W71623  24.983  25.637  14.798
 8065W        W71624  12.240  18.554   1.727
 8066W        W71625  21.065  11.698  11.914
 8067W        W71626   8.721  28.681   4.643
 8068W        W71627  36.052  14.191  10.611
 8069W        W71628  27.010   1.872  14.964
 8070W        W71629  32.919  30.042  12.028
 8071W        W71630  33.959  43.912  10.947
 8072W        W71631   4.800   4.211   1.737
 8073W        W71632  22.572  24.074   1.420
 8074W        W71633  12.682  14.246  13.857
 8075W        W71634  27.669  29.490  12.341
 8076W        W71635   8.206  22.152  13.880
 8077W        W71636  29.106  34.961   0.325
 8078W        W71637   1.815  27.468   3.763
 8079W        W71638  30.074  12.329  11.504
 8080W        W71639  18.264  40.422  12.961
 8081W        W71640  38.363  27.670  13.544
 8082W        W71641  12.812  13.837  14.396
 8083W        W71642  27.494  11.194   1.398
 8084W        W71643  27.151   2.781  12.405
 8085W        W71644   5.398  38.973  12.967
 8086W        W71645  20.640  38.354   4.270
 8087W        W71646  29.089  33.108   0.910
 8088W        W71647  11.842  40.529  12.390
 8089W        W71648   2.747   7.228  14.814
 8090W        W71649  13.738   7.213   1.262
 8091W        W71650  10.172  23.651   1.387
 8092W        W71651  27.611   8.165  11.568
 8093W        W71652  31.038  44.764  12.076
 8094W        W71653  23.518  23.581  13.866
 8095W        W71654   2.756   5.217   1.930
 8096W        W71655  25.129  10.709   3.303
 8097W        W71656   9.795  11.769   5.083
 8098W        W71657  40.452  43.833   4.823
 8099W        W71658  13.184   6.376   2.193
 8100W        W71659  11.803  25.209   1.846
 8101W        W71660  10.338  31.536  13.933
 8102W        W71661  41.942  27.469  14.012
 8103W        W71662  37.338  44.406   3.285
 8104W        W71663  12.293  14.767   1.376
 8105W        W71664   6.416  32.560   2.343
 8106W        W71665  16.192  41.493   0.351
 8107W        W71666  42.843  19.533  14.932
 8108W        W71667  34.867  27.000  11.904
 8109W        W71668  29.456  34.441  12.046
 8110W        W71669  36.063  38.987   0.823
 8111W        W71670   9.362   2.897   1.710
 8112W        W71671  42.428   8.844   4.641
 8113W        W71672   8.705   7.710   4.310
 8114W        W71673  25.068  43.858   4.143
 8115W        W71674  18.787  20.091  12.836
 8116W        W71675  38.496   6.715   2.820
 8117W        W71676  38.361  18.602   0.384
 8118W        W71677  44.984  13.659   3.854
 8119W        W71678  23.162  33.915   4.727
 8120W        W71679  31.979  34.871  13.025
 8121W        W71680  34.530  28.566  11.103
 8122W        W71681  25.675  25.664  11.407
 8123W        W71682  41.846  30.026  14.941
 8124W        W71683  19.215  30.092   3.307
 8125W        W71684   3.744  12.770   3.847
 8126W        W71685   4.225  37.999   1.369
 8127W        W71686  25.057  38.020   2.738
 8128W        W71687  18.215  28.041  13.318
 8129W        W71688   5.246  32.920  12.916
 8130W        W71689   4.396  25.211   0.248
 8131W        W71690  29.479   2.748   3.707
 8132W        W71691  12.693  29.520   2.664
 8133W        W71692   0.341  44.401   1.240
 8134W        W71693   4.347  25.181  12.068
 8135W        W71694  13.338   1.851   0.921
 8136W        W71695  16.160  32.476  13.391
 8137W        W71696  17.710  26.979   3.249
 8138W        W71697  22.042  28.511   1.704
 8139W        W71698  34.421  25.042  12.532
 8140W        W71699   3.831  32.521  12.978
 8141W        W71700  35.452   7.878  13.818
 8142W        W71701  30.432  21.513  14.402
 8143W        W71702  20.563  41.493   2.703
 8144W        W71703  42.863  13.272   1.918
 8145W        W71704  16.687  43.477   4.168
 8146W        W71705  25.993  34.486  11.610
 8147W        W71706  15.328  32.487   4.181
 8148W        W71707  40.864  15.744   4.220
 8149W        W71708  20.182   2.344   3.655
 8150W        W71709  27.490  16.650   4.684
 8151W        W71710  37.448   4.424   1.325
 8152W        W71711  18.549   4.334  11.894
 8153W        W71712  11.223   7.333  11.976
 8154W        W71713  22.018  26.047  13.030
 8155W        W71714   8.393  22.020  11.014
 8156W        W71715  41.508  13.687  12.555
 8157W        W71716   4.900  44.758   1.423
 8158W        W71717  15.630  24.176   0.762
 8159W        W71718  39.341  29.068   4.715
 8160W        W71719  29.121   0.754  13.991
 8161W        W71720  44.477  41.525  10.642
 8162W        W71721  19.209  27.650   5.734
 8163W        W71722  36.053   3.895   0.348
 8164W        W71723  29.468   8.752   3.677
 8165W        W71724   0.848  38.406   1.807
 8166W        W71725   8.690  30.632  12.864
 8167W        W71726  31.499  15.619   3.335
 8168W        W71727  27.468  33.888   0.290
 8169W        W71728  10.763  41.038   3.282
 8170W        W71729  23.504  15.616   0.249
 8171W        W71730  18.279   8.852   0.277
 8172W        W71731  21.251   5.224   0.920
 8173W        W71732  43.358  25.490  12.991
 8174W        W71733   9.655  16.097   2.772
 8175W        W71734  11.372  21.638  12.455
 8176W        W71735  40.488  33.511  14.995
 8177W        W71736  41.883  44.418  12.468
 8178W        W71737   4.731  18.581   5.252
 8179W        W71738  25.136  42.376   3.256
 8180W        W71739   1.396  39.546  13.999
 8181W        W71740  14.752  16.785  11.122
 8182W        W71741   2.362   4.413  14.984
 8183W        W71742  33.939  31.549  10.960
 8184W        W71743   0.333  43.950  12.437
 8185W        W71744  35.864  16.770  12.082
 8186W        W71745  22.009  10.289  13.803
 8187W        W71746  34.934  12.211   9.987
 8188W        W71747  10.375  23.526   1.853
 8189W        W71748   9.643  36.089  11.396
 8190W        W71749   1.964  31.023  11.021
 8191W        W71750  25.573  22.679  13.964
 8192W        W71751   2.359  40.898  14.879
 8193W        W71752  31.003  28.081   4.801
 8194W        W71753  14.743  43.427   1.406
 8195W        W71754  26.457  29.575   3.227
 8196W        W71755   4.300  30.574  14.022
 8197W        W71756  38.567  41.404   3.312
 8198W        W71757  35.599   1.379   1.863
 8199W        W71758   7.417  13.254   4.319
 8200W        W71759   8.332   2.408   1.932
 8201W        W71760   0.431   0.250   2.901
 8202W        W71761  42.455   9.332   0.381
 8203W        W71762  17.637  24.560   4.204
 8204W        W71763  18.078  13.725   3.306
 8205W        W71764  16.773   0.332  10.920
 8206W        W71765  44.445   1.749  12.893
 8207W        W71766  44.373  44.935   2.852
 8208W        W71767  34.597  10.722  14.988
 8209W        W71768  26.699  10.271   4.834
 8210W        W71769   3.752  34.034   0.762
 8211W        W71770  31.465  27.074   4.306
 8212W        W71771  16.142  31.599   2.765
 8213W        W71772  23.498  33.552   1.385
 8214W        W71773  29.561   3.365  14.375
 8215W        W71774  29.131  41.949  10.959
 8216W        W71775  33.556  10.752   0.360
 8217W        W71776  19.231  36.449  11.076
 8218W        W71777   4.717  35.372  13.061
 8219W        W71778  28.058  12.321   1.722
 8220W        W71779  22.673  28.105   1.376
 8221W        W71780   7.725  37.994   4.607
 8222W        W71781  41.372  43.933  10.475
 8223W        W71782  28.629  21.185  14.999
 8224W        W71783  15.198  23.621   1.896
 8225W        W71784  33.523  25.096   4.246
 8226W        W71785  16.769  27.599  12.872
 8227W        W71786  38.908  32.077  13.907
 8228W        W71787   7.371   1.254  10.484
 8229W        W71788  24.084  41.000   0.289
 8230W        W71789  28.015   8.391  11.038
 8231W        W71790   3.349   4.837   2.369
 8232W        W71791  11.328  17.136   3.312
 8233W        W71792  30.536  43.952  14.937
 8234W        W71793  33.553  26.000  11.036
 8235W        W71794  14.256  11.832   3.839
 8236W        W71795  21.647  22.622  12.840
 8237W        W71796  11.795  11.317  11.096
 8238W        W71797   7.835   3.872   0.338
 8239W        W71798  32.505  44.307  14.283
 8240W        W71799   0.775  29.946   1.287
 8241W        W71800   3.840  41.433   1.439
 8242W        W71801  21.096  40.975  10.485
 8243W        W71802  16.642   3.924  10.987
 8244W        W71803  42.918  32.426   2.314
 8245W        W71804  38.850  36.950  14.318
 8246W        W71805  19.123   7.680  12.939
 8247W        W71806  38.422   8.756   3.385
 8248W        W71807   2.274  25.117  12.454
 8249W        W71808  21.224  36.943   3.828
 8250W        W71809  20.233  24.002  11.612
 8251W        W71810  24.219  30.105  12.088
 8252W        W71811  32.491  42.399   0.903
 8253W        W71812  21.552  43.010   2.317
 8254W        W71813  20.639  36.392  13.821
 8255W        W71814  23.129  23.109  11.544
 8256W        W71815  14.719   0.756  12.855
 8257W        W71816  21.704  36.570   2.419
 8258W        W71817  28.486  17.224  11.028
 8259W        W71818  29.138   5.800   0.306
 8260W        W71819  32.052  31.968   0.358
 8261W        W71820  26.702  23.987   4.198
 8262W        W71821   3.453  13.220  12.934
 8263W        W71822   1.460  38.957   1.279
 8264W        W71823  21.607  10.852   4.230
 8265W        W71824   2.406   6.757  10.617
 8266W        W71825  34.577  29.924  12.409
 8267W        W71826  13.311  30.452   0.756
 8268W        W71827  11.164  42.990  13.505
 8269W        W71828   3.344  32.136   0.420
 8270W        W71829  34.466   8.216  13.499
 8271W        W71830  10.729  24.653   5.802
 8272W        W71831   4.929  35.403  14.968
 8273W        W71832  33.009   2.444   4.316
 8274W        W71833  13.649  43.925   2.354
 8275W        W71834  14.305  30.415   2.194
 8276W        W71835  29.162  21.051   0.813
 8277W        W71836   9.822  31.057  12.479
 8278W        W71837  13.764  12.763  13.942
 8279W        W71838  19.738  14.151   2.761
 8280W        W71839  30.484  24.186   2.866
 8281W        W71840   3.787   9.729   3.190
 8282W        W71841  44.283  38.964  14.015
 8283W        W71842  33.608   1.805   5.221
 8284W        W71843  21.191  29.591   0.414
 8285W        W71844  28.070  40.500  11.497
 8286W        W71845  31.975  21.536   0.408
 8287W        W71846  10.314  43.821   2.339
 8288W        W71847  30.061   7.280  14.456
 8289W        W71848  29.123  23.621  13.873
 8290W        W71849   2.408   4.355   0.862
 8291W        W71850  32.473  13.276   1.235
 8292W        W71851  44.445   9.811   3.235
 8293W        W71852  31.432   8.258  11.528
 8294W        W71853  32.554  10.825  13.478
 8295W        W71854  35.399  31.462   0.925
 8296W        W71855  24.671   4.291  12.493
 8297W        W71856   6.204  33.432  11.601
 8298W        W71857  24.114   0.985   0.948
 8299W        W71858  23.198  39.468   0.807
 8300W        W71859  28.574  24.032   4.236
 8301W        W71860  28.068   3.925  13.862
 8302W        W71861  26.546  39.559   1.717
 8303W        W71862  44.418  35.449   3.365
 8304W        W71863  26.675   6.281  11.011
 8305W        W71864   9.686  24.005  12.452
 8306W        W71865  12.846  35.448  11.104
 8307W        W71866  26.116  37.567   4.831
 8308W        W71867   6.763  30.036   2.835
 8309W        W71868  19.664  27.557   0.337
 8310W        W71869  16.086  13.648  14.828
 8311W        W71870   5.285  28.043  14.026
 8312W        W71871  34.866  31.030   2.330
 8313W        W71872   5.913   6.347   4.806
 8314W        W71873  43.925  15.169  13.332
 8315W        W71874  31.915  15.739   0.249
 8316W        W71875  26.598  39.506   2.901
 8317W        W71876  31.520  34.554  11.558
 8318W        W71877  14.105   2.777   2.844
 8319W        W71878  23.200   9.189   2.392
 8320W        W71879  37.552   7.179  10.971
 8321W        W71880  28.962   7.901   3.262
 8322W        W71881   2.778   5.321  14.281
 8323W        W71882  19.621  23.206   2.315
 8324W        W71883   1.889  32.411  14.004
 8325W        W71884  21.124  38.879   4.807
 8326W        W71885  17.079  39.907   4.655
 8327W        W71886  20.626  41.450  11.494
 8328W        W71887  40.042   4.812   4.790
 8329W        W71888   5.762  44.426  13.949
 8330W        W71889  21.038  31.482  10.425
 8331W        W71890  23.727  38.377  11.480
 8332W        W71891   7.827  18.167  13.988
 8333W        W71892  21.263   7.902  11.423
 8334W        W71893  27.624  38.932   2.248
 8335W        W71894  27.107  32.070  10.622
 8336W        W71895  15.687  13.685   0.315
 8337W        W71896  41.430   7.723   3.349
 8338W        W71897  27.596  27.512   3.821
 8339W        W71898  26.083  25.655  11.603
 8340W        W71899  21.716  35.452  12.050
 8341W        W71900  41.301  37.085   1.361
 8342W        W71901   1.476  38.831   3.158
 8343W        W71902  32.013   2.368   1.215
 8344W        W71903   7.697   8.801   1.918
 8345W        W71904  21.530  41.034   1.933
 8346W        W71905  39.467   0.837   0.313
 8347W        W71906   3.826  26.550  14.925
 8348W        W71907  24.117  14.308   0.946
 8349W        W71908  14.669  26.096  11.436
 8350W        W71909  10.869  17.717   3.703
 8351W        W71910  32.550  25.621   0.448
 8352W        W71911  15.664  36.991  12.994
 8353W        W71912  29.506  37.543  13.035
 8354W        W71913  40.948  43.325  13.546
 8355W        W71914  40.028  14.290  14.869
 8356W        W71915   8.299   1.292   0.457
 8357W        W71916  18.767  15.736   4.792
 8358W        W71917  15.317  27.037  11.001
 8359W        W71918  21.700  38.406   0.845
 8360W        W71919   8.173  25.639   4.238
 8361W        W71920   7.395  38.481  10.545
 8362W        W71921  43.338  35.555   2.392
 8363W        W71922  25.515  24.078  14.937
 8364W        W71923  41.923  21.222   2.716
 8365W        W71924  18.726  20.240   2.187
 8366W        W71925  13.636  31.588  13.976
 8367W        W71926  20.701  35.026   0.352
 8368W        W71927   7.702   0.307   1.265
 8369W        W71928  43.416  37.836  14.842
 8370W        W71929  12.328  43.809  11.505
 8371W        W71930   0.970  29.055   4.180
 8372W        W71931  23.582   1.266   1.213
 8373W        W71932  39.314  33.922   1.397
 8374W        W71933  33.065  30.959   3.280
 8375W        W71934  40.804  32.985   2.843
 8376W        W71935  19.666  13.838   1.284
 8377W        W71936  35.598  10.325  13.851
 8378W        W71937  10.775  16.227  14.456
 8379W        W71938  29.589  13.612  11.897
 8380W        W71939   9.688   9.260   0.937
 8381W        W71940  30.455   4.809   4.238
 8382W        W71941  30.507  31.990  12.919
 8383W        W71942   3.778   5.881   1.698
 8384W        W71943   5.910  25.083   1.254
 8385W        W71944  39.850   3.785  12.007
 8386W        W71945   2.287  40.305  12.440
 8387W        W71946   1.315  24.666  13.371
 8388W        W71947   8.773  21.183   2.199
 8389W        W71948  42.031  38.877  14.408
 8390W        W71949  23.046  28.140  13.983
 8391W        W71950  14.194  12.643   0.860
 8392W        W71951   3.451   0.976   4.598
 8393W        W71952  18.759  12.207  10.558
 8394W        W71953  42.442  15.601   1.716
 8395W        W71954   1.445  43.848   1.857
 8396W        W71955  38.926   5.279  10.495
 8397W        W71956  17.224  29.553  13.008
 8398W        W71957  15.125  42.432   0.914
 8399W        W71958   9.889   0.441   0.350
 8400W        W71959  10.204  40.888   0.739
 8401W        W71960  33.973   5.338  10.471
 8402W        W71961  24.670  27.098   1.895
 8403W        W71962   8.190  13.130   4.186
 8404W        W71963   1.306  11.337   0.322
 8405W        W71964   1.300  14.691   4.751
 8406W        W71965  16.192  23.206   5.136
 8407W        W71966  14.756  11.642   1.394
 8408W        W71967  21.065   6.280   1.439
 8409W        W71968   9.797  41.992   4.211
 8410W        W71969  41.305  26.075   0.870
 8411W        W71970   0.768  14.327  11.084
 8412W        W71971  26.458  34.395   2.891
 8413W        W71972  27.025  29.641   2.683
 8414W        W71973  34.058   7.702  11.425
 8415W        W71974  44.785  13.122  13.380
 8416W        W71975  44.427   7.866  10.484
 8417W        W71976  38.342  10.760  11.473
 8418W        W71977   5.817  38.422  11.403
 8419W        W71978  33.400  22.530   0.939
 8420W        W71979  30.979  14.605  14.967
 8421W        W71980   5.746  16.135  12.015
 8422W        W71981  21.663  29.664  13.426
 8423W        W71982  41.367  20.253  13.539
 8424W        W71983   1.341  19.046  10.580
 8425W        W71984  21.098  34.096  11.988
 8426W        W71985  21.214  28.012   1.770
 8427W        W71986  16.144  31.581  13.062
 8428W        W71987  28.016  17.635  11.509
 8429W        W71988   3.334  37.374   2.202
 8430W        W71989  43.410  30.615   2.407
 8431W        W71990  11.670  25.564  13.501
 8432W        W71991  11.820  12.207  10.539
 8433W        W71992  30.483  23.095   2.342
 8434W        W71993  39.980  12.808  11.060
 8435W        W71994  44.854  14.679   0.853
 8436W        W71995  16.262   9.724   3.158
 8437W        W71996   2.312  30.425   2.240
 8438W        W71997  24.202  14.691   0.475
 8439W        W71998  12.630  28.527  14.000
 8440W        W71999  13.156   9.814   0.443
 8441W        W72000  22.565   9.187   2.381
 8442W        W72001  18.766  17.742  14.345
 8443W        W72002  20.170  43.808   4.143
 8444W        W72003  16.279   6.254  11.076
 8445W        W72004  18.759   5.369  13.462
 8446W        W72005  22.146  39.374  13.054
 8447W        W72006  37.384  15.116   3.157
 8448W        W72007   1.938  41.924  12.013
 8449W        W72008  17.279  20.565  12.439
 8450W        W72009  18.568   4.260   1.323
 8451W        W72010   8.371  39.421   4.271
 8452W        W72011  23.735  18.222  11.413
 8453W        W72012  34.369  10.242  10.447
 8454W        W72013  38.384  27.086  10.944
 8455W        W72014  35.071  44.991   2.900
 8456W        W72015  35.396  21.137  12.379
 8457W        W72016  21.609  29.460  12.343
 8458W        W72017  37.949  15.594  12.829
 8459W        W72018   8.798  11.182   3.204
 8460W        W72019  12.747   0.934  13.322
 8461W        W72020  36.085  43.799   2.364
 8462W        W72021  44.368  43.459   1.811
 8463W        W72022  34.975  10.230   1.711
 8464W        W72023  25.117  28.044   0.461
 8465W        W72024   5.226   7.311  10.458
 8466W        W72025  34.995  30.973   4.658
 8467W        W72026   6.192  43.367   3.777
 8468W        W72027  12.699  25.038   0.385
 8469W        W72028  20.040  17.276   4.726
 8470W        W72029  43.890   1.766   4.289
 8471W        W72030  33.568  40.385  11.946
 8472W        W72031  36.072  39.385   4.764
 8473W        W72032  17.166  43.341   1.750
 8474W        W72033  44.830  32.475   3.192
 8475W        W72034  38.555  36.592   4.678
 8476W        W72035  16.668   5.791  13.994
 8477W        W72036   3.443  27.596  14.426
 8478W        W72037   6.331  22.191  11.922
 8479W        W72038  38.420  11.280   2.894
 8480W        W72039  17.190  25.007  10.604
 8481W        W72040  43.776  11.679  11.093
 8482W        W72041  42.859  28.037   5.309
 8483W        W72042  16.603  19.728   2.231
 8484W        W72043  19.736  20.124  14.413
 8485W        W72044  40.847  37.013  14.800
 8486W        W72045  13.172  14.160   4.810
 8487W        W72046  27.155  17.787   3.787
 8488W        W72047  11.771  32.522  14.812
 8489W        W72048  32.444   1.757   2.325
 8490W        W72049  32.489  30.062   1.267
 8491W        W72050  35.503  21.736   2.302
 8492W        W72051   1.296  32.098   3.656
 8493W        W72052  15.214   4.844   0.397
 8494W        W72053  21.223  28.103   0.762
 8495W        W72054  10.344  18.620  11.519
 8496W        W72055  35.955  10.682  11.472
 8497W        W72056  41.373  32.472  12.962
 8498W        W72057  10.352  32.630  11.999
 8499W        W72058  19.272  11.226   3.279
 8500W        W72059   5.875  12.620   1.409
 8501W        W72060  20.618  34.524  13.883
 8502W        W72061  33.905  32.523  13.491
 8503W        W72062   8.251  27.652   1.312
 8504W        W72063  15.732  32.486   1.254
 8505W        W72064  35.361  15.194   1.915
 8506W        W72065  29.079   6.781  11.570
 8507W        W72066  42.866  43.876  14.477
 8508W        W72067  35.026  28.473  11.578
 8509W        W72068  17.600   1.744   1.824
 8510W        W72069  15.804  39.907   4.672
 8511W        W72070  41.913  35.546   1.312
 8512W        W72071  33.928   3.390  11.013
 8513W        W72072  12.627   7.669   0.435
 8514W        W72073  16.098   1.736   2.830
 8515W        W72074   2.257  38.819  13.029
 8516W        W72075  37.864  25.562  14.984
 8517W        W72076  24.012  20.668  13.411
 8518W        W72077  18.669   2.750  14.477
 8519W        W72078  11.738  30.121   4.773
 8520W        W72079  25.483  29.174   0.431
 8521W        W72080  39.340  30.913  10.634
 8522W        W72081  13.349  41.346  13.902
 8523W        W72082  29.135  18.780  13.332
 8524W        W72083  34.101  20.050   0.940
 8525W        W72084  13.661   5.425  13.361
 8526W        W72085   9.372  19.755   2.732
 8527W        W72086  20.538  12.205  12.543
 8528W        W72087  41.840  22.630  14.007
 8529W        W72088   9.807   6.424   4.189
 8530W        W72089  29.063  10.828  12.980
 8531W        W72090   5.340  34.472  11.010
 8532W        W72091   7.805  10.220  10.621
 8533W        W72092   5.822  12.249  14.292
 8534W        W72093  16.223  23.015  12.046
 8535W        W72094  13.166  44.770  11.079
 8536W        W72095  42.024  33.917  13.900
 8537W        W72096   7.343  22.144   0.895
 8538W        W72097  36.368   4.827  11.088
 8539W        W72098  19.163   3.886   4.328
 8540W        W72099   7.234   8.751  11.475
 8541W        W72100  41.316  19.555   0.331
 8542W        W72101  19.774  27.463   1.342
 8543W        W72102  29.457  13.344  14.364
 8544W        W72103  34.478   7.809  12.979
 8545W        W72104  24.644  10.839  11.401
 8546W        W72105   4.832  35.455  11.869
 8547W        W72106  28.077  42.868   3.830
 8548W        W72107  22.034   6.421  10.561
 8549W        W72108  18.682   0.487   2.364
 8550W        W72109  31.011  29.169   2.875
 8551W        W72110  10.244  37.386   5.318
 8552W        W72111  26.023  17.218   0.743
 8553W        W72112  28.578   3.217   4.752
 8554W        W72113  20.072  37.927  14.894
 8555W        W72114  15.292  32.560   1.427
 8556W        W72115  19.720  23.530   1.372
 8557W        W72116  32.521  17.786  13.465
 8558W        W72117   1.899  10.219  11.111
 8559W        W72118   7.213  15.171   3.703
 8560W        W72119  22.136  20.169  14.984
 8561W        W72120  15.626  36.983  14.854
 8562W        W72121  30.910   5.362   1.780
 8563W        W72122   8.688  39.421  14.819
 8564W        W72123  39.322  19.128  10.410
 8565W        W72124  21.652  44.404  10.592
 8566W        W72125  37.929  31.002  10.554
 8567W        W72126  26.191  39.062   2.186
 8568W        W72127   8.779  36.538  12.015
 8569W        W72128  33.076  14.143  13.372
 8570W        W72129  13.612  24.649   0.936
 8571W        W72130   2.819  15.649   4.315
 8572W        W72131   5.764  43.463   3.638
 8573W        W72132  30.033   9.375   2.740
 8574W        W72133   2.907  39.942   0.943
 8575W        W72134  19.659  38.937  14.838
 8576W        W72135  18.720  28.044   5.191
 8577W        W72136  23.722  22.144   4.353
 8578W        W72137  15.735  23.123   3.171
 8579W        W72138  34.944  31.648   1.416
 8580W        W72139   3.439  35.371   2.823
 8581W        W72140  16.158   8.260   4.160
 8582W        W72141  23.121  28.156  13.377
 8583W        W72142  14.160  38.374   3.340
 8584W        W72143  26.977   4.362  14.442
 8585W        W72144   9.678  38.908  11.428
 8586W        W72145  40.935  38.900   1.694
 8587W        W72146  43.295  10.296   4.252
 8588W        W72147   0.984  40.374   4.177
 8589W        W72148  16.183  30.122   4.733
 8590W        W72149  10.806   4.422  13.800
 8591W        W72150  34.458   6.808  14.762
 8592W        W72151  13.262  14.595   4.673
 8593W        W72152  25.026  20.070   0.249
 8594W        W72153  20.046  33.597   1.273
 8595W        W72154  19.264  10.730  11.977
 8596W        W72155  11.629  14.736  13.008
 8597W        W72156  41.413  28.674   1.214
 8598W        W72157  30.118  37.539  13.410
 8599W        W72158   0.420  41.900  12.507
 8600W        W72159   6.737  23.998   3.790
 8601W        W72160   2.318  43.941  14.467
 8602W        W72161  24.582  39.923  12.577
 8603W        W72162  28.533  41.399   3.306
 8604W        W72163   6.896  39.421   1.798
 8605W        W72164  16.282  22.093   2.741
 8606W        W72165  20.621  34.427   2.179
 8607W        W72166  16.689   1.479   0.343
 8608W        W72167  26.973   7.690   0.937
 8609W        W72168   1.924   1.297  14.346
 8610W        W72169  30.039  25.173  14.766
 8611W        W72170  28.166  37.905   1.794
 8612W        W72171  16.756   9.750   0.940
 8613W        W72172  23.490   8.894   2.871
 8614W        W72173  38.835  35.891   1.275
 8615W        W72174  29.959  17.096   3.265
 8616W        W72175  37.882  22.595  14.400
 8617W        W72176  12.753  20.584  13.031
 8618W        W72177   3.880  17.218  11.478
 8619W        W72178  33.536  40.967  12.459
 8620W        W72179   6.684  30.560  10.468
 8621W        W72180  31.472  20.247  11.043
 8622W        W72181  34.041  32.609  12.920
 8623W        W72182  18.590  23.537   2.834
 8624W        W72183  11.185  16.194  14.999
 8625W        W72184  27.146   8.835  11.976
 8626W        W72185  25.655  36.411   4.267
 8627W        W72186  14.815  27.020   3.162
 8628W        W72187  24.701  25.964  13.910
 8629W        W72188  32.425  23.634   4.674
 8630W        W72189  44.413   8.793  13.927
 8631W        W72190   2.734  42.896  10.526
 8632W        W72191  14.175  15.672   2.254
 8633W        W72192   5.835   8.294  14.381
 8634W        W72193   0.971  36.990  14.498
 8635W        W72194   8.798  12.768  10.920
 8636W        W72195  34.989  43.856  14.860
 8637W        W72196  29.980  30.108  13.984
 8638W        W72197   9.311  33.425  13.472
 8639W        W72198  37.430   1.761  10.593
 8640W        W72199  21.205  21.150   2.705
 8641W        W72200   1.918  15.755   1.236
 8642W        W72201  38.981   2.787   3.668
 8643W        W72202  13.218  28.163  10.926
 8644W        W72203   7.803  14.713   3.656
 8645W        W72204  26.475  18.214   0.274
 8646W        W72205  36.493   3.793  11.589
 8647W        W72206   0.872  30.123  11.551
 8648W        W72207  44.763  29.557   4.334
 8649W        W72208  34.555  22.241  14.775
 8650W        W72209  34.076  37.562  13.869
 8651W        W72210  33.010   0.765  14.495
 8652W        W72211  40.043  26.520  12.875
 8653W        W72212  40.515  36.985  13.447
 8654W        W72213  21.043  27.561  10.529
 8655W        W72214  37.571  39.473  11.435
 8656W        W72215  11.748   3.446  11.488
 8657W        W72216  34.896  43.983  13.009
 8658W        W72217  12.280  11.295   3.265
 8659W        W72218  28.060   8.824  10.430
 8660W        W72219  17.270  25.107   1.307
 8661W        W72220  44.883  13.616   4.644
 8662W        W72221  14.597  27.628  12.551
 8663W        W72222   9.241  44.917   3.755
 8664W        W72223  42.938   5.722   3.804
 8665W        W72224   4.345   0.965  14.019
 8666W        W72225  35.982  18.567   5.215
 8667W        W72226  38.845  35.413  12.954
 8668W        W72227  12.849   6.764   1.888
 8669W        W72228  27.964  18.127  13.307
 8670W        W72229  17.748  39.439   2.777
 8671W        W72230  36.915   0.840   2.887
 8672W        W72231   0.362  24.621   1.794
 8673W        W72232  37.524  44.283  13.050
 8674W        W72233  36.373   4.734   1.700
 8675W        W72234  43.964   7.339  14.994
 8676W        W72235  21.596  33.000   4.341
 8677W        W72236  21.696  30.517   1.279
 8678W        W72237  12.237  16.240   1.311
 8679W        W72238  33.090  29.620  11.074
 8680W        W72239  42.373   6.406   4.702
 8681W        W72240  32.893  31.617   0.477
 8682W        W72241  17.612  40.423  14.437
 8683W        W72242  38.446  22.081  14.013
 8684W        W72243  43.817  19.137  11.974
 8685W        W72244  13.307  33.504   3.640
 8686W        W72245   7.343  33.049  13.367
 8687W        W72246  32.128  18.296   4.686
 8688W        W72247  29.013  38.421  11.002
 8689W        W72248  11.308  25.070  13.031
 8690W        W72249  22.541  31.972  11.096
 8691W        W72250  23.588  16.301   1.791
 8692W        W72251  20.679   1.894   2.816
 8693W        W72252   8.200  12.157   0.374
 8694W        W72253  31.962   3.426   1.286
 8695W        W72254   9.343  37.039   0.856
 8696W        W72255  31.147   2.435   4.315
 8697W        W72256   1.750  17.790   4.713
 8698W        W72257   8.176   4.429  12.836
 8699W        W72258  21.163   2.760  10.431
 8700W        W72259  19.557  23.552  14.426
 8701W        W72260  31.987  21.529   4.153
 8702W        W72261  15.805  22.679   0.904
 8703W        W72262   4.442   4.293  10.953
 8704W        W72263  17.590  25.002  12.493
 8705W        W72264   4.398  13.278   3.254
 8706W        W72265  31.065  22.525  13.384
 8707W        W72266  20.630  44.916  12.930
 8708W        W72267   4.445  13.243   2.694
 8709W        W72268  27.047  36.983   1.359
 8710W        W72269   1.440  14.175  13.448
 8711W        W72270  23.654  19.222  13.919
 8712W        W72271  26.645  28.587  13.356
 8713W        W72272  39.835  18.761  14.837
 8714W        W72273  15.321  34.410  14.334
 8715W        W72274  33.578  18.187   0.756
 8716W        W72275  12.655  13.321   9.995
 8717W        W72276  36.958   1.243   4.804
 8718W        W72277  29.507  10.379   1.900
 8719W        W72278  20.606   8.208   1.225
 8720W        W72279  38.047  18.055   2.276
 8721W        W72280   0.443  10.708  13.393
 8722W        W72281   3.317  25.194   1.809
 8723W        W72282   6.892  44.811  13.422
 8724W        W72283   6.396   7.687   0.734
 8725W        W72284  30.450  18.596  12.079
 8726W        W72285   2.727  26.112  13.821
 8727W        W72286   3.880   2.774   4.745
 8728W        W72287  44.975  37.852   3.733
 8729W        W72288   7.234  34.951   2.230
 8730W        W72289  18.201  33.922  11.961
 8731W        W72290  32.476  24.024  11.541
 8732W        W72291  39.055  44.353  13.420
 8733W        W72292   9.653  27.096   1.924
 8734W        W72293  27.091  12.785  11.402
 8735W        W72294  38.540  31.545  12.443
 8736W        W72295  20.685   6.706   3.833
 8737W        W72296  37.027  42.517  12.495
 8738W        W72297  43.276  37.484  10.574
 8739W        W72298  26.190  40.549   2.760
 8740W        W72299  22.118   1.240  13.051
 8741W        W72300  42.283  38.000  11.977
 8742W        W72301  27.602   9.665  12.095
 8743W        W72302   4.735  12.343  10.515
 8744W        W72303  30.467  38.361  11.374
 8745W        W72304  18.724  42.011   2.416
 8746W        W72305  40.544   6.888  11.892
 8747W        W72306  27.679  27.054   0.965
 8748W        W72307   5.228   6.209   1.931
 8749W        W72308  16.072   7.784  14.400
 8750W        W72309   5.409  35.518  12.947
 8751W        W72310  41.368  13.322   5.184
 8752W        W72311  24.047  13.115   0.427
 8753W        W72312   0.416   9.184  13.848
 8754W        W72313  11.701  35.471   0.418
 8755W        W72314  21.030  11.661  10.573
 8756W        W72315   8.199  39.457   1.359
 8757W        W72316   8.813  41.461   1.340
 8758W        W72317  33.494  42.525   4.159
 8759W        W72318  29.475   6.798   1.414
 8760W        W72319  30.565  17.630  12.964
 8761W        W72320  26.672  12.301  14.845
 8762W        W72321  17.111  44.002   1.416
 8763W        W72322  19.701  12.765  11.121
 8764W        W72323   1.325   0.812  11.042
 8765W        W72324  22.110   3.816   0.800
 8766W        W72325  13.180  27.176  14.459
 8767W        W72326   6.340   9.880  13.812
 8768W        W72327  33.510  40.847  11.005
 8769W        W72328  19.604   6.917  12.829
 8770W        W72329   0.359  23.678   3.761
 8771W        W72330  34.881  14.763  11.071
 8772W        W72331  15.212  34.884  12.073
 8773W        W72332  25.511  42.441  13.843
 8774W        W72333   0.297   2.346   4.218
 8775W        W72334  37.869   9.717   4.611
 8776W        W72335  29.938  12.715  13.996
 8777W        W72336  15.781  40.835  11.473
 8778W        W72337   6.837  42.479  14.361
 8779W        W72338  13.674   0.490  13.425
 8780W        W72339   0.456   4.311   0.759
 8781W        W72340   7.209  28.600  12.514
 8782W        W72341   0.820   1.371  12.095
 8783W        W72342   4.828  23.675   3.292
 8784W        W72343  23.547  29.670   3.252
 8785W        W72344  22.059   0.926  12.827
 8786W        W72345  40.472  21.152   2.282
 8787W        W72346  24.701  25.496  11.933
 8788W        W72347  43.308  17.690  12.447
 8789W        W72348   3.261  15.259   2.179
 8790W        W72349  20.265  28.080   1.811
 8791W        W72350  16.174  28.029  12.350
 8792W        W72351  16.211  29.004  14.792
 8793W        W72352  15.221   3.323  11.386
 8794W        W72353  14.589  22.504   0.278
 8795W        W72354   1.444   0.327   2.798
 8796W        W72355  14.782  38.571   2.400
 8797W        W72356   3.402   7.911  11.914
 8798W        W72357   4.814   5.841  14.472
 8799W        W72358  12.844   7.776  11.591
 8800W        W72359  29.547  22.030  14.838
 8801W        W72360  35.453  27.117   0.376
 8802W        W72361  18.781  42.515  10.516
 8803W        W72362  43.461  38.434   1.448
 8804W        W72363  34.056   0.946   3.664
 8805W        W72364  17.558   2.775  11.118
 8806W        W72365  12.704   0.299  13.801
 8807W        W72366  33.386  29.583  14.322
 8808W        W72367  35.065   4.237  11.527
 8809W        W72368  28.603  34.443   0.252
 8810W        W72369   5.359   3.228   4.669
 8811W        W72370   9.257  17.089  10.545
 8812W        W72371   8.708   0.873   2.409
 8813W        W72372  34.551   7.892   5.155
 8814W        W72373  28.490  11.228   0.286
 8815W        W72374  41.823  22.226  14.903
 8816W        W72375  27.940  34.030   0.355
 8817W        W72376   5.300   1.416  13.834
 8818W        W72377  11.194  12.790   5.203
 8819W        W72378  17.166   9.791  14.856
 8820W        W72379  17.234  25.673   2.874
 8821W        W72380   8.778  43.314   2.257
 8822W        W72381  39.348  41.941   2.363
 8823W        W72382   5.934  27.084  14.843
 8824W        W72383  29.960   7.785  11.856
 8825W        W72384  36.507  11.259  11.056
 8826W        W72385  17.194   8.803   1.274
 8827W        W72386  12.217   5.711  10.117
 8828W        W72387  35.561  29.493  14.029
 8829W        W72388  38.905  26.030  12.550
 8830W        W72389  20.201  30.091   1.809
 8831W        W72390  24.056   7.721  14.964
 8832W        W72391  35.858   6.262   4.115
 8833W        W72392  29.455  24.023   1.780
 8834W        W72393  40.466   1.468  12.501
 8835W        W72394  26.006  44.957   4.330
 8836W        W72395   2.343  24.664  13.870
 8837W        W72396  32.464  16.733  14.484
 8838W        W72397  44.928  32.434  14.422
 8839W        W72398  26.024   7.753  12.992
 8840W        W72399  23.588   6.708  14.504
 8841W        W72400  13.332  17.801   4.221
 8842W        W72401  24.118  11.824   3.799
 8843W        W72402  40.868  24.574   4.141
 8844W        W72403  11.274   3.732   0.451
 8845W        W72404   0.778  20.568   1.344
 8846W        W72405  23.200  11.143   2.746
 8847W        W72406  15.203  15.230   0.797
 8848W        W72407  30.488   3.343  12.915
 8849W        W72408   2.336  30.961   2.677
 8850W        W72409  37.849  44.921  12.403
 8851W        W72410  10.192   5.892   4.740
 8852W        W72411  32.444  43.959   2.366
 8853W        W72412   1.255  43.436  14.876
 8854W        W72413  42.523  34.038  10.558
 8855W        W72414  28.636  44.359   4.764
 8856W        W72415  10.348  11.309  13.495
 8857W        W72416  22.735  17.667  11.576
 8858W        W72417  14.191  30.142   1.695
 8859W        W72418  32.091   6.916   3.174
 8860W        W72419  19.725  15.150   4.818
 8861W        W72420   2.936  11.688  14.330
 8862W        W72421  13.348   2.843  12.369
 8863W        W72422  15.759  19.040   3.718
 8864W        W72423  23.579  29.575  14.869
 8865W        W72424  32.417  10.274   0.857
 8866W        W72425  15.322  29.066   0.916
 8867W        W72426  14.251  20.170  13.547
 8868W        W72427  30.943  25.074   1.703
 8869W        W72428  40.498  14.217   2.766
 8870W        W72429  11.685  41.878   0.800
 8871W        W72430  26.075  38.349  10.447
 8872W        W72431  26.068  16.112  12.510
 8873W        W72432  20.597  10.648   0.916
 8874W        W72433  31.502   0.744   2.278
 8875W        W72434  43.845  40.855  11.601
 8876W        W72435  37.404  19.267   2.248
 8877W        W72436   6.258  33.049  11.424
 8878W        W72437   4.390  19.710   1.898
 8879W        W72438   7.876  19.740  12.948
 8880W        W72439  42.289  43.916  10.965
 8881W        W72440  14.155   2.866  10.561
 8882W        W72441  11.159  27.141  14.933
 8883W        W72442  40.360  10.661   1.810
 8884W        W72443  15.325   8.223   0.254
 8885W        W72444  36.050  26.568   5.102
 8886W        W72445  39.497  40.861  14.337
 8887W        W72446  43.851   8.280  10.900
 8888W        W72447  24.108  20.763  14.335
 8889W        W72448  12.856   6.720   2.269
 8890W        W72449  31.896  25.054   4.140
 8891W        W72450   0.439   2.371  12.070
 8892W        W72451  38.985   7.882  14.802
 8893W        W72452  36.956   3.238   3.284
 8894W        W72453   1.271   6.818  11.035
 8895W        W72454  18.563  31.935  10.605
 8896W        W72455  37.930  10.345  12.419
 8897W        W72456  31.595  18.165   2.199
 8898W        W72457  43.988   9.379   2.181
 8899W        W72458  25.510  11.274   3.861
 8900W        W72459  24.489  18.723  13.510
 8901W        W72460  36.356  24.569  10.565
 8902W        W72461  25.103  10.167  10.433
 8903W        W72462   7.673  13.257  13.998
 8904W        W72463  26.062  29.545   4.307
 8905W        W72464  19.673   6.187  12.084
 8906W        W72465  27.012  34.063  13.914
 8907W        W72466   8.228  39.485  13.995
 8908W        W72467   8.760   4.784  10.545
 8909W        W72468  17.250  20.628  14.367
 8910W        W72469  37.067  27.647  11.120
 8911W        W72470  38.469  26.535   3.748
 8912W        W72471   2.359  38.481  13.023
 8913W        W72472   4.867  40.433   4.291
 8914W        W72473  32.615   9.790   3.727
 8915W        W72474  26.598  32.607   0.337
 8916W        W72475  37.554  10.344   1.367
 8917W        W72476  13.641  32.920  14.805
 8918W        W72477  40.923  13.831  13.512
 8919W        W72478  41.459  32.955   1.356
 8920W        W72479  29.962  33.027  12.547
 8921W        W72480  25.516  35.523   4.126
 8922W        W72481  39.334  35.063   4.643
 8923W        W72482  22.139  16.778  11.873
 8924W        W72483  44.001  39.855  11.527
 8925W        W72484  12.799  21.616   2.858
 8926W        W72485  40.836  33.513  11.476
 8927W        W72486   5.368   0.291   2.898
 8928W        W72487  10.776  26.173  11.036
 8929W        W72488  28.062  36.869   4.684
 8930W        W72489  29.479  37.906   4.229
 8931W        W72490   5.276  40.926   3.653
 8932W        W72491   3.398  13.143   3.169
 8933W        W72492  25.183   6.706   1.266
 8934W        W72493  29.123  12.303  11.937
 8935W        W72494   5.355  38.865   1.695
 8936W        W72495  25.104  21.238   1.359
 8937W        W72496  37.013  13.770   3.856
 8938W        W72497   0.304  29.455  11.534
 8939W        W72498  19.053  10.637  11.541
 8940W        W72499  21.227  27.127  11.550
 8941W        W72500  19.255   6.273  14.988
 8942W        W72501  33.551   8.710   0.792
 8943W        W72502  31.567  23.216   0.866
 8944W        W72503  30.080  38.493  14.438
 8945W        W72504  20.664  41.995   2.751
 8946W        W72505  29.547  25.132   4.643
 8947W        W72506  33.412  12.744  12.345
 8948W        W72507   3.389  27.504   2.863
 8949W        W72508  38.904  29.145  12.009
 8950W        W72509  41.927  29.450  11.904
 8951W        W72510  24.505  10.356  12.985
 8952W        W72511  27.609  34.974  12.398
 8953W        W72512  41.381   5.370  14.370
 8954W        W72513  27.044  34.045   3.200
 8955W        W72514   4.297  32.422   3.278
 8956W        W72515  21.141  43.382  11.470
 8957W        W72516  32.445  18.709   2.191
 8958W        W72517   2.853  36.403  10.942
 8959W        W72518  30.091  21.144   2.683
 8960W        W72519   5.870  17.297   0.914
 8961W        W72520  36.961   7.414  12.569
 8962W        W72521  33.494  26.056  13.997
 8963W        W72522  31.487  29.039   0.429
 8964W        W72523  14.650  42.389   1.721
 8965W        W72524  21.034  38.936   0.755
 8966W        W72525  26.493  40.966  14.513
 8967W        W72526  37.913   1.925  10.438
 8968W        W72527  41.434  10.803  12.508
 8969W        W72528  17.572  24.622  11.376
 8970W        W72529  43.482  39.933  13.446
 8971W        W72530  28.944   0.929  10.545
 8972W        W72531  19.720   4.747   2.254
 8973W        W72532   0.373  34.040   2.902
 8974W        W72533   9.310  26.020   4.287
 8975W        W72534   5.696  28.615  13.840
 8976W        W72535   4.402  22.656  13.424
 8977W        W72536  41.872   2.842  13.979
 8978W        W72537   8.361  14.612   2.850
 8979W        W72538  44.347   3.920  11.867
 8980W        W72539   5.340  18.207   2.703
 8981W        W72540  17.151  25.187   5.266
 8982W        W72541  36.524   9.175   4.136
 8983W        W72542  44.318  11.822   0.251
 8984W        W72543  28.547  40.813   3.791
 8985W        W72544  11.138   4.372  10.405
 8986W        W72545  19.606  27.011   2.804
 8987W        W72546  26.612   9.237  14.863
 8988W        W72547  28.576  34.431   3.710
 8989W        W72548  23.699  30.443   0.916
 8990W        W72549   5.371  16.244   2.846
 8991W        W72550   7.846  37.351  10.557
 8992W        W72551  19.155  30.132  14.889
 8993W        W72552  21.253  20.115   2.672
 8994W        W72553   2.823  43.466  14.363
 8995W        W72554   1.451  43.480   1.808
 8996W        W72555  30.653  15.769   3.180
 8997W        W72556  30.979  28.509  14.839
 8998W        W72557   3.243   2.225   2.389
 8999W        W72558   9.190  26.691  12.860
 9000W        W72559  13.725  37.431  10.612
 9001W        W72560  44.996  36.586  13.447
 9002W        W72561  30.604  15.234   1.711
 9003W        W72562  39.422  29.478  11.999
 9004W        W72563   8.710  22.630   5.320
 9005W        W72564   6.886  28.947   0.809
 9006W        W72565  24.118  10.735   0.806
 9007W        W72566  30.510  32.894  13.863
 9008W        W72567  27.131  25.128  12.843
 9009W        W72568   0.801  29.517   5.143
 9010W        W72569   3.267  40.915   0.962
 9011W        W72570  32.956  12.175  12.974
 9012W        W72571  33.127  35.446   3.344
 9013W        W72572   2.342  25.601   1.907
 9014W        W72573  43.873  27.480   1.825
 9015W        W72574  42.962  14.130   5.200
 9016W        W72575   7.874   6.406   1.872
 9017W        W72576   1.954  24.593   4.738
 9018W        W72577  14.299  38.421   0.951
 9019W        W72578   0.348  43.408   2.802
 9020W        W72579  23.566   7.682  11.474
 9021W        W72580   7.753  32.085   3.637
 9022W        W72581  20.253   9.323   1.797
 9023W        W72582   4.232  17.147  12.507
 9024W        W72583  17.264  36.346  12.057
 9025W        W72584  27.107  16.223   2.714
 9026W        W72585  43.797   0.395  12.447
 9027W        W72586  23.552  16.634   1.925
 9028W        W72587   0.963  31.035   4.136
 9029W        W72588   3.856  32.101   1.895
 9030W        W72589  34.554  38.358   3.294
 9031W        W72590   9.763  17.667  13.484
 9032W        W72591  12.739   6.352  11.505
 9033W        W72592   0.484  14.743   0.332
 9034W        W72593  20.599  18.270   3.697
 9035W        W72594  16.702  30.034  14.829
 9036W        W72595   7.681  14.270   5.244
 9037W        W72596  16.216  17.180   4.608
 9038W        W72597  11.155  35.515  14.884
 9039W        W72598  21.643  16.627   3.777
 9040W        W72599   0.284  37.052  11.978
 9041W        W72600  12.629  30.008   2.841
 9042W        W72601   5.252  12.694   1.847
 9043W        W72602  15.688  33.081   2.742
 9044W        W72603  20.731  24.999  12.090
 9045W        W72604  39.012  19.112   3.346
 9046W        W72605  22.637   0.260   4.752
 9047W        W72606  28.940  16.775   3.285
 9048W        W72607   1.865   3.730  13.827
 9049W        W72608  42.432  27.107   0.443
 9050W        W72609  12.302  15.124  14.493
 9051W        W72610  28.997  32.895   1.267
 9052W        W72611  41.515   3.836   2.384
 9053W        W72612   7.370  24.605  14.440
 9054W        W72613   3.810  31.920   2.773
 9055W        W72614  32.942  13.667   3.191
 9056W        W72615  26.038  33.501  10.471
 9057W        W72616  17.669  15.654   4.176
 9058W        W72617   1.291  14.820  11.882
 9059W        W72618  32.955  33.420   0.304
 9060W        W72619  37.345   7.896   0.270
 9061W        W72620  22.733   3.754   0.948
 9062W        W72621  15.698   8.891   2.789
 9063W        W72622  33.386  33.430  10.101
 9064W        W72623  37.391  42.454  14.365
 9065W        W72624  39.977  42.443  11.892
 9066W        W72625  26.045   1.441  11.955
 9067W        W72626  35.013  36.451  11.997
 9068W        W72627  42.880   4.852  14.439
 9069W        W72628   0.789  26.569  10.596
 9070W        W72629  18.738  11.671   0.921
 9071W        W72630  42.437  35.883  10.559
 9072W        W72631  41.518   8.288   4.311
 9073W        W72632   0.930  19.720   2.385
 9074W        W72633  20.702  20.127  12.063
 9075W        W72634  33.590   8.714   4.120
 9076W        W72635  39.811  20.749  14.374
 9077W        W72636  30.134  18.577   2.852
 9078W        W72637   0.957  43.323   4.798
 9079W        W72638  32.067  20.626   2.832
 9080W        W72639  25.638  30.959  12.543
 9081W        W72640   8.892  31.985  14.434
 9082W        W72641  40.415  28.092  12.890
 9083W        W72642  25.974  42.514  13.371
 9084W        W72643  14.174  22.237  12.357
 9085W        W72644  24.997  40.844   2.305
 9086W        W72645  18.239  14.317  10.917
 9087W        W72646  34.380  33.543   0.788
 9088W        W72647   5.694   7.285   4.803
 9089W        W72648  20.558  37.046  14.995
 9090W        W72649  19.572   6.416   0.929
 9091W        W72650  13.127   8.242  13.334
 9092W        W72651  22.222  10.711   2.336
 9093W        W72652  23.039  11.363   4.126
 9094W        W72653  23.660  39.468   4.210
 9095W        W72654  33.892   7.376  14.990
 9096W        W72655  26.523  11.863  10.126
 9097W        W72656  27.666  27.014   2.361
 9098W        W72657   7.252   9.846  12.556
 9099W        W72658   2.821  12.303   4.211
 9100W        W72659  26.079  39.878   4.621
 9101W        W72660  35.532  36.422  10.485
 9102W        W72661  28.062  27.580   2.841
 9103W        W72662  15.763  22.523  14.431
 9104W        W72663  26.666  31.141  13.809
 9105W        W72664   3.343   0.373   0.339
 9106W        W72665  16.791   5.921   3.270
 9107W        W72666  12.142  25.042  12.866
 9108W        W72667  31.619  19.266  12.063
 9109W        W72668  27.018  42.343   0.881
 9110W        W72669  21.230   7.388  14.761
 9111W        W72670  44.885   1.770   2.312
 9112W        W72671  35.914   7.700  13.869
 9113W        W72672  16.665  26.506   4.286
 9114W        W72673  32.974  13.319  13.542
 9115W        W72674  17.143   4.252  14.812
 9116W        W72675  19.727   7.876  12.573
 9117W        W72676  44.931  35.517   2.688
 9118W        W72677  13.173  40.036   0.790
 9119W        W72678   9.649   8.211  11.427
 9120W        W72679  39.050  29.607  14.894
 9121W        W72680  30.443  42.888  12.339
 9122W        W72681  41.493   1.285   4.704
 9123W        W72682   2.370  31.972   3.758
 9124W        W72683  34.945  20.150  12.091
 9125W        W72684  27.164   6.722   4.756
 9126W        W72685   2.783  25.133   0.897
 9127W        W72686  29.022  38.993  10.007
 9128W        W72687  20.119  31.536   1.824
 9129W        W72688   0.908   7.405   0.915
 9130W        W72689  19.615  40.816  13.535
 9131W        W72690  41.995  28.591   1.839
 9132W        W72691  27.537   5.274   4.819
 9133W        W72692  26.566  39.965  12.050
 9134W        W72693  33.940  23.674  13.025
 9135W        W72694  39.336  26.585  13.536
 9136W        W72695  38.879  31.542  12.486
 9137W        W72696  10.282  32.059  13.919
 9138W        W72697  35.960   4.358   0.293
 9139W        W72698  34.874  24.998  12.992
 9140W        W72699  35.531  16.180  13.401
 9141W        W72700   7.202   8.212   1.752
 9142W        W72701  31.138  25.206   4.337
 9143W        W72702  33.899   2.277   2.305
 9144W        W72703  23.735   5.302  13.384
 9145W        W72704  44.782  30.123   1.798
 9146W        W72705  15.726  36.472  11.476
 9147W        W72706  29.134  36.070  11.117
 9148W        W72707  24.135   5.245  13.362
 9149W        W72708  38.039  33.930  12.013
 9150W        W72709  23.241  27.161   0.825
 9151W        W72710   3.865  12.814   2.794
 9152W        W72711  41.906  39.325  12.372
 9153W        W72712  12.353   3.868  13.941
 9154W        W72713  25.608  16.233   0.397
 9155W        W72714  39.540  13.318  12.396
 9156W        W72715  30.028  38.358  12.885
 9157W        W72716  17.573  38.345   0.735
 9158W        W72717   2.823  31.554   1.930
 9159W        W72718   7.349  29.019   1.724
 9160W        W72719  33.963  40.485  10.082
 9161W        W72720  38.392   9.344   4.788
 9162W        W72721  37.455  38.534   4.745
 9163W        W72722  12.288  18.651  13.459
 9164W        W72723  44.393   5.813  10.111
 9165W        W72724  12.197  18.733   2.189
 9166W        W72725  14.210  39.007  12.430
 9167W        W72726  17.281  36.023   3.760
 9168W        W72727   4.229  36.093  14.022
 9169W        W72728   6.410  21.172  10.617
 9170W        W72729  28.618  13.617  14.848
 9171W        W72730  43.330   9.301   1.311
 9172W        W72731  24.484  41.908  10.469
 9173W        W72732  36.443  22.652  13.833
 9174W        W72733  26.623  20.137  10.010
 9175W        W72734  24.173  42.945  14.982
 9176W        W72735  28.497   7.244   2.856
 9177W        W72736  23.725   4.876   2.181
 9178W        W72737  37.894   6.225  12.391
 9179W        W72738   5.885  31.965   2.342
 9180W        W72739  26.097  12.747  12.998
 9181W        W72740  13.296   8.319   1.315
 9182W        W72741   8.703  40.029   1.906
 9183W        W72742  37.533  10.315   3.331
 9184W        W72743   0.926   7.300  10.100
 9185W        W72744  20.216  26.168  14.967
 9186W        W72745  37.963  36.444   4.250
 9187W        W72746  24.565  31.425   3.382
 9188W        W72747  18.262   2.868   4.323
 9189W        W72748  15.142   4.801   4.714
 9190W        W72749  13.741  40.387   3.386
 9191W        W72750  26.044  28.678  14.434
 9192W        W72751  43.887  15.216   2.889
 9193W        W72752  35.960   7.196   0.333
 9194W        W72753   6.391  13.318   0.454
 9195W        W72754  21.746  26.075  11.471
 9196W        W72755  37.521  22.636  12.076
 9197W        W72756  22.657   5.391   2.348
 9198W        W72757  26.968  10.764   4.307
 9199W        W72758  16.806   2.778   1.214
 9200W        W72759  42.350  38.917   2.859
 9201W        W72760  26.144  44.381   0.274
 9202W        W72761  27.059  37.085   4.281
 9203W        W72762  17.643   5.739  14.999
 9204W        W72763  41.002  41.337   4.196
 9205W        W72764  32.099   7.332   1.382
 9206W        W72765  36.849  32.969  10.939
 9207W        W72766  30.459  34.447  11.461
 9208W        W72767  40.913  29.481   1.432
 9209W        W72768  29.945   5.217   3.171
 9210W        W72769  23.608  44.305  13.979
 9211W        W72770   8.668  41.930   4.654
 9212W        W72771   1.944  44.845  10.505
 9213W        W72772   2.452  16.642  13.949
 9214W        W72773  12.661  33.875  13.333
 9215W        W72774   0.306  25.695   4.607
 9216W        W72775  38.382  11.644  12.923
 9217W        W72776   6.715  16.620   4.168
 9218W        W72777  35.952   6.890   0.362
 9219W        W72778  24.165   5.932  13.968
 9220W        W72779  28.112  12.639   4.325
 9221W        W72780  38.457  35.472  13.827
 9222W        W72781  15.194  19.561  13.010
 9223W        W72782   8.254  20.194   4.761
 9224W        W72783  28.144   7.391   9.992
 9225W        W72784   5.858  37.890  10.519
 9226W        W72785  38.839  23.225   4.660
 9227W        W72786   3.923   0.258   4.156
 9228W        W72787  34.082   3.906   4.199
 9229W        W72788  19.598   4.943   2.836
 9230W        W72789  39.421  28.543  11.006
 9231W        W72790  12.122  21.518  13.902
 9232W        W72791  38.984  27.048  11.966
 9233W        W72792   0.429   6.348  10.470
 9234W        W72793   1.889   4.877  12.963
 9235W        W72794  19.056  43.939  14.422
 9236W        W72795  14.723   2.810   1.393
 9237W        W72796   5.380  37.073  13.316
 9238W        W72797  38.519  26.578   4.769
 9239W        W72798   5.342   0.760  11.128
 9240W        W72799  26.118  12.189   1.863
 9241W        W72800   6.189  32.412   3.682
 9242W        W72801  26.190  19.147   1.822
 9243W        W72802  33.087  20.702   1.921
 9244W        W72803   4.879  28.507  11.520
 9245W        W72804  26.072   5.361  12.829
 9246W        W72805   8.813  37.002  10.900
 9247W        W72806  41.795  40.388   5.134
 9248W        W72807  38.023  33.966   0.818
 9249W        W72808  42.448  30.161   1.913
 9250W        W72809  26.535  22.236   4.193
 9251W        W72810   0.867  18.204  10.977
 9252W        W72811  33.055  40.467   2.401
 9253W        W72812  28.967   3.853   3.769
 9254W        W72813  32.494  26.457  14.459
 9255W        W72814  41.856  30.557  14.769
 9256W        W72815   9.746   4.841   2.328
 9257W        W72816   6.919   8.850  14.501
 9258W        W72817  10.804  44.270  13.876
 9259W        W72818   5.435  20.631  11.084
 9260W        W72819  22.174  36.500   0.909
 9261W        W72820   8.296   0.977  14.771
 9262W        W72821  23.046  26.992   3.805
 9263W        W72822   1.249   6.327   2.691
 9264W        W72823  16.207  42.452  13.984
 9265W        W72824  23.207   1.345   0.948
 9266W        W72825  32.449  27.564   2.233
 9267W        W72826  13.736   7.837  11.953
 9268W        W72827   4.207  37.976   1.935
 9269W        W72828  34.418  30.983  14.902
 9270W        W72829  20.583  39.055  13.057
 9271W        W72830  42.356  32.048   0.908
 9272W        W72831  28.558  44.391  14.904
 9273W        W72832  16.215  13.621  12.567
 9274W        W72833  16.811  16.597   2.750
 9275W        W72834  17.181  11.720  12.024
 9276W        W72835   2.413  28.552   0.401
 9277W        W72836  10.331  31.912  12.565
 9278W        W72837  37.470  27.034   0.304
 9279W        W72838  16.283  16.124   1.427
 9280W        W72839  30.096  30.523  12.050
 9281W        W72840   9.360  25.199  10.889
 9282W        W72841  34.608  17.082   1.395
 9283W        W72842  30.957  37.006   5.799
 9284W        W72843  32.019  37.054   0.393
 9285W        W72844   5.223  28.015   3.661
 9286W        W72845  40.307  20.128  14.458
 9287W        W72846  14.340  16.100  12.042
 9288W        W72847  38.891  16.661  13.047
 9289W        W72848  25.049  27.122   1.391
 9290W        W72849   4.745   7.368  12.089
 9291W        W72850  44.294   9.764   2.850
 9292W        W72851  25.683   0.304   2.708
 9293W        W72852  24.647  27.008   3.646
 9294W        W72853   1.786  17.154  12.506
 9295W        W72854  26.576  16.285  11.021
 9296W        W72855  30.552  34.059  10.539
 9297W        W72856  15.615   6.912   4.143
 9298W        W72857  23.724  37.572  10.072
 9299W        W72858  17.153  21.532  11.446
 9300W        W72859   0.783  21.648   1.755
 9301W        W72860   2.758  44.471  11.500
 9302W        W72861  14.105   6.777   5.120
 9303W        W72862  23.994  35.046  12.368
 9304W        W72863   9.880  30.538  14.469
 9305W        W72864  44.820   9.376   3.366
 9306W        W72865  28.473  32.467   0.459
 9307W        W72866  22.593  34.923   1.793
 9308W        W72867  18.126  36.049  11.961
 9309W        W72868  37.015   3.906  14.428
 9310W        W72869  41.348  16.157   0.809
 9311W        W72870  28.671   4.769  12.537
 9312W        W72871   0.477  23.556   3.356
 9313W        W72872   8.839  31.040  12.405
 9314W        W72873   8.703  42.357  12.405
 9315W        W72874  24.004  44.896   2.665
 9316W        W72875  40.422  15.717   1.732
 9317W        W72876  42.299  12.748  10.633
 9318W        W72877  27.661  12.613  12.040
 9319W        W72878  18.130  36.849  13.326
 9320W        W72879  39.409  35.395  14.474
 9321W        W72880  40.387   0.760  11.942
 9322W        W72881  32.604  27.554  14.999
 9323W        W72882   6.806  13.748   2.356
 9324W        W72883   0.395  13.672   1.764
 9325W        W72884  18.622  35.018   0.846
 9326W        W72885   8.184  38.874  13.506
 9327W        W72886   8.672   0.865   3.166
 9328W        W72887  12.318  29.655   4.624
 9329W        W72888   0.453  23.683   2.840
 9330W        W72889  20.532  37.383  12.501
 9331W        W72890  18.671  14.336  13.546
 9332W        W72891   5.385  29.138  12.925
 9333W        W72892  22.215  40.513   3.252
 9334W        W72893  40.829   6.395  14.298
 9335W        W72894  27.675  31.114  11.457
 9336W        W72895  18.635  22.210   0.923
 9337W        W72896  24.700  24.582   1.447
 9338W        W72897   5.335  14.791   3.751
 9339W        W72898  10.874  20.729   2.675
 9340W        W72899  12.355   2.441   4.746
 9341W        W72900  37.946  35.456   3.733
 9342W        W72901  41.031  11.654  10.459
 9343W        W72902  20.236  44.418   2.376
 9344W        W72903  24.702  31.014  14.839
 9345W        W72904  28.118  15.254   4.617
 9346W        W72905  44.001  22.136   1.279
 9347W        W72906   2.857  36.972   0.744
 9348W        W72907  26.977  11.631   0.402
 9349W        W72908  26.012  28.519   2.251
 9350W        W72909  30.113  24.104  10.898
 9351W        W72910  14.761  11.250   0.765
 9352W        W72911  11.134   0.282   2.196
 9353W        W72912  28.164  19.254   1.357
 9354W        W72913   5.295  23.528  10.971
 9355W        W72914  20.245  23.616   0.966
 9356W        W72915   2.338  12.186   3.697
 9357W        W72916  10.214  32.939   1.723
 9358W        W72917  20.633   1.341   3.255
 9359W        W72918   4.833  12.714   0.859
 9360W        W72919   0.950   1.971   2.204
 9361W        W72920  38.433   6.315  12.018
 9362W        W72921  27.131   5.409   3.207
 9363W        W72922  37.482  30.105  13.060
 9364W        W72923  25.972  39.480   2.337
 9365W        W72924  38.053   1.750  14.834
 9366W        W72925  20.575   2.913   2.408
 9367W        W72926   9.347  31.631  14.824
 9368W        W72927  41.457  22.031   4.816
 9369W        W72928  15.641  23.989  11.929
 9370W        W72929  43.361   1.428  13.513
 9371W        W72930  23.033  26.060  12.374
 9372W        W72931  30.921  15.652   0.346
 9373W        W72932  43.325  28.088  13.472
 9374W        W72933  35.890  23.239   4.138
 9375W        W72934   0.776   3.929   1.320
 9376W        W72935  16.210  43.514  14.461
 9377W        W72936  20.528  19.552   4.623
 9378W        W72937   1.270  30.469   4.205
 9379W        W72938  18.243  37.015   1.392
 9380W        W72939  23.566  27.018   1.446
 9381W        W72940  21.705   2.343   2.375
 9382W        W72941  32.914   6.310   0.258
 9383W        W72942   5.816  28.478   1.258
 9384W        W72943  14.304  12.306  14.911
 9385W        W72944  44.815  38.908   3.838
 9386W        W72945  13.616  20.698  12.446
 9387W        W72946  29.118  31.421  13.521
 9388W        W72947  40.804  23.646   0.847
 9389W        W72948   1.765  19.643  14.870
 9390W        W72949  42.928  26.997   1.431
 9391W        W72950  16.619  24.059   1.787
 9392W        W72951  19.616  42.475  14.798
 9393W        W72952  41.991  44.006  12.516
 9394W        W72953  17.686  19.208   4.330
 9395W        W72954   8.195  11.715   3.646
 9396W        W72955  41.867  20.746   1.284
 9397W        W72956  18.204   9.342  12.006
 9398W        W72957  42.016  16.740   0.818
 9399W        W72958  40.034   9.725   4.180
 9400W        W72959  31.532   7.714   3.725
 9401W        W72960   8.298  35.467  10.462
 9402W        W72961  37.080  28.124   2.842
 9403W        W72962  40.005  29.032   3.363
 9404W        W72963   1.845   3.440   0.455
 9405W        W72964  22.998  33.529  13.415
 9406W        W72965  24.983   3.843  13.063
 9407W        W72966   2.853  43.018   3.669
 9408W        W72967  26.522  22.718  11.453
 9409W        W72968  17.101   1.765  14.976
 9410W        W72969  37.422  13.741   0.307
 9411W        W72970  41.986  13.263  11.006
 9412W        W72971  37.971  23.660   3.238
 9413W        W72972  12.212   6.332   2.768
 9414W        W72973   5.688  33.983  10.562
 9415W        W72974  28.999  36.515  12.855
 9416W        W72975  15.668  33.590   4.701
 9417W        W72976  15.112  14.698   4.327
 9418W        W72977  22.569  15.611   1.295
 9419W        W72978   8.339   4.933   0.817
 9420W        W72979  19.708   3.828   3.258
 9421W        W72980   8.732  44.473  14.401
 9422W        W72981   7.222  22.584  14.935
 9423W        W72982  31.508  27.168  12.987
 9424W        W72983  15.688  34.052   3.804
 9425W        W72984  34.564  18.203   0.302
 9426W        W72985  22.538   3.262   1.924
 9427W        W72986  35.089  28.663   3.358
 9428W        W72987  41.791   2.737   3.148
 9429W        W72988  20.090  17.239  14.344
 9430W        W72989   2.306  21.634   4.599
 9431W        W72990  41.906  33.580   3.681
 9432W        W72991  36.359  35.391  14.829
 9433W        W72992   8.714   5.355   4.301
 9434W        W72993  43.921  10.158   1.883
 9435W        W72994  23.107   3.425   3.630
 9436W        W72995  24.095   6.855  14.995
 9437W        W72996  23.708  29.066   4.605
 9438W        W72997  15.201  20.662   1.222
 9439W        W72998  41.927  11.655  14.878
 9440W        W72999   4.265  29.066  10.526
 9441W        W73000  33.439  19.542   3.274
 9442W        W73001  34.093  40.518   4.790
 9443W        W73002  25.111  24.179   1.707
 9444W        W73003  18.562  38.065   4.733
 9445W        W73004  35.965  28.990   1.230
 9446W        W73005   8.849  33.588   2.755
 9447W        W73006  26.552  23.186  11.405
 9448W        W73007  27.023  10.659   4.608
 9449W        W73008  25.469  14.616   0.450
 9450W        W73009  27.597  26.042   2.712
 9451W        W73010  12.179  37.971   4.180
 9452W        W73011  13.628  27.075   9.461
 9453W        W73012  32.132   8.404   4.131
 9454W        W73013  33.554  28.148  14.511
 9455W        W73014  40.828  35.055   0.939
 9456W        W73015   6.335  12.241   1.760
 9457W        W73016   8.234   8.696  10.996
 9458W        W73017  43.981   4.215   2.883
 9459W        W73018  39.847   5.390   4.710
 9460W        W73019  44.459   3.327   4.772
 9461W        W73020  41.531   1.797  14.765
 9462W        W73021  16.596  11.839  13.339
 9463W        W73022  20.728  32.116   0.734
 9464W        W73023  12.759  15.634  10.070
 9465W        W73024  12.768   3.776   4.209
 9466W        W73025   8.225  23.503  14.801
 9467W        W73026  19.095   5.376   0.852
 9468W        W73027  17.158  29.609  13.339
 9469W        W73028   9.818  12.683  13.907
 9470W        W73029  27.984  40.005   4.211
 9471W        W73030  37.841  38.488   2.803
 9472W        W73031  19.058   4.429   3.218
 9473W        W73032  14.222  11.741   1.280
 9474W        W73033   6.409   2.959   4.662
 9475W        W73034   1.480  13.607  10.494
 9476W        W73035  38.928  21.106  12.011
 9477W        W73036  19.213  38.401   4.266
 9478W        W73037  22.096   9.327   0.855
 9479W        W73038   9.660  35.992   2.897
 9480W        W73039  28.575  31.554   1.917
 9481W        W73040   7.845  34.928   3.371
 9482W        W73041  11.319  44.339   3.151
 9483W        W73042   7.386  15.224  10.612
 9484W        W73043  36.456   3.735  13.348
 9485W        W73044  25.094  40.333   0.798
 9486W        W73045   9.275  16.172   0.956
 9487W        W73046  24.132  22.564  10.028
 9488W        W73047   4.238  28.114  13.371
 9489W        W73048   6.192  17.173   0.900
 9490W        W73049   7.725  27.645   4.303
 9491W        W73050  37.386  27.969   4.145
 9492W        W73051  27.031  35.496   3.175
 9493W        W73052   3.891  41.786   3.807
 9494W        W73053  41.481  11.677   4.764
 9495W        W73054   6.732  13.807   0.463
 9496W        W73055  12.791   8.771   1.312
 9497W        W73056  10.213   1.424  13.996
 9498W        W73057  34.445  39.840   3.251
 9499W        W73058   8.360   4.330   4.781
 9500W        W73059  15.661  17.733   1.931
 9501W        W73060  32.531  12.212   2.407
 9502W        W73061  15.313  17.705   3.640
 9503W        W73062  41.338  14.296  14.391
 9504W        W73063  26.542  15.308   1.375
 9505W        W73064  22.652  36.868   1.756
 9506W        W73065   6.685  15.672  14.455
 9507W        W73066  32.048  37.989   0.418
 9508W        W73067  28.110   3.855   0.316
 9509W        W73068  23.152  39.926   3.718
 9510W        W73069  23.616   4.302   3.289
 9511W        W73070  12.702  34.088  14.983
 9512W        W73071  18.562  27.075  12.398
 9513W        W73072   3.396   8.757  10.529
 9514W        W73073  41.384  15.246  12.369
 9515W        W73074  28.991  23.509  10.509
 9516W        W73075  22.680  10.257   1.248
 9517W        W73076   1.357  19.770   3.196
 9518W        W73077  31.553  36.503  14.395
 9519W        W73078  20.083  23.711   2.816
 9520W        W73079  40.026   2.284   3.786
 9521W        W73080  37.946   5.916  12.455
 9522W        W73081  44.762  10.209   1.842
 9523W        W73082  22.171  12.757  14.285
 9524W        W73083  20.044  24.035  13.853
 9525W        W73084  39.410   2.232   2.405
 9526W        W73085  15.820  25.976  12.528
 9527W        W73086  24.537  41.297  12.445
 9528W        W73087   0.465  20.272  14.784
 9529W        W73088  40.055   9.153  10.606
 9530W        W73089  21.531  25.586   4.127
 9531W        W73090   8.223  32.629  12.852
 9532W        W73091   8.220  42.483   4.707
 9533W        W73092  42.494  19.046   4.268
 9534W        W73093   7.374   0.964  12.035
 9535W        W73094   4.370   8.666   2.254
 9536W        W73095   4.712  44.427  14.915
 9537W        W73096  43.785  11.674  11.997
 9538W        W73097  31.599  12.668  10.892
 9539W        W73098   4.214  10.185  14.406
 9540W        W73099   0.417  21.261  14.399
 9541W        W73100   5.353   1.900   2.294
 9542W        W73101  43.273  38.073   2.263
 9543W        W73102  31.011  40.350   0.474
 9544W        W73103   8.731  33.613  10.087
 9545W        W73104  42.782  25.681  12.996
 9546W        W73105   9.752   1.451   4.785
 9547W        W73106  35.390  32.595  10.896
 9548W        W73107   4.893  35.047   2.687
 9549W        W73108  24.557  20.769  14.986
 9550W        W73109  42.828  15.238   4.656
 9551W        W73110  30.079  25.989  14.794
 9552W        W73111  39.895   1.393  12.836
 9553W        W73112  29.520  39.492  14.452
 9554W        W73113  25.201   3.382  14.461
 9555W        W73114   4.251  39.907   2.358
 9556W        W73115   2.789  29.102   2.729
 9557W        W73116  16.120  34.090   2.767
 9558W        W73117  19.565  16.217  12.058
 9559W        W73118   5.366  42.874   1.392
 9560W        W73119  36.351  15.287   3.791
 9561W        W73120  34.446  44.926   0.791
 9562W        W73121  20.099  21.176   4.668
 9563W        W73122  34.985  14.314   1.850
 9564W        W73123  10.197  10.842  11.005
 9565W        W73124  43.803   5.902  11.956
 9566W        W73125   2.400   1.396   3.821
 9567W        W73126  26.462   2.366   3.823
 9568W        W73127  24.989  18.084   2.201
 9569W        W73128  42.991  14.786   1.256
 9570W        W73129  12.293  20.205  11.477
 9571W        W73130  18.083   7.670   0.921
 9572W        W73131   0.413   4.429   3.657
 9573W        W73132  21.081   8.185  12.866
 9574W        W73133   8.831  35.490  11.070
 9575W        W73134  26.146  43.908  11.981
 9576W        W73135  31.898  11.311   3.368
 9577W        W73136   7.798  24.219  14.004
 9578W        W73137  38.862  23.583   1.415
 9579W        W73138  17.269   9.386   3.676
 9580W        W73139  24.980  21.658   0.470
 9581W        W73140  39.412  25.547  14.782
 9582W        W73141  33.907  42.288   0.467
 9583W        W73142  32.020   1.937   2.301
 9584W        W73143  38.359   2.228   0.820
 9585W        W73144  42.951  13.616   1.917
 9586W        W73145  38.407  41.877   2.716
 9587W        W73146  32.583  32.999   1.778
 9588W        W73147  42.997   7.847   2.733
 9589W        W73148  13.323  31.466   0.852
 9590W        W73149  11.646  13.222   1.834
 9591W        W73150  12.329  15.672   4.708
 9592W        W73151  18.691  31.539  14.994
 9593W        W73152  13.168   3.912  12.413
 9594W        W73153  14.170  26.545  13.913
 9595W        W73154  18.785  32.571  14.871
 9596W        W73155  12.175  34.081   0.385
 9597W        W73156  37.049  22.628   0.945
 9598W        W73157  24.675   7.334  13.312
 9599W        W73158   9.743  37.032  10.433
 9600W        W73159   8.736   4.322   2.340
 9601W        W73160   4.323  37.996  10.624
 9602W        W73161  28.041  31.114  14.786
 9603W        W73162  28.488   3.751  14.512
 9604W        W73163  44.985  27.620  12.354
 9605W        W73164  32.047  31.494  11.611
 9606W        W73165  35.398  36.534  14.399
 9607W        W73166  30.106   5.784  14.911
 9608W        W73167  24.604  32.019  13.307
 9609W        W73168  21.244   6.696   1.814
 9610W        W73169   5.314  31.934   1.801
 9611W        W73170  18.613  24.975  14.899
 9612W        W73171   5.285  29.004  11.893
 9613W        W73172  12.164  32.472  12.022
 9614W        W73173  44.842  32.942  10.495
 9615W        W73174  15.712  14.674   2.410
 9616W        W73175   0.367  14.793   2.728
 9617W        W73176   0.458  11.784  14.939
 9618W        W73177  18.288  12.699   4.763
 9619W        W73178   5.853   9.266   0.814
 9620W        W73179  42.314  39.047   2.215
 9621W        W73180  21.022  29.443   3.310
 9622W        W73181  14.612  36.524  13.982
 9623W        W73182  40.896  37.901  10.940
 9624W        W73183  11.851  38.891  10.127
 9625W        W73184  17.175  33.922  14.997
 9626W        W73185  39.318  19.630  12.889
 9627W        W73186   8.392  15.295   3.695
 9628W        W73187   1.960  25.475  12.553
 9629W        W73188   7.251   0.825  10.552
 9630W        W73189  27.139  19.269  13.357
 9631W        W73190  25.217  39.041  12.533
 9632W        W73191  11.327   4.941  12.991
 9633W        W73192  21.160  16.775  13.954
 9634W        W73193  10.775  38.482   4.134
 9635W        W73194  17.586  28.179  12.516
 9636W        W73195  26.582  30.516   0.936
 9637W        W73196  27.590  16.093   1.791
 9638W        W73197   2.410  14.185  10.439
 9639W        W73198  22.636  39.470   2.808
 9640W        W73199  14.610  40.478  11.444
 9641W        W73200  19.190   7.280   0.401
 9642W        W73201  16.317  14.296  14.461
 9643W        W73202   7.189  38.328   3.345
 9644W        W73203   5.790  20.522  10.898
 9645W        W73204  39.948   0.310   3.206
 9646W        W73205  32.624  28.491   4.222
 9647W        W73206  31.117  35.042  12.499
 9648W        W73207   9.152  23.116  10.957
 9649W        W73208   9.263   9.870   1.876
 9650W        W73209  36.453  38.333   4.349
 9651W        W73210  36.932  32.980  13.009
 9652W        W73211  40.512  32.885  11.028
 9653W        W73212   7.285  43.778   1.819
 9654W        W73213  33.533  15.778   4.228
 9655W        W73214  12.662  35.961   2.857
 9656W        W73215  34.504  33.107   3.836
 9657W        W73216  22.671   5.306   0.283
 9658W        W73217   6.355  27.168  11.456
 9659W        W73218  37.007  41.034  11.501
 9660W        W73219  25.194  29.117  14.454
 9661W        W73220  24.014  37.856  14.870
 9662W        W73221  43.950  31.531   3.316
 9663W        W73222   1.893  36.508  14.484
 9664W        W73223  29.501  15.233   4.201
 9665W        W73224  16.677  17.078   4.611
 9666W        W73225  13.798  33.932   0.871
 9667W        W73226   0.251  17.701   2.208
 9668W        W73227  34.401  10.152   0.772
 9669W        W73228  25.089   8.227   3.681
 9670W        W73229  19.122  11.646  14.954
 9671W        W73230  32.985  35.971  10.427
 9672W        W73231  21.532  31.418   3.640
 9673W        W73232  41.389   6.863  11.075
 9674W        W73233  33.383  42.946   1.231
 9675W        W73234  34.973  40.510   4.267
 9676W        W73235  35.985  19.082   1.888
 9677W        W73236   5.200  25.601  14.501
 9678W        W73237  31.935  30.945  10.898
 9679W        W73238   7.399  29.949  14.362
 9680W        W73239  25.667  42.884   4.792
 9681W        W73240  43.338  38.077   0.777
 9682W        W73241  14.790  35.936   2.849
 9683W        W73242  44.849  13.660   3.303
 9684W        W73243  23.641  18.607   2.280
 9685W        W73244  14.143  30.537  14.824
 9686W        W73245  29.498  26.187   4.695
 9687W        W73246  32.979  43.297  13.867
 9688W        W73247  43.845  33.992  12.539
 9689W        W73248  38.013  16.732  13.386
 9690W        W73249   6.836  32.084   4.170
 9691W        W73250  16.126  38.429   4.225
 9692W        W73251  39.825   9.194   1.434
 9693W        W73252  29.447   6.897  11.863
 9694W        W73253  41.955  32.114  14.820
 9695W        W73254  12.630  20.237   2.298
 9696W        W73255  24.600  26.507  12.095
 9697W        W73256  39.893  36.400   2.855
 9698W        W73257  34.475  39.334  12.395
 9699W        W73258  18.550  27.619  11.876
 9700W        W73259  26.579  26.951  14.430
 9701W        W73260  15.671   3.437  11.415
 9702W        W73261  38.051  23.732  13.366
 9703W        W73262  18.236  13.122   3.259
 9704W        W73263  17.284  14.257  13.431
 9705W        W73264  28.573  10.773  14.868
 9706W        W73265  17.264   6.189  11.592
 9707W        W73266   3.784  15.098  11.867
 9708W        W73267  42.985  35.366  13.829
 9709W        W73268   1.408  12.791   4.320
 9710W        W73269  15.767  20.729   2.417
 9711W        W73270   8.366  23.175  13.365
 9712W        W73271  39.459  24.021  14.883
 9713W        W73272  20.745  12.306   3.686
 9714W        W73273   2.831   2.799   3.722
 9715W        W73274  18.078  18.608  14.486
 9716W        W73275   5.339   4.253  11.989
 9717W        W73276  37.366  23.653  12.092
 9718W        W73277  33.945  17.101  12.984
 9719W        W73278  20.099  12.138   3.373
 9720W        W73279  37.015  23.546  11.600
 9721W        W73280  29.046  42.392   0.466
 9722W        W73281   0.491   1.315   2.404
 9723W        W73282  30.957  11.149  12.397
 9724W        W73283  31.514  39.392  11.944
 9725W        W73284  31.647   0.816   4.254
 9726W        W73285  38.957  12.629   4.755
 9727W        W73286   4.442  22.502   4.320
 9728W        W73287   2.964   9.376   1.315
 9729W        W73288   8.291  41.842  13.466
 9730W        W73289  11.187  16.777  11.558
 9731W        W73290  20.154   4.278   4.219
 9732W        W73291   5.844   7.696  11.039
 9733W        W73292  43.479  14.208  10.514
 9734W        W73293  14.689  13.293  11.080
 9735W        W73294  31.953  38.827  14.415
 9736W        W73295  42.325  23.647  11.941
 9737W        W73296  30.429  37.370   3.806
 9738W        W73297   2.811   1.272   0.428
 9739W        W73298  27.171  18.130  10.470
 9740W        W73299  42.507  42.390  12.989
 9741W        W73300  44.268   5.757   3.805
 9742W        W73301  18.669  31.627  12.926
 9743W        W73302  22.122  10.178   1.780
 9744W        W73303   9.667  44.765  11.383
 9745W        W73304  32.931  34.079   1.859
 9746W        W73305  34.593   9.359   3.209
 9747W        W73306  25.035  18.790  13.394
 9748W        W73307  21.637  18.695  14.286
 9749W        W73308  39.829  11.209  13.054
 9750W        W73309  34.028  32.995   1.883
 9751W        W73310  40.042   2.962  10.623
 9752W        W73311   2.843  16.147  13.907
 9753W        W73312   6.415  42.465   2.715
 9754W        W73313  35.516  17.157  11.123
 9755W        W73314  42.493  24.169   4.114
 9756W        W73315  14.315   5.730  11.562
 9757W        W73316   3.755  40.431  10.459
 9758W        W73317  39.827  31.606  10.408
 9759W        W73318  30.120  37.387   1.931
 9760W        W73319  36.862  31.524   5.081
 9761W        W73320  34.431   9.325   2.863
 9762W        W73321  31.470  38.504  13.912
 9763W        W73322  32.396  16.171  12.907
 9764W        W73323  22.162  23.102  11.077
 9765W        W73324   2.820  30.093  12.913
 9766W        W73325  16.621  15.711   3.322
 9767W        W73326   1.342  17.243   2.860
 9768W        W73327  33.550  12.802  10.892
 9769W        W73328   3.438  33.439   5.088
 9770W        W73329   8.738  15.627  11.989
 9771W        W73330  20.144   4.729   3.350
 9772W        W73331  18.079   0.920  12.003
 9773W        W73332  32.573  38.017   1.848
 9774W        W73333  36.846  27.979   3.285
 9775W        W73334  33.541  25.020   1.752
 9776W        W73335  29.548  43.368  14.792
 9777W        W73336   0.413  23.073  12.916
 9778W        W73337  44.982   0.950   1.252
 9779W        W73338  44.994   0.783  11.094
 9780W        W73339  36.955  19.064  14.355
 9781W        W73340  19.577  32.432   2.768
 9782W        W73341   7.393  43.413  12.392
 9783W        W73342  29.531  12.702   4.241
 9784W        W73343  13.830  15.723   2.814
 9785W        W73344   4.818  14.161  14.802
 9786W        W73345  34.097  10.656   3.310
 9787W        W73346   4.821  24.098   2.701
 9788W        W73347  23.729  42.339   1.245
 9789W        W73348   1.274   2.267   3.256
 9790W        W73349  28.609  31.511  12.536
 9791W        W73350  23.189  13.130  10.511
 9792W        W73351  17.701  16.597   4.773
 9793W        W73352   3.895   5.396  13.907
 9794W        W73353  29.656  16.729   4.151
 9795W        W73354   6.229   6.734   0.926
 9796W        W73355  32.465  44.838   1.807
 9797W        W73356  42.882  36.989   2.325
 9798W        W73357  37.086  35.033   0.816
 9799W        W73358   6.721  22.597  11.486
 9800W        W73359  23.168  15.298  11.489
 9801W        W73360  20.599  34.445  11.936
 9802W        W73361  13.344  43.461  12.057
 9803W        W73362  29.044  27.969  12.557
 9804W        W73363  15.262   2.922  13.473
 9805W        W73364  26.460  13.825   1.726
 9806W        W73365  30.087  27.994  14.810
 9807W        W73366  26.558   5.865   1.411
 9808W        W73367  36.888  19.046  10.459
 9809W        W73368   6.378  22.023   4.145
 9810W        W73369  29.574   9.201   2.188
 9811W        W73370  14.328  35.063   4.318
 9812W        W73371   4.698   3.843   3.669
 9813W        W73372  25.052  26.625   4.744
 9814W        W73373  42.405  44.804  11.452
 9815W        W73374  41.423  30.600   0.757
 9816W        W73375  30.509  37.489   4.181
 9817W        W73376  14.640  21.109   2.261
 9818W        W73377  23.999   6.816   1.298
 9819W        W73378   0.398  27.485   2.296
 9820W        W73379  39.969  16.736  12.424
 9821W        W73380  35.897  23.682   1.701
 9822W        W73381   5.763  39.469   0.297
 9823W        W73382  16.164  42.424   2.737
 9824W        W73383  22.997   1.976  12.855
 9825W        W73384  25.067  39.047   3.368
 9826W        W73385  18.747  10.776   4.269
 9827W        W73386  26.542  20.554  11.514
 9828W        W73387   6.273  15.125  10.492
 9829W        W73388   6.738   9.154  12.980
 9830W        W73389  10.150  31.949  10.980
 9831W        W73390  33.944   8.334  11.508
 9832W        W73391  35.898  41.343  11.372
 9833W        W73392  40.829  11.342  11.456
 9834W        W73393   3.386  28.598  10.901
 9835W        W73394  44.799  42.970  11.497
 9836W        W73395   0.754  11.263  11.083
 9837W        W73396  20.614  25.037   4.323
 9838W        W73397  14.304  19.105  11.495
 9839W        W73398  24.683  16.199   2.826
 9840W        W73399  13.211  33.880   0.849
 9841W        W73400  17.591  12.360  12.417
 9842W        W73401   1.256   0.282  10.621
 9843W        W73402  36.879  27.147  14.493
 9844W        W73403   1.965  38.887  10.417
 9845W        W73404  43.423  21.036  11.032
 9846W        W73405  10.309  33.569   3.759
 9847W        W73406  20.125  22.187   1.343
 9848W        W73407  17.120  26.645  11.468
 9849W        W73408   1.270  30.100   3.716
 9850W        W73409   0.300   3.922  12.417
 9851W        W73410  14.208  15.142   4.189
 9852W        W73411  25.020  37.847  11.491
 9853W        W73412   1.832  30.041   2.260
 9854W        W73413  36.400  14.257  13.478
 9855W        W73414  44.382   2.741  13.496
 9856W        W73415  30.524  27.477   1.921
 9857W        W73416  14.234  13.681   2.757
 9858W        W73417  41.412   1.279  11.883
 9859W        W73418  13.167  23.186   0.349
 9860W        W73419   8.713   6.329   4.653
 9861W        W73420  24.495  14.736   2.280
 9862W        W73421  25.628  30.999  10.589
 9863W        W73422   5.719  35.939   4.761
 9864W        W73423  34.907  14.592  12.892
 9865W        W73424   6.323  29.530  14.416
 9866W        W73425   5.897   5.913   0.880
 9867W        W73426   8.706  23.490  11.969
 9868W        W73427   5.324  32.105   0.356
 9869W        W73428   0.834  41.412  11.967
 9870W        W73429  19.151  43.379  12.536
 9871W        W73430  38.518  35.478   0.384
 9872W        W73431  41.358  24.061   2.889
 9873W        W73432   4.918  19.762   0.792
 9874W        W73433  29.509  20.680  13.996
 9875W        W73434  29.607  35.398  13.422
 9876W        W73435  24.119  30.513   4.285
 9877W        W73436  43.458  32.547  13.004
 9878W        W73437  32.546  34.396   3.683
 9879W        W73438  25.707   4.247  10.581
 9880W        W73439  25.991  42.527   4.597
 9881W        W73440  24.078  39.460  12.035
 9882W        W73441  32.911  41.796   0.251
 9883W        W73442  25.144  13.779   0.849
 9884W        W73443   2.960  11.313   4.671
 9885W        W73444   4.795  36.060   0.432
 9886W        W73445   2.378  26.162   0.359
 9887W        W73446  18.730  23.555  14.960
 9888W        W73447  34.121  34.532   3.859
 9889W        W73448  31.638  38.990   2.313
 9890W        W73449   7.190   8.666   4.114
 9891W        W73450   4.910   1.765  14.370
 9892W        W73451  13.841  11.705   4.229
 9893W        W73452  20.160  23.705   3.815
 9894W        W73453   4.909  23.116  11.448
 9895W        W73454  12.849  44.390   3.379
 9896W        W73455  36.085  13.846  13.859
 9897W        W73456  15.649   1.943   2.775
 9898W        W73457  14.196   9.854   2.828
 9899W        W73458   0.451  25.033  10.639
 9900W        W73459   9.321  31.644  11.930
 9901W        W73460  36.042   2.911   1.385
 9902W        W73461  43.987  37.078   3.684
 9903W        W73462  15.619   8.401  12.977
 9904W        W73463  22.030  42.925  10.643
 9905W        W73464  14.273  11.287  14.849
 9906W        W73465   1.343  39.920   3.652
 9907W        W73466   9.745  11.830  13.874
 9908W        W73467   5.764  36.450  13.944
 9909W        W73468  26.988   9.778   3.845
 9910W        W73469   0.368   8.744  10.471
 9911W        W73470  32.090  24.136  13.310
 9912W        W73471  25.210   6.219  13.006
 9913W        W73472  40.335  16.606   3.720
 9914W        W73473   7.230  24.135   1.314
 9915W        W73474  13.675  13.690  13.901
 9916W        W73475  20.115   3.430   2.746
 9917W        W73476  36.537  36.591   3.268
 9918W        W73477  43.796  41.406   1.857
 9919W        W73478  21.631  12.254  11.406
 9920W        W73479  37.498  21.104  10.920
 9921W        W73480  42.477   1.311   4.793
 9922W        W73481  10.778  41.862  10.463
 9923W        W73482  44.358  11.263  11.501
 9924W        W73483  44.979  25.637  13.366
 9925W        W73484  16.097  24.177  12.932
 9926W        W73485   9.758  10.360   4.815
 9927W        W73486   1.465   4.247   2.200
 9928W        W73487  36.500  28.185  14.372
 9929W        W73488   8.675  13.115  11.506
 9930W        W73489  11.647  18.082  11.884
 9931W        W73490  18.575   6.209   2.777
 9932W        W73491  38.988  14.318  11.575
 9933W        W73492  34.468  10.196   3.328
 9934W        W73493  31.608  13.722   0.739
 9935W        W73494  23.232  10.664  11.589
 9936W        W73495  27.555  17.220   1.826
 9937W        W73496  13.618  44.925   1.701
 9938W        W73497  32.624  44.996  12.528
 9939W        W73498  43.311  41.847  11.033
 9940W        W73499  30.139  14.805  12.343
 9941W        W73500  14.727   7.742  13.392
 9942W        W73501  34.523  24.656  14.290
 9943W        W73502  14.182  14.299  11.915
 9944W        W73503  12.332  12.115  12.353
 9945W        W73504  35.063  37.965   4.199
 9946W        W73505  22.138   3.344  14.912
 9947W        W73506   3.334  37.935  10.927
 9948W        W73507  28.674  17.630   2.238
 9949W        W73508  27.531  34.410   2.278
 9950W        W73509  16.621   4.800  10.478
 9951W        W73510  27.632  41.932  14.486
 9952W        W73511  16.652  21.678   2.339
 9953W        W73512   3.940  43.395  12.953
 9954W        W73513   4.366   6.913  10.943
 9955W        W73514   0.268  36.878  11.414
 9956W        W73515  40.806  32.532   0.476
 9957W        W73516  17.139  26.503   9.978
 9958W        W73517  15.749  13.697   0.826
 9959W        W73518  44.447  41.034   1.330
 9960W        W73519  24.026  37.424   4.781
 9961W        W73520  20.040   4.836   4.778
 9962W        W73521  15.612  15.819   4.806
 9963W        W73522  40.386   0.841   3.169
 9964W        W73523  12.218  16.109   5.219
 9965W        W73524  35.489  40.846   3.740
 9966W        W73525  35.955  43.932   4.786
 9967W        W73526   8.833  29.521  11.937
 9968W        W73527   4.222   9.679  13.014
 9969W        W73528  13.655   3.286  13.497
 9970W        W73529  17.651  26.145  11.077
 9971W        W73530  13.761  27.087  12.894
 9972W        W73531  35.003  34.976  11.380
 9973W        W73532  22.561   3.291  10.498
 9974W        W73533   1.734  22.148  11.431
 9975W        W73534   3.333  37.946   4.625
 9976W        W73535  17.186  28.985  10.461
 9977W        W73536  35.068  38.566   2.409
 9978W        W73537  31.052  26.677   1.899
 9979W        W73538  33.121  44.333  12.426
 9980W        W73539  24.518  42.450   1.299
 9981W        W73540  44.431  41.963  10.631
 9982W        W73541  25.576  31.900  11.049
 9983W        W73542  21.251  36.949   2.851
 9984W        W73543  25.202  17.607  10.635
 9985W        W73544  26.981  36.893   3.305
 9986W        W73545  31.943  13.237  11.899
 9987W        W73546  23.562  37.075   4.688
 9988W        W73547  41.448   6.737   3.810
 9989W        W73548  36.883  14.151   4.777
 9990W        W73549  33.401  24.499   0.739
 9991W        W73550  38.859  31.571  14.326
 9992W        W73551  25.077  24.551  10.536
 9993W        W73552  41.992  11.818   0.395
 9994W        W73553  13.676  23.665  12.871
 9995W        W73554  23.544  25.192  12.549
 9996W        W73555  16.646  30.475   3.243
 9997W        W73556  35.955  22.135  11.565
 9998W        W73557  44.892   8.717   1.351
 9999W        W73558   2.402  16.639   3.246
10000W        W73559   5.267   9.174   3.330
10001W        W73560  42.434  26.075   0.451
10002W        W73561  31.066   6.869  14.305
10003W        W73562   0.945  30.584  13.320
10004W        W73563   0.941  16.301  11.895
10005W        W73564   8.847   7.172  13.365
10006W        W73565  12.129  19.677   1.420
10007W        W73566   1.760   3.882   0.450
10008W        W73567  37.366  38.844   0.427
10009W        W73568  14.300   6.250  12.899
10010W        W73569  25.207  19.183  14.787
10011W        W73570   0.488  35.591  12.925
10012W        W73571   5.849  11.370   0.871
10013W        W73572  21.076  26.009  11.587
10014W        W73573  33.926  27.013   4.125
10015W        W73574   4.254  39.028  11.863
10016W        W73575   9.708   8.694   4.642
10017W        W73576   6.722  18.230   0.783
10018W        W73577  12.327   0.744   0.729
10019W        W73578  22.517  15.173   0.771
10020W        W73579  14.619  22.549  14.464
10021W        W73580  29.631   3.256   2.673
10022W        W73581  36.537  41.949  11.943
10023W        W73582  33.521  28.463  14.290
10024W        W73583  19.554   9.149  14.824
10025W        W73584  11.740   2.747  10.605
10026W        W73585   0.755  35.901   1.756
10027W        W73586  24.720  23.679  13.983
10028W        W73587  11.260  24.685  11.596
10029W        W73588  30.569   7.258   2.273
10030W        W73589  30.499  14.099   3.685
10031W        W73590  41.921  42.960   0.777
10032W        W73591  25.039  14.764   4.142
10033W        W73592   1.762  31.510   2.850
10034W        W73593  12.230  18.590   0.957
10035W        W73594  34.459  22.114   4.666
10036W        W73595   8.757  40.378   1.858
10037W        W73596   1.833  25.693   2.875
10038W        W73597  28.993  25.205  10.943
10039W        W73598  13.177  19.694  14.845
10040W        W73599  22.564  28.009  13.503
10041W        W73600   9.236  24.131  11.510
10042W        W73601  30.997  23.079  12.493
10043W        W73602   5.806  24.110  14.820
10044W        W73603  20.197  25.604   1.302
10045W        W73604  12.720  34.540  12.989
10046W        W73605  20.199  42.876  11.123
10047W        W73606  40.810  14.663   0.878
10048W        W73607  33.978  31.627   1.932
10049W        W73608   8.306   1.437   3.168
10050W        W73609  15.580  41.489   0.386
10051W        W73610  41.927  36.016  13.541
10052W        W73611   2.945   4.391   1.801
10053W        W73612  30.489  32.583   2.790
10054W        W73613   4.698   1.853   0.855
10055W        W73614   2.933  20.734  11.583
10056W        W73615   3.901  26.641   3.661
10057W        W73616  14.602  35.452  12.889
10058W        W73617  43.513  29.655   1.803
10059W        W73618  27.483   1.261  13.452
10060W        W73619  19.087  40.873   3.156
10061W        W73620  32.433  13.690   0.814
10062W        W73621  44.273  40.482  11.967
10063W        W73622   3.423  10.180  11.520
10064W        W73623  30.067  21.549   0.938
10065W        W73624  29.565   9.164  14.813
10066W        W73625   7.225  19.633   3.313
10067W        W73626   8.181  11.210   1.832
10068W        W73627  41.905   9.824  12.025
10069W        W73628  25.157  29.174   0.354
10070W        W73629  26.076  24.076   3.302
10071W        W73630  39.910   1.356   3.642
10072W        W73631  37.972  44.763  11.596
10073W        W73632  18.062  17.066  12.471
10074W        W73633  22.249  22.124  10.532
10075W        W73634  18.114  14.104  10.596
10076W        W73635   6.366   7.705   1.789
10077W        W73636  25.570  26.502  11.402
10078W        W73637  22.531  11.700  13.401
10079W        W73638  40.914  43.906   2.239
10080W        W73639  32.579  34.905  12.573
10081W        W73640  36.050  32.481  12.855
10082W        W73641  39.043  34.484   4.351
10083W        W73642  23.125   3.775  14.387
10084W        W73643  33.569  37.016  14.345
10085W        W73644  40.882  11.262   4.283
10086W        W73645  20.622  13.134  11.480
10087W        W73646  30.025  28.971   0.950
10088W        W73647   1.416   2.280  11.036
10089W        W73648  39.841  42.851   5.189
10090W        W73649   9.653   4.278   0.892
10091W        W73650  22.130   1.787  14.375
10092W        W73651  16.206  39.013   2.900
10093W        W73652  13.267  11.797  11.407
10094W        W73653  34.422  33.129  11.449
10095W        W73654  19.681  39.911   2.287
10096W        W73655  37.545  32.952   1.910
10097W        W73656   4.819  22.727  13.008
10098W        W73657  44.471   8.235   1.324
10099W        W73658  42.841  39.475  14.403
10100W        W73659   7.899  15.718   1.912
10101W        W73660  40.485  43.433  10.553
10102W        W73661  36.470  40.525  12.498
10103W        W73662  11.802   9.172   4.722
10104W        W73663   3.747  29.467   4.153
10105W        W73664   3.834  38.427   3.216
10106W        W73665  19.149  14.834   3.711
10107W        W73666  10.298  30.581   1.420
10108W        W73667   2.255  19.616  12.977
10109W        W73668  30.490  34.904   3.162
10110W        W73669  37.439   5.216  10.942
10111W        W73670  24.615   3.794   0.804
10112W        W73671   5.918  12.353   4.783
10113W        W73672  13.773  21.550  14.942
10114W        W73673  30.437   9.230   0.726
10115W        W73674   3.460  40.888   1.239
10116W        W73675  16.294  10.198   4.826
10117W        W73676  30.114   9.881   0.406
10118W        W73677   1.760  29.015   2.337
10119W        W73678  35.376   4.777   2.668
10120W        W73679   4.936  14.824   1.295
10121W        W73680  16.191  40.857  14.890
10122W        W73681  41.419  12.741   0.283
10123W        W73682  35.512  43.959  12.380
10124W        W73683  17.212  12.158   1.836
10125W        W73684   8.704  34.970   2.389
10126W        W73685  20.698  14.664  14.514
10127W        W73686  30.094   9.331  11.556
10128W        W73687  33.966  19.058  10.986
10129W        W73688  36.923  34.445   3.304
10130W        W73689  23.164  41.932   3.339
10131W        W73690  33.130  33.483   4.345
10132W        W73691  14.198  18.139  12.073
10133W        W73692  40.391  35.587  12.414
10134W        W73693  27.020  33.436  10.097
10135W        W73694  20.120   7.870  11.046
10136W        W73695  15.224  26.585  12.461
10137W        W73696  40.323  23.237  11.088
10138W        W73697  36.085  18.076   4.659
10139W        W73698  27.007  12.756   3.240
10140W        W73699  36.856  40.447   0.964
10141W        W73700  25.061   2.809   3.871
10142W        W73701  13.267  25.521   1.353
10143W        W73702  36.989  29.923  10.491
10144W        W73703  41.898  27.569  11.080
10145W        W73704   4.282  24.491   1.437
10146W        W73705  22.552  35.887   5.096
10147W        W73706  19.186  15.083  11.541
10148W        W73707  22.505   6.909   4.621
10149W        W73708  29.953   0.274   3.316
10150W        W73709  38.007  44.958   1.783
10151W        W73710  10.326  32.961  14.779
10152W        W73711  24.567   7.762   0.323
10153W        W73712  35.035  23.635  11.049
10154W        W73713  26.595  25.113   2.869
10155W        W73714   1.825  21.757  13.383
10156W        W73715  35.919  42.469  13.496
10157W        W73716  41.809  23.498   1.770
10158W        W73717  35.862  16.167   0.441
10159W        W73718   7.812  35.402   1.381
10160W        W73719  32.949  32.974  13.944
10161W        W73720  15.303  14.211  11.985
10162W        W73721  16.074  44.004  14.816
10163W        W73722   5.421  36.995   4.289
10164W        W73723  16.275   9.645  10.091
10165W        W73724  12.734  42.332   2.766
10166W        W73725  14.302  38.494  11.121
10167W        W73726  32.481  13.167   0.770
10168W        W73727  33.609  24.151  13.362
10169W        W73728  31.034  31.533  14.024
10170W        W73729  42.458  35.062  10.643
10171W        W73730  24.502  20.134   3.650
10172W        W73731  37.490  24.158   2.860
10173W        W73732  33.535  30.090  11.863
10174W        W73733  30.073  26.952   4.240
10175W        W73734  12.359  29.591   1.818
10176W        W73735  16.098  30.979  12.959
10177W        W73736   9.789   8.258   3.745
10178W        W73737  32.622  33.498   1.740
10179W        W73738  28.635  25.186   0.266
10180W        W73739  35.048  28.601   1.345
10181W        W73740  36.055  35.465  11.041
10182W        W73741  11.194  26.104  12.985
10183W        W73742  38.842  17.614   1.866
10184W        W73743  33.474  42.382  13.363
10185W        W73744  11.268  16.085   3.660
10186W        W73745  15.322  12.299   2.694
10187W        W73746   5.275  39.324  14.911
10188W        W73747  24.155  36.095  11.908
10189W        W73748  30.654  18.624  13.527
10190W        W73749  33.548  26.965   0.394
10191W        W73750  42.833   6.322  11.474
10192W        W73751   5.324  25.003   0.938
10193W        W73752  12.190  44.429   0.733
10194W        W73753  40.332  12.628   1.403
10195W        W73754  23.119   0.832   4.264
10196W        W73755  28.483  18.736   4.249
10197W        W73756   2.890  29.082  10.583
10198W        W73757   9.885   0.769  12.349
10199W        W73758  22.144  26.549   3.150
10200W        W73759  28.032   4.319   4.220
10201W        W73760  12.215  26.644  10.553
10202W        W73761   7.901  24.706  12.364
10203W        W73762  30.637  21.053   3.337
10204W        W73763  25.999   0.309  14.938
10205W        W73764  31.024  35.577   0.949
10206W        W73765  41.491  37.445   3.683
10207W        W73766  44.474   0.867   1.303
10208W        W73767  27.162  18.780  14.377
10209W        W73768  13.656  33.076  13.924
10210W        W73769  14.744  35.494  14.313
10211W        W73770  27.601   8.232  12.891
10212W        W73771  24.698  34.596   0.922
10213W        W73772   6.687  18.602  11.936
10214W        W73773  11.673  20.203  12.438
10215W        W73774  11.340  33.616   0.877
10216W        W73775  40.312  12.733  13.424
10217W        W73776  22.582  31.616   3.299
10218W        W73777   8.785  13.735   1.394
10219W        W73778  27.062  27.672  14.916
10220W        W73779  19.240  17.281   2.183
10221W        W73780  31.590  35.553  14.768
10222W        W73781  36.978  21.180   4.696
10223W        W73782  39.380  32.629   4.625
10224W        W73783  25.189  13.206  12.041
10225W        W73784  44.992   5.767  13.881
10226W        W73785  10.289  11.742   4.123
10227W        W73786  18.241  23.184  10.623
10228W        W73787  42.947   9.718  11.910
10229W        W73788   9.265  15.162  12.044
10230W        W73789  39.323  25.617   1.855
10231W        W73790  13.160  26.583   2.693
10232W        W73791  43.804  35.422   3.636
10233W        W73792  17.607  13.833   0.877
10234W        W73793  20.209  40.000   9.978
10235W        W73794  38.382  33.007  14.292
10236W        W73795  39.315   2.822   2.251
10237W        W73796  40.490   2.245  13.909
10238W        W73797   4.301  40.450   4.601
10239W        W73798  26.470  22.222  12.959
10240W        W73799  11.164  38.372  14.362
10241W        W73800   0.875   4.273  13.415
10242W        W73801  43.454  38.499  13.936
10243W        W73802   9.856   6.253   0.758
10244W        W73803   4.305  38.011  12.536
10245W        W73804  27.446  36.960  14.331
10246W        W73805  12.122  11.341  13.810
10247W        W73806   1.278  30.137   3.166
10248W        W73807  25.637  20.678   2.865
10249W        W73808  23.553   0.459   3.759
10250W        W73809  24.580  37.483  14.003
10251W        W73810  19.159  32.892   4.233
10252W        W73811  23.186  21.256  12.087
10253W        W73812  36.844  12.755  14.858
10254W        W73813  20.535  43.449   3.362
10255W        W73814   0.771  41.456   2.664
10256W        W73815  32.591  41.952   0.828
10257W        W73816  28.118  42.444  10.495
10258W        W73817  24.712  28.933  12.367
10259W        W73818  21.628  20.150   0.324
10260W        W73819  33.506  37.533   2.329
10261W        W73820   1.870  34.049   1.226
10262W        W73821  39.838  38.331  11.058
10263W        W73822  18.593  31.023  14.296
10264W        W73823  30.970  10.148   4.129
10265W        W73824  29.625   4.773   2.278
10266W        W73825  40.887  17.152  11.412
10267W        W73826  14.276  18.548   0.299
10268W        W73827  33.473   1.970  13.332
10269W        W73828  41.429  10.186  11.003
10270W        W73829  18.679  14.150  13.850
10271W        W73830  22.996  35.401   4.287
10272W        W73831  14.803  35.572   5.673
10273W        W73832  19.657  31.420  13.412
10274W        W73833  27.955  37.060  11.485
10275W        W73834  27.460  19.551  12.069
10276W        W73835   8.865  29.106   0.449
10277W        W73836  10.146  20.705  12.576
10278W        W73837  42.022  19.711  11.385
10279W        W73838   6.382  31.471  12.493
10280W        W73839   9.873   5.831  12.970
10281W        W73840  34.900   6.201  12.373
10282W        W73841  41.427  31.537   1.768
10283W        W73842  32.061  40.965  10.115
10284W        W73843  25.474  17.629  14.422
10285W        W73844   1.792   0.845   4.834
10286W        W73845  24.183   3.253   9.968
10287W        W73846  43.319   1.971   2.402
10288W        W73847  40.807  41.318  14.871
10289W        W73848   8.718   3.808  11.005
10290W        W73849  27.551  15.130  10.490
10291W        W73850  25.671   1.430  11.911
10292W        W73851  22.569   9.735  14.313
10293W        W73852   3.914   8.315   1.845
10294W        W73853   0.333   2.923   3.850
10295W        W73854  27.035   9.152   5.228
10296W        W73855  41.793   9.281   0.318
10297W        W73856  38.534  24.154  11.940
10298W        W73857   8.701  15.734   0.397
10299W        W73858  12.119  31.607   2.664
10300W        W73859   8.206   6.694   3.312
10301W        W73860   8.356  19.605   3.668
10302W        W73861  33.484   7.694   1.712
10303W        W73862  10.348   5.785  10.934
10304W        W73863  36.424  40.443  10.495
10305W        W73864  33.487   3.836   0.761
10306W        W73865  42.943  15.620   3.844
10307W        W73866  39.464  25.195  11.457
10308W        W73867  31.966  32.968  14.495
10309W        W73868  17.662  18.111  11.044
10310W        W73869  28.649  24.122   0.299
10311W        W73870  35.886  38.912   1.309
10312W        W73871  10.281   6.247  12.444
10313W        W73872  16.306  42.514  13.351
10314W        W73873  41.898   2.875  13.504
10315W        W73874   4.274   6.741  14.375
10316W        W73875  41.367   6.782  12.469
10317W        W73876   0.925  15.325  14.898
10318W        W73877  27.954  18.567  14.331
10319W        W73878   3.782  28.180   2.670
10320W        W73879  14.229   9.841   0.333
10321W        W73880  31.438  20.658  14.856
10322W        W73881  12.216   4.776  11.027
10323W        W73882  35.999  31.462   3.202
10324W        W73883  24.018   5.290   2.263
10325W        W73884  31.627  22.207  11.563
10326W        W73885  31.021  32.927   2.726
10327W        W73886   6.206  35.873   2.776
10328W        W73887  10.661  16.628  13.025
10329W        W73888  38.394  39.431   1.913
10330W        W73889  17.745  39.405  13.011
10331W        W73890  33.602  22.048  10.092
10332W        W73891  14.128  35.495  11.515
10333W        W73892  36.049  41.840  11.883
10334W        W73893  35.995  17.198  10.504
10335W        W73894  37.469  36.097   4.646
10336W        W73895  10.638  16.294  12.349
10337W        W73896   3.319  18.767  13.540
10338W        W73897   6.303  21.554  13.020
10339W        W73898   1.766  29.663   0.856
10340W        W73899  26.179  25.666   0.481
10341W        W73900   0.924   6.820  13.824
10342W        W73901  25.188   5.819   1.267
10343W        W73902   3.401   0.426  13.370
10344W        W73903  39.393  17.578  11.039
10345W        W73904  27.058  27.470  11.384
10346W        W73905   2.440  43.514  11.119
10347W        W73906  26.182  15.208   3.687
10348W        W73907  39.361  20.088   4.650
10349W        W73908  33.475  32.079  11.555
10350W        W73909   6.182   4.928   1.257
10351W        W73910   6.710  16.234   0.341
10352W        W73911  10.741   9.169  13.810
10353W        W73912   1.440  19.281  13.500
10354W        W73913   3.812   2.325   3.325
10355W        W73914   6.416  38.363   1.902
10356W        W73915  42.945  34.568   4.298
10357W        W73916  24.652   8.878   4.761
10358W        W73917  44.481  18.111   2.319
10359W        W73918  26.558  28.603  13.903
10360W        W73919  38.561  38.346  11.861
10361W        W73920   8.340   0.390  13.426
10362W        W73921  29.488  24.670  14.939
10363W        W73922  33.616  35.528  11.553
10364W        W73923  16.100  13.212   0.318
10365W        W73924   2.289  11.740   5.236
10366W        W73925  22.605  20.767  11.015
10367W        W73926  28.975  19.121   3.276
10368W        W73927  32.508  13.618  13.885
10369W        W73928  28.479  26.082  13.833
10370W        W73929  42.853   6.289   2.892
10371W        W73930  19.780  39.557   0.918
10372W        W73931  14.198  24.983  12.954
10373W        W73932  35.482  14.109   0.739
10374W        W73933   1.953  24.008  14.461
10375W        W73934   2.444  21.019   5.272
10376W        W73935  10.155  15.087  10.586
10377W        W73936  27.013  27.058  14.403
10378W        W73937  20.064   9.658  14.765
10379W        W73938  36.081  18.708   3.357
10380W        W73939  18.740  23.073   4.284
10381W        W73940  12.248  40.922   0.406
10382W        W73941  28.650  43.855   2.696
10383W        W73942  25.214  11.661   0.924
10384W        W73943  21.222  22.138   4.677
10385W        W73944  40.365  41.024   2.802
10386W        W73945  20.612  20.199   0.957
10387W        W73946  27.049   7.187   3.317
10388W        W73947   9.668   3.748   3.329
10389W        W73948   7.713  21.149   4.301
10390W        W73949  41.291  28.094   4.628
10391W        W73950  26.658  24.059  10.155
10392W        W73951   0.851  11.245   3.789
10393W        W73952   9.682  25.480   2.259
10394W        W73953  14.191  21.163  13.468
10395W        W73954  23.030   6.842   3.230
10396W        W73955  22.024  14.759  14.346
10397W        W73956  22.625   4.860   9.985
10398W        W73957   0.266   5.891   1.400
10399W        W73958  36.872  18.085  13.540
10400W        W73959  32.127   3.235  14.431
10401W        W73960  28.107  29.582   4.193
10402W        W73961  12.802  39.478  10.611
10403W        W73962   6.876   5.858   0.354
10404W        W73963  21.102  12.724   4.221
10405W        W73964  42.007  26.022   2.232
10406W        W73965   7.776  18.614   2.737
10407W        W73966   2.323  12.331  14.865
10408W        W73967  15.646  14.758   1.694
10409W        W73968  40.538  25.669   1.822
10410W        W73969  24.073  19.179  13.391
10411W        W73970  22.217  39.846   0.259
10412W        W73971  22.016  22.164   3.234
10413W        W73972  43.395  23.005   1.771
10414W        W73973   0.944   7.241   5.195
10415W        W73974  43.488   3.341   4.267
10416W        W73975  21.221   2.385   3.315
10417W        W73976  25.015   0.310  12.931
10418W        W73977  10.766  15.256  11.862
10419W        W73978  23.241  11.744   0.357
10420W        W73979  12.315  37.363   4.257
10421W        W73980   1.821  21.697   3.260
10422W        W73981   5.425  42.788  11.410
10423W        W73982   9.285  17.101  14.968
10424W        W73983  33.605  33.998   1.321
10425W        W73984  20.719   4.710   2.789
10426W        W73985  31.478  24.174   3.829
10427W        W73986  17.082  10.187  10.614
10428W        W73987  11.639  43.972  11.872
10429W        W73988  11.205  16.796   2.701
10430W        W73989   6.316  20.551   0.308
10431W        W73990   0.934  41.018  11.950
10432W        W73991  28.614  21.150  11.509
10433W        W73992  16.126  36.434   3.675
10434W        W73993   1.819  38.918   1.842
10435W        W73994  33.913  16.304  14.791
10436W        W73995  21.560   5.271  14.854
10437W        W73996  41.959  27.946   3.653
10438W        W73997  10.356  35.014   2.353
10439W        W73998  32.015   5.902  10.137
10440W        W73999  39.529  28.058   4.189
10441W        W74000  22.251  28.643   2.836
10442W        W74001   0.296  35.014   3.156
10443W        W74002  35.407   6.819   4.652
10444W        W74003   8.810   7.803  14.799
10445W        W74004  38.821  17.736   4.632
10446W        W74005  20.237  11.288  14.443
10447W        W74006   1.874   2.362   2.874
10448W        W74007   4.404  14.696  10.568
10449W        W74008   6.808  30.573  11.572
10450W        W74009  27.649  13.792   4.172
10451W        W74010  31.530  17.574   2.870
10452W        W74011   9.726   5.404   4.244
10453W        W74012   3.445  22.635   1.860
10454W        W74013   7.878   0.977   1.278
10455W        W74014  27.071  28.560   3.647
10456W        W74015  26.044   7.889  11.060
10457W        W74016  38.544  37.982  11.381
10458W        W74017   9.192  21.542  10.940
10459W        W74018  34.017  36.453  14.023
10460W        W74019  33.606  42.022  13.818
10461W        W74020  43.403   1.351  13.826
10462W        W74021  11.691  21.652  10.537
10463W        W74022  35.041  20.743  13.403
10464W        W74023  18.632  32.555  11.040
10465W        W74024  21.123  31.611   1.385
10466W        W74025  14.659  31.029   2.344
10467W        W74026  32.933  29.010  14.509
10468W        W74027  24.981  26.544  14.461
10469W        W74028   3.265   5.383  13.368
10470W        W74029   0.802  23.990  11.939
10471W        W74030  24.589  39.957  12.077
10472W        W74031  25.077  18.174   3.633
10473W        W74032  38.047  39.015  11.858
10474W        W74033  38.918  29.149  13.548
10475W        W74034  29.585  24.500   3.219
10476W        W74035  20.035  30.518  11.069
10477W        W74036  11.690  44.804   4.764
10478W        W74037  18.662  36.576  11.959
10479W        W74038  19.679  24.636   3.659
10480W        W74039  39.360  18.586  13.351
10481W        W74040   0.883  13.112  13.389
10482W        W74041  32.993  43.916   4.628
10483W        W74042  17.210   2.451   3.321
10484W        W74043  31.480  28.934   1.443
10485W        W74044  36.957  34.109   3.321
10486W        W74045  35.857   0.821  10.953
10487W        W74046   6.822  23.651  13.057
10488W        W74047  39.403   6.748  10.919
10489W        W74048  24.597  39.033  14.028
10490W        W74049  11.132  39.504   1.221
10491W        W74050  22.554  19.554  12.562
10492W        W74051   9.789  31.958   1.306
10493W        W74052   2.238  42.785   4.306
10494W        W74053  37.429  18.734   5.254
10495W        W74054  32.063  24.200   0.903
10496W        W74055  28.555  38.951  14.442
10497W        W74056  18.091  16.782   2.332
10498W        W74057   5.388  31.563   1.778
10499W        W74058  21.656  30.630   2.244
10500W        W74059  38.973   9.338  12.497
10501W        W74060  31.982  31.430  12.003
10502W        W74061   9.322  29.992  11.076
10503W        W74062  31.586  15.098   1.334
10504W        W74063   8.298   6.213   4.771
10505W        W74064  35.952  10.243  12.994
10506W        W74065  11.732  22.731   1.806
10507W        W74066  10.855  36.974   2.834
10508W        W74067  42.401  16.296   3.727
10509W        W74068  13.122   1.255   4.151
10510W        W74069  29.500   7.417   4.328
10511W        W74070  20.553  13.618  12.465
10512W        W74071  31.949  17.168   1.223
10513W        W74072   0.485   1.482  14.369
10514W        W74073  27.676  36.382  10.957
10515W        W74074  42.976  28.602  12.507
10516W        W74075  26.139  17.162   4.235
10517W        W74076  16.156  28.572   1.854
10518W        W74077   9.370   2.759   3.372
10519W        W74078   3.244  33.447  12.453
10520W        W74079  30.163  24.583  12.466
10521W        W74080   3.277  27.029  13.797
10522W        W74081   4.385  32.516  14.911
10523W        W74082   5.209  12.827  10.908
10524W        W74083  10.837  19.127   3.786
10525W        W74084  16.782   3.360   1.240
10526W        W74085  39.381  13.658   0.806
10527W        W74086  29.629  24.485  11.039
10528W        W74087  13.810  10.327   3.316
10529W        W74088  31.600  29.087  13.451
10530W        W74089  17.648  31.907  13.973
10531W        W74090   2.345  33.980   2.341
10532W        W74091  20.137   5.411   0.741
10533W        W74092   3.368  30.446  12.460
10534W        W74093   6.220   4.866  14.855
10535W        W74094   4.893   5.210   2.853
10536W        W74095   7.828  15.695  11.955
10537W        W74096  22.670  20.638   1.223
10538W        W74097  39.004  13.786   3.195
10539W        W74098   9.778  20.131   1.389
10540W        W74099  32.055   4.839  11.930
10541W        W74100  34.564   7.351   3.169
10542W        W74101  29.094  16.749   0.448
10543W        W74102  38.397  27.957   3.834
10544W        W74103   2.755  40.828   0.273
10545W        W74104  34.899  26.506   1.833
10546W        W74105  10.767  33.554   5.781
10547W        W74106  15.141   5.372   3.227
10548W        W74107  28.015   2.793  11.087
10549W        W74108  25.704  44.005   1.918
10550W        W74109   8.202   6.356  13.791
10551W        W74110  23.068  43.281  14.456
10552W        W74111  30.004  41.002   4.118
10553W        W74112   6.277  30.582   4.701
10554W        W74113  27.593  39.407   3.306
10555W        W74114  39.057   0.320  12.999
10556W        W74115  24.128  18.758  11.035
10557W        W74116  31.060  32.124  11.002
10558W        W74117  16.082  10.296  10.941
10559W        W74118  15.176  41.442   2.290
10560W        W74119  33.411  29.174   4.267
10561W        W74120   5.252  20.232  14.793
10562W        W74121   5.222   7.786   4.322
10563W        W74122  35.602  27.680  12.014
10564W        W74123  25.967  39.500  13.958
10565W        W74124  17.170   6.830  14.333
10566W        W74125  14.097   8.701  14.453
10567W        W74126  39.521   6.365  11.865
10568W        W74127  18.252  23.999   0.793
10569W        W74128  12.769  29.051  11.482
10570W        W74129  31.931  43.974   0.745
10571W        W74130   5.304   8.804  13.336
10572W        W74131  26.592  20.727  12.973
10573W        W74132  29.089  42.029  14.840
10574W        W74133  29.929  40.012   0.787
10575W        W74134  31.995  25.475  14.838
10576W        W74135  43.991  33.511   0.443
10577W        W74136  36.847  38.341   0.943
10578W        W74137  21.187  41.974   2.277
10579W        W74138  28.470  27.455   3.319
10580W        W74139  30.127  44.884  12.853
10581W        W74140  13.748   9.303  10.424
10582W        W74141  44.867   3.326  12.425
10583W        W74142  23.511  28.451  13.434
10584W        W74143  35.550  12.677   5.225
10585W        W74144  40.475  37.550   4.631
10586W        W74145  26.081   4.887   3.257
10587W        W74146  38.878  32.422   1.271
10588W        W74147   4.865  31.549   1.729
10589W        W74148  41.844  26.609  10.928
10590W        W74149  27.157  19.540  12.850
10591W        W74150  32.905   1.335  13.990
10592W        W74151  44.984  20.099  14.411
10593W        W74152  39.455  30.911  11.867
10594W        W74153   8.395  41.935  10.598
10595W        W74154   4.204  27.573   1.311
10596W        W74155  33.942   6.425  14.003
10597W        W74156  44.357  33.052  14.327
10598W        W74157  33.444   6.677   1.334
10599W        W74158  18.133  18.727  13.946
10600W        W74159   0.440  19.573   4.134
10601W        W74160  11.825  10.241  13.847
10602W        W74161  11.284  39.913  12.346
10603W        W74162   0.742  39.960  10.968
10604W        W74163  37.519  31.585   4.119
10605W        W74164  44.359  37.953  14.299
10606W        W74165  13.219  29.444  14.773
10607W        W74166  23.052   0.881   4.780
10608W        W74167   9.780  44.936   2.684
10609W        W74168  29.011  22.239  12.363
10610W        W74169  36.398   7.321  13.812
10611W        W74170  43.283  11.844  12.385
10612W        W74171  12.624  32.122  12.442
10613W        W74172  44.326  25.089  13.815
10614W        W74173  43.980  26.996   1.845
10615W        W74174  27.476  39.814  12.452
10616W        W74175  23.999  28.652   3.238
10617W        W74176  32.939  17.789   4.785
10618W        W74177  31.450  35.893   0.246
10619W        W74178   2.424   7.737  13.031
10620W        W74179  24.111  19.253   1.868
10621W        W74180  10.342   2.422  14.003
10622W        W74181  35.379  41.000   3.276
10623W        W74182  28.008  12.648  10.019
10624W        W74183  44.922  14.113  12.022
10625W        W74184  22.607  11.650   5.181
10626W        W74185  35.914  11.183   4.784
10627W        W74186  21.743   4.257  11.610
10628W        W74187  26.989  16.275  13.545
10629W        W74188  28.588  15.287   2.870
10630W        W74189  32.078  16.173  11.075
10631W        W74190   2.722  43.428  13.463
10632W        W74191   9.264  41.479  11.377
10633W        W74192  35.028  32.534   4.611
10634W        W74193  21.101  38.468   3.796
10635W        W74194   9.379  30.464   2.868
10636W        W74195  30.007  12.218   2.350
10637W        W74196  32.937  43.785  14.010
10638W        W74197   7.208  24.551   1.794
10639W        W74198  26.118  15.239   0.966
10640W        W74199  18.135   7.273  13.458
10641W        W74200   0.940   5.760   4.631
10642W        W74201   6.760   1.954  10.583
10643W        W74202  30.924   8.718   2.336
10644W        W74203  25.507   9.312   2.900
10645W        W74204  40.912  11.764   1.300
10646W        W74205  31.570  35.889  13.014
10647W        W74206  15.679  35.874   3.654
10648W        W74207   6.710  41.833   3.734
10649W        W74208  16.614  14.280  12.963
10650W        W74209  38.980  27.596   4.249
10651W        W74210  33.902  36.535  13.027
10652W        W74211  26.122  30.542   2.199
10653W        W74212  14.751  25.080  14.424
10654W        W74213  11.153  40.466  12.367
10655W        W74214  20.078  41.948   2.417
10656W        W74215  30.941  14.160   3.260
10657W        W74216  39.844  41.823  11.429
10658W        W74217  11.259  12.651   0.423
10659W        W74218   8.880  27.641   4.221
10660W        W74219  22.653   4.727   0.775
10661W        W74220  38.364   5.773  13.867
10662W        W74221  12.191  35.401   3.664
10663W        W74222  37.934  36.865   0.919
10664W        W74223  16.215   1.910  11.504
10665W        W74224  38.445   7.707   4.670
10666W        W74225  40.515  28.061   5.240
10667W        W74226  43.419  20.097  13.877
10668W        W74227  37.391  10.843   1.913
10669W        W74228   6.747  18.593   1.748
10670W        W74229  42.398  27.559   2.280
10671W        W74230  38.881  40.887   4.661
10672W        W74231  26.037  14.640  14.930
10673W        W74232  25.064  13.624  14.920
10674W        W74233  10.239  41.372   5.167
10675W        W74234   8.725  24.646  10.627
10676W        W74235  19.071  31.908  14.422
10677W        W74236  43.977   3.360   4.353
10678W        W74237  35.869  35.517  11.967
10679W        W74238   6.906  32.520   0.884
10680W        W74239  44.346   1.445   4.759
10681W        W74240  41.446  42.302   3.246
10682W        W74241  33.982  32.399  11.506
10683W        W74242   0.940   8.267   3.795
10684W        W74243  32.053   6.393  11.393
10685W        W74244  36.095  33.019  14.362
10686W        W74245   0.980  14.124   1.930
10687W        W74246  34.551  10.655   2.243
10688W        W74247  17.306  22.698  13.541
10689W        W74248  29.973  16.206   1.838
10690W        W74249  16.144   0.919  13.826
10691W        W74250   8.226   9.709   4.759
10692W        W74251  22.130  12.126   4.822
10693W        W74252  35.103  20.231   2.690
10694W        W74253   3.770   7.252   5.089
10695W        W74254  13.253  18.608   1.363
10696W        W74255  25.990  10.212  11.997
10697W        W74256  25.562   6.742  13.928
10698W        W74257  14.102   1.388   2.663
10699W        W74258   8.849  15.314   3.637
10700W        W74259   7.830  20.647  14.846
10701W        W74260  33.568  34.079  13.016
10702W        W74261  42.357  17.781  11.461
10703W        W74262  39.996  15.770   1.896
10704W        W74263   5.205  13.737  10.555
10705W        W74264  30.139  14.280  14.982
10706W        W74265  37.059  14.734   2.698
10707W        W74266  37.421   6.752   2.745
10708W        W74267  30.445  38.447  10.467
10709W        W74268  23.087  22.597   2.727
10710W        W74269  20.136  27.994   2.219
10711W        W74270  23.562  28.039  11.472
10712W        W74271   8.880  39.375   2.778
10713W        W74272  12.201  15.760   9.450
10714W        W74273  16.766   3.369   2.783
10715W        W74274   8.800  29.636  12.346
10716W        W74275  27.649  39.882   0.909
10717W        W74276  13.756  11.206   1.329
10718W        W74277  44.961  15.769   4.623
10719W        W74278  15.628   5.777  14.884
10720W        W74279  31.148  26.132   2.887
10721W        W74280  30.621  33.572   4.318
10722W        W74281  19.190  16.307   2.741
10723W        W74282  30.526   8.764   3.365
10724W        W74283  23.031  37.862   4.315
10725W        W74284  19.074  13.230   0.959
10726W        W74285  29.603  11.818  12.021
10727W        W74286  39.417  12.749  13.842
10728W        W74287  18.223  32.614   0.791
10729W        W74288  25.997   8.785   3.757
10730W        W74289  30.959   0.845   3.230
10731W        W74290  41.346   9.347   3.308
10732W        W74291   7.248   4.907  11.444
10733W        W74292  17.218  34.587  12.490
10734W        W74293  37.432  18.583  12.369
10735W        W74294   6.735  15.158   1.774
10736W        W74295  24.011   3.809   0.874
10737W        W74296  39.007   0.413   4.196
10738W        W74297  16.768  26.197   0.330
10739W        W74298   6.195  25.675  11.449
10740W        W74299  20.608  33.405   4.706
10741W        W74300  31.582  25.054   1.376
10742W        W74301  11.711  43.269   3.794
10743W        W74302   1.343  41.930   4.787
10744W        W74303  43.937  21.626  14.436
10745W        W74304  34.452  12.296   4.709
10746W        W74305  14.595  17.092   2.380
10747W        W74306  14.644   9.334   3.638
10748W        W74307  21.552   7.243   2.407
10749W        W74308   7.255  17.193  12.839
10750W        W74309   3.797  43.419  11.605
10751W        W74310  16.078  16.768  13.867
10752W        W74311  11.179  38.055   5.301
10753W        W74312  43.356   1.954   1.899
10754W        W74313  42.927  26.172   0.956
10755W        W74314  23.997   0.459  14.778
10756W        W74315  18.779  18.161  11.084
10757W        W74316  23.597  44.923  13.361
10758W        W74317   2.354  35.887  11.465
10759W        W74318   9.321  17.255  11.486
10760W        W74319  10.234   9.239  13.981
10761W        W74320   6.325   4.364   4.628
10762W        W74321  44.924   2.879  10.436
10763W        W74322  43.340  25.095   2.678
10764W        W74323  24.986  27.675   2.307
10765W        W74324   9.318  10.209  14.870
10766W        W74325   6.860  33.597   4.728
10767W        W74326  25.014  26.103   4.172
10768W        W74327  10.265  13.654  14.464
10769W        W74328  15.233  41.314  13.463
10770W        W74329  12.226  14.620  12.390
10771W        W74330  13.213  37.517  12.093
10772W        W74331  20.062  42.898  11.388
10773W        W74332  20.119  40.032   1.889
10774W        W74333  27.121   5.431   3.652
10775W        W74334  11.362  30.000   4.156
10776W        W74335   7.361  12.290   2.265
10777W        W74336  14.306  17.637  11.480
10778W        W74337  36.971  30.498  14.977
10779W        W74338   6.224  41.445   0.865
10780W        W74339  33.563  30.980   0.840
10781W        W74340  10.712  24.705   0.358
10782W        W74341  14.094   8.318  12.889
10783W        W74342   5.415  30.599  14.016
10784W        W74343   1.931  40.318   2.810
10785W        W74344  39.540  42.987  14.390
10786W        W74345  10.296   7.346  10.011
10787W        W74346  43.890  38.536  12.832
10788W        W74347  26.672  20.178   5.303
10789W        W74348  12.340  26.667   3.688
10790W        W74349  16.674  44.987   4.789
10791W        W74350  31.075  36.965  12.873
10792W        W74351  10.649  31.939   2.716
10793W        W74352  27.128   2.291   0.957
10794W        W74353  10.712  17.765  10.964
10795W        W74354  12.148  38.055   3.284
10796W        W74355  34.021   7.351   0.375
10797W        W74356  27.571   6.859  14.975
10798W        W74357  22.088   6.694   3.344
10799W        W74358  40.930  38.965   3.689
10800W        W74359  19.611  27.617   4.299
10801W        W74360  40.015  11.827  12.927
10802W        W74361   4.805  26.195   3.311
10803W        W74362  32.943  14.279   3.383
10804W        W74363  27.044  38.896  11.528
10805W        W74364  27.193  23.114   1.333
10806W        W74365   0.449  28.948   0.285
10807W        W74366  14.282  24.995   0.421
10808W        W74367   1.479  10.674  12.895
10809W        W74368  26.981   8.782   2.761
10810W        W74369  28.506  35.389   4.692
10811W        W74370  43.311  22.639   1.724
10812W        W74371  20.549   8.821  12.081
10813W        W74372  24.553   5.790  11.129
10814W        W74373   1.978  35.993  14.824
10815W        W74374  34.497  30.153  11.000
10816W        W74375  18.066  21.234   3.735
10817W        W74376  43.882   4.324  10.561
10818W        W74377  22.502  24.518   2.852
10819W        W74378  24.679  42.378   3.674
10820W        W74379  38.848  19.773  12.994
10821W        W74380  36.461  19.568   3.256
10822W        W74381   3.379  22.611   0.394
10823W        W74382  22.511   4.942   2.678
10824W        W74383  29.492  44.418  13.372
10825W        W74384  44.961  15.222   1.299
10826W        W74385  17.088   2.755  11.499
10827W        W74386  42.525  39.443   1.932
10828W        W74387   1.393  39.485   4.205
10829W        W74388  31.533  44.386  10.499
10830W        W74389  22.058   1.795  13.972
10831W        W74390  43.010   0.964  14.511
10832W        W74391  15.129  41.435  13.960
10833W        W74392  31.505  12.249   4.713
10834W        W74393  23.165  17.144  12.580
10835W        W74394  33.013  23.714   0.250
10836W        W74395  42.943   1.833   4.302
10837W        W74396  23.166  32.524   1.362
10838W        W74397   3.335  14.118   3.716
10839W        W74398  42.025  25.586  10.629
10840W        W74399   6.198  35.050   0.312
10841W        W74400  43.965  21.648   4.320
10842W        W74401  13.617  32.900  14.471
10843W        W74402  16.303  22.743   4.171
10844W        W74403  34.514   9.287  11.944
10845W        W74404  43.297  12.316   0.359
10846W        W74405  22.719  13.651   2.408
10847W        W74406  29.041  30.912   2.762
10848W        W74407  38.561  23.090  14.852
10849W        W74408   3.457  44.396  12.021
10850W        W74409   3.447  29.666  14.999
10851W        W74410  42.949  33.538   5.205
10852W        W74411  33.964  29.012  10.930
10853W        W74412  39.952  22.619  14.432
10854W        W74413  33.078  42.838  11.103
10855W        W74414  26.003  25.183  12.937
10856W        W74415  41.956  28.979   2.817
10857W        W74416   4.839  16.711  10.408
10858W        W74417  24.124  27.985  14.453
10859W        W74418  44.347  24.134   1.380
10860W        W74419  28.526  12.757   3.183
10861W        W74420  19.691  37.048   0.247
10862W        W74421  35.043   1.855  14.947
10863W        W74422  13.136   7.311  14.317
10864W        W74423  33.474  16.128  11.056
10865W        W74424   6.373  37.376  12.072
10866W        W74425  20.604  32.958  12.468
10867W        W74426  39.435   2.425  14.997
10868W        W74427  14.254  33.501  11.378
10869W        W74428  10.280  44.359   1.439
10870W        W74429   9.815  30.594   4.337
10871W        W74430   4.844  15.719  14.938
10872W        W74431  20.590  31.122  11.953
10873W        W74432  32.471  43.512  12.543
10874W        W74433  41.950  36.952  13.948
10875W        W74434  29.064  10.707   2.219
10876W        W74435  11.622  19.099   2.337
10877W        W74436  21.103  19.765  12.349
10878W        W74437  31.075   6.230  13.318
10879W        W74438  44.382  18.579  10.934
10880W        W74439  26.995  30.524   4.140
10881W        W74440  11.658   6.242   2.310
10882W        W74441  28.564  40.909   3.279
10883W        W74442  44.378  35.982  11.562
10884W        W74443  15.662  29.981   1.371
10885W        W74444  13.223  38.454  13.546
10886W        W74445  26.699   3.904  12.047
10887W        W74446  33.496   0.925   2.797
10888W        W74447  12.211   0.306  11.967
10889W        W74448  25.986   3.225   3.190
10890W        W74449  30.037  23.546   2.319
10891W        W74450  10.648  12.193   4.798
10892W        W74451  16.248   1.859   3.335
10893W        W74452   1.954  31.635   3.780
10894W        W74453  40.318  30.107  13.022
10895W        W74454  18.752  32.624  13.340
10896W        W74455  23.206  30.516  13.410
10897W        W74456  18.591  22.666  14.416
10898W        W74457   9.834  26.971  12.896
10899W        W74458  20.199  38.969   1.812
10900W        W74459  11.772  25.039  13.831
10901W        W74460  44.860  16.692   2.358
10902W        W74461  36.877   0.858  10.510
10903W        W74462   3.837  33.017   1.275
10904W        W74463  43.812  28.135   2.316
10905W        W74464  26.132  13.114   1.341
10906W        W74465  36.855   6.202   2.261
10907W        W74466   0.373   3.257  12.940
10908W        W74467  20.032  35.442  13.495
10909W        W74468  29.545  15.736  14.491
10910W        W74469  33.057  28.079   1.228
10911W        W74470  37.973  16.764   2.410
10912W        W74471  25.648   4.945   5.176
10913W        W74472  27.691  39.407   2.892
10914W        W74473  21.545  37.020   3.316
10915W        W74474  26.012  18.158  14.439
10916W        W74475   5.425  41.321  13.377
10917W        W74476  42.991  25.140   0.263
10918W        W74477  10.701  29.926  11.454
10919W        W74478  22.744  43.793  12.910
10920W        W74479   8.221  25.193  11.386
10921W        W74480  23.517  30.566  14.491
10922W        W74481   4.860  15.145   4.642
10923W        W74482  12.122  33.978   1.836
10924W        W74483  38.977  22.089  12.076
10925W        W74484  33.005  18.165   0.873
10926W        W74485   2.283  14.200   5.136
10927W        W74486   1.386  43.765   4.337
10928W        W74487  42.878  44.428   1.893
10929W        W74488   2.809  27.537  12.863
10930W        W74489  40.013  44.360  11.587
10931W        W74490  44.318   6.794  10.644
10932W        W74491  24.141  35.392  12.437
10933W        W74492   8.214  25.606  13.395
10934W        W74493  44.829  37.940  14.946
10935W        W74494  21.547  19.641  11.493
10936W        W74495  27.646  20.152  10.495
10937W        W74496  26.065  20.154  12.382
10938W        W74497  32.106   4.896   4.128
10939W        W74498  31.152  37.536   0.311
10940W        W74499  20.572   6.750   3.281
10941W        W74500   2.229  20.185   1.839
10942W        W74501   1.241  24.140   2.365
10943W        W74502  24.216  30.112   4.706
10944W        W74503  37.948  17.786   3.306
10945W        W74504  10.806   0.299   0.300
10946W        W74505  36.029  13.810  14.498
10947W        W74506  40.486  24.103   1.842
10948W        W74507  11.148  31.538   2.826
10949W        W74508  40.835  19.071   2.306
10950W        W74509  25.573   5.747  12.028
10951W        W74510  35.102  39.986  13.049
10952W        W74511  28.932  23.174  14.976
10953W        W74512  28.946  34.606   3.812
10954W        W74513  26.059   5.211  14.391
10955W        W74514  15.706  16.092   3.167
10956W        W74515  27.688  41.335  12.396
10957W        W74516  41.012  40.334  11.865
10958W        W74517  23.219   0.365   3.732
10959W        W74518   7.340  31.414   0.768
10960W        W74519  36.348  36.087   4.719
10961W        W74520  43.280  24.545   2.727
10962W        W74521   9.767  15.594   2.704
10963W        W74522  40.899  37.837   4.613
10964W        W74523  33.103  32.421  13.059
10965W        W74524   8.329  11.218   4.822
10966W        W74525   7.299  35.576  12.380
10967W        W74526  30.431  24.129  12.417
10968W        W74527   8.176  11.359  13.993
10969W        W74528   4.932  41.910   2.233
10970W        W74529  23.174  19.272   1.357
10971W        W74530  23.551  30.497  10.953
10972W        W74531  13.802  12.814  11.969
10973W        W74532   3.419  13.270  11.908
10974W        W74533  30.924  14.235  11.983
10975W        W74534   3.317  15.226   3.741
10976W        W74535  12.836  21.535  13.919
10977W        W74536  26.997  41.981   2.801
10978W        W74537  13.810   3.316  12.407
10979W        W74538   7.403  12.842   2.726
10980W        W74539  36.395   7.178  14.411
10981W        W74540  30.554  38.431  12.343
10982W        W74541  16.081  40.441  12.503
10983W        W74542  21.253  33.951   1.914
10984W        W74543  44.367  37.571   1.859
10985W        W74544  11.257  44.390  10.976
10986W        W74545   4.268  21.547  11.025
10987W        W74546  27.068   7.831   0.328
10988W        W74547  38.984  21.613  14.377
10989W        W74548  27.482  27.531   0.295
10990W        W74549  33.125  41.508  12.916
10991W        W74550   5.725  19.722  13.448
10992W        W74551  22.708   0.858  14.854
10993W        W74552  29.438  24.173   1.263
10994W        W74553  16.109  24.120   5.647
10995W        W74554  17.213   5.714  10.424
10996W        W74555  30.138  41.464  10.547
10997W        W74556  29.544  26.596  13.937
10998W        W74557  22.680   5.370  11.887
10999W        W74558  21.526  20.123  14.470
11000W        W74559   6.239   7.764  11.895
11001W        W74560  43.286  41.970  14.810
11002W        W74561  31.440  33.612   0.296
11003W        W74562  26.539  18.166   0.756
11004W        W74563  24.653  22.110  11.916
11005W        W74564  19.139  19.283   3.376
11006W        W74565  21.085  35.899   4.252
11007W        W74566  43.449  29.159   4.301
11008W        W74567  22.521   1.886  13.446
11009W        W74568   7.383   3.760  14.020
11010W        W74569  40.984  22.580  14.442
11011W        W74570  20.592  28.637   0.470
11012W        W74571  42.320  11.714  14.873
11013W        W74572  34.992  10.161  11.373
11014W        W74573  27.688  12.307   0.790
11015W        W74574  20.224  16.670   4.673
11016W        W74575  40.460  12.131   1.448
11017W        W74576   0.257  18.643   3.200
11018W        W74577   3.429   1.365  12.082
11019W        W74578  13.730   6.242   5.756
11020W        W74579  10.868  31.425   0.335
11021W        W74580   0.869  39.808  10.506
11022W        W74581  42.018   1.778   0.279
11023W        W74582  11.792  33.469   5.146
11024W        W74583  23.043   9.245   0.819
11025W        W74584  20.226  42.382   4.834
11026W        W74585  44.356  12.189  13.933
11027W        W74586  38.843  43.303   4.837
11028W        W74587  10.784  25.090   1.929
11029W        W74588  20.140   7.211   0.424
11030W        W74589  38.550  27.517   2.218
11031W        W74590  24.497  13.304  13.384
11032W        W74591  17.634  27.086  13.307
11033W        W74592   7.906  20.110  14.772
11034W        W74593  41.486  15.307   1.304
11035W        W74594  15.633  30.004  13.889
11036W        W74595   2.379  19.738   4.800
11037W        W74596  37.541  19.599  10.028
11038W        W74597  18.738   2.353  14.920
11039W        W74598  12.788  32.029   0.962
11040W        W74599  25.969  37.856  13.953
11041W        W74600   9.715  28.611  11.549
11042W        W74601  30.560  40.948   4.128
11043W        W74602  14.780   1.454   4.630
11044W        W74603  38.393  32.052   5.313
11045W        W74604  39.447  11.651  14.760
11046W        W74605  39.852  22.633   1.713
11047W        W74606  36.083  20.679  12.847
11048W        W74607  12.261  28.528   1.874
11049W        W74608  17.200   7.365  12.943
11050W        W74609  19.753   1.731  11.894
11051W        W74610  11.332  10.667  12.908
11052W        W74611   5.334  24.542   3.671
11053W        W74612  22.605  27.088   4.727
11054W        W74613  29.512   0.837   4.618
11055W        W74614   6.706  23.508   0.358
11056W        W74615  36.582  35.990  11.094
11057W        W74616   0.466  14.321   1.393
11058W        W74617  20.662  15.750   0.750
11059W        W74618  30.539   4.222  14.894
11060W        W74619   8.835  34.428  12.536
11061W        W74620  20.087   7.910   0.316
11062W        W74621  22.634   7.837   0.443
11063W        W74622  36.377  39.030   4.269
11064W        W74623  11.235  36.457   3.752
11065W        W74624  44.284  23.056  12.934
11066W        W74625  38.872  24.076   4.172
11067W        W74626  21.175  15.647  11.547
11068W        W74627  40.325  14.291  14.980
11069W        W74628  31.993  12.224   3.749
11070W        W74629   2.230  40.881   1.799
11071W        W74630  31.027  17.661  12.894
11072W        W74631  17.178  17.195   0.322
11073W        W74632  29.066  16.762  11.451
11074W        W74633  10.779   9.810   4.837
11075W        W74634  41.839  10.162   3.767
11076W        W74635  25.066   4.435   2.872
11077W        W74636  36.571   5.298   3.726
11078W        W74637   8.281  38.490   1.358
11079W        W74638  43.438  28.989  13.367
11080W        W74639  24.213  41.808  12.941
11081W        W74640  18.090  35.856   3.186
11082W        W74641  34.002   8.726  14.350
11083W        W74642  14.784  10.159  14.935
11084W        W74643  24.479  19.598  10.933
11085W        W74644  26.586   4.826   3.751
11086W        W74645   7.813  26.998   0.390
11087W        W74646  28.985   8.324   0.749
11088W        W74647  37.921  16.800  14.368
11089W        W74648  39.953  22.150  14.953
11090W        W74649  23.599  25.994  13.360
11091W        W74650  27.049   6.300   4.149
11092W        W74651   0.313  43.283  14.283
11093W        W74652   7.865  43.415   4.792
11094W        W74653   8.230   8.723  10.433
11095W        W74654  36.885  20.643   0.324
11096W        W74655  27.547   3.387  12.029
11097W        W74656  31.069  22.569  11.899
11098W        W74657  11.693  36.429  12.962
11099W        W74658  30.146  42.023  10.405
11100W        W74659  29.054   3.709  10.992
11101W        W74660  31.903  32.545  11.864
11102W        W74661  17.107  37.909   2.212
11103W        W74662   3.862  33.020  13.792
11104W        W74663   3.391   0.457   3.842
11105W        W74664  14.300   3.455  13.918
11106W        W74665  30.953  16.591  10.899
11107W        W74666  34.961  17.777  12.397
11108W        W74667   7.706  29.093   4.652
11109W        W74668  44.323  38.828  11.480
11110W        W74669  28.001  31.898   4.634
11111W        W74670  33.023   6.828  14.308
11112W        W74671  34.070   2.931   4.119
11113W        W74672  41.393  10.303   3.745
11114W        W74673   8.253  26.011   3.638
11115W        W74674  32.460  14.273   0.408
11116W        W74675  37.016  13.634  12.908
11117W        W74676  14.282  31.632  11.505
11118W        W74677  37.910  35.431   2.205
11119W        W74678  24.679   2.762   4.807
11120W        W74679  19.694  20.637  12.087
11121W        W74680   9.720  20.652  11.459
11122W        W74681  35.892  25.561   1.864
11123W        W74682   1.394  24.998   2.341
11124W        W74683  28.162  15.256   3.237
11125W        W74684   1.884  26.156  11.600
11126W        W74685  32.426  37.544   4.693
11127W        W74686  36.592  18.723  11.433
11128W        W74687  36.031  31.456  14.306
11129W        W74688  27.996   0.970   0.900
11130W        W74689   7.885  19.734   0.875
11131W        W74690  11.172  40.542   2.242
11132W        W74691  17.062   7.727   4.733
11133W        W74692  38.983   5.400   1.826
11134W        W74693  20.659  14.140   1.713
11135W        W74694  29.120   1.756   3.190
11136W        W74695  26.674  34.872   1.722
11137W        W74696  12.294  12.184   4.134
11138W        W74697  44.921  23.992   1.789
11139W        W74698   5.718  28.094   2.753
11140W        W74699  15.756  20.038   2.293
11141W        W74700  29.157  16.204   4.271
11142W        W74701  32.906  13.175   1.828
11143W        W74702   1.863  40.521  11.113
11144W        W74703  32.048  29.513   1.213
11145W        W74704  37.528  16.197  12.894
11146W        W74705   3.848  15.127  14.776
11147W        W74706  41.017  34.570   4.737
11148W        W74707  44.806  18.685  11.568
11149W        W74708  42.308  21.682  12.544
11150W        W74709   6.760  40.045  10.414
11151W        W74710  28.172  44.477   9.965
11152W        W74711   2.353   2.393   2.858
11153W        W74712  10.351   6.197  11.858
11154W        W74713  39.511  33.402  13.872
11155W        W74714   6.830  20.588  13.925
11156W        W74715  21.548  19.219   1.367
11157W        W74716  41.031   8.217  14.406
11158W        W74717  18.075   9.768   2.710
11159W        W74718  35.878  23.589  12.556
11160W        W74719   8.386   8.301   2.864
11161W        W74720  37.082   7.895   4.681
11162W        W74721  38.008  40.044   2.793
11163W        W74722   9.818  24.507  12.443
11164W        W74723   2.938  12.741  12.386
11165W        W74724  11.350  25.154   0.896
11166W        W74725  42.333  23.065  12.580
11167W        W74726  22.726  24.173  10.598
11168W        W74727  39.937  44.425   4.743
11169W        W74728   0.864   4.902  11.535
11170W        W74729  34.410  34.408   2.863
11171W        W74730  27.596   1.369   4.167
11172W        W74731  16.222  10.374  11.974
11173W        W74732  14.207  30.941   1.711
11174W        W74733  23.642  10.698   1.357
11175W        W74734  27.501  40.974   1.430
11176W        W74735   3.249  38.851   2.738
11177W        W74736  44.002  13.718  12.543
11178W        W74737  35.918  35.082   3.192
11179W        W74738  14.590  39.511   1.317
11180W        W74739  42.450   9.150   2.756
11181W        W74740  30.104  30.110   3.202
11182W        W74741  12.308  38.336   1.823
11183W        W74742  35.998  42.455  10.998
11184W        W74743  40.811  40.942   1.921
11185W        W74744   0.469  41.478  13.996
11186W        W74745  40.416  28.116  11.600
11187W        W74746  34.515  28.127  12.826
11188W        W74747  22.026  33.456   4.195
11189W        W74748  18.780  35.063   4.340
11190W        W74749   2.253  39.941  12.344
11191W        W74750  39.374  43.778  10.940
11192W        W74751  35.042  39.020  13.841
11193W        W74752   8.186  42.393  11.518
11194W        W74753  31.995  28.101  12.059
11195W        W74754   5.901  22.541   3.799
11196W        W74755  26.202  17.062  12.883
11197W        W74756  39.549  12.838   1.900
11198W        W74757   5.847  10.765   1.819
11199W        W74758  39.429  11.342  12.007
11200W        W74759   8.333  12.252  14.007
11201W        W74760  29.530  33.438   1.217
11202W        W74761   9.328  43.396  10.586
11203W        W74762  26.681  26.958  12.375
11204W        W74763  19.165  35.103  14.766
11205W        W74764   5.872  11.838   3.658
11206W        W74765  25.013   5.225  10.529
11207W        W74766  32.951  43.840  12.889
11208W        W74767  41.991  22.564   2.180
11209W        W74768  44.977  21.213  12.986
11210W        W74769  19.223   1.834   0.369
11211W        W74770  41.960  37.558   1.750
11212W        W74771  10.641  27.126   3.636
11213W        W74772   8.661   7.271   1.800
11214W        W74773  15.670  11.658   5.121
11215W        W74774  30.441  20.751   1.358
11216W        W74775  38.867  17.137  11.092
11217W        W74776  21.594  39.345   2.805
11218W        W74777  43.835  33.604  11.054
11219W        W74778  38.453  33.390   1.793
11220W        W74779  38.332  29.040  11.927
11221W        W74780  38.037  12.728   4.674
11222W        W74781  21.718  27.043   9.475
11223W        W74782   6.898  31.004  11.440
11224W        W74783  37.886  13.803   0.296
11225W        W74784  25.102   2.801  14.464
11226W        W74785  37.340  15.791   3.211
11227W        W74786  22.628   2.415  12.562
11228W        W74787  43.791  10.161   3.640
11229W        W74788  28.116   6.814  13.503
11230W        W74789  25.219  19.169   0.922
11231W        W74790  16.147  22.731   0.927
11232W        W74791  41.535  42.432  11.530
11233W        W74792  33.982   8.383   0.438
11234W        W74793  26.022  38.980  13.836
11235W        W74794  41.867  13.239   0.261
11236W        W74795   9.237  10.168  12.034
11237W        W74796  35.067  40.013  12.420
11238W        W74797  29.659  14.166  11.422
11239W        W74798   5.852  24.528   3.153
11240W        W74799  17.094  15.095  14.909
11241W        W74800  36.025  35.558   3.740
11242W        W74801  24.139   1.290  10.428
11243W        W74802  42.469  33.076  10.890
11244W        W74803   7.699  18.633   3.636
11245W        W74804  30.006  29.474  11.928
11246W        W74805  21.151  32.633  14.762
11247W        W74806   7.358  36.876   4.834
11248W        W74807   8.186  17.105  14.810
11249W        W74808   3.912  22.742   0.306
11250W        W74809  15.798   6.755  11.120
11251W        W74810  26.574  36.068  12.530
11252W        W74811  33.461  20.046   3.291
11253W        W74812  10.860  36.469   1.262
11254W        W74813  27.030   7.404   3.756
11255W        W74814   8.327  39.855   1.302
11256W        W74815  26.702  11.770   2.798
11257W        W74816  30.050  19.545   2.879
11258W        W74817   8.255  35.413   3.793
11259W        W74818  16.646  33.388  11.044
11260W        W74819  15.791   1.946   2.263
11261W        W74820  33.927  31.927   3.257
11262W        W74821  25.606  44.421  13.003
11263W        W74822  17.586  36.540   1.708
11264W        W74823  18.750  37.534  12.889
11265W        W74824  26.097   7.790   2.402
11266W        W74825  28.961  31.982   1.379
11267W        W74826  34.499  11.812   4.638
11268W        W74827  20.190  28.084  10.504
11269W        W74828   7.200  39.338  14.999
11270W        W74829  43.509  20.719   2.409
11271W        W74830  39.500  14.150   2.873
11272W        W74831  10.273  27.193   0.397
11273W        W74832  14.777  27.089   5.784
11274W        W74833  26.070   2.288   2.693
11275W        W74834  29.955  39.414   1.838
11276W        W74835  14.334  14.598  10.457
11277W        W74836  15.283   8.260   5.762
11278W        W74837  28.499  19.740  12.545
11279W        W74838   9.686   4.214  10.535
11280W        W74839  40.887   9.252  11.489
11281W        W74840  36.520   6.279   1.373
11282W        W74841  39.062  40.540  11.408
11283W        W74842  36.377  12.182   3.210
11284W        W74843  41.339  34.069   0.822
11285W        W74844  13.794  18.142   4.303
11286W        W74845  41.815  20.709   1.758
11287W        W74846  41.970   0.778  14.476
11288W        W74847  30.576  21.673   2.251
11289W        W74848  37.474   9.854   2.387
11290W        W74849  11.147   7.362  10.491
11291W        W74850  32.435   1.886  11.110
11292W        W74851  23.593  39.992   0.729
11293W        W74852  37.931  34.095   4.202
11294W        W74853  42.307   1.394  14.479
11295W        W74854   3.747  35.545  12.054
11296W        W74855  25.643  24.492  12.065
11297W        W74856   2.428  41.442   3.819
11298W        W74857  10.289  30.972  12.976
11299W        W74858  36.897  27.043   0.392
11300W        W74859  38.006  41.345   4.613
11301W        W74860  44.495   5.791  14.811
11302W        W74861   1.399  35.505  14.786
11303W        W74862  21.523  30.152  13.482
11304W        W74863  18.697  20.095  11.452
11305W        W74864  26.482  12.158   2.179
11306W        W74865   0.455   8.839   4.166
11307W        W74866  25.148  13.666  14.371
11308W        W74867  20.265  25.489   2.358
11309W        W74868   5.282  10.669   1.292
11310W        W74869  32.991  17.607   0.928
11311W        W74870  38.515  11.275  12.955
11312W        W74871  14.225   1.936   0.413
11313W        W74872  14.775   9.685   3.268
11314W        W74873   4.364  12.250   0.278
11315W        W74874  31.075  32.971   4.674
11316W        W74875  36.916  41.471   2.198
11317W        W74876  32.096  42.355  14.514
11318W        W74877   4.343  44.909   4.164
11319W        W74878  30.078  26.538  13.063
11320W        W74879   0.852  43.400  10.548
11321W        W74880  20.623   8.889   0.420
11322W        W74881  43.792  13.263   2.792
11323W        W74882  36.369  18.208  11.073
11324W        W74883  13.820   6.211  13.391
11325W        W74884  10.855  19.171   4.315
11326W        W74885  16.221  11.338  12.075
11327W        W74886  43.007   7.833   2.408
11328W        W74887  38.892  39.543   3.335
11329W        W74888  15.137  19.569   3.789
11330W        W74889  32.574  16.715  13.320
11331W        W74890  22.128   5.934  12.538
11332W        W74891  41.387  23.640  12.476
11333W        W74892  32.929  38.443  12.864
11334W        W74893  42.913  39.484  13.481
11335W        W74894   8.818  35.466   5.750
11336W        W74895  39.059   7.302   2.333
11337W        W74896   8.805  31.026   3.777
11338W        W74897   1.331   7.849  14.406
11339W        W74898  13.303  34.012  10.620
11340W        W74899  31.578   5.760  13.429
11341W        W74900  43.495   2.407   2.304
11342W        W74901  15.685  32.520  13.848
11343W        W74902   2.442   0.979   2.289
11344W        W74903  41.297  42.336  10.498
11345W        W74904  28.079  36.426   0.806
11346W        W74905  24.094  36.491   2.730
11347W        W74906  17.259   2.783  13.050
11348W        W74907   4.878  37.994   3.861
11349W        W74908  20.702  15.596   3.182
11350W        W74909  13.278  18.146   1.221
11351W        W74910  13.155  36.043   0.482
11352W        W74911  16.731  36.546   3.752
11353W        W74912   0.305  14.267   0.354
11354W        W74913  12.639   1.356   0.844
11355W        W74914   0.981  25.143   4.789
11356W        W74915  30.011  11.312  14.465
11357W        W74916  34.948  36.394   2.748
11358W        W74917  22.157  43.021  14.371
11359W        W74918  23.149   5.213   3.749
11360W        W74919  44.845  15.680  11.067
11361W        W74920  35.930  23.004  10.567
11362W        W74921   6.262  19.197   0.386
11363W        W74922  29.162  15.790   3.199
11364W        W74923  31.937  20.146   4.706
11365W        W74924   8.401  31.043  13.515
11366W        W74925  36.935   6.872  14.884
11367W        W74926  38.370  38.819   1.420
11368W        W74927   2.346  11.238   3.332
11369W        W74928  14.744  17.706   3.803
11370W        W74929  44.773  22.143  13.367
11371W        W74930  25.499  19.778  10.091
11372W        W74931  26.993  12.295   1.819
11373W        W74932  16.748   3.928   2.892
11374W        W74933  40.808  12.622  13.405
11375W        W74934  18.570  43.933   2.793
11376W        W74935  20.551  34.976  12.388
11377W        W74936  21.131  44.395   2.352
11378W        W74937   8.729  26.003   2.868
11379W        W74938  20.263  43.849   4.677
11380W        W74939  36.520  15.296  14.972
11381W        W74940  12.816  20.120   2.877
11382W        W74941  28.968  44.363   4.174
11383W        W74942   3.888   9.721  12.843
11384W        W74943  40.400  23.110  13.798
11385W        W74944  35.474  18.212  14.370
11386W        W74945   2.873  18.681  10.445
11387W        W74946  26.032  42.972  13.545
11388W        W74947  19.719   4.798  13.446
11389W        W74948  35.589  27.128  14.463
11390W        W74949  35.947  41.907   4.752
11391W        W74950  11.678  31.604  13.935
11392W        W74951  34.383  44.349   0.835
11393W        W74952  25.169   6.376   2.872
11394W        W74953  41.452  13.190  11.067
11395W        W74954   2.438  44.952  11.984
11396W        W74955   4.340   5.877   3.220
11397W        W74956  22.157  37.923  11.921
11398W        W74957   3.261  38.821   3.677
11399W        W74958  37.928  35.027   1.262
11400W        W74959  14.604  18.118  12.960
11401W        W74960  22.536   3.753  13.532
11402W        W74961  24.720  43.363   4.827
11403W        W74962   4.306   7.274   2.376
11404W        W74963  14.800  13.257   0.834
11405W        W74964  40.448  43.395   3.758
11406W        W74965   6.331   2.804  13.396
11407W        W74966   1.252  30.433  13.537
11408W        W74967  24.535  37.002  14.806
11409W        W74968   9.188  40.533   0.331
11410W        W74969  20.127  12.752  12.341
11411W        W74970  31.495  35.460  13.000
11412W        W74971  14.099   5.194   2.836
11413W        W74972  44.385  20.112   1.731
11414W        W74973  26.977  26.043   0.778
11415W        W74974  16.110  21.152   1.327
11416W        W74975  36.515  18.558   4.125
11417W        W74976  17.280  32.995  11.101
11418W        W74977  18.059   9.675  10.976
11419W        W74978   8.815  33.568   4.766
11420W        W74979   2.262  11.697  14.879
11421W        W74980   2.242  18.672  13.795
11422W        W74981  29.491  30.517  12.500
11423W        W74982   4.711  41.486   1.290
11424W        W74983  27.964  28.075   3.301
11425W        W74984  23.577   7.281  11.520
11426W        W74985  13.811  28.598  12.880
11427W        W74986   5.862  42.001   4.796
11428W        W74987  19.104  11.128   4.733
11429W        W74988  21.755  38.003   0.939
11430W        W74989  44.315  36.360  12.510
11431W        W74990  25.538  18.666  10.433
11432W        W74991  42.026  23.044   1.917
11433W        W74992  14.828  26.460  11.096
11434W        W74993  29.559  26.020  14.006
11435W        W74994  27.003  37.578   1.380
11436W        W74995   0.403  38.510   0.815
11437W        W74996   3.911  36.919  14.401
11438W        W74997  28.937  44.311  10.641
11439W        W74998  24.986   6.815   2.873
11440W        W74999  43.810   8.227  13.859
11441W        W75000  15.181  19.590  14.476
11442W        W75001  33.497  38.445  10.900
11443W        W75002   4.244  31.084  12.867
11444W        W75003   9.344  19.646   9.981
11445W        W75004  15.651   3.926   0.764
11446W        W75005  40.980  21.697   3.833
11447W        W75006  31.022  24.501  12.545
11448W        W75007  39.544  28.599   4.757
11449W        W75008   4.924  41.839  14.462
11450W        W75009  32.428  25.041   0.372
11451W        W75010   6.369  36.451  14.299
11452W        W75011  13.170  20.621   3.343
11453W        W75012  24.022  10.248  11.048
11454W        W75013  42.786   8.757   1.211
11455W        W75014  44.954   8.860   3.349
11456W        W75015  41.900   7.809   0.887
11457W        W75016  33.539  22.174   4.789
11458W        W75017  11.248   3.327   3.369
11459W        W75018  40.053  41.927   1.930
11460W        W75019  12.676  36.867  13.507
11461W        W75020  19.742  13.658   4.690
11462W        W75021  41.995   6.401   3.822
11463W        W75022   7.262  15.157  14.283
11464W        W75023  24.096  22.509   2.224
11465W        W75024  29.993  29.151  10.518
11466W        W75025  21.253  33.594   2.684
11467W        W75026  18.150  34.457  10.953
11468W        W75027  25.520  26.540   4.718
11469W        W75028  32.438   1.477   2.385
11470W        W75029  37.060   4.206   1.290
11471W        W75030  14.138  29.047   0.252
11472W        W75031  13.829  13.123   4.163
11473W        W75032  38.508  42.896   3.173
11474W        W75033   2.910  28.648  14.387
11475W        W75034  36.431  25.700  10.478
11476W        W75035  29.988  42.805  12.498
11477W        W75036   7.226  35.445   2.793
11478W        W75037  20.655  20.688   2.864
11479W        W75038  37.554  10.855   9.628
11480W        W75039  30.615  11.860   1.852
11481W        W75040   9.815  14.271  14.439
11482W        W75041  19.040  35.930  13.455
11483W        W75042  30.439  39.499  13.374
11484W        W75043  41.465  43.354  13.373
11485W        W75044  35.464   7.871   0.879
11486W        W75045   6.195   4.835  12.841
11487W        W75046   9.391  29.949  14.761
11488W        W75047  12.163  10.310   2.231
11489W        W75048  44.450  19.634   2.814
11490W        W75049  16.301   4.753   1.736
11491W        W75050  41.325  11.759  11.867
11492W        W75051  15.124  20.031   0.831
11493W        W75052   4.847  28.037  10.534
11494W        W75053  38.985  35.984  12.855
11495W        W75054   1.434  40.829  12.966
11496W        W75055  24.523  20.053   2.804
11497W        W75056   5.921   4.721  14.759
11498W        W75057   1.955  15.323   1.696
11499W        W75058  44.306  30.480   0.295
11500W        W75059  36.887   9.806  10.070
11501W        W75060  17.150  37.497  12.463
11502W        W75061  16.097  35.937   3.680
11503W        W75062  19.569   9.230   1.211
11504W        W75063   8.181  25.218   0.802
11505W        W75064  40.391   3.258   4.246
11506W        W75065  15.817  25.668  11.406
11507W        W75066  33.461  35.604  10.910
11508W        W75067  18.156  27.652   2.348
11509W        W75068  19.534  24.608  10.957
11510W        W75069  35.433  30.988   2.835
11511W        W75070   6.189  39.395   2.373
11512W        W75071  20.213  32.622  11.987
11513W        W75072   0.884  41.925   0.919
11514W        W75073  37.505  36.906  11.013
11515W        W75074  12.246  22.215  10.498
11516W        W75075  28.068   8.359  12.402
11517W        W75076  15.153  32.420   0.326
11518W        W75077   8.360   2.318  12.897
11519W        W75078  35.411  41.477  13.445
11520W        W75079  25.108  36.557  13.825
11521W        W75080  21.213  16.123  10.991
11522W        W75081  12.710  41.481  14.479
11523W        W75082  42.405  13.682   2.255
11524W        W75083  32.562   8.232   2.882
11525W        W75084  33.995  20.266   1.919
11526W        W75085  11.673  10.252  12.858
11527W        W75086  35.402   3.838  13.038
11528W        W75087  24.485  28.178   4.259
11529W        W75088  19.534  29.486  11.566
11530W        W75089  44.442  22.640  12.397
11531W        W75090  44.809   2.866  14.927
11532W        W75091  39.846   8.283   1.840
11533W        W75092  27.610   7.683  13.003
11534W        W75093  18.111   9.222   3.833
11535W        W75094  43.382  19.267   1.859
11536W        W75095  10.198  16.291   2.750
11537W        W75096  24.019  32.500   4.775
11538W        W75097  23.699  14.100   0.321
11539W        W75098   9.689  15.315  13.438
11540W        W75099   4.312  18.254   1.817
11541W        W75100  37.896  15.194  14.813
11542W        W75101   7.283  41.808   0.295
11543W        W75102   3.252  29.469  11.575
11544W        W75103  23.998  36.081   1.923
11545W        W75104  43.903  40.820   3.664
11546W        W75105  37.544  35.386   4.278
11547W        W75106  42.482  11.785   1.870
11548W        W75107   2.254  14.678   1.707
11549W        W75108   2.462  15.114   3.301
11550W        W75109  38.905  18.135   0.904
11551W        W75110  26.644  23.561   0.747
11552W        W75111  29.503  20.559   2.241
11553W        W75112  30.034  38.537   0.836
11554W        W75113   4.881  25.054  14.774
11555W        W75114  18.580   9.872  13.393
11556W        W75115  29.507  39.985   3.361
11557W        W75116  13.786  20.684   4.139
11558W        W75117  44.856  33.127   3.808
11559W        W75118  27.605  40.406  14.446
11560W        W75119  26.571  34.019  11.589
11561W        W75120  17.138  23.613   0.420
11562W        W75121  38.403  24.511   2.888
11563W        W75122  42.014  17.616   0.750
11564W        W75123  40.456  29.962  11.439
11565W        W75124  27.955  38.359  13.433
11566W        W75125  42.361  27.579  13.307
11567W        W75126  34.964   2.729  10.441
11568W        W75127  13.720  41.436  13.473
11569W        W75128  35.592  11.257  14.955
11570W        W75129  34.993   3.338   4.658
11571W        W75130  31.066  15.314  14.277
11572W        W75131  38.065  17.082  10.925
11573W        W75132   8.759   9.156  14.888
11574W        W75133  33.043  44.450  11.461
11575W        W75134  25.514  34.397   0.328
11576W        W75135  20.121  25.510  13.017
11577W        W75136  13.316  12.144   1.733
11578W        W75137  23.222  14.242  13.878
11579W        W75138  11.636  29.475   3.805
11580W        W75139   6.212  13.741  14.934
11581W        W75140  40.489  25.506  13.892
11582W        W75141  36.080  20.591   0.284
11583W        W75142  24.623  35.378   3.763
11584W        W75143  18.746  31.457  13.864
11585W        W75144  12.175  33.056   0.483
11586W        W75145  32.484   1.789   2.680
11587W        W75146  30.949   8.717   0.391
11588W        W75147   5.866   3.731   4.214
11589W        W75148  26.110  11.350  12.087
11590W        W75149  43.417  24.996  10.557
11591W        W75150  32.399  21.058   2.833
11592W        W75151  21.250  40.862   4.677
11593W        W75152  13.757  40.043  10.408
11594W        W75153  36.476  39.021   4.672
11595W        W75154  10.813   3.265  14.943
11596W        W75155  19.117   5.222   1.338
11597W        W75156   9.268   0.787   1.442
11598W        W75157  39.839  14.772   1.428
11599W        W75158   1.448  41.848  11.436
11600W        W75159  23.674  23.637  12.855
11601W        W75160  27.957  33.073  13.875
11602W        W75161  28.675  25.063  10.544
11603W        W75162  16.261   3.238   2.303
11604W        W75163  16.772  10.352   3.653
11605W        W75164  29.622   1.346  13.024
11606W        W75165  14.272  21.102  14.780
11607W        W75166   0.456   6.901  13.395
11608W        W75167   4.395   4.781  11.081
11609W        W75168  42.979  42.474   0.306
11610W        W75169  25.648   7.284   2.888
11611W        W75170   4.424  14.283  10.964
11612W        W75171  32.936  10.337  11.894
11613W        W75172  25.100   3.731  12.379
11614W        W75173  18.593  25.696  11.452
11615W        W75174  17.104  25.117   0.914
11616W        W75175  44.490  43.885  11.542
11617W        W75176   9.777  10.269   0.869
11618W        W75177  15.273   5.235   2.675
11619W        W75178  26.459  23.190  11.091
11620W        W75179  27.451  43.393  14.011
11621W        W75180  12.857  17.634  14.856
11622W        W75181  40.855  42.423   1.892
11623W        W75182  44.317   4.279   1.926
11624W        W75183  35.371  40.441   0.391
11625W        W75184   6.306  26.995  13.901
11626W        W75185   6.815  14.603  13.979
11627W        W75186  13.664  16.295  10.991
11628W        W75187  17.126  40.052  10.077
11629W        W75188  12.694  29.510  12.496
11630W        W75189  41.337   1.325  14.011
11631W        W75190  15.312  35.980  12.986
11632W        W75191  26.550  36.014  11.424
11633W        W75192   5.800  38.916  10.612
11634W        W75193  44.775  21.251   3.701
11635W        W75194  37.532   6.812  13.396
11636W        W75195  36.534  25.596  13.826
11637W        W75196  14.297  38.396   1.843
11638W        W75197  23.621  15.275  13.020
11639W        W75198   2.343  21.038   1.827
11640W        W75199  20.763  15.711  12.522
11641W        W75200  34.076  17.575   2.212
11642W        W75201  15.105   0.413   0.754
11643W        W75202  38.074  19.562  14.822
11644W        W75203   4.407  12.853  14.785
11645W        W75204   6.901  42.309  10.897
11646W        W75205  37.478   5.874  11.941
11647W        W75206  37.935  33.099   1.267
11648W        W75207  13.248  44.405   2.319
11649W        W75208  10.701   4.314   1.785
11650W        W75209  36.583   1.956   0.834
11651W        W75210   0.372  15.668   2.731
11652W        W75211   6.237  24.096   3.385
11653W        W75212  18.246   0.823   3.245
11654W        W75213  30.142  15.700   1.280
11655W        W75214  33.937   4.439   4.303
11656W        W75215  25.211  11.868  13.369
11657W        W75216  20.260  12.849  10.080
11658W        W75217  21.205  39.868  13.794
11659W        W75218  24.505  33.541  12.827
11660W        W75219  30.012  15.582  14.929
11661W        W75220   7.369   6.321   1.870
11662W        W75221  36.370  13.811  12.053
11663W        W75222  30.601  26.501   3.711
11664W        W75223  32.923  35.993   3.639
11665W        W75224  41.005   4.247   1.887
11666W        W75225  19.164  12.813   2.780
11667W        W75226  44.423  14.314  11.960
11668W        W75227  28.601  23.554   1.709
11669W        W75228  23.016  21.721   3.716
11670W        W75229  33.501  10.159  13.891
11671W        W75230   5.864  17.224   4.325
11672W        W75231   4.379  19.609  13.920
11673W        W75232  34.485  33.936  11.998
11674W        W75233  15.227  38.937  11.877
11675W        W75234  23.080  15.619  13.898
11676W        W75235  22.134  19.568  11.590
11677W        W75236  42.925   8.705  12.036
11678W        W75237  30.092   6.206  13.398
11679W        W75238  26.179   8.340  13.517
11680W        W75239  14.163  16.637  12.876
11681W        W75240  15.637  15.192   0.745
11682W        W75241  29.585  43.357   3.718
11683W        W75242  13.339   3.795  11.519
11684W        W75243   2.421  41.428  10.559
11685W        W75244  14.816  17.643   2.727
11686W        W75245  40.420   2.413   3.653
11687W        W75246  31.626  37.954   4.259
11688W        W75247  44.316  16.175   2.194
11689W        W75248  15.182  44.421   3.356
11690W        W75249  20.737  23.240   4.603
11691W        W75250  12.208  37.027  13.334
11692W        W75251  38.549   7.317  13.017
11693W        W75252  22.669  21.022  11.516
11694W        W75253  39.463  43.882  13.028
11695W        W75254  31.912  12.190   1.276
11696W        W75255  38.896  44.761   1.229
11697W        W75256   2.376  23.100  12.353
11698W        W75257  31.405  40.880   1.310
11699W        W75258  31.457  10.792   5.651
11700W        W75259  38.416  35.586  11.888
11701W        W75260   7.706   2.740  13.885
11702W        W75261  27.623  41.830   2.719
11703W        W75262  33.580  38.897   3.844
11704W        W75263  21.045  26.512   0.846
11705W        W75264  36.969  38.863  12.437
11706W        W75265  27.568  19.069   1.415
11707W        W75266  34.901  29.127  12.545
11708W        W75267  33.391  29.974   1.246
11709W        W75268  15.715   5.295  13.852
11710W        W75269   3.334  12.719  11.394
11711W        W75270  31.434  18.578   0.728
11712W        W75271  37.982  21.035  12.429
11713W        W75272  42.310  33.945  14.449
11714W        W75273  21.619  26.146  14.002
11715W        W75274  40.026   1.840   4.264
11716W        W75275  13.648  10.202   2.404
11717W        W75276  29.571  39.054  12.934
11718W        W75277  13.301  43.435   1.929
11719W        W75278  44.954   6.370  13.967
11720W        W75279   3.264  35.009   4.231
11721W        W75280  22.689  43.403  11.064
11722W        W75281  30.132  27.472   2.239
11723W        W75282  20.597   8.344  11.485
11724W        W75283  25.626  43.320  11.560
11725W        W75284   2.917  40.916   3.174
11726W        W75285  13.806  40.912   1.852
11727W        W75286  20.590  29.968   3.329
11728W        W75287  32.112  22.664   3.633
11729W        W75288  14.117  22.051   1.855
11730W        W75289  22.187  35.540   1.275
11731W        W75290   0.274  20.103  11.924
11732W        W75291   6.816  26.499   1.880
11733W        W75292   6.908   4.318  13.968
11734W        W75293  36.058   8.311  12.482
11735W        W75294   8.187  17.177   2.866
11736W        W75295  28.098  32.436  11.481
11737W        W75296  26.543  12.757  11.591
11738W        W75297   5.382  16.221  11.606
11739W        W75298  22.196  33.600   0.760
11740W        W75299  21.109  13.183   4.734
11741W        W75300  38.929  36.581   0.465
11742W        W75301  15.798  21.173  11.395
11743W        W75302  10.742  25.496   4.157
11744W        W75303  16.715  29.497   2.755
11745W        W75304  40.804   5.347  11.913
11746W        W75305   9.750  17.077   5.225
11747W        W75306   0.838   7.215  12.050
11748W        W75307  39.861  36.507   0.832
11749W        W75308   6.812  36.026  12.009
11750W        W75309  26.692  24.663  13.324
11751W        W75310  23.063  41.902   1.353
11752W        W75311  22.732  26.470   5.223
11753W        W75312   6.907  20.215  11.954
11754W        W75313  30.633  28.099   3.856
11755W        W75314   4.747  37.338  11.596
11756W        W75315  40.888   7.719  14.499
11757W        W75316  22.244  15.267  12.951
11758W        W75317  36.929  35.875   3.246
11759W        W75318  16.260  38.341  12.475
11760W        W75319  37.043   7.706   4.227
11761W        W75320  12.655  20.241  11.515
11762W        W75321  31.637  36.425   4.817
11763W        W75322  35.439  24.143  14.760
11764W        W75323   5.313  25.690  13.062
11765W        W75324  31.064   8.304   4.652
11766W        W75325   3.916   6.723  10.545
11767W        W75326  40.539  29.172   1.899
11768W        W75327  21.227  34.983  12.482
11769W        W75328  40.854  31.545  12.401
11770W        W75329  39.001  29.670   2.783
11771W        W75330  44.320  10.877  14.352
11772W        W75331   0.472  36.521   1.299
11773W        W75332  33.982  40.046   3.794
11774W        W75333   2.387  13.122   4.261
11775W        W75334  40.938   6.827   2.271
11776W        W75335  22.046  25.474   1.294
11777W        W75336   9.247  24.050   3.274
11778W        W75337  28.613  28.494   3.148
11779W        W75338   0.366  38.920   4.666
11780W        W75339  25.097   1.831  11.501
11781W        W75340  31.949  25.056  10.026
11782W        W75341   4.446  10.239  12.573
11783W        W75342  12.230   7.204  14.960
11784W        W75343  39.054  30.640   2.867
11785W        W75344  42.957  41.492   1.425
11786W        W75345  37.939  38.394  10.611
11787W        W75346  12.838  15.184   2.341
11788W        W75347  12.706  15.225  14.903
11789W        W75348  18.179  16.181  12.910
11790W        W75349  43.814   8.205   1.406
11791W        W75350  32.591  24.538  14.927
11792W        W75351  13.785   7.804  12.375
11793W        W75352  21.105  12.335   1.760
11794W        W75353   1.431   8.187   1.907
11795W        W75354  31.428  11.128  11.605
11796W        W75355  27.571  43.989   2.680
11797W        W75356   1.768  21.101  12.392
11798W        W75357  32.076  36.911  14.470
11799W        W75358  44.265  40.934   4.723
11800W        W75359  16.190  34.395   1.306
11801W        W75360  18.761   5.931   0.413
11802W        W75361  14.753  41.355   2.245
11803W        W75362   0.891  22.229  11.054
11804W        W75363  39.386  39.823  13.350
11805W        W75364   2.862  13.733  11.029
11806W        W75365  31.428  20.611  11.063
11807W        W75366  32.062  38.333   1.266
11808W        W75367  12.218  17.207  12.876
11809W        W75368   3.720  32.549  11.445
11810W        W75369  31.913  31.109   0.767
11811W        W75370  40.337  23.541  14.962
11812W        W75371   9.247  41.991  11.552
11813W        W75372  10.216  36.454   0.308
11814W        W75373  37.556  24.128  14.000
11815W        W75374  33.517   2.313   2.888
11816W        W75375   6.680  40.909  10.992
11817W        W75376  29.618   1.757  14.969
11818W        W75377  15.240  40.483   2.743
11819W        W75378  31.426   2.235   1.402
11820W        W75379   1.343  18.650   3.804
11821W        W75380  23.056   9.826  10.521
11822W        W75381   7.390   5.419   2.732
11823W        W75382  41.503  27.482   3.648
11824W        W75383   5.222  14.764  13.930
11825W        W75384  23.989  32.123  14.800
11826W        W75385   9.878  43.470  12.494
11827W        W75386  33.934  25.486  12.503
11828W        W75387   4.413  17.781   4.301
11829W        W75388  40.402  42.003  11.402
11830W        W75389  29.118  40.951   4.779
11831W        W75390  17.611  11.219  11.012
11832W        W75391  42.284  40.461  13.813
11833W        W75392  42.481  16.228  12.394
11834W        W75393  28.980  20.668  13.353
11835W        W75394  21.092  41.034   4.350
11836W        W75395  40.531  42.391  13.503
11837W        W75396  13.327  18.081   4.161
11838W        W75397  28.547   3.930  10.520
11839W        W75398   9.649  32.557   1.324
11840W        W75399  29.567  28.573  11.081
11841W        W75400  19.187  27.508   5.319
11842W        W75401  43.790  11.279  11.992
11843W        W75402  41.035  23.061   1.219
11844W        W75403  18.282  20.744   2.792
11845W        W75404  13.640   3.414   4.824
11846W        W75405  28.961   3.450   3.805
11847W        W75406   8.665  18.668  10.502
11848W        W75407  37.977  41.507  11.500
11849W        W75408  31.614   2.414   2.785
11850W        W75409  40.443  19.237  10.431
11851W        W75410  34.022  24.513  13.524
11852W        W75411  21.263  39.512   1.441
11853W        W75412   1.332  38.962  12.019
11854W        W75413  25.099   9.829  11.978
11855W        W75414   8.191  41.989  10.927
11856W        W75415  15.661  13.784  13.966
11857W        W75416   6.806  11.664  12.401
11858W        W75417  43.505  13.273  13.321
11859W        W75418  29.032   7.736  13.050
11860W        W75419  28.159  37.913  13.957
11861W        W75420  10.336  10.738   4.347
11862W        W75421  42.490  22.050   3.870
11863W        W75422  14.305   0.975  12.001
11864W        W75423  28.028  10.796   0.769
11865W        W75424  18.189  14.633  12.968
11866W        W75425  27.041  26.591   2.710
11867W        W75426  38.830  11.807  13.520
11868W        W75427  35.107  41.811   2.315
11869W        W75428  26.516   1.301  11.515
11870W        W75429  17.211  19.233   0.898
11871W        W75430  12.772   9.673  13.943
11872W        W75431   9.873  23.126   4.668
11873W        W75432   5.333  30.914  10.499
11874W        W75433  17.684  39.557   2.241
11875W        W75434   6.223   9.867  13.318
11876W        W75435  43.987  29.532  12.089
11877W        W75436  31.424  43.856  12.382
11878W        W75437  19.076  40.006  13.390
11879W        W75438  16.799  15.191  12.881
11880W        W75439  10.762   9.255  13.499
11881W        W75440   6.788   3.754  11.499
11882W        W75441  16.676  44.396  10.986
11883W        W75442   5.908  33.103   3.774
11884W        W75443  18.257  15.099   4.304
11885W        W75444  19.714   0.919  11.504
11886W        W75445  27.007  14.751   3.819
11887W        W75446   8.345  20.201  14.775
11888W        W75447  43.863   0.941   0.859
11889W        W75448   4.711  19.775  13.429
11890W        W75449  28.642  44.304  14.412
11891W        W75450  44.285  27.613  14.878
11892W        W75451  21.588  24.176   2.890
11893W        W75452  20.707  15.236  14.899
11894W        W75453   5.294  44.963  11.968
11895W        W75454  32.460  40.932  10.405
11896W        W75455  20.155  23.135   2.261
11897W        W75456  21.147  36.048  11.551
11898W        W75457  21.647  44.906  10.407
11899W        W75458   7.324  44.380   2.279
11900W        W75459  18.589  23.181  14.944
11901W        W75460  30.091  39.006  13.420
11902W        W75461  32.055  21.721  11.044
11903W        W75462  11.165  10.271   4.629
11904W        W75463  39.893   8.778  13.357
11905W        W75464  34.931   2.947   4.329
11906W        W75465  40.515   5.437   2.844
11907W        W75466  42.799  11.355   2.716
11908W        W75467  36.443  26.102   2.687
11909W        W75468  29.033   9.749   2.275
11910W        W75469  35.868  41.523   0.430
11911W        W75470  27.028  38.388  13.840
11912W        W75471  23.549  42.500  12.359
11913W        W75472  23.501  28.040   3.305
11914W        W75473  17.675  20.128   4.170
11915W        W75474  15.750   4.879   3.702
11916W        W75475  30.559  34.063   3.236
11917W        W75476  25.997  29.571   3.301
11918W        W75477  13.762  12.747   1.359
11919W        W75478  39.946  33.071  11.473
11920W        W75479  30.449   8.895  13.848
11921W        W75480  19.192  31.999   4.153
11922W        W75481  27.194  23.555  13.541
11923W        W75482  31.910  22.661   0.323
11924W        W75483  33.947  25.103  10.608
11925W        W75484   4.280  21.725  11.469
11926W        W75485  44.431   9.227   0.328
11927W        W75486  20.242  31.021  12.974
11928W        W75487  35.056  38.325  12.580
11929W        W75488  27.636  43.316   4.298
11930W        W75489  43.310   5.846   4.344
11931W        W75490  21.617  35.358   2.417
11932W        W75491  30.422   2.868  11.042
11933W        W75492  27.448   2.880   1.795
11934W        W75493  12.676  17.773  12.908
11935W        W75494   6.889  27.192   1.343
11936W        W75495  26.634  35.368   3.179
11937W        W75496  35.410   2.860   0.378
11938W        W75497  15.722  31.541   0.897
11939W        W75498   1.920  35.491   0.777
11940W        W75499  28.141  31.498  10.404
11941W        W75500   3.225  36.079   3.387
11942W        W75501  12.327  13.627  10.422
11943W        W75502   3.251  38.563  12.498
11944W        W75503  38.451  41.512   4.738
11945W        W75504  27.082  11.861  10.010
11946W        W75505   0.333  31.475   4.278
11947W        W75506  43.392  42.821   3.283
11948W        W75507  28.544   3.721  11.918
11949W        W75508  35.362  19.134  12.545
11950W        W75509   1.955  26.006  14.277
11951W        W75510   4.908  36.465  13.431
11952W        W75511  26.611  18.715   0.418
11953W        W75512  12.362  26.531  13.955
11954W        W75513  10.822  27.475   2.691
11955W        W75514   2.821  11.769   0.925
11956W        W75515  10.649   0.373   4.296
11957W        W75516  18.270  36.096   1.789
11958W        W75517  39.369  11.195  13.857
11959W        W75518  42.388   0.289  12.892
11960W        W75519  19.053  41.867   4.803
11961W        W75520   6.680  22.730   2.412
11962W        W75521  43.397  11.806  13.047
11963W        W75522  13.202   0.876  13.546
11964W        W75523  29.517   5.754   0.314
11965W        W75524   4.874  21.107  10.103
11966W        W75525   2.797  42.911   2.796
11967W        W75526   2.307  22.634   3.347
11968W        W75527   5.373   6.324   3.241
11969W        W75528   1.868  29.487  11.943
11970W        W75529  33.896  24.679   4.678
11971W        W75530   4.413  22.042   3.276
11972W        W75531  37.470  36.050  10.997
11973W        W75532  11.316  20.724  14.288
11974W        W75533  21.526  13.345   0.879
11975W        W75534  22.706   9.677  10.013
11976W        W75535  12.332  20.707  14.969
11977W        W75536  15.776  16.136   3.718
11978W        W75537   5.874  29.994   3.175
11979W        W75538   6.384  12.763  11.906
11980W        W75539  17.750  41.460   0.803
11981W        W75540  35.893  32.624   3.839
11982W        W75541  22.148  34.963  11.401
11983W        W75542  31.445  19.282   0.355
11984W        W75543  12.849  43.923  10.425
11985W        W75544  44.842  42.900  11.976
11986W        W75545   1.248  44.779   0.382
11987W        W75546   7.326  40.956   4.779
11988W        W75547   4.281  28.569  11.587
11989W        W75548  28.602  42.867   0.462
11990W        W75549   4.253  16.666  13.842
11991W        W75550  31.440  39.357   4.239
11992W        W75551  34.424  38.972   4.810
11993W        W75552   1.828   1.832  11.532
11994W        W75553   5.379  44.928  14.350
11995W        W75554  21.537  40.342   1.927
11996W        W75555  21.054  33.414  13.883
11997W        W75556  18.636   2.883   4.165
11998W        W75557  31.931   3.765  10.410
11999W        W75558  27.570  12.274   1.782
12000W        W75559  33.615  20.055   1.262
12001W        W75560  13.194  23.094  11.378
12002W        W75561  25.536  21.259  11.992
12003W        W75562  15.237  18.663   3.303
12004W        W75563  35.059   5.262  11.403
12005W        W75564  18.092  41.411  11.925
12006W        W75565  19.603  31.031  14.491
12007W        W75566  25.529  36.964   2.266
12008W        W75567  42.362   8.222   3.328
12009W        W75568  31.545  28.032   2.309
12010W        W75569  37.460  41.919   0.810
12011W        W75570  24.573  41.043   1.841
12012W        W75571  27.048  18.153   3.854
12013W        W75572  28.560  27.607  12.909
12014W        W75573  32.404  44.773   2.223
12015W        W75574  20.162  28.128  12.448
12016W        W75575  27.114  11.689   4.126
12017W        W75576  34.398  36.984   3.241
12018W        W75577  27.509  23.059   0.244
12019W        W75578  15.243   6.361  13.371
12020W        W75579  30.098   4.320  11.086
12021W        W75580  17.576  14.592  14.848
12022W        W75581  37.995   7.895  14.344
12023W        W75582  35.409  24.612   1.255
12024W        W75583  38.058  18.171  11.470
12025W        W75584   0.395   1.478   1.267
12026W        W75585  25.572  11.142   0.760
12027W        W75586  33.901  26.029  13.547
12028W        W75587  43.378  32.065  14.796
12029W        W75588  16.618  17.686  10.503
12030W        W75589  40.929   2.308  12.907
12031W        W75590  23.111  23.494  10.965
12032W        W75591   6.414  42.924  14.331
12033W        W75592  43.395   1.398   2.869
12034W        W75593  39.056  11.280  11.393
12035W        W75594  25.208  24.679  14.029
12036W        W75595  23.987   9.855   3.363
12037W        W75596  10.261  10.703  12.377
12038W        W75597  40.834  40.355   2.265
12039W        W75598  11.325  17.714  12.415
12040W        W75599  38.860   1.778   3.300
12041W        W75600  43.777  22.017   1.731
12042W        W75601  12.142  39.889  14.491
12043W        W75602  30.435  35.906  12.400
12044W        W75603  32.468  29.619  13.899
12045W        W75604  36.456  32.610   3.321
12046W        W75605  39.402  32.044   1.867
12047W        W75606  42.980  29.466   1.756
12048W        W75607  22.051  14.724  10.926
12049W        W75608  18.183   5.199   4.187
12050W        W75609  43.000  27.617  10.478
12051W        W75610  30.493  22.746  14.278
12052W        W75611  36.863  13.282  11.968
12053W        W75612  35.999   3.317  11.501
12054W        W75613  41.025   1.771   1.736
12055W        W75614  18.637  15.630   3.375
12056W        W75615  19.040  30.014  13.821
12057W        W75616   3.454   8.380   1.403
12058W        W75617   9.390  42.007  13.503
12059W        W75618  20.140   7.387   2.407
12060W        W75619  32.442  26.699   3.182
12061W        W75620   6.314  14.173  13.029
12062W        W75621  41.441  38.987  14.994
12063W        W75622   9.785  39.510  12.865
12064W        W75623   4.733  34.902   4.636
12065W        W75624  28.612  17.625  11.465
12066W        W75625  19.751  39.032   0.319
12067W        W75626  32.573   2.843   2.328
12068W        W75627  12.259   4.919  14.389
12069W        W75628   5.752  13.686   0.930
12070W        W75629   1.283   9.857   1.302
12071W        W75630   9.768  14.331  13.431
12072W        W75631  29.121   2.347  13.375
12073W        W75632   9.716   8.862  12.545
12074W        W75633   8.278  16.571  14.793
12075W        W75634  12.327   5.869  12.094
12076W        W75635  35.095  12.674  11.027
12077W        W75636  20.209  32.585  14.005
12078W        W75637  37.835  35.907   3.711
12079W        W75638  12.326  28.055  14.286
12080W        W75639  17.184  34.568   3.372
12081W        W75640  15.671   2.741   3.340
12082W        W75641   8.337   5.907  14.937
12083W        W75642  28.013  38.457  14.306
12084W        W75643  31.541   1.843   1.427
12085W        W75644  12.208  36.960   4.131
12086W        W75645  10.793  28.558  12.920
12087W        W75646  18.191   9.822  13.829
12088W        W75647   8.867  16.746  11.933
12089W        W75648  22.626  41.790  14.278
12090W        W75649  20.731  35.072  14.940
12091W        W75650  38.332  14.142   1.815
12092W        W75651  11.647  40.423   1.416
12093W        W75652   5.869  42.821   3.853
12094W        W75653  10.747  30.656  13.818
12095W        W75654   8.228  15.786  10.931
12096W        W75655  35.489  16.080  13.901
12097W        W75656  23.120  30.549  14.759
12098W        W75657  32.067  44.864   1.888
12099W        W75658  13.705   7.260   0.849
12100W        W75659  41.886  34.878   2.873
12101W        W75660  27.107  17.231  14.799
12102W        W75661  27.181  34.965   0.846
12103W        W75662  30.910  39.319  13.832
12104W        W75663  11.709  34.455   4.233
12105W        W75664  30.590  36.350  11.600
12106W        W75665  31.985  34.443  13.800
12107W        W75666  18.209  20.607  11.583
12108W        W75667  29.660   2.270  12.956
12109W        W75668   7.862  30.999   2.851
12110W        W75669  10.869  25.553   1.210
12111W        W75670  33.891   0.311  14.784
12112W        W75671  34.456  10.343   4.321
12113W        W75672  34.373  28.539   4.320
12114W        W75673  44.848   8.774  13.506
12115W        W75674  37.988  14.604   3.158
12116W        W75675  15.184  21.647   1.733
12117W        W75676  30.618  29.978   1.905
12118W        W75677  17.131  28.940   2.672
12119W        W75678  20.237  28.648   3.175
12120W        W75679  17.061  38.347   1.871
12121W        W75680  43.813  23.670   3.151
12122W        W75681  19.066   9.278  13.978
12123W        W75682  21.626   5.802  14.334
12124W        W75683   4.221  36.904   2.229
12125W        W75684  42.830   9.718   0.812
12126W        W75685  13.111  14.775   3.209
12127W        W75686  26.113  27.558   3.804
12128W        W75687  23.073   5.877   4.818
12129W        W75688   5.331  18.179  12.353
12130W        W75689  38.446  35.955   4.627
12131W        W75690   4.908  16.597   4.753
12132W        W75691  28.555   2.446   4.644
12133W        W75692  31.551  22.250   4.741
12134W        W75693  34.449  38.857  14.400
12135W        W75694   3.440  11.204   3.219
12136W        W75695  13.815   2.956  12.063
12137W        W75696  32.491  30.158   3.780
12138W        W75697  24.027  39.464  13.317
12139W        W75698   1.887  41.301   0.457
12140W        W75699  13.305   4.386  13.916
12141W        W75700   5.728   8.844   3.366
12142W        W75701   3.460  10.715  12.346
12143W        W75702  34.614  19.137   2.290
12144W        W75703  27.054  31.562  10.633
12145W        W75704  27.580  33.003  13.994
12146W        W75705  30.090   0.448   3.636
12147W        W75706  38.945  26.561   2.726
12148W        W75707   3.241  10.235  14.809
12149W        W75708   7.849  44.003  13.882
12150W        W75709  38.904   6.189  12.449
12151W        W75710  11.804  27.641   3.228
12152W        W75711  22.593   3.228  11.982
12153W        W75712  23.625  41.328   0.918
12154W        W75713  41.338  29.947   2.795
12155W        W75714  28.142  18.642   4.759
12156W        W75715  25.504  27.636   1.865
12157W        W75716  29.656   7.238  13.391
12158W        W75717  30.636   3.839  11.015
12159W        W75718  43.871  33.039  14.807
12160W        W75719  19.210  16.304  13.830
12161W        W75720  18.694  20.166  12.341
12162W        W75721  38.350   0.841  13.421
12163W        W75722   6.866  27.455   1.842
12164W        W75723  11.371  34.863   2.741
12165W        W75724  11.668  37.849  13.323
12166W        W75725  14.333   9.885  13.040
12167W        W75726  35.532  28.072   1.278
12168W        W75727  10.830  12.779  14.921
12169W        W75728  15.585   7.736  11.899
12170W        W75729  32.560  28.508  13.505
12171W        W75730  17.719  34.895   3.798
12172W        W75731  18.117  42.776  14.822
12173W        W75732  41.898  16.316  11.963
12174W        W75733   8.326  15.627   1.447
12175W        W75734  32.548   5.221  10.921
12176W        W75735  27.076  13.323   2.192
12177W        W75736  43.954  37.340   1.795
12178W        W75737  24.682  37.466  14.356
12179W        W75738  17.606  32.457  13.933
12180W        W75739  28.146  18.115   3.679
12181W        W75740  12.116   5.928  14.351
12182W        W75741  12.793  19.581  12.578
12183W        W75742  17.145  40.505  14.460
12184W        W75743  10.817  16.224   1.216
12185W        W75744   8.323   4.864  12.052
12186W        W75745  22.101  25.517  14.919
12187W        W75746  38.375  27.109   1.786
12188W        W75747  10.266   5.366  12.544
12189W        W75748  41.809  34.511   1.900
12190W        W75749   1.365   5.296  12.892
12191W        W75750  29.009  11.798  12.470
12192W        W75751  29.079  44.405  11.936
12193W        W75752  19.687  30.419  13.547
12194W        W75753   8.823  22.739   0.820
12195W        W75754  16.085  10.811  11.896
12196W        W75755  29.974  17.588  11.970
12197W        W75756  11.864  11.746  14.474
12198W        W75757  22.137  14.605   4.720
12199W        W75758  17.647  35.427   0.435
12200W        W75759  28.644  21.221   3.809
12201W        W75760   8.828  42.385   4.193
12202W        W75761   5.226  34.027  11.374
12203W        W75762   4.786   2.436   3.868
12204W        W75763  27.603  43.298   3.262
12205W        W75764   4.213  19.767   4.341
12206W        W75765  29.512  25.136  14.942
12207W        W75766  24.708   6.299   4.668
12208W        W75767  20.133   0.430  13.940
12209W        W75768  14.814  44.878  12.921
12210W        W75769  13.314  35.477  13.467
12211W        W75770  40.427  38.029   4.132
12212W        W75771  34.974   6.852  10.954
12213W        W75772  21.567  41.305   2.816
12214W        W75773  22.532   1.259   1.314
12215W        W75774  28.137  20.591  12.548
12216W        W75775  43.491  13.665  11.577
12217W        W75776   4.844  26.485  10.152
12218W        W75777  38.374  21.242   4.814
12219W        W75778  41.920  43.878   0.461
12220W        W75779  22.109   8.693   2.277
12221W        W75780  21.632  18.782  11.035
12222W        W75781  20.166   4.865   1.308
12223W        W75782   7.310  41.867   2.838
12224W        W75783  17.631  29.972   0.245
12225W        W75784  14.094  28.140  14.427
12226W        W75785   9.759   9.856  12.528
12227W        W75786   1.823  11.680   0.808
12228W        W75787  34.469  11.297   1.348
12229W        W75788  35.588  11.657  10.967
12230W        W75789   8.823  25.626   4.123
12231W        W75790  21.194  22.623   4.226
12232W        W75791   6.281  16.791   3.171
12233W        W75792  34.377  43.912   1.920
12234W        W75793  16.755  24.982   1.857
12235W        W75794   7.199  35.592  13.443
12236W        W75795  35.602   2.307   4.609
12237W        W75796   5.326   6.363   0.463
12238W        W75797   4.415  38.497  12.401
12239W        W75798   0.420  29.098   4.816
12240W        W75799  44.966   0.869   3.318
12241W        W75800  23.159   2.963  14.026
12242W        W75801  35.517   8.659   1.840
12243W        W75802  39.454  36.872   4.151
12244W        W75803   4.767  30.541   2.333
12245W        W75804  35.409  26.034   1.736
12246W        W75805  16.811  31.956  10.446
12247W        W75806  17.124  31.564   1.742
12248W        W75807   6.406  11.805   4.679
12249W        W75808   0.454  22.646   4.628
12250W        W75809  16.157  27.043  14.392
12251W        W75810  26.073  43.506  12.977
12252W        W75811  20.156  37.998   1.718
12253W        W75812  10.352  43.469  14.964
12254W        W75813  13.142   3.713  14.886
12255W        W75814  36.952  27.535  12.867
12256W        W75815  10.671  19.687  13.319
12257W        W75816  30.456  37.570   1.694
12258W        W75817  44.326  14.112  13.860
12259W        W75818  35.077   4.334   2.866
12260W        W75819  43.955  35.370  12.020
12261W        W75820  39.821  41.469  12.400
12262W        W75821  12.664  42.972  14.880
12263W        W75822  36.514  42.976  14.030
12264W        W75823  26.476  15.322  12.963
12265W        W75824  32.516  44.260   1.260
12266W        W75825   6.799   3.815   3.228
12267W        W75826  16.768  23.060  10.974
12268W        W75827  22.109  13.729   0.773
12269W        W75828   8.781  19.166  14.465
12270W        W75829  25.627  39.962  13.933
12271W        W75830   9.666   1.870   4.823
12272W        W75831   7.297  32.577  10.572
12273W        W75832  13.771  31.082   4.354
12274W        W75833   2.879  37.012   1.294
12275W        W75834  27.957  10.207  13.416
12276W        W75835  29.127  35.557   3.148
12277W        W75836  43.022  11.192   0.315
12278W        W75837  17.800  29.634   3.816
12279W        W75838  27.999  18.710  14.871
12280W        W75839  11.148  33.420   4.277
12281W        W75840   5.714  10.756  11.021
12282W        W75841  13.333   6.196  13.023
12283W        W75842  23.147  34.953   2.857
12284W        W75843  22.006  41.791  11.566
12285W        W75844  27.566  40.370   0.308
12286W        W75845   5.869  14.111  10.410
12287W        W75846  38.854  22.045   3.264
12288W        W75847  28.131  27.591   0.379
12289W        W75848  41.992   3.860  11.495
12290W        W75849  16.751  27.109  11.424
12291W        W75850   4.253   3.448   1.334
12292W        W75851  32.048  37.952  14.317
12293W        W75852  25.655   4.320   4.770
12294W        W75853  42.900  10.189   1.229
12295W        W75854  32.601   5.834   4.337
12296W        W75855  33.006  29.570   4.664
12297W        W75856  20.523  19.592  13.881
12298W        W75857  36.054  24.176   3.666
12299W        W75858   2.843  38.032  12.904
12300W        W75859  14.152  17.216  12.971
12301W        W75860  10.752   7.909  10.467
12302W        W75861  27.645  11.769   0.267
12303W        W75862  35.918  37.058   3.155
12304W        W75863  43.893  41.390   4.662
12305W        W75864  43.974  11.711   2.672
12306W        W75865  27.182  33.049   3.863
12307W        W75866  31.538  25.545   0.319
12308W        W75867  21.045  41.021   2.743
12309W        W75868  44.811   5.734   4.830
12310W        W75869  36.464  26.530  10.623
12311W        W75870  15.198  11.308   3.207
12312W        W75871  44.346  26.515   0.966
12313W        W75872  37.002  24.111  13.791
12314W        W75873  41.412  33.520   3.672
12315W        W75874  40.836  37.046   3.747
12316W        W75875  36.843   9.205   5.673
12317W        W75876  44.000   9.269  13.351
12318W        W75877  11.774   6.681   2.785
12319W        W75878  22.671  17.230   4.270
12320W        W75879  13.642  32.598  10.452
12321W        W75880  31.020  19.639  14.502
12322W        W75881  24.151   7.824  11.397
12323W        W75882  18.661  33.561  12.405
12324W        W75883  25.707   4.766   0.397
12325W        W75884  37.362  13.700  13.423
12326W        W75885  24.700  24.196   1.434
12327W        W75886  24.225  43.783   0.411
12328W        W75887  34.544  19.540   4.154
12329W        W75888  39.534  40.447  13.373
12330W        W75889  23.639  25.200  13.059
12331W        W75890   1.804  34.088  13.444
12332W        W75891  37.897   5.736   3.840
12333W        W75892  30.922  36.367   4.278
12334W        W75893  16.761  20.174  12.354
12335W        W75894  39.031  39.414  12.539
12336W        W75895  36.586  36.895  10.443
12337W        W75896  22.238   9.326   2.763
12338W        W75897  32.895  24.171   4.743
12339W        W75898  27.675  27.471  10.934
12340W        W75899  41.424  36.852  13.518
12341W        W75900  30.579  27.599   3.639
12342W        W75901   8.754  41.410   2.341
12343W        W75902   5.432  21.219   4.722
12344W        W75903  39.511  43.936   1.815
12345W        W75904   4.358  36.483   3.331
12346W        W75905  11.251  44.353  13.030
12347W        W75906  20.065  42.495  14.806
12348W        W75907  16.589  17.199   3.384
12349W        W75908  43.399  33.042  12.887
12350W        W75909  16.737  40.399  14.357
12351W        W75910  15.131  17.574   1.292
12352W        W75911  13.187  32.084  11.986
12353W        W75912  24.057  21.115  14.288
12354W        W75913  28.585  14.828  10.508
12355W        W75914  29.638  23.711   1.757
12356W        W75915   8.396  14.761   5.227
12357W        W75916   0.424  19.224  13.522
12358W        W75917  28.676  34.392   4.811
12359W        W75918  19.048   4.787  14.449
12360W        W75919  31.139  12.245   1.304
12361W        W75920  12.789  15.805   4.212
12362W        W75921  28.139  38.006  12.861
12363W        W75922  32.104  27.100  13.964
12364W        W75923   2.258  36.405   1.774
12365W        W75924  30.603  23.154   3.243
12366W        W75925  33.587  14.338  11.607
12367W        W75926  29.075  20.526  14.974
12368W        W75927  32.563  34.959   2.278
12369W        W75928  28.619  35.575   0.482
12370W        W75929   9.692  37.030  10.910
12371W        W75930  14.206  14.226   0.243
12372W        W75931  16.636  16.617   4.711
12373W        W75932  10.709  37.026   3.168
12374W        W75933  44.838  10.792  11.904
12375W        W75934  19.151   1.820  11.069
12376W        W75935  17.786   5.927   4.825
12377W        W75936  26.506  11.238   1.409
12378W        W75937  39.998  31.975  10.449
12379W        W75938  17.670  13.268   3.685
12380W        W75939  16.202  13.734   0.843
12381W        W75940  33.019  15.758  10.973
12382W        W75941  16.793  16.760  14.350
12383W        W75942  37.077  29.438   0.421
12384W        W75943   2.963  18.640  13.998
12385W        W75944  31.053   9.216   1.781
12386W        W75945  12.813   1.788   1.807
12387W        W75946  19.204  29.954  11.392
12388W        W75947  18.250  19.240  13.047
12389W        W75948  41.531   1.783   0.882
12390W        W75949   2.782   2.793   1.913
12391W        W75950  28.602  12.117   2.840
12392W        W75951  29.660   5.737  13.351
12393W        W75952   2.374  37.012  14.956
12394W        W75953  33.074  26.702   2.724
12395W        W75954  19.573  13.677  14.764
12396W        W75955  21.558  44.261  14.294
12397W        W75956  38.837  22.698   0.294
12398W        W75957  21.207   8.248  14.021
12399W        W75958  39.369  43.305   4.263
12400W        W75959  37.900   2.861  10.930
12401W        W75960  22.107  34.962   4.622
12402W        W75961  24.144  35.455  14.883
12403W        W75962  36.052   7.264  14.439
12404W        W75963  16.100   3.748  14.859
12405W        W75964  25.608  30.485  14.907
12406W        W75965  30.566   3.281   4.333
12407W        W75966  27.626  42.911   4.243
12408W        W75967  31.593  42.437  13.474
12409W        W75968  27.190  44.930   2.270
12410W        W75969  25.583  23.019   5.674
12411W        W75970  13.277  16.757  12.009
12412W        W75971  30.144   7.885   3.368
12413W        W75972   9.655  28.043   1.825
12414W        W75973  44.842  34.472   1.918
12415W        W75974  17.299   4.267   3.746
12416W        W75975  36.946   5.217  14.820
12417W        W75976  17.682  25.650  12.352
12418W        W75977  40.847   4.836   1.760
12419W        W75978   8.665   4.928   1.887
12420W        W75979   0.431  15.091  10.905
12421W        W75980  20.098  19.052  10.971
12422W        W75981  32.979  13.331  12.512
12423W        W75982  13.745  37.404  10.136
12424W        W75983  20.089  16.128   0.961
12425W        W75984  30.979  10.693  12.550
12426W        W75985   3.297  35.877  14.763
12427W        W75986  21.609  16.306  12.419
12428W        W75987  34.946  36.376  10.888
12429W        W75988  14.785  19.591  11.084
12430W        W75989   3.459  40.531  11.102
12431W        W75990  34.431  13.778   3.382
12432W        W75991  14.181  27.052  10.940
12433W        W75992  27.021  35.003  11.890
12434W        W75993  14.263  18.678  11.931
12435W        W75994  20.158  14.776  11.865
12436W        W75995  25.962  36.978   3.156
12437W        W75996  26.045  35.368  13.406
12438W        W75997  21.574  43.851   2.242
12439W        W75998  39.545  25.137  12.549
12440W        W75999  30.432  40.818  13.469
12441W        W76000   2.960  43.901  11.599
12442W        W76001  41.852  43.830  11.992
12443W        W76002   8.859  35.528  14.479
12444W        W76003   3.876   7.337  13.013
12445W        W76004  40.307  35.024   0.832
12446W        W76005  34.908  36.883  11.962
12447W        W76006   1.769  15.124   0.761
12448W        W76007  23.166  28.624  14.018
12449W        W76008  10.204  21.753  14.813
12450W        W76009   2.755  17.150   2.380
12451W        W76010   5.815  36.354   1.385
12452W        W76011  16.643  19.175  14.437
12453W        W76012  41.327  19.536   3.846
12454W        W76013   3.948  22.655   4.706
12455W        W76014  39.475  24.002   0.266
12456W        W76015  31.984  20.062  14.333
12457W        W76016  10.762  21.571   3.358
12458W        W76017   8.674  21.683   4.830
12459W        W76018  26.999  20.544   5.106
12460W        W76019  25.507   5.285  14.859
12461W        W76020   7.205  39.917   2.402
12462W        W76021  19.624  19.124  13.473
12463W        W76022  27.963  12.212   1.309
12464W        W76023  40.376  40.027  11.602
12465W        W76024  10.228   9.853  14.384
12466W        W76025  24.666   0.476  14.488
12467W        W76026  32.632  38.958  12.002
12468W        W76027  31.554  26.996  11.893
12469W        W76028  10.280   1.269   3.837
12470W        W76029  14.670  36.086   1.438
12471W        W76030  21.551  35.360  13.888
12472W        W76031  24.228  39.893   3.235
12473W        W76032   8.309  29.106  11.515
12474W        W76033   3.386  44.368   3.639
12475W        W76034  28.645  26.981   1.269
12476W        W76035   9.380  38.486   4.629
12477W        W76036  29.557  11.152   2.848
12478W        W76037  38.835  16.756  12.499
12479W        W76038  11.852   5.264   3.240
12480W        W76039  14.630  19.618   1.314
12481W        W76040  19.727  18.600  10.605
12482W        W76041  34.410   0.936  13.938
12483W        W76042  35.027  15.173  12.930
12484W        W76043  10.217   1.901  12.048
12485W        W76044   8.828  29.120  14.433
12486W        W76045  42.371  20.709  14.440
12487W        W76046   0.940  16.578  14.863
12488W        W76047  39.336  40.457  14.842
12489W        W76048  37.856  40.484  10.423
12490W        W76049  31.552  37.947  13.520
12491W        W76050  10.828  20.080   3.174
12492W        W76051  21.748  28.008  11.954
12493W        W76052  26.059  36.971  12.975
12494W        W76053   4.262  22.186  14.424
12495W        W76054  12.672  33.531   1.709
12496W        W76055  42.804   8.343  11.069
12497W        W76056   3.893  28.035   1.444
12498W        W76057  29.072  32.001   3.306
12499W        W76058  40.399  37.380  14.489
12500W        W76059  36.464  40.905   3.664
12501W        W76060  21.115  26.504  12.363
12502W        W76061  30.079  27.530   1.766
12503W        W76062  38.550  13.767  14.332
12504W        W76063  39.431  21.094  11.932
12505W        W76064  30.077  40.799  14.808
12506W        W76065  22.547   2.363  11.904
12507W        W76066  10.665   0.849  12.841
12508W        W76067  42.523  39.981  12.339
12509W        W76068  39.342  41.341  11.514
12510W        W76069  41.395  22.716   2.396
12511W        W76070  37.974  30.164  14.435
12512W        W76071  36.530  10.862   3.301
12513W        W76072  38.988  26.968   1.929
12514W        W76073  27.947  21.197   3.199
12515W        W76074   1.252  39.033   0.867
12516W        W76075  12.194  38.452   0.328
12517W        W76076  39.057  33.930  12.945
12518W        W76077  32.933   0.808   0.328
12519W        W76078   6.886  38.336   3.757
12520W        W76079   2.899  36.467  12.547
12521W        W76080  25.994   4.386   1.777
12522W        W76081  18.762  44.389   1.410
12523W        W76082  33.042  27.455  12.497
12524W        W76083  26.690  13.346   2.689
12525W        W76084  15.642  36.378  10.509
12526W        W76085   5.279  19.251   1.309
12527W        W76086  12.613  38.847   1.447
12528W        W76087  39.529  15.806   4.835
12529W        W76088   5.299  17.060  14.444
12530W        W76089  34.539   8.699   2.666
12531W        W76090  34.456   6.346   1.395
12532W        W76091  11.168  38.016   3.678
12533W        W76092   3.776  23.498   2.870
12534W        W76093  15.172  34.044  14.831
12535W        W76094   6.404   0.442  14.954
12536W        W76095  30.083  31.152  11.421
12537W        W76096  37.531   2.368   0.258
12538W        W76097  31.903  31.554   3.329
12539W        W76098   6.911  42.859   2.823
12540W        W76099  38.967  35.920   0.286
12541W        W76100  32.917  13.663  14.512
12542W        W76101  14.796   3.776  13.430
12543W        W76102  42.391  37.038  11.519
12544W        W76103   5.201  16.282  13.328
12545W        W76104  30.947  25.563   4.332
12546W        W76105  26.670  21.735   0.335
12547W        W76106  33.935   6.688   1.376
12548W        W76107   0.273  21.663   4.731
12549W        W76108  38.880  22.074  12.419
12550W        W76109  42.935   8.738   3.157
12551W        W76110  44.809  23.205   2.739
12552W        W76111  44.955  37.989  12.030
12553W        W76112  43.493  16.089  11.930
12554W        W76113   9.710  43.964  11.042
12555W        W76114  18.707  34.444   0.729
12556W        W76115  34.091  25.989  10.938
12557W        W76116  10.851  43.984  12.999
12558W        W76117  29.537  31.010   4.618
12559W        W76118   3.218  11.297  14.848
12560W        W76119   6.857  15.812   0.353
12561W        W76120  44.918  16.145   3.835
12562W        W76121  22.689  30.120   1.792
12563W        W76122  26.059  28.065   0.450
12564W        W76123   5.909  27.469  11.416
12565W        W76124  22.235  20.653   1.906
12566W        W76125  24.506  40.379   1.817
12567W        W76126  19.104   1.315  14.464
12568W        W76127  11.703  40.856  13.398
12569W        W76128  16.295   8.834  11.977
12570W        W76129  37.581   6.813   0.403
12571W        W76130  22.052  44.413  13.548
12572W        W76131  27.956  25.519  12.014
12573W        W76132  34.391   6.427   2.804
12574W        W76133  33.560  14.831  14.949
12575W        W76134  26.078  40.845  11.055
12576W        W76135  19.692   8.853   4.119
12577W        W76136   5.826  35.378  14.892
12578W        W76137  15.641  43.859   4.276
12579W        W76138  22.584   9.750  10.441
12580W        W76139  31.026   2.814   1.317
12581W        W76140  11.281  18.202  13.928
12582W        W76141  25.591  43.428   0.803
12583W        W76142   1.455   8.660   5.218
12584W        W76143   3.377  27.066  14.425
12585W        W76144  37.364  38.366   2.269
12586W        W76145  29.510   3.251  13.853
12587W        W76146  43.284  17.577   3.311
12588W        W76147  32.014  38.393   3.348
12589W        W76148  29.123  11.693  10.565
12590W        W76149  34.452  12.120  10.972
12591W        W76150  21.607  27.147   2.871
12592W        W76151  44.458  11.291   3.818
12593W        W76152   9.224  21.599  11.560
12594W        W76153  17.225  29.997   0.735
12595W        W76154  41.372   6.224  11.506
12596W        W76155   5.922  44.925   4.749
12597W        W76156  19.754  15.118   3.632
12598W        W76157   0.338   5.814  13.826
12599W        W76158  28.668  21.635  13.876
12600W        W76159   4.912  22.559   5.200
12601W        W76160  22.666  22.063  13.439
12602W        W76161  26.955   2.768   4.644
12603W        W76162  41.304  31.584  11.975
12604W        W76163  16.199  12.613  14.939
12605W        W76164  43.422   0.494   0.378
12606W        W76165  18.782  13.835  11.409
12607W        W76166   1.334  11.173   2.312
12608W        W76167  15.676  42.295   3.361
12609W        W76168   8.898  11.627   3.849
12610W        W76169   7.742  13.782  13.956
12611W        W76170   9.739  26.075  12.411
12612W        W76171  44.372  43.906  12.955
12613W        W76172  44.283  42.352  13.889
12614W        W76173   6.277  28.041  12.050
12615W        W76174  16.700   6.902  14.015
12616W        W76175  35.566  30.645  11.104
12617W        W76176  27.469  11.835   4.126
12618W        W76177  25.707  15.300  13.918
12619W        W76178   3.881  44.980   1.381
12620W        W76179  30.920  16.232   2.271
12621W        W76180  12.662  40.834   2.734
12622W        W76181  34.102  28.952   2.685
12623W        W76182  25.587   7.889   0.735
12624W        W76183  23.683   9.856   4.727
12625W        W76184  41.362  25.517   0.942
12626W        W76185  20.638  19.180   3.153
12627W        W76186  20.735  33.514  14.952
12628W        W76187  19.743  19.201   4.162
12629W        W76188  41.501   5.736  13.035
12630W        W76189  25.140  42.449  13.537
12631W        W76190  24.609   3.414  13.366
12632W        W76191  10.710   5.388   3.214
12633W        W76192  38.464  20.085  13.846
12634W        W76193  11.840  36.550  14.763
12635W        W76194  44.328   5.340   1.838
12636W        W76195  30.510  20.173  14.850
12637W        W76196  42.792  27.048  13.439
12638W        W76197   3.934  28.584   2.713
12639W        W76198  31.944  32.411  12.370
12640W        W76199   8.261  18.714   3.741
12641W        W76200  19.155  42.381  14.454
12642W        W76201  31.645  33.126  13.508
12643W        W76202  42.948  31.917   2.739
12644W        W76203  41.017   0.426  13.064
12645W        W76204  10.209  22.610  12.480
12646W        W76205  37.442   6.350  13.793
12647W        W76206  20.631  13.261   3.816
12648W        W76207  43.271  10.356  14.030
12649W        W76208   7.810  32.485  12.893
12650W        W76209  33.493   9.205  12.383
12651W        W76210  27.066  15.295   3.793
12652W        W76211  40.806  17.618   2.286
12653W        W76212  17.261  14.279  11.452
12654W        W76213  28.049  33.034   9.954
12655W        W76214  10.809  31.961  12.376
12656W        W76215  36.906  16.574  13.447
12657W        W76216  19.681  13.192   0.802
12658W        W76217  18.681  17.113  12.507
12659W        W76218   3.825  39.401  14.450
12660W        W76219  36.056  33.905  11.019
12661W        W76220  11.840  32.930  13.384
12662W        W76221  39.538  11.700   2.410
12663W        W76222  12.224   8.727  10.158
12664W        W76223  29.658   4.310  14.027
12665W        W76224  25.035  10.878   1.345
12666W        W76225  13.159  25.008  14.353
12667W        W76226  37.560  14.702  13.325
12668W        W76227   2.341  23.660   3.234
12669W        W76228  31.429  29.609  13.376
12670W        W76229   5.385  41.469  11.565
12671W        W76230   5.327  18.241  14.793
12672W        W76231  43.415  13.662  10.449
12673W        W76232  10.805   5.852  14.383
12674W        W76233  10.660  15.298  14.386
12675W        W76234  20.262  33.578  11.537
12676W        W76235   6.299  11.359  11.429
12677W        W76236  38.064  20.261   3.213
12678W        W76237  31.607  33.040  11.522
12679W        W76238  37.881  36.562   0.248
12680W        W76239  31.072   0.923   4.207
12681W        W76240   0.832  24.061   1.371
12682W        W76241  40.390  44.784  10.631
12683W        W76242  18.163  34.957  13.008
12684W        W76243  25.682  23.232   3.652
12685W        W76244  35.945  44.790  13.479
12686W        W76245  19.089  25.513   1.915
12687W        W76246  43.957  32.530  10.482
12688W        W76247  32.510  19.067   3.265
12689W        W76248  11.812  36.933   2.862
12690W        W76249  36.362  13.279  12.512
12691W        W76250  42.293  29.535   3.155
12692W        W76251  10.365  44.841   0.292
12693W        W76252  33.562   4.270  11.857
12694W        W76253  24.191  12.660   0.904
12695W        W76254  32.060  44.493  13.006
12696W        W76255  19.200  19.771  10.991
12697W        W76256  29.981  38.354  13.339
12698W        W76257  29.580  44.422  11.502
12699W        W76258  27.502  10.291  14.403
12700W        W76259  12.359  18.174  13.900
12701W        W76260  26.564  24.052  10.432
12702W        W76261  25.025  14.173  12.982
12703W        W76262  26.616   9.192   2.349
12704W        W76263  34.580  24.097  12.029
12705W        W76264  30.110  32.599   4.338
12706W        W76265   4.885  20.248   1.314
12707W        W76266  15.728  31.557  10.990
12708W        W76267   8.873  32.001   2.881
12709W        W76268  13.287  28.929  12.016
12710W        W76269  19.194  34.434  11.390
12711W        W76270  22.027  16.082  13.427
12712W        W76271  23.650  18.257  12.473
12713W        W76272  15.095  33.464   3.697
12714W        W76273  32.405  23.729  12.057
12715W        W76274  19.669  36.451  14.016
12716W        W76275   1.360  25.548   1.418
12717W        W76276  19.760  10.744   1.934
12718W        W76277  38.023  34.050   1.840
12719W        W76278   4.350  43.959   1.935
12720W        W76279  36.524  32.471   0.300
12721W        W76280  16.163  37.490   0.388
12722W        W76281  13.722  16.157  11.598
12723W        W76282  31.611  42.320   0.408
12724W        W76283  44.337   8.791   3.154
12725W        W76284   2.314  23.083  13.022
12726W        W76285   3.425  29.518   3.228
12727W        W76286   5.273   2.729   0.279
12728W        W76287   4.208  24.093   3.327
12729W        W76288   0.752  40.364  11.453
12730W        W76289  37.087  21.231   3.676
12731W        W76290  29.470   4.330   0.472
12732W        W76291  18.784  17.064   1.237
12733W        W76292  19.657   4.725  10.494
12734W        W76293  34.062  26.541  14.360
12735W        W76294  16.720  15.647   1.423
12736W        W76295  20.233   1.373   4.830
12737W        W76296  27.623  13.299  10.488
12738W        W76297  19.172   1.738   2.674
12739W        W76298  26.545  24.496  12.058
12740W        W76299  33.919   5.241  14.482
12741W        W76300  16.237   9.693   0.958
12742W        W76301  27.537   4.709   0.957
12743W        W76302   7.376  42.934   3.368
12744W        W76303  28.973  38.922  11.053
12745W        W76304  17.796   8.691  13.340
12746W        W76305  26.548   5.439  14.837
12747W        W76306  15.319  15.795  12.977
12748W        W76307  15.752  27.139  13.448
12749W        W76308  24.488  21.552  10.453
12750W        W76309  29.461  14.739  12.510
12751W        W76310  40.970  20.061   0.823
12752W        W76311  38.886   5.200   4.209
12753W        W76312  19.112  17.085  11.970
12754W        W76313  44.463   3.441   1.259
12755W        W76314   2.467   0.434  11.071
12756W        W76315  32.034  36.859   1.231
12757W        W76316   6.356  20.669  14.844
12758W        W76317  19.174   1.368   3.726
12759W        W76318  25.036  33.062  12.454
12760W        W76319  41.935   1.951  10.014
12761W        W76320   8.204  28.147  10.492
12762W        W76321  30.544  36.571   1.753
12763W        W76322  25.039   9.874  10.987
12764W        W76323  19.178  21.687   3.178
12765W        W76324  13.272   1.411  14.874
12766W        W76325   0.291  20.569   2.844
12767W        W76326   5.766   0.492  11.538
12768W        W76327  31.624  32.588   2.831
12769W        W76328  35.090  37.878   3.161
12770W        W76329  26.959  36.418   1.803
12771W        W76330   8.734   3.890   4.722
12772W        W76331   8.356   9.873   1.370
12773W        W76332  24.221  44.493   0.368
12774W        W76333  23.618   8.716  10.139
12775W        W76334  35.957  10.705   1.911
12776W        W76335  16.077  34.960   2.330
12777W        W76336  29.021   2.762   4.284
12778W        W76337  22.074  35.527  14.390
12779W        W76338   5.924  13.198   1.399
12780W        W76339  11.181  18.229  11.000
12781W        W76340  20.649  40.458  12.475
12782W        W76341   3.441  28.160  14.350
12783W        W76342   1.318  14.725   4.146
12784W        W76343   4.405  22.541  12.957
12785W        W76344  24.136  28.660  12.400
12786W        W76345   7.394   7.377   3.850
12787W        W76346  20.701  36.483  14.353
12788W        W76347  44.316   3.749   1.340
12789W        W76348   7.835  22.210  14.875
12790W        W76349   6.850   4.267   2.350
12791W        W76350  42.511  26.167  11.414
12792W        W76351  39.039  23.076   3.810
12793W        W76352   3.919  40.478   3.799
12794W        W76353  31.950  22.129  13.413
12795W        W76354  19.750  36.518  11.085
12796W        W76355   8.708  36.418   2.196
12797W        W76356  18.157  22.741   4.313
12798W        W76357  18.743  31.453  10.483
12799W        W76358  10.266  23.126   0.748
12800W        W76359   8.383  41.944   3.789
12801W        W76360  31.592  44.262  14.410
12802W        W76361  37.366  44.911  11.424
12803W        W76362  41.832   8.677  10.153
12804W        W76363  30.655  42.359   3.744
12805W        W76364  14.179  39.384  14.899
12806W        W76365  30.470  33.034   2.847
12807W        W76366  39.887  40.842   2.220
12808W        W76367  15.780  23.675   1.893
12809W        W76368  33.117  37.061   3.639
12810W        W76369  42.484  24.574  10.611
12811W        W76370  33.392  41.506  13.489
12812W        W76371  16.639  32.918   2.738
12813W        W76372  14.825  12.756   2.214
12814W        W76373  25.552  24.560   2.708
12815W        W76374   0.463  12.713   0.916
12816W        W76375  37.918  29.550  11.522
12817W        W76376  14.628   9.197   4.684
12818W        W76377  19.778  14.244  10.597
12819W        W76378   6.780  32.110  10.119
12820W        W76379  13.620  42.484  11.044
12821W        W76380   3.395  37.526   0.923
12822W        W76381  24.689  25.553  14.460
12823W        W76382  12.177  22.625   5.652
12824W        W76383  29.152   6.386  13.026
12825W        W76384   0.263  22.571  14.972
12826W        W76385  26.163  29.138   1.771
12827W        W76386  41.832  44.788   4.615
12828W        W76387  31.986  16.610  13.996
12829W        W76388  15.688  26.475   4.727
12830W        W76389  41.956   6.909  14.830
12831W        W76390  43.917  28.160  13.482
12832W        W76391   2.445  14.626  14.959
12833W        W76392  25.120  22.594   1.694
12834W        W76393   4.699  29.544   3.752
12835W        W76394   2.277  31.051   3.344
12836W        W76395  20.740  34.019   3.154
12837W        W76396  29.154  36.588  11.383
12838W        W76397  13.265  44.348  10.618
12839W        W76398  24.107  41.989   4.262
12840W        W76399  43.968   0.436  14.876
12841W        W76400  27.583  16.625  12.990
12842W        W76401   7.176   3.733   4.186
12843W        W76402  14.142  38.428  13.355
12844W        W76403  23.496  39.411   3.647
12845W        W76404   2.781  41.871   1.366
12846W        W76405   7.757  28.186   1.260
12847W        W76406  11.241   9.841  13.509
12848W        W76407  29.087  35.873   4.220
12849W        W76408  40.024  33.032   4.177
12850W        W76409  43.341  18.186   5.103
12851W        W76410  15.098   0.250   4.800
12852W        W76411   7.216   1.784  12.096
12853W        W76412   9.773  44.883  10.898
12854W        W76413  25.592  35.039   1.334
12855W        W76414   7.380   0.873  11.546
12856W        W76415  26.164  22.204  14.793
12857W        W76416  39.992   7.673   3.187
12858W        W76417  38.883   3.906   4.637
12859W        W76418  32.454  29.615   3.669
12860W        W76419   4.290   3.789   3.734
12861W        W76420  37.912  41.967  10.988
12862W        W76421  44.771  32.896  12.077
12863W        W76422  39.958  13.181  14.344
12864W        W76423  13.671  40.864   1.266
12865W        W76424  16.095  34.408   2.786
12866W        W76425  15.293  14.253   2.886
12867W        W76426  40.344  37.059  11.474
12868W        W76427  16.749  12.746   0.465
12869W        W76428  39.447  22.024   4.227
12870W        W76429  32.390   6.410  14.989
12871W        W76430  17.252  26.574   1.302
12872W        W76431  15.302  39.023  14.480
12873W        W76432  42.306  17.741   3.223
12874W        W76433   5.723   3.930   3.371
12875W        W76434  42.820  40.525   4.735
12876W        W76435   0.440  10.262  12.844
12877W        W76436   0.803  21.605   1.256
12878W        W76437   7.748   6.291  13.449
12879W        W76438  34.057   4.935   3.282
12880W        W76439   6.875  22.081   4.723
12881W        W76440  11.817   3.242   0.393
12882W        W76441  37.870   0.906  11.553
12883W        W76442  43.355  44.365   4.194
12884W        W76443  38.363  29.432  13.928
12885W        W76444  26.555  20.138  11.042
12886W        W76445   8.776  26.051   1.315
12887W        W76446  40.893  19.135  11.110
12888W        W76447  35.582  17.570   2.216
12889W        W76448  38.490  23.168   3.706
12890W        W76449  43.774  24.124  14.406
12891W        W76450   2.893   0.987  11.057
12892W        W76451  11.300   7.306  12.514
12893W        W76452  17.730  44.960  11.607
12894W        W76453   0.835  21.609  11.892
12895W        W76454   3.364  37.920  11.926
12896W        W76455   8.364  43.995  13.034
12897W        W76456  12.706  14.282   4.642
12898W        W76457  14.319   0.930   1.318
12899W        W76458   7.322   0.469  11.907
12900W        W76459  18.088   3.889  10.958
12901W        W76460  25.624  38.454  11.968
12902W        W76461  20.715  44.904  11.442
12903W        W76462  23.160   1.875  10.492
12904W        W76463  23.570   1.295  14.468
12905W        W76464   7.822  12.657   4.338
12906W        W76465   0.300  24.199  13.808
12907W        W76466  35.949   6.382  12.562
12908W        W76467  22.746  28.666  11.467
12909W        W76468  41.997   5.272   2.213
12910W        W76469   2.892  13.317  13.038
12911W        W76470  24.518   8.745  10.091
12912W        W76471  10.318  42.794  11.585
12913W        W76472  41.822  36.589  13.867
12914W        W76473  40.045  26.522  11.406
12915W        W76474   2.458   5.806  14.761
12916W        W76475  21.114   3.330   4.776
12917W        W76476  28.043  24.616   3.654
12918W        W76477   6.184  31.942   0.303
12919W        W76478  18.062  40.876   4.292
12920W        W76479  30.127  23.677   3.806
12921W        W76480  23.541  24.152  12.489
12922W        W76481   6.792  20.682  10.457
12923W        W76482  25.523  19.731  12.450
12924W        W76483  13.683  19.619  13.059
12925W        W76484  14.748  16.225  13.409
12926W        W76485   2.754   8.241   3.199
12927W        W76486  42.892  29.977   4.128
12928W        W76487  22.570  16.130   1.889
12929W        W76488  38.461  21.209  13.449
12930W        W76489  39.993  30.469   0.778
12931W        W76490  33.884  39.965   5.682
12932W        W76491  30.491  22.647  10.609
12933W        W76492  10.843  23.517  11.580
12934W        W76493  33.887  40.027  10.115
12935W        W76494  15.134  36.482   0.903
12936W        W76495   0.465   0.945  11.579
12937W        W76496  36.924  40.308  10.492
12938W        W76497  12.646  20.549  14.919
12939W        W76498  29.971   9.276  12.824
12940W        W76499   7.822  20.108   0.752
12941W        W76500  27.510   6.272  12.435
12942W        W76501   4.272   7.740   2.301
12943W        W76502  28.936  16.628   1.282
12944W        W76503  36.534  24.036  10.569
12945W        W76504   8.748  33.955   5.230
12946W        W76505  41.809  29.595   0.885
12947W        W76506  44.354  27.002  10.960
12948W        W76507  23.215  41.326  14.820
12949W        W76508  33.598   8.267  14.412
12950W        W76509  38.344   4.344  12.468
12951W        W76510  34.522  39.918   4.597
12952W        W76511  23.692  10.803   4.279
12953W        W76512  39.512   1.479  14.761
12954W        W76513  20.698   4.431  14.499
12955W        W76514  12.673  38.919   4.223
12956W        W76515  39.813   6.184  12.504
12957W        W76516  32.125  43.913   3.373
12958W        W76517  20.128  18.153   2.781
12959W        W76518  44.361  24.518   4.685
12960W        W76519  41.003  27.133   0.880
12961W        W76520  22.513  28.116   0.828
12962W        W76521  33.481   6.778  12.942
12963W        W76522  30.962  30.552   2.226
12964W        W76523  16.653   7.830  13.903
12965W        W76524  21.574  13.307  14.867
12966W        W76525   3.796  21.581   3.286
12967W        W76526  38.350  15.729  13.521
12968W        W76527  24.526   2.936   1.918
12969W        W76528  32.000  19.170   2.383
12970W        W76529  12.219   9.696   5.199
12971W        W76530  24.658  30.546   2.870
12972W        W76531  18.683   7.673   2.803
12973W        W76532  19.706   7.277  10.960
12974W        W76533  28.585  40.834   0.935
12975W        W76534  13.814  32.636  11.550
12976W        W76535  30.434  38.905   2.672
12977W        W76536  33.068  23.656  12.380
12978W        W76537  24.600  44.800  14.482
12979W        W76538  27.147  34.518   0.454
12980W        W76539  39.537  35.450  10.075
12981W        W76540   6.343  24.225  13.960
12982W        W76541  29.960  44.475   2.729
12983W        W76542  31.092   3.943   1.280
12984W        W76543  13.802   8.791  11.101
12985W        W76544  28.052  27.956   1.301
12986W        W76545   3.910   2.333   1.322
12987W        W76546   2.825  16.164   2.862
12988W        W76547   3.420  21.540   3.376
12989W        W76548  13.830  18.206  14.489
12990W        W76549  35.889  27.644   1.741
12991W        W76550   3.226  15.781  12.994
12992W        W76551  37.996  34.378  10.624
12993W        W76552  29.159  16.123  12.062
12994W        W76553  25.976  22.170  12.376
12995W        W76554  10.852  44.836  13.471
12996W        W76555  44.010  17.663  12.925
12997W        W76556  26.616  34.408   4.699
12998W        W76557  39.466  36.017  12.379
12999W        W76558   5.933   2.249   2.675
13000W        W76559   6.714  37.366  12.459
13001W        W76560  20.238  44.413   3.700
13002W        W76561  17.302  42.455   4.332
13003W        W76562  34.948  16.122  13.830
13004W        W76563  30.931   7.218  10.519
13005W        W76564  28.175  34.460  13.502
13006W        W76565  19.755  33.018   4.646
13007W        W76566  44.871  11.778  10.946
13008W        W76567  15.273  40.986   1.723
13009W        W76568  39.509   3.334   5.258
13010W        W76569  31.086  12.709   2.713
13011W        W76570  13.152  33.021   0.302
13012W        W76571  19.114  39.906  12.394
13013W        W76572  17.754  15.607  14.480
13014W        W76573   2.330  16.107  10.894
13015W        W76574  26.636  36.044   1.896
13016W        W76575  16.136  23.172  12.504
13017W        W76576  17.245   9.213  14.890
13018W        W76577  23.562  38.543   3.791
13019W        W76578  39.810   7.736  13.025
13020W        W76579   6.250  34.492   4.643
13021W        W76580   5.695   0.343  12.577
13022W        W76581  41.824  23.532  12.024
13023W        W76582   4.273  13.345  14.874
13024W        W76583  22.056  14.725   4.265
13025W        W76584   5.248   5.866  12.470
13026W        W76585  41.296  10.359   0.359
13027W        W76586  42.826  14.100   4.247
13028W        W76587  28.474  28.075  12.074
13029W        W76588  39.913  42.860   4.277
13030W        W76589  34.468  15.305  12.534
13031W        W76590  31.432  19.708   4.251
13032W        W76591  42.895  38.500   2.843
13033W        W76592   3.269  27.599  10.110
13034W        W76593   3.360   2.747  14.299
13035W        W76594  38.358  37.884   2.361
13036W        W76595  31.630  26.137  10.435
13037W        W76596  39.887  12.362  10.933
13038W        W76597  35.560  28.505  14.925
13039W        W76598  24.145   5.871  10.503
13040W        W76599  25.519  40.024  11.604
13041W        W76600  42.900  40.461   0.462
13042W        W76601   8.259  34.110   3.250
13043W        W76602   8.771  14.653  12.460
13044W        W76603  10.274   2.315  11.527
13045W        W76604  10.678   2.726   2.255
13046W        W76605  21.151  29.974  12.081
13047W        W76606  38.368  41.820  11.922
13048W        W76607  22.668  10.850  10.936
13049W        W76608  29.600  14.611   4.694
13050W        W76609  23.733  20.107   3.284
13051W        W76610  24.115  39.955  11.017
13052W        W76611  41.008  29.517  10.618
13053W        W76612  21.576  11.725   4.745
13054W        W76613  22.129   6.723   2.270
13055W        W76614  10.735  26.485  10.588
13056W        W76615  14.708  40.486  13.899
13057W        W76616   2.880  10.288  10.589
13058W        W76617  24.152   7.781  10.916
13059W        W76618  38.475  25.663   0.266
13060W        W76619  13.786  26.102   0.382
13061W        W76620  18.062  43.500   0.821
13062W        W76621  28.478   8.316  11.033
13063W        W76622   9.288   0.838  10.963
13064W        W76623  43.942  28.131  14.778
13065W        W76624  17.119   8.270   3.770
13066W        W76625  40.022  42.384  11.419
13067W        W76626   6.291  11.799  12.380
13068W        W76627  10.339   9.730   4.620
13069W        W76628   3.283  21.605  14.510
13070W        W76629   1.862   0.401   2.227
13071W        W76630  26.127  36.461   4.737
13072W        W76631  44.432  31.622  12.985
13073W        W76632  22.042  14.328   3.345
13074W        W76633  44.860  20.206  11.482
13075W        W76634  39.483  42.018   0.740
13076W        W76635  12.351  10.320   1.848
13077W        W76636   6.216   3.765   0.746
13078W        W76637  13.788  40.861   3.314
13079W        W76638  10.336  22.174  14.030
13080W        W76639  41.326  34.019  11.508
13081W        W76640  11.140  10.694  12.545
13082W        W76641  31.430  12.340  14.971
13083W        W76642  23.095  15.314   3.362
13084W        W76643  19.159   8.198  12.022
13085W        W76644   3.306   2.895  11.518
13086W        W76645  22.607  14.707  13.380
13087W        W76646  42.491  10.655   4.230
13088W        W76647  36.012  37.846   0.275
13089W        W76648  41.022   3.363   1.368
13090W        W76649  34.896  39.371   0.938
13091W        W76650  44.433  34.991   2.712
13092W        W76651  18.558  22.549   3.355
13093W        W76652   4.907   8.315  12.981
13094W        W76653  25.216   1.883   0.480
13095W        W76654   0.874  10.280   2.879
13096W        W76655  43.018  23.717   4.672
13097W        W76656  42.516  33.602   2.381
13098W        W76657   7.241  29.940  11.451
13099W        W76658  36.450  17.201  11.932
13100W        W76659  23.195   6.686  11.393
13101W        W76660  16.121  38.929   4.724
13102W        W76661  12.660  36.535   1.741
13103W        W76662   2.824  24.481  12.557
13104W        W76663  24.701  19.623   4.800
13105W        W76664  25.211  25.476   4.151
13106W        W76665   1.829  22.136   0.293
13107W        W76666  28.583   6.361  13.437
13108W        W76667   0.752  22.053  12.828
13109W        W76668  28.599   9.260   0.757
13110W        W76669  40.336  29.630  14.349
13111W        W76670  22.223  27.492   0.478
13112W        W76671  39.836  36.400  10.483
13113W        W76672  11.782  29.954  14.821
13114W        W76673  11.297  37.515  11.558
13115W        W76674  22.168  29.034  12.897
13116W        W76675   8.731  36.052   3.229
13117W        W76676  20.068  41.969   2.792
13118W        W76677  44.984  29.082  14.859
13119W        W76678  38.849  38.962   0.918
13120W        W76679  32.089  13.689  13.424
13121W        W76680  29.140  33.941  10.992
13122W        W76681   1.818   1.908  14.458
13123W        W76682  10.750  12.157  11.033
13124W        W76683  11.665   6.695   1.851
13125W        W76684  35.954  22.717   0.439
13126W        W76685  26.104   2.786  11.080
13127W        W76686  12.353  23.089   4.704
13128W        W76687  38.836   2.936   0.810
13129W        W76688  42.907  22.014   3.307
13130W        W76689  23.519  34.523  11.091
13131W        W76690  30.017  22.072   4.336
13132W        W76691   7.304  17.127   3.754
13133W        W76692  20.207  31.472  11.939
13134W        W76693  15.221  21.022   3.862
13135W        W76694  38.422  33.455   0.961
13136W        W76695  14.152   6.736   1.751
13137W        W76696   1.959  35.553   1.233
13138W        W76697   3.299  26.134   2.703
13139W        W76698  16.080  31.567  14.335
13140W        W76699  20.224  14.310   0.887
13141W        W76700   6.274  27.673  13.364
13142W        W76701  29.972  36.066  11.913
13143W        W76702  34.526  30.133  12.988
13144W        W76703   1.792  43.374  13.450
13145W        W76704   2.784  41.458   1.432
13146W        W76705  44.976   4.715   1.926
13147W        W76706  44.383   7.179  12.892
13148W        W76707  10.720  35.485   3.386
13149W        W76708  15.106  30.064  14.467
13150W        W76709  27.629   1.300  11.406
13151W        W76710  22.559  34.038  13.526
13152W        W76711  40.477   1.377   1.780
13153W        W76712   3.282   1.414  11.006
13154W        W76713  29.606  25.699   2.858
13155W        W76714  32.569  36.467   0.740
13156W        W76715  23.493  14.648   4.300
13157W        W76716  17.712  41.395   3.331
13158W        W76717  10.861   4.288  10.499
13159W        W76718  22.113  42.455   1.765
13160W        W76719  15.803  33.472  13.898
13161W        W76720   5.383  12.741   2.209
13162W        W76721   6.361  18.654   2.728
13163W        W76722  28.185  20.029  11.416
13164W        W76723  16.598   8.357   9.999
13165W        W76724  34.454  20.092   2.300
13166W        W76725  40.873  12.849   0.740
13167W        W76726  33.503  14.753  12.516
13168W        W76727  42.788  20.540   2.753
13169W        W76728  29.630  20.713   0.922
13170W        W76729  42.851  37.011   4.187
13171W        W76730  39.471   5.780  12.001
13172W        W76731  10.379  40.938   1.290
13173W        W76732  20.216  34.542   2.690
13174W        W76733  24.152   1.930   2.238
13175W        W76734  13.630  35.853  11.920
13176W        W76735   8.322  28.943   4.114
13177W        W76736   9.665   4.320   4.835
13178W        W76737   7.846  36.021   1.909
13179W        W76738  23.691  38.054   0.839
13180W        W76739   7.326  38.516  14.469
13181W        W76740  15.131  30.066  12.852
13182W        W76741  44.955  16.686   0.418
13183W        W76742  21.591  29.617  11.930
13184W        W76743  28.130  17.116  12.400
13185W        W76744  36.485  35.010   0.749
13186W        W76745  11.273  25.594   1.428
13187W        W76746  42.781  10.781   0.842
13188W        W76747  18.086  38.471   2.327
13189W        W76748  17.252   2.449  10.498
13190W        W76749  19.170  27.641   3.688
13191W        W76750  16.760  19.179  13.795
13192W        W76751  41.867  36.592  10.507
13193W        W76752  20.551   2.464   0.736
13194W        W76753  16.183  12.826  11.517
13195W        W76754  36.559  12.277  11.537
13196W        W76755  33.457  44.863  10.092
13197W        W76756  40.372  35.521  14.853
13198W        W76757  18.703  14.665   4.781
13199W        W76758  20.732  25.696  11.898
13200W        W76759  33.525   7.683   2.810
13201W        W76760  33.891  41.879   1.336
13202W        W76761  42.436  41.446   4.758
13203W        W76762  29.042  14.306  14.825
13204W        W76763   6.841  35.094  10.954
13205W        W76764  32.902  12.117   0.455
13206W        W76765  42.358   3.752  12.021
13207W        W76766   2.827  41.523  14.937
13208W        W76767  39.045  38.365  12.548
13209W        W76768   4.717  17.599  14.384
13210W        W76769   0.872  31.514   3.667
13211W        W76770   5.789  35.912  10.478
13212W        W76771  11.791  19.572   0.409
13213W        W76772  27.980  20.713   2.373
13214W        W76773   2.799  20.031  13.842
13215W        W76774   0.852   0.835  13.333
13216W        W76775  31.000  21.183   9.951
13217W        W76776  38.419  40.978  12.355
13218W        W76777  22.030   1.468   1.747
13219W        W76778   1.355  39.469   0.387
13220W        W76779  42.377  17.774   4.197
13221W        W76780  24.107   9.327  14.299
13222W        W76781  18.195  38.041  12.005
13223W        W76782  24.611  29.961  12.831
13224W        W76783  30.584  41.534   2.285
13225W        W76784  15.701   1.834  12.846
13226W        W76785   3.870  24.702  13.849
13227W        W76786   3.874  13.260   3.376
13228W        W76787  42.794  17.661  14.023
13229W        W76788  44.008  31.150  11.571
13230W        W76789  23.509  34.888  14.871
13231W        W76790  42.381  15.617  13.052
13232W        W76791   2.949  17.279  14.012
13233W        W76792  13.632   1.876  14.762
13234W        W76793   3.277  31.404  10.571
13235W        W76794  17.623  38.962   0.782
13236W        W76795  19.612   2.339  11.035
13237W        W76796  41.001  36.526   3.779
13238W        W76797   4.780  28.135  14.930
13239W        W76798   7.871  33.609  12.972
13240W        W76799  19.117  32.449  10.641
13241W        W76800  35.432  18.694   1.264
13242W        W76801   3.798  20.645   2.720
13243W        W76802   3.273   4.369   3.713
13244W        W76803  39.489  41.823   0.389
13245W        W76804   6.907  18.719   3.677
13246W        W76805   9.309  13.816  11.515
13247W        W76806  11.706  24.512  11.471
13248W        W76807  43.426  27.560  11.595
13249W        W76808   0.431   0.438  11.871
13250W        W76809  22.535  28.551   2.879
13251W        W76810  24.039   3.773  11.459
13252W        W76811  21.529  38.990   2.412
13253W        W76812  34.452  43.323   2.357
13254W        W76813   3.904  32.617   3.644
13255W        W76814   4.837  29.016   1.300
13256W        W76815  20.734  40.050  13.947
13257W        W76816   8.853  15.640  14.321
13258W        W76817   6.410  36.000  13.925
13259W        W76818  27.098   1.248   0.325
13260W        W76819  44.265  20.168   4.656
13261W        W76820  19.666  35.365   2.805
13262W        W76821  39.342  42.441  14.293
13263W        W76822  10.260  24.634  13.501
13264W        W76823  29.976  30.068  15.000
13265W        W76824  21.672  34.590   3.633
13266W        W76825  15.757  35.549   1.840
13267W        W76826   9.814  10.804   2.785
13268W        W76827  41.834  26.474  14.905
13269W        W76828  12.763  15.319   0.851
13270W        W76829  31.025  14.111  13.798
13271W        W76830  31.419   3.737   3.711
13272W        W76831  19.241  36.050  14.774
13273W        W76832  41.437  31.565  11.388
13274W        W76833  21.591   5.897  11.565
13275W        W76834   8.662  15.611   3.364
13276W        W76835  23.620  24.516  14.883
13277W        W76836  42.516   4.781  11.602
13278W        W76837   1.259  41.845  12.386
13279W        W76838  23.076  37.430  13.479
13280W        W76839  13.173  20.122   2.399
13281W        W76840  41.790  33.005   0.866
13282W        W76841  41.821   3.398  13.892
13283W        W76842  38.523  13.218   0.284
13284W        W76843  25.190  30.099   0.339
13285W        W76844  17.128  22.068   0.892
13286W        W76845  39.947  39.437   4.195
13287W        W76846   6.909  23.124   1.313
13288W        W76847  42.306  20.555  11.447
13289W        W76848   5.707  19.626  12.989
13290W        W76849  37.354  10.773   3.736
13291W        W76850  42.906  15.751   0.899
13292W        W76851  33.435  24.984  13.016
13293W        W76852  39.336  30.623   1.352
13294W        W76853  11.731   8.239  12.351
13295W        W76854  11.141  39.977  10.492
13296W        W76855  27.016  12.238   2.743
13297W        W76856  29.013  37.515   0.455
13298W        W76857  43.801  44.936  11.397
13299W        W76858   1.293  40.527   0.889
13300W        W76859  33.104  39.001   3.169
13301W        W76860   9.327  34.869  11.118
13302W        W76861   3.397  28.035  11.987
13303W        W76862  21.706  33.541   0.965
13304W        W76863  23.644  12.807  11.871
13305W        W76864  14.755  23.562   0.823
13306W        W76865  16.588   4.439   0.744
13307W        W76866   1.856  43.910  14.014
13308W        W76867  31.505  34.445   3.767
13309W        W76868  26.556  21.030  12.955
13310W        W76869  27.074  12.716   2.798
13311W        W76870  40.943  19.281  11.454
13312W        W76871  24.489  30.555   4.207
13313W        W76872  35.455   0.769  10.616
13314W        W76873  15.148  34.454  14.888
13315W        W76874  44.486  10.753   2.724
13316W        W76875  23.161  44.897   3.864
13317W        W76876   3.861  28.173   3.229
13318W        W76877   6.836  29.547  14.327
13319W        W76878   3.240  33.480  13.344
13320W        W76879  39.335  33.567   3.675
13321W        W76880  24.578  43.905   3.197
13322W        W76881  40.862  30.537  12.022
13323W        W76882  39.015  20.184   0.419
13324W        W76883  41.944  23.504  13.000
13325W        W76884   5.272  11.681  13.453
13326W        W76885  16.259  33.029   0.806
13327W        W76886  17.098  38.426   4.820
13328W        W76887  21.032   5.403   4.768
13329W        W76888  27.581   1.453   4.609
13330W        W76889  13.646  17.174  12.897
13331W        W76890  41.987   5.300   1.364
13332W        W76891  21.074  15.283   9.985
13333W        W76892  23.668  23.169   4.128
13334W        W76893  27.131   3.898   1.339
13335W        W76894  26.644   8.180   5.164
13336W        W76895   5.864  21.685  13.852
13337W        W76896   2.836  12.263  13.374
13338W        W76897  35.066  43.018   4.330
13339W        W76898  33.505   1.906   2.704
13340W        W76899  36.980  13.800   2.415
13341W        W76900   9.384  27.037   1.418
13342W        W76901   7.300  25.998  11.994
13343W        W76902   0.818  38.464   0.309
13344W        W76903  30.574  27.663   0.442
13345W        W76904  10.251  10.664   3.373
13346W        W76905  44.303  41.319   2.882
13347W        W76906  41.860  33.874   0.809
13348W        W76907  10.280  23.729  14.348
13349W        W76908   0.252  40.010   1.382
13350W        W76909  25.653  37.579   4.692
13351W        W76910  35.472  35.381  11.952
13352W        W76911  40.433   8.756  11.509
13353W        W76912  42.878  26.186   2.690
13354W        W76913  42.511  34.550  11.027
13355W        W76914   9.306  43.407   1.379
13356W        W76915   5.325  44.367  12.492
13357W        W76916  14.109  40.346   0.243
13358W        W76917  23.150  27.459  10.573
13359W        W76918   5.215   8.818   2.897
13360W        W76919  36.062  10.723   0.774
13361W        W76920   8.803  30.048   1.703
13362W        W76921  17.247  36.015  11.464
13363W        W76922  11.258  30.587  13.389
13364W        W76923  18.656  15.306  11.077
13365W        W76924  38.902   0.423  10.603
13366W        W76925  25.475  12.156   0.944
13367W        W76926   0.476  18.721  10.615
13368W        W76927   5.319  40.952  12.058
13369W        W76928  26.489  40.371  12.855
13370W        W76929   0.494  44.877  14.979
13371W        W76930  25.046  40.881  11.038
13372W        W76931  33.950   2.428   4.199
13373W        W76932  26.531  12.855   0.291
13374W        W76933  38.551  17.123  12.470
13375W        W76934  41.936   1.315   3.664
13376W        W76935   3.881  16.315   4.697
13377W        W76936   3.954  20.118   3.187
13378W        W76937   2.743  28.490  12.980
13379W        W76938  18.790  35.581   3.165
13380W        W76939   4.845  43.829   3.865
13381W        W76940   8.743   1.776  14.907
13382W        W76941  30.523  36.017   1.393
13383W        W76942  11.159   4.370  13.402
13384W        W76943  21.097  16.745  13.386
13385W        W76944  19.570   9.657  10.541
13386W        W76945  36.960  36.526   3.651
13387W        W76946  22.030  22.686   1.247
13388W        W76947   5.887  43.782  13.052
13389W        W76948  14.192  38.377   4.834
13390W        W76949  25.501   7.319  11.038
13391W        W76950  38.009  16.616  10.440
13392W        W76951  26.581   1.280   3.275
13393W        W76952  31.498  35.972  12.047
13394W        W76953  12.783  44.345   4.679
13395W        W76954  43.855  32.481   1.440
13396W        W76955  37.467  36.400  11.876
13397W        W76956  11.701  32.991  11.433
13398W        W76957  19.711  25.632  11.476
13399W        W76958  30.032  13.175   2.182
13400W        W76959  18.087  41.371   4.697
13401W        W76960  34.075  44.992  11.583
13402W        W76961  44.886   6.270   2.758
13403W        W76962   2.415  38.398   1.320
13404W        W76963  23.172  17.702   1.363
13405W        W76964   0.793  26.093  13.437
13406W        W76965  38.547  18.588   4.725
13407W        W76966  31.510  13.320   3.758
13408W        W76967  20.547   9.268   2.286
13409W        W76968  14.256  24.013   0.329
13410W        W76969  42.418  12.772   1.781
13411W        W76970  22.695  31.135  12.505
13412W        W76971  39.326  38.362  14.505
13413W        W76972  28.567   4.724   1.901
13414W        W76973  10.870  44.916  10.942
13415W        W76974   6.310  34.513   2.900
13416W        W76975  17.161   8.764   0.249
13417W        W76976  14.809   0.805  10.466
13418W        W76977  14.261  28.934  11.007
13419W        W76978  41.452   9.735   2.760
13420W        W76979   9.185  25.578  14.813
13421W        W76980  39.412   7.371  14.957
13422W        W76981  23.136  41.916  11.055
13423W        W76982  33.421   2.901   0.904
13424W        W76983  37.032  32.500   4.285
13425W        W76984  30.658  17.219  13.380
13426W        W76985  31.045  33.528  12.392
13427W        W76986  40.811  27.682  12.028
13428W        W76987   6.184  10.175  13.399
13429W        W76988  23.654  17.115   3.680
13430W        W76989  15.719  34.399  12.071
13431W        W76990   4.907   4.765  11.441
13432W        W76991  34.091  40.048  14.416
13433W        W76992  36.593  35.593  10.991
13434W        W76993  23.113  30.523   1.434
13435W        W76994  44.482   7.674  13.431
13436W        W76995   4.290  16.283  13.421
13437W        W76996  33.067  31.965   4.735
13438W        W76997  19.231  28.639  12.019
13439W        W76998   8.688  38.402  12.954
13440W        W76999  34.383   6.181  12.555
13441W        W77000  29.507  40.015   0.947
13442W        W77001  31.105   1.940  14.486
13443W        W77002  10.686  21.720  14.946
13444W        W77003  33.530   1.951  10.579
13445W        W77004  23.560  33.388  14.325
13446W        W77005   7.692   8.225   3.846
13447W        W77006  17.077   6.389  12.375
13448W        W77007  13.681  21.654  12.544
13449W        W77008   8.691  25.587  11.097
13450W        W77009  15.703  39.498   1.330
13451W        W77010  14.300  42.999   9.920
13452W        W77011  27.017   4.843  11.082
13453W        W77012  35.883  10.154  11.390
13454W        W77013   3.865  26.054   2.870
13455W        W77014  30.115  17.228  12.070
13456W        W77015  14.267  40.831   4.757
13457W        W77016  28.616  33.485  11.930
13458W        W77017   7.802  35.358  14.454
13459W        W77018   0.786  12.130   3.766
13460W        W77019  38.387  16.266  14.373
13461W        W77020  36.496  27.655  12.430
13462W        W77021  26.530  41.472  10.631
13463W        W77022  40.820  35.413  11.872
13464W        W77023  38.003  43.904   2.408
13465W        W77024   6.333  30.086   3.172
13466W        W77025  13.173  18.562  10.508
13467W        W77026   1.796   6.288   3.238
13468W        W77027  29.643  41.842  10.587
13469W        W77028  20.751  19.106   0.913
13470W        W77029  31.424  30.095   4.721
13471W        W77030  41.461  40.393  12.400
13472W        W77031  43.765  34.449   4.684
13473W        W77032  25.044  19.758   2.240
13474W        W77033  26.171   5.421   2.677
13475W        W77034   9.669   5.395  14.393
13476W        W77035  24.186  12.697  13.496
13477W        W77036  33.984  17.081   1.874
13478W        W77037  25.683  23.145  13.425
13479W        W77038  43.355  38.904   2.214
13480W        W77039  36.890  36.480   2.397
13481W        W77040  16.245  22.538  14.840
13482W        W77041   9.237  34.578   3.244
13483W        W77042  25.683  14.793   1.298
13484W        W77043  44.983   9.257  11.400
13485W        W77044   1.943  43.473   1.851
13486W        W77045  10.204  39.053  10.966
13487W        W77046  32.082  32.505   1.913
13488W        W77047  17.565   6.748  12.042
13489W        W77048  20.198  17.117  12.953
13490W        W77049  27.575  16.305  10.895
13491W        W77050   1.823  26.106  14.976
13492W        W77051   8.175  33.931  11.005
13493W        W77052  17.105  38.466  14.977
13494W        W77053  18.234  41.818   0.461
13495W        W77054  42.926  10.138   4.234
13496W        W77055  32.120  22.643  12.896
13497W        W77056  15.159   3.382   4.319
13498W        W77057  14.818  18.612  13.419
13499W        W77058  20.702  31.152   3.799
13500W        W77059   3.242  11.849  14.354
13501W        W77060  22.558   6.238  13.425
13502W        W77061  19.256  10.768   3.677
13503W        W77062  27.522  12.343  11.970
13504W        W77063  30.601  41.890  13.494
13505W        W77064   4.388  29.634   1.375
13506W        W77065  17.137  25.633   0.459
13507W        W77066  35.468   2.411  14.465
13508W        W77067  13.145  28.017   4.303
13509W        W77068  34.866  21.687   4.192
13510W        W77069  17.230  16.687  10.619
13511W        W77070  34.497  10.156   4.716
13512W        W77071  37.344  15.122   4.694
13513W        W77072   0.348  24.679  14.310
13514W        W77073   8.864   0.473   2.401
13515W        W77074  31.057  15.629   2.240
13516W        W77075   2.308  24.549   3.259
13517W        W77076  23.990   1.884  11.529
13518W        W77077  21.018  19.641  11.123
13519W        W77078  34.528  16.729   1.286
13520W        W77079   1.824  26.500   4.288
13521W        W77080   3.877  40.969  13.373
13522W        W77081  16.607  19.617   0.416
13523W        W77082  24.187  20.695  11.384
13524W        W77083  25.148  11.267  11.899
13525W        W77084   8.857  21.160  11.078
13526W        W77085  38.011  23.600   1.372
13527W        W77086  20.240  29.597   4.352
13528W        W77087  20.581  41.843  14.811
13529W        W77088  38.504  28.079  10.949
13530W        W77089  19.660  22.588  14.380
13531W        W77090   4.258  33.098  14.440
13532W        W77091  24.000  12.128  12.417
13533W        W77092  12.181  15.191  13.366
13534W        W77093  40.830  38.448  10.599
13535W        W77094   0.885  25.170   1.307
13536W        W77095   1.356  30.981  13.850
13537W        W77096  33.621  39.877   1.358
13538W        W77097  12.179  22.514  14.843
13539W        W77098  37.973  37.895  13.531
13540W        W77099  32.902  30.629   1.866
13541W        W77100  32.118  19.158  11.611
13542W        W77101  21.022  25.118  11.447
13543W        W77102  27.571  30.057   0.400
13544W        W77103  18.233  19.610   0.874
13545W        W77104   0.868  33.461   0.957
13546W        W77105  25.008   8.854  11.612
13547W        W77106  30.463  35.910  14.341
13548W        W77107   9.167   3.753  11.414
13549W        W77108   7.860  31.921   1.819
13550W        W77109   2.810  35.463  12.404
13551W        W77110  26.667  38.066   2.867
13552W        W77111  23.116  25.497  14.880
13553W        W77112  18.261  31.438  13.474
13554W        W77113  12.818  34.435   3.702
13555W        W77114  31.033  23.227  14.762
13556W        W77115   4.706  44.450  10.491
13557W        W77116  10.259  11.153   1.323
13558W        W77117  44.339  26.191  11.927
13559W        W77118  12.186  12.280  10.075
13560W        W77119  32.563  35.930   4.160
13561W        W77120   0.275  16.232  14.860
13562W        W77121   4.773  26.654  12.050
13563W        W77122   9.341  31.015   0.326
13564W        W77123  17.665  17.186   1.713
13565W        W77124  16.262  24.079  11.860
13566W        W77125  37.455  11.139  14.798
13567W        W77126   7.889  16.223  11.510
13568W        W77127   5.327  44.417   0.245
13569W        W77128  39.972  23.556  14.874
13570W        W77129  41.299  22.195  14.846
13571W        W77130   3.223  26.498   0.361
13572W        W77131  28.027  11.205   4.276
13573W        W77132  23.153  36.967   4.210
13574W        W77133  13.675  34.026  11.953
13575W        W77134  18.782  40.047   1.918
13576W        W77135  25.623  32.127  13.869
13577W        W77136  20.076  23.565  10.158
13578W        W77137  17.297  26.091  14.293
13579W        W77138   3.337  34.957  11.982
13580W        W77139   7.689  28.539   0.249
13581W        W77140  38.930  13.317   0.898
13582W        W77141  44.477  23.532   2.803
13583W        W77142  14.737  20.533  13.924
13584W        W77143  13.249  13.261  14.493
13585W        W77144  12.792  22.598  10.123
13586W        W77145   5.713  40.036  12.078
13587W        W77146  44.304  18.559  13.835
13588W        W77147  35.456  35.044   0.890
13589W        W77148  38.422  21.208   0.817
13590W        W77149   5.920  38.963   0.737
13591W        W77150  14.174   3.407  10.461
13592W        W77151   4.740  43.428  10.557
13593W        W77152  32.423   1.448   4.669
13594W        W77153  17.657   7.757  11.892
13595W        W77154  34.990  18.082  11.476
13596W        W77155  13.145  28.574   1.826
13597W        W77156  20.144  29.932   0.916
13598W        W77157  13.351  12.622  14.507
13599W        W77158  26.605   6.682  12.425
13600W        W77159  36.527  10.320   3.640
13601W        W77160  26.661  28.599   3.227
13602W        W77161  38.949  10.246  11.467
13603W        W77162  23.571  31.437  10.500
13604W        W77163   5.249  40.852  10.503
13605W        W77164   8.333  32.982  14.879
13606W        W77165  23.063  26.547   4.749
13607W        W77166  24.710   2.424   4.246
13608W        W77167   8.308  28.126   0.328
13609W        W77168  25.631  43.983   1.340
13610W        W77169   2.774  20.077  12.019
13611W        W77170  39.967  14.334  12.878
13612W        W77171  33.944  37.034  13.945
13613W        W77172  29.038  22.598   3.160
13614W        W77173  28.955  13.182   2.795
13615W        W77174  33.410   0.958  14.991
13616W        W77175  16.570  35.462   3.804
13617W        W77176  14.739  37.931  11.919
13618W        W77177  12.745  22.580   0.891
13619W        W77178   9.161  12.768  14.479
13620W        W77179  33.887  32.920   3.844
13621W        W77180   9.269  17.769   4.172
13622W        W77181  27.108  13.308   3.146
13623W        W77182  14.695  18.120   3.220
13624W        W77183  10.790  10.794  13.423
13625W        W77184  28.173  35.905  11.068
13626W        W77185  16.160  36.021  13.429
13627W        W77186  26.633  24.659  11.480
13628W        W77187  35.602  34.472  14.355
13629W        W77188  34.544  42.358   2.351
13630W        W77189  36.409  20.529  13.323
13631W        W77190   7.709  34.496  14.400
13632W        W77191  29.117  26.529  11.075
13633W        W77192  14.758  39.814  12.894
13634W        W77193  43.017  41.458   2.748
13635W        W77194  24.075  37.404  10.904
13636W        W77195  41.829  13.626  13.799
13637W        W77196   8.755   3.397  11.935
13638W        W77197   2.397   7.287   1.222
13639W        W77198  30.620  17.682   4.817
13640W        W77199   3.729  13.675  14.422
13641W        W77200  44.961  29.490   3.380
13642W        W77201  13.805  30.544   2.301
13643W        W77202  13.781  21.018   0.475
13644W        W77203  44.832   5.887  13.042
13645W        W77204  21.069   8.796  12.493
13646W        W77205  24.157   6.714  13.335
13647W        W77206  25.564  12.841  10.513
13648W        W77207  37.890  43.334   0.877
13649W        W77208  20.672  14.811   1.738
13650W        W77209  39.842  32.578   5.180
13651W        W77210  25.174  30.070  14.891
13652W        W77211  11.684  28.085  12.003
13653W        W77212  13.730  12.222   4.351
13654W        W77213  42.955  40.031  10.918
13655W        W77214  30.620  39.333  12.887
13656W        W77215  29.138  23.009   4.773
13657W        W77216  32.030  23.118   0.415
13658W        W77217  44.974  19.099  11.582
13659W        W77218  12.305   5.693   5.265
13660W        W77219   1.978  13.762  10.644
13661W        W77220   9.856  33.383   3.289
13662W        W77221  11.813  27.115  13.458
13663W        W77222  37.559  34.437  10.450
13664W        W77223  44.797   4.217   0.410
13665W        W77224   3.444  35.968   4.201
13666W        W77225  35.496   1.734   1.386
13667W        W77226   6.225  19.578   3.376
13668W        W77227  21.561  21.546   2.331
13669W        W77228  13.237  41.520  11.478
13670W        W77229  25.656  25.491  12.087
13671W        W77230  29.599  38.012  11.129
13672W        W77231  11.183  41.873   1.930
13673W        W77232  32.972  33.502   1.276
13674W        W77233  33.489  19.065  12.929
13675W        W77234  20.596  12.674   1.796
13676W        W77235   0.398  15.762   3.190
13677W        W77236  24.553  19.601  13.409
13678W        W77237  33.019  37.406   4.616
13679W        W77238  44.350  15.598   1.334
13680W        W77239   1.790  10.296   1.719
13681W        W77240  36.897  34.034  14.823
13682W        W77241  17.140  13.191  11.065
13683W        W77242  30.053  20.738  12.540
13684W        W77243   6.810  16.656  13.449
13685W        W77244  36.854  10.151  10.417
13686W        W77245  28.474  30.574   2.742
13687W        W77246  24.620  34.493  13.932
13688W        W77247  43.818  31.112   3.637
13689W        W77248  40.535  35.899  14.805
13690W        W77249  42.341  33.932  14.014
13691W        W77250  11.196   7.851   3.216
13692W        W77251  37.401  15.327  12.550
13693W        W77252   1.941   9.833   0.773
13694W        W77253  39.856  14.301   1.312
13695W        W77254  41.868  26.459  14.382
13696W        W77255  41.829  34.033  10.501
13697W        W77256  11.168  34.553  14.989
13698W        W77257  39.868  13.299  11.944
13699W        W77258  29.038   9.297   4.794
13700W        W77259   9.663  25.065  12.919
13701W        W77260   4.433  31.991  10.453
13702W        W77261  44.505   0.791   3.839
13703W        W77262  14.705  22.598   3.760
13704W        W77263  20.200  30.537   1.834
13705W        W77264  16.072   6.920   1.721
13706W        W77265  21.743  37.925   3.769
13707W        W77266   1.323   5.364  12.505
13708W        W77267  17.652  27.044   1.308
13709W        W77268   2.450  15.761  11.381
13710W        W77269  44.812   1.321  13.503
13711W        W77270  36.929  16.592   2.898
13712W        W77271  16.621  44.330  13.341
13713W        W77272   0.950  43.824   0.471
13714W        W77273  20.705  27.563   2.685
13715W        W77274   4.240   3.242  13.320
13716W        W77275  23.670  19.269  10.967
13717W        W77276   2.469  30.568   2.805
13718W        W77277  32.615  11.713   0.926
13719W        W77278  27.947  34.421   3.353
13720W        W77279  16.694  22.203  11.077
13721W        W77280  42.783  35.466   2.402
13722W        W77281  44.951  29.469  11.038
13723W        W77282  34.880   3.428  14.976
13724W        W77283  14.144  42.876  13.470
13725W        W77284  29.011  13.264  13.435
13726W        W77285  16.726   2.389  10.438
13727W        W77286  36.845  19.069  10.969
13728W        W77287  30.447  12.359   3.336
13729W        W77288  17.270  15.177  10.414
13730W        W77289  27.190   6.406   3.762
13731W        W77290  25.082  42.423   4.303
13732W        W77291  14.756  38.358   3.349
13733W        W77292  42.914   0.861   2.810
13734W        W77293   1.350  32.504  12.988
13735W        W77294   9.779  16.227  14.817
13736W        W77295  22.094   7.816   2.705
13737W        W77296   3.347   7.209   2.696
13738W        W77297  42.385  16.117  11.398
13739W        W77298  18.782  35.447  13.037
13740W        W77299   6.239  27.567   2.768
13741W        W77300  17.303  12.831  10.057
13742W        W77301   5.215  28.116   4.686
13743W        W77302  17.747   9.271  12.556
13744W        W77303  40.490  11.692   4.628
13745W        W77304  13.264  17.231  11.037
13746W        W77305  31.950  14.615   0.293
13747W        W77306  21.240  17.176  11.967
13748W        W77307  40.837  37.040  11.389
13749W        W77308  14.804  28.968   2.862
13750W        W77309  39.882   5.791  14.360
13751W        W77310  38.974   7.366  11.035
13752W        W77311   0.326  24.226   1.448
13753W        W77312  14.157  39.317  11.552
13754W        W77313  26.123  10.747   2.807
13755W        W77314  18.665  14.247   3.765
13756W        W77315  13.833   8.337   0.284
13757W        W77316  14.810  18.173  11.925
13758W        W77317  39.414  21.088  11.040
13759W        W77318  40.956  20.242  11.985
13760W        W77319  22.656  21.050   4.699
13761W        W77320   0.265  37.052  10.559
13762W        W77321  14.673  36.549  11.057
13763W        W77322  43.987  24.201   0.297
13764W        W77323  38.896  34.053   2.304
13765W        W77324  39.922  33.569   4.643
13766W        W77325  38.406  40.483   1.708
13767W        W77326  23.024  10.360  14.870
13768W        W77327   7.820  10.257  14.972
13769W        W77328  17.699  24.172   3.206
13770W        W77329   5.249  35.421  11.103
13771W        W77330  44.960  18.166   0.817
13772W        W77331  43.793  10.633  12.873
13773W        W77332  30.551  14.148   0.730
13774W        W77333   0.324  15.697  11.399
13775W        W77334  21.199   4.747   1.238
13776W        W77335  32.436  24.168  12.368
13777W        W77336   3.372  13.819   0.747
13778W        W77337  23.227   8.829  10.433
13779W        W77338  22.245   1.418  14.338
13780W        W77339  37.498   4.806   5.082
13781W        W77340  11.210   6.220   1.324
13782W        W77341  11.342  22.649   1.768
13783W        W77342  19.675  40.967  12.533
13784W        W77343  28.442  31.075  12.940
13785W        W77344  16.317  15.238   4.303
13786W        W77345  23.001   7.313   2.268
13787W        W77346  41.402  15.117   4.202
13788W        W77347  28.499  17.204  11.931
13789W        W77348  20.759  26.701  12.874
13790W        W77349   8.687  20.755  13.322
13791W        W77350  39.494  14.240   3.376
13792W        W77351  12.188   1.796  10.978
13793W        W77352  40.046  37.848   0.304
13794W        W77353   7.374   0.263  13.487
13795W        W77354   1.913  27.536   3.249
13796W        W77355   2.470  30.519   1.896
13797W        W77356  23.717  42.002   3.296
13798W        W77357   4.786  31.564   0.472
13799W        W77358  23.009  37.434  12.840
13800W        W77359  13.686  11.756  13.923
13801W        W77360  25.048  23.540   0.937
13802W        W77361  36.951  17.112   1.361
13803W        W77362  31.560  15.328  12.461
13804W        W77363  13.832  35.903   0.476
13805W        W77364  42.858  13.654   3.704
13806W        W77365  20.669  26.547  12.379
13807W        W77366  11.840  14.182  11.391
13808W        W77367  31.075  44.860  13.318
13809W        W77368  25.114  41.000  13.435
13810W        W77369  15.322  31.101   0.741
13811W        W77370  19.117   9.185  11.091
13812W        W77371  17.600  24.626  13.403
13813W        W77372   4.941  36.530   4.306
13814W        W77373   9.709  20.233  13.876
13815W        W77374  20.205  22.746   2.417
13816W        W77375  43.938  41.468  13.883
13817W        W77376  18.286  37.362  10.976
13818W        W77377  30.942   0.480  11.944
13819W        W77378  23.159  43.808   3.341
13820W        W77379  39.867  42.824  14.388
13821W        W77380   3.413  20.082  13.455
13822W        W77381  13.737  16.075   3.376
13823W        W77382  11.211  12.686   2.760
13824W        W77383  43.442  29.522   3.780
13825W        W77384  32.129   0.759   2.664
13826W        W77385  12.209  18.660  14.451
13827W        W77386  32.561   1.287  13.355
13828W        W77387  12.672   3.774  13.054
13829W        W77388   1.429  10.383  11.924
13830W        W77389   1.476  16.311  11.027
13831W        W77390  40.977  10.660   3.735
13832W        W77391   6.774  16.596   3.854
13833W        W77392  34.515  28.082   1.895
13834W        W77393  42.476  14.144  13.971
13835W        W77394  20.709  29.457   1.337
13836W        W77395  13.222  12.662   2.399
13837W        W77396  21.161  30.481  12.025
13838W        W77397   4.448  19.154  14.392
13839W        W77398  10.690  14.681   1.696
13840W        W77399  37.362  16.285   0.480
13841W        W77400  22.589  43.019  11.551
13842W        W77401  26.125   6.356   3.218
13843W        W77402   4.239  27.572  14.448
13844W        W77403  30.448  27.069   3.368
13845W        W77404  17.560  20.602  10.544
13846W        W77405   5.740  15.776  12.424
13847W        W77406  39.999  35.524  10.966
13848W        W77407  41.848   7.802  14.510
13849W        W77408  14.328  15.135  14.316
13850W        W77409  29.586  36.391   0.320
13851W        W77410  31.565  24.504  12.035
13852W        W77411  32.550  18.260  11.491
13853W        W77412   2.313  18.723   2.227
13854W        W77413  43.005   2.416  11.874
13855W        W77414  25.669   9.242  12.092
13856W        W77415  21.050  24.197   2.769
13857W        W77416  44.848  32.561   2.245
13858W        W77417   8.160  11.333   0.958
13859W        W77418  33.993  42.847  12.001
13860W        W77419  39.321  44.874  11.438
13861W        W77420   3.858  11.209   2.292
13862W        W77421  21.561  41.034  14.898
13863W        W77422  28.109  16.080   0.247
13864W        W77423  33.961  33.523   2.874
13865W        W77424  39.911   3.780   0.767
13866W        W77425  37.436   8.835   0.833
13867W        W77426  20.592   4.417  13.851
13868W        W77427  23.217  21.625  10.541
13869W        W77428   9.649  12.671   5.621
13870W        W77429   5.249  42.461  11.013
13871W        W77430  37.511  22.012  10.436
13872W        W77431   7.394  29.945   2.301
13873W        W77432  38.358   1.323   1.783
13874W        W77433  17.065  21.198  10.996
13875W        W77434   1.325  15.817  11.121
13876W        W77435  30.589  43.455   3.199
13877W        W77436  21.061  30.969   1.379
13878W        W77437  28.996   9.332   1.280
13879W        W77438   5.368  16.319  13.904
13880W        W77439   9.799  44.414   0.349
13881W        W77440  44.921   9.782  13.941
13882W        W77441  14.271   1.472  11.936
13883W        W77442  21.675   1.869   1.413
13884W        W77443   9.328  31.052  14.031
13885W        W77444  30.109   2.849  11.554
13886W        W77445  15.767  43.814  14.482
13887W        W77446  31.590   8.873  13.840
13888W        W77447  44.000   4.745  13.413
13889W        W77448  39.901  31.141   3.739
13890W        W77449  29.600  11.842   1.699
13891W        W77450   6.328   4.252  10.898
13892W        W77451  30.470   6.244   1.383
13893W        W77452   6.399  22.732  12.427
13894W        W77453  16.085  36.976  12.564
13895W        W77454  39.002  21.703  11.455
13896W        W77455  40.023   3.303  11.896
13897W        W77456  43.909  18.127   4.760
13898W        W77457   7.742  21.555  10.956
13899W        W77458  27.038  35.369   2.258
13900W        W77459  20.764  15.286   3.203
13901W        W77460  22.687  23.163   4.697
13902W        W77461  37.851  41.940   1.932
13903W        W77462  22.148  34.592  11.034
13904W        W77463  29.631  44.348  10.600
13905W        W77464  38.499  13.150   0.838
13906W        W77465  19.276  41.384  10.936
13907W        W77466  27.635  28.171   1.795
13908W        W77467  39.989   1.420  12.496
13909W        W77468   6.728  32.555  13.423
13910W        W77469   4.810   6.261   4.832
13911W        W77470  32.950   0.843   3.659
13912W        W77471  39.533  11.322  11.093
13913W        W77472  27.684  22.150  14.858
13914W        W77473  12.312  40.947   1.292
13915W        W77474   9.364  28.016  14.829
13916W        W77475  13.730  16.725   3.755
13917W        W77476  34.530  35.991  10.495
13918W        W77477  44.967  18.773   0.813
13919W        W77478  17.752  40.514   1.734
13920W        W77479  27.120  18.761   2.310
13921W        W77480  13.647  39.871   2.325
13922W        W77481  16.270  24.625   3.777
13923W        W77482  15.284  11.217   3.768
13924W        W77483   7.410  42.833  14.830
13925W        W77484  35.469  20.254   1.883
13926W        W77485  16.796  11.291   0.887
13927W        W77486  27.167   3.774  10.546
13928W        W77487  15.635  11.642  10.509
13929W        W77488  18.121   0.484   3.799
13930W        W77489  28.564   8.393   4.248
13931W        W77490  39.849   1.759  10.568
13932W        W77491  11.173  33.601   5.305
13933W        W77492   5.912  38.923   3.705
13934W        W77493  41.858   1.453   0.813
13935W        W77494  36.585  24.204  14.393
13936W        W77495   3.904  38.459   4.730
13937W        W77496  39.050  41.403   5.282
13938W        W77497  12.631  44.350  14.028
13939W        W77498  29.057   0.874  14.961
13940W        W77499  30.078  25.086   4.286
13941W        W77500   8.862  32.011   3.260
13942W        W77501  32.139   4.429  11.901
13943W        W77502   3.710  38.827  13.437
13944W        W77503   9.322   1.294   3.744
13945W        W77504  12.199   9.303   3.279
13946W        W77505  12.235  19.732   0.296
13947W        W77506  22.204  38.502  11.996
13948W        W77507  24.649  16.616   4.169
13949W        W77508  44.331  35.385   4.308
13950W        W77509  23.552   7.305  10.964
13951W        W77510   1.934   6.280  12.959
13952W        W77511  37.009  25.530   2.747
13953W        W77512  32.397  35.403  13.856
13954W        W77513  40.956   7.840   0.350
13955W        W77514   9.732  22.733  14.927
13956W        W77515   1.790  44.759  13.541
13957W        W77516  43.344  25.559  10.455
13958W        W77517  32.613  27.657   0.480
13959W        W77518   7.251  20.047  12.826
13960W        W77519  15.209   1.953  14.974
13961W        W77520  10.847  31.010  14.390
13962W        W77521  25.050   7.884  13.336
13963W        W77522   0.362  36.959  14.837
13964W        W77523   6.698  36.902   0.307
13965W        W77524  14.624  30.553  12.463
13966W        W77525  17.245   2.842   1.258
13967W        W77526  21.076   7.814   4.714
13968W        W77527  34.455   6.837   2.339
13969W        W77528  31.555  35.958  12.360
13970W        W77529  17.190  13.195   3.272
13971W        W77530  38.913  11.130   5.103
13972W        W77531  16.246  10.827   2.409
13973W        W77532  29.500  35.020   2.798
13974W        W77533  33.988  44.837   4.603
13975W        W77534   3.858  29.626   1.438
13976W        W77535   9.873   9.801   4.798
13977W        W77536  35.919  22.687   0.853
13978W        W77537   8.262  39.931   0.836
13979W        W77538   6.427  35.853  13.408
13980W        W77539  35.890  19.275  12.967
13981W        W77540   4.403  25.660   3.705
13982W        W77541   8.270  34.914   2.297
13983W        W77542  33.479  34.929  12.086
13984W        W77543  20.709  39.420  12.877
13985W        W77544  24.142  18.618   1.812
13986W        W77545  27.185  15.674   0.890
13987W        W77546  18.216  14.619   0.953
13988W        W77547  38.448  41.503   0.829
13989W        W77548  42.997  16.606   4.828
13990W        W77549   8.256  18.694  14.922
13991W        W77550  27.484  43.501   3.759
13992W        W77551  40.010  15.313  12.025
13993W        W77552  37.881  19.672   2.187
13994W        W77553  11.728  12.775  14.436
13995W        W77554  14.289   6.695  13.793
13996W        W77555  23.519   2.893   0.348
13997W        W77556   2.323   9.157   2.387
13998W        W77557  30.136  30.043  13.505
13999W        W77558  40.346  10.869   0.854
14000W        W77559  11.857  10.310  11.502
14001W        W77560   6.269  18.694   1.868
14002W        W77561  42.351  17.735  11.883
14003W        W77562  32.128  20.227  14.889
14004W        W77563   1.442  40.966   2.183
14005W        W77564  21.590   6.771   3.377
14006W        W77565  35.867   1.395  14.403
14007W        W77566  36.416  38.962   2.673
14008W        W77567  31.919  16.173   2.251
14009W        W77568  39.559   8.696   1.386
14010W        W77569  20.740  23.590  12.008
14011W        W77570  21.072  42.493   1.315
14012W        W77571  14.774  25.655   3.341
14013W        W77572  19.093  38.891  10.535
14014W        W77573  38.424   5.821  13.056
14015W        W77574  34.086  27.082  10.610
14016W        W77575  24.667  35.903   4.835
14017W        W77576  39.037   3.783   1.843
14018W        W77577   1.870  42.028   3.713
14019W        W77578  34.466   2.884  12.572
14020W        W77579   4.289  44.297  13.367
14021W        W77580  22.557  41.489  14.471
14022W        W77581   0.475  21.696  11.110
14023W        W77582  34.922   0.487   3.795
14024W        W77583  17.062   8.399   9.959
14025W        W77584  27.557   9.825   9.541
14026W        W77585  39.932  26.989  14.461
14027W        W77586  35.852  31.579   4.180
14028W        W77587  19.081  26.532  12.341
14029W        W77588  13.731  28.472   1.775
14030W        W77589  17.125  29.027   3.182
14031W        W77590  14.170  26.172   4.224
14032W        W77591   7.407   1.836   0.775
14033W        W77592   1.278  33.398  11.550
14034W        W77593   0.965  29.502  13.823
14035W        W77594   9.780   3.240  14.431
14036W        W77595  10.861  34.931   0.911
14037W        W77596  16.105  36.388  14.776
14038W        W77597  13.836  43.907   0.830
14039W        W77598  35.416  33.443  14.292
14040W        W77599  28.512  31.472   3.226
14041W        W77600  11.199  17.093  10.997
14042W        W77601  27.064  35.362  10.546
14043W        W77602   8.284  41.034   4.733
14044W        W77603  18.756  11.165  12.872
14045W        W77604   1.843  28.150   2.323
14046W        W77605  19.608  10.869  11.002
14047W        W77606  38.519  40.804  12.928
14048W        W77607  33.564   4.298   3.842
14049W        W77608  11.832  23.510  11.947
14050W        W77609   4.882  13.308  12.923
14051W        W77610  25.635  34.007  13.061
14052W        W77611  19.111  22.095  10.628
14053W        W77612  44.923  36.980  14.493
14054W        W77613  17.165   6.889   4.680
14055W        W77614  11.684  19.727  14.971
14056W        W77615  43.924  15.120  12.917
14057W        W77616  20.640   6.402   4.124
14058W        W77617   4.340  12.116  14.820
14059W        W77618  37.409   3.919  10.521
14060W        W77619  35.056  10.163   0.422
14061W        W77620  31.489  19.536  13.962
14062W        W77621   2.356   2.417  14.991
14063W        W77622  32.633   9.181  10.976
14064W        W77623   8.888  27.041  11.072
14065W        W77624  14.193  39.856  13.383
14066W        W77625  42.791  23.718   3.385
14067W        W77626  11.741   2.295   1.719
14068W        W77627  29.481  19.080  14.767
14069W        W77628  18.776  20.184   2.731
14070W        W77629   2.787  28.949  12.974
14071W        W77630  41.375   5.264   4.319
14072W        W77631  41.932  15.265   4.127
14073W        W77632  17.563  10.249   1.396
14074W        W77633   4.892  26.633   2.392
14075W        W77634  40.930  42.341  13.979
14076W        W77635  23.733   6.402  10.524
14077W        W77636  10.778  30.530  12.877
14078W        W77637  17.279  25.166  11.495
14079W        W77638  26.208  16.608   2.742
14080W        W77639  18.142  14.799   3.742
14081W        W77640  38.828  31.066   3.162
14082W        W77641  31.979  29.631   3.669
14083W        W77642  39.339  41.300   4.307
14084W        W77643  29.666  28.938   1.748
14085W        W77644  29.967  27.067  12.831
14086W        W77645   0.882   9.690  13.343
14087W        W77646  17.689  19.119  14.366
14088W        W77647  36.492  12.766   1.353
14089W        W77648  38.539  36.884  12.056
14090W        W77649   8.671  11.172  10.073
14091W        W77650   0.397   3.714   0.927
14092W        W77651   7.774  14.615   4.622
14093W        W77652  33.901  43.441   3.866
14094W        W77653  13.299  14.155   0.304
14095W        W77654  12.653   8.841  13.514
14096W        W77655  15.297  27.640  14.777
14097W        W77656  40.029   0.837  13.543
14098W        W77657  26.538  27.082  13.375
14099W        W77658  38.877  16.802  13.916
14100W        W77659   3.886  16.203  10.506
14101W        W77660   4.385  28.005   3.215
14102W        W77661   4.845  41.968   4.618
14103W        W77662  40.026  18.143   0.876
14104W        W77663  24.975   2.344  11.929
14105W        W77664   5.801  20.760   0.817
14106W        W77665  22.066  44.868   1.415
14107W        W77666  35.525  28.136   0.316
14108W        W77667  21.519   3.791  10.623
14109W        W77668  13.744  42.464  13.796
14110W        W77669  26.055  19.614  13.351
14111W        W77670  43.291  35.585   0.908
14112W        W77671  14.322  34.540   2.315
14113W        W77672  42.019   9.227   2.200
14114W        W77673  21.238   9.267  12.036
14115W        W77674  13.608  25.693   1.807
14116W        W77675  19.623  37.869   4.326
14117W        W77676   7.892   1.255  13.954
14118W        W77677   0.787  27.449   0.735
14119W        W77678   2.913  22.511  12.577
14120W        W77679  27.989  23.010  14.417
14121W        W77680  12.228  25.046  12.532
14122W        W77681  19.701  16.251   1.345
14123W        W77682   7.219  39.495   4.837
14124W        W77683  16.119  37.857   4.131
14125W        W77684  36.075   9.712   1.245
14126W        W77685  43.497  19.201  13.520
14127W        W77686  27.073  36.497  14.906
14128W        W77687  23.014  41.031   0.899
14129W        W77688  13.672   3.844  12.987
14130W        W77689  20.534   0.895   4.662
14131W        W77690  43.275  18.785   1.890
14132W        W77691  18.154   8.751   4.802
14133W        W77692  24.113  31.059   0.766
14134W        W77693  20.629  21.198  13.867
14135W        W77694  37.480  18.291   1.413
14136W        W77695  19.567  29.045  10.928
14137W        W77696  33.595  20.076  14.947
14138W        W77697  41.464  40.032   0.322
14139W        W77698  17.627   2.341   1.853
14140W        W77699  23.570  13.264   4.250
14141W        W77700  11.198  42.976   3.228
14142W        W77701   4.820  42.934   2.757
14143W        W77702   9.865  27.940  13.360
14144W        W77703  10.309  25.198   4.653
14145W        W77704   5.333  24.194  11.907
14146W        W77705  12.279   0.864  12.063
14147W        W77706  33.909  34.919  11.096
14148W        W77707   7.327  32.898  12.431
14149W        W77708  24.713   3.939  13.355
14150W        W77709  15.199  41.004   0.821
14151W        W77710  15.099  23.684   1.301
14152W        W77711  26.608  42.339   2.882
14153W        W77712  28.507  18.235  12.093
14154W        W77713  37.565  13.297  13.396
14155W        W77714  15.716  34.019   0.320
14156W        W77715   2.923  16.177   0.393
14157W        W77716  13.727  17.122   2.311
14158W        W77717  32.096  36.447  12.550
14159W        W77718  21.189  24.608  14.010
14160W        W77719  37.064   2.964  13.354
14161W        W77720  39.915  44.290  14.977
14162W        W77721  27.968  34.521  12.895
14163W        W77722  23.647  32.548  13.477
14164W        W77723   5.871  33.055  14.798
14165W        W77724  20.145  44.486  14.023
14166W        W77725  17.643  15.261  13.015
14167W        W77726  26.592  23.119   3.685
14168W        W77727  16.180  39.968  11.407
14169W        W77728  25.186  14.819   1.781
14170W        W77729  35.450  22.246  13.438
14171W        W77730   1.771  42.960  12.048
14172W        W77731  22.251  28.472  12.568
14173W        W77732   9.733  31.018   2.728
14174W        W77733  36.458  34.958  14.393
14175W        W77734  24.515  13.666  11.474
14176W        W77735  43.393   1.922  11.096
14177W        W77736  39.058   8.895   1.352
14178W        W77737  41.496  13.323   0.752
14179W        W77738  29.426  30.427   3.153
14180W        W77739  42.468  36.485  14.339
14181W        W77740   9.192  13.789  13.816
14182W        W77741  28.113   3.741   2.352
14183W        W77742   3.291  30.158   2.346
14184W        W77743  14.601  43.909   2.240
14185W        W77744  27.477  35.357   0.883
14186W        W77745   6.407  12.790   3.232
14187W        W77746  32.393  35.889   1.725
14188W        W77747   5.200   4.215  13.380
14189W        W77748  33.470  13.746   0.249
14190W        W77749  37.059  11.322   3.272
14191W        W77750  31.547  23.205  12.573
14192W        W77751  13.615  41.325   2.190
14193W        W77752  22.014  31.521   2.900
14194W        W77753  12.753  19.126   4.786
14195W        W77754  30.509  25.612   3.760
14196W        W77755  41.952   4.808   0.876
14197W        W77756  30.015   6.219   3.256
14198W        W77757  17.772  17.684  12.001
14199W        W77758  32.059  23.185   3.311
14200W        W77759   1.424  12.656   2.371
14201W        W77760  25.538  43.431  13.868
14202W        W77761  44.892  18.616  13.994
14203W        W77762  36.559  20.075  14.767
14204W        W77763   6.921  17.652   1.869
14205W        W77764  20.682  35.902   3.786
14206W        W77765  25.012   0.269  14.496
14207W        W77766  28.094  29.541   3.200
14208W        W77767   5.868   8.203  11.011
14209W        W77768  21.128  22.503  12.543
14210W        W77769  39.037  36.527  10.515
14211W        W77770  37.554  30.577   4.730
14212W        W77771  20.547   2.275   1.331
14213W        W77772  40.807  21.032  10.565
14214W        W77773  44.960  13.201   4.817
14215W        W77774  38.004  39.918  13.017
14216W        W77775  10.203  17.653  13.473
14217W        W77776  43.965  16.285  13.808
14218W        W77777  37.917   5.413  11.523
14219W        W77778  21.535  16.649   2.286
14220W        W77779  17.078  18.181   0.418
14221W        W77780  41.993  36.041   3.726
14222W        W77781  32.985  40.903   1.259
14223W        W77782  43.833  28.599   0.813
14224W        W77783   2.465  33.440   2.242
14225W        W77784   8.656   4.271   0.878
14226W        W77785  11.336   2.739  12.952
14227W        W77786  18.153  38.878   3.640
14228W        W77787  31.402  20.556   2.361
14229W        W77788  15.745  19.240  14.417
14230W        W77789  35.425  41.915   0.274
14231W        W77790   1.318  26.566   2.805
14232W        W77791   7.836  29.999  12.472
14233W        W77792  13.633  39.862  12.085
14234W        W77793  25.088  14.716   2.848
14235W        W77794  10.795  20.125   4.200
14236W        W77795  43.853  42.473  13.047
14237W        W77796   1.867  15.752   2.781
14238W        W77797  23.626  36.044   3.231
14239W        W77798  12.170  29.617   2.751
14240W        W77799  25.205  36.524   2.687
14241W        W77800  42.841   0.319  10.910
14242W        W77801  41.037  41.808   4.230
14243W        W77802  21.081   0.356   0.445
14244W        W77803  42.317  10.204  11.977
14245W        W77804  17.605  15.722   2.680
14246W        W77805   7.737  30.586  11.098
14247W        W77806  28.680  14.823   3.357
14248W        W77807   1.967   0.424   3.311
14249W        W77808  36.397  35.007   3.846
14250W        W77809  16.697  36.027  10.519
14251W        W77810  11.360   4.838  10.584
14252W        W77811  36.089  23.516  10.949
14253W        W77812  35.400  42.012   3.681
14254W        W77813   2.870  30.014   1.728
14255W        W77814  34.575  37.049   0.347
14256W        W77815  14.212  39.505   4.136
14257W        W77816   5.285  38.849  12.563
14258W        W77817  43.346  29.152  10.088
14259W        W77818  14.116  22.006  12.845
14260W        W77819  18.163  42.306   2.257
14261W        W77820  29.467  37.958   4.697
14262W        W77821  42.944   5.780  11.997
14263W        W77822  10.851  36.350   4.162
14264W        W77823  36.053  26.657   4.677
14265W        W77824   6.327  42.971   1.861
14266W        W77825  25.218   9.381   9.496
14267W        W77826  30.103  39.354   3.264
14268W        W77827  12.319  20.571   4.780
14269W        W77828  34.941  26.989   0.293
14270W        W77829  38.393  36.546  13.418
14271W        W77830  11.648  32.129  13.875
14272W        W77831  16.229  39.538   0.931
14273W        W77832  37.528  17.139   1.861
14274W        W77833  19.666  18.216   1.274
14275W        W77834  27.691  34.507  14.786
14276W        W77835   7.211  38.068   0.319
14277W        W77836  11.336   4.915   3.291
14278W        W77837  41.996  30.627  12.935
14279W        W77838  18.714  26.613   0.353
14280W        W77839   7.231   0.771   3.345
14281W        W77840  39.888   5.901   3.306
14282W        W77841  16.238  42.327  12.546
14283W        W77842  40.509  22.208  10.437
14284W        W77843   5.291  16.687  12.958
14285W        W77844  26.127   9.366  12.493
14286W        W77845   4.943   7.365  12.829
14287W        W77846  44.964  40.535   2.215
14288W        W77847  11.318   6.217  11.993
14289W        W77848  32.413  26.096   1.232
14290W        W77849  39.443   3.231  10.522
14291W        W77850  16.241   2.721   3.847
14292W        W77851  28.462  18.236  14.896
14293W        W77852   7.870   6.727  11.113
14294W        W77853  17.126  24.695   0.786
14295W        W77854  38.558   6.323   2.237
14296W        W77855   4.721  20.075   2.759
14297W        W77856  43.929   6.756  10.485
14298W        W77857  19.043   8.275  10.592
14299W        W77858  42.814  40.835  12.540
14300W        W77859  22.634  28.977  14.299
14301W        W77860  23.006  10.334   4.730
14302W        W77861  26.205  37.961   3.172
14303W        W77862  41.397  41.354   3.303
14304W        W77863   1.452  40.375  14.021
14305W        W77864  15.147  20.241   4.315
14306W        W77865  41.897   5.811   3.214
14307W        W77866  16.744   0.796   1.804
14308W        W77867  12.789  25.570  10.947
14309W        W77868   8.295   9.191  12.964
14310W        W77869  30.434  17.103   3.263
14311W        W77870  37.037  25.032  11.003
14312W        W77871   8.204  43.289  12.904
14313W        W77872  19.230  39.400   2.809
14314W        W77873  30.567  21.156  10.890
14315W        W77874  42.527  43.453   3.708
14316W        W77875  37.544  24.613  12.459
14317W        W77876   4.291  44.820  11.915
14318W        W77877  25.130  39.518  14.844
14319W        W77878   6.338  39.871  13.516
14320W        W77879  40.865   6.849   0.812
14321W        W77880  21.112  36.088   1.832
14322W        W77881  22.156  42.824   3.282
14323W        W77882  42.025  44.832  11.469
14324W        W77883  27.591   8.293   0.769
14325W        W77884  32.974  23.539  14.933
14326W        W77885  17.149  11.278   0.906
14327W        W77886  26.184  37.545  10.894
14328W        W77887  30.993  44.970   4.237
14329W        W77888  22.159  39.480  11.107
14330W        W77889  42.317  24.584   0.756
14331W        W77890  39.860  36.878   2.876
14332W        W77891  13.281   7.352  11.595
14333W        W77892  18.051  43.283   0.476
14334W        W77893  19.750   3.751  13.313
14335W        W77894  33.923   4.761  12.016
14336W        W77895  21.254  31.978  11.932
14337W        W77896  26.136  11.290  10.603
14338W        W77897  38.534  18.196   3.191
14339W        W77898  42.855   5.392  14.349
14340W        W77899  40.890  31.061  13.849
14341W        W77900  22.636  10.216   0.298
14342W        W77901  20.034  18.683  10.998
14343W        W77902  42.316  21.550  14.758
14344W        W77903   5.910   0.786  13.898
14345W        W77904  38.991  15.109  11.516
14346W        W77905  29.575  29.053   2.384
14347W        W77906  22.714  10.752  10.492
14348W        W77907  20.614  21.680   2.800
14349W        W77908   4.784  10.794  13.526
14350W        W77909   0.323  18.624   0.408
14351W        W77910   0.350  27.966   4.608
14352W        W77911  40.367  27.183   2.795
14353W        W77912  24.007  26.032   2.218
14354W        W77913   0.943  32.598   0.751
14355W        W77914  41.895  15.699  13.794
14356W        W77915  31.090  39.951  13.934
14357W        W77916   1.462  42.983   4.160
14358W        W77917  34.117   8.766   0.764
14359W        W77918  23.561  20.222  12.892
14360W        W77919  32.089  16.150  11.891
14361W        W77920   6.305  19.227  10.494
14362W        W77921   1.763  21.753   2.229
14363W        W77922  37.576   9.818  14.453
14364W        W77923  36.538  40.392   2.745
14365W        W77924   1.315  12.761  11.075
14366W        W77925  35.991  30.025  11.021
14367W        W77926  11.246  44.823   3.724
14368W        W77927   6.787  10.214   3.768
14369W        W77928  16.235  25.049   4.826
14370W        W77929  43.374  32.545   0.923
14371W        W77930  43.784  19.758  11.953
14372W        W77931  31.550  21.682  12.888
14373W        W77932  36.533   0.784   2.827
14374W        W77933  30.631  14.701  10.573
14375W        W77934  32.463  36.864   5.211
14376W        W77935  13.122   3.427  11.608
14377W        W77936   8.707  13.221   3.227
14378W        W77937  12.703  22.145  13.823
14379W        W77938  19.097  26.480  13.492
14380W        W77939   1.257  39.837   0.873
14381W        W77940  21.518   6.250   2.900
14382W        W77941   5.302  18.594   2.783
14383W        W77942  26.593  15.218  13.463
14384W        W77943  11.633   4.242  10.412
14385W        W77944  29.484  24.514   2.381
14386W        W77945   1.903   6.404  14.404
14387W        W77946  15.627   7.782   1.249
14388W        W77947  35.917  30.964   2.259
14389W        W77948  17.110  44.927   0.836
14390W        W77949   4.408   1.303  14.452
14391W        W77950  38.885  30.627  11.042
14392W        W77951  14.707  42.395   2.234
14393W        W77952  44.343  42.842  10.022
14394W        W77953  25.526   9.712  10.509
14395W        W77954  32.977  12.829   2.418
14396W        W77955  18.597  12.171   3.778
14397W        W77956  38.860  25.626   2.264
14398W        W77957  21.155  33.903   3.191
14399W        W77958  31.433  29.518  14.872
14400W        W77959  13.779   6.825  11.482
14401W        W77960  44.421  44.260   0.427
14402W        W77961   9.275   4.428  12.562
14403W        W77962   8.719  12.271   1.760
14404W        W77963  30.131  14.634   3.176
14405W        W77964  12.707  40.447   4.672
14406W        W77965  33.975  39.818  11.003
14407W        W77966  36.532  10.775   4.677
14408W        W77967  19.566   5.792   1.832
14409W        W77968  31.588  39.954  14.908
14410W        W77969  38.044   9.183   4.303
14411W        W77970  27.551   5.295  14.804
14412W        W77971  30.456  29.172   1.229
14413W        W77972   8.165  42.290   3.675
14414W        W77973  25.142  15.120   3.179
14415W        W77974  18.775  34.938  14.341
14416W        W77975   5.206   0.984   3.863
14417W        W77976   9.706  17.072  11.535
14418W        W77977  41.304  43.352  11.587
14419W        W77978   3.806  34.402  12.987
14420W        W77979   9.743  34.017   5.718
14421W        W77980  35.071  27.948  10.894
14422W        W77981  41.395  14.326   3.693
14423W        W77982  39.320  30.039   4.748
14424W        W77983  38.971   9.690   4.661
14425W        W77984  18.197  13.304  12.489
14426W        W77985   3.776  34.056   4.247
14427W        W77986   8.199  15.136  13.360
14428W        W77987  28.107  11.371   0.373
14429W        W77988  32.597   0.465   4.271
14430W        W77989  27.105  13.270   2.871
14431W        W77990  38.518  41.522  12.874
14432W        W77991  40.494  33.084   1.872
14433W        W77992   4.323  42.852   0.817
14434W        W77993  10.325   3.764  11.041
14435W        W77994  12.337  11.631   4.601
14436W        W77995  44.433  24.725  12.913
14437W        W77996   6.802   3.236  14.952
14438W        W77997  26.635  34.500   1.334
14439W        W77998  10.798  28.141   0.935
14440W        W77999  22.699  28.516   5.269
14441W        W78000   4.422   7.812   0.283
14442W        W78001   1.762  18.203   1.213
14443W        W78002  26.103  39.013  10.586
14444W        W78003  33.982   6.247  11.379
14445W        W78004  12.751   1.960   4.668
14446W        W78005   4.272   5.214   1.935
14447W        W78006  25.137   5.822  14.289
14448W        W78007  27.468  20.107  13.470
14449W        W78008  34.891  33.603   4.121
14450W        W78009   2.428  18.634   3.743
14451W        W78010   6.799   7.181   1.270
14452W        W78011   1.393   8.352  11.607
14453W        W78012  39.034  18.231  14.931
14454W        W78013  16.233  34.969  12.455
14455W        W78014   5.356   9.747   1.811
14456W        W78015  43.792   8.195  14.844
14457W        W78016  17.612  16.619   2.188
14458W        W78017  20.141  16.758   3.723
14459W        W78018  17.715  40.448  11.065
14460W        W78019   0.258  37.462  10.965
14461W        W78020  35.485   7.233   4.675
14462W        W78021  33.874  26.029  10.475
14463W        W78022  37.560  39.875  12.413
14464W        W78023  36.367  30.021   2.699
14465W        W78024  13.125  32.990  11.902
14466W        W78025  10.204  11.820   2.380
14467W        W78026   5.807  26.031  12.924
14468W        W78027  34.986   1.845   9.971
14469W        W78028  37.889  10.859   9.926
14470W        W78029   6.237  25.612   4.327
14471W        W78030  44.929  36.028  11.106
14472W        W78031  16.597  35.913  13.433
14473W        W78032  19.274  11.278  10.411
14474W        W78033  40.342  25.644  13.059
14475W        W78034  19.625  37.386   2.235
14476W        W78035  31.950   0.280  11.976
14477W        W78036  22.698  14.739   2.746
14478W        W78037   1.847   8.274   0.887
14479W        W78038  28.510  25.523  14.306
14480W        W78039  38.370  27.446   4.829
14481W        W78040  11.863  10.785   0.426
14482W        W78041  40.854   1.956  14.505
14483W        W78042  28.612  36.489  14.504
14484W        W78043   9.882  17.217   2.393
14485W        W78044  35.362  19.051   0.907
14486W        W78045  23.225   9.342   0.263
14487W        W78046  12.838  19.246  11.401
14488W        W78047  18.748  22.170  14.428
14489W        W78048  38.413  31.469   4.187
14490W        W78049  10.748  22.583  12.914
14491W        W78050  18.677  40.876  11.955
14492W        W78051  43.766  18.229   0.942
14493W        W78052  30.041   9.827  12.067
14494W        W78053   1.972  27.163   2.223
14495W        W78054  40.520  37.453  11.509
14496W        W78055  35.560  12.645  12.509
14497W        W78056   6.399  42.810   0.301
14498W        W78057   5.853  12.712  14.279
14499W        W78058  31.458   0.834   1.225
14500W        W78059   0.802  38.048  11.606
14501W        W78060  31.121  27.058  10.405
14502W        W78061   6.348  22.050  13.003
14503W        W78062  37.058  26.117   4.336
14504W        W78063  24.227  23.041   2.884
14505W        W78064  40.852  21.521  11.952
14506W        W78065  42.434  37.404  11.083
14507W        W78066  44.842   7.704   2.327
14508W        W78067  12.138   4.869   0.342
14509W        W78068  16.164  17.579   2.241
14510W        W78069  40.513   2.741   4.195
14511W        W78070  41.900   1.283   1.389
14512W        W78071  22.681  15.800   2.731
14513W        W78072  34.045  22.503  12.066
14514W        W78073  32.410   1.320  14.947
14515W        W78074  25.595  28.187  11.537
14516W        W78075   0.272  22.609   2.739
14517W        W78076  22.708   2.895  11.094
14518W        W78077  11.148  37.087   5.167
14519W        W78078   2.289  12.697  11.595
14520W        W78079   9.286  18.068  13.801
14521W        W78080  22.677  12.655   0.348
14522W        W78081  40.014  37.388   1.426
14523W        W78082   9.846  21.702  11.005
14524W        W78083   9.704  15.274  11.014
14525W        W78084  33.893  40.541  11.120
14526W        W78085  39.384   0.788   1.839
14527W        W78086  12.755  15.719   3.152
14528W        W78087  10.254  10.233   4.137
14529W        W78088   1.316  20.593  13.412
14530W        W78089  18.142   8.811  12.052
14531W        W78090   3.391  28.592  14.883
14532W        W78091  40.539  36.090  12.830
14533W        W78092  17.569   9.809   1.819
14534W        W78093  34.441  31.648  13.838
14535W        W78094  25.142  11.683  11.555
14536W        W78095  18.177   3.862   2.199
14537W        W78096  32.994   1.244   1.804
14538W        W78097  33.040   6.781   0.901
14539W        W78098  35.907  30.586   0.900
14540W        W78099  20.245  23.012  10.471
14541W        W78100  23.196  11.781   4.349
14542W        W78101  10.682  32.443   4.747
14543W        W78102   1.940  23.685   2.186
14544W        W78103   7.750  24.484   4.339
14545W        W78104   0.759  18.576   3.814
14546W        W78105  22.625  34.549  14.286
14547W        W78106  42.473  22.152  11.108
14548W        W78107  27.595  36.492   2.383
14549W        W78108  39.503  32.007  12.474
14550W        W78109  10.757   4.374  14.844
14551W        W78110   3.932  38.001   3.293
14552W        W78111  42.799  12.623  12.030
14553W        W78112  16.101   6.710  14.316
14554W        W78113  41.296  32.604  12.441
14555W        W78114   8.318  33.469   1.778
14556W        W78115  20.526  24.154   3.249
14557W        W78116   4.288  19.266   4.263
14558W        W78117  36.012  23.638   3.728
14559W        W78118   3.736   6.255   2.696
14560W        W78119   7.206  14.152   5.164
14561W        W78120  44.000  31.023  13.844
14562W        W78121   4.332  32.497   0.309
14563W        W78122   0.364  17.254  13.437
14564W        W78123  22.651  38.350   0.397
14565W        W78124  14.646  17.672  11.471
14566W        W78125  21.093  31.480   5.662
14567W        W78126  43.391  36.003   2.415
14568W        W78127  25.065  32.893  12.828
14569W        W78128  42.001  31.955  10.625
14570W        W78129  29.595  43.350  12.508
14571W        W78130  28.103  42.961  10.517
14572W        W78131  16.771  34.920  14.009
14573W        W78132  41.509  33.463  12.909
14574W        W78133  20.149  43.818   3.219
14575W        W78134   5.726  16.738   0.752
14576W        W78135  37.506  41.472   2.713
14577W        W78136  27.509   5.894   1.273
14578W        W78137  15.824  11.232   4.223
14579W        W78138   0.249  12.316  10.941
14580W        W78139  13.133   5.195  14.007
14581W        W78140  10.291  24.628   2.705
14582W        W78141   4.896  10.721  12.906
14583W        W78142   9.262  28.009  12.905
14584W        W78143  39.903  22.588   4.665
14585W        W78144   4.376  29.971  13.354
14586W        W78145  33.929  15.624   4.347
14587W        W78146  43.461  36.038   9.956
14588W        W78147  43.960  37.885   1.834
14589W        W78148  44.288  32.142   0.339
14590W        W78149   0.454  38.922   0.798
14591W        W78150  43.377   7.342  13.035
14592W        W78151  10.236  43.499   1.263
14593W        W78152   0.806  14.648  14.956
14594W        W78153  33.914  18.678   3.312
14595W        W78154   5.828  35.017   0.412
14596W        W78155  15.710  10.139  10.491
14597W        W78156  14.770  10.246  10.407
14598W        W78157   0.953  43.018  13.358
14599W        W78158  11.789  17.641   4.225
14600W        W78159   5.754   7.725  12.965
14601W        W78160  32.007  24.044   3.208
14602W        W78161  26.585   3.265  13.537
14603W        W78162  12.809  19.745   3.684
14604W        W78163  41.974  18.715   2.876
14605W        W78164  28.549  26.511   4.330
14606W        W78165  11.289  40.417  14.790
14607W        W78166  13.825  39.045  11.975
14608W        W78167  29.538   6.241   4.322
14609W        W78168  25.554  22.697  14.985
14610W        W78169  40.978  37.033   3.146
14611W        W78170  12.624  29.959  12.038
14612W        W78171  22.514   6.700  13.367
14613W        W78172  18.072   6.307  12.077
14614W        W78173  18.111   0.770   2.759
14615W        W78174  10.771  38.887  10.489
14616W        W78175   3.228  25.130  13.394
14617W        W78176  28.520   7.709  12.044
14618W        W78177  30.997  42.906   0.311
14619W        W78178  26.121  17.709   0.376
14620W        W78179  39.504  32.510  13.350
14621W        W78180   8.275  16.195   5.608
14622W        W78181  35.388   7.872  11.511
14623W        W78182  19.073  40.401   2.268
14624W        W78183  12.628  20.258  13.047
14625W        W78184   8.299  37.355  12.940
14626W        W78185  15.259  36.432  14.414
14627W        W78186   7.391  27.560  14.283
14628W        W78187  32.046  42.921  14.321
14629W        W78188  27.976  16.701   4.220
14630W        W78189   1.381  13.184   4.684
14631W        W78190  18.554  44.753   1.909
14632W        W78191  21.182  10.768   4.260
14633W        W78192  19.200  34.546  13.856
14634W        W78193  11.623  37.391  11.933
14635W        W78194  41.533  33.467  14.510
14636W        W78195  32.393  32.563  13.990
14637W        W78196   8.286   7.784  12.004
14638W        W78197  13.795   0.872  12.440
14639W        W78198  25.133  41.424   1.355
14640W        W78199  18.071  27.102   4.137
14641W        W78200   1.482   6.797  13.865
14642W        W78201  24.186  41.897  14.362
14643W        W78202   4.930  18.119  12.895
14644W        W78203  42.882  41.953  12.043
14645W        W78204  14.761  17.208  11.453
14646W        W78205  26.150  34.441  11.877
14647W        W78206   2.723  36.508   1.316
14648W        W78207  15.588  24.012   0.325
14649W        W78208  21.519  14.627  10.590
14650W        W78209   1.440  43.385   0.910
14651W        W78210  12.851  37.485  11.863
14652W        W78211   8.690   2.366   2.308
14653W        W78212  14.633  39.823  11.118
14654W        W78213  32.023  13.818  14.394
14655W        W78214  41.385  25.697   1.755
14656W        W78215   9.236  39.871  12.063
14657W        W78216  14.612  31.899  13.896
14658W        W78217  28.508  23.637  11.008
14659W        W78218  12.180  34.518   2.241
14660W        W78219  18.547   6.866   4.354
14661W        W78220  19.563  41.891  11.466
14662W        W78221  43.855  15.795   4.228
14663W        W78222  16.581   9.212  12.462
14664W        W78223  35.989   7.858  10.621
14665W        W78224  24.608  23.634  11.955
14666W        W78225  23.011  28.580  10.525
14667W        W78226  33.943  20.137   1.304
14668W        W78227  36.387  20.578   2.717
14669W        W78228  35.935  15.702   4.132
14670W        W78229   2.313  23.165  11.452
14671W        W78230   2.248  32.530  10.479
14672W        W78231  33.606  26.151   2.763
14673W        W78232  28.156  24.697  11.382
14674W        W78233  40.965  18.617  13.032
14675W        W78234   3.335  13.255   0.403
14676W        W78235  39.023  44.393   0.818
14677W        W78236  37.409  42.491  13.402
14678W        W78237  17.081   1.464  14.325
14679W        W78238  26.194  35.469  12.559
14680W        W78239  23.120   9.273  12.578
14681W        W78240   4.875  34.548  11.879
14682W        W78241  21.089  12.848   1.836
14683W        W78242   3.731  24.158  10.608
14684W        W78243  16.807   1.805   0.967
14685W        W78244  11.144   4.897   1.904
14686W        W78245  11.296   8.724   0.352
14687W        W78246   0.873   9.729   1.751
14688W        W78247  13.819  32.408  14.315
14689W        W78248  41.869  38.398   4.646
14690W        W78249  24.214  42.444  12.852
14691W        W78250   8.767  42.368   4.836
14692W        W78251  22.654  35.582   0.925
14693W        W78252  38.452  43.867   2.687
14694W        W78253  35.930  28.599   3.796
14695W        W78254  15.302  35.963  10.532
14696W        W78255  24.191  13.247   4.785
14697W        W78256  15.193   5.713  13.052
14698W        W78257  11.767   1.376   3.845
14699W        W78258  43.289  20.130   3.223
14700W        W78259  28.674  20.166  14.854
14701W        W78260   1.237  18.776   4.161
14702W        W78261   8.275  38.468   4.612
14703W        W78262   3.833  42.516   4.177
14704W        W78263  18.074  26.662   5.189
14705W        W78264  21.524  41.423  11.864
14706W        W78265  14.745  26.644   2.226
14707W        W78266  19.078  29.001   1.274
14708W        W78267   7.823  17.264   1.749
14709W        W78268   6.305   2.430   0.309
14710W        W78269  12.228  16.189   3.149
14711W        W78270  42.291  15.645  12.057
14712W        W78271  26.161  26.114   0.760
14713W        W78272  21.531  41.401  11.598
14714W        W78273  39.970  30.498   1.438
14715W        W78274  34.514  39.987  10.514
14716W        W78275  17.069  17.192   1.398
14717W        W78276  18.768  25.147   5.197
14718W        W78277   7.752  22.527  14.439
14719W        W78278   1.335   1.313   2.331
14720W        W78279  40.005   8.272   2.723
14721W        W78280  33.948  16.139   1.882
14722W        W78281  33.426  36.509  11.389
14723W        W78282  39.831  27.032   4.197
14724W        W78283  24.579  27.494  13.317
14725W        W78284  23.050   8.841  10.147
14726W        W78285  39.320   7.200   2.396
14727W        W78286  15.740   6.728  14.996
14728W        W78287  34.016  15.777   0.756
14729W        W78288  10.657   7.865   1.326
14730W        W78289  25.097  28.186  13.981
14731W        W78290  19.669  22.089  14.809
14732W        W78291  15.189  27.543   3.279
14733W        W78292  26.076  23.035   0.374
14734W        W78293  30.950  11.723   2.194
14735W        W78294  21.753  31.471  10.579
14736W        W78295   1.889   9.358   1.824
14737W        W78296  36.975  17.082  10.611
14738W        W78297  35.469  13.783  13.487
14739W        W78298  13.655  27.059   4.329
14740W        W78299  27.673  19.762  12.930
14741W        W78300  25.593   3.754  11.938
14742W        W78301   4.699  30.053   1.413
14743W        W78302  39.442  11.717   0.799
14744W        W78303  33.471  29.444  13.336
14745W        W78304  19.189  41.518   3.798
14746W        W78305   7.671  12.835   9.988
14747W        W78306   5.205  30.609  14.849
14748W        W78307  12.338  15.779   0.425
14749W        W78308  41.483  10.283  14.862
14750W        W78309  40.323  10.161   0.912
14751W        W78310  30.080   5.251  12.429
14752W        W78311  30.495  16.729  14.412
14753W        W78312   8.181   8.843   2.775
14754W        W78313  10.815  19.181  12.458
14755W        W78314   7.835  28.068   3.248
14756W        W78315  32.463  24.128   2.230
14757W        W78316  29.494   4.279   3.743
14758W        W78317  34.480  37.428  11.922
14759W        W78318   7.251  32.913  14.857
14760W        W78319   3.231  43.931   9.980
14761W        W78320   3.407   3.899   0.945
14762W        W78321  42.301  23.582  14.017
14763W        W78322  12.222   6.700  13.321
14764W        W78323  11.366  42.993   2.750
14765W        W78324  14.742  44.776  10.934
14766W        W78325   9.228  38.360  11.048
14767W        W78326   0.459   8.866  11.547
14768W        W78327  14.174   2.463   0.288
14769W        W78328  44.758  25.603   1.268
14770W        W78329   3.940  17.205   0.443
14771W        W78330   3.858  14.107  14.842
14772W        W78331   9.186  44.899  10.594
14773W        W78332   8.247  44.381  11.404
14774W        W78333   4.247  28.030  14.350
14775W        W78334  20.036  16.721  12.936
14776W        W78335  12.223  17.100  10.611
14777W        W78336  22.176  27.127   4.717
14778W        W78337  40.841  20.080   1.901
14779W        W78338  37.412   4.819   3.228
14780W        W78339   0.386   3.242  14.999
14781W        W78340  30.916  10.793  13.366
14782W        W78341  33.459  16.249  12.899
14783W        W78342   6.864  39.950  14.875
14784W        W78343  14.647  19.281  11.455
14785W        W78344  30.561  32.134   2.317
14786W        W78345  20.717  43.810  14.779
14787W        W78346  18.177  36.545  11.009
14788W        W78347  36.031  40.840   1.228
14789W        W78348  26.109  32.054   0.480
14790W        W78349  41.895  40.013   2.406
14791W        W78350  18.163  22.584  12.839
14792W        W78351  20.749  33.023   5.308
14793W        W78352  21.556  31.096   4.648
14794W        W78353   9.275  36.001  11.999
14795W        W78354  25.024  22.734  11.914
14796W        W78355  26.492  44.883   0.910
14797W        W78356  26.956  32.402   4.690
14798W        W78357  30.510  20.657  11.419
14799W        W78358  29.632   4.746   3.856
14800W        W78359   7.269  11.628   4.669
14801W        W78360  39.451   5.750   1.860
14802W        W78361  15.788  26.497  14.798
14803W        W78362  44.963  28.155  12.982
14804W        W78363  37.961  22.713   3.714
14805W        W78364  27.665  26.180  12.071
14806W        W78365   9.357  33.537  14.933
14807W        W78366  16.793  15.289  11.066
14808W        W78367  40.892  22.197   1.284
14809W        W78368  22.612  30.577  10.100
14810W        W78369  19.754   4.337   0.808
14811W        W78370  30.037  21.242   0.749
14812W        W78371  37.452   0.983   1.325
14813W        W78372   0.470  34.373   4.326
14814W        W78373  16.183  22.194  14.772
14815W        W78374  30.109  26.482   3.316
14816W        W78375  19.725  41.970   1.210
14817W        W78376  14.595  19.684   3.288
14818W        W78377  40.895  44.398  14.384
14819W        W78378  42.801  40.880   2.844
14820W        W78379  20.077  15.109   1.808
14821W        W78380  13.265  25.098  10.153
14822W        W78381  15.310  36.045   2.712
14823W        W78382  17.575  23.725  12.979
14824W        W78383   4.932   4.362   3.672
14825W        W78384  21.139   4.292   2.775
14826W        W78385  20.162  42.438   1.740
14827W        W78386   2.785  27.107   3.222
14828W        W78387   5.437  22.186   3.250
14829W        W78388  23.081  40.982  12.085
14830W        W78389  25.592  28.574  12.395
14831W        W78390  33.515  22.565  11.971
14832W        W78391  38.515  11.691   3.373
14833W        W78392  25.037  22.702  10.997
14834W        W78393  15.708  36.362   2.402
14835W        W78394   8.674  19.679   2.390
14836W        W78395  39.874  31.988   5.137
14837W        W78396  38.529   8.778   4.287
14838W        W78397  10.671  15.116   9.920
14839W        W78398  39.965   3.763  14.787
14840W        W78399  42.934  39.439   4.166
14841W        W78400  19.196  17.639  14.868
14842W        W78401  27.034   8.165  13.840
14843W        W78402  34.527  39.337   1.416
14844W        W78403  37.339   0.414   3.817
14845W        W78404  14.664  16.770  12.900
14846W        W78405   3.781  24.518   0.285
14847W        W78406  33.612  22.641   0.278
14848W        W78407  21.514  35.415   0.364
14849W        W78408   5.695  36.404   4.236
14850W        W78409  34.109  11.154   4.823
14851W        W78410  15.760  32.084  11.991
14852W        W78411  17.276  30.424   3.641
14853W        W78412   6.678   4.839  14.977
14854W        W78413   5.701  41.833  13.864
14855W        W78414  37.977  23.052   3.797
14856W        W78415  13.769   2.887   2.873
14857W        W78416  20.662   8.287   4.818
14858W        W78417  31.974  41.329  12.869
14859W        W78418  10.278   7.301   0.948
14860W        W78419   4.786  29.035  11.052
14861W        W78420  39.341  24.703   3.280
14862W        W78421  11.179  32.118   3.765
14863W        W78422  41.468   3.233  14.812
14864W        W78423  43.309  15.694   0.816
14865W        W78424  17.747  13.808   3.227
14866W        W78425  27.128  26.678   4.349
14867W        W78426  29.989  43.993  14.411
14868W        W78427  12.250  18.116   1.252
14869W        W78428  17.626  37.432   0.433
14870W        W78429   7.889  44.917  11.480
14871W        W78430  13.601  15.098  14.870
14872W        W78431   3.834   8.222  13.353
14873W        W78432  30.008  29.536   0.775
14874W        W78433   9.715   5.350   4.725
14875W        W78434  22.742  12.252  14.487
14876W        W78435   3.880  36.398   3.277
14877W        W78436  12.637  25.034   3.181
14878W        W78437   0.327  39.005   4.231
14879W        W78438  20.633  14.710   2.256
14880W        W78439   0.454   5.802   0.402
14881W        W78440  10.748  19.536   2.788
14882W        W78441  28.456   2.226  14.872
14883W        W78442  39.918  41.808   3.292
14884W        W78443  27.056  24.058  13.909
14885W        W78444  41.927  37.450  12.086
14886W        W78445  15.693   4.368  12.050
14887W        W78446   3.894  19.654  11.550
14888W        W78447  10.776   9.310   2.222
14889W        W78448  31.441  42.806  13.857
14890W        W78449   9.154  19.165  13.317
14891W        W78450  16.640  29.067   1.272
14892W        W78451  44.437  42.831  10.471
14893W        W78452   0.959  17.066   4.680
14894W        W78453  11.298  24.486   2.234
14895W        W78454  26.589  37.541  10.514
14896W        W78455  29.951  14.199   2.365
14897W        W78456  12.802  13.722   1.876
14898W        W78457  41.903   0.387  14.780
14899W        W78458   2.803  24.168  12.510
14900W        W78459  22.541  35.576  10.920
14901W        W78460  33.076  24.693   4.167
14902W        W78461   6.739  26.518  12.554
14903W        W78462  26.035   5.790  13.843
14904W        W78463  31.495  25.064   4.272
14905W        W78464   5.388  19.282   0.898
14906W        W78465  24.121  31.992  11.547
14907W        W78466   1.344  37.547   3.722
14908W        W78467  18.669  34.090  10.456
14909W        W78468  38.498  44.858  11.877
14910W        W78469  43.329  33.074   4.246
14911W        W78470  23.717  39.412  11.993
14912W        W78471  20.101  37.926   1.331
14913W        W78472  18.695  32.576  12.942
14914W        W78473  24.707   5.415  14.978
14915W        W78474  11.199   5.818  12.912
14916W        W78475  13.237  19.738   4.753
14917W        W78476  12.816   8.717   5.222
14918W        W78477  40.848   6.762  12.349
14919W        W78478  26.558   9.262   4.597
14920W        W78479   4.384  28.134  12.487
14921W        W78480  40.376  19.772   0.939
14922W        W78481  19.554  25.540  13.058
14923W        W78482  21.614  22.602  10.092
14924W        W78483   3.774  40.347  14.437
14925W        W78484   2.304  10.330   2.295
14926W        W78485   4.255  15.612  13.941
14927W        W78486  34.393  13.803   4.658
14928W        W78487   7.358  40.010   0.304
14929W        W78488   0.988  24.145  10.463
14930W        W78489  31.061  38.824  12.579
14931W        W78490  24.035  44.881   2.265
14932W        W78491  40.381  30.919   0.807
14933W        W78492  32.110  22.567  11.033
14934W        W78493  36.042  20.636   3.160
14935W        W78494  35.484  12.760  13.029
14936W        W78495  27.556  15.151  12.508
14937W        W78496  20.065   9.325   3.719
14938W        W78497  31.539  37.998   2.273
14939W        W78498  29.113  25.149   3.811
14940W        W78499  22.680  14.251  12.530
14941W        W78500  26.529  30.093   0.924
14942W        W78501   2.837  34.393  14.356
14943W        W78502  22.221  31.031   5.194
14944W        W78503  17.145  19.119  10.913
14945W        W78504  40.007  17.801  13.998
14946W        W78505  26.464   0.365   1.343
14947W        W78506  36.376  16.081  14.937
14948W        W78507   9.342  23.098   4.340
14949W        W78508   4.912  37.079  11.073
14950W        W78509  40.537  36.381  13.902
14951W        W78510  20.132  14.121   0.419
14952W        W78511  13.265  11.665   3.643
14953W        W78512  31.436  16.577  13.858
14954W        W78513  12.246  29.638   4.136
14955W        W78514   8.303   6.264   1.735
14956W        W78515  42.371  11.264   3.855
14957W        W78516  24.219  36.921  13.505
14958W        W78517   0.484  17.153   1.931
14959W        W78518  19.176  20.709   4.627
14960W        W78519   9.159  41.297   3.717
14961W        W78520  32.059  19.166  14.341
14962W        W78521   5.753  13.215   3.848
14963W        W78522  27.000   3.711   1.892
14964W        W78523   4.403  44.311  13.852
14965W        W78524  26.137  29.001  14.329
14966W        W78525  25.524  35.909  14.301
14967W        W78526  11.813  23.720   3.383
14968W        W78527  40.821  21.037  11.475
14969W        W78528  30.486  38.004   1.424
14970W        W78529  27.072  21.712  12.071
14971W        W78530  35.098   0.830   4.246
14972W        W78531  10.331   6.686  14.502
14973W        W78532  31.503  42.918  13.430
14974W        W78533   6.296   6.898  11.913
14975W        W78534  13.269  33.517  10.916
14976W        W78535  35.361  39.913   2.358
14977W        W78536  14.308   3.932   2.802
14978W        W78537  19.551  27.089   0.414
14979W        W78538  30.509  33.984  14.017
14980W        W78539  28.439   3.371   5.132
14981W        W78540  20.598  35.920   0.859
14982W        W78541  43.462  37.945  13.959
14983W        W78542  33.063  10.662   1.834
14984W        W78543  42.475   6.718   4.597
14985W        W78544  32.927  30.445  14.300
14986W        W78545   5.293  14.599  10.486
14987W        W78546  28.518  39.822  13.935
14988W        W78547  26.168  16.787   3.823
14989W        W78548  30.502   5.860  11.865
14990W        W78549  26.098  21.122  12.989
14991W        W78550   6.800  37.470   2.382
14992W        W78551  35.084  38.909   0.747
14993W        W78552  41.935  24.697   1.922
14994W        W78553   8.767  40.308   0.366
14995W        W78554  14.723  35.019  14.928
14996W        W78555  29.609   3.332   4.790
14997W        W78556  16.163  38.971  11.044
14998W        W78557  17.784  34.955  13.973
14999W        W78558  16.670  20.035   2.318
15000W        W78559  33.003   1.387   0.341
15001W        W78560  33.030  38.532   4.150
15002W        W78561   5.225  12.164   1.736
15003W        W78562  40.832  31.645   3.266
15004W        W78563  32.009   5.301  13.308
15005W        W78564   7.780   2.785  10.406
15006W        W78565  36.971  15.277   2.234
15007W        W78566  21.620  13.138   3.293
15008W        W78567  32.572  26.194  12.448
15009W        W78568   5.818  12.651   3.350
15010W        W78569   3.776  19.647  12.909
15011W        W78570   6.784   4.828   4.354
15012W        W78571  25.552  43.964   3.331
15013W        W78572  16.120  25.998  11.468
15014W        W78573  16.301  29.167  13.531
15015W        W78574   5.811  32.050   3.298
15016W        W78575  15.603  12.652  10.103
15017W        W78576  18.228  29.973  12.827
15018W        W78577   1.867  31.604   1.264
15019W        W78578   2.930  16.684   4.186
15020W        W78579  39.841   0.419  12.398
15021W        W78580  22.184  19.629   1.239
15022W        W78581  38.983  23.649   3.297
15023W        W78582   9.328  44.350  11.123
15024W        W78583   8.721  15.745  10.990
15025W        W78584  34.992  39.926   2.208
15026W        W78585  17.765  12.126   0.331
15027W        W78586  42.953   2.471  14.481
15028W        W78587   9.267  10.194  10.603
15029W        W78588  21.743  30.041  10.039
15030W        W78589  36.006  33.411  11.510
15031W        W78590   5.797  27.539   4.243
15032W        W78591  27.149   9.699   0.457
15033W        W78592  21.210  18.790   1.897
15034W        W78593   2.445  30.515   1.386
15035W        W78594  42.976  20.620   0.468
15036W        W78595   1.772  15.630   0.733
15037W        W78596  31.002  29.989   3.310
15038W        W78597   9.258  14.234   1.416
15039W        W78598  38.045  34.874  10.944
15040W        W78599   5.380  19.283  10.583
15041W        W78600  32.578  24.695  14.308
15042W        W78601   2.311  29.434  14.993
15043W        W78602  38.032  33.555  13.409
15044W        W78603   3.282  10.682   0.931
15045W        W78604  41.935  32.973   3.171
15046W        W78605  35.382  35.957  14.376
15047W        W78606  44.882  34.472   3.820
15048W        W78607  19.146   7.746  10.514
15049W        W78608  25.606  34.054  12.530
15050W        W78609  43.287   6.848   4.157
15051W        W78610  24.167  25.105   3.787
15052W        W78611   3.712  39.859   2.376
15053W        W78612  17.758   8.727  11.481
15054W        W78613  29.064   5.784   1.242
15055W        W78614   1.261   2.237  12.448
15056W        W78615   0.882   7.350  13.825
15057W        W78616  26.587  38.919  13.365
15058W        W78617  19.140  31.988   5.149
15059W        W78618  31.647   1.459   1.342
15060W        W78619  16.317  13.161  11.881
15061W        W78620   9.789   7.676   3.327
15062W        W78621   5.797  38.943   3.259
15063W        W78622   0.919  15.315  12.089
15064W        W78623   0.378  26.055  13.913
15065W        W78624  10.321  24.226   0.388
15066W        W78625  28.638  32.423   4.146
15067W        W78626  26.576   1.904   4.216
15068W        W78627  32.045   0.814  10.555
15069W        W78628  39.340  44.831   2.192
15070W        W78629  12.196  26.486   5.165
15071W        W78630  27.126  18.666  11.076
15072W        W78631  37.866   1.478   0.955
15073W        W78632  32.488  20.550   4.276
15074W        W78633  16.790   7.906   4.612
15075W        W78634  34.931  13.694   2.206
15076W        W78635   9.717  42.830  12.425
15077W        W78636  21.561   0.906   1.811
15078W        W78637  18.180  29.148  10.623
15079W        W78638  41.464  43.935   1.404
15080W        W78639  21.248  32.423  11.514
15081W        W78640  33.620  25.664  13.333
15082W        W78641   5.361   2.309   1.720
15083W        W78642  15.326  27.133  14.496
15084W        W78643  13.343  34.434  13.313
15085W        W78644  42.458  12.284   3.666
15086W        W78645  20.560   2.437   3.737
15087W        W78646  17.566  18.256   4.681
15088W        W78647  42.441  15.180   0.946
15089W        W78648  20.202  36.467  13.794
15090W        W78649  30.979   5.217   4.632
15091W        W78650  24.569  22.678  10.587
15092W        W78651  29.010  34.980  10.596
15093W        W78652  18.614  24.683  13.831
15094W        W78653  35.454  13.803   2.227
15095W        W78654  14.755  10.734  12.907
15096W        W78655  15.281  22.133  12.861
15097W        W78656  38.484  33.427  11.917
15098W        W78657  28.110  30.034  12.537
15099W        W78658  30.557  21.031   0.925
15100W        W78659  24.615  16.752   4.817
15101W        W78660  26.687  23.726  13.340
15102W        W78661  22.115  32.409   3.378
15103W        W78662  12.317  14.101  10.888
15104W        W78663  13.294  32.939  12.360
15105W        W78664  44.447  41.431   4.162
15106W        W78665  11.650  33.602  10.036
15107W        W78666  35.025   5.799   0.438
15108W        W78667  14.672  15.107  11.066
15109W        W78668   6.205   4.420  14.844
15110W        W78669  30.424  11.191   0.265
15111W        W78670  27.028  25.569  14.818
15112W        W78671  35.947   0.977   0.762
15113W        W78672  40.375  25.613  10.634
15114W        W78673  42.404  31.418   4.808
15115W        W78674  35.999  40.898  12.858
15116W        W78675  24.109  14.258  13.491
15117W        W78676  43.942  44.288   1.771
15118W        W78677  34.472  13.179  10.566
15119W        W78678  21.550   5.367   0.381
15120W        W78679  20.539  29.641   2.285
15121W        W78680  13.124  36.969  11.014
15122W        W78681   4.210   4.884  14.813
15123W        W78682  35.090  39.823   4.165
15124W        W78683  21.543  32.133  11.890
15125W        W78684  15.249  23.080   1.823
15126W        W78685  32.028  33.959   2.234
15127W        W78686   1.928   6.748   1.832
15128W        W78687  32.569  37.055   3.324
15129W        W78688  25.597  12.263   1.726
15130W        W78689  33.032  42.813   1.422
15131W        W78690  32.435   6.413  11.404
15132W        W78691  34.101   9.185   1.325
15133W        W78692  40.351   4.278  13.832
15134W        W78693   8.347  27.013   1.755
15135W        W78694   7.258   3.724  12.482
15136W        W78695   8.725  29.651  13.479
15137W        W78696  23.009  35.365  13.473
15138W        W78697  10.726  24.717  10.589
15139W        W78698  14.659  24.140   2.770
15140W        W78699  23.188  15.136   2.792
15141W        W78700  33.532  21.057   3.377
15142W        W78701   0.913  15.166  11.113
15143W        W78702   7.273  18.702  12.529
15144W        W78703  35.095  27.522  14.318
15145W        W78704  32.564  25.046   1.875
15146W        W78705  39.390  44.315  14.423
15147W        W78706  26.555  26.485  13.921
15148W        W78707  31.608   6.260   1.218
15149W        W78708   5.750  16.289   0.884
15150W        W78709  13.789  32.475   2.745
15151W        W78710   2.466  31.543   0.919
15152W        W78711  25.659  18.250  13.960
15153W        W78712  38.853  39.362  10.467
15154W        W78713  32.101  26.573   2.292
15155W        W78714  17.144  13.299  13.333
15156W        W78715  31.943  29.503   4.599
15157W        W78716  35.557  13.698   1.250
15158W        W78717  33.461   4.759  14.026
15159W        W78718  36.409   3.372  11.442
15160W        W78719   7.405  37.368  11.024
15161W        W78720  19.615  41.482  13.924
15162W        W78721   4.234  12.758  14.030
15163W        W78722  43.981   3.741   1.733
15164W        W78723  38.977  39.877  12.368
15165W        W78724  33.620  27.587   4.147
15166W        W78725  28.577   0.963   1.768
15167W        W78726  19.778  41.433  10.622
15168W        W78727  11.220  35.504   5.621
15169W        W78728  32.422  20.553   0.292
15170W        W78729   5.390  43.456   1.720
15171W        W78730   6.733   2.895   4.120
15172W        W78731  21.141  31.459  13.391
15173W        W78732  34.382   1.840   3.361
15174W        W78733  42.283  22.240   1.290
15175W        W78734   8.310  13.786   4.198
15176W        W78735  19.217  11.246   1.263
15177W        W78736  14.750  18.297  11.421
15178W        W78737   8.385   8.740   0.430
15179W        W78738  18.709  13.619   4.679
15180W        W78739  23.235  16.235   1.380
15181W        W78740   3.867  42.519   4.688
15182W        W78741   6.700  31.466  14.299
15183W        W78742  44.910  36.877   1.820
15184W        W78743  23.525  10.349   5.722
15185W        W78744   0.931   8.798  12.894
15186W        W78745  40.872  19.762  12.069
15187W        W78746  21.170   8.719   4.754
15188W        W78747  10.348  14.279  13.876
15189W        W78748  13.752  24.700   4.335
15190W        W78749  10.774   5.370   4.738
15191W        W78750  39.063  28.095  14.436
15192W        W78751   9.759   8.274   0.379
15193W        W78752  23.187  26.020  14.352
15194W        W78753  30.950  27.041  13.030
15195W        W78754   7.871  44.277  13.830
15196W        W78755  31.009  29.011   2.183
15197W        W78756  37.900  17.701  14.440
15198W        W78757  40.053   7.396   0.457
15199W        W78758   9.261  36.929  12.481
15200W        W78759  22.026  16.122   4.150
15201W        W78760   0.886   9.280  13.804
15202W        W78761  13.718  43.300  12.886
15203W        W78762  12.761  21.180  12.826
15204W        W78763  16.738   4.444   3.255
15205W        W78764  39.065  33.040  12.501
15206W        W78765  19.270  41.965  12.071
15207W        W78766  13.206  32.631   0.403
15208W        W78767  18.092   4.805   1.791
15209W        W78768  15.242  23.711  12.971
15210W        W78769   0.936  31.475   2.331
15211W        W78770  21.744  15.203  12.997
15212W        W78771  19.195  34.096  13.949
15213W        W78772   1.858  27.157   2.890
15214W        W78773   5.900  29.525  12.052
15215W        W78774  15.160   1.412  14.442
15216W        W78775  13.684  32.904   1.859
15217W        W78776  40.454  34.376   4.690
15218W        W78777  37.405   0.490  14.808
15219W        W78778  28.182  34.950  12.918
15220W        W78779   8.205   0.474   4.653
15221W        W78780  23.695  26.648  13.842
15222W        W78781   2.796  42.356   3.724
15223W        W78782  31.064   1.378  12.419
15224W        W78783  33.586  12.642  14.959
15225W        W78784  20.114  41.960  12.941
15226W        W78785  26.183  20.124  13.832
15227W        W78786  30.572  20.636  10.946
15228W        W78787  16.748  41.442   0.385
15229W        W78788  24.568  26.619  14.321
15230W        W78789  19.628  19.080   3.781
15231W        W78790  27.113  42.784   3.632
15232W        W78791  38.344  35.009   0.446
15233W        W78792   6.383  26.542   4.332
15234W        W78793  41.858  33.045  10.531
15235W        W78794  35.856  39.502  12.424
15236W        W78795   6.205  22.169  11.606
15237W        W78796  39.506  29.000   3.237
15238W        W78797  40.356  34.082  14.507
15239W        W78798  13.733  27.569   2.413
15240W        W78799  39.011   7.306  11.425
15241W        W78800   8.327  22.122   3.641
15242W        W78801  14.608   0.267   2.332
15243W        W78802  10.166  43.412  11.106
15244W        W78803  27.623  35.055   2.290
15245W        W78804  31.418  17.250  12.388
15246W        W78805  33.088  25.024   3.757
15247W        W78806   7.702  40.814   1.870
15248W        W78807   4.395  33.429   1.295
15249W        W78808  24.080  40.944  13.940
15250W        W78809   7.889  31.427  11.421
15251W        W78810  43.305  15.599   2.194
15252W        W78811  21.516   2.768   1.219
15253W        W78812  41.469  34.050  13.452
15254W        W78813  39.374  15.315   2.414
15255W        W78814  27.619  17.721   0.249
15256W        W78815  15.581  15.236   1.306
15257W        W78816   7.882  34.934  14.419
15258W        W78817  32.432  35.950  13.361
15259W        W78818  22.689  44.885   2.240
15260W        W78819   9.216  13.237   0.884
15261W        W78820  21.122  32.103   4.317
15262W        W78821  24.675   0.848   4.626
15263W        W78822  10.283  39.545   4.785
15264W        W78823  37.444  38.031   2.778
15265W        W78824  12.148   2.349   0.845
15266W        W78825   2.831  15.251   1.317
15267W        W78826  23.654  13.700   1.778
15268W        W78827  22.703  44.461  11.000
15269W        W78828   3.253  10.290  12.866
15270W        W78829  29.607   4.847  12.440
15271W        W78830   3.250  41.402   4.777
15272W        W78831  30.565  30.051  14.449
15273W        W78832  29.443  43.320  14.509
15274W        W78833  43.452  20.648  10.440
15275W        W78834  38.504  30.549  12.385
15276W        W78835   1.461  33.449   3.661
15277W        W78836  17.155  38.830   3.352
15278W        W78837  36.858  14.646   4.214
15279W        W78838   1.958  20.641   3.205
15280W        W78839  17.062   1.817   3.798
15281W        W78840  11.639   4.305   1.730
15282W        W78841  43.448  35.054  14.842
15283W        W78842  24.131   3.218  14.465
15284W        W78843  12.319  30.472  11.937
15285W        W78844  44.950  41.430   2.818
15286W        W78845  22.597  12.296  13.468
15287W        W78846   3.857  34.875  10.643
15288W        W78847  20.183  27.580   0.397
15289W        W78848   0.755  25.185   1.874
15290W        W78849  23.117  19.568   0.272
15291W        W78850   2.935   0.324   1.847
15292W        W78851  12.848  16.303   1.433
15293W        W78852  42.882   8.266   4.141
15294W        W78853  19.217  16.792   1.245
15295W        W78854  30.588  21.654   3.681
15296W        W78855   8.815  40.536   4.674
15297W        W78856  27.194  19.673   5.224
15298W        W78857  38.507   6.388   3.702
15299W        W78858  39.943   1.753   2.834
15300W        W78859   2.341  35.488   1.818
15301W        W78860  10.378  35.908   2.811
15302W        W78861  40.480   3.224   3.796
15303W        W78862  42.526   1.348   1.843
15304W        W78863  31.520  44.418   4.171
15305W        W78864   1.882   8.735  10.969
15306W        W78865  25.042  33.037   0.245
15307W        W78866  18.163  19.161   2.769
15308W        W78867  30.570  11.178  12.459
15309W        W78868  41.345  38.885  13.535
15310W        W78869  30.965  23.640  10.409
15311W        W78870  35.881   8.848   2.245
15312W        W78871   8.698  27.651  10.541
15313W        W78872  23.651  33.131   2.779
15314W        W78873  26.542  31.492  11.948
15315W        W78874   9.852  37.472  14.855
15316W        W78875  18.181  25.980   4.783
15317W        W78876  33.922  21.699  10.500
15318W        W78877  15.100   4.931   4.253
15319W        W78878  29.027   4.922  13.336
15320W        W78879  23.534  31.065  13.877
15321W        W78880  26.460   3.779  10.606
15322W        W78881   4.818   0.971  11.401
15323W        W78882  25.509  23.094  13.873
15324W        W78883  35.083  13.627  13.962
15325W        W78884  34.971   0.357   2.864
15326W        W78885  34.544   3.712   0.961
15327W        W78886  16.206  23.724   5.175
15328W        W78887  39.031  13.646   1.729
15329W        W78888  27.105  11.861  13.369
15330W        W78889   3.724  21.626   1.440
15331W        W78890  44.922   6.790  13.435
15332W        W78891  11.333  20.094  12.973
15333W        W78892  33.625  16.159   3.301
15334W        W78893   2.819  12.706   0.908
15335W        W78894  26.115  38.449  12.547
15336W        W78895  41.928  31.406   2.221
15337W        W78896  25.210  42.474   4.777
15338W        W78897  29.014  31.573   1.898
15339W        W78898  15.145  31.086   2.255
15340W        W78899  29.958  31.582  11.090
15341W        W78900  11.309  17.065   4.121
15342W        W78901  11.337  19.618  10.572
15343W        W78902  34.923  39.042   4.343
15344W        W78903  20.111  10.819  13.469
15345W        W78904  40.008  33.397  12.378
15346W        W78905   9.840   0.984   4.655
15347W        W78906  23.088   6.185   4.658
15348W        W78907  38.926  34.614  12.397
15349W        W78908   6.787  16.208   4.793
15350W        W78909  44.943  30.582  10.619
15351W        W78910  42.962  16.762   1.756
15352W        W78911  26.557  16.799   3.675
15353W        W78912  43.406   4.758   3.182
15354W        W78913  31.522  24.645  10.910
15355W        W78914  36.055  11.701  12.514
15356W        W78915  44.931  30.454  11.403
15357W        W78916  15.239  40.844   4.695
15358W        W78917  33.408  18.666  11.044
15359W        W78918  40.920  42.459   2.668
15360W        W78919  21.242  17.138  10.617
15361W        W78920   4.746  44.433  13.048
15362W        W78921  17.181  38.421   0.824
15363W        W78922  11.733  19.563  10.418
15364W        W78923  38.434  16.182   4.732
15365W        W78924  10.768  27.522   3.799
15366W        W78925  29.495  27.606   4.169
15367W        W78926  26.555  33.977   0.736
15368W        W78927  15.085   2.308  11.409
15369W        W78928   3.785   1.816   2.293
15370W        W78929  28.471  26.572   1.830
15371W        W78930  39.337  37.983   4.749
15372W        W78931   2.265   9.758   2.323
15373W        W78932  28.017   3.947   1.845
15374W        W78933  44.374  16.643   3.837
15375W        W78934  17.556   1.971   4.695
15376W        W78935  18.226  38.498   0.468
15377W        W78936  11.827  11.767   3.730
15378W        W78937  37.015   3.847   4.315
15379W        W78938  16.597   9.276   0.768
15380W        W78939  11.749  11.853  11.930
15381W        W78940  19.077  12.293  12.381
15382W        W78941  36.887  10.142  13.815
15383W        W78942  21.237  28.512  12.365
15384W        W78943  36.415  32.908  13.001
15385W        W78944   7.855  42.008  13.931
15386W        W78945  24.080  18.053   0.936
15387W        W78946  16.182  20.734   3.278
15388W        W78947   9.349  15.593  13.984
15389W        W78948  23.225  34.005  13.833
15390W        W78949  18.179  38.452  12.024
15391W        W78950   8.711  13.302  14.865
15392W        W78951  32.515  42.318   2.398
15393W        W78952  35.862  32.487  12.514
15394W        W78953   2.379   0.823   0.421
15395W        W78954   0.423   9.779  11.390
15396W        W78955   7.221  24.229  11.104
15397W        W78956  30.953  16.256   4.338
15398W        W78957  13.781   1.838   4.813
15399W        W78958   8.211  12.683  11.066
15400W        W78959   7.410  24.002   2.309
15401W        W78960  15.275  13.203  14.977
15402W        W78961  32.899  32.118   5.081
15403W        W78962  16.144   5.821  14.869
15404W        W78963  23.092  10.795   1.322
15405W        W78964  19.104  39.878  13.917
15406W        W78965  14.315  37.464   0.433
15407W        W78966  18.084  26.992   3.298
15408W        W78967  17.164   8.890   5.294
15409W        W78968  29.947  28.644   3.704
15410W        W78969   0.398  41.365   0.447
15411W        W78970   9.841  23.159  14.429
15412W        W78971   4.221  36.988   3.761
15413W        W78972   3.887  19.586   3.649
15414W        W78973  21.154  32.450  12.984
15415W        W78974  35.875  44.431   3.644
15416W        W78975  17.615  37.998   4.267
15417W        W78976  34.506  33.022   3.261
15418W        W78977  20.546  18.295  14.478
15419W        W78978  42.313  21.216  10.554
15420W        W78979  10.795  39.431   1.266
15421W        W78980   7.348  10.774  13.928
15422W        W78981  40.335  28.561  11.892
15423W        W78982   1.246   7.822  10.593
15424W        W78983  33.019  20.254   0.482
15425W        W78984  43.999  40.317   1.908
15426W        W78985   5.374  20.683  13.990
15427W        W78986   4.921  15.256  11.008
15428W        W78987  27.123   7.760   1.268
15429W        W78988   8.824  37.071   2.316
15430W        W78989  31.905  38.937  11.557
15431W        W78990  30.621   9.153   4.632
15432W        W78991  33.609  18.228   4.602
15433W        W78992  14.622  32.568   1.220
15434W        W78993  24.617  13.204  11.907
15435W        W78994  33.552  29.934  10.984
15436W        W78995  31.104  16.634   1.708
15437W        W78996  39.029  35.489   0.400
15438W        W78997  13.241  32.960   3.652
15439W        W78998  42.931  13.232   4.113
15440W        W78999  10.667  29.993  10.625
15441W        W79000  42.878  12.837   2.764
15442W        W79001  39.056  35.041   1.755
15443W        W79002  14.278  33.928   5.590
15444W        W79003   3.331  40.813  11.463
15445W        W79004  11.250  42.514   0.313
15446W        W79005  23.675  36.364  10.545
15447W        W79006  17.187  33.903   1.311
15448W        W79007  39.030  28.662  11.998
15449W        W79008   2.472  34.592  12.070
15450W        W79009  39.315  34.494   4.329
15451W        W79010  12.755  37.396   0.439
15452W        W79011  11.235  12.140  13.318
15453W        W79012  21.618   4.378   0.272
15454W        W79013  29.991  36.969  12.451
15455W        W79014   6.702  14.694  13.012
15456W        W79015   6.277  38.369   4.154
15457W        W79016  22.036  26.510   1.758
15458W        W79017  26.966   8.825  11.478
15459W        W79018  16.696  25.051   4.291
15460W        W79019  30.949  31.902   4.302
15461W        W79020  39.469  20.056   3.261
15462W        W79021  19.051  44.474   2.198
15463W        W79022   0.279   0.835  14.854
15464W        W79023  17.732  27.644   0.776
15465W        W79024  24.161  42.511  11.981
15466W        W79025   2.471  10.823  12.970
15467W        W79026  22.551  16.244   3.787
15468W        W79027   8.345   1.473   3.846
15469W        W79028  14.253  30.444  14.400
15470W        W79029  37.961  13.788   0.766
15471W        W79030   3.790  18.204   3.342
15472W        W79031  16.589  42.904  13.368
15473W        W79032  27.468  22.175  13.370
15474W        W79033  30.640  27.158   4.193
15475W        W79034   2.850  16.778   1.336
15476W        W79035   7.246  28.936  12.840
15477W        W79036   1.807   9.693   0.354
15478W        W79037  33.565   9.214  10.928
15479W        W79038  19.281  10.791  10.616
15480W        W79039   7.736   8.884   9.952
15481W        W79040  44.442  41.433  12.467
15482W        W79041  11.241  22.616   0.386
15483W        W79042   9.385  11.822   5.710
15484W        W79043  44.814  17.149  14.918
15485W        W79044   1.798   5.367   3.148
15486W        W79045  39.929  20.713  10.613
15487W        W79046  24.037  24.159  14.008
15488W        W79047  34.392  31.572  13.434
15489W        W79048   1.838   2.841   3.760
15490W        W79049   2.383  25.505   0.449
15491W        W79050  20.212  10.216  10.097
15492W        W79051  29.596  30.095   4.257
15493W        W79052  20.561  40.820   1.744
15494W        W79053  23.665  15.781   1.901
15495W        W79054  12.313  42.811  14.921
15496W        W79055  44.922  42.311  12.023
15497W        W79056  24.666  28.590  13.519
15498W        W79057   9.391  17.274  14.514
15499W        W79058  27.667  23.613  12.913
15500W        W79059  39.546  41.298  11.043
15501W        W79060  14.284  22.714   2.732
15502W        W79061  44.268  39.342  11.124
15503W        W79062  38.951  42.893  12.580
15504W        W79063  39.390  14.615  11.490
15505W        W79064  14.663  21.118   4.654
15506W        W79065   0.851  26.005   2.251
15507W        W79066  38.974  14.199  13.819
15508W        W79067  44.971  34.525   2.688
15509W        W79068  29.649  39.845  10.999
15510W        W79069  23.008   0.927  12.431
15511W        W79070   1.928  35.584  11.961
15512W        W79071  37.491  35.906  10.441
15513W        W79072  14.800  31.002  12.091
15514W        W79073  19.280   7.370  11.975
15515W        W79074  28.661   0.279   4.130
15516W        W79075   0.258  15.711  11.894
15517W        W79076  40.814   9.203  14.450
15518W        W79077  41.439  21.203  12.531
15519W        W79078  32.961  42.379   1.407
15520W        W79079  29.123  11.358  12.082
15521W        W79080  35.874   4.213   3.346
15522W        W79081  25.074  41.499   3.218
15523W        W79082  13.154  26.690   3.207
15524W        W79083  38.430  44.354   4.686
15525W        W79084  27.527  39.397  14.377
15526W        W79085  17.625  13.304  14.871
15527W        W79086  40.806   5.332  11.400
15528W        W79087  14.772  12.295  11.508
15529W        W79088   1.427  22.996  14.308
15530W        W79089  12.626  34.558   0.461
15531W        W79090  23.679   1.275  11.372
15532W        W79091  30.511  29.512  14.433
15533W        W79092  20.531   6.376  13.873
15534W        W79093  40.410  19.762  12.453
15535W        W79094   9.809  20.604  10.587
15536W        W79095  22.554  41.420  12.947
15537W        W79096  28.013  31.413   3.846
15538W        W79097  31.520  34.426   0.778
15539W        W79098  19.109  20.586   2.702
15540W        W79099  17.577  41.823  14.944
15541W        W79100  42.811  27.942  13.051
15542W        W79101  30.971  34.919   0.871
15543W        W79102  11.793  40.965   0.339
15544W        W79103  41.983  30.454  11.933
15545W        W79104  17.191  40.849  14.326
15546W        W79105  19.236  28.994   3.370
15547W        W79106  17.074  22.539   2.204
15548W        W79107   9.783  24.173  14.779
15549W        W79108  29.079  26.164  13.407
15550W        W79109  33.106  14.714   2.415
15551W        W79110  22.656  15.740   1.929
15552W        W79111  19.265  29.115   1.784
15553W        W79112   3.759  38.478  14.793
15554W        W79113   2.465  40.472  11.112
15555W        W79114   7.300   9.834   3.739
15556W        W79115   1.745  11.843  13.453
15557W        W79116  14.270  33.446  12.939
15558W        W79117   3.324  33.008  12.493
15559W        W79118   0.872  33.549   4.214
15560W        W79119  38.930   9.655   1.862
15561W        W79120  38.856   5.773  10.061
15562W        W79121  35.024  14.198   2.671
15563W        W79122  38.498  26.999  12.471
15564W        W79123   5.282  10.275   1.736
15565W        W79124  37.902   7.288   4.660
15566W        W79125  39.908   4.818   3.652
15567W        W79126  10.295  13.739   2.666
15568W        W79127  15.087   2.325   4.751
15569W        W79128  21.181  20.236  11.523
15570W        W79129  40.426  22.618   2.871
15571W        W79130  43.510   7.409  13.520
15572W        W79131  12.832  32.587   3.352
15573W        W79132   1.276   0.464   0.312
15574W        W79133  19.654  25.147   5.297
15575W        W79134   2.413   4.335  13.867
15576W        W79135  10.297   6.197   1.269
15577W        W79136   1.884  13.107   3.314
15578W        W79137  19.200   0.449   4.622
15579W        W79138  27.565  16.750  10.423
15580W        W79139  10.198   4.251   9.974
15581W        W79140  40.452  13.796   4.202
15582W        W79141  11.273   7.667  12.004
15583W        W79142  16.171   0.851   1.922
15584W        W79143  37.931  10.273  11.006
15585W        W79144   3.297  23.057  14.965
15586W        W79145  12.140  32.560   3.353
15587W        W79146  41.321  13.328   2.374
15588W        W79147   7.254   1.388   1.867
15589W        W79148  19.700  25.090   2.369
15590W        W79149  13.322  19.154   0.338
15591W        W79150  34.415  42.394  10.904
15592W        W79151  35.019  42.338   2.780
15593W        W79152  29.030  18.201  14.457
15594W        W79153  37.343  38.429   3.823
15595W        W79154  40.503  28.984   4.268
15596W        W79155   5.265  30.959  12.393
15597W        W79156  19.164  36.000  12.986
15598W        W79157   0.894  43.949  12.461
15599W        W79158  15.281  40.964   4.119
15600W        W79159  30.987  34.591   2.781
15601W        W79160  40.928  38.993   2.845
15602W        W79161  18.292  43.501  11.923
15603W        W79162  27.029   5.871  10.969
15604W        W79163   8.677  40.939  14.341
15605W        W79164  28.537  17.062   0.871
15606W        W79165  43.509  42.914  13.819
15607W        W79166  44.958  39.914  11.429
15608W        W79167  20.689  42.949  13.475
15609W        W79168  10.837  16.114   9.474
15610W        W79169  38.358  19.596   1.833
15611W        W79170  36.505  43.964  12.862
15612W        W79171  31.565  42.980   5.186
15613W        W79172  27.614   2.371   0.739
15614W        W79173  32.042   0.770   4.145
15615W        W79174  20.594  43.782   4.646
15616W        W79175  14.602  11.351  13.810
15617W        W79176  29.580  18.231   2.825
15618W        W79177  28.109   7.788   3.770
15619W        W79178  41.426  18.067  13.876
15620W        W79179  32.983  21.693  13.407
15621W        W79180  32.582  21.217  14.860
15622W        W79181  41.469  20.183  10.959
15623W        W79182  24.594  25.183  10.520
15624W        W79183  18.729  22.230  12.952
15625W        W79184   7.280  18.091  11.891
15626W        W79185   3.293  40.329  14.406
15627W        W79186   1.733   0.493  12.471
15628W        W79187  34.394  32.982  10.414
15629W        W79188  37.462  29.084  13.811
15630W        W79189  18.190  31.559  10.585
15631W        W79190   4.311   0.867  12.068
15632W        W79191  22.559  40.506   0.309
15633W        W79192  13.134  36.899   3.705
15634W        W79193   5.257  36.856  11.949
15635W        W79194  44.764  20.124  12.862
15636W        W79195  28.149   1.337   4.328
15637W        W79196  32.577  11.789  13.450
15638W        W79197  20.569  25.524  13.855
15639W        W79198   5.718  18.770  10.904
15640W        W79199  15.302  43.374   3.742
15641W        W79200  27.983   9.791   1.806
15642W        W79201  36.448  43.481   3.301
15643W        W79202  32.967  20.274  13.324
15644W        W79203   1.746  31.003   1.876
15645W        W79204  24.529  35.103  11.590
15646W        W79205  37.470  34.410  12.942
15647W        W79206  38.950  29.172  13.925
15648W        W79207  44.467   8.693  10.134
15649W        W79208  17.081  26.207   3.364
15650W        W79209  10.690   2.959   0.326
15651W        W79210  14.295   8.773   4.837
15652W        W79211  37.434  16.203  14.972
15653W        W79212  35.878  30.126  13.456
15654W        W79213  41.508  15.805  11.866
15655W        W79214  42.438  38.947   0.342
15656W        W79215   0.493  39.350  11.570
15657W        W79216  24.204  27.002   0.402
15658W        W79217   8.281  26.672   0.771
15659W        W79218   9.807  11.329  14.396
15660W        W79219  17.282   6.328   2.183
15661W        W79220  16.569  44.370   1.771
15662W        W79221  11.754  18.161   2.709
15663W        W79222  35.545  22.084  11.869
15664W        W79223   5.717  40.418  11.117
15665W        W79224  27.667  25.011  10.518
15666W        W79225  27.172  26.464  10.606
15667W        W79226  37.947  26.161   1.719
15668W        W79227  26.532  12.202   3.639
15669W        W79228  26.627   7.761   0.960
15670W        W79229  38.052  36.997  10.456
15671W        W79230  41.880  25.963  11.385
15672W        W79231  37.574  13.202  13.064
15673W        W79232  25.036   6.755   3.859
15674W        W79233  23.498  32.046  14.010
15675W        W79234  16.664   3.934  11.958
15676W        W79235  17.616  28.654   0.932
15677W        W79236  13.795  36.538  12.039
15678W        W79237  36.356  10.874   0.835
15679W        W79238  15.659  32.456  14.436
15680W        W79239  38.845  26.542  14.015
15681W        W79240  42.383  28.590   4.837
15682W        W79241  39.544  41.897   3.253
15683W        W79242  11.786   3.398   2.244
15684W        W79243  19.780  14.753   3.757
15685W        W79244  26.013  21.039   5.709
15686W        W79245   9.645  38.463  11.550
15687W        W79246  25.102  19.186   0.378
15688W        W79247  43.305  21.256   3.636
15689W        W79248  25.211  16.587   4.261
15690W        W79249  42.785  28.520  13.028
15691W        W79250   1.750  32.440   3.834
15692W        W79251  28.671   9.391   2.762
15693W        W79252  34.997  26.504  13.803
15694W        W79253   3.837  12.829  11.530
15695W        W79254  28.170  29.148   0.774
15696W        W79255  38.513  44.429   2.727
15697W        W79256   6.344  36.497  14.892
15698W        W79257   0.910   7.194  11.059
15699W        W79258   6.311  28.100  13.380
15700W        W79259   2.755   2.764  12.355
15701W        W79260  18.285   5.808  14.355
15702W        W79261  34.039  23.730   4.348
15703W        W79262  29.014   9.671  14.937
15704W        W79263  41.338  20.274   2.853
15705W        W79264  22.205  40.884  14.823
15706W        W79265   7.181  31.505   2.412
15707W        W79266  38.074   3.262   2.311
15708W        W79267  11.702   4.297   0.452
15709W        W79268  23.645  11.855   0.318
15710W        W79269  31.455  27.677  10.516
15711W        W79270  33.462  29.102  14.939
15712W        W79271  27.164  16.776  13.953
15713W        W79272  33.042  30.129   2.732
15714W        W79273  30.580  18.591   0.475
15715W        W79274  31.116  24.647  11.498
15716W        W79275  36.949  14.193   0.907
15717W        W79276  30.502  43.309  12.406
15718W        W79277   6.693   1.831   4.128
15719W        W79278  31.939  27.503   3.360
15720W        W79279  42.928  21.200  14.407
15721W        W79280  28.933  44.902   3.791
15722W        W79281  25.583   0.262   0.266
15723W        W79282   7.224  43.480  13.400
15724W        W79283   6.419  12.216  12.356
15725W        W79284  10.822  30.529  11.997
15726W        W79285  34.939   6.917   0.259
15727W        W79286   7.397  29.086   3.227
15728W        W79287  11.256  23.558   1.415
15729W        W79288   2.917  38.492   2.364
15730W        W79289  34.086  44.789   3.808
15731W        W79290  33.439  31.043  11.024
15732W        W79291  34.959  12.245  12.476
15733W        W79292  35.590  14.601   3.238
15734W        W79293  28.550  41.953   3.691
15735W        W79294  37.553  25.606   3.176
15736W        W79295  30.120  43.380  10.415
15737W        W79296  24.000  42.338   1.928
15738W        W79297  39.459  24.717   1.425
15739W        W79298   8.388  35.443   0.874
15740W        W79299  26.092  37.910  11.933
15741W        W79300  29.505  20.689  14.850
15742W        W79301   4.707  36.366  13.837
15743W        W79302  33.960  27.608  12.358
15744W        W79303  43.476   9.151   4.814
15745W        W79304  39.387  10.659  14.296
15746W        W79305   1.303  39.880  14.325
15747W        W79306  27.596  14.158  11.108
15748W        W79307  36.364  35.057  12.405
15749W        W79308  12.175  28.137   2.247
15750W        W79309   6.784   7.737   4.179
15751W        W79310  42.440  44.282   0.315
15752W        W79311  39.974   9.232  14.348
15753W        W79312  20.554  25.613   2.700
15754W        W79313  20.197   8.281   1.714
15755W        W79314   2.832   6.219   2.841
15756W        W79315  33.081   1.355  14.457
15757W        W79316  23.600  43.488   1.875
15758W        W79317  18.647  41.491  14.802
15759W        W79318  27.562  18.131  12.564
15760W        W79319   3.264  34.577  13.438
15761W        W79320  35.535  13.287   2.899
15762W        W79321  29.980  18.765  10.510
15763W        W79322   6.888  10.672   3.343
15764W        W79323  12.262  14.602   0.474
15765W        W79324  44.396  43.957  11.961
15766W        W79325   5.199  33.606  10.152
15767W        W79326   9.805  22.060  11.603
15768W        W79327  36.580   7.729  11.523
15769W        W79328   6.818   4.749  14.029
15770W        W79329  17.681  19.730   2.289
15771W        W79330   5.383   1.887   2.697
15772W        W79331  42.369   4.794  13.845
15773W        W79332  32.527  42.963   3.658
15774W        W79333  40.997   6.786  10.511
15775W        W79334  18.668   4.923   2.294
15776W        W79335  17.066   4.360   0.966
15777W        W79336  12.694  43.369  13.863
15778W        W79337  13.686  12.856  11.033
15779W        W79338  41.391  42.336  13.379
15780W        W79339  20.216  40.317  14.307
15781W        W79340  12.306  21.032   1.237
15782W        W79341  27.060  27.951   3.327
15783W        W79342  11.229  32.594   2.860
15784W        W79343  43.929  18.609   3.191
15785W        W79344  17.083  41.788   4.678
15786W        W79345  29.508  27.472  10.603
15787W        W79346  33.968   3.839   0.788
15788W        W79347  43.485  37.467   1.316
15789W        W79348  39.415  18.599  10.891
15790W        W79349   6.773   8.180   0.874
15791W        W79350  23.730  38.053  12.860
15792W        W79351   1.831  22.515  14.284
15793W        W79352  24.033  25.479   1.214
15794W        W79353  14.106  43.952  13.391
15795W        W79354  43.271  37.013   1.718
15796W        W79355  30.604   8.749   5.132
15797W        W79356  32.905   1.245   4.744
15798W        W79357  25.514  20.207   1.902
15799W        W79358  27.189  26.589   1.424
15800W        W79359  22.635  30.914  11.388
15801W        W79360   5.420  24.508  10.462
15802W        W79361  23.073  41.361  11.521
15803W        W79362  36.511  27.106  14.976
15804W        W79363  19.665  29.008  12.532
15805W        W79364   7.185  30.513   2.202
15806W        W79365  17.603   5.380  14.013
15807W        W79366   7.178  42.300   3.675
15808W        W79367  13.677  27.943  11.454
15809W        W79368  25.667  34.445  13.862
15810W        W79369  36.982  30.020  14.998
15811W        W79370   1.884  34.440   4.738
15812W        W79371   1.253  21.219  12.541
15813W        W79372  23.156  41.501  13.366
15814W        W79373  43.414  29.145  11.480
15815W        W79374  14.776  10.809   2.863
15816W        W79375  36.022  19.657   3.191
15817W        W79376   7.323  41.511  13.461
15818W        W79377  28.505  26.106  12.832
15819W        W79378  23.184  24.159   2.397
15820W        W79379   3.448  16.770  12.568
15821W        W79380  23.507  43.810   1.429
15822W        W79381  35.853   4.833  10.496
15823W        W79382   0.295  16.307   0.775
15824W        W79383  40.536  41.341   2.297
15825W        W79384  28.629  11.132   1.795
15826W        W79385  24.564  28.046   1.439
15827W        W79386  20.555  12.734  13.003
15828W        W79387  41.950  11.841  12.079
15829W        W79388   3.865  23.043  11.535
15830W        W79389   2.370   6.899  11.976
15831W        W79390  22.098  15.720   3.844
15832W        W79391  19.535  14.230   2.397
15833W        W79392  34.971  26.060  12.005
15834W        W79393  34.512  38.423   0.761
15835W        W79394  44.438  26.125   5.171
15836W        W79395  25.991  24.062   1.852
15837W        W79396   7.231  28.654  10.999
15838W        W79397  41.308   3.233  12.426
15839W        W79398  39.354  15.678  10.993
15840W        W79399  43.424  33.540  14.279
15841W        W79400  38.899  43.960   3.361
15842W        W79401  26.680   7.283  11.043
15843W        W79402   5.806  27.071  11.909
15844W        W79403  41.831  24.557  13.381
15845W        W79404  20.696  24.131  11.884
15846W        W79405  39.542   7.293   1.777
15847W        W79406  26.696   9.277  11.610
15848W        W79407  36.479  36.573   4.323
15849W        W79408  41.406  33.476   3.369
15850W        W79409  25.117  36.880  14.990
15851W        W79410  24.116   2.945   2.379
15852W        W79411  19.248  33.575   0.331
15853W        W79412  26.473  37.551   0.829
15854W        W79413  16.643  10.705  13.371
15855W        W79414  10.273  37.000   0.352
15856W        W79415  24.710  44.010   4.257
15857W        W79416   2.369   9.676   0.255
15858W        W79417   1.758   0.488  10.465
15859W        W79418  21.131  21.641  10.410
15860W        W79419  38.357   9.778   2.401
15861W        W79420   6.233  36.867  14.930
15862W        W79421  37.423  43.983  10.154
15863W        W79422  20.083  11.678  13.017
15864W        W79423   9.361  10.846  11.952
15865W        W79424  25.640  30.420  13.459
15866W        W79425  21.518  19.609  14.385
15867W        W79426   2.896  41.945   2.763
15868W        W79427  21.147  24.995   1.426
15869W        W79428   2.846  13.199   0.759
15870W        W79429  28.074  13.767  14.791
15871W        W79430  29.063   1.439  12.997
15872W        W79431  20.235  22.118  10.598
15873W        W79432  23.585   8.323  11.443
15874W        W79433  39.048   2.250  12.870
15875W        W79434  43.314   5.907  12.067
15876W        W79435  22.134  17.238  13.377
15877W        W79436  13.271  41.397  12.966
15878W        W79437  35.010  23.726  14.497
15879W        W79438  38.403  24.623  11.449
15880W        W79439   2.815  30.630   2.192
15881W        W79440  12.696  44.416  11.559
15882W        W79441  41.884  31.992   0.802
15883W        W79442  41.329  16.215  14.467
15884W        W79443  28.537   8.351   3.764
15885W        W79444  40.488  30.426  14.890
15886W        W79445  29.080   9.225   0.898
15887W        W79446  35.039   9.392   2.329
15888W        W79447  25.640  10.359  14.325
15889W        W79448  11.710  11.833   9.949
15890W        W79449  22.650  25.052  11.558
15891W        W79450  21.235  43.343   0.889
15892W        W79451  27.675  18.168   2.750
15893W        W79452  15.093  25.618  12.959
15894W        W79453  13.700   6.724  14.812
15895W        W79454  26.615   5.288   1.275
15896W        W79455   8.205  16.179  12.537
15897W        W79456  32.637  22.709  14.904
15898W        W79457  38.347   8.207   4.285
15899W        W79458   2.262  21.091  10.118
15900W        W79459  16.184  28.451  10.547
15901W        W79460   3.447   0.311  10.563
15902W        W79461  25.711  16.283  14.276
15903W        W79462  20.614  27.118   3.668
15904W        W79463  16.152  21.058  11.591
15905W        W79464  35.382  41.985  11.515
15906W        W79465  44.832   1.795   4.615
15907W        W79466  39.018  28.510  11.570
15908W        W79467   1.786  36.472   2.829
15909W        W79468  22.070  11.789   2.797
15910W        W79469   9.662   6.387  12.056
15911W        W79470  33.380   6.904   3.784
15912W        W79471  20.663  35.057  11.388
15913W        W79472  25.962  43.003  14.317
15914W        W79473   1.244  35.423  13.477
15915W        W79474  40.041   7.332  11.929
15916W        W79475  17.623   2.456   0.268
15917W        W79476  37.884   3.756  11.478
15918W        W79477  18.681  39.500  12.091
15919W        W79478  30.068  38.027  13.933
15920W        W79479   4.419  18.218  14.833
15921W        W79480  12.335   1.296   4.145
15922W        W79481  17.721  34.552   3.815
15923W        W79482   6.338  10.659   1.737
15924W        W79483   3.899  31.033   4.776
15925W        W79484  36.481  22.213  12.466
15926W        W79485   7.870  38.564   2.748
15927W        W79486   5.224  42.912   2.855
15928W        W79487   2.791  33.391   4.675
15929W        W79488  30.931  25.484   4.670
15930W        W79489  15.211   5.773   0.855
15931W        W79490   3.750  11.171  12.091
15932W        W79491  28.997   6.856  13.913
15933W        W79492   5.801   3.735   4.721
15934W        W79493  20.550  12.224  14.342
15935W        W79494   8.343  39.890   2.276
15936W        W79495   6.298   3.415   2.419
15937W        W79496   8.712  41.016  11.491
15938W        W79497  38.824   8.383  14.417
15939W        W79498  12.787  30.155  13.450
15940W        W79499  29.485  21.186  12.032
15941W        W79500  10.320   2.278  10.488
15942W        W79501   8.253  32.613  12.560
15943W        W79502   0.925  34.578   2.738
15944W        W79503  11.743  17.618   3.273
15945W        W79504  14.748  32.553  11.394
15946W        W79505  25.467  11.293  14.941
15947W        W79506  37.069   2.817   1.255
15948W        W79507  10.642   7.685  11.941
15949W        W79508  14.666  44.789  14.428
15950W        W79509   5.391  27.089  14.379
15951W        W79510  13.809   3.418   2.216
15952W        W79511   5.774  14.102  11.960
15953W        W79512   6.910  11.282   0.310
15954W        W79513   2.788   6.873  10.524
15955W        W79514  23.707  17.685   4.157
15956W        W79515  44.347  44.414  12.557
15957W        W79516  39.314   6.329  11.473
15958W        W79517  24.049   2.791   2.746
15959W        W79518  41.492  36.400  10.897
15960W        W79519  39.014  38.959  13.846
15961W        W79520  44.005   8.889  11.558
15962W        W79521  14.642  36.933  14.386
15963W        W79522   3.945  41.998   1.345
15964W        W79523  33.881  23.232  11.552
15965W        W79524  13.217  23.576   1.897
15966W        W79525  20.098  26.997  11.455
15967W        W79526  21.038  37.989   1.423
15968W        W79527  22.238  21.521  11.052
15969W        W79528  21.682  31.574  10.943
15970W        W79529  18.255   4.805  11.867
15971W        W79530  33.559  13.181   0.457
15972W        W79531   6.771  25.527  14.495
15973W        W79532  41.817  40.932  11.949
15974W        W79533  37.911  43.503  10.946
15975W        W79534   4.301  43.485   1.430
15976W        W79535  38.033  17.802  12.417
15977W        W79536   4.902  33.581   3.157
15978W        W79537  21.071  23.507   1.438
15979W        W79538  18.564   6.407   3.739
15980W        W79539  33.071  16.296   4.253
15981W        W79540  24.707   3.215   0.293
15982W        W79541   4.789  34.599   2.313
15983W        W79542  26.009  45.000  12.437
15984W        W79543  10.373  18.209  12.961
15985W        W79544  15.600  12.211   3.725
15986W        W79545   6.909   6.700   3.741
15987W        W79546  34.081  17.129  10.917
15988W        W79547  13.163   0.315  11.078
15989W        W79548  28.099  30.462   2.392
15990W        W79549   5.827  32.905   2.663
15991W        W79550   1.360   9.223  12.920
15992W        W79551  23.183  34.870   1.242
15993W        W79552  15.115  27.588  12.982
15994W        W79553   7.755   7.825  11.948
15995W        W79554  20.181  19.055  11.957
15996W        W79555  25.598  37.966   4.828
15997W        W79556   5.198  18.723   1.449
15998W        W79557  25.071  15.589   3.645
15999W        W79558  38.345  39.877  14.811
16000W        W79559   4.833  10.139  14.336
16001W        W79560  14.778  27.593  10.974
16002W        W79561  16.078  34.035   0.404
16003W        W79562   6.835  38.512   0.347
16004W        W79563  27.549   6.218   1.418
16005W        W79564  41.407  14.309  11.481
16006W        W79565   1.304  44.963  14.493
16007W        W79566  43.508  23.036   2.874
16008W        W79567  43.294  41.944  10.489
16009W        W79568   2.360  41.990   1.232
16010W        W79569  33.587  22.624   5.210
16011W        W79570  14.307  20.574   3.338
16012W        W79571  28.462  25.604   0.839
16013W        W79572   0.397  11.153  12.066
16014W        W79573  37.847   5.344  11.888
16015W        W79574  16.685  24.139   3.731
16016W        W79575  17.756  38.011  14.383
16017W        W79576  31.003  40.433   0.792
16018W        W79577  22.238   1.357   0.960
16019W        W79578  35.431  11.701   3.772
16020W        W79579  28.149  33.558   3.805
16021W        W79580  14.751  11.837  10.437
16022W        W79581  39.317  38.970   1.381
16023W        W79582  16.199  29.008   1.926
16024W        W79583  36.037  20.768   3.827
16025W        W79584  12.673  40.350  13.822
16026W        W79585  22.190   9.881  12.428
16027W        W79586   1.952  39.039  11.894
16028W        W79587  40.895  18.110   3.782
16029W        W79588  25.597  13.287   1.779
16030W        W79589  31.931  33.520   4.749
16031W        W79590  30.494  32.020  11.936
16032W        W79591   2.375  40.498   3.376
16033W        W79592  27.945   4.376   0.474
16034W        W79593  14.131  12.234  10.555
16035W        W79594  34.032  36.046  11.945
16036W        W79595   8.191  32.000   2.835
16037W        W79596  41.433  27.084   2.810
16038W        W79597  42.427  38.334  14.476
16039W        W79598  24.105  12.166   3.781
16040W        W79599  12.342  44.753   4.644
16041W        W79600  44.362  29.637   5.310
16042W        W79601  11.637  39.021   3.265
16043W        W79602  12.247  34.593   3.184
16044W        W79603  33.523  10.316  12.469
16045W        W79604  33.992  18.054   3.749
16046W        W79605  15.276  13.142  13.975
16047W        W79606  44.390  14.183   2.385
16048W        W79607   8.713  19.276  12.980
16049W        W79608  12.333  36.472  10.451
16050W        W79609  16.304   3.389  13.420
16051W        W79610   7.311  38.435  12.542
16052W        W79611  44.290  38.925  11.971
16053W        W79612  33.078  25.580   3.812
16054W        W79613  17.261  33.514  12.451
16055W        W79614  22.571   0.892   0.473
16056W        W79615  28.677  32.430   1.268
16057W        W79616  41.804   5.251  11.559
16058W        W79617   6.409   9.207  11.055
16059W        W79618  35.892  28.087   0.944
16060W        W79619  28.021  25.710   1.706
16061W        W79620   3.926  18.077  11.069
16062W        W79621   7.284  42.400  13.990
16063W        W79622  18.176  17.613   3.212
16064W        W79623  41.376  25.095   3.267
16065W        W79624  21.086  27.068  11.879
16066W        W79625  17.290   8.846  11.979
16067W        W79626  42.869  20.086  11.061
16068W        W79627  38.554  28.647  10.536
16069W        W79628  14.674  10.323   9.634
16070W        W79629  43.446  13.161  12.998
16071W        W79630  18.217  27.066   0.439
16072W        W79631  19.579   9.724   3.151
16073W        W79632  24.984   2.839   4.830
16074W        W79633  17.584  20.081   0.875
16075W        W79634  28.645  44.005  11.986
16076W        W79635  40.518  30.418   2.372
16077W        W79636  20.751  27.071   1.776
16078W        W79637  15.220  12.217   1.237
16079W        W79638  32.563  29.655  13.409
16080W        W79639  26.681  44.425  14.405
16081W        W79640  42.873   4.386   3.850
16082W        W79641   1.414  40.447   4.817
16083W        W79642  36.450  32.079   0.755
16084W        W79643  22.135  32.420   0.817
16085W        W79644  25.048  33.905   2.711
16086W        W79645   3.319  20.561  13.944
16087W        W79646  40.438  10.705  11.385
16088W        W79647  28.123  36.951   3.362
16089W        W79648  35.945   6.827   3.209
16090W        W79649  42.802  13.781   0.874
16091W        W79650  29.455  26.050  12.092
16092W        W79651  22.174  37.554  13.908
16093W        W79652   1.934  42.882   4.785
16094W        W79653  16.195  24.166   5.228
16095W        W79654  25.489  25.122  13.386
16096W        W79655  24.480  17.796   3.186
16097W        W79656  19.108  43.993   4.320
16098W        W79657  16.100  20.245   0.879
16099W        W79658  29.948   1.368   3.217
16100W        W79659  28.966   3.372  11.939
16101W        W79660  13.219  21.094   5.624
16102W        W79661  16.600  16.631   1.853
16103W        W79662  40.348   2.265   0.959
16104W        W79663  38.459  41.405   3.795
16105W        W79664  13.183  41.875  13.933
16106W        W79665  40.945   1.394  14.759
16107W        W79666  12.147  44.384   1.442
16108W        W79667  35.601   2.284   2.705
16109W        W79668  39.441  29.633   3.732
16110W        W79669  21.714  26.653   1.354
16111W        W79670  40.372  38.568   1.746
16112W        W79671  19.048  11.201  14.944
16113W        W79672  23.196  32.575  11.124
16114W        W79673  26.992  14.676  12.570
16115W        W79674  40.833  23.015  10.985
16116W        W79675  39.318  10.204   2.749
16117W        W79676  39.831   5.250   1.847
16118W        W79677  36.049  20.182  14.491
16119W        W79678  21.143  32.393   3.701
16120W        W79679  17.219   2.294  11.862
16121W        W79680  11.329  11.766   4.221
16122W        W79681  17.632  35.002   1.840
16123W        W79682   6.315  28.661   4.761
16124W        W79683   8.844  23.207  14.339
16125W        W79684  44.455  14.200  14.902
16126W        W79685   2.357   4.259  10.454
16127W        W79686  25.151   8.805   5.693
16128W        W79687  36.427  40.025  14.982
16129W        W79688  26.004  12.612   2.889
16130W        W79689  39.423  13.645  10.892
16131W        W79690  28.169  23.703  11.421
16132W        W79691  40.449   6.319  13.954
16133W        W79692  34.417  13.218   4.134
16134W        W79693   9.306  37.996   2.345
16135W        W79694  33.018  28.606  14.986
16136W        W79695  25.501  16.693   0.868
16137W        W79696  12.797  29.072   1.771
16138W        W79697  22.530  10.799  13.899
16139W        W79698  19.244  22.009   4.207
16140W        W79699  38.547   7.834   2.357
16141W        W79700   0.399  13.612  11.383
16142W        W79701  11.334  38.483   1.430
16143W        W79702   6.241  33.926  11.006
16144W        W79703   1.943  34.415  14.457
16145W        W79704   2.825   5.712  13.322
16146W        W79705   2.235   9.290  12.962
16147W        W79706  40.414  19.121  13.839
16148W        W79707  30.449  41.993  14.315
16149W        W79708  14.131  15.093   9.976
16150W        W79709  29.106  20.129  13.927
16151W        W79710  13.640  38.822  14.911
16152W        W79711   5.385   4.886   2.798
16153W        W79712  36.422  14.273   3.219
16154W        W79713   0.751  26.573  13.920
16155W        W79714   5.306  36.962   1.735
16156W        W79715   6.299  42.427  14.829
16157W        W79716   4.382  14.604  13.853
16158W        W79717  10.656   0.275   3.641
16159W        W79718  14.653  11.172  11.960
16160W        W79719   7.406   5.206  10.899
16161W        W79720   9.172   3.747   3.639
16162W        W79721  27.508  10.852  13.908
16163W        W79722  22.246  11.860   3.723
16164W        W79723  11.279  41.497   2.230
16165W        W79724  32.412  16.102   2.784
16166W        W79725  11.246   7.758  10.979
16167W        W79726  36.961  42.336   4.655
16168W        W79727  35.477  37.865  11.475
16169W        W79728  16.305  18.101   3.209
16170W        W79729  37.906  26.973  14.768
16171W        W79730  12.683  23.569  11.051
16172W        W79731   6.754  22.194  11.435
16173W        W79732  26.133  27.128   2.314
16174W        W79733  25.474  21.629  13.313
16175W        W79734   0.962  40.988   2.388
16176W        W79735  15.187  32.135  12.846
16177W        W79736   6.880   7.842  14.895
16178W        W79737  39.870  21.061   1.903
16179W        W79738  19.557  28.494   4.675
16180W        W79739  36.033  38.476   0.945
16181W        W79740  32.416  34.447   1.340
16182W        W79741  33.578  36.015   0.245
16183W        W79742   1.463  20.079  11.875
16184W        W79743  23.153  21.674   3.330
16185W        W79744   8.266  22.085  14.960
16186W        W79745  26.079  44.294  13.452
16187W        W79746   4.903  24.506  14.877
16188W        W79747  15.812  18.137  13.851
16189W        W79748   0.843  21.133  10.978
16190W        W79749  44.983  28.460  14.302
16191W        W79750  35.087  39.937   1.923
16192W        W79751   2.403  40.044   1.367
16193W        W79752   0.802   3.334  10.968
16194W        W79753  24.158  29.126   1.875
16195W        W79754   8.337  21.164   2.711
16196W        W79755  28.569   7.264   3.655
16197W        W79756  19.049  39.471  12.343
16198W        W79757  39.928  21.541  12.840
16199W        W79758  15.792  15.786   4.252
16200W        W79759  14.703  23.143  12.899
16201W        W79760  18.609   3.317   3.645
16202W        W79761  25.165  33.080   4.794
16203W        W79762  11.302  35.527   5.138
16204W        W79763  30.441  27.612   2.837
16205W        W79764  27.501  21.624  14.349
16206W        W79765  24.721  31.490  13.519
16207W        W79766  33.972  22.528  10.959
16208W        W79767  41.385  42.845  11.005
16209W        W79768  34.903  24.610  11.004
16210W        W79769   7.408  26.046  12.420
16211W        W79770  23.555  39.551  14.369
16212W        W79771  20.721   6.803  11.393
16213W        W79772  26.017  35.047   4.194
16214W        W79773  44.799  17.723   0.935
16215W        W79774  35.575  35.415   0.747
16216W        W79775  24.138  20.181   3.156
16217W        W79776  40.430   0.892   4.826
16218W        W79777  27.448  17.610  11.529
16219W        W79778  28.099  44.483   4.179
16220W        W79779  10.796  43.780   2.262
16221W        W79780  44.945  38.375  12.442
16222W        W79781   5.434   1.282  13.358
16223W        W79782  21.758  26.113   0.737
16224W        W79783  42.439  28.037  14.947
16225W        W79784  32.939   5.365   3.765
16226W        W79785  39.475  23.662   4.608
16227W        W79786  28.447   2.948  14.381
16228W        W79787  24.068  18.073   3.763
16229W        W79788  29.126  31.038  11.552
16230W        W79789   2.422   9.659   3.829
16231W        W79790  19.653  23.541  10.485
16232W        W79791  27.988  28.065   5.251
16233W        W79792   0.416   8.721  13.455
16234W        W79793  36.484   7.354   1.421
16235W        W79794  20.266  19.173   1.844
16236W        W79795  16.644  35.438  10.616
16237W        W79796  29.616   8.390   0.369
16238W        W79797   6.290  43.972  10.138
16239W        W79798  39.028   4.420  13.023
16240W        W79799   0.252  18.159   4.598
16241W        W79800  12.266  26.182  12.093
16242W        W79801  19.757  36.373   5.159
16243W        W79802  32.582  36.008  10.591
16244W        W79803   0.785   8.883   5.209
16245W        W79804   8.800   8.269  12.094
16246W        W79805  23.546  25.162   3.180
16247W        W79806  19.255  33.499  14.987
16248W        W79807   0.265   8.669   0.878
16249W        W79808  23.536  22.592   1.259
16250W        W79809  15.164  28.093  14.010
16251W        W79810  33.407  26.012   2.190
16252W        W79811  15.206  17.250   1.734
16253W        W79812  25.547  37.582  11.538
16254W        W79813   7.836  18.281   1.269
16255W        W79814  22.560   7.291   3.262
16256W        W79815  24.496   5.309   1.279
16257W        W79816  40.940  22.051   3.270
16258W        W79817  30.468  23.107  13.464
16259W        W79818  30.437  18.253  12.932
16260W        W79819  34.418  38.368  14.767
16261W        W79820   8.701  31.499  14.847
16262W        W79821  27.154   1.972  10.496
16263W        W79822  44.308  14.790   3.314
16264W        W79823  41.458  22.187  12.426
16265W        W79824  24.654  15.758   1.315
16266W        W79825   0.302  36.564   4.306
16267W        W79826  27.963  27.182   4.282
16268W        W79827  12.845  44.769  11.030
16269W        W79828  30.654  42.332  14.480
16270W        W79829   6.242  24.716  11.604
16271W        W79830  21.095  15.303  12.916
16272W        W79831   7.252   0.253  12.386
16273W        W79832  39.369  37.009  13.927
16274W        W79833  34.927   9.277   1.299
16275W        W79834  15.791   6.733   2.405
16276W        W79835  38.342  16.103   0.749
16277W        W79836  19.541  26.992  12.089
16278W        W79837  14.312  27.498  12.091
16279W        W79838  10.784   2.854   4.120
16280W        W79839  19.717  39.042  12.828
16281W        W79840  23.499  30.433   3.813
16282W        W79841  33.009  26.964  13.331
16283W        W79842  44.007  31.568   0.377
16284W        W79843  21.199   8.365   4.126
16285W        W79844  21.183  24.224  12.346
16286W        W79845  40.910   4.798   0.269
16287W        W79846  20.540  10.680  11.950
16288W        W79847  26.540  39.008   3.778
16289W        W79848   0.950  37.395   0.767
16290W        W79849  22.050  43.973   1.806
16291W        W79850  16.243  26.972  11.924
16292W        W79851   0.424   8.665   0.271
16293W        W79852   9.162  22.565  12.538
16294W        W79853  27.989  39.029  13.893
16295W        W79854  34.935  41.440  14.763
16296W        W79855  12.302   7.252  13.378
16297W        W79856  11.830  41.924   0.444
16298W        W79857  32.987   9.830   2.311
16299W        W79858   4.798  37.071   1.418
16300W        W79859  15.606  38.883  13.504
16301W        W79860  43.016  21.677   2.795
16302W        W79861  23.030   4.335  12.372
16303W        W79862  35.495  43.990   4.320
16304W        W79863  22.743  21.023   3.185
16305W        W79864  35.424  14.276  14.899
16306W        W79865  32.011  10.648   4.635
16307W        W79866  16.229  18.257   2.340
16308W        W79867  28.645  19.248   0.242
16309W        W79868  43.505  31.450   2.315
16310W        W79869  40.359  21.584  10.618
16311W        W79870  14.633  17.785   1.273
16312W        W79871  43.013  36.586   2.669
16313W        W79872  19.189  32.113  10.893
16314W        W79873   4.945  34.054  10.456
16315W        W79874  34.493  24.015   3.851
16316W        W79875  33.100  43.420   4.705
16317W        W79876  31.618   8.669   3.804
16318W        W79877  26.033   3.426  11.521
16319W        W79878  42.343   8.766   3.654
16320W        W79879   5.437  19.756  12.035
16321W        W79880  41.304  19.185  13.951
16322W        W79881  26.568  35.395   1.258
16323W        W79882  13.132  33.127   5.291
16324W        W79883   1.447  28.664   0.310
16325W        W79884  13.213  43.478  11.602
16326W        W79885   6.400  40.871   4.706
16327W        W79886   7.775  40.018   2.704
16328W        W79887  29.464  37.403  11.480
16329W        W79888  31.640  27.149   1.883
16330W        W79889  43.906  22.553   4.772
16331W        W79890  32.032  36.913  13.437
16332W        W79891  38.426  23.517   4.204
16333W        W79892   1.796  26.549  11.557
16334W        W79893  11.341  40.401   1.258
16335W        W79894   5.697  14.590   3.847
16336W        W79895  34.409  42.331  10.521
16337W        W79896  32.615  13.655   0.332
16338W        W79897  26.021   4.437   0.344
16339W        W79898  13.732   4.784  11.856
16340W        W79899  27.667   7.316  13.983
16341W        W79900  37.081   6.347   1.852
16342W        W79901  27.614  31.561   2.370
16343W        W79902  30.122  28.470   0.944
16344W        W79903  28.177  28.469  12.343
16345W        W79904  43.404  35.993  13.961
16346W        W79905  43.917  20.040  13.793
16347W        W79906  11.260  38.819  14.317
16348W        W79907  42.869   6.357   3.379
16349W        W79908  25.194   1.953   2.891
16350W        W79909  22.600   3.401  12.523
16351W        W79910  20.751  42.862  14.411
16352W        W79911   7.790  23.123  10.598
16353W        W79912  21.052  19.052  13.414
16354W        W79913  17.575   8.385   2.250
16355W        W79914   4.303  43.401  12.969
16356W        W79915   9.707  17.125   9.948
16357W        W79916  15.107  44.348  12.517
16358W        W79917  23.145  31.591   3.258
16359W        W79918  19.127  40.474  11.507
16360W        W79919  14.328  27.510   4.696
16361W        W79920  37.017  17.702  10.964
16362W        W79921   4.940  17.629  14.860
16363W        W79922   2.232  32.981  13.797
16364W        W79923   4.387  35.929  13.544
16365W        W79924  42.840  25.071  10.914
16366W        W79925   0.892  19.637   0.844
16367W        W79926  35.868  17.653  12.547
16368W        W79927  31.050  15.643  14.000
16369W        W79928  21.137   4.415  11.942
16370W        W79929  13.682  23.056  13.804
16371W        W79930  10.203  32.008  14.315
16372W        W79931   0.864  12.340  12.514
16373W        W79932  30.151  30.560   3.252
16374W        W79933  44.395   2.882  10.017
16375W        W79934  19.586  23.574  14.017
16376W        W79935   8.217  16.149  10.053
16377W        W79936  25.514  34.576   2.692
16378W        W79937  11.693  40.985   1.449
16379W        W79938  41.399  28.615  11.003
16380W        W79939  23.073  36.437   2.668
16381W        W79940  41.862   0.480  10.419
16382W        W79941   1.911  22.170  11.984
16383W        W79942  25.585   5.235  10.895
16384W        W79943  11.128  38.021   1.225
16385W        W79944   9.160  34.561   0.279
16386W        W79945  36.561  17.119   9.952
16387W        W79946  18.550  37.494  12.508
16388W        W79947  18.575  28.108   2.254
16389W        W79948  14.201   2.774  14.815
16390W        W79949   7.880   3.951  12.981
16391W        W79950  27.060  14.735   0.478
16392W        W79951   3.716  16.700   3.182
16393W        W79952   9.785  25.485  11.515
16394W        W79953  16.615   1.752   3.826
16395W        W79954  11.763  31.558   3.709
16396W        W79955  19.269  34.439  14.856
16397W        W79956  41.304  43.385   3.644
16398W        W79957  21.204   1.844  14.850
16399W        W79958  17.268  10.813   1.927
16400W        W79959  13.734  24.134  13.366
16401W        W79960  13.629  37.076  12.538
16402W        W79961  36.881  35.886  10.507
16403W        W79962  38.546  40.954  13.318
16404W        W79963  32.477  23.599   1.236
16405W        W79964  31.470   3.783   4.345
16406W        W79965  20.622  12.360   0.455
16407W        W79966  35.982  40.399   1.821
16408W        W79967  14.716   7.846   2.794
16409W        W79968   3.729  37.436   2.736
16410W        W79969   8.384   0.386   0.372
16411W        W79970  41.989   3.773  14.981
16412W        W79971  40.359  31.117  12.503
16413W        W79972  10.721   8.364  10.452
16414W        W79973  19.649  14.278   3.181
16415W        W79974   9.231  23.047   0.794
16416W        W79975  30.540   9.209   1.442
16417W        W79976  12.172   0.263  11.414
16418W        W79977  19.172  36.573   1.219
16419W        W79978  37.965  17.615   1.741
16420W        W79979  18.271  20.695   2.404
16421W        W79980  23.047  38.457   3.363
16422W        W79981  43.945  18.234   1.927
16423W        W79982   6.364   9.296   0.335
16424W        W79983  40.384   1.847   1.246
16425W        W79984  36.473  19.185   4.734
16426W        W79985  19.625   0.857   0.270
16427W        W79986  23.678  12.193   1.713
16428W        W79987   7.806  40.528  10.520
16429W        W79988  22.068   7.201   3.213
16430W        W79989  24.105   1.970   4.604
16431W        W79990  38.455  41.805  14.005
16432W        W79991  30.524  29.124  12.558
16433W        W79992  44.989  38.438  10.422
16434W        W79993  37.843  13.786  10.957
16435W        W79994   7.774  14.788  10.452
16436W        W79995  43.395  39.910   0.816
16437W        W79996   4.269  28.585  11.936
16438W        W79997  10.306   9.675  14.972
16439W        W79998  32.438  40.859  13.950
16440W        W79999  30.913  15.582   5.175
16441W        W80000   7.860  30.102   3.325
16442W        W80001   3.826  18.592  14.479
16443W        W80002  34.019  33.068  11.972
16444W        W80003  38.482  31.564  11.102
16445W        W80004  17.684   3.228  10.574
16446W        W80005  37.850  32.447  14.851
16447W        W80006  32.528   5.266  10.564
16448W        W80007  22.203  11.679   4.817
16449W        W80008   8.839  15.298   4.625
16450W        W80009  35.864  23.729   4.702
16451W        W80010  38.053  10.676  11.546
16452W        W80011  34.488  12.337   1.740
16453W        W80012  44.504  20.600  14.994
16454W        W80013   6.241  35.917   1.805
16455W        W80014  20.054  35.861  14.852
16456W        W80015  26.519  16.094  14.352
16457W        W80016  36.467  13.640   2.785
16458W        W80017   8.285  19.655  13.884
16459W        W80018  34.997  15.754   4.322
16460W        W80019  29.063  34.111  13.011
16461W        W80020  16.715  27.081  13.425
16462W        W80021  34.902  31.900  11.462
16463W        W80022  27.045   8.326   0.901
16464W        W80023  38.922  16.656   4.304
16465W        W80024  26.575  30.489   3.701
16466W        W80025  22.633  10.719  11.970
16467W        W80026  31.923  44.298  10.541
16468W        W80027  32.476   9.300   3.259
16469W        W80028  23.038  18.567   2.401
16470W        W80029  15.209  42.515   1.768
16471W        W80030  16.581  42.956  11.947
16472W        W80031  30.617  30.595   2.228
16473W        W80032  35.960  24.202  11.125
16474W        W80033  41.454  32.534   3.202
16475W        W80034  25.170   0.874   1.712
16476W        W80035  11.668   5.742  12.048
16477W        W80036  30.962  39.866  12.562
16478W        W80037   3.716  31.029   0.846
16479W        W80038  20.535  28.120   3.732
16480W        W80039  27.998   8.689  10.967
16481W        W80040  31.046  17.592   3.639
16482W        W80041  39.339   8.355  10.528
16483W        W80042  11.289   6.220   2.713
16484W        W80043  35.414  31.906   4.255
16485W        W80044  32.468  24.120   1.744
16486W        W80045   6.329  40.968  10.550
16487W        W80046  25.020   9.650   0.263
16488W        W80047  19.121   6.224   3.795
16489W        W80048   5.881  29.126   1.805
16490W        W80049  34.958  16.608   0.922
16491W        W80050  40.443   1.967  13.061
16492W        W80051  11.129  33.561  11.544
16493W        W80052  13.352  37.968  14.490
16494W        W80053  21.194   2.922  13.974
16495W        W80054  41.945   4.938   2.244
16496W        W80055  18.719  30.458   2.320
16497W        W80056  42.853  14.761  10.540
16498W        W80057  42.394  39.515  14.928
16499W        W80058  30.117   3.299  14.363
16500W        W80059  32.512  16.287   4.751
16501W        W80060  20.236  23.194  11.910
16502W        W80061   4.850   3.895  11.890
16503W        W80062   6.366  38.883  14.320
16504W        W80063  14.176  26.136   4.819
16505W        W80064  38.386  27.656  14.860
16506W        W80065  41.482  19.576  13.930
16507W        W80066  19.644  44.876   4.698
16508W        W80067  40.450  23.130   1.334
16509W        W80068  35.486  12.200   1.386
16510W        W80069  38.988   0.943  14.448
16511W        W80070  29.072  42.296   1.696
16512W        W80071   7.366  19.656   0.425
16513W        W80072  16.793  31.039   4.217
16514W        W80073  35.960  21.173  13.410
16515W        W80074  44.481  27.590  12.354
16516W        W80075  20.682  15.205   3.708
16517W        W80076  36.441  43.787   4.837
16518W        W80077  40.857   3.855  13.360
16519W        W80078  12.349  25.979   1.426
16520W        W80079   9.177  28.945   3.192
16521W        W80080  36.591  36.468  14.322
16522W        W80081  31.479  42.481  12.910
16523W        W80082   0.961  18.245   2.212
16524W        W80083   7.194  11.334  13.006
16525W        W80084   2.291  14.270  13.800
16526W        W80085  12.352   0.332  12.965
16527W        W80086  43.975  11.196   1.418
16528W        W80087  42.869  15.740  13.539
16529W        W80088  30.619  12.210   1.702
16530W        W80089  16.615  34.087  11.424
16531W        W80090   4.370  34.395   4.275
16532W        W80091  27.184  39.007   3.216
16533W        W80092   5.289  14.660  10.960
16534W        W80093  13.625  37.455  12.927
16535W        W80094  22.738  12.633   2.879
16536W        W80095  36.097   4.906  13.007
16537W        W80096  36.963   0.261  13.406
16538W        W80097  37.374  39.870  11.882
16539W        W80098  16.730   1.886   4.702
16540W        W80099  27.664   1.451  14.473
16541W        W80100  36.580  10.825   1.312
16542W        W80101   8.240  23.032  12.932
16543W        W80102  26.991  20.540   9.604
16544W        W80103  18.185  27.955   0.774
16545W        W80104  25.211  20.710   3.817
16546W        W80105  10.654  17.706  11.978
16547W        W80106  10.196  24.666   1.821
16548W        W80107   1.949  41.527   1.880
16549W        W80108  14.153  28.591  14.309
16550W        W80109   6.243   1.839   2.777
16551W        W80110  42.455  31.954  13.043
16552W        W80111  19.179  27.499   0.355
16553W        W80112   9.805   0.366  12.427
16554W        W80113  17.251  20.071   2.276
16555W        W80114  34.995  30.578   3.193
16556W        W80115  39.933  19.227  13.404
16557W        W80116  38.985   6.861   2.693
16558W        W80117   3.385  42.377   4.150
16559W        W80118   8.780  33.529   0.363
16560W        W80119   1.294  11.761   0.443
16561W        W80120  23.597  36.495   2.895
16562W        W80121  26.092  19.659  14.910
16563W        W80122  32.958  11.240   2.399
16564W        W80123   0.963   4.290   1.222
16565W        W80124  40.841  42.407  10.494
16566W        W80125  15.255  25.969  11.059
16567W        W80126  15.590   1.282   5.217
16568W        W80127   2.383   7.228   0.739
16569W        W80128  29.003  19.053  11.539
16570W        W80129  36.971  10.301  13.487
16571W        W80130   5.312  21.206  11.910
16572W        W80131  35.547  34.905   1.851
16573W        W80132  43.008  23.568   3.869
16574W        W80133  27.521   9.739   1.409
16575W        W80134   0.456  13.796   3.197
16576W        W80135  25.621  21.057  14.504
16577W        W80136  22.027  13.201  10.406
16578W        W80137  14.238  19.222   0.252
16579W        W80138  33.007   1.844  10.595
16580W        W80139  21.154  37.910   0.453
16581W        W80140  10.778   1.977   1.332
16582W        W80141   0.978  28.017   0.909
16583W        W80142  30.953  15.797   2.867
16584W        W80143   1.465  37.516  11.419
16585W        W80144  40.005  43.462   1.306
16586W        W80145  11.654   1.830   9.970
16587W        W80146   4.851   5.334  13.520
16588W        W80147  27.604  17.741   1.310
16589W        W80148  35.054   8.819  14.480
16590W        W80149  25.640  23.062   1.899
16591W        W80150  26.545  29.653  11.894
16592W        W80151  38.398  37.494   1.848
16593W        W80152  15.715  30.542   1.752
16594W        W80153  22.529   6.874   0.320
16595W        W80154  41.431  31.053   3.772
16596W        W80155  29.484   0.427   4.171
16597W        W80156  19.199   8.733   1.252
16598W        W80157  18.173   0.402  12.458
16599W        W80158  44.851  18.161   4.630
16600W        W80159  22.540  17.144  13.878
16601W        W80160  19.227  14.728   1.716
16602W        W80161  26.065   1.348  14.922
16603W        W80162  37.853  41.471   0.357
16604W        W80163   6.900  10.634   0.349
16605W        W80164  44.433  16.750  14.850
16606W        W80165  17.181  13.678  14.461
16607W        W80166   5.799  10.821  14.314
16608W        W80167  32.503  29.012  10.600
16609W        W80168  40.830  19.260   4.262
16610W        W80169  12.292   6.915   5.176
16611W        W80170  29.591  20.622   0.440
16612W        W80171  20.767   6.828  13.880
16613W        W80172  30.412  18.242   4.613
16614W        W80173  37.540   0.436  10.958
16615W        W80174  44.426   4.919  12.900
16616W        W80175  14.161  26.117  12.574
16617W        W80176  43.945   4.809  14.284
16618W        W80177   6.390  32.917  11.873
16619W        W80178  34.544  29.143   2.802
16620W        W80179  28.946  35.521   4.783
16621W        W80180  13.771  12.352   0.737
16622W        W80181  31.975  44.472  11.561
16623W        W80182  12.177  43.009  11.522
16624W        W80183   5.194  13.616   1.430
16625W        W80184  13.778  11.784  11.060
16626W        W80185  25.993  38.434   2.401
16627W        W80186  38.390   2.901  11.961
16628W        W80187  19.771   1.914   4.346
16629W        W80188  20.652  18.777   0.845
16630W        W80189  34.575  27.535   1.756
16631W        W80190  25.700  37.081   0.356
16632W        W80191  11.843  21.653   0.264
16633W        W80192  23.528  15.319  10.609
16634W        W80193  37.561  41.462  11.097
16635W        W80194  33.022  35.480   1.380
16636W        W80195  43.274  35.019  11.923
16637W        W80196  29.484  24.714   4.304
16638W        W80197  23.015  44.299   1.853
16639W        W80198  44.984   6.786   1.818
16640W        W80199  30.907  10.304  12.413
16641W        W80200  19.609  24.498  12.451
16642W        W80201  11.253  36.351   3.265
16643W        W80202  18.228  16.643  10.899
16644W        W80203  38.393  35.369  11.541
16645W        W80204  22.604  41.884  12.837
16646W        W80205  36.570  23.081   0.887
16647W        W80206  13.804  42.836  11.124
16648W        W80207  21.087  31.070   2.203
16649W        W80208   3.390  28.474  12.967
16650W        W80209  28.087   5.781   2.830
16651W        W80210  21.546  26.078   2.669
16652W        W80211  36.481  31.138  14.954
16653W        W80212  33.914  40.495   2.283
16654W        W80213   7.383  18.713  10.929
16655W        W80214   2.868  34.013   1.933
16656W        W80215   0.465  34.030   0.770
16657W        W80216   2.379   6.405  13.799
16658W        W80217   6.776  32.962   2.413
16659W        W80218  11.189   0.857   2.763
16660W        W80219  12.302  41.799   1.740
16661W        W80220  41.297   8.270   4.609
16662W        W80221  25.552   1.831  11.549
16663W        W80222  15.289  41.329  14.406
16664W        W80223  25.706  42.878   5.213
16665W        W80224   3.738  24.153  14.760
16666W        W80225   2.469  14.312  12.567
16667W        W80226  29.579  39.866  10.432
16668W        W80227  36.091  42.785   1.910
16669W        W80228  30.482  17.197   0.964
16670W        W80229  30.473  38.436   0.881
16671W        W80230  20.555   5.856  13.999
16672W        W80231   7.854  12.329   2.252
16673W        W80232   5.827  10.870  12.444
16674W        W80233  38.060  39.874  14.860
16675W        W80234   5.381   4.842   3.760
16676W        W80235  20.539   9.789   1.786
16677W        W80236   7.852  42.784  11.915
16678W        W80237  44.306  20.583   3.247
16679W        W80238   2.736  23.706  11.974
16680W        W80239   8.367  34.865  11.083
16681W        W80240  40.946  22.710   0.932
16682W        W80241  36.853   0.427  11.119
16683W        W80242  38.530  19.249  12.918
16684W        W80243  21.152  41.521  12.998
16685W        W80244  40.511  29.601   2.703
16686W        W80245  15.794   4.226   4.725
16687W        W80246  10.347  35.980   4.265
16688W        W80247   3.383  10.239   0.424
16689W        W80248   4.301  30.587   0.388
16690W        W80249   9.701  29.922   1.855
16691W        W80250  12.836  25.539   3.187
16692W        W80251  42.887  27.196  14.387
16693W        W80252  21.722  15.277   2.878
16694W        W80253  26.666  22.055   2.759
16695W        W80254  30.953   3.310  11.976
16696W        W80255  24.158  33.396  12.032
16697W        W80256  29.012  42.330  12.406
16698W        W80257   9.787   1.938   3.145
16699W        W80258  10.367  37.010   3.360
16700W        W80259  12.211  25.711  11.537
16701W        W80260   3.811  23.210   2.703
16702W        W80261   0.257  16.637   2.390
16703W        W80262  42.808   0.881  10.545
16704W        W80263   8.212   3.724  12.567
16705W        W80264  43.893  29.627  11.489
16706W        W80265  41.795   1.449  12.072
16707W        W80266  14.259  35.576  12.079
16708W        W80267  31.968  29.437   3.303
16709W        W80268  26.480   0.324  14.332
16710W        W80269  13.162   9.805  13.883
16711W        W80270  10.353   8.897   0.820
16712W        W80271  43.963  12.623   1.762
16713W        W80272   7.726  32.985   3.274
16714W        W80273  21.103  25.040   2.862
16715W        W80274  10.869  23.602   2.812
16716W        W80275  27.580  12.139   2.891
16717W        W80276  32.026   4.708   3.866
16718W        W80277  10.736  39.539  14.850
16719W        W80278  16.118   8.333  11.128
16720W        W80279  43.936  44.835   3.150
16721W        W80280   7.801  27.656  14.360
16722W        W80281  25.067  32.484   0.344
16723W        W80282  17.595  38.044   3.354
16724W        W80283  15.579  28.563  13.502
16725W        W80284  30.966  32.605   0.760
16726W        W80285  24.122  18.685  10.464
16727W        W80286  18.193  41.334   4.124
16728W        W80287  38.880  33.552  14.327
16729W        W80288  43.898  22.733   3.319
16730W        W80289  20.264  28.581  11.474
16731W        W80290  42.814  16.196  13.408
16732W        W80291  43.337  22.215   2.184
16733W        W80292  35.433  10.822  10.920
16734W        W80293  18.112  19.725   2.742
16735W        W80294  31.122  23.989   1.430
16736W        W80295   9.694  11.737   4.279
16737W        W80296  33.391  16.144   4.630
16738W        W80297  10.260  15.803   2.384
16739W        W80298  20.572  11.829   4.220
16740W        W80299  30.064  37.571  10.518
16741W        W80300   9.797  37.437  11.460
16742W        W80301   5.242  36.878   3.660
16743W        W80302  35.989  22.530  12.047
16744W        W80303  30.647  23.051   1.821
16745W        W80304  15.320  19.637  10.467
16746W        W80305  17.064  18.145   3.794
16747W        W80306  41.028  22.068   1.720
16748W        W80307  37.862  34.874  14.869
16749W        W80308  32.125  22.635   4.306
16750W        W80309  11.773  31.575  10.409
16751W        W80310   5.928  15.273  12.380
16752W        W80311  36.567   2.899  14.897
16753W        W80312  15.312  17.091  10.634
16754W        W80313  41.430  30.075   3.788
16755W        W80314  27.017  32.457   0.372
16756W        W80315  41.939  22.032   2.668
16757W        W80316   1.273   9.724  10.495
16758W        W80317  18.106   7.415   2.394
16759W        W80318  16.583  38.906  13.357
16760W        W80319   5.409  30.539  13.358
16761W        W80320  17.605  38.832  14.009
16762W        W80321   0.463  39.460  12.941
16763W        W80322  44.406  18.096  10.595
16764W        W80323  18.236   0.481   2.319
16765W        W80324  32.030  41.461   3.168
16766W        W80325   2.826  40.452  14.312
16767W        W80326  27.095   0.259  13.337
16768W        W80327  34.566  25.496  12.837
16769W        W80328  43.394  27.492  10.437
16770W        W80329  43.462   7.244  11.078
16771W        W80330   4.809  35.895   1.813
16772W        W80331  22.700  10.270   2.201
16773W        W80332  13.730  43.422   4.341
16774W        W80333  17.673   8.333  13.863
16775W        W80334  16.309   8.667  10.939
16776W        W80335  29.538  38.468  10.405
16777W        W80336  22.746  41.367  13.471
16778W        W80337  32.957  16.716  10.534
16779W        W80338   7.720   3.752   1.793
16780W        W80339  43.856  12.286  13.353
16781W        W80340  30.057  32.513  11.478
16782W        W80341  43.436  40.051   2.309
16783W        W80342  32.429  10.780  13.937
16784W        W80343   4.223  27.022  14.398
16785W        W80344  37.083   2.290  14.289
16786W        W80345  21.709  25.205  11.104
16787W        W80346  28.099  26.507   4.809
16788W        W80347  15.182  14.275   3.761
16789W        W80348  15.139  12.857  12.355
16790W        W80349  43.915  39.880   3.276
16791W        W80350  43.969  31.584   1.374
16792W        W80351  23.171  31.149  12.009
16793W        W80352   1.761   9.874   2.322
16794W        W80353  33.017  26.547   3.315
16795W        W80354  14.800   3.404   1.760
16796W        W80355  33.126  42.986   4.794
16797W        W80356  37.459   8.841  13.949
16798W        W80357  24.486   0.789   4.246
16799W        W80358   0.963  31.491  11.996
16800W        W80359  29.045   6.350   4.632
16801W        W80360  36.900  11.641   2.883
16802W        W80361   8.318  35.432   4.672
16803W        W80362  24.539  31.438   1.724
16804W        W80363  32.417  34.504  12.041
16805W        W80364  22.055  26.545   2.269
16806W        W80365  14.823  30.128   2.796
16807W        W80366  25.180   2.388   4.328
16808W        W80367  34.554  23.555  11.128
16809W        W80368  22.600  43.876  13.818
16810W        W80369  16.726   7.197   3.195
16811W        W80370   9.719  40.347   4.197
16812W        W80371  36.992  18.687  13.906
16813W        W80372   6.841   5.392  10.997
16814W        W80373   3.227  41.352   2.265
16815W        W80374  25.193   2.318  12.386
16816W        W80375  38.468   9.371  14.878
16817W        W80376  25.063  14.222  13.867
16818W        W80377  32.401  26.619   2.391
16819W        W80378  31.989  26.498   2.784
16820W        W80379   9.680  34.947  12.061
16821W        W80380   0.869  22.676   1.699
16822W        W80381  11.232  39.450  10.622
16823W        W80382   3.836  26.671  10.004
16824W        W80383   4.843  36.950   2.374
16825W        W80384  28.965  36.852   3.722
16826W        W80385   9.343  25.203   2.311
16827W        W80386  43.914  23.584   1.433
16828W        W80387  10.215   1.772   5.141
16829W        W80388  24.676  12.299  12.097
16830W        W80389  29.071   0.798   0.455
16831W        W80390  32.002  23.627   3.660
16832W        W80391  11.371  27.963  14.907
16833W        W80392   2.252   0.766  11.016
16834W        W80393  38.440  29.089  10.896
16835W        W80394  37.053  29.919   3.232
16836W        W80395  37.538   2.345   3.651
16837W        W80396  12.342  41.937   1.244
16838W        W80397   3.713  17.277   1.726
16839W        W80398  12.162  41.414   2.850
16840W        W80399  40.537  21.082  14.477
16841W        W80400  33.916  39.055   1.451
16842W        W80401  14.649  25.086   9.999
16843W        W80402   9.174  29.535  10.526
16844W        W80403  41.916  20.053   2.220
16845W        W80404  38.348  42.425   0.463
16846W        W80405  13.134  35.391  12.451
16847W        W80406  42.867  17.257   2.789
16848W        W80407   4.913  16.743  12.884
16849W        W80408  15.781  33.097   0.881
16850W        W80409   2.901  39.974   3.674
16851W        W80410  44.921  28.528  14.850
16852W        W80411  41.532  27.005   4.249
16853W        W80412  27.514  27.196  11.902
16854W        W80413  44.399  16.220   1.796
16855W        W80414   5.296  12.263   1.413
16856W        W80415  31.609   9.337   2.182
16857W        W80416  24.498  36.866   0.405
16858W        W80417  17.097  39.044  14.837
16859W        W80418   2.250   2.941  12.469
16860W        W80419  38.979   8.686  13.455
16861W        W80420  25.564  43.984  10.493
16862W        W80421  25.682  37.086   3.355
16863W        W80422   2.777  24.654   4.629
16864W        W80423  12.830  43.982   1.428
16865W        W80424   8.742  28.180  14.509
16866W        W80425   0.834   8.169   0.783
16867W        W80426  34.401  22.045  14.292
16868W        W80427   6.404   7.805  10.410
16869W        W80428  19.745  26.196  11.872
16870W        W80429  32.112  44.289   1.712
16871W        W80430  26.567  15.798   1.732
16872W        W80431  20.522  24.670  13.016
16873W        W80432   4.938  31.043   1.282
16874W        W80433  36.937  17.166  13.418
16875W        W80434  32.921   7.751  13.472
16876W        W80435  16.293  16.155  14.010
16877W        W80436  11.235  26.701  13.865
16878W        W80437  23.592  29.957   5.096
16879W        W80438  43.304   5.778  12.352
16880W        W80439  39.862  27.489  13.864
16881W        W80440   4.759  25.579  11.093
16882W        W80441  43.493  42.018   0.439
16883W        W80442  38.391  10.329  14.013
16884W        W80443  43.877  10.273  12.927
16885W        W80444  34.432  13.606  11.903
16886W        W80445  40.387  22.097   2.788
16887W        W80446  18.697  16.760  14.029
16888W        W80447  11.839  12.314  11.865
16889W        W80448   4.426   0.943  14.318
16890W        W80449  37.832   6.336  13.063
16891W        W80450  20.095  17.207   4.243
16892W        W80451   3.400  10.242   5.193
16893W        W80452  18.135  13.822   4.311
16894W        W80453  37.454  42.880   1.353
16895W        W80454  27.007   8.706   3.300
16896W        W80455   0.845   6.411   0.920
16897W        W80456  32.600  38.463  12.051
16898W        W80457   6.250  34.898   2.272
16899W        W80458   0.884  34.518   2.399
16900W        W80459  22.103  27.553   0.769
16901W        W80460  25.500  18.272   5.246
16902W        W80461   0.774  39.375  13.398
16903W        W80462   6.303  20.165  14.789
16904W        W80463  21.631   6.337   1.233
16905W        W80464  18.236  21.183   1.342
16906W        W80465  25.975  21.232   0.317
16907W        W80466  32.560   3.449  14.428
16908W        W80467  21.025  29.545   4.615
16909W        W80468  20.058  32.961  10.595
16910W        W80469   3.366   0.811   2.787
16911W        W80470  21.067  30.452  10.050
16912W        W80471  36.903  19.765  13.027
16913W        W80472  12.142  26.703   0.293
16914W        W80473  21.223  20.581   1.816
16915W        W80474  38.396  20.062   1.782
16916W        W80475  14.641  19.100  14.331
16917W        W80476  39.882  35.055   2.375
16918W        W80477  28.619  40.359   1.888
16919W        W80478  25.985  17.615  11.037
16920W        W80479  32.623   6.859  11.569
16921W        W80480   4.760  25.170   2.183
16922W        W80481   9.722   2.294   3.351
16923W        W80482  19.603  36.844  10.979
16924W        W80483  36.063  43.000   4.149
16925W        W80484  11.866  24.039   2.402
16926W        W80485   0.901   7.832   0.467
16927W        W80486  43.379  11.751   4.128
16928W        W80487  43.467  27.514   4.752
16929W        W80488  28.933  40.971  13.034
16930W        W80489   0.294  29.440   2.231
16931W        W80490  10.364  23.098  12.828
16932W        W80491  27.563  24.716   3.371
16933W        W80492  30.048  19.636   0.393
16934W        W80493  32.552  39.057   2.885
16935W        W80494   3.926  38.932  11.502
16936W        W80495  11.810  20.729  13.327
16937W        W80496  28.589  41.336  14.406
16938W        W80497  13.765  20.097  12.982
16939W        W80498   4.333  13.187   3.853
16940W        W80499  23.082  26.071   2.416
16941W        W80500  39.535  37.051  10.412
16942W        W80501   8.201  22.577  14.348
16943W        W80502   3.245   6.694  13.463
16944W        W80503  21.525  12.743  13.000
16945W        W80504  38.046  18.753  13.940
16946W        W80505  14.222  37.386   5.307
16947W        W80506  26.611   2.470   0.820
16948W        W80507  40.806  43.456   4.266
16949W        W80508   8.816  40.504   2.295
16950W        W80509  23.521  20.189   2.795
16951W        W80510   9.224  21.091  13.866
16952W        W80511  42.341   2.828  14.358
16953W        W80512  41.872  16.244   4.743
16954W        W80513   9.232  26.070  10.594
16955W        W80514  25.073   1.306  11.422
16956W        W80515  40.015  12.619  13.961
16957W        W80516  39.416  41.019   4.169
16958W        W80517  36.973  40.451   4.189
16959W        W80518   1.948  15.723   0.469
16960W        W80519  36.878  34.971  12.504
16961W        W80520  18.173  39.006  10.926
16962W        W80521   5.321  30.079  10.621
16963W        W80522  24.654  13.105   0.913
16964W        W80523  16.801  34.424   0.396
16965W        W80524   6.760  35.047   2.777
16966W        W80525  36.431  26.200   4.808
16967W        W80526  44.264   8.235  13.425
16968W        W80527   1.257  21.746   4.746
16969W        W80528  33.599  13.172   0.738
16970W        W80529  32.903  10.676   1.366
16971W        W80530   5.216  22.245   2.199
16972W        W80531  40.426  34.607  10.568
16973W        W80532  29.443  21.141  10.084
16974W        W80533  40.921  34.435  11.454
16975W        W80534  27.621   7.392  12.833
16976W        W80535  36.356  11.350   4.191
16977W        W80536  13.224   0.886  10.953
16978W        W80537  29.651   7.298  14.811
16979W        W80538   3.895  31.972   3.243
16980W        W80539   6.840  43.971  11.920
16981W        W80540   8.395  42.317  10.524
16982W        W80541  31.081  24.978  14.488
16983W        W80542   7.344  40.420   2.754
16984W        W80543   8.841  34.082   4.617
16985W        W80544   5.716   1.860  11.052
16986W        W80545  36.577  39.558   0.345
16987W        W80546   4.309   4.211  13.378
16988W        W80547  29.158   3.760  10.413
16989W        W80548   4.730  28.495   2.740
16990W        W80549  42.987  24.152   1.231
16991W        W80550  12.659  34.501   4.255
16992W        W80551  10.353  36.591   2.394
16993W        W80552  42.445  39.498   1.350
16994W        W80553  23.160   8.284  14.335
16995W        W80554   3.239  13.217  12.383
16996W        W80555  37.481  12.132   2.366
16997W        W80556  42.947  23.219   1.293
16998W        W80557  38.386  10.304  10.460
16999W        W80558  11.761  16.566   0.376
17000W        W80559   6.226  12.144   3.688
17001W        W80560  43.418   9.861  12.895
17002W        W80561   5.776  24.656   0.814
17003W        W80562  17.567  43.343  14.385
17004W        W80563  11.792  26.111   2.181
17005W        W80564  35.916  39.878  10.419
17006W        W80565   3.286  42.883  12.831
17007W        W80566  31.085  14.826  14.414
17008W        W80567   8.277  38.879   4.147
17009W        W80568  43.419  33.529  11.092
17010W        W80569  43.476  40.389  13.476
17011W        W80570   0.936  21.129   1.430
17012W        W80571   5.388  10.850   3.164
17013W        W80572   8.224   8.202   0.423
17014W        W80573   0.900  43.319  14.360
17015W        W80574  35.552   5.726   0.387
17016W        W80575  36.403  25.698   3.380
17017W        W80576  37.498  23.718  10.475
17018W        W80577  34.548  41.461   0.327
17019W        W80578  27.180  23.719   1.913
17020W        W80579   6.761  19.182   3.183
17021W        W80580  24.182  30.985   4.667
17022W        W80581  32.130  10.697  12.940
17023W        W80582  30.915   5.698  10.117
17024W        W80583  33.014  11.808   0.331
17025W        W80584  16.224  38.438   1.860
17026W        W80585  38.397  28.947  10.551
17027W        W80586  35.968  12.315   1.214
17028W        W80587  17.294  41.453  13.862
17029W        W80588  41.918   0.829  11.386
17030W        W80589   1.365  41.909   0.869
17031W        W80590   4.358  28.121   3.812
17032W        W80591  17.281  31.613   3.791
17033W        W80592  15.276  32.484  13.513
17034W        W80593  30.595   1.351  10.451
17035W        W80594  29.170   0.771   1.823
17036W        W80595  13.724   1.845   0.335
17037W        W80596  16.182  10.684  11.128
17038W        W80597  26.024   9.395   3.369
17039W        W80598  30.467  30.462  14.991
17040W        W80599   3.860   7.263   0.817
17041W        W80600  41.837  17.184   4.308
17042W        W80601   8.229  17.652  13.013
17043W        W80602  27.134  42.315  12.056
17044W        W80603  33.589   0.903   3.345
17045W        W80604  28.161  35.868   1.823
17046W        W80605  11.794  36.588   0.289
17047W        W80606  18.249  33.081  13.996
17048W        W80607  35.073  33.400   2.796
17049W        W80608  22.123  32.996   2.283
17050W        W80609  43.984  31.542   3.673
17051W        W80610  43.912  37.381  11.386
17052W        W80611   5.788  37.920   2.845
17053W        W80612  29.576  34.026   3.706
17054W        W80613  22.031  38.827   4.658
17055W        W80614  42.410  25.604   1.238
17056W        W80615  18.239  31.131   2.815
17057W        W80616  11.198   3.365  12.578
17058W        W80617  42.890  39.867  12.511
17059W        W80618  25.191  16.712   2.734
17060W        W80619  30.492  22.546   3.170
17061W        W80620  35.438  31.497   3.676
17062W        W80621  31.598  19.747  11.448
17063W        W80622  39.017  24.003  14.492
17064W        W80623  44.414  17.249  13.457
17065W        W80624   8.322  19.272   1.243
17066W        W80625  13.120   0.808  11.377
17067W        W80626  36.383   5.867  11.960
17068W        W80627  34.582  26.010   0.859
17069W        W80628  29.553  15.313   2.824
17070W        W80629   4.283   0.294  12.513
17071W        W80630  24.614   4.742  12.966
17072W        W80631  13.708  24.633  14.386
17073W        W80632  30.028  30.957  10.564
17074W        W80633  14.293  16.763  13.858
17075W        W80634  44.411  27.522  14.428
17076W        W80635  38.562  11.671  12.511
17077W        W80636  33.460  25.024  14.383
17078W        W80637  25.217  24.077  10.460
17079W        W80638  29.140   6.760   0.375
17080W        W80639  36.589  14.114   2.863
17081W        W80640  33.933  37.410  10.445
17082W        W80641  16.171  39.948  13.509
17083W        W80642  12.355  24.711  14.460
17084W        W80643  11.265   0.458   1.276
17085W        W80644   9.219   2.845   4.743
17086W        W80645  21.164  11.189   0.418
17087W        W80646  32.050  17.225   3.193
17088W        W80647   5.779  23.566  14.885
17089W        W80648   9.713  44.370  11.489
17090W        W80649   0.426  43.460  14.776
17091W        W80650   5.424   0.936   4.138
17092W        W80651  33.963  10.708   1.876
17093W        W80652   8.317   5.349  11.092
17094W        W80653  18.101  21.535   0.766
17095W        W80654   2.924  17.635   3.676
17096W        W80655  39.339  27.592  12.485
17097W        W80656   0.909  14.263  10.572
17098W        W80657  17.727  12.648  12.045
17099W        W80658  23.532  35.476  10.541
17100W        W80659  25.062  15.310  12.459
17101W        W80660  35.579  17.627   3.774
17102W        W80661  38.020  17.795  14.902
17103W        W80662  13.154   7.317   2.238
17104W        W80663  14.110  25.689   3.217
17105W        W80664   3.809   4.944   2.852
17106W        W80665  43.862  18.126   2.207
17107W        W80666  26.582   4.205  13.055
17108W        W80667   3.235  35.584   4.607
17109W        W80668  14.189  25.166  11.473
17110W        W80669  40.428  13.249  11.928
17111W        W80670  26.106  16.229   3.635
17112W        W80671   9.162  40.448   4.186
17113W        W80672   0.307   4.332  12.904
17114W        W80673  22.249  20.684  14.795
17115W        W80674  33.497  42.915  10.157
17116W        W80675  18.687  13.349   1.419
17117W        W80676  18.655   8.678  14.472
17118W        W80677   3.387  23.159   3.323
17119W        W80678  24.008  37.556   4.278
17120W        W80679  30.980   1.848   0.806
17121W        W80680  18.265   9.155   1.741
17122W        W80681  12.664  42.889  11.885
17123W        W80682  16.173  41.936   2.797
17124W        W80683  13.779  35.043   4.626
17125W        W80684  10.347  12.140   1.443
17126W        W80685  29.029   2.946  11.580
17127W        W80686   0.813  29.017  14.995
17128W        W80687  18.103  17.649   3.739
17129W        W80688  19.132  34.877   2.861
17130W        W80689   7.206  12.194  12.002
17131W        W80690  17.273   7.775   3.745
17132W        W80691  24.033  16.648   1.724
17133W        W80692   2.354  14.798  10.486
17134W        W80693  31.123  12.615   2.413
17135W        W80694   6.842  20.208  10.520
17136W        W80695  37.352   2.262   2.828
17137W        W80696   6.868  43.356  12.909
17138W        W80697  23.497  31.069  14.512
17139W        W80698  42.901   3.827  14.817
17140W        W80699  28.176  42.448   0.955
17141W        W80700  10.310  43.816   4.624
17142W        W80701  22.102  18.239   0.431
17143W        W80702  44.474  44.389  11.955
17144W        W80703  26.620  34.523   3.863
17145W        W80704  14.678   2.471   4.267
17146W        W80705   0.478  28.149   1.707
17147W        W80706   0.774  38.854  13.963
17148W        W80707  37.441  10.701   1.280
17149W        W80708  32.904  17.580  11.531
17150W        W80709  40.814  12.701   1.816
17151W        W80710   8.363  30.922   3.263
17152W        W80711  39.056  21.751  13.459
17153W        W80712  42.404  42.801  11.013
17154W        W80713   3.888  16.593  13.385
17155W        W80714   9.320  17.607  10.440
17156W        W80715   8.232   8.324  14.766
17157W        W80716  19.675  11.859  14.001
17158W        W80717  22.554  30.941   2.662
17159W        W80718   6.241  41.482   3.803
17160W        W80719  37.893  32.508   1.353
17161W        W80720  12.132  10.366   0.941
17162W        W80721  23.600   7.776  14.873
17163W        W80722  15.751   0.756   4.828
17164W        W80723  32.911  15.199  11.569
17165W        W80724  20.037   0.449   2.691
17166W        W80725   7.380  35.583   3.634
17167W        W80726  28.611   3.863  12.499
17168W        W80727  26.041  24.197   4.195
17169W        W80728  24.064  36.565  13.309
17170W        W80729  13.820  25.983   2.854
17171W        W80730   9.291  36.420   9.994
17172W        W80731  36.952  24.215  14.356
17173W        W80732  30.412  37.071   2.205
17174W        W80733  29.149  17.195  13.989
17175W        W80734  22.040   6.341   3.846
17176W        W80735  17.251  22.144  13.316
17177W        W80736  11.288  15.695   1.323
17178W        W80737  32.580  11.767  12.413
17179W        W80738  35.920  31.124   2.775
17180W        W80739  26.621  23.687  10.535
17181W        W80740  42.281  25.682  14.286
17182W        W80741  12.739  28.004  12.932
17183W        W80742  19.171  28.179   5.214
17184W        W80743   2.278  21.190   4.126
17185W        W80744  20.665  16.662   3.359
17186W        W80745  44.289  37.488   3.371
17187W        W80746  27.507  12.741  10.456
17188W        W80747  32.913  39.924  12.990
17189W        W80748  18.260  21.665   3.639
17190W        W80749  35.919  26.689  12.926
17191W        W80750  18.207  26.529   0.453
17192W        W80751  21.024  14.207   3.379
17193W        W80752  27.993  18.765   3.868
17194W        W80753   5.754   7.303  14.316
17195W        W80754   7.686   4.937  13.927
17196W        W80755  37.048  20.093   0.313
17197W        W80756   1.267  12.843  12.566
17198W        W80757  26.526  42.979  10.417
17199W        W80758  37.999  20.037  10.910
17200W        W80759  16.733   8.859  12.886
17201W        W80760   4.212  26.954   3.842
17202W        W80761  31.533  37.939   9.980
17203W        W80762  15.122  14.641  14.497
17204W        W80763  39.405  27.956   3.276
17205W        W80764  13.171   0.753  12.899
17206W        W80765  21.652  40.992  10.596
17207W        W80766  23.021  10.326   1.348
17208W        W80767  21.259   0.435   2.315
17209W        W80768   6.376  42.785  14.940
17210W        W80769  20.246  37.046  12.921
17211W        W80770  27.495  31.088  10.931
17212W        W80771  36.390   4.379   1.272
17213W        W80772  16.242   5.911  11.462
17214W        W80773  14.745   7.406  14.790
17215W        W80774  15.743  25.989  14.993
17216W        W80775  11.753  25.688  13.880
17217W        W80776  36.898  16.139   2.740
17218W        W80777  43.286  26.623  11.026
17219W        W80778  31.500  22.592   0.303
17220W        W80779  36.998  10.339   0.300
17221W        W80780  41.304  40.320   2.280
17222W        W80781  40.531  35.963   3.159
17223W        W80782  21.678  39.065   3.651
17224W        W80783  30.034  12.838   4.137
17225W        W80784  44.410   0.752  12.855
17226W        W80785  25.499  13.279  14.930
17227W        W80786   3.366  10.357   3.756
17228W        W80787  13.222   4.419  12.937
17229W        W80788  38.824  43.276  10.465
17230W        W80789  37.938  31.514  10.928
17231W        W80790   6.920  35.481   3.359
17232W        W80791   5.813  43.345   0.829
17233W        W80792  43.780  16.281  12.350
17234W        W80793  11.853  19.146  11.412
17235W        W80794  37.369  44.469  14.308
17236W        W80795  24.079  10.161  14.781
17237W        W80796  35.445  17.117   0.931
17238W        W80797  21.108   8.795  10.982
17239W        W80798  19.199  18.571  10.618
17240W        W80799  21.614  23.210   1.239
17241W        W80800  34.962  32.917  14.760
17242W        W80801  31.984   0.290   2.389
17243W        W80802  12.850  34.446  11.986
17244W        W80803   9.664  36.978  11.529
17245W        W80804   9.176  17.614  12.898
17246W        W80805  41.909  13.764   3.187
17247W        W80806  43.455  32.595   2.313
17248W        W80807  42.368  12.714   2.246
17249W        W80808   7.327  16.616  11.402
17250W        W80809   5.823  40.921   0.905
17251W        W80810  19.760  15.656  12.840
17252W        W80811  33.038  23.123  12.380
17253W        W80812  14.772  10.161  11.127
17254W        W80813  39.339   8.349   4.701
17255W        W80814  25.511  43.353   3.167
17256W        W80815   0.859  33.131   1.711
17257W        W80816  17.085   3.887   2.701
17258W        W80817  26.701  25.650   3.309
17259W        W80818  38.348  29.161  13.796
17260W        W80819  16.624  17.307   2.677
17261W        W80820  23.183  40.497  11.025
17262W        W80821  31.547  16.802  14.867
17263W        W80822  25.552  41.319  10.534
17264W        W80823  28.090  28.628  11.961
17265W        W80824   0.453  42.865  11.116
17266W        W80825  33.451  41.841   1.814
17267W        W80826  19.665  42.907   0.331
17268W        W80827  35.555  16.806  11.059
17269W        W80828   5.236  32.031  11.392
17270W        W80829   8.311  29.456   4.691
17271W        W80830   2.333  26.643   4.182
17272W        W80831  44.843   8.344   0.853
17273W        W80832  32.555  23.015   2.796
17274W        W80833  22.081  27.965  11.401
17275W        W80834  23.099   1.281   2.393
17276W        W80835  20.527  20.232  10.619
17277W        W80836   8.272  30.513  13.980
17278W        W80837  19.634  42.874   1.228
17279W        W80838  27.567  24.485   4.306
17280W        W80839  19.559  15.192  12.526
17281W        W80840   0.783  16.238  12.579
17282W        W80841  14.254  17.624  10.954
17283W        W80842   3.424  24.070   2.665
17284W        W80843  34.892  11.640   2.195
17285W        W80844  11.697  41.432   0.288
17286W        W80845  41.926  31.131   4.667
17287W        W80846  44.371   6.829  14.989
17288W        W80847   0.909   4.840  10.037
17289W        W80848   0.312   7.887  10.894
17290W        W80849  21.026  10.802  12.354
17291W        W80850  34.494  44.970   3.838
17292W        W80851  33.408  32.619  10.439
17293W        W80852  31.586  22.688   0.837
17294W        W80853   1.830   0.281  14.997
17295W        W80854  15.679  35.934  13.883
17296W        W80855  25.573  18.658   0.827
17297W        W80856   2.863  40.326   0.307
17298W        W80857  38.538  35.536   5.565
17299W        W80858  21.178  23.578   0.847
17300W        W80859  18.069  36.428  12.014
17301W        W80860   3.937  30.952   3.834
17302W        W80861   4.700  39.489  13.390
17303W        W80862   4.263  24.005  13.951
17304W        W80863  41.037  25.068   1.280
17305W        W80864  31.606  44.440   2.254
17306W        W80865  18.115  12.616   1.875
17307W        W80866  13.680  24.071   1.901
17308W        W80867  14.813  43.478  12.046
17309W        W80868  39.045  14.757   1.428
17310W        W80869  24.015  18.638   4.605
17311W        W80870  38.412  30.123   0.886
17312W        W80871  44.349  28.978   3.150
17313W        W80872  32.500  28.154  11.906
17314W        W80873   3.819  40.930   4.648
17315W        W80874  10.236  32.040  10.529
17316W        W80875   4.442  42.854  12.061
17317W        W80876  44.764  25.136  13.405
17318W        W80877   2.965  40.449   4.792
17319W        W80878  27.014  13.298  12.905
17320W        W80879   1.382  17.118  10.633
17321W        W80880  35.993  29.022   2.245
17322W        W80881  27.977  10.862   1.901
17323W        W80882  16.759   8.359   3.688
17324W        W80883  25.556   0.468  13.917
17325W        W80884  11.127  22.064  13.975
17326W        W80885   5.846  20.534  13.505
17327W        W80886   9.747  43.306   2.320
17328W        W80887  22.548  35.374   1.880
17329W        W80888  18.784  43.883  10.518
17330W        W80889  26.201  42.315  12.934
17331W        W80890  20.155  23.614  12.877
17332W        W80891  26.661   6.397   0.443
17333W        W80892  20.730  35.033   3.240
17334W        W80893  35.440  39.912   2.809
17335W        W80894  28.545  42.461  13.405
17336W        W80895  34.610  21.701   2.245
17337W        W80896  22.512  10.726  11.409
17338W        W80897  28.535  21.743  14.336
17339W        W80898  28.577  13.776   4.162
17340W        W80899  30.089   7.794  14.447
17341W        W80900  10.183  37.455   3.328
17342W        W80901  37.073   9.212   4.287
17343W        W80902   7.412  44.407   1.296
17344W        W80903   0.818  10.862   2.813
17345W        W80904  40.499  27.035   3.749
17346W        W80905  30.441  11.332  10.636
17347W        W80906  17.736  25.599  10.411
17348W        W80907  32.069  25.534  11.563
17349W        W80908  32.395  17.183   0.408
17350W        W80909  35.093  20.051  10.896
17351W        W80910  19.106  34.436   4.286
17352W        W80911  33.878  19.253  12.013
17353W        W80912  27.456  44.763  10.985
17354W        W80913   2.460  27.619  13.393
17355W        W80914  23.067  12.217   0.455
17356W        W80915   8.730  44.943  13.801
17357W        W80916  35.398  15.231   0.858
17358W        W80917  39.813  15.660   0.902
17359W        W80918  10.635  16.213   9.931
17360W        W80919  30.486   0.893   0.816
17361W        W80920  13.620  38.001  13.343
17362W        W80921  28.179  35.894  11.612
17363W        W80922  10.151   7.887   4.116
17364W        W80923  20.749   4.353  13.481
17365W        W80924  41.991  44.503  13.538
17366W        W80925  34.988  26.058  11.388
17367W        W80926  32.057   6.272  12.927
17368W        W80927  24.117  39.996  11.477
17369W        W80928   8.174  24.606  14.856
17370W        W80929  26.103  15.623   3.207
17371W        W80930  23.516   8.364  14.009
17372W        W80931  13.207  39.537   2.754
17373W        W80932   7.233  13.274  13.434
17374W        W80933  24.997   0.799   2.244
17375W        W80934  11.142  20.047  10.578
17376W        W80935  44.488  16.138  14.808
17377W        W80936  25.993  14.210   2.271
17378W        W80937   5.416  36.487   0.393
17379W        W80938   7.825  21.227  11.437
17380W        W80939  27.548  31.436  11.018
17381W        W80940  32.993   6.791  14.830
17382W        W80941   4.857  24.122  10.040
17383W        W80942  24.116   8.385  11.857
17384W        W80943  29.496   1.930  13.845
17385W        W80944  38.901  38.999  11.110
17386W        W80945  18.557  13.200   3.721
17387W        W80946  15.809  11.836  11.604
17388W        W80947  14.169  36.418   1.444
17389W        W80948  41.831  23.013  13.050
17390W        W80949   0.916  16.583  13.462
17391W        W80950  21.201   0.900  13.819
17392W        W80951   5.781  27.511  11.049
17393W        W80952  18.708  32.566   4.147
17394W        W80953  17.559  25.061  14.925
17395W        W80954  30.440  26.026  11.092
17396W        W80955  34.114   3.438   4.295
17397W        W80956  34.395  34.999  13.405
17398W        W80957   8.792  12.796   2.741
17399W        W80958  14.136  43.874  10.597
17400W        W80959  33.969  17.578   3.715
17401W        W80960  40.005  16.680   0.472
17402W        W80961  12.173   2.258   0.312
17403W        W80962  38.364  32.575   3.349
17404W        W80963  10.375  15.652  11.502
17405W        W80964  37.406  42.462   0.822
17406W        W80965  39.997  38.545   2.206
17407W        W80966  31.645   8.685   1.313
17408W        W80967  33.905  16.712   2.244
17409W        W80968  10.706  34.545  14.803
17410W        W80969  36.480  12.175   0.257
17411W        W80970  22.572  31.898  13.429
17412W        W80971  10.326  41.402   0.789
17413W        W80972  37.419  38.904   4.771
17414W        W80973  40.501  12.162  11.446
17415W        W80974  26.630  43.845   4.188
17416W        W80975  39.324  22.745  12.473
17417W        W80976  16.606  42.318  13.469
17418W        W80977  31.974  21.533   3.168
17419W        W80978  16.805  22.671   0.785
17420W        W80979  34.898  11.770   1.381
17421W        W80980  12.242  38.482  14.880
17422W        W80981  44.951  42.388  14.851
17423W        W80982  40.514  37.081  12.564
17424W        W80983   5.266  12.201  13.961
17425W        W80984  23.601  13.659   2.843
17426W        W80985  31.648   2.758   2.816
17427W        W80986  39.855  42.785   2.760
17428W        W80987   7.672   9.298  14.848
17429W        W80988  22.745  15.257   1.734
17430W        W80989   7.275  23.631  13.426
17431W        W80990  30.561  34.961   1.705
17432W        W80991  42.468  34.083  11.423
17433W        W80992  25.162   9.827   4.154
17434W        W80993  13.832  19.587  10.640
17435W        W80994  15.694  14.204   0.909
17436W        W80995  31.995   7.265  11.591
17437W        W80996  42.845  16.097   2.724
17438W        W80997  25.988  12.247  12.089
17439W        W80998  21.707  29.031   1.438
17440W        W80999  15.175  30.916   3.199
17441W        W81000  43.768   6.700   1.433
17442W        W81001  10.184   4.707   0.446
17443W        W81002  25.019  22.059  11.858
17444W        W81003  14.816   7.356  12.904
17445W        W81004  40.843  29.456   0.801
17446W        W81005  21.103   1.963  10.548
17447W        W81006  26.060  41.938  10.965
17448W        W81007  34.547  44.451  12.967
17449W        W81008  27.155  19.088   2.773
17450W        W81009   0.849  19.054  11.940
17451W        W81010  17.238  20.706   4.284
17452W        W81011  32.612  30.148   3.221
17453W        W81012  12.155  43.884   4.251
17454W        W81013  15.756  31.443   0.252
17455W        W81014  28.435  22.072   2.305
17456W        W81015  28.164  19.771   1.707
17457W        W81016   2.850   0.933  11.532
17458W        W81017  12.832  20.573   0.352
17459W        W81018  29.514  18.216   5.189
17460W        W81019  35.068   4.867  12.375
17461W        W81020  32.452  44.971   4.775
17462W        W81021   7.238  33.939   4.679
17463W        W81022  22.681  24.140  12.919
17464W        W81023   7.220  19.568   2.710
17465W        W81024   2.381  15.793  13.382
17466W        W81025   1.362  29.476   4.201
17467W        W81026  36.990  31.088   0.829
17468W        W81027  41.299  26.173  10.531
17469W        W81028  30.542  35.431   3.289
17470W        W81029   5.762  12.277  12.930
17471W        W81030  19.141  27.962   1.924
17472W        W81031   1.820  23.661  14.303
17473W        W81032  20.746  30.930  12.851
17474W        W81033  20.722  27.542  12.843
17475W        W81034  24.088  28.627   0.265
17476W        W81035  26.687  35.362   4.190
17477W        W81036  11.176   6.192  11.005
17478W        W81037  21.740  11.822   1.365
17479W        W81038  25.220  20.720  10.499
17480W        W81039  35.073  32.526  12.967
17481W        W81040   9.200  41.038   0.865
17482W        W81041  11.755  33.129   2.817
17483W        W81042  33.981   3.399  12.022
17484W        W81043  17.602   8.785  12.448
17485W        W81044  40.994  17.296   3.849
17486W        W81045  37.570  22.649   1.307
17487W        W81046  41.411  18.279   3.197
17488W        W81047  19.050  23.211  11.890
17489W        W81048  40.522   4.865   9.997
17490W        W81049  25.556  29.647  11.977
17491W        W81050  43.827  17.629   1.764
17492W        W81051  30.067  15.588   4.637
17493W        W81052  12.238  36.465   2.885
17494W        W81053  40.925  37.428   2.800
17495W        W81054  23.129  35.958  14.434
17496W        W81055  28.052   7.371  14.007
17497W        W81056  44.859  29.060   1.295
17498W        W81057  43.844   3.237   0.358
17499W        W81058   0.337  25.184   4.687
17500W        W81059  29.006  39.971   4.765
17501W        W81060  20.046  32.041   3.631
17502W        W81061  36.089  27.642  12.453
17503W        W81062  33.398  30.115   9.986
17504W        W81063  38.936  44.973   4.692
17505W        W81064  34.576  33.883   0.405
17506W        W81065   6.252  10.708   0.262
17507W        W81066   9.218  15.113   2.816
17508W        W81067  10.273  11.834  13.518
17509W        W81068   1.887  35.925   2.726
17510W        W81069  11.255   9.150  14.444
17511W        W81070  35.499   6.378   4.144
17512W        W81071  10.220  16.227  11.070
17513W        W81072   2.846  44.759  13.869
17514W        W81073  37.072  38.438   3.840
17515W        W81074   1.910  21.690   4.818
17516W        W81075  32.009  41.311  13.946
17517W        W81076  25.619  10.813  11.918
17518W        W81077   2.471  20.646  13.483
17519W        W81078  34.032  19.167  14.307
17520W        W81079   0.321  19.691  12.927
17521W        W81080  25.702  19.551   3.636
17522W        W81081  40.434   5.860   0.821
17523W        W81082  36.448  37.397  13.316
17524W        W81083  32.614   9.370   9.555
17525W        W81084  26.665  34.427  12.884
17526W        W81085  30.046  22.186  12.848
17527W        W81086  22.700  39.053  13.847
17528W        W81087  19.060  32.890  13.897
17529W        W81088  30.562   2.844  10.620
17530W        W81089   5.376   7.881   2.797
17531W        W81090  19.583  31.067   1.783
17532W        W81091   5.744  26.194   4.611
17533W        W81092  11.216  38.971   4.610
17534W        W81093  31.476  19.122   3.387
17535W        W81094  25.055  20.177   0.938
17536W        W81095   9.810  30.929  10.937
17537W        W81096  24.583  28.557  14.498
17538W        W81097  26.635  23.049  14.812
17539W        W81098   6.383   1.772  13.346
17540W        W81099  40.963  44.864  11.927
17541W        W81100  31.614  19.650  13.413
17542W        W81101  35.022  30.100   3.653
17543W        W81102   6.232  13.751  11.002
17544W        W81103  37.383  10.715   4.642
17545W        W81104  30.614  28.553  13.409
17546W        W81105   2.798  24.173   3.159
17547W        W81106  36.384  32.901   1.239
17548W        W81107  40.369  38.393   2.832
17549W        W81108   8.739   7.397   3.347
17550W        W81109  17.576   5.393  14.446
17551W        W81110   4.878  13.841  12.920
17552W        W81111  29.651  17.631   3.745
17553W        W81112  36.064  22.605   4.191
17554W        W81113  41.335  44.775  12.550
17555W        W81114  30.497   6.895  14.321
17556W        W81115  10.245  22.744  13.440
17557W        W81116  21.041  28.978   3.177
17558W        W81117  12.647   0.416  10.966
17559W        W81118  26.688   2.335  13.414
17560W        W81119  40.414  26.696  11.397
17561W        W81120  32.052  30.074  14.304
17562W        W81121  16.134  36.842   3.208
17563W        W81122  30.427  15.128   4.139
17564W        W81123   3.749  25.099   0.911
17565W        W81124  13.223  34.476  11.932
17566W        W81125  31.583  35.506   1.910
17567W        W81126  38.984  35.393   2.401
17568W        W81127  22.996  31.636   3.660
17569W        W81128   2.955  31.460   2.870
17570W        W81129  43.873  30.615  13.969
17571W        W81130   2.425  27.594   1.694
17572W        W81131   3.938  25.108  11.518
17573W        W81132  20.114   4.425   3.658
17574W        W81133   3.341   6.683  13.930
17575W        W81134   8.866   4.348   3.323
17576W        W81135   6.357  31.919  10.900
17577W        W81136  29.958  28.594  12.519
17578W        W81137   1.902  12.343   4.775
17579W        W81138  12.221   7.787   0.959
17580W        W81139  30.495  42.961  10.115
17581W        W81140  17.599   0.750  13.876
17582W        W81141  26.979  24.615   1.231
17583W        W81142  38.821  43.319   0.757
17584W        W81143   6.292  12.323  14.931
17585W        W81144  29.540  41.404  12.361
17586W        W81145   2.379  11.223   1.226
17587W        W81146  26.602  27.959  12.418
17588W        W81147  40.973   5.373   1.418
17589W        W81148  18.120   8.859  13.499
17590W        W81149  17.706  19.133   3.164
17591W        W81150  33.874   6.388   3.301
17592W        W81151  37.505  34.578   4.788
17593W        W81152  41.371   9.198   1.444
17594W        W81153  29.997  41.844   2.419
17595W        W81154   7.684  20.152  10.995
17596W        W81155  32.002  27.649   2.842
17597W        W81156  24.119  27.094  13.964
17598W        W81157  14.615  26.987   2.749
17599W        W81158  22.589  31.131  12.974
17600W        W81159  21.231   7.690   0.817
17601W        W81160  39.400  41.987   3.780
17602W        W81161  21.601   3.948   1.871
17603W        W81162  23.496  39.426   2.776
17604W        W81163  19.055  21.244  10.578
17605W        W81164  43.845  27.678  11.002
17606W        W81165   2.378  39.855  12.944
17607W        W81166  19.262  27.688   1.383
17608W        W81167  33.015  34.882  10.425
17609W        W81168  24.584  36.865   2.892
17610W        W81169  10.305  17.801  13.922
17611W        W81170  36.045  30.652  14.423
17612W        W81171  34.605  35.053  10.899
17613W        W81172   1.918  37.497  10.922
17614W        W81173  24.547   9.187  12.854
17615W        W81174   4.847  39.402   3.868
17616W        W81175   6.290   8.251  10.568
17617W        W81176  26.638   3.928  13.398
17618W        W81177   1.479  25.967  12.994
17619W        W81178  27.047   3.773   2.836
17620W        W81179  23.629  22.015  14.848
17621W        W81180   5.222   3.443   4.326
17622W        W81181  35.449  36.935   1.918
17623W        W81182   9.688  11.129   1.376
17624W        W81183  34.449  24.687   2.694
17625W        W81184   5.202  35.550  12.493
17626W        W81185  34.923   8.708   4.119
17627W        W81186  40.861  20.741  11.593
17628W        W81187   2.372  15.741  12.858
17629W        W81188  21.197  10.328   1.862
17630W        W81189  12.743   3.330   4.185
17631W        W81190   7.752   7.793  12.565
17632W        W81191  44.779  20.212  11.084
17633W        W81192   0.859  26.970   4.328
17634W        W81193   2.351  20.237   2.209
17635W        W81194  43.302  11.764  10.096
17636W        W81195  44.484  29.666  10.976
17637W        W81196  25.965  25.050   4.828
17638W        W81197  20.599   2.948  11.394
17639W        W81198  34.887   1.260  14.500
17640W        W81199  40.840  38.050   2.413
17641W        W81200  38.411  36.511   3.826
17642W        W81201  22.548   8.200  11.910
17643W        W81202  33.894   3.324  13.903
17644W        W81203  27.471  24.548   1.827
17645W        W81204  44.431   4.316  14.339
17646W        W81205   1.353   7.325   1.294
17647W        W81206  18.290  19.186   0.402
17648W        W81207   9.831   2.261  12.421
17649W        W81208  36.506  37.924  10.453
17650W        W81209  17.240   3.847   2.284
17651W        W81210  14.244  36.065  13.528
17652W        W81211  28.143  44.850   0.804
17653W        W81212  21.701  20.141   3.262
17654W        W81213  37.500  33.419  13.340
17655W        W81214   6.372  10.250   4.796
17656W        W81215   4.264  26.206  13.944
17657W        W81216  18.607  41.911   5.285
17658W        W81217  40.511  27.449   2.703
17659W        W81218  27.961  28.002   9.969
17660W        W81219   3.753   6.715  13.950
17661W        W81220  26.572  14.217  11.021
17662W        W81221  24.697  40.824  12.387
17663W        W81222  41.827  26.959  12.870
17664W        W81223  27.592  27.030  12.851
17665W        W81224  18.295  38.941  14.498
17666W        W81225  20.227  12.793   0.907
17667W        W81226  11.761  25.670   2.189
17668W        W81227   9.799  35.549  11.951
17669W        W81228   5.392  17.643  13.039
17670W        W81229  26.690  44.828  11.954
17671W        W81230  28.533  35.964   3.226
17672W        W81231  41.935  29.976   3.764
17673W        W81232  19.608   5.881  12.981
17674W        W81233  43.291  31.566  10.459
17675W        W81234  36.911  42.941   2.695
17676W        W81235  32.611  17.684   1.404
17677W        W81236  44.917   1.275   1.238
17678W        W81237  28.506  20.161   3.697
17679W        W81238  41.807   2.310   1.371
17680W        W81239  14.676  27.554   2.661
17681W        W81240  44.908  31.963   0.320
17682W        W81241  38.877  37.898  13.037
17683W        W81242   6.741  15.660   3.870
17684W        W81243  43.890  14.211   2.380
17685W        W81244  24.228  27.620   4.639
17686W        W81245  14.229  17.738   0.850
17687W        W81246  38.967  36.457  12.033
17688W        W81247   4.833  23.168   3.348
17689W        W81248   2.447  12.204  13.412
17690W        W81249  19.202  24.663   4.659
17691W        W81250   0.400  39.054   3.240
17692W        W81251  31.419  22.620  11.534
17693W        W81252   5.391  38.452   4.163
17694W        W81253  36.462  44.980  12.457
17695W        W81254  41.358  15.660   2.872
17696W        W81255  44.486   8.654   2.194
17697W        W81256   1.743  27.460  13.809
17698W        W81257  39.864  34.966  13.994
17699W        W81258  34.585  23.636  13.343
17700W        W81259   6.406  23.235  10.535
17701W        W81260   9.861  18.251  10.408
17702W        W81261  30.492   1.825  13.417
17703W        W81262  14.827  41.848   4.311
17704W        W81263  30.509  37.956   0.395
17705W        W81264  26.054  35.500   2.246
17706W        W81265  34.921  26.586  11.397
17707W        W81266   2.333   7.699  14.921
17708W        W81267   7.840  33.060  13.446
17709W        W81268  33.463   7.888  14.808
17710W        W81269  24.563  38.570   2.265
17711W        W81270   9.782  33.476  13.400
17712W        W81271  36.425  41.466   1.251
17713W        W81272   4.790  44.373   0.255
17714W        W81273  17.644   3.887   3.157
17715W        W81274  14.339  28.658   3.336
17716W        W81275  10.702  16.734  10.594
17717W        W81276   2.726   8.237   0.267
17718W        W81277  36.511  25.172   1.376
17719W        W81278  40.050  20.556  11.949
17720W        W81279  20.207  39.935   4.818
17721W        W81280  28.039  17.145  11.856
17722W        W81281   8.303  28.037  12.087
17723W        W81282   4.391  28.949   0.788
17724W        W81283  43.782  14.668  13.532
17725W        W81284   4.700  20.068   4.777
17726W        W81285  43.960  34.587  11.986
17727W        W81286  25.639  13.144   5.804
17728W        W81287  11.635  40.470  13.809
17729W        W81288   3.235  11.174  11.036
17730W        W81289  39.513  14.172  11.428
17731W        W81290  13.712  10.757   2.760
17732W        W81291  28.048  44.366   0.808
17733W        W81292  11.671  26.206   1.311
17734W        W81293  19.117  23.073   3.725
17735W        W81294  20.680  42.419  11.044
17736W        W81295   3.425   2.787  10.559
17737W        W81296  19.755  32.626   2.239
17738W        W81297  25.140   2.752  10.623
17739W        W81298  37.942  36.448  12.081
17740W        W81299  12.290  30.076  14.854
17741W        W81300  25.173  29.969   3.221
17742W        W81301  21.154  40.430  13.842
17743W        W81302   9.886  21.051  13.982
17744W        W81303  36.870   0.814  14.356
17745W        W81304  39.431  34.926  11.060
17746W        W81305   1.402  29.453  14.326
17747W        W81306  14.747  32.935  11.090
17748W        W81307  42.014  37.454  13.045
17749W        W81308  23.706   1.862   0.449
17750W        W81309  24.689  24.590  11.864
17751W        W81310  29.075   4.760   4.347
17752W        W81311  17.265   0.349  12.436
17753W        W81312  44.907  11.208  11.511
17754W        W81313   0.943  36.469   3.227
17755W        W81314  40.514  14.275  11.072
17756W        W81315  19.636   0.449  10.982
17757W        W81316  12.214  30.535  14.888
17758W        W81317  31.912   2.282   1.752
17759W        W81318  26.000   2.789  12.895
17760W        W81319   8.799  18.174   2.276
17761W        W81320  41.828  20.718  12.907
17762W        W81321  13.306  35.469   0.373
17763W        W81322  43.014   0.418   2.809
17764W        W81323  18.234  23.600  12.352
17765W        W81324  14.162   9.676   4.728
17766W        W81325  27.070   3.393   1.794
17767W        W81326  16.114  15.798   4.314
17768W        W81327  21.196   7.413  14.364
17769W        W81328  38.334  42.954  10.121
17770W        W81329  36.559  36.082  10.067
17771W        W81330  33.891  36.426   4.775
17772W        W81331  43.329   2.835  14.935
17773W        W81332  36.945  40.982  13.794
17774W        W81333  36.045   8.303   2.375
17775W        W81334   4.836  17.739  13.986
17776W        W81335  43.887  12.333  14.376
17777W        W81336  22.558  34.978   2.900
17778W        W81337   4.442  37.980   0.947
17779W        W81338  27.075  23.036  11.007
17780W        W81339  35.893  23.161  13.547
17781W        W81340  35.531  34.057  13.872
17782W        W81341  30.577  31.609   2.284
17783W        W81342   5.703  12.156   3.206
17784W        W81343  25.979   9.719   0.435
17785W        W81344  20.062   2.336   4.650
17786W        W81345  18.592  28.985   9.996
17787W        W81346  15.619  31.112  13.823
17788W        W81347  15.811  39.865  14.815
17789W        W81348   6.774  18.255  13.532
17790W        W81349   4.319   5.918  12.017
17791W        W81350  12.667  33.427   0.401
17792W        W81351  42.923  19.238  14.990
17793W        W81352  41.904  44.930   3.359
17794W        W81353  27.550  28.013   4.165
17795W        W81354  32.945   5.415   3.293
17796W        W81355  38.328  23.992   2.729
17797W        W81356  30.983   6.801   3.641
17798W        W81357   8.341  38.393  12.473
17799W        W81358  19.646   5.255  10.632
17800W        W81359  14.163  13.183  11.014
17801W        W81360  19.582  36.541  14.831
17802W        W81361  41.991  30.962  14.843
17803W        W81362  25.709  26.153  14.335
17804W        W81363  11.296   0.917   4.176
17805W        W81364   2.878  12.223   2.751
17806W        W81365   4.706  12.714  11.941
17807W        W81366  23.653   9.198   4.302
17808W        W81367   4.927  39.400  12.493
17809W        W81368   3.822  10.761   2.331
17810W        W81369  18.092  25.052   2.339
17811W        W81370  31.529  17.174   3.631
17812W        W81371  29.483  36.424  11.039
17813W        W81372  40.526   6.247   3.850
17814W        W81373  38.468  13.658  13.981
17815W        W81374  25.968   2.312  13.428
17816W        W81375  23.038   5.772  12.490
17817W        W81376  13.242  11.855  10.458
17818W        W81377  26.650  21.533   0.842
17819W        W81378   1.908  24.055  10.624
17820W        W81379   6.799  21.561  14.392
17821W        W81380  14.116  18.205  13.032
17822W        W81381  36.984  22.679   4.741
17823W        W81382   7.269  38.012   3.178
17824W        W81383  15.764   0.924   4.114
17825W        W81384  11.364   0.300   4.233
17826W        W81385   2.263  36.044  13.931
17827W        W81386  23.222   2.281   2.667
17828W        W81387  36.503   9.800  13.003
17829W        W81388  20.663  33.099   9.575
17830W        W81389   1.894  20.585   1.846
17831W        W81390  10.283  22.575  11.098
17832W        W81391  12.341   2.297   2.704
17833W        W81392  12.722  16.084  11.983
17834W        W81393  31.590   3.273  12.430
17835W        W81394  15.687  38.960   5.256
17836W        W81395  20.612  22.198  13.988
17837W        W81396  19.166  22.634   2.755
17838W        W81397   4.895  30.623   0.789
17839W        W81398  25.035  28.651   4.618
17840W        W81399  10.831  31.480  12.037
17841W        W81400  35.467  35.599   4.146
17842W        W81401  15.804  40.001  13.880
17843W        W81402  15.775  44.999   0.760
17844W        W81403  32.134  42.387  13.001
17845W        W81404  19.738  43.961  12.366
17846W        W81405  42.284  40.438  10.461
17847W        W81406   9.391   4.932  12.543
17848W        W81407  15.684  14.189   5.117
17849W        W81408  13.844   9.715  11.997
17850W        W81409  27.052   0.969   1.402
17851W        W81410   3.853   6.210   3.154
17852W        W81411  30.074  34.547  12.857
17853W        W81412  33.028  16.115   2.753
17854W        W81413  42.988  37.508  13.827
17855W        W81414  17.224   5.365  13.545
17856W        W81415  18.236  10.211  11.038
17857W        W81416  29.577  17.599  12.378
17858W        W81417  19.110  12.307   4.811
17859W        W81418   6.713   8.731  14.861
17860W        W81419  16.570  41.007   0.866
17861W        W81420  18.784   9.236  14.287
17862W        W81421  31.418  42.462   5.213
17863W        W81422   8.336  10.676  11.939
17864W        W81423  37.999  33.417   4.216
17865W        W81424  17.222  43.469   2.414
17866W        W81425  42.927  27.469  14.495
17867W        W81426  28.618  40.005   4.720
17868W        W81427  24.493   1.331   2.255
17869W        W81428   9.706  30.635  14.987
17870W        W81429  25.024   2.389  14.420
17871W        W81430   0.857   7.414  14.891
17872W        W81431  14.120  10.159  13.983
17873W        W81432  44.869  22.532   4.689
17874W        W81433   0.453  15.784  10.509
17875W        W81434  42.470  42.437  14.458
17876W        W81435  24.644  29.010  11.898
17877W        W81436  10.706  27.015   0.451
17878W        W81437  13.607  33.492   2.405
17879W        W81438  15.300  15.230  13.879
17880W        W81439  11.795   5.729  11.508
17881W        W81440  28.060  38.076   4.341
17882W        W81441  13.784  34.917  12.902
17883W        W81442  28.008   9.269  10.956
17884W        W81443  41.490  12.198   4.170
17885W        W81444  24.622  16.075  14.324
17886W        W81445  16.279  13.115   0.877
17887W        W81446   9.288  33.953   0.847
17888W        W81447  43.882  15.780  14.958
17889W        W81448   5.824   3.873   1.411
17890W        W81449  27.092  15.122  10.446
17891W        W81450  14.687  18.159   4.663
17892W        W81451  41.533  34.016  10.582
17893W        W81452  33.428  15.085  12.444
17894W        W81453  14.826  14.245   3.198
17895W        W81454  20.060  39.999  13.446
17896W        W81455  11.358  35.857   1.888
17897W        W81456  14.302  14.686   4.321
17898W        W81457  25.208  29.447   3.249
17899W        W81458   5.866  25.596   3.385
17900W        W81459   5.705   9.681   3.867
17901W        W81460  19.134  38.366   0.453
17902W        W81461  21.666  18.054   2.872
17903W        W81462  42.867  32.480   3.725
17904W        W81463   1.457  22.033   2.775
17905W        W81464  40.950  41.348  12.931
17906W        W81465  33.512  42.804   2.844
17907W        W81466  28.943  31.601  11.037
17908W        W81467   9.235  32.951  11.399
17909W        W81468  36.007  35.570   2.279
17910W        W81469   9.232  13.670   3.189
17911W        W81470  33.385  40.914   2.769
17912W        W81471  35.982   4.351   1.231
17913W        W81472   5.408  13.635  14.966
17914W        W81473  38.897  41.889   4.135
17915W        W81474  34.917  44.979  11.129
17916W        W81475   6.892  29.980  13.970
17917W        W81476  20.210   2.958  12.391
17918W        W81477  19.281  39.331   2.182
17919W        W81478  13.831   0.913  14.995
17920W        W81479  19.179  36.040   2.264
17921W        W81480  16.164  16.681  10.446
17922W        W81481  42.828   6.730  14.509
17923W        W81482  17.561  11.635   4.613
17924W        W81483   5.270  22.070   4.766
17925W        W81484  24.495  23.041  12.064
17926W        W81485  43.014  17.785  13.537
17927W        W81486   8.870  22.536  14.908
17928W        W81487  22.203  43.471   0.842
17929W        W81488  36.351   9.808   0.736
17930W        W81489  13.225  26.143   2.182
17931W        W81490  36.375  22.549   3.314
17932W        W81491  43.351   2.908  14.013
17933W        W81492  17.302  15.286   4.257
17934W        W81493  41.484  27.461  14.367
17935W        W81494  37.034  13.256   3.188
17936W        W81495  25.014  17.776   0.779
17937W        W81496  24.024  30.646  10.535
17938W        W81497  23.987  30.423  11.446
17939W        W81498  16.251   4.806   3.714
17940W        W81499  23.500  27.606  11.012
17941W        W81500   4.744  33.039  10.618
17942W        W81501  11.679  15.233  14.826
17943W        W81502  13.201  34.996   1.289
17944W        W81503  12.805   0.486   4.693
17945W        W81504  35.503  37.035   3.683
17946W        W81505  40.874  43.941  12.047
17947W        W81506  14.627  31.082   4.678
17948W        W81507   9.885  26.506   4.729
17949W        W81508  17.749  36.572   2.835
17950W        W81509   9.199  41.793   0.356
17951W        W81510  42.517  43.878   4.712
17952W        W81511  22.220  43.384   0.383
17953W        W81512  14.727  32.495   4.123
17954W        W81513  44.310  30.469   3.774
17955W        W81514  32.044  15.818  13.958
17956W        W81515  22.709  16.213  13.805
17957W        W81516   2.896  32.051  12.474
17958W        W81517   0.275  42.868   2.273
17959W        W81518  11.699  20.164   4.723
17960W        W81519  16.582   8.707   3.838
17961W        W81520  24.682  19.221   1.786
17962W        W81521   2.230  11.159   1.885
17963W        W81522  32.030  23.007   0.925
17964W        W81523  35.997  16.269  14.497
17965W        W81524   3.806  40.016   9.954
17966W        W81525  17.204  41.459  12.835
17967W        W81526   1.378   3.920   3.268
17968W        W81527  18.672   7.361   0.904
17969W        W81528  38.381  13.201   3.210
17970W        W81529  24.071  43.945   4.601
17971W        W81530  21.127  10.311   4.332
17972W        W81531  32.043  16.586  14.337
17973W        W81532  25.596  34.066  14.834
17974W        W81533  37.490  16.697   4.597
17975W        W81534  17.584   9.758   2.259
17976W        W81535  34.955  41.469   4.232
17977W        W81536   8.213  31.464   0.358
17978W        W81537  27.590  20.231  11.924
17979W        W81538   2.820  14.225   2.304
17980W        W81539  34.390  31.955   1.785
17981W        W81540   2.469  21.546   2.179
17982W        W81541   3.317   2.735   4.116
17983W        W81542   1.452  35.872   3.751
17984W        W81543  24.108   4.351   0.773
17985W        W81544  27.960  32.098   2.411
17986W        W81545  19.586  30.582  13.856
17987W        W81546  24.211  22.039   1.695
17988W        W81547  10.751  22.670   3.181
17989W        W81548   0.458  25.115   0.857
17990W        W81549   9.292  30.657   2.386
17991W        W81550   0.368  20.225   2.292
17992W        W81551  40.441  30.033  14.016
17993W        W81552  20.196  20.757  13.916
17994W        W81553  41.498  22.560  11.562
17995W        W81554  31.066  39.402   3.188
17996W        W81555  31.123   4.717  12.531
17997W        W81556  39.362  40.345   3.288
17998W        W81557   7.853  42.482   3.157
17999W        W81558  14.632  34.903   3.266
18000W        W81559  40.493  16.615   1.439
18001W        W81560  30.160  41.865  11.121
18002W        W81561  26.207   5.240   3.722
18003W        W81562  25.586  10.140   2.766
18004W        W81563  12.667   5.736   2.692
18005W        W81564  11.684  15.677  13.542
18006W        W81565   0.841  23.560   4.718
18007W        W81566  38.959  36.864   0.742
18008W        W81567  26.063  36.348  11.591
18009W        W81568  30.047  42.945  13.918
18010W        W81569  39.507  19.223  12.369
18011W        W81570  26.989  20.087  14.387
18012W        W81571  11.768  17.180  12.466
18013W        W81572  17.738   4.330  14.772
18014W        W81573  10.698   8.675  12.942
18015W        W81574  38.530  41.493   0.464
18016W        W81575  16.300   7.232  14.896
18017W        W81576  22.011  44.339  11.500
18018W        W81577  37.398  25.004   4.780
18019W        W81578  35.560  28.596  12.451
18020W        W81579  24.194  43.838   3.631
18021W        W81580  11.845  18.622   2.191
18022W        W81581  12.846  17.723   0.421
18023W        W81582   4.442  31.949   4.200
18024W        W81583  37.898  17.213   0.868
18025W        W81584  41.948   2.403  11.923
18026W        W81585   8.252  42.331   1.310
18027W        W81586   5.832  38.874  11.123
18028W        W81587  30.036  19.617  13.848
18029W        W81588   9.349   6.726   0.946
18030W        W81589  23.125  11.267   3.350
18031W        W81590  14.742   8.675   4.209
18032W        W81591  27.965  32.611  13.517
18033W        W81592   0.939  32.408   2.835
18034W        W81593   2.953  29.937   3.279
18035W        W81594  32.590  22.195  14.297
18036W        W81595  27.059  30.036  11.068
18037W        W81596  36.911   6.756  12.350
18038W        W81597  16.647  38.515   4.317
18039W        W81598  32.888  43.891   3.684
18040W        W81599  25.535  40.379  10.078
18041W        W81600  10.851  21.050  13.309
18042W        W81601   7.241  23.640  14.357
18043W        W81602  41.521  13.131  14.971
18044W        W81603  27.958  12.287   4.209
18045W        W81604  35.409   8.848  11.117
18046W        W81605  31.634  37.935   2.719
18047W        W81606  21.132  16.276   0.258
18048W        W81607  17.193  17.746  11.560
18049W        W81608  20.071   8.274  12.540
18050W        W81609  25.602  36.871  10.634
18051W        W81610   2.339  25.964  14.939
18052W        W81611  32.070   8.695  11.522
18053W        W81612  17.104  35.048   1.924
18054W        W81613  23.523  10.356  12.401
18055W        W81614  35.481  20.732  12.922
18056W        W81615  18.632  24.603  12.561
18057W        W81616  23.623  34.939  10.428
18058W        W81617  26.978  38.359   3.336
18059W        W81618  12.118  14.274   2.193
18060W        W81619  21.126  22.526  13.529
18061W        W81620  36.377   7.780   3.761
18062W        W81621  10.873  26.668   4.698
18063W        W81622  14.764  10.817   4.703
18064W        W81623  26.527  24.991   4.798
18065W        W81624  37.343   0.821   3.677
18066W        W81625  37.921   1.837   3.692
18067W        W81626  38.362  44.979  14.847
18068W        W81627  14.615  44.382  14.923
18069W        W81628  12.303   3.911   3.771
18070W        W81629  19.198  37.870   2.385
18071W        W81630  20.106  10.383  10.976
18072W        W81631  13.184  10.842   2.774
18073W        W81632  13.834  29.664  11.003
18074W        W81633  21.230  42.396   2.703
18075W        W81634  13.177  12.853  10.091
18076W        W81635   8.859   5.850  11.490
18077W        W81636  41.895  24.483  12.936
18078W        W81637  19.545  11.218   2.680
18079W        W81638  27.554   6.807   1.245
18080W        W81639  30.601  25.616   2.400
18081W        W81640  35.572   0.858  12.899
18082W        W81641  28.489  33.104   2.703
18083W        W81642  43.981  26.144  14.771
18084W        W81643  28.466  19.264  13.986
18085W        W81644  37.382  12.132  13.047
18086W        W81645  13.794   5.252  14.975
18087W        W81646   8.769   9.844  10.419
18088W        W81647   6.188  28.128   1.906
18089W        W81648  43.989  12.716   4.211
18090W        W81649  11.675  16.307   0.816
18091W        W81650  35.471  23.560  11.989
18092W        W81651  34.415  40.339  12.521
18093W        W81652  44.890  25.063  13.805
18094W        W81653  28.169  10.847  14.468
18095W        W81654  28.019  21.213   3.786
18096W        W81655   3.910  10.663  14.762
18097W        W81656  39.001   1.815  11.962
18098W        W81657   9.780  19.636   1.244
18099W        W81658  18.152  35.551   4.699
18100W        W81659  10.328  44.823  12.544
18101W        W81660  10.789   5.884   1.430
18102W        W81661   1.899  37.570   0.378
18103W        W81662   5.212  25.079   5.178
18104W        W81663  21.027  20.745  12.064
18105W        W81664   0.834  10.365   3.357
18106W        W81665  18.594  18.152  11.383
18107W        W81666  31.064   5.767  10.929
18108W        W81667  39.009  16.204   4.790
18109W        W81668  42.828  43.992   4.226
18110W        W81669  35.515  24.513  11.609
18111W        W81670   1.386  39.474  14.775
18112W        W81671   4.737  37.961   1.302
18113W        W81672  24.975   0.267  12.404
18114W        W81673  20.087  25.105  10.548
18115W        W81674  34.091  15.329  11.997
18116W        W81675   0.462   2.855   0.817
18117W        W81676   8.761  11.170  12.339
18118W        W81677   9.360   0.340  10.476
18119W        W81678   3.950  39.011  14.958
18120W        W81679  30.478  33.490  10.425
18121W        W81680   1.466  22.061   4.324
18122W        W81681  35.365  34.940  13.547
18123W        W81682  11.331  24.641   9.658
18124W        W81683  34.926  35.050   1.373
18125W        W81684   2.317  16.620   4.253
18126W        W81685  15.194  22.598   2.666
18127W        W81686  27.127  31.433  14.793
18128W        W81687  24.184  33.563  14.894
18129W        W81688   8.391  30.551  13.318
18130W        W81689   1.752   1.370   0.405
18131W        W81690  21.578  26.655  12.968
18132W        W81691  13.192   5.238  11.038
18133W        W81692   0.888  39.840  11.969
18134W        W81693  38.055   6.732   4.156
18135W        W81694   0.291  23.574  12.929
18136W        W81695   4.446  44.267  14.916
18137W        W81696  17.254  33.977   3.222
18138W        W81697   6.316  38.526  12.469
18139W        W81698  36.880  17.085  10.992
18140W        W81699  12.816  37.393  12.846
18141W        W81700  31.963  40.342  12.512
18142W        W81701  21.033  35.379   2.202
18143W        W81702  25.192  43.451   4.678
18144W        W81703  32.419  12.264   3.690
18145W        W81704  27.152  20.052   0.887
18146W        W81705  34.495  17.080   0.900
18147W        W81706  38.898   1.419  12.361
18148W        W81707   1.735  30.908  14.866
18149W        W81708  11.804  26.004  10.549
18150W        W81709  40.349  28.930   3.690
18151W        W81710  37.914   0.742   1.755
18152W        W81711   6.873  38.019  14.836
18153W        W81712  22.063  23.222   0.734
18154W        W81713   6.402  18.089   3.745
18155W        W81714   0.487  28.166  12.411
18156W        W81715  23.186   8.825  11.973
18157W        W81716  18.255   0.248  10.429
18158W        W81717  19.672  31.956   1.913
18159W        W81718  20.152  44.274  10.934
18160W        W81719  21.749  37.908   1.882
18161W        W81720  23.129  33.583  12.923
18162W        W81721  14.704   2.340  11.486
18163W        W81722  34.043  28.986  14.841
18164W        W81723  44.440  27.017   4.352
18165W        W81724  41.872  37.363   1.226
18166W        W81725   1.827   5.407   4.134
18167W        W81726  41.341  38.851   4.264
18168W        W81727   4.449  28.673   1.844
18169W        W81728   9.696  32.013  11.125
18170W        W81729   4.912  27.975  12.880
18171W        W81730  18.226  24.668  13.497
18172W        W81731  21.129  22.050   0.935
18173W        W81732  18.555  31.542   0.447
18174W        W81733  14.152  42.928  14.489
18175W        W81734  17.249  34.517   2.886
18176W        W81735   3.258  25.480   0.425
18177W        W81736  40.507   3.374   0.413
18178W        W81737  21.554   6.677   1.913
18179W        W81738  21.027  21.214  12.356
18180W        W81739  37.388  36.461  11.399
18181W        W81740  33.456  12.761  10.019
18182W        W81741  14.740  35.573  11.400
18183W        W81742  30.615  31.414  12.475
18184W        W81743   6.257   3.770   1.847
18185W        W81744  29.046  17.255   1.370
18186W        W81745   3.277   1.897   2.245
18187W        W81746  14.598  32.925  14.944
18188W        W81747   6.702  35.906   4.779
18189W        W81748  33.119  42.424   3.350
18190W        W81749  42.447  18.094  14.410
18191W        W81750  43.898  36.079   0.827
18192W        W81751  35.442   8.726   3.210
18193W        W81752  23.025  35.058  10.439
18194W        W81753  13.331  31.611   4.834
18195W        W81754  44.893   8.289  11.593
18196W        W81755  36.067  44.775   1.327
18197W        W81756  13.111  43.842  12.511
18198W        W81757   7.889  44.327  10.912
18199W        W81758   8.216   3.317   0.453
18200W        W81759   6.878  18.641   1.402
18201W        W81760  11.244  11.818  10.507
18202W        W81761  37.837  26.068  13.966
18203W        W81762  34.611  35.384   4.340
18204W        W81763  30.122   5.723   1.417
18205W        W81764  21.099  40.886  13.954
18206W        W81765  12.757  30.646  12.073
18207W        W81766   7.895  20.239   2.321
18208W        W81767  40.386   9.768  10.457
18209W        W81768  10.244  33.538   2.380
18210W        W81769  30.101  44.904  10.939
18211W        W81770  33.475  36.466   5.309
18212W        W81771  12.741  37.359  13.512
18213W        W81772  27.539  34.532  13.983
18214W        W81773   1.922  44.981   0.819
18215W        W81774  34.551  41.519   0.857
18216W        W81775   1.895   3.758   4.197
18217W        W81776  28.954  18.583   0.841
18218W        W81777  29.948  37.913   1.857
18219W        W81778   5.790  30.449   3.364
18220W        W81779  13.734  40.500   2.396
18221W        W81780  22.661  44.842  10.973
18222W        W81781  14.626  38.900   3.755
18223W        W81782  27.493  30.139  10.893
18224W        W81783   8.170  24.142   4.185
18225W        W81784  26.052  29.098   3.650
18226W        W81785   2.350  43.823   0.813
18227W        W81786  15.097  12.361  14.304
18228W        W81787   5.400   7.695   1.784
18229W        W81788  37.037  43.858  12.411
18230W        W81789  16.212  32.395   0.880
18231W        W81790  24.606  26.479  10.473
18232W        W81791  21.663   3.763   3.268
18233W        W81792  32.404  24.094  13.996
18234W        W81793   2.371  15.720  10.950
18235W        W81794  16.807   5.821   3.822
18236W        W81795  28.525   2.751  13.340
18237W        W81796  28.451  16.645  12.944
18238W        W81797  25.642   8.219   2.360
18239W        W81798  25.478  38.528  14.978
18240W        W81799  23.224  30.443   4.166
18241W        W81800  20.752  27.002  10.542
18242W        W81801  26.202  44.916  12.861
18243W        W81802  16.672   5.396   2.219
18244W        W81803   9.170   7.364   4.114
18245W        W81804  39.836  24.201  12.980
18246W        W81805  31.447  24.162   1.718
18247W        W81806  15.601   1.967  10.971
18248W        W81807  40.986  17.635  13.452
18249W        W81808  42.518   4.800  12.894
18250W        W81809  12.307  43.013   3.694
18251W        W81810  39.486   5.921  11.505
18252W        W81811   7.879  44.271  14.276
18253W        W81812  10.877  41.037   4.829
18254W        W81813  37.887  33.033   4.830
18255W        W81814  16.701  16.221   3.147
18256W        W81815  14.766  29.016  13.371
18257W        W81816   0.968   2.834   1.787
18258W        W81817  10.810  25.067   3.331
18259W        W81818  10.806  31.154   1.371
18260W        W81819  23.519   8.872  14.433
18261W        W81820  31.611  41.927   2.703
18262W        W81821   3.340  44.934   2.322
18263W        W81822  21.080  34.549   3.675
18264W        W81823  17.596  11.324  14.906
18265W        W81824   6.822   8.210  10.626
18266W        W81825  42.379  35.504   0.764
18267W        W81826  21.572  34.109  14.895
18268W        W81827  24.714  30.025  10.624
18269W        W81828  20.048  28.661   0.279
18270W        W81829  29.659   5.297  11.434
18271W        W81830  37.865  36.909  13.508
18272W        W81831  37.471   2.304  14.313
18273W        W81832  41.980  17.727  11.440
18274W        W81833  27.574  27.487   4.281
18275W        W81834   8.292  26.095   0.335
18276W        W81835  44.827   3.918  10.990
18277W        W81836  21.024  30.014   0.888
18278W        W81837  41.960  15.197  13.014
18279W        W81838  20.529  44.888  12.383
18280W        W81839  19.101   5.891   3.794
18281W        W81840  17.146  40.386   5.228
18282W        W81841  30.448  42.435   0.760
18283W        W81842   3.753  20.766   1.415
18284W        W81843  17.285   1.250   0.926
18285W        W81844  20.230  35.938   2.853
18286W        W81845   6.366  15.259   2.717
18287W        W81846  15.126  35.934   4.653
18288W        W81847  43.436  18.605   2.802
18289W        W81848  32.412   7.312   3.701
18290W        W81849  40.399   8.391  11.102
18291W        W81850   5.751  22.670   2.401
18292W        W81851  21.073  16.613   0.787
18293W        W81852  40.523  38.342   0.961
18294W        W81853   2.816  15.284   3.201
18295W        W81854  34.372   7.250  14.323
18296W        W81855   1.240  43.298  12.085
18297W        W81856  43.270  41.464   3.783
18298W        W81857  33.467  13.730  14.775
18299W        W81858  17.783   0.805  14.787
18300W        W81859   8.878  31.143  10.560
18301W        W81860  40.965   8.378   4.167
18302W        W81861  35.522  11.856   5.650
18303W        W81862  42.938   0.939  13.969
18304W        W81863  36.552  44.431   1.734
18305W        W81864  43.313  26.191  11.469
18306W        W81865   9.225   8.899   2.693
18307W        W81866  34.988  18.662  12.897
18308W        W81867   2.810  28.513  13.878
18309W        W81868  42.986  43.010  14.455
18310W        W81869  12.849  35.424  11.897
18311W        W81870  24.116   7.828   0.316
18312W        W81871  13.758  23.539  11.390
18313W        W81872  35.589  25.042  10.936
18314W        W81873  17.593  42.789  10.889
18315W        W81874  30.081  34.035  14.021
18316W        W81875  43.496   0.904   3.380
18317W        W81876  19.054  26.496   4.708
18318W        W81877  25.094  27.130  13.948
18319W        W81878  10.344  11.184  12.349
18320W        W81879  25.140   4.289   0.281
18321W        W81880  12.792  36.953  11.073
18322W        W81881   5.358  36.004  10.548
18323W        W81882  35.375   9.655  14.442
18324W        W81883  16.734   5.427   0.775
18325W        W81884  18.128  15.720  14.817
18326W        W81885  42.866   1.461   1.325
18327W        W81886  25.209  43.810  12.000
18328W        W81887   6.843  40.039   0.377
18329W        W81888  12.622   8.777  12.439
18330W        W81889  38.963   3.770  13.905
18331W        W81890  31.136  29.108   1.317
18332W        W81891  10.680   3.376   5.210
18333W        W81892   4.242  14.255  12.380
18334W        W81893  36.012  30.561  12.957
18335W        W81894  40.504  16.738   0.424
18336W        W81895   9.670  44.949  12.960
18337W        W81896  26.158  34.576  13.014
18338W        W81897  30.089  43.937  13.391
18339W        W81898  31.997  16.225   1.831
18340W        W81899  16.641   4.758   4.635
18341W        W81900   1.403   7.248  12.997
18342W        W81901  32.063  19.218  12.085
18343W        W81902   2.291  17.303  12.396
18344W        W81903   3.217  18.078  12.868
18345W        W81904  40.526  15.225  10.968
18346W        W81905  24.156   1.801  13.965
18347W        W81906  11.151   0.893  12.451
18348W        W81907   1.873  24.135   2.372
18349W        W81908   2.289  19.224   4.628
18350W        W81909  42.456  23.716   4.740
18351W        W81910  19.705  12.798  11.987
18352W        W81911  15.184   9.224  12.555
18353W        W81912   1.869  12.797  13.432
18354W        W81913   7.407  22.598  11.500
18355W        W81914  37.872  22.732   3.201
18356W        W81915  41.990  25.183  14.017
18357W        W81916   6.320  25.588   2.246
18358W        W81917   0.934  38.939  10.625
18359W        W81918  42.326  24.199   3.764
18360W        W81919  29.931  31.026   3.715
18361W        W81920   4.224  37.977  11.026
18362W        W81921  20.102   4.419   2.259
18363W        W81922  17.762  32.605   4.667
18364W        W81923  44.505   7.824   2.816
18365W        W81924   6.189  20.267   1.438
18366W        W81925  24.512  26.019   2.287
18367W        W81926  16.620   7.879   1.901
18368W        W81927  11.167   9.735  10.476
18369W        W81928   4.364  18.718   3.753
18370W        W81929  27.950   2.455  11.563
18371W        W81930  12.158  14.095   9.636
18372W        W81931  39.471  34.107   4.115
18373W        W81932  34.108   0.355   0.844
18374W        W81933   6.703  28.054  11.929
18375W        W81934   7.757  15.688   3.292
18376W        W81935  37.861  40.438  12.403
18377W        W81936  10.674   1.773   2.288
18378W        W81937  26.017  26.107   3.748
18379W        W81938   5.928   3.782   0.880
18380W        W81939  30.418  33.897   1.862
18381W        W81940  44.885  12.344  12.580
18382W        W81941  12.161  24.693   5.149
18383W        W81942  27.022  14.300  12.077
18384W        W81943  35.932  21.175  13.014
18385W        W81944  24.041   7.907   5.199
18386W        W81945  33.887   8.285  14.510
18387W        W81946   2.816  12.745  10.404
18388W        W81947   7.243  38.387  13.816
18389W        W81948  20.759   4.261  11.998
18390W        W81949  37.976  23.491   0.272
18391W        W81950  33.930  10.867  14.420
18392W        W81951  30.075  29.946  12.020
18393W        W81952   4.906  11.852   1.417
18394W        W81953  28.668  41.483   1.289
18395W        W81954  43.906  18.106  12.573
18396W        W81955  10.702  41.832   3.245
18397W        W81956  43.486  16.119  14.317
18398W        W81957  12.725  42.031   4.795
18399W        W81958  13.827  35.565  10.131
18400W        W81959  18.213  17.098   2.318
18401W        W81960  17.609  15.102   0.347
18402W        W81961   1.311   3.826   0.737
18403W        W81962  44.277  10.837  12.852
18404W        W81963  17.703   9.790   3.223
18405W        W81964  41.314  37.338  14.293
18406W        W81965  38.477   9.880  13.911
18407W        W81966  44.832  41.861   3.310
18408W        W81967  19.593  26.693   4.328
18409W        W81968   1.921   9.348  10.625
18410W        W81969  36.065  12.201   5.721
18411W        W81970  22.151  26.014  14.926
18412W        W81971  29.568  15.675   4.700
18413W        W81972  38.908  21.611  10.902
18414W        W81973   8.195  41.475   2.408
18415W        W81974  36.885  27.989  12.562
18416W        W81975   2.899   3.841  12.093
18417W        W81976  38.477  18.165   0.797
18418W        W81977   2.886  29.546  13.055
18419W        W81978  25.218  29.568  13.963
18420W        W81979  44.503  15.322  13.448
18421W        W81980   0.866  27.075  12.001
18422W        W81981  11.154  41.807   2.196
18423W        W81982  32.634  23.026   4.698
18424W        W81983  36.949  11.364  13.401
18425W        W81984  42.397  18.687  12.965
18426W        W81985   2.326  36.558  10.640
18427W        W81986  16.731  22.119   1.696
18428W        W81987   4.255  27.506  11.104
18429W        W81988  42.842  32.067   1.923
18430W        W81989   4.248  19.195  11.906
18431W        W81990  32.467  14.694   4.151
18432W        W81991   4.860   3.294  10.439
18433W        W81992  35.074  29.516  10.457
18434W        W81993  32.084  44.800  13.024
18435W        W81994  23.063  34.019   1.902
18436W        W81995  40.518  35.109  11.595
18437W        W81996  44.272  29.970   1.708
18438W        W81997  19.634  43.908   1.240
18439W        W81998  14.162  17.793   3.693
18440W        W81999  15.786   0.813  13.058
18441W        W82000   9.708  10.214   3.718
18442W        W82001  35.452  35.577   0.245
18443W        W82002  20.639  31.451   0.301
18444W        W82003  24.007  19.121   3.345
18445W        W82004   6.679   5.718  14.380
18446W        W82005  25.646  29.943   3.736
18447W        W82006   5.730  12.703   0.937
18448W        W82007  13.170   8.794  13.850
18449W        W82008  41.811  31.537   4.166
18450W        W82009  15.714  42.342  12.895
18451W        W82010  30.617   6.201   0.460
18452W        W82011  25.567  20.253   1.221
18453W        W82012  39.033  27.593   3.659
18454W        W82013  16.676  20.567   2.353
18455W        W82014  19.679  27.132   4.126
18456W        W82015  20.595  11.285  11.574
18457W        W82016  19.597  30.117  12.460
18458W        W82017  31.536  12.709   0.954
18459W        W82018  25.545  15.753  12.034
18460W        W82019   8.234  41.928  13.983
18461W        W82020  20.034  20.135  10.579
18462W        W82021  25.630   9.378   0.249
18463W        W82022  20.120  27.130   3.154
18464W        W82023  43.323  18.212  11.993
18465W        W82024  10.157  30.478   4.198
18466W        W82025   5.699  11.662  12.036
18467W        W82026  20.217   7.378   3.152
18468W        W82027  22.652  16.231  14.825
18469W        W82028  22.538   4.724  13.939
18470W        W82029  28.657  13.154  14.413
18471W        W82030  14.783  10.878  13.882
18472W        W82031   2.844  37.577  13.930
18473W        W82032  33.498  11.713   3.736
18474W        W82033  44.980   9.299   4.710
18475W        W82034  40.352  23.704  11.022
18476W        W82035   6.330  33.452   1.739
18477W        W82036  24.063  26.063  11.439
18478W        W82037  40.944  23.177  10.414
18479W        W82038   9.823  18.745  13.800
18480W        W82039  31.901  14.781   3.160
18481W        W82040  16.206  35.106  13.044
18482W        W82041  24.586  42.500  12.553
18483W        W82042  14.325  41.950   1.427
18484W        W82043  25.991  10.296  12.554
18485W        W82044  44.826  29.588  11.597
18486W        W82045  26.985   2.253  14.968
18487W        W82046   3.943  11.144   3.252
18488W        W82047  34.115  37.044   4.335
18489W        W82048  25.519  36.047   2.716
18490W        W82049  30.568  34.985   4.275
18491W        W82050  34.474  32.979  12.344
18492W        W82051   1.779  32.593  13.388
18493W        W82052  41.013  21.052  14.023
18494W        W82053  10.725  44.350   3.673
18495W        W82054  29.028  21.558   4.722
18496W        W82055   2.877  18.662   3.826
18497W        W82056  42.893  12.244  10.435
18498W        W82057  10.337  12.124   9.609
18499W        W82058  26.467  37.494   5.094
18500W        W82059  13.326  29.117   0.427
18501W        W82060  12.138  21.705   0.295
18502W        W82061  16.076  25.984  11.025
18503W        W82062  33.496  44.360  10.898
18504W        W82063  10.298  40.547  10.550
18505W        W82064  21.599  35.528   4.298
18506W        W82065  44.261  20.590   0.415
18507W        W82066  37.467  13.105   1.254
18508W        W82067   1.833  13.811   2.307
18509W        W82068  18.103   5.813   4.343
18510W        W82069   3.341  25.496  14.794
18511W        W82070  20.058  30.589  11.513
18512W        W82071  27.552  27.680   2.784
18513W        W82072  21.569  18.135  11.108
18514W        W82073  31.495   2.331   0.416
18515W        W82074  11.315  14.658  11.500
18516W        W82075   2.857  40.421  14.758
18517W        W82076  21.661  34.418   3.293
18518W        W82077  44.944  15.260   0.305
18519W        W82078  38.516  34.509   5.576
18520W        W82079  42.350  24.599  10.970
18521W        W82080  18.259  37.052  11.427
18522W        W82081  11.783   7.729  12.497
18523W        W82082  30.424  13.830   1.784
18524W        W82083  10.821  25.006  11.028
18525W        W82084  41.035   7.240  12.472
18526W        W82085   2.309  44.465   2.253
18527W        W82086  18.726   4.257   1.884
18528W        W82087  42.991   6.782   1.378
18529W        W82088  39.019  32.906  13.520
18530W        W82089  39.427  39.821  14.972
18531W        W82090  38.986  37.548  13.542
18532W        W82091   1.944  30.486  11.951
18533W        W82092  42.379   5.304  11.984
18534W        W82093  22.139  22.137  13.861
18535W        W82094  19.553  18.100  14.325
18536W        W82095   4.325  17.614   4.700
18537W        W82096  22.544  12.167   3.313
18538W        W82097  13.736   1.878  11.912
18539W        W82098  18.685  27.523  14.456
18540W        W82099  26.596  36.542  10.578
18541W        W82100  39.840  26.189  14.301
18542W        W82101  37.522  16.771   0.862
18543W        W82102  16.803  40.817  11.968
18544W        W82103  41.355   0.799   4.123
18545W        W82104  31.078   3.218   4.765
18546W        W82105  19.047   4.886   2.733
18547W        W82106  20.696  17.685  13.340
18548W        W82107   8.664  10.368  12.862
18549W        W82108  36.942  17.195  11.937
18550W        W82109   5.736  14.130   1.828
18551W        W82110  15.577   7.756  13.911
18552W        W82111  13.279  20.273  13.947
18553W        W82112   6.421  33.057   3.216
18554W        W82113  39.946  20.138   4.685
18555W        W82114  33.032  10.734  10.454
18556W        W82115   7.240  37.549  13.911
18557W        W82116  17.679  23.094  14.991
18558W        W82117  28.019   0.475   3.168
18559W        W82118  43.511  41.884  13.846
18560W        W82119   9.377  31.072  12.482
18561W        W82120   0.986  36.383  14.294
18562W        W82121  12.828   9.184   0.448
18563W        W82122   2.919  17.163  12.482
18564W        W82123   6.357   4.798   2.840
18565W        W82124  20.652  27.654   5.205
18566W        W82125  41.985  34.992  11.595
18567W        W82126  22.241  16.120   2.221
18568W        W82127   3.455  29.024   4.717
18569W        W82128  29.017  39.064   5.129
18570W        W82129   2.440  20.238  12.047
18571W        W82130  21.114   7.239  13.515
18572W        W82131  23.509  41.445   3.703
18573W        W82132  30.923  28.509   1.796
18574W        W82133  29.649  17.147  11.075
18575W        W82134   5.346  12.848   0.754
18576W        W82135  17.153  33.078  12.494
18577W        W82136  18.088  16.602  10.616
18578W        W82137  30.960  17.706   4.147
18579W        W82138  33.019   8.782   0.389
18580W        W82139   5.851  27.197   1.817
18581W        W82140   5.908   5.200   2.889
18582W        W82141  39.057  29.583  10.625
18583W        W82142  37.004   8.323   0.265
18584W        W82143  15.599  37.855   0.884
18585W        W82144  25.588  41.441   2.370
18586W        W82145  26.666  34.532   0.423
18587W        W82146   2.855  17.798  12.340
18588W        W82147  44.907  33.390   1.244
18589W        W82148  12.283   9.802  10.600
18590W        W82149  26.565   7.216  12.871
18591W        W82150   9.362  33.074  13.410
18592W        W82151  41.382  17.627  11.944
18593W        W82152  34.023  20.740   4.625
18594W        W82153  25.697  19.076   3.250
18595W        W82154  27.574  15.623  13.934
18596W        W82155   1.752  27.086  13.386
18597W        W82156  16.677  20.589   3.833
18598W        W82157  19.698  39.916   1.438
18599W        W82158  26.572   7.308   3.169
18600W        W82159  23.215  14.130  11.423
18601W        W82160   4.388   2.910  11.495
18602W        W82161   7.848   4.255   0.304
18603W        W82162  13.690   2.396   4.348
18604W        W82163  30.595   6.680   3.723
18605W        W82164   9.800  35.385   4.688
18606W        W82165  41.962   2.763  10.923
18607W        W82166  32.923  29.577   0.814
18608W        W82167  44.479  24.558   0.308
18609W        W82168   4.794  34.547  12.572
18610W        W82169  33.008  13.324   1.322
18611W        W82170   7.320  24.011  11.376
18612W        W82171   0.257  20.653   3.688
18613W        W82172  25.217   9.274  11.559
18614W        W82173  18.591  21.535   4.689
18615W        W82174  25.139   6.402  10.603
18616W        W82175  12.332  17.754  12.366
18617W        W82176  32.408  36.502  14.847
18618W        W82177   6.688   9.376   0.792
18619W        W82178  31.124  11.335  11.599
18620W        W82179  29.645  37.398   0.751
18621W        W82180  32.465  16.251   1.894
18622W        W82181  40.910  31.583   2.341
18623W        W82182  43.838   5.285   4.229
18624W        W82183  29.558  26.478  14.491
18625W        W82184   0.274  36.037   2.310
18626W        W82185  32.396  43.840  13.337
18627W        W82186  15.289  23.627  14.896
18628W        W82187  19.059  36.488   3.153
18629W        W82188  42.929   1.294  10.968
18630W        W82189  17.087  40.050  12.035
18631W        W82190  34.402  35.461   3.307
18632W        W82191  34.393  24.096   2.324
18633W        W82192   2.383  27.534  10.488
18634W        W82193   1.253  27.134   2.273
18635W        W82194  37.075  17.582   1.408
18636W        W82195  37.449  40.422   5.143
18637W        W82196  12.179  44.923  12.834
18638W        W82197  26.175   1.426  12.516
18639W        W82198  25.174  35.604   0.456
18640W        W82199  33.580  39.903  14.908
18641W        W82200  41.475   2.279  11.949
18642W        W82201   1.387   8.334   1.296
18643W        W82202  12.646   2.381   1.750
18644W        W82203  18.565   0.804  13.332
18645W        W82204  19.280  33.983   4.239
18646W        W82205   3.910  11.830   3.638
18647W        W82206   0.903  22.054  10.139
18648W        W82207  17.134  17.761  14.787
18649W        W82208  11.211  10.242   4.302
18650W        W82209  42.912  21.520   1.822
18651W        W82210  33.539  15.671  12.538
18652W        W82211   7.257  10.675   3.319
18653W        W82212   7.786  33.539   2.400
18654W        W82213  19.605  44.398  13.396
18655W        W82214  24.568  39.454   1.303
18656W        W82215  27.160  22.112  12.471
18657W        W82216  32.069  34.379  10.448
18658W        W82217  33.559   4.737   4.836
18659W        W82218  18.112  25.157  13.822
18660W        W82219  26.532  27.940   2.382
18661W        W82220  27.481  35.025  13.517
18662W        W82221  16.575  31.964   3.254
18663W        W82222   9.296  10.653  14.309
18664W        W82223  30.651  13.680   3.267
18665W        W82224  37.580  20.756   2.770
18666W        W82225  14.833   3.448   2.799
18667W        W82226  31.560  24.140  14.012
18668W        W82227  16.758  22.693  11.981
18669W        W82228  22.141   2.857   2.858
18670W        W82229   4.858  41.347  14.485
18671W        W82230  26.084  31.151   0.896
18672W        W82231  14.141   6.271   1.221
18673W        W82232  41.896  10.231  13.961
18674W        W82233  20.132  35.869   2.376
18675W        W82234   5.377  22.730  10.511
18676W        W82235  44.413  13.337   4.640
18677W        W82236  40.958  20.261  14.275
18678W        W82237  11.304  26.609   2.721
18679W        W82238  30.624  19.185  14.766
18680W        W82239   7.268  22.221   3.826
18681W        W82240  16.157  41.371  13.059
18682W        W82241  19.217  20.698   3.788
18683W        W82242   0.769  13.110  12.867
18684W        W82243  29.938   7.213   4.147
18685W        W82244  17.753  15.822   3.193
18686W        W82245  24.629  21.706   2.359
18687W        W82246   9.647  38.851   2.756
18688W        W82247  11.730  12.615   9.965
18689W        W82248   6.203  13.113   1.379
18690W        W82249  41.035  16.722  13.507
18691W        W82250  37.952  23.659   0.762
18692W        W82251  15.619  26.614   2.229
18693W        W82252  42.840  38.541  14.790
18694W        W82253  35.451  10.765  11.484
18695W        W82254  31.928  22.184  14.015
18696W        W82255  37.572  30.078  13.531
18697W        W82256  30.657  26.001   2.680
18698W        W82257  29.536  15.613   3.214
18699W        W82258  19.133  11.703  11.416
18700W        W82259  41.839  31.498   1.417
18701W        W82260  30.439  42.494  10.523
18702W        W82261  19.085  30.496  13.409
18703W        W82262   5.363  38.498   1.728
18704W        W82263   1.892   1.259   3.856
18705W        W82264  23.706   3.906  11.420
18706W        W82265  17.154  43.986  14.427
18707W        W82266  13.285   9.292  12.926
18708W        W82267  15.614  19.562   3.289
18709W        W82268  25.040  18.624   1.794
18710W        W82269   8.245  44.498   2.862
18711W        W82270  29.475  29.968   1.258
18712W        W82271  35.411   3.434  11.951
18713W        W82272  35.067  44.475   5.267
18714W        W82273  18.251  36.097  14.297
18715W        W82274  34.895  20.051  10.457
18716W        W82275  42.956  19.659  12.855
18717W        W82276  36.423   5.358   3.244
18718W        W82277  10.219  33.409  14.996
18719W        W82278  33.920   8.862  12.566
18720W        W82279   3.409   3.820  13.477
18721W        W82280  33.129  42.936   0.873
18722W        W82281  15.637  21.736  13.321
18723W        W82282  14.716   0.370  14.509
18724W        W82283   1.253  36.481  10.933
18725W        W82284  11.363  28.180  12.577
18726W        W82285   3.434   9.222  13.052
18727W        W82286  40.434   0.785   9.925
18728W        W82287  28.128  20.211  10.941
18729W        W82288  18.151  40.822   2.212
18730W        W82289  18.141  18.675   4.733
18731W        W82290  27.957  32.924  14.939
18732W        W82291   0.850  33.591  14.408
18733W        W82292  43.508  24.717  14.368
18734W        W82293  14.650  20.069   1.444
18735W        W82294   5.864  41.965  12.064
18736W        W82295   0.891  19.155  13.355
18737W        W82296  26.625  24.047   2.723
18738W        W82297  24.722  13.753  10.419
18739W        W82298  30.606  18.732  14.875
18740W        W82299  10.730  12.306   4.185
18741W        W82300  26.531  42.915  11.517
18742W        W82301   1.339  21.221   0.472
18743W        W82302  32.463  25.212   3.751
18744W        W82303   7.679  42.409  13.502
18745W        W82304  13.273  31.453  12.541
18746W        W82305  13.711  44.979  13.458
18747W        W82306  17.224   1.758  11.998
18748W        W82307  21.543  44.962   0.456
18749W        W82308   6.838  40.545  11.468
18750W        W82309  12.852  17.736   1.923
18751W        W82310  20.121   4.315  10.619
18752W        W82311  35.922  40.034   2.864
18753W        W82312  25.093  27.181  12.008
18754W        W82313  41.858  26.203   4.635
18755W        W82314  40.402  26.978  14.997
18756W        W82315  28.458  26.055  11.099
18757W        W82316   9.275  44.762   0.739
18758W        W82317  16.252  15.193  13.310
18759W        W82318  20.666  26.591  14.783
18760W        W82319   5.909   3.341  11.922
18761W        W82320  33.469  34.509   2.373
18762W        W82321  22.999   3.783   3.637
18763W        W82322  42.888  24.594  10.611
18764W        W82323  23.109  10.805  14.406
18765W        W82324  25.531   3.427  14.385
18766W        W82325   0.431  12.734  13.487
18767W        W82326  27.130  28.143  14.445
18768W        W82327  25.676  11.334  14.492
18769W        W82328  39.482  37.359  13.907
18770W        W82329  33.465  43.825  14.808
18771W        W82330  40.824  25.474   0.777
18772W        W82331   2.898   3.721  10.591
18773W        W82332  24.065  44.003   3.227
18774W        W82333  25.521  31.432  11.098
18775W        W82334  33.543   5.740  12.912
18776W        W82335   7.395  26.658   2.837
18777W        W82336  20.107  41.421  13.545
18778W        W82337   5.420  28.147   0.869
18779W        W82338   5.709  15.093   4.654
18780W        W82339   6.377  13.340   1.880
18781W        W82340  20.187  20.219   1.712
18782W        W82341  27.107  14.228  13.357
18783W        W82342  38.927  29.551  12.067
18784W        W82343  11.240  19.104   2.308
18785W        W82344  36.430  29.449  13.360
18786W        W82345  32.525   8.349   1.724
18787W        W82346  33.529   3.832  14.917
18788W        W82347  28.163   4.319  14.896
18789W        W82348   1.925   9.327   4.816
18790W        W82349  20.063  17.140  10.610
18791W        W82350  16.782   9.760   3.243
18792W        W82351  33.491  18.614   2.791
18793W        W82352  16.207  24.486  14.789
18794W        W82353  42.923  22.094  12.046
18795W        W82354  23.538   7.751   0.291
18796W        W82355   8.316  20.145   3.630
18797W        W82356  11.127  12.338   1.413
18798W        W82357  40.004   8.375  14.336
18799W        W82358  24.723   8.231   5.152
18800W        W82359  29.663   5.780   9.975
18801W        W82360  15.597   5.692   0.355
18802W        W82361  34.475   2.895  14.365
18803W        W82362   7.731  31.970   0.757
18804W        W82363  32.398  32.471   2.717
18805W        W82364  12.792  26.526  12.869
18806W        W82365   8.262   7.293   1.728
18807W        W82366  30.656   2.729   3.665
18808W        W82367  29.159  30.596   1.881
18809W        W82368  31.611  11.251  12.526
18810W        W82369  36.352  27.119   2.401
18811W        W82370  25.995  20.598  13.022
18812W        W82371   9.316  15.580  14.979
18813W        W82372  18.606  29.498  14.292
18814W        W82373  32.607   9.265  12.392
18815W        W82374  28.558  32.896  13.991
18816W        W82375   8.237   9.180   0.734
18817W        W82376   0.913  12.213   4.270
18818W        W82377  23.219  39.031  12.373
18819W        W82378  21.556   1.793   2.331
18820W        W82379   6.265  14.785   3.792
18821W        W82380  23.545  37.576  12.088
18822W        W82381   6.217  23.210   2.901
18823W        W82382  34.406   9.671  11.492
18824W        W82383  25.507  16.685  12.947
18825W        W82384  16.195   3.810  11.011
18826W        W82385   6.396   6.776   2.781
18827W        W82386  41.872   6.339   4.263
18828W        W82387  28.119  15.170   2.774
18829W        W82388  11.169   8.840   3.741
18830W        W82389  32.398  20.602  13.381
18831W        W82390   0.325  18.546  13.350
18832W        W82391  36.504   2.834   2.215
18833W        W82392  29.443  13.239   3.755
18834W        W82393  12.272   3.421  11.098
18835W        W82394   2.398  11.323   2.718
18836W        W82395  15.684  44.306   1.801
18837W        W82396  30.643  27.075  14.894
18838W        W82397  12.347   1.803   2.244
18839W        W82398  18.609   0.454  11.393
18840W        W82399  37.343  42.366  10.545
18841W        W82400  39.809  22.039   1.910
18842W        W82401  31.565  32.982  13.954
18843W        W82402   4.422  33.046   1.875
18844W        W82403  17.788  14.294   3.636
18845W        W82404  24.221   8.363  13.023
18846W        W82405   0.901  32.984   0.812
18847W        W82406  21.551  32.530  11.598
18848W        W82407   5.817  30.007  10.983
18849W        W82408  41.976  33.463  13.375
18850W        W82409   7.818  23.573   0.863
18851W        W82410  44.992  15.318  14.906
18852W        W82411  44.470  42.951  12.849
18853W        W82412  28.042  23.087  12.988
18854W        W82413   7.756  36.092   2.342
18855W        W82414  31.062  18.144   3.234
18856W        W82415  26.973  33.530   3.806
18857W        W82416  16.721   0.491  13.402
18858W        W82417  14.721  36.062  12.823
18859W        W82418   9.300   3.450  13.507
18860W        W82419  14.757   9.311   4.183
18861W        W82420  26.167  33.017  11.107
18862W        W82421  11.284   4.378   1.377
18863W        W82422  43.366  37.904  10.557
18864W        W82423  18.661  40.504   9.926
18865W        W82424  17.783  13.191   1.449
18866W        W82425  39.887  24.188   2.690
18867W        W82426  26.106  24.605   3.344
18868W        W82427  33.406   0.376  10.109
18869W        W82428   2.354  40.405   0.380
18870W        W82429  40.424  11.741   3.314
18871W        W82430  32.989  33.464  13.877
18872W        W82431  25.035  40.837   3.661
18873W        W82432   0.477  40.471  12.344
18874W        W82433  32.405   2.318   1.731
18875W        W82434   0.389  43.516   1.772
18876W        W82435  16.136  39.880  14.779
18877W        W82436  39.966  10.270  13.998
18878W        W82437   9.289  12.766   4.175
18879W        W82438  26.962  41.811  12.832
18880W        W82439  44.775  33.123   3.200
18881W        W82440   2.787  40.310   2.363
18882W        W82441  22.623  18.157   3.765
18883W        W82442  39.857  32.463   1.832
18884W        W82443  19.686   4.260  13.932
18885W        W82444  22.096   5.825   4.259
18886W        W82445  16.262  25.144   5.306
18887W        W82446  38.993  30.107  11.082
18888W        W82447   1.850   2.319  10.613
18889W        W82448   7.272   2.426  13.967
18890W        W82449  25.668  19.258   2.226
18891W        W82450  34.596  11.326   9.982
18892W        W82451  17.156  38.820  10.015
18893W        W82452  27.568  43.436  12.827
18894W        W82453  19.221   4.331  14.813
18895W        W82454  43.802  43.380   0.862
18896W        W82455  44.852  43.334  13.528
18897W        W82456   0.877  22.509   1.417
18898W        W82457  12.146  30.086  13.390
18899W        W82458  21.177  29.152   3.730
18900W        W82459  43.773   1.857   2.406
18901W        W82460  10.678  34.560   1.839
18902W        W82461  30.009  27.086  12.440
18903W        W82462   0.986  20.722  11.863
18904W        W82463  28.603   3.716  14.894
18905W        W82464   9.226  42.446   0.367
18906W        W82465  38.404  22.124   2.835
18907W        W82466  31.569  40.999  14.437
18908W        W82467   2.315  12.621   0.247
18909W        W82468  12.128  14.306  13.989
18910W        W82469  24.050   5.289  12.990
18911W        W82470  24.180   6.311   3.682
18912W        W82471  19.693  13.707  12.824
18913W        W82472  25.636  32.887  13.308
18914W        W82473  14.824   7.377   3.720
18915W        W82474  14.286   2.354  12.444
18916W        W82475  13.274  29.937   0.917
18917W        W82476  20.131  25.976   3.163
18918W        W82477  13.290  32.038   9.995
18919W        W82478  13.260  14.119  12.988
18920W        W82479  39.047  13.285  11.516
18921W        W82480   1.801  31.065  11.867
18922W        W82481  13.179  16.727  14.287
18923W        W82482  13.811   6.921   3.246
18924W        W82483  39.900  11.709   0.322
18925W        W82484  19.234  21.745   1.910
18926W        W82485  33.593  18.207   3.261
18927W        W82486  27.034  43.427  14.879
18928W        W82487  40.800   1.941   4.194
18929W        W82488   0.391   3.788   0.354
18930W        W82489  35.483  11.282   0.829
18931W        W82490  42.940  23.105   2.696
18932W        W82491  16.699  25.629   4.670
18933W        W82492  25.991  21.089  10.603
18934W        W82493  41.944  17.226  11.093
18935W        W82494   8.785  18.288   4.737
18936W        W82495  25.613  32.587  13.387
18937W        W82496   9.175  32.490   1.695
18938W        W82497  26.176  38.003  12.826
18939W        W82498   9.738  12.623   5.175
18940W        W82499   2.749  36.346   2.394
18941W        W82500   8.334  30.055  11.386
18942W        W82501  25.550   5.855  12.367
18943W        W82502  22.573  19.547   2.401
18944W        W82503  19.150  19.652  13.001
18945W        W82504  14.758  24.521  11.552
18946W        W82505   0.855  10.827  13.920
18947W        W82506  30.915  32.086  13.547
18948W        W82507  12.174  10.225   1.407
18949W        W82508  33.995  39.493   4.239
18950W        W82509  42.907  23.491  12.379
18951W        W82510  39.489  10.648   4.830
18952W        W82511  42.828  38.952   3.170
18953W        W82512  40.945  40.972   2.706
18954W        W82513  41.868  24.527   3.251
18955W        W82514  21.246  39.037  14.371
18956W        W82515  38.837  26.497   4.197
18957W        W82516  27.612   2.827   0.865
18958W        W82517  10.747  37.970  14.377
18959W        W82518   0.933  17.636  12.013
18960W        W82519  21.628  21.751  10.545
18961W        W82520  43.793   9.815   3.312
18962W        W82521  19.673  34.384  11.417
18963W        W82522  25.618  33.512  12.910
18964W        W82523  28.960  22.582   3.768
18965W        W82524  17.062   0.821  10.590
18966W        W82525   6.850   7.902   0.781
18967W        W82526  20.225  41.478  10.990
18968W        W82527  23.722  39.993   4.203
18969W        W82528  44.465  40.435  10.992
18970W        W82529  29.080  34.615  12.934
18971W        W82530  35.372  42.953  11.103
18972W        W82531  25.710  26.529   0.889
18973W        W82532  32.976  33.597  13.048
18974W        W82533   1.774  13.240  11.095
18975W        W82534  28.127  21.207   2.669
18976W        W82535  33.552  28.951  10.548
18977W        W82536   8.838  17.650  12.883
18978W        W82537  25.489   7.795  12.948
18979W        W82538  10.293   2.811  14.824
18980W        W82539  17.751   3.353   3.763
18981W        W82540  28.676  44.961  12.918
18982W        W82541   9.198   3.364  11.934
18983W        W82542  33.599   6.773  11.375
18984W        W82543  22.537  42.393   2.857
18985W        W82544  20.567  23.675   0.923
18986W        W82545  14.299   6.871   0.763
18987W        W82546   7.813  22.567  10.514
18988W        W82547  29.082  15.822  10.971
18989W        W82548  13.657  37.887   4.691
18990W        W82549  24.155   3.719   4.740
18991W        W82550  12.313  33.553   1.336
18992W        W82551  21.219  20.577   0.783
18993W        W82552   4.892  31.924  12.900
18994W        W82553   1.902   6.263  12.562
18995W        W82554  23.210  36.380  11.928
18996W        W82555  14.151  30.620   4.787
18997W        W82556  19.139  26.993   3.225
18998W        W82557  14.327  23.995   3.296
18999W        W82558  11.244  29.976  12.373
19000W        W82559  44.340  42.405  11.402
19001W        W82560  38.844   9.875  10.435
19002W        W82561   4.811  24.049   3.258
19003W        W82562   1.903  44.432   3.653
19004W        W82563  15.148  24.710   0.838
19005W        W82564   2.838  10.236  14.327
19006W        W82565  12.245  27.091   4.741
19007W        W82566   3.939  20.157  14.777
19008W        W82567  12.620   4.448  11.375
19009W        W82568  10.800  21.527  11.588
19010W        W82569  35.864  19.767   2.713
19011W        W82570   7.391  42.831   0.250
19012W        W82571  44.333  20.705  13.411
19013W        W82572  34.083   7.797  10.424
19014W        W82573  36.865  36.013  14.005
19015W        W82574  11.283  22.607   2.198
19016W        W82575  14.188  24.522   1.432
19017W        W82576  31.928  26.087   4.599
19018W        W82577  10.326  12.684  10.462
19019W        W82578  17.213  24.058   3.709
19020W        W82579  31.527   5.929   3.340
19021W        W82580   1.905  14.288  14.794
19022W        W82581  35.523   4.808   3.728
19023W        W82582   2.277  30.951   0.923
19024W        W82583   0.785  40.833  12.824
19025W        W82584  10.677  21.705  12.884
19026W        W82585  39.353   3.457   3.636
19027W        W82586  23.044  35.495   2.820
19028W        W82587  21.672  18.647   1.739
19029W        W82588   3.446  41.509  12.922
19030W        W82589   8.346   8.756   4.226
19031W        W82590   5.732  25.049  12.074
19032W        W82591  18.751  39.025  11.422
19033W        W82592  39.555  17.671   0.790
19034W        W82593   4.428  39.521   4.706
19035W        W82594   9.816  18.778   2.749
19036W        W82595  43.779   3.910  10.499
19037W        W82596  27.161  37.027   3.736
19038W        W82597  13.758   2.412   1.799
19039W        W82598   7.718  12.215   1.249
19040W        W82599  34.423   2.835   0.367
19041W        W82600  33.380  13.810  14.006
19042W        W82601   4.722   7.808  12.913
19043W        W82602  43.356  42.489  13.351
19044W        W82603  44.353   9.753  14.029
19045W        W82604  21.643  31.924  11.019
19046W        W82605  14.751  21.603  10.427
19047W        W82606  10.752  14.225  13.793
19048W        W82607  26.680  33.893   1.300
19049W        W82608  37.431   5.814   0.813
19050W        W82609   0.410   0.350  12.825
19051W        W82610  43.767  38.041  10.552
19052W        W82611  31.551  34.092  11.460
19053W        W82612  12.731  22.156   2.234
19054W        W82613  20.623   1.352  12.004
19055W        W82614  11.146  34.977   0.918
19056W        W82615   0.278  11.841   2.758
19057W        W82616  44.282  30.914   0.877
19058W        W82617  28.520  30.151  12.884
19059W        W82618  29.120  41.428  10.509
19060W        W82619  11.697  14.333   0.306
19061W        W82620  23.228   7.274   0.344
19062W        W82621   0.464  38.979  12.957
19063W        W82622  37.048  35.467   1.224
19064W        W82623  42.411  35.891  13.027
19065W        W82624   9.775  39.888  12.851
19066W        W82625  37.523  20.710   0.450
19067W        W82626  36.422  13.675  13.906
19068W        W82627  20.557  28.474   3.303
19069W        W82628  10.168   4.859   5.134
19070W        W82629  21.516  33.954   4.190
19071W        W82630  31.469  13.670   4.685
19072W        W82631  30.608  32.091   2.803
19073W        W82632  36.059  32.005   1.752
19074W        W82633  21.573  22.641   0.888
19075W        W82634   3.807  25.588   2.756
19076W        W82635   9.871  17.741   1.318
19077W        W82636  30.023  41.947  13.370
19078W        W82637  16.593  30.931  14.399
19079W        W82638  41.327   1.297  14.868
19080W        W82639  41.322  24.139   3.288
19081W        W82640  25.603   2.269  11.537
19082W        W82641   5.426  20.548   1.738
19083W        W82642  22.232  12.760  12.380
19084W        W82643  34.040  39.864   0.921
19085W        W82644  42.413  34.410   1.321
19086W        W82645   8.766  33.053  11.463
19087W        W82646  19.640   2.808   2.777
19088W        W82647  44.401  23.163  12.378
19089W        W82648  22.132   8.682  10.905
19090W        W82649   6.336  11.847   9.944
19091W        W82650  31.450  38.431  12.063
19092W        W82651  12.220   3.714  10.935
19093W        W82652  29.073  25.131  13.865
19094W        W82653  31.581  35.089  14.859
19095W        W82654  24.174   3.759   2.265
19096W        W82655  18.584  19.206   4.794
19097W        W82656  39.059  37.431  12.031
19098W        W82657  40.892  12.208  13.939
19099W        W82658  29.621   8.786  11.602
19100W        W82659  34.558  44.936   2.793
19101W        W82660   2.272  28.081  13.853
19102W        W82661  41.814  41.356   9.953
19103W        W82662  39.523   3.335  12.363
19104W        W82663  13.759  41.506  13.039
19105W        W82664   0.456  39.017  13.884
19106W        W82665  16.603  38.401  12.510
19107W        W82666  38.006  23.112  10.991
19108W        W82667  21.670   4.738   3.293
19109W        W82668  15.657  38.567  10.493
19110W        W82669  33.525  11.226  12.509
19111W        W82670  19.244  34.506   2.734
19112W        W82671  25.550  12.772  11.402
19113W        W82672  39.386  26.681   3.220
19114W        W82673  32.975  34.969  14.425
19115W        W82674  38.474  14.612  14.886
19116W        W82675  44.410  22.119  11.918
19117W        W82676  33.120  23.668   2.800
19118W        W82677  31.143  30.967  14.338
19119W        W82678  37.523  22.124   3.379
19120W        W82679  24.669  21.204  10.970
19121W        W82680  12.318  30.019  14.511
19122W        W82681  32.933  42.783  12.915
19123W        W82682  31.458  11.231   1.811
19124W        W82683  40.516  19.046   1.233
19125W        W82684  21.040  35.487  12.391
19126W        W82685  31.041  36.589  14.329
19127W        W82686  25.611  36.023  11.377
19128W        W82687  41.941   3.245   1.256
19129W        W82688  40.482   5.759   3.222
19130W        W82689  15.215  33.427   4.746
19131W        W82690  33.107  24.516  11.527
19132W        W82691  16.309  38.927   3.669
19133W        W82692  24.532  38.873  11.387
19134W        W82693  43.914   7.237   2.185
19135W        W82694  32.401  34.532   0.302
19136W        W82695  42.955   2.313  12.914
19137W        W82696   4.875  29.925  12.980
19138W        W82697  37.954  21.155   2.193
19139W        W82698  44.786  29.661   1.378
19140W        W82699  40.426  42.340  13.011
19141W        W82700  42.904  23.159   4.162
19142W        W82701  37.955  37.035  14.859
19143W        W82702  20.179  38.507   1.851
19144W        W82703  17.643  12.787   0.769
19145W        W82704   6.380  42.837   0.779
19146W        W82705  40.522  20.203   3.339
19147W        W82706  25.503  37.404   1.307
19148W        W82707  13.704  20.616  13.829
19149W        W82708  23.501  36.509  11.072
19150W        W82709  10.648  34.104  12.493
19151W        W82710  20.055  14.274  12.512
19152W        W82711  41.850  27.508   1.806
19153W        W82712  13.832  38.827   1.747
19154W        W82713   4.821  27.042   0.790
19155W        W82714  16.091  42.815   1.440
19156W        W82715  43.778  44.805  13.043
19157W        W82716   4.913   6.235  10.538
19158W        W82717  27.448  11.138   9.987
19159W        W82718  26.545   7.728   1.418
19160W        W82719  33.546  13.256   3.282
19161W        W82720   0.385  21.603   1.831
19162W        W82721  41.466  23.652   3.687
19163W        W82722  39.412  38.026  11.065
19164W        W82723  11.722  39.426   3.158
19165W        W82724   3.870  33.016  10.926
19166W        W82725  11.663   0.468  13.915
19167W        W82726  34.964  19.221  11.437
19168W        W82727  18.624  19.251  11.052
19169W        W82728  38.933  42.321   3.199
19170W        W82729  30.549  30.593  12.087
19171W        W82730  35.028  41.538  11.124
19172W        W82731  10.724  28.580   1.797
19173W        W82732  22.030  11.194  11.550
19174W        W82733   3.846  16.195   1.346
19175W        W82734  26.470  27.147  12.043
19176W        W82735  20.739  25.498   2.252
19177W        W82736  27.544   7.700   0.380
19178W        W82737  11.823   8.721   1.860
19179W        W82738   3.322   1.821  10.404
19180W        W82739  43.470  42.359   4.669
19181W        W82740  31.526  36.443  12.415
19182W        W82741  36.977   2.841   2.261
19183W        W82742  31.138  19.267  10.996
19184W        W82743  21.649  38.951  13.430
19185W        W82744  16.100  17.696   2.812
19186W        W82745  25.165   2.877   1.379
19187W        W82746  21.592  25.995  10.442
19188W        W82747  24.031   3.384  14.866
19189W        W82748  14.679  44.488  12.069
19190W        W82749  31.064  42.008  11.602
19191W        W82750  17.069   9.654   0.834
19192W        W82751  28.052  17.264   2.333
19193W        W82752  32.081  24.595  11.871
19194W        W82753  19.235  10.282   0.356
19195W        W82754  43.435   5.424   4.185
19196W        W82755  14.156  17.117   4.141
19197W        W82756  32.499   8.316   2.226
19198W        W82757  14.599   6.903  13.886
19199W        W82758  14.105   9.300   3.703
19200W        W82759  16.220  39.881  12.464
19201W        W82760   9.748  14.259  11.971
19202W        W82761  44.375  36.076   2.223
19203W        W82762  21.252  18.588  12.382
19204W        W82763  39.539  10.157   2.378
19205W        W82764  14.678  42.416   4.647
19206W        W82765  41.353  40.831  10.620
19207W        W82766   7.349   4.880   1.777
19208W        W82767  14.832  10.854   2.202
19209W        W82768  29.547  34.465  12.481
19210W        W82769  22.081   5.210   4.644
19211W        W82770   6.243  40.540   0.928
19212W        W82771  21.035   9.857  13.054
19213W        W82772  26.983  27.607   2.697
19214W        W82773   5.329  11.723  14.412
19215W        W82774   5.879  14.161   0.318
19216W        W82775  38.534  44.919  14.383
19217W        W82776  15.170   2.397  11.971
19218W        W82777  38.931  26.018   2.867
19219W        W82778   2.868  40.327  13.545
19220W        W82779  41.889   6.762   3.318
19221W        W82780  37.928   7.304  11.094
19222W        W82781  12.675  40.425  14.319
19223W        W82782  38.461  37.357  11.391
19224W        W82783  17.636  21.533  14.836
19225W        W82784  41.353  41.487   2.360
19226W        W82785   6.247  31.476  11.568
19227W        W82786  19.283  22.591   3.863
19228W        W82787  30.535  35.484   1.449
19229W        W82788  37.476  18.068  12.526
19230W        W82789  13.770  30.468  13.534
19231W        W82790   3.818  12.359   4.173
19232W        W82791  44.763  29.979  14.012
19233W        W82792  11.182  15.815   4.832
19234W        W82793   9.744  43.867   0.289
19235W        W82794  19.712  18.179   4.160
19236W        W82795  38.879  35.947  12.495
19237W        W82796  20.036   8.880   1.281
19238W        W82797   3.918  19.752   0.937
19239W        W82798  44.789   2.381  11.024
19240W        W82799   0.432  30.451   0.266
19241W        W82800  26.641  44.902   0.370
19242W        W82801  24.583  31.502   2.689
19243W        W82802  40.379  36.409  10.442
19244W        W82803  43.506  44.264  13.997
19245W        W82804  33.449  12.350   2.802
19246W        W82805  29.925  17.173   4.243
19247W        W82806   3.254  37.582  14.440
19248W        W82807  41.517  23.594   0.324
19249W        W82808  40.328  27.194   2.322
19250W        W82809  24.719  39.403   3.158
19251W        W82810   2.821   8.682  12.343
19252W        W82811  44.488   2.388  12.467
19253W        W82812  12.202  28.455   4.725
19254W        W82813  19.046   3.450  13.342
19255W        W82814   6.253  28.438   4.172
19256W        W82815  22.651  23.646   4.310
19257W        W82816  32.504  27.526   0.908
19258W        W82817  18.270  27.096  12.911
19259W        W82818  22.741  42.891  14.954
19260W        W82819  17.131  33.882   2.786
19261W        W82820  31.035  23.178  12.875
19262W        W82821  37.027  32.948   0.922
19263W        W82822  35.586  37.544  13.463
19264W        W82823  32.085  15.302   3.753
19265W        W82824  26.025  17.569   4.597
19266W        W82825  24.058  39.855  10.435
19267W        W82826  38.440  23.566  12.497
19268W        W82827  43.869  34.992  14.776
19269W        W82828   6.187  10.201  14.325
19270W        W82829   7.318   6.229  13.344
19271W        W82830  25.182   3.847  10.620
19272W        W82831   6.858  20.057   0.905
19273W        W82832  40.811  22.148   0.348
19274W        W82833  40.446   0.852  13.918
19275W        W82834  40.493  28.995  13.442
19276W        W82835  20.690  37.927   4.291
19277W        W82836  37.497  42.829  12.881
19278W        W82837  33.032  38.403  11.517
19279W        W82838  13.338  10.769   1.854
19280W        W82839  34.370  26.583   1.306
19281W        W82840  43.787   4.450  12.090
19282W        W82841  27.570  43.892   4.666
19283W        W82842  14.782   4.832   0.417
19284W        W82843  24.614  18.545   0.922
19285W        W82844  18.065  33.587   0.850
19286W        W82845  23.632  18.155   4.697
19287W        W82846   3.440  28.586  13.459
19288W        W82847  21.672   9.214  14.414
19289W        W82848  21.631  26.626   3.218
19290W        W82849  37.449  13.317   0.432
19291W        W82850  20.251   7.819  14.466
19292W        W82851  22.245  34.434   0.484
19293W        W82852  24.154  29.160   0.258
19294W        W82853  26.059  20.572   2.351
19295W        W82854  44.489   3.428   4.267
19296W        W82855   4.242  10.232  14.964
19297W        W82856  26.139   1.953   3.797
19298W        W82857  23.101   8.768   1.763
19299W        W82858   0.316  23.065   3.836
19300W        W82859  16.617   1.329  14.494
19301W        W82860  17.713  27.528   2.399
19302W        W82861  10.709  43.869  13.820
19303W        W82862  34.465  28.107  13.992
19304W        W82863  25.052  15.257  12.849
19305W        W82864  38.482  39.987   1.396
19306W        W82865   8.164  44.450  12.562
19307W        W82866  25.487  39.416  13.363
19308W        W82867  14.100  14.171  11.106
19309W        W82868  18.544   4.414   4.180
19310W        W82869  41.955  41.317  14.320
19311W        W82870  10.183  27.082   0.731
19312W        W82871  40.933  38.876  14.808
19313W        W82872  34.060  32.482   1.372
19314W        W82873   5.809  43.888   4.654
19315W        W82874  32.141   4.255  10.461
19316W        W82875   0.444   2.293   4.714
19317W        W82876  29.949   2.271  13.047
19318W        W82877  10.368  32.040   1.368
19319W        W82878  31.984  43.291  10.552
19320W        W82879   9.660  35.517   2.186
19321W        W82880  24.533  14.260  14.511
19322W        W82881   2.737   7.215  12.496
19323W        W82882  23.501  31.015  12.467
19324W        W82883  37.086  37.921   0.330
19325W        W82884   7.333  30.610   3.686
19326W        W82885  13.229  31.064  10.522
19327W        W82886  25.474  26.165  11.521
19328W        W82887  44.265   5.380   1.379
19329W        W82888  29.529  20.164  14.024
19330W        W82889  20.603  30.478   1.439
19331W        W82890  11.190  20.190  12.487
19332W        W82891  27.074   8.235  11.567
19333W        W82892  15.585  31.471   2.250
19334W        W82893  25.008   0.792   0.407
19335W        W82894  11.634   8.183   0.804
19336W        W82895  28.134  20.207   0.403
19337W        W82896  20.759   2.837  10.599
19338W        W82897  44.418   3.375  12.365
19339W        W82898   8.180  18.790  14.450
19340W        W82899   5.263   2.912   3.247
19341W        W82900   2.253   7.366  12.877
19342W        W82901  11.320  33.082   0.264
19343W        W82902   2.828   2.723  12.914
19344W        W82903  10.767  21.206  13.851
19345W        W82904  25.212  18.096   1.730
19346W        W82905  44.474  34.000   1.295
19347W        W82906   3.297  39.896  13.416
19348W        W82907  44.898  43.983   2.303
19349W        W82908  39.488  28.436   4.262
19350W        W82909  31.454  13.251   2.765
19351W        W82910  17.126   0.901   5.092
19352W        W82911   1.939   7.718  13.049
19353W        W82912  26.138  27.568   2.285
19354W        W82913  28.997   6.201  13.412
19355W        W82914   7.891  27.451  11.586
19356W        W82915  26.973  25.079   5.181
19357W        W82916  15.758  11.175   0.962
19358W        W82917  23.185  40.436  13.545
19359W        W82918  26.483  34.033  11.922
19360W        W82919  22.737  31.504  10.901
19361W        W82920   5.867  43.948   0.480
19362W        W82921   3.912  23.524  13.479
19363W        W82922  12.770   1.925   4.152
19364W        W82923  41.967   6.273   2.193
19365W        W82924  33.619  10.216   3.225
19366W        W82925  16.611  15.120  13.476
19367W        W82926  31.983  30.139   3.203
19368W        W82927   1.888  37.886   1.383
19369W        W82928  30.086  37.482   3.281
19370W        W82929  12.739  10.215  11.442
19371W        W82930   8.850   3.793   2.227
19372W        W82931  38.023  31.627   1.765
19373W        W82932  36.026  13.216   2.858
19374W        W82933  21.052  27.676  11.594
19375W        W82934  35.071  21.636   0.873
19376W        W82935  17.624  20.183   4.616
19377W        W82936  36.394  21.219  11.949
19378W        W82937  13.296   6.318  10.601
19379W        W82938  16.119  30.120  11.067
19380W        W82939  38.035  28.953   4.801
19381W        W82940  40.450  11.724  13.478
19382W        W82941  44.480  36.555   4.800
19383W        W82942  43.918   8.249   1.927
19384W        W82943  43.817  25.205   0.246
19385W        W82944  44.831  38.885  11.405
19386W        W82945  33.064  12.750   4.760
19387W        W82946  42.498  26.466  14.881
19388W        W82947  37.958  27.490   0.894
19389W        W82948  42.911  11.243  14.402
19390W        W82949  27.023   4.939  12.936
19391W        W82950  39.978  37.872  14.330
19392W        W82951  19.080  23.185  14.914
19393W        W82952  14.798   5.751  12.000
19394W        W82953  27.474  36.933   0.884
19395W        W82954   3.890  24.176  11.447
19396W        W82955   0.334  17.789  10.974
19397W        W82956  37.520  40.838   1.855
19398W        W82957  31.546  17.272  14.301
19399W        W82958  28.480   3.384   0.912
19400W        W82959  19.217  14.692  11.611
19401W        W82960   6.917  33.576  12.893
19402W        W82961  20.131  30.031  11.553
19403W        W82962  38.499  15.094   1.379
19404W        W82963  14.723   5.907  11.496
19405W        W82964  23.718  40.506   4.249
19406W        W82965   9.281  10.351   4.295
19407W        W82966   8.776  43.408   3.749
19408W        W82967  29.999  13.245  12.873
19409W        W82968  42.024   5.804  14.985
19410W        W82969  16.218   5.417  13.309
19411W        W82970  23.022  16.295   1.778
19412W        W82971  29.923  33.476   2.738
19413W        W82972  40.040  21.241  11.554
19414W        W82973   7.666  18.289   9.956
19415W        W82974  18.645   5.321   2.376
19416W        W82975  26.045   6.804  14.366
19417W        W82976  27.176  10.777   5.657
19418W        W82977  30.531  20.122  13.380
19419W        W82978  30.463   3.321  13.916
19420W        W82979   7.863  38.866  12.468
19421W        W82980  35.456   2.413  10.971
19422W        W82981  19.166  40.841  11.907
19423W        W82982  27.450  12.176  12.840
19424W        W82983  32.491  41.857   3.371
19425W        W82984  37.412  20.052  13.824
19426W        W82985   3.933  33.933   1.757
19427W        W82986  29.474  16.795   4.723
19428W        W82987   8.249  22.513  11.019
19429W        W82988  26.023  18.598   0.254
19430W        W82989  32.504   2.447   1.408
19431W        W82990  14.766  24.701   0.378
19432W        W82991   6.331   4.927  11.044
19433W        W82992   2.816  22.607   1.218
19434W        W82993  23.508  32.504   0.417
19435W        W82994  16.756   7.824   2.804
19436W        W82995  41.940  15.616   4.148
19437W        W82996  15.187  44.785  12.032
19438W        W82997   2.917   5.203   3.308
19439W        W82998  40.984   8.796   4.176
19440W        W82999  28.575  28.176   2.830
19441W        W83000  13.777  29.580   0.800
19442W        W83001  44.405  10.188  13.408
19443W        W83002  18.222  18.170  10.927
19444W        W83003   2.745   3.829  13.943
19445W        W83004  29.522  38.887   9.998
19446W        W83005  27.158  27.446   4.298
19447W        W83006  25.190  20.105   2.208
19448W        W83007   2.767  26.676  11.601
19449W        W83008   1.338  32.925  12.879
19450W        W83009   1.422  33.397   2.766
19451W        W83010  43.514  39.341  12.057
19452W        W83011   6.352   2.960  11.118
19453W        W83012   9.303  18.706  13.899
19454W        W83013  39.367  32.620  12.015
19455W        W83014   0.320  34.390   0.442
19456W        W83015  12.181  19.101  13.872
19457W        W83016  20.093  16.133   1.712
19458W        W83017   6.328  44.466  12.936
19459W        W83018  16.586  36.493   0.937
19460W        W83019  41.436  33.414   0.280
19461W        W83020  41.963  30.610   5.193
19462W        W83021   5.797  38.909  12.046
19463W        W83022  11.697  38.988  13.542
19464W        W83023  17.605   2.322  13.906
19465W        W83024  37.475   8.379   4.740
19466W        W83025  42.468  40.445  14.351
19467W        W83026  13.184  14.129   3.826
19468W        W83027  20.086   6.383   3.308
19469W        W83028   5.394   9.326  11.467
19470W        W83029  10.679  11.295   3.228
19471W        W83030  34.481  37.919  12.965
19472W        W83031  43.940  29.450  10.416
19473W        W83032  15.593  21.600  14.510
19474W        W83033  37.020  32.929   4.223
19475W        W83034  40.035   5.340  12.491
19476W        W83035  39.055   4.267   1.822
19477W        W83036   9.717   2.792  10.536
19478W        W83037  15.653  41.950   1.314
19479W        W83038  36.023   3.393   1.436
19480W        W83039   8.320  40.907  13.886
19481W        W83040  35.961   6.892  13.395
19482W        W83041  11.625  31.923  10.031
19483W        W83042  11.293  34.953   3.264
19484W        W83043  18.579  18.077  13.843
19485W        W83044   6.301  21.521   0.328
19486W        W83045  16.168  34.962   2.748
19487W        W83046   4.429   2.407   2.305
19488W        W83047  37.502  29.663   1.837
19489W        W83048  44.989  42.001   0.834
19490W        W83049  27.517   0.909   4.306
19491W        W83050  42.485  41.038   2.306
19492W        W83051  23.563   9.205  12.475
19493W        W83052   8.773  10.170   2.215
19494W        W83053  37.914   9.379   2.232
19495W        W83054  30.957  11.627  11.919
19496W        W83055   0.482  42.977  13.012
19497W        W83056  38.545   2.453   1.415
19498W        W83057  30.441  13.713  12.532
19499W        W83058  27.494  39.384  10.461
19500W        W83059   4.704   3.870  14.933
19501W        W83060  44.377  28.664   3.155
19502W        W83061  35.031   5.693  13.949
19503W        W83062   2.755  38.829  14.956
19504W        W83063   5.831  19.274  12.381
19505W        W83064  27.168  20.135  14.007
19506W        W83065  24.695  10.249  13.852
19507W        W83066  32.452  44.297   2.305
19508W        W83067   5.746  37.969   0.415
19509W        W83068  12.360   3.718  14.998
19510W        W83069  14.766  34.486  14.886
19511W        W83070  39.870  22.186   0.260
19512W        W83071  39.417   7.767   0.819
19513W        W83072  30.116   3.439  10.596
19514W        W83073   2.443  39.482  14.952
19515W        W83074   0.298   9.357  11.914
19516W        W83075  42.929  23.086   4.812
19517W        W83076  25.540  22.611  14.355
19518W        W83077  40.798  35.941   2.759
19519W        W83078   9.649  11.670   3.193
19520W        W83079  40.468   1.929  11.058
19521W        W83080   4.912  35.866  13.003
19522W        W83081  26.015  11.160  13.317
19523W        W83082  12.231   8.298   0.842
19524W        W83083  17.651  35.969   1.214
19525W        W83084  33.546   1.815  11.971
19526W        W83085  31.941  43.388   4.268
19527W        W83086  42.446  27.585   4.825
19528W        W83087  31.438  42.778  11.018
19529W        W83088  15.218  43.509  10.471
19530W        W83089  39.493  44.883   0.459
19531W        W83090  15.261  15.600   0.442
19532W        W83091  26.630  23.605   3.322
19533W        W83092  44.333  19.151  12.878
19534W        W83093  16.730  39.342  11.055
19535W        W83094   7.392  30.984  12.993
19536W        W83095  16.288  17.568   0.867
19537W        W83096  22.519  42.353  13.053
19538W        W83097  15.281  31.571   3.813
19539W        W83098  10.365  35.457  10.063
19540W        W83099  34.443  15.693   1.895
19541W        W83100  42.781  27.101   4.229
19542W        W83101  30.482   6.212  14.443
19543W        W83102   6.256   2.798   1.731
19544W        W83103  38.435  22.627   4.751
19545W        W83104  44.783  17.281  10.457
19546W        W83105  26.627   9.275   3.367
19547W        W83106  10.375  42.414   4.633
19548W        W83107   9.317   8.860   2.250
19549W        W83108  40.361  14.705  12.921
19550W        W83109  42.901  31.606  13.057
19551W        W83110  10.855  34.890  12.057
19552W        W83111  24.994  10.777   3.753
19553W        W83112  19.660   4.433   0.386
19554W        W83113  27.685  25.034  11.102
19555W        W83114  24.085   0.308   4.338
19556W        W83115  26.069  23.655   0.349
19557W        W83116  26.194   7.709   1.225
19558W        W83117   2.291   9.370  10.978
19559W        W83118   4.425  27.530  11.593
19560W        W83119   5.258  18.293   4.797
19561W        W83120  39.432  20.686   0.938
19562W        W83121   8.714  44.948   1.760
19563W        W83122  24.632  24.566  12.870
19564W        W83123   7.350  12.210  13.001
19565W        W83124  16.568  42.423   0.922
19566W        W83125  27.029  31.006   0.396
19567W        W83126   4.292  12.846   1.311
19568W        W83127  42.455   7.719  13.536
19569W        W83128  28.619  29.635   0.950
19570W        W83129  23.072  44.757   2.803
19571W        W83130  34.878   6.349  11.104
19572W        W83131  17.168  20.038   3.268
19573W        W83132  25.487  32.566  13.891
19574W        W83133  29.520   5.844  11.477
19575W        W83134   0.864  17.133   0.395
19576W        W83135  36.459  29.072   0.915
19577W        W83136  38.416  36.956   1.811
19578W        W83137   1.857   1.339  10.537
19579W        W83138  19.645   7.729  11.031
19580W        W83139  40.374  32.592  14.902
19581W        W83140  26.162  42.886   1.275
19582W        W83141   3.234  22.013   2.197
19583W        W83142  41.416  12.752  11.975
19584W        W83143  26.596  41.490   3.236
19585W        W83144  21.098  35.550   4.175
19586W        W83145  18.696  12.750  13.528
19587W        W83146  38.976  26.694  12.073
19588W        W83147  19.538  14.642   3.208
19589W        W83148  17.717  37.573  10.575
19590W        W83149   2.307  23.144   2.666
19591W        W83150  24.998  17.259  12.020
19592W        W83151   9.680  11.163  12.437
19593W        W83152  21.209  30.103  12.931
19594W        W83153  42.454  29.560  10.610
19595W        W83154  24.536  42.843   0.916
19596W        W83155  40.819  12.797  11.473
19597W        W83156  15.285  11.361   2.390
19598W        W83157   9.323  19.678  14.912
19599W        W83158   9.342  42.485  12.384
19600W        W83159  37.838  19.079  11.070
19601W        W83160  17.221  19.206   4.739
19602W        W83161  29.628  35.041   3.330
19603W        W83162  44.429   5.761   5.118
19604W        W83163  28.613  23.121  11.900
19605W        W83164  37.013   2.376  12.536
19606W        W83165   6.763  10.877  12.375
19607W        W83166   9.257  26.978  13.400
19608W        W83167  13.749  22.252  13.999
19609W        W83168   5.332  10.632   4.828
19610W        W83169   4.271  18.296  10.467
19611W        W83170   3.824  11.712  13.469
19612W        W83171  13.746  16.318   1.256
19613W        W83172  32.975  13.270  11.601
19614W        W83173   5.429  33.427   2.856
19615W        W83174   9.731  24.210  11.052
19616W        W83175  19.772  15.160  11.479
19617W        W83176   5.819  12.159  13.326
19618W        W83177  24.980  34.064   4.663
19619W        W83178  37.982  41.411   2.271
19620W        W83179  21.613  33.399   0.429
19621W        W83180  23.679  41.889   4.804
19622W        W83181   9.827  17.307   2.861
19623W        W83182  28.452  21.592   4.275
19624W        W83183  20.541  22.733   4.785
19625W        W83184  18.195  26.606   4.729
19626W        W83185  31.110  44.351   2.765
19627W        W83186  10.333  28.640  13.411
19628W        W83187  14.789   8.277   3.858
19629W        W83188  32.892  29.448  11.940
19630W        W83189  35.915   0.875   2.412
19631W        W83190  40.406   5.770   1.773
19632W        W83191  38.918   7.781   4.208
19633W        W83192  44.341  14.704  14.012
19634W        W83193   9.234  26.147  14.285
19635W        W83194  20.661  37.961   0.908
19636W        W83195   2.408  36.558   3.322
19637W        W83196  13.314   3.340   5.264
19638W        W83197  32.011  39.909   2.289
19639W        W83198  35.067   7.767  11.395
19640W        W83199  24.105   5.395   3.678
19641W        W83200  17.185  38.977   0.909
19642W        W83201  43.420  36.407   0.744
19643W        W83202   4.246  36.027   3.658
19644W        W83203  42.885   5.841   1.700
19645W        W83204  43.013   4.737   2.400
19646W        W83205  10.282  26.089   2.351
19647W        W83206  22.508  40.920   3.201
19648W        W83207   4.338  39.970  14.933
19649W        W83208  14.789   6.428  13.377
19650W        W83209   0.821  13.749  10.592
19651W        W83210  33.068   8.264  12.344
19652W        W83211  25.474  38.901  12.473
19653W        W83212   6.784  18.692  11.066
19654W        W83213   3.359  16.750   1.816
19655W        W83214  29.491  25.551   0.287
19656W        W83215  38.032  41.333   1.409
19657W        W83216  44.787  27.023  13.332
19658W        W83217  21.607   2.914  11.931
19659W        W83218  21.132  37.868   0.916
19660W        W83219  29.580   0.304  13.530
19661W        W83220  17.606  44.313  11.504
19662W        W83221  22.550  39.540  11.923
19663W        W83222  29.948  39.033   0.766
19664W        W83223  31.420   3.272   2.199
19665W        W83224  44.782  33.557   2.789
19666W        W83225  35.446  21.060  11.959
19667W        W83226  44.800  18.054  11.020
19668W        W83227  32.118  20.193  12.948
19669W        W83228  38.904  18.201   3.714
19670W        W83229  27.046  42.023   0.474
19671W        W83230  36.086   7.366   2.894
19672W        W83231  21.685  31.585  12.456
19673W        W83232   3.815  22.108  10.635
19674W        W83233  15.086  29.936  10.981
19675W        W83234  17.556  37.536   4.815
19676W        W83235  27.077  30.989   3.708
19677W        W83236  38.398  37.337   4.715
19678W        W83237  21.649   2.327   3.806
19679W        W83238  19.542  28.132   3.643
19680W        W83239  27.184  15.270  13.821
19681W        W83240   9.218  28.498  14.818
19682W        W83241  19.115   3.274  13.898
19683W        W83242  13.209  21.562  14.981
19684W        W83243  31.941  33.451   3.198
19685W        W83244   3.350  38.489  11.966
19686W        W83245  27.502   7.238   4.264
19687W        W83246  37.013  13.193  13.822
19688W        W83247  25.488  29.035  12.033
19689W        W83248  29.032  44.914  11.396
19690W        W83249  17.752  21.521  13.350
19691W        W83250   0.352  11.227  14.327
19692W        W83251  10.229  11.200  10.637
19693W        W83252  39.539   7.282  13.941
19694W        W83253  38.843  19.765  14.840
19695W        W83254  11.217   1.262  14.938
19696W        W83255  19.178  27.146   4.292
19697W        W83256  33.404  30.545  13.804
19698W        W83257  11.372  33.105  13.939
19699W        W83258  27.046  38.515  14.892
19700W        W83259  39.353  17.166   3.728
19701W        W83260  34.402  17.752   3.868
19702W        W83261  22.070  24.561   4.236
19703W        W83262  24.679   8.307   0.432
19704W        W83263   3.255  27.957   3.320
19705W        W83264   0.268  19.580   0.283
19706W        W83265   5.846   1.382  11.109
19707W        W83266  34.431  37.929   3.322
19708W        W83267  36.556   2.801  10.613
19709W        W83268  19.636   9.811  14.403
19710W        W83269  43.923  37.531   1.391
19711W        W83270  26.963   4.227   4.700
19712W        W83271  21.677   3.950  10.950
19713W        W83272  18.165  19.277  11.499
19714W        W83273  10.821  27.193  12.064
19715W        W83274  43.354  30.552   1.305
19716W        W83275   1.480  29.537   3.269
19717W        W83276  42.374  12.120   3.176
19718W        W83277   2.402   7.886  13.400
19719W        W83278  36.442  11.363  11.485
19720W        W83279  44.385  29.033   5.184
19721W        W83280  11.275  29.069  13.941
19722W        W83281  44.855  15.259  12.875
19723W        W83282  40.000  28.058  14.361
19724W        W83283  17.654  35.958   4.279
19725W        W83284   0.982  28.470  11.983
19726W        W83285  33.623  29.945  14.503
19727W        W83286  40.982   8.357  12.519
19728W        W83287  14.216  34.380  10.989
19729W        W83288  27.194  44.906  13.948
19730W        W83289  31.133  40.995   4.808
19731W        W83290  40.847  12.157  10.916
19732W        W83291  33.919   9.276   2.370
19733W        W83292  16.770  34.902   2.699
19734W        W83293  30.032   4.221  13.059
19735W        W83294  11.177  38.923   0.281
19736W        W83295  27.069   9.654   5.216
19737W        W83296  38.487  16.218  14.826
19738W        W83297  22.197  12.277  12.060
19739W        W83298  28.989  19.147  14.276
19740W        W83299   5.294  17.652  11.126
19741W        W83300  17.664  11.716  10.125
19742W        W83301  29.011  40.045   1.328
19743W        W83302  42.376  13.112  13.895
19744W        W83303   4.261   5.361  12.059
19745W        W83304  26.164   9.202  13.379
19746W        W83305  36.549  26.584   1.343
19747W        W83306  39.003  27.079   1.217
19748W        W83307  12.154  20.147   2.719
19749W        W83308  34.052  37.074  14.928
19750W        W83309  20.691  31.471  13.898
19751W        W83310  31.900  12.205  14.872
19752W        W83311  10.157   2.815   3.668
19753W        W83312  34.929  17.276  10.906
19754W        W83313  19.712  44.314   4.801
19755W        W83314   2.723  34.046  12.905
19756W        W83315  39.466  25.035   2.353
19757W        W83316  16.798   3.824   4.691
19758W        W83317  22.636  11.273   2.760
19759W        W83318  44.768  26.474   2.860
19760W        W83319  39.474  30.062  10.522
19761W        W83320  12.656  41.032   4.242
19762W        W83321  27.122   6.731  12.449
19763W        W83322  11.843  39.968  12.456
19764W        W83323   7.848  39.881   0.366
19765W        W83324  20.112  38.442   4.656
19766W        W83325  27.577  13.695   3.850
19767W        W83326  17.687  38.915   3.358
19768W        W83327  10.202  26.972   2.185
19769W        W83328  36.998  35.975   4.733
19770W        W83329   9.830  32.979   2.687
19771W        W83330   8.180  16.142  14.922
19772W        W83331   6.272  11.856  11.438
19773W        W83332   8.339  33.017   4.186
19774W        W83333  36.352  31.947   2.216
19775W        W83334  22.728  34.952   0.884
19776W        W83335  13.136  19.231  13.959
19777W        W83336  23.224   9.154   4.747
19778W        W83337  31.140  38.836   4.285
19779W        W83338  37.549  26.189  13.344
19780W        W83339  14.790  14.198   4.343
19781W        W83340   0.850  24.631   1.922
19782W        W83341  16.101   1.819   2.245
19783W        W83342  39.811  27.135   1.252
19784W        W83343  34.070  37.428  11.871
19785W        W83344  18.550   8.833  13.384
19786W        W83345  33.384  10.203  12.089
19787W        W83346  17.188  33.099   1.873
19788W        W83347  28.566  33.430   0.448
19789W        W83348  16.187  16.091  14.443
19790W        W83349  29.627  39.918   5.749
19791W        W83350  12.171  36.545   0.422
19792W        W83351  18.559   6.702   1.312
19793W        W83352  31.942  36.980   5.122
19794W        W83353   3.358  37.369  13.963
19795W        W83354  12.193  16.137   2.681
19796W        W83355  19.246  43.298   2.411
19797W        W83356  24.494  26.969  12.394
19798W        W83357   9.271   7.704  11.562
19799W        W83358  15.145  28.166   2.835
19800W        W83359  39.497  34.021  12.926
19801W        W83360   0.403  26.012   4.731
19802W        W83361  18.723  40.396  13.428
19803W        W83362   9.280  35.051   5.217
19804W        W83363  34.986   5.723  13.489
19805W        W83364  39.912  44.884  12.892
19806W        W83365  13.773  42.004   0.958
19807W        W83366  18.111  19.178   3.316
19808W        W83367  41.333  20.724  12.368
19809W        W83368  44.756  10.751  11.580
19810W        W83369   0.406  11.778   4.291
19811W        W83370  35.588  30.953  12.049
19812W        W83371  29.918  36.973   2.342
19813W        W83372   6.840  12.755   4.679
19814W        W83373  22.168  10.333   4.165
19815W        W83374  18.075  19.663   5.238
19816W        W83375   7.255  40.308  12.420
19817W        W83376  31.636  34.509   4.641
19818W        W83377  30.050  40.901   2.225
19819W        W83378  42.818  26.468  13.823
19820W        W83379   3.763  42.844   0.729
19821W        W83380   9.693  40.317   1.824
19822W        W83381   2.813   8.293  14.769
19823W        W83382  17.118  23.526   2.411
19824W        W83383  37.394  10.643   2.213
19825W        W83384   6.827  40.001  12.054
19826W        W83385   6.869  33.897  10.990
19827W        W83386  21.020  21.693   3.754
19828W        W83387  21.752  25.028   4.239
19829W        W83388   9.288  15.260   0.304
19830W        W83389  41.420  30.095   3.154
19831W        W83390  31.958  38.837   1.846
19832W        W83391  24.056  41.477   4.330
19833W        W83392   9.826  26.151  13.798
19834W        W83393   2.337   0.873  12.578
19835W        W83394  44.843  41.536   5.237
19836W        W83395  18.582  41.909   3.225
19837W        W83396  24.043  31.632  14.458
19838W        W83397   1.373  42.837  14.970
19839W        W83398  23.520   5.207   2.867
19840W        W83399  15.663   6.886  13.505
19841W        W83400   6.912  19.702   3.807
19842W        W83401  28.601  30.907  14.014
19843W        W83402   5.699  17.679  12.995
19844W        W83403  23.711  24.120   0.269
19845W        W83404  43.831   4.731  14.816
19846W        W83405   4.287   4.268  14.808
19847W        W83406  13.304  18.089  12.487
19848W        W83407  27.464   3.294   2.890
19849W        W83408  31.577  41.327  14.030
19850W        W83409  23.525  39.022   4.604
19851W        W83410  41.033  33.062   1.705
19852W        W83411  23.675  33.083   3.290
19853W        W83412  25.590  33.478  14.850
19854W        W83413  35.469  21.137   3.147
19855W        W83414  10.230   8.728  11.905
19856W        W83415  32.985  29.163  13.038
19857W        W83416  19.147  38.894   4.744
19858W        W83417  38.907  25.604  13.841
19859W        W83418  37.034  36.496  10.582
19860W        W83419  24.625   0.798  14.861
19861W        W83420  22.198  32.416   3.775
19862W        W83421  28.620  28.114   1.264
19863W        W83422   2.925  39.322  13.973
19864W        W83423  34.048   5.333  13.871
19865W        W83424  22.072  25.993   4.153
19866W        W83425   6.693   8.334   3.198
19867W        W83426  29.434   3.272  11.540
19868W        W83427  42.810  15.741  13.824
19869W        W83428  32.395  14.781  12.855
19870W        W83429  25.001  36.353   3.317
19871W        W83430  28.488   3.398   3.278
19872W        W83431   5.366  30.025  11.542
19873W        W83432   0.247  16.782  14.383
19874W        W83433  33.048  32.632   1.935
19875W        W83434   3.333  15.658  11.871
19876W        W83435  24.632   7.309   2.209
19877W        W83436  12.122   1.774   0.764
19878W        W83437  13.757  21.263  11.387
19879W        W83438  18.759  32.010  14.812
19880W        W83439  19.679  11.188  12.514
19881W        W83440  15.111  28.129  13.484
19882W        W83441  21.617  38.541  13.978
19883W        W83442  13.278  38.009   2.355
19884W        W83443   5.795   4.341   3.772
19885W        W83444   7.382  24.701  14.764
19886W        W83445  40.912  29.994  11.395
19887W        W83446  14.163  20.589   4.740
19888W        W83447  39.544   5.232   3.318
19889W        W83448  36.555   2.907  11.371
19890W        W83449  23.204   7.906  11.564
19891W        W83450  32.517   1.243   1.347
19892W        W83451  17.614  44.808   2.394
19893W        W83452  10.855  16.309   4.599
19894W        W83453   4.914  33.953   0.948
19895W        W83454  20.156  13.217  14.963
19896W        W83455  32.016  29.017  10.072
19897W        W83456   8.889   6.885   1.425
19898W        W83457  37.531  25.661  14.826
19899W        W83458  36.841   8.750   0.417
19900W        W83459  28.017  30.508   2.893
19901W        W83460  30.470   9.170  11.879
19902W        W83461  30.481  10.687  10.997
19903W        W83462  38.525  12.687  13.518
19904W        W83463  14.785  23.240  14.391
19905W        W83464  11.742  38.362   2.733
19906W        W83465  11.820  28.477  11.961
19907W        W83466  25.062  16.248  11.928
19908W        W83467  23.559  17.073  12.424
19909W        W83468  16.598  19.193   3.859
19910W        W83469  27.989  39.327  14.399
19911W        W83470  28.531   8.392  14.886
19912W        W83471  11.248  31.993   3.232
19913W        W83472   8.234  40.547   4.317
19914W        W83473  31.983  22.616  13.856
19915W        W83474  15.310  29.093   1.814
19916W        W83475  27.007   3.941  13.046
19917W        W83476   9.692  27.449  11.420
19918W        W83477  14.802   5.789  13.326
19919W        W83478   2.854  22.624  14.796
19920W        W83479  30.926  29.108   4.333
19921W        W83480  41.940  16.651   2.303
19922W        W83481  23.987  39.856   1.874
19923W        W83482   5.894  33.018   0.368
19924W        W83483  16.727  11.348   4.695
19925W        W83484  16.317  16.195   0.866
19926W        W83485  22.633   4.384   4.257
19927W        W83486  24.086  34.590  10.988
19928W        W83487  37.874  20.171   2.264
19929W        W83488  37.907  39.521   4.326
19930W        W83489  22.151  34.866  12.547
19931W        W83490  18.678  23.519   1.895
19932W        W83491  42.369  10.770  14.343
19933W        W83492  39.914   2.937  11.504
19934W        W83493   9.739  44.953   0.362
19935W        W83494  16.089   7.393  11.874
19936W        W83495  25.669   6.261   2.220
19937W        W83496  26.610  41.811   5.277
19938W        W83497  34.912  17.588   3.275
19939W        W83498  36.957  15.656   2.362
19940W        W83499  12.787  16.090   2.265
19941W        W83500   1.863  28.076  11.408
19942W        W83501  38.448  34.392   9.615
19943W        W83502  32.892  23.696   3.187
19944W        W83503  37.886   5.249   2.273
19945W        W83504   6.836  25.065   4.168
19946W        W83505  26.549   0.480   3.188
19947W        W83506  35.399   1.482   4.602
19948W        W83507  30.922  24.499  14.496
19949W        W83508  16.081   2.379   4.152
19950W        W83509  42.845  22.060   3.726
19951W        W83510  17.198  33.065  11.897
19952W        W83511  10.645  25.587  11.549
19953W        W83512  38.496   8.828   4.727
19954W        W83513  31.639  26.648   3.851
19955W        W83514  11.704  22.682  10.133
19956W        W83515  37.455  21.171  11.978
19957W        W83516  32.617  25.962  14.888
19958W        W83517  31.585  30.590  11.066
19959W        W83518  33.403  13.296  11.568
19960W        W83519   5.746  42.775   2.892
19961W        W83520  24.071   2.862  12.069
19962W        W83521  32.430  20.555   3.799
19963W        W83522  14.149   7.230  14.473
19964W        W83523  36.569  22.556   0.308
19965W        W83524   6.192   9.233   3.650
19966W        W83525  29.517  26.638   1.715
19967W        W83526  28.120   4.849  10.969
19968W        W83527  38.870  42.794   3.279
19969W        W83528   8.243   2.889   4.691
19970W        W83529  39.048  21.649   1.257
19971W        W83530  28.965  30.456  11.105
19972W        W83531  31.493  31.985  14.301
19973W        W83532   2.874  37.505   0.469
19974W        W83533  44.388  35.029   3.632
19975W        W83534  38.052  26.006   4.239
19976W        W83535  35.445  14.228  14.333
19977W        W83536   6.741  25.001   0.247
19978W        W83537  38.060   2.946   4.125
19979W        W83538  18.771  18.285   4.143
19980W        W83539  32.051  17.193  11.589
19981W        W83540  28.152  37.412  10.988
19982W        W83541  42.863  14.763   0.276
19983W        W83542  15.289  41.522   4.150
19984W        W83543   3.795   9.763   2.188
19985W        W83544  22.502  43.293  11.865
19986W        W83545  36.903   0.373   2.399
19987W        W83546  14.644   5.332  14.415
19988W        W83547   2.766  41.505  13.402
19989W        W83548   6.680   7.729   1.877
19990W        W83549  40.379  32.625  11.513
19991W        W83550   0.959  29.937   0.409
19992W        W83551  16.762  21.231   1.398
19993W        W83552  35.496  40.361  14.014
19994W        W83553  19.099  13.319  13.400
19995W        W83554  15.766  30.137   1.708
19996W        W83555   7.906  21.117  10.445
19997W        W83556  19.611   4.856   5.134
19998W        W83557  37.477  23.088   3.662
19999W        W83558  33.074   6.195   3.679
20000W        W83559  34.049  34.600  11.938
20001W        W83560  27.042  27.651   0.297
20002W        W83561  28.445  39.351   2.305
20003W        W83562  19.089  22.674   4.812
20004W        W83563   0.811  43.851  14.028
20005W        W83564  29.159  42.895   1.855
20006W        W83565  21.075  44.909   3.643
20007W        W83566   2.809  39.518  12.877
20008W        W83567  24.230  18.724   0.417
20009W        W83568  31.000   4.894  13.060
20010W        W83569  38.416  26.622   2.394
20011W        W83570  34.476  18.687  11.519
20012W        W83571  22.572  11.744  11.010
20013W        W83572  37.887  12.155  10.951
20014W        W83573  10.140  23.022   3.755
20015W        W83574   9.274  14.271  14.436
20016W        W83575  18.239  32.490   4.700
20017W        W83576  10.704  35.527  11.968
20018W        W83577   3.279  31.405  11.040
20019W        W83578   1.317   4.302  12.036
20020W        W83579  21.024  28.547   9.616
20021W        W83580   7.677   3.856  13.508
20022W        W83581   3.412  39.518   1.314
20023W        W83582  17.234  31.575   2.713
20024W        W83583   3.370  20.648   1.308
20025W        W83584  16.583  19.269   0.331
20026W        W83585  36.852   5.740  10.937
20027W        W83586  11.758  35.919   0.361
20028W        W83587  38.871   7.666  12.542
20029W        W83588  15.102  36.366  13.431
20030W        W83589  32.893  16.745   1.299
20031W        W83590  26.091  35.589  11.394
20032W        W83591  38.910  14.749   0.753
20033W        W83592  41.841  39.946  14.019
20034W        W83593  41.320  35.567   0.834
20035W        W83594  14.245  22.589  11.968
20036W        W83595   8.752  24.634   1.911
20037W        W83596   8.285  38.819   1.222
20038W        W83597  17.600  31.559   2.781
20039W        W83598  33.940  17.281  11.490
20040W        W83599  36.883  25.122   3.761
20041W        W83600  25.558  34.918  11.389
20042W        W83601   8.385  11.750   4.628
20043W        W83602  34.574   3.413   0.883
20044W        W83603   1.269  23.667  14.869
20045W        W83604  12.186   7.198   0.309
20046W        W83605  23.984   7.398   4.832
20047W        W83606   3.228  19.054   2.675
20048W        W83607   5.235   7.368   1.241
20049W        W83608  27.091  37.984   2.353
20050W        W83609  20.062  21.131  13.855
20051W        W83610  17.130  19.780  10.064
20052W        W83611   2.825  28.941  13.515
20053W        W83612   0.979   7.776   0.747
20054W        W83613  31.469  21.738  10.476
20055W        W83614   6.691  40.375   4.723
20056W        W83615   0.315  17.091  11.923
20057W        W83616  36.843  35.963  10.929
20058W        W83617  22.141  38.867  10.515
20059W        W83618  31.610   8.281   4.703
20060W        W83619  21.580  18.280  12.886
20061W        W83620  36.479  37.410  10.412
20062W        W83621  23.630  40.809  11.439
20063W        W83622  37.556  38.922  10.508
20064W        W83623  16.656   8.167   3.360
20065W        W83624  25.632  37.445  10.627
20066W        W83625   2.814  27.108   2.187
20067W        W83626  42.291  32.913  11.565
20068W        W83627  42.462  40.797   3.200
20069W        W83628  10.323   6.866   2.728
20070W        W83629  27.129  19.767   4.244
20071W        W83630  10.204  39.992   0.825
20072W        W83631  13.724   2.439  10.933
20073W        W83632  39.464  33.128  13.792
20074W        W83633  38.525  36.489   1.380
20075W        W83634  35.970   6.287   2.767
20076W        W83635  14.295   2.870   1.442
20077W        W83636  21.668   0.742   4.614
20078W        W83637   8.855  32.507  13.897
20079W        W83638  21.677  28.017  14.392
20080W        W83639  42.471  26.521   3.679
20081W        W83640  29.661  25.194   2.260
20082W        W83641  10.811   4.829  11.459
20083W        W83642  21.583  21.647  14.356
20084W        W83643   4.732  23.020  13.493
20085W        W83644  10.203  28.564  10.588
20086W        W83645  15.793   6.420   2.277
20087W        W83646  25.709   4.254  11.451
20088W        W83647  10.800   8.384  11.589
20089W        W83648  14.823  37.940   0.892
20090W        W83649  30.593  20.049   5.145
20091W        W83650  44.007  42.327   3.243
20092W        W83651  18.269  11.148  14.509
20093W        W83652   0.880  26.510  13.373
20094W        W83653  18.138   8.733  12.376
20095W        W83654  30.563  22.214  11.856
20096W        W83655  42.339  34.458   3.792
20097W        W83656   1.915  31.565  11.414
20098W        W83657  21.526  39.331   2.254
20099W        W83658  18.605  31.556   2.222
20100W        W83659  42.780   3.901   0.926
20101W        W83660  35.409   9.688  10.029
20102W        W83661   5.823   8.666  11.008
20103W        W83662  26.551  17.607   1.399
20104W        W83663  41.038  33.594   2.382
20105W        W83664   9.837  20.153   3.252
20106W        W83665   0.339   6.836   2.289
20107W        W83666  29.147  38.442  10.148
20108W        W83667  41.384  21.693  14.317
20109W        W83668  16.287  18.552   3.266
20110W        W83669  43.871   7.779  10.641
20111W        W83670  19.257  26.087  13.524
20112W        W83671   7.674  16.674   2.277
20113W        W83672  33.907  20.593  14.290
20114W        W83673  30.053  13.846  14.960
20115W        W83674   3.447  26.120  11.045
20116W        W83675  16.741   3.317   4.612
20117W        W83676  15.711  44.458  13.489
20118W        W83677  19.562  19.579  14.850
20119W        W83678  32.916  22.208   1.372
20120W        W83679  15.087  27.031  11.547
20121W        W83680  14.255  26.497  10.081
20122W        W83681   8.167  40.535   3.297
20123W        W83682  28.120  41.533   4.685
20124W        W83683   9.830  26.117   2.260
20125W        W83684  21.222   2.248  10.904
20126W        W83685  12.326   1.344   1.896
20127W        W83686   4.729  18.240  10.465
20128W        W83687  20.062  40.937   1.821
20129W        W83688  19.273  24.074   0.873
20130W        W83689   9.822   1.421  10.540
20131W        W83690  38.969  31.561   3.264
20132W        W83691   8.176  17.175  10.462
20133W        W83692   4.704  38.404   4.322
20134W        W83693  22.617  42.285  10.585
20135W        W83694   5.933  19.190  10.894
20136W        W83695  26.172  24.576  12.513
20137W        W83696  35.365   3.729  14.849
20138W        W83697  10.772  30.064  13.329
20139W        W83698  15.195  14.652  10.436
20140W        W83699  21.745  11.317  11.016
20141W        W83700  32.093  13.764   1.430
20142W        W83701  39.966  12.856  11.912
20143W        W83702  41.796  13.674  11.496
20144W        W83703  16.163  31.492   3.246
20145W        W83704  38.074   8.358  13.493
20146W        W83705  44.401  31.639  12.502
20147W        W83706  30.156   0.785   1.334
20148W        W83707   9.728  25.101   4.215
20149W        W83708   1.853  14.824  13.908
20150W        W83709   0.355  23.119  10.442
20151W        W83710  37.349  30.158  13.940
20152W        W83711   8.663   1.342  12.925
20153W        W83712  14.706  28.494  11.606
20154W        W83713  26.963  27.169  14.808
20155W        W83714  25.016  13.116   4.211
20156W        W83715  20.639  13.802   2.273
20157W        W83716  32.928   2.920   2.195
20158W        W83717  33.500  36.587   2.381
20159W        W83718   0.812  19.119  12.878
20160W        W83719  24.101  29.450   4.315
20161W        W83720  18.584   8.260   0.421
20162W        W83721  31.464   2.242  14.421
20163W        W83722  23.709  37.004  11.533
20164W        W83723   1.844  29.168   0.376
20165W        W83724   1.455   5.333  11.969
20166W        W83725  28.013   5.697   3.782
20167W        W83726  25.083  14.712  12.924
20168W        W83727   7.817  19.237  10.956
20169W        W83728  16.651  18.153   2.684
20170W        W83729   1.244  37.900  13.997
20171W        W83730  13.738   0.342   3.287
20172W        W83731  13.816  44.375  10.534
20173W        W83732  25.001  32.968  14.982
20174W        W83733  18.671   2.343   0.906
20175W        W83734  38.968  20.591   0.757
20176W        W83735  26.975  15.126  13.048
20177W        W83736  23.165  32.114   0.813
20178W        W83737  25.694  24.221   1.331
20179W        W83738  41.856  24.676  12.521
20180W        W83739  37.984  44.966   3.702
20181W        W83740  29.496   7.777   3.255
20182W        W83741  12.653   3.248   1.725
20183W        W83742  22.183  19.554  13.826
20184W        W83743  25.644   0.967   4.189
20185W        W83744  31.477  17.739  13.438
20186W        W83745  38.918  14.249  10.150
20187W        W83746   1.311  14.162  12.466
20188W        W83747  19.644  24.198   0.912
20189W        W83748  38.002  24.042   4.750
20190W        W83749  41.447  38.004   5.085
20191W        W83750   0.932  29.554   9.989
20192W        W83751  25.182   2.240  11.550
20193W        W83752  28.938  10.252  13.415
20194W        W83753  20.273  25.661  11.931
20195W        W83754  12.287  41.877   2.179
20196W        W83755  36.554  30.152   1.403
20197W        W83756  13.177   7.286   3.691
20198W        W83757  28.080  37.470   2.289
20199W        W83758  23.494  37.445   0.303
20200W        W83759  30.617  39.888   3.792
20201W        W83760  14.766  32.066   2.720
20202W        W83761  12.629  12.626   1.883
20203W        W83762  34.003  33.904   2.822
20204W        W83763   7.194  22.036   1.730
20205W        W83764   1.929  31.144  14.480
20206W        W83765  38.907  10.657  14.766
20207W        W83766  11.224  35.864   0.381
20208W        W83767  41.960   8.272   2.874
20209W        W83768  42.860  21.040  13.487
20210W        W83769  32.072   9.214   4.773
20211W        W83770  19.245   4.409  10.572
20212W        W83771  41.891  27.523  10.639
20213W        W83772   2.752  34.103  14.802
20214W        W83773   4.717  30.654   2.663
20215W        W83774  39.315  27.638  13.987
20216W        W83775  26.560  31.127  14.992
20217W        W83776   7.885  37.371   0.833
20218W        W83777  40.546  37.475   4.231
20219W        W83778  16.662  15.699  11.115
20220W        W83779  28.512  16.805  14.982
20221W        W83780  42.812  38.330   1.321
20222W        W83781  11.760  16.730  10.441
20223W        W83782   3.907  30.589   0.777
20224W        W83783  22.582   7.284  13.994
20225W        W83784   2.379  28.136  12.040
20226W        W83785  41.313  35.562   3.830
20227W        W83786   7.206  35.575   4.233
20228W        W83787  13.690  17.282   1.859
20229W        W83788  30.609  39.398   1.840
20230W        W83789   1.433  14.305   4.788
20231W        W83790  16.149  29.162   1.330
20232W        W83791  31.980  32.079   5.214
20233W        W83792   8.840  17.796  13.887
20234W        W83793  41.418  34.998  14.402
20235W        W83794   6.294   8.723   4.783
20236W        W83795  19.112  32.528  14.432
20237W        W83796  34.875  36.949  14.899
20238W        W83797  23.566  28.458  13.898
20239W        W83798  39.369  22.086  12.030
20240W        W83799  30.051  42.498  12.912
20241W        W83800  37.965  18.691   4.183
20242W        W83801   2.794  23.602   3.688
20243W        W83802  25.657  35.885   4.313
20244W        W83803  38.381  37.070   3.688
20245W        W83804  33.506  27.618  14.873
20246W        W83805  24.171  13.253  14.881
20247W        W83806  16.109   9.663   5.308
20248W        W83807  22.560  22.114  10.048
20249W        W83808  20.638  33.546   0.457
20250W        W83809  30.552   1.874  12.483
20251W        W83810  11.774  11.783   5.124
20252W        W83811  21.734  19.737  13.421
20253W        W83812  25.538  39.963   3.285
20254W        W83813   8.673   0.458   0.815
20255W        W83814   0.268   5.854   3.236
20256W        W83815   2.402  32.479   0.945
20257W        W83816  17.674  36.448  11.970
20258W        W83817  27.500  41.876   1.422
20259W        W83818  12.250   9.377   1.805
20260W        W83819  20.655  11.719   0.897
20261W        W83820  27.154  28.593  11.434
20262W        W83821  31.554  10.655  10.469
20263W        W83822  28.960   8.246   4.309
20264W        W83823  15.667  16.281  11.425
20265W        W83824  19.628  36.907  14.341
20266W        W83825  31.457   9.278  14.466
20267W        W83826   7.908   9.847   2.672
20268W        W83827   2.377  34.897   4.690
20269W        W83828  37.858  19.197   2.356
20270W        W83829  44.380  44.385   3.192
20271W        W83830  10.769  39.477   1.737
20272W        W83831  28.613  38.925  13.965
20273W        W83832   4.205  33.457  14.276
20274W        W83833  26.042  24.154   0.404
20275W        W83834   1.957   1.355  12.890
20276W        W83835  34.563  14.217   4.352
20277W        W83836  26.682  28.605  11.552
20278W        W83837  41.338  22.582  11.893
20279W        W83838  44.833   5.800   3.187
20280W        W83839  25.070  25.530  12.924
20281W        W83840  28.006  30.930   4.680
20282W        W83841  35.530  23.626  12.493
20283W        W83842  24.723  27.943   2.668
20284W        W83843  31.938  26.589   4.635
20285W        W83844  43.400  33.467  14.861
20286W        W83845  31.417  25.611   0.792
20287W        W83846  36.881  12.742   2.824
20288W        W83847  24.988  21.676   5.308
20289W        W83848  16.738  40.956   4.806
20290W        W83849  41.454  16.613   3.155
20291W        W83850   8.364  19.226   0.817
20292W        W83851  13.144  42.472  14.762
20293W        W83852  24.215  28.148  11.377
20294W        W83853  43.918  41.453  14.416
20295W        W83854   4.760  28.643   3.260
20296W        W83855   8.851  21.630   1.377
20297W        W83856  14.332  25.022   1.751
20298W        W83857  18.284   1.253   4.314
20299W        W83858  17.207  43.006  11.107
20300W        W83859  37.055  35.517  12.515
20301W        W83860  31.092  23.634   2.839
20302W        W83861  36.034  32.083   5.152
20303W        W83862  21.697  43.772   2.893
20304W        W83863   5.712  30.655   1.710
20305W        W83864   9.739  30.453   1.323
20306W        W83865  12.671   4.789   4.678
20307W        W83866  22.072  12.276  14.981
20308W        W83867  10.164   9.818   3.266
20309W        W83868  38.975  29.628   1.242
20310W        W83869  43.949  26.601   4.260
20311W        W83870  14.672  25.042   4.597
20312W        W83871  12.686  40.974   1.912
20313W        W83872  17.789  10.704  11.025
20314W        W83873  17.155  16.296   0.391
20315W        W83874  10.804   2.429   1.340
20316W        W83875  35.500  28.148  10.568
20317W        W83876   3.430  38.906   4.637
20318W        W83877   4.275   2.316   4.313
20319W        W83878   0.916  20.654   3.662
20320W        W83879   9.334  19.098  14.353
20321W        W83880  25.578  14.144   4.127
20322W        W83881   4.801  15.296  13.017
20323W        W83882  40.043  42.903  11.418
20324W        W83883  24.628  24.222   9.993
20325W        W83884  22.209  33.128   1.794
20326W        W83885  20.255  37.552  12.464
20327W        W83886  10.171  20.178  13.032
20328W        W83887   0.970   3.370   4.257
20329W        W83888   7.370  31.642  12.961
20330W        W83889  21.026  20.086   0.887
20331W        W83890   5.401   1.423   0.774
20332W        W83891  13.186  13.687  13.055
20333W        W83892  37.047  28.017  10.411
20334W        W83893  44.462  41.319   1.303
20335W        W83894   2.462  14.325   1.747
20336W        W83895  11.159   3.360   1.277
20337W        W83896  32.433  20.657   2.766
20338W        W83897   6.736  28.080  11.457
20339W        W83898  26.699  44.418  10.518
20340W        W83899  17.601  31.073  10.955
20341W        W83900   9.721  27.603   2.713
20342W        W83901  15.809  16.679  14.759
20343W        W83902  18.285   1.321  11.128
20344W        W83903  19.749  17.163  13.945
20345W        W83904  27.016   2.403  12.504
20346W        W83905  42.926   7.337  14.014
20347W        W83906  27.469   5.767   1.820
20348W        W83907   4.208   6.339  12.423
20349W        W83908   1.974   8.249   0.439
20350W        W83909  21.138  11.359  14.780
20351W        W83910   0.375  33.418  11.119
20352W        W83911  11.835   4.234  11.937
20353W        W83912  37.847  30.088  10.890
20354W        W83913  42.864  26.964  14.934
20355W        W83914  21.061   4.769  14.948
20356W        W83915  19.655  29.650  12.847
20357W        W83916  27.463   0.444  13.831
20358W        W83917  43.014  35.472   4.770
20359W        W83918  33.106   3.935   4.125
20360W        W83919   6.275  28.963   1.738
20361W        W83920   5.738  20.086   2.800
20362W        W83921  37.078   1.246   1.287
20363W        W83922  40.948  11.193  12.907
20364W        W83923   0.330  40.938  11.086
20365W        W83924   7.884  12.176   4.633
20366W        W83925  22.722   6.736  12.360
20367W        W83926  14.722   0.907  12.368
20368W        W83927   3.377  44.382   4.608
20369W        W83928  27.467  17.138   2.401
20370W        W83929   8.355  13.652   1.818
20371W        W83930  42.409  22.674   2.214
20372W        W83931  24.592   7.354  14.001
20373W        W83932  37.423   4.744  14.378
20374W        W83933   0.321  43.284   1.330
20375W        W83934   6.183  43.511   3.152
20376W        W83935  21.612  32.636   1.694
20377W        W83936   9.181   5.727   1.287
20378W        W83937  41.387  36.022  13.059
20379W        W83938  13.840  22.710  12.841
20380W        W83939  25.101  19.677  12.861
20381W        W83940  26.495   3.898   2.745
20382W        W83941  16.738  17.116  13.016
20383W        W83942  30.992   2.932  10.415
20384W        W83943   5.229   5.919  11.059
20385W        W83944   3.355  16.108  13.324
20386W        W83945  37.943  27.097  12.909
20387W        W83946  26.661  20.178   3.146
20388W        W83947  34.948  14.654   1.774
20389W        W83948  32.925  33.930  11.875
20390W        W83949  31.974  31.569   1.914
20391W        W83950  28.998   3.417   1.428
20392W        W83951   1.390  40.808   0.917
20393W        W83952  27.682  34.386  11.399
20394W        W83953  26.182  20.083  11.388
20395W        W83954  42.360  17.081  14.365
20396W        W83955  22.022  11.322   0.252
20397W        W83956  13.828  29.522  13.884
20398W        W83957  22.232   4.940   0.441
20399W        W83958  10.716   1.813  12.951
20400W        W83959  18.266   6.310  14.854
20401W        W83960  17.177   7.784  11.114
20402W        W83961  43.911   1.279   1.266
20403W        W83962   1.246   9.341   0.263
20404W        W83963  34.106  14.606   2.670
20405W        W83964  12.774   2.304  13.421
20406W        W83965   9.388  23.728   0.967
20407W        W83966  11.762  43.499  14.463
20408W        W83967  21.179  23.023   3.199
20409W        W83968   6.304  30.636   3.287
20410W        W83969  30.616  36.518   4.332
20411W        W83970  40.439   7.220   1.856
20412W        W83971  43.463   3.933  13.381
20413W        W83972  38.487  25.211   0.366
20414W        W83973  24.109   6.324  11.610
20415W        W83974   7.212   4.229   3.292
20416W        W83975  31.567  38.957  14.788
20417W        W83976   8.758  43.461  13.829
20418W        W83977  23.668  18.069   3.781
20419W        W83978   6.747  22.561   0.769
20420W        W83979   6.743  19.077   2.810
20421W        W83980  37.006   6.723  13.490
20422W        W83981  22.622  37.462  10.061
20423W        W83982  16.153  38.550   1.287
20424W        W83983  25.694   5.320  13.480
20425W        W83984  21.235   9.650   1.702
20426W        W83985   0.890  41.406   9.984
20427W        W83986   7.260  42.493  14.860
20428W        W83987  18.136  28.024   0.341
20429W        W83988  27.048  13.332   4.213
20430W        W83989  28.107  38.934   4.234
20431W        W83990  43.896  29.048   0.392
20432W        W83991  29.514   9.377   2.871
20433W        W83992   2.304  16.096   3.182
20434W        W83993  19.695   6.713  14.808
20435W        W83994   3.429   9.774  14.870
20436W        W83995  37.371   6.911   0.953
20437W        W83996  14.717   1.430  14.759
20438W        W83997  24.136  18.273  11.490
20439W        W83998  13.643  18.768   0.383
20440W        W83999   2.472  26.699   2.202
20441W        W84000  23.711  33.057  13.822
20442W        W84001   4.442   2.263   0.875
20443W        W84002  32.055  44.468   4.648
20444W        W84003  19.662  11.858   3.733
20445W        W84004   9.321  40.936  12.534
20446W        W84005  12.285   9.275   2.240
20447W        W84006  30.566   1.970   0.432
20448W        W84007  17.225  17.143  13.386
20449W        W84008  22.043  28.474  14.963
20450W        W84009  17.160  14.822   1.745
20451W        W84010  31.531  23.690   0.763
20452W        W84011   6.348  36.045  12.892
20453W        W84012  30.128  12.331  11.119
20454W        W84013  19.213   7.816  10.958
20455W        W84014  36.990   5.807   1.858
20456W        W84015  10.223  32.558  12.932
20457W        W84016   7.287   0.397  12.892
20458W        W84017  23.027   6.903   0.818
20459W        W84018   9.801   3.319   2.252
20460W        W84019  12.817  10.259   2.871
20461W        W84020  21.706  15.596  14.902
20462W        W84021  42.511  34.068   1.265
20463W        W84022   5.200   5.880   0.270
20464W        W84023  26.976  37.505   3.240
20465W        W84024  25.105   5.428   4.826
20466W        W84025  44.822  22.077  11.076
20467W        W84026  31.433  31.997  11.376
20468W        W84027  22.080  12.263   2.815
20469W        W84028   9.274   5.235  11.454
20470W        W84029  25.094  37.881  14.833
20471W        W84030  40.042  28.538   4.123
20472W        W84031  21.607  11.773  10.994
20473W        W84032   4.245   3.784  14.854
20474W        W84033   9.283   8.375   0.836
20475W        W84034  34.600  25.586  14.287
20476W        W84035  15.656  15.254   4.781
20477W        W84036  32.437  15.292   1.295
20478W        W84037  12.218  17.143   3.861
20479W        W84038  30.516   0.391   2.305
20480W        W84039  38.542   4.837   2.684
20481W        W84040  12.650  20.667  12.021
20482W        W84041  42.824  35.961  14.032
20483W        W84042  20.684   5.863   4.695
20484W        W84043   5.698  29.983   0.740
20485W        W84044  44.895  30.039  14.322
20486W        W84045  26.577   8.661  14.461
20487W        W84046  24.038  24.722   4.684
20488W        W84047  31.587  13.686   2.400
20489W        W84048  44.409   9.784  12.387
20490W        W84049  15.215  12.689  12.826
20491W        W84050  29.498   2.746  13.907
20492W        W84051  14.800  13.787  12.560
20493W        W84052   0.898  31.602  14.022
20494W        W84053  33.625   5.852  13.922
20495W        W84054   0.764  44.978  10.615
20496W        W84055   8.674  22.655   1.395
20497W        W84056  13.664  33.039  12.427
20498W        W84057  19.541  11.860   2.897
20499W        W84058  29.054  42.974  13.329
20500W        W84059  13.846   3.915  12.565
20501W        W84060   6.798  35.391  11.401
20502W        W84061  10.826  10.176  12.432
20503W        W84062  31.974  36.057   1.931
20504W        W84063  19.680  17.591   1.338
20505W        W84064  26.120  28.152  13.921
20506W        W84065  22.705   6.280  14.308
20507W        W84066   4.769   1.435   4.788
20508W        W84067  14.263  27.145  12.899
20509W        W84068  39.415  32.118  10.418
20510W        W84069   8.766  21.138  12.892
20511W        W84070  29.166   3.909  13.425
20512W        W84071  27.510  19.142  11.121
20513W        W84072   5.301  29.072   2.682
20514W        W84073  19.666   1.875   3.866
20515W        W84074  38.964  23.497  12.848
20516W        W84075  40.421  22.044  12.564
20517W        W84076   8.682  13.614  13.316
20518W        W84077   3.319  38.075   4.150
20519W        W84078  40.961  20.748   0.911
20520W        W84079  26.673  19.541   3.781
20521W        W84080  13.799  25.125   5.114
20522W        W84081  29.121  40.945   4.178
20523W        W84082  21.703   7.239  14.841
20524W        W84083  32.094  28.472  14.919
20525W        W84084  39.522  27.010  13.814
20526W        W84085  30.568  40.381   0.891
20527W        W84086  22.577  25.077  12.883
20528W        W84087  39.918  44.893  14.507
20529W        W84088  41.357  10.872  11.052
20530W        W84089  22.035  19.050  14.471
20531W        W84090  10.833   7.680   4.615
20532W        W84091  44.939  22.087  11.418
20533W        W84092   2.855  44.891  12.555
20534W        W84093  39.459  39.483   0.385
20535W        W84094  11.725  23.018  11.494
20536W        W84095  23.573  12.634   3.848
20537W        W84096  32.919   6.282  11.084
20538W        W84097   6.400  44.966   4.343
20539W        W84098  21.227   1.789   0.847
20540W        W84099  44.334  40.955   3.768
20541W        W84100  18.200  18.583  12.483
20542W        W84101  41.442  23.194   3.803
20543W        W84102   8.377  28.539  11.097
20544W        W84103  34.470  22.535  13.328
20545W        W84104  34.926  11.751   4.601
20546W        W84105   1.738  24.654  13.815
20547W        W84106  10.740  37.027  10.982
20548W        W84107  27.942  17.254   0.401
20549W        W84108   0.912   2.266   2.219
20550W        W84109  29.067  36.997  11.467
20551W        W84110  10.181  33.088  10.956
20552W        W84111  30.066  40.480  11.484
20553W        W84112  36.098  15.210  13.401
20554W        W84113  18.744   9.386  13.923
20555W        W84114   4.916  26.504   0.872
20556W        W84115   6.382  26.606  13.502
20557W        W84116  23.183  25.072   2.774
20558W        W84117  17.623  26.599  13.998
20559W        W84118  31.932  15.699  11.561
20560W        W84119   2.290  12.258  12.035
20561W        W84120   5.193   1.830   1.844
20562W        W84121  15.160  34.388   0.312
20563W        W84122   5.700  17.665   4.225
20564W        W84123  41.397  23.052   0.474
20565W        W84124  17.300  26.696  12.027
20566W        W84125  21.533  37.381   5.213
20567W        W84126  20.090  40.428   3.863
20568W        W84127  28.165   9.354   0.780
20569W        W84128  12.263  41.515   0.826
20570W        W84129   4.437  42.408  13.869
20571W        W84130  27.665  38.867  13.825
20572W        W84131  34.445  16.281  14.338
20573W        W84132  36.047   6.274   0.849
20574W        W84133  25.091  15.188   4.229
20575W        W84134   2.783  33.431   0.819
20576W        W84135  20.553  14.612   0.826
20577W        W84136   5.326  38.548  14.304
20578W        W84137  10.859  10.745  13.061
20579W        W84138   4.934   3.291  11.450
20580W        W84139  15.124   9.230  13.418
20581W        W84140   2.937   0.772   4.749
20582W        W84141  28.018  40.425  13.042
20583W        W84142  42.380  15.644   3.839
20584W        W84143  17.668  14.594  11.465
20585W        W84144  29.602   3.730  11.439
20586W        W84145  24.499  14.212  13.929
20587W        W84146   0.853  43.495   2.362
20588W        W84147   7.856  39.505  11.072
20589W        W84148  39.005  34.599   1.369
20590W        W84149   2.896  40.960   3.692
20591W        W84150  34.989  16.213   2.334
20592W        W84151  35.104   7.905  13.429
20593W        W84152  44.443  42.385   0.386
20594W        W84153  27.020  18.769   4.122
20595W        W84154   5.199  24.128  13.892
20596W        W84155  10.800  36.365   3.742
20597W        W84156   2.358  25.042   1.926
20598W        W84157  26.680  17.557   4.297
20599W        W84158  34.121  26.681  12.415
20600W        W84159  27.993  31.408  14.372
20601W        W84160  16.157  16.303   1.774
20602W        W84161   0.445  37.941   1.712
20603W        W84162  25.197   3.800   2.257
20604W        W84163  29.567  37.923  12.374
20605W        W84164  23.490  27.537   2.823
20606W        W84165  37.942  25.629   4.633
20607W        W84166   9.721  32.562   2.207
20608W        W84167   3.326  44.350  10.987
20609W        W84168  44.917   8.391  12.572
20610W        W84169  21.667  10.174   3.664
20611W        W84170  14.272   0.470  11.074
20612W        W84171   8.756  10.723  12.438
20613W        W84172  38.383   3.260   1.697
20614W        W84173  34.442  27.543  13.918
20615W        W84174  38.475  36.021  10.899
20616W        W84175  32.940   6.356   1.760
20617W        W84176  15.749  13.239   5.110
20618W        W84177  10.702  15.130   2.735
20619W        W84178  27.631  35.441  12.387
20620W        W84179  43.338  22.138  13.048
20621W        W84180  26.159  37.350  10.640
20622W        W84181  37.393  12.346  10.594
20623W        W84182   4.326  10.763   2.253
20624W        W84183  15.193  25.601   1.392
20625W        W84184  22.126  40.837  11.502
20626W        W84185   2.325  38.351  10.429
20627W        W84186  20.190   0.454  12.935
20628W        W84187   2.775  38.040   0.416
20629W        W84188  15.205  21.254  13.470
20630W        W84189  13.606  43.780  10.512
20631W        W84190  15.716   9.246   3.152
20632W        W84191   0.479  30.537   2.359
20633W        W84192  41.538  40.877   0.905
20634W        W84193  36.359  20.230  11.028
20635W        W84194  29.614  12.681   1.820
20636W        W84195  30.092   2.759   2.714
20637W        W84196  20.649  12.163  13.448
20638W        W84197   6.217  38.544   2.687
20639W        W84198  27.617  44.875  14.766
20640W        W84199  38.429  15.822  11.935
20641W        W84200  26.152  23.577   0.812
20642W        W84201  27.678  30.553   4.260
20643W        W84202  26.974   4.786   1.870
20644W        W84203  27.123  30.632  11.127
20645W        W84204   8.244  30.440   3.368
20646W        W84205  23.129  28.661   0.247
20647W        W84206  36.943   2.324   3.680
20648W        W84207   5.283   8.290  10.586
20649W        W84208  39.326  29.112  11.117
20650W        W84209   4.256  35.450   0.886
20651W        W84210   8.339  11.685  12.894
20652W        W84211  18.548  15.096   1.769
20653W        W84212  19.121  14.270  13.968
20654W        W84213  15.121  42.001  12.459
20655W        W84214  36.877  25.161  11.404
20656W        W84215   9.781  31.143   4.647
20657W        W84216  40.966  27.481   0.783
20658W        W84217  34.375  37.435  14.375
20659W        W84218  11.351  33.465   2.662
20660W        W84219   3.821  22.218   4.274
20661W        W84220   1.395  39.983   2.715
20662W        W84221  20.213  13.322   0.771
20663W        W84222   5.716  42.913  13.375
20664W        W84223  19.626  15.667   1.428
20665W        W84224  33.938   2.865  13.497
20666W        W84225  26.543  32.073  10.558
20667W        W84226   0.300  36.347   2.410
20668W        W84227  21.020   5.377  12.418
20669W        W84228  18.651  20.146   0.462
20670W        W84229  22.656  16.796   3.705
20671W        W84230  31.472  23.664  10.497
20672W        W84231   9.882  20.582  11.010
20673W        W84232  22.038   6.878   1.918
20674W        W84233  34.964  24.103  12.858
20675W        W84234  27.644  37.002   2.891
20676W        W84235  43.935  38.944  11.460
20677W        W84236  25.661   6.763   4.263
20678W        W84237  16.584  37.051   1.390
20679W        W84238  14.762   9.768  11.445
20680W        W84239  42.414  14.819  12.014
20681W        W84240  32.524   7.825  14.421
20682W        W84241  10.642  23.074  10.073
20683W        W84242  44.879  10.727   3.351
20684W        W84243   8.358   5.389   4.238
20685W        W84244  34.926  42.804  12.516
20686W        W84245  10.301  44.299   3.678
20687W        W84246  15.197  33.535  10.994
20688W        W84247  30.626  24.213   0.477
20689W        W84248  15.627  18.687   1.842
20690W        W84249   1.826  17.253  12.884
20691W        W84250   0.949  19.042  10.927
20692W        W84251  22.622  37.485   5.221
20693W        W84252  21.564  22.056  12.035
20694W        W84253  11.792   9.796  12.565
20695W        W84254  40.319  41.879  14.910
20696W        W84255   6.400  36.939   4.704
20697W        W84256  44.420  25.026   2.825
20698W        W84257  44.388  10.879   2.194
20699W        W84258  40.486   8.172  12.980
20700W        W84259  30.983  41.038   0.432
20701W        W84260  37.582  26.663   3.657
20702W        W84261  32.116  12.838   0.276
20703W        W84262   7.800   5.238   1.263
20704W        W84263  28.062   4.286  13.876
20705W        W84264  10.690  42.304  11.430
20706W        W84265  29.549   7.812  13.476
20707W        W84266   3.371  34.432   3.850
20708W        W84267  26.152  39.319  14.371
20709W        W84268  38.430  19.645   3.206
20710W        W84269  24.538   2.374   3.752
20711W        W84270  16.178  30.462   1.839
20712W        W84271  34.563  31.997  14.325
20713W        W84272  17.780   7.755   2.841
20714W        W84273   6.345  11.707  12.978
20715W        W84274   8.654  44.941  11.414
20716W        W84275  43.486  35.108   1.390
20717W        W84276  35.388  39.400  12.042
20718W        W84277  16.285  16.664  12.059
20719W        W84278   5.209  29.432  10.037
20720W        W84279  28.182  32.983  12.493
20721W        W84280  42.509  35.510   1.250
20722W        W84281  43.881  24.609   4.687
20723W        W84282  12.687  23.553   3.169
20724W        W84283  28.542  21.123   1.802
20725W        W84284  19.578  38.878  12.444
20726W        W84285  39.990  39.322  11.411
20727W        W84286  18.216  20.248  12.514
20728W        W84287  38.884  31.620  10.961
20729W        W84288  25.025  14.272  14.884
20730W        W84289   3.308  26.176  14.338
20731W        W84290  37.378  32.629   0.322
20732W        W84291  15.193  37.911  12.861
20733W        W84292  28.594  29.596   1.706
20734W        W84293  23.237  18.695   4.681
20735W        W84294  32.053  42.863  10.080
20736W        W84295  19.654  26.108   1.429
20737W        W84296  39.429  44.766   3.272
20738W        W84297  42.352  24.531  12.014
20739W        W84298  43.015  24.121   0.333
20740W        W84299  14.642  10.661   3.822
20741W        W84300  11.225  24.214   1.866
20742W        W84301  26.623  21.714  10.978
20743W        W84302  44.809   6.198  14.509
20744W        W84303  19.116   2.355   0.449
20745W        W84304  11.824  36.431  11.555
20746W        W84305  29.623   7.352  12.865
20747W        W84306  32.467  27.940   4.735
20748W        W84307  24.690  27.593   2.759
20749W        W84308  17.280  21.547   2.328
20750W        W84309   9.310  29.529  11.391
20751W        W84310  34.044  12.359   2.306
20752W        W84311  13.709   8.883  11.598
20753W        W84312   7.350  12.726  14.428
20754W        W84313  20.596   3.823  13.548
20755W        W84314  36.353  18.647  13.792
20756W        W84315  35.479   9.236  13.537
20757W        W84316  29.623  26.188  14.946
20758W        W84317  22.121  34.881   3.338
20759W        W84318  20.217  31.566  13.403
20760W        W84319  41.998  38.020   4.742
20761W        W84320   4.808  29.639   1.742
20762W        W84321  35.599  23.173   2.670
20763W        W84322   8.310   5.870   2.677
20764W        W84323  15.242  42.323  13.801
20765W        W84324  27.618  11.632   2.186
20766W        W84325  23.183  26.627  10.046
20767W        W84326   6.191  37.037   3.695
20768W        W84327  26.648  11.139  13.403
20769W        W84328  33.013  38.560   1.773
20770W        W84329  20.622  19.738   3.214
20771W        W84330   2.333  25.128  13.421
20772W        W84331  38.336  30.625   4.328
20773W        W84332   9.358  17.688   2.856
20774W        W84333  40.929  43.003  14.433
20775W        W84334  31.042  34.538  10.408
20776W        W84335   6.278   2.912  14.356
20777W        W84336   1.281  41.807  10.464
20778W        W84337  13.180  31.015  13.800
20779W        W84338   9.849   1.380   3.294
20780W        W84339  28.519  40.031  11.887
20781W        W84340  42.830  11.365   4.322
20782W        W84341  28.063  41.033  13.921
20783W        W84342  30.934  12.239  14.938
20784W        W84343  21.111  25.646  13.485
20785W        W84344  16.146  30.628   1.368
20786W        W84345  37.920  11.223   0.263
20787W        W84346  10.697  15.218  11.121
20788W        W84347  21.674  34.965   4.648
20789W        W84348  26.160  25.649   0.956
20790W        W84349  19.566   6.330  10.630
20791W        W84350  24.549   8.802  13.996
20792W        W84351  20.564  26.180   3.796
20793W        W84352  29.965   5.257   1.872
20794W        W84353   3.862  18.599  12.389
20795W        W84354  21.118   0.949  11.902
20796W        W84355  23.534   3.947  11.023
20797W        W84356  38.360  28.662   1.416
20798W        W84357  15.191  42.423   0.371
20799W        W84358  37.519  33.954   5.577
20800W        W84359   1.344   1.239   1.836
20801W        W84360   7.813  13.201   2.191
20802W        W84361  26.971  39.522  11.012
20803W        W84362  39.346   0.373  14.510
20804W        W84363  29.519  31.422  11.089
20805W        W84364  17.639   9.880  13.983
20806W        W84365  15.754   5.692  12.429
20807W        W84366  19.087  44.764  11.506
20808W        W84367  15.647  12.756   2.778
20809W        W84368  39.006   8.739   3.249
20810W        W84369  29.464  15.211   1.437
20811W        W84370  44.463   8.323  13.047
20812W        W84371  11.640  35.565   1.867
20813W        W84372  24.609  21.181   0.466
20814W        W84373   4.253   2.886  12.996
20815W        W84374  31.092  26.692   5.131
20816W        W84375  18.258  34.877   2.310
20817W        W84376   8.784  11.675   1.446
20818W        W84377  22.722  19.624  14.415
20819W        W84378  23.034  11.260  12.527
20820W        W84379  38.399   8.703   0.868
20821W        W84380  42.998   8.768  13.349
20822W        W84381  26.656   3.901   3.242
20823W        W84382  43.917  17.641  13.514
20824W        W84383  31.027  43.991  13.973
20825W        W84384  16.259  31.944   1.904
20826W        W84385   4.322   5.256  11.508
20827W        W84386  21.161  37.056  10.561
20828W        W84387   2.290  34.475  10.934
20829W        W84388  25.991  12.202   3.174
20830W        W84389  28.060  13.333   3.677
20831W        W84390  10.143  10.342   0.871
20832W        W84391  21.049  17.123  13.870
20833W        W84392  27.051  16.278  10.992
20834W        W84393   3.341  28.960  13.468
20835W        W84394   5.245   8.742  13.921
20836W        W84395  27.582  32.493  12.403
20837W        W84396  37.949  28.938  13.967
20838W        W84397  35.384  23.659   3.632
20839W        W84398   2.721  32.438  12.453
20840W        W84399  38.827  20.626  12.080
20841W        W84400   5.427  43.392  14.416
20842W        W84401  31.517  38.397   0.318
20843W        W84402  43.282  18.118   3.765
20844W        W84403  14.199  25.005   3.846
20845W        W84404  38.992  14.806  13.519
20846W        W84405  41.533  32.491   4.832
20847W        W84406  41.835  34.386  14.288
20848W        W84407   1.870   4.394  14.317
20849W        W84408  33.032  38.467  13.496
20850W        W84409  42.311   0.919  14.834
20851W        W84410  18.057   9.341   0.850
20852W        W84411   6.693  12.698  13.890
20853W        W84412  15.324   9.214   0.794
20854W        W84413   5.247  12.145   2.713
20855W        W84414  32.905  13.332   4.836
20856W        W84415  36.985  25.620   1.249
20857W        W84416  19.644   1.346  13.864
20858W        W84417  36.918  42.977  11.460
20859W        W84418  39.948  19.640  11.885
20860W        W84419  27.560  33.922   3.349
20861W        W84420  41.794  20.193  13.516
20862W        W84421  28.101   7.179   1.825
20863W        W84422  10.674  10.318  10.451
20864W        W84423  23.112   5.328  14.983
20865W        W84424   1.742  19.573   4.835
20866W        W84425  14.234  43.345  11.557
20867W        W84426  31.607  37.014  12.364
20868W        W84427  41.387  34.084   3.750
20869W        W84428  40.322   0.422   3.309
20870W        W84429  28.993  39.437   2.289
20871W        W84430  27.502  30.594   1.363
20872W        W84431  36.940  38.973  10.450
20873W        W84432  37.371  26.544   2.784
20874W        W84433  35.881  15.279   1.927
20875W        W84434  40.359  16.812   4.690
20876W        W84435   3.915   9.308   1.284
20877W        W84436  40.927  22.592  13.405
20878W        W84437   3.404  29.004   0.735
20879W        W84438  12.300   8.803   2.877
20880W        W84439  38.362  44.338  10.413
20881W        W84440  34.911  40.933   2.745
20882W        W84441   8.343   7.864  10.433
20883W        W84442  26.087  20.049   5.722
20884W        W84443  16.770   2.310  11.104
20885W        W84444  12.234  30.533   1.420
20886W        W84445  35.105  32.567  13.340
20887W        W84446  29.071  28.668  12.880
20888W        W84447   6.318  23.089  13.023
20889W        W84448  23.550   6.213  14.032
20890W        W84449   3.250  28.143   3.735
20891W        W84450  19.251  11.825  12.982
20892W        W84451  39.464  12.196   2.767
20893W        W84452  16.797  26.479  12.930
20894W        W84453  39.810  19.578   3.354
20895W        W84454  24.178  21.545  12.564
20896W        W84455  44.995   9.847  13.487
20897W        W84456  44.858  40.508  13.827
20898W        W84457  32.983  13.329  11.956
20899W        W84458   4.775  32.607  13.943
20900W        W84459  40.024  26.505  13.540
20901W        W84460  24.097  39.449  11.457
20902W        W84461  15.661  19.743   1.777
20903W        W84462  19.078  30.968  12.089
20904W        W84463  27.122   7.170  12.948
20905W        W84464  26.166   3.800  13.471
20906W        W84465  19.767   5.709   1.319
20907W        W84466  32.907  13.634   1.273
20908W        W84467  39.869  12.718   2.713
20909W        W84468  41.308  41.797  13.882
20910W        W84469  44.794  39.965   3.337
20911W        W84470  17.653  24.659   3.713
20912W        W84471  25.216  21.643   1.253
20913W        W84472  27.944  11.855   3.678
20914W        W84473  15.654  31.563   9.976
20915W        W84474   0.398  29.975   4.764
20916W        W84475  11.256   3.418  11.490
20917W        W84476   7.214   7.225  12.923
20918W        W84477  42.963  23.571  14.899
20919W        W84478  24.479  15.150  13.824
20920W        W84479  33.520  27.527  10.525
20921W        W84480  18.781  33.978  11.925
20922W        W84481   2.779   7.752   3.162
20923W        W84482  37.486  29.955   4.666
20924W        W84483  15.705  34.593   3.847
20925W        W84484  19.776   3.360  14.831
20926W        W84485  38.551  25.092   2.662
20927W        W84486  31.046  29.959   1.329
20928W        W84487  11.678   6.222   0.482
20929W        W84488  11.182  44.993  12.856
20930W        W84489  11.356  41.794  13.970
20931W        W84490  15.164  14.253  13.478
20932W        W84491  36.399  35.981   2.887
20933W        W84492  43.313  32.406  11.014
20934W        W84493  20.698   5.411   1.787
20935W        W84494  43.288  27.965  14.976
20936W        W84495  42.911  29.154   2.190
20937W        W84496   8.406   6.701  11.870
20938W        W84497   5.905  39.350  13.467
20939W        W84498   5.901  14.096  12.529
20940W        W84499  15.621  15.167   3.215
20941W        W84500  12.334   5.422  12.976
20942W        W84501  16.736  23.639  13.984
20943W        W84502  24.194  20.624   1.307
20944W        W84503   0.766  19.134   3.733
20945W        W84504  18.273   4.243   1.220
20946W        W84505  28.044  36.476   4.336
20947W        W84506  25.589  28.989  11.101
20948W        W84507   3.821  24.027   0.941
20949W        W84508  28.932  44.968  10.567
20950W        W84509  10.337  13.810   3.204
20951W        W84510  19.106  21.138  11.554
20952W        W84511  28.175  24.188  14.944
20953W        W84512  19.725  22.525  13.847
20954W        W84513   5.915  10.237  14.023
20955W        W84514   9.764  10.221  11.982
20956W        W84515  29.123  43.302   1.824
20957W        W84516   9.697  10.811   3.178
20958W        W84517   3.908  42.816   0.368
20959W        W84518  19.121   0.885  14.954
20960W        W84519   4.382   0.297   3.746
20961W        W84520  30.545   0.826  13.971
20962W        W84521   9.353   5.698   4.805
20963W        W84522   9.236  36.869   2.854
20964W        W84523   6.277  39.361  14.492
20965W        W84524  13.307  17.723   1.294
20966W        W84525   2.254   1.947   0.745
20967W        W84526  37.082  35.998   0.827
20968W        W84527  16.602  21.745   0.768
20969W        W84528  39.868  29.109   2.758
20970W        W84529  19.083  34.545   1.242
20971W        W84530  23.010  19.655   1.337
20972W        W84531  27.471  21.229   0.760
20973W        W84532  19.121  18.274   4.617
20974W        W84533  28.515  19.089  14.918
20975W        W84534   1.930  25.113   1.301
20976W        W84535  27.688   4.725  14.903
20977W        W84536  38.352  29.445  12.062
20978W        W84537  14.256  21.194   0.787
20979W        W84538  33.090  42.355  10.417
20980W        W84539  39.997  42.839   2.348
20981W        W84540  32.952  10.844  12.473
20982W        W84541  30.525   0.946   1.249
20983W        W84542  10.725  39.848  13.464
20984W        W84543   4.869  29.121   0.892
20985W        W84544  36.972  40.032  10.538
20986W        W84545  20.569   0.279  12.948
20987W        W84546   8.745  28.610  11.423
20988W        W84547  28.061  15.693   2.702
20989W        W84548  41.323  35.908   2.341
20990W        W84549  20.152  11.724   1.806
20991W        W84550  17.098  28.436  12.529
20992W        W84551  36.352  38.379   4.743
20993W        W84552  18.247  15.602   0.738
20994W        W84553  41.319  35.398  11.441
20995W        W84554   3.336   8.709   2.236
20996W        W84555  31.501  20.084  13.525
20997W        W84556   5.419   2.235  14.421
20998W        W84557  10.656  35.578   1.393
20999W        W84558  13.350   1.425   1.841
21000W        W84559  13.110  24.168  12.026
21001W        W84560  34.975  18.587   0.830
21002W        W84561   7.827  32.499  10.483
21003W        W84562  19.678  44.373   3.155
21004W        W84563  15.146   6.200   0.922
21005W        W84564  11.208   5.431  10.626
21006W        W84565  35.438  17.267  14.905
21007W        W84566   5.414   0.419  11.869
21008W        W84567  39.994  41.431   1.234
21009W        W84568   9.377  12.348  13.404
21010W        W84569  34.461  21.741  12.384
21011W        W84570  34.963  23.012  12.348
21012W        W84571   4.746  28.528   1.792
21013W        W84572   5.843  18.720  14.437
21014W        W84573   8.184  27.480  11.399
21015W        W84574  29.584   8.338   3.692
21016W        W84575  15.138  23.039   2.741
21017W        W84576   0.759  39.317  13.988
21018W        W84577  11.728  44.933   2.212
21019W        W84578  37.840  40.031  14.487
21020W        W84579   7.677  21.041   2.670
21021W        W84580  11.717  42.998  14.281
21022W        W84581   1.944  37.946  10.922
21023W        W84582   7.799   8.741   4.271
21024W        W84583  26.606  36.575  13.544
21025W        W84584   8.670  27.004  13.016
21026W        W84585   9.175  18.099  12.397
21027W        W84586  37.920  13.155   1.416
21028W        W84587  42.968  39.494   1.917
21029W        W84588  42.514   7.360  14.463
21030W        W84589  25.000  25.078  11.068
21031W        W84590   2.882  38.843  12.381
21032W        W84591  21.736  34.864   0.850
21033W        W84592   4.796   5.303  12.852
21034W        W84593  24.004   1.249  13.317
21035W        W84594  44.389  19.252   4.713
21036W        W84595  27.510  16.685   2.180
21037W        W84596  19.189  17.075  13.817
21038W        W84597  39.409  16.726  13.009
21039W        W84598  41.818  42.415  13.531
21040W        W84599  41.834  14.282  10.586
21041W        W84600  22.102  10.647   3.372
21042W        W84601  15.789  34.106   4.692
21043W        W84602  15.638  42.413  10.565
21044W        W84603   8.395  14.265  14.313
21045W        W84604  41.523  11.668   1.891
21046W        W84605  39.460   9.718   1.838
21047W        W84606  40.455  34.480  14.881
21048W        W84607   2.248  43.352  13.994
21049W        W84608  36.494   1.817   2.418
21050W        W84609  18.127  40.898  10.937
21051W        W84610   9.743  26.487  13.031
21052W        W84611  33.389  39.518   3.276
21053W        W84612  21.041  25.511  10.436
21054W        W84613  28.036  23.676   0.451
21055W        W84614  11.655  44.999  10.633
21056W        W84615  11.729  18.167   3.696
21057W        W84616   9.374  14.294  14.879
21058W        W84617  42.327  31.116   3.772
21059W        W84618  38.426  18.222   2.214
21060W        W84619  10.813  28.187  12.399
21061W        W84620  31.117  13.738   2.727
21062W        W84621  11.251  34.928   4.810
21063W        W84622   0.942  28.508  11.487
21064W        W84623   8.836  43.446  10.890
21065W        W84624   5.790  23.085   4.340
21066W        W84625  18.171  37.448   3.646
21067W        W84626  11.805  35.358   0.856
21068W        W84627  27.681  26.471   4.818
21069W        W84628  29.429   4.410  10.989
21070W        W84629  26.000   5.327   2.266
21071W        W84630   0.252  29.626   3.693
21072W        W84631  21.071  29.158  12.402
21073W        W84632  44.841   0.292   3.201
21074W        W84633  22.646   2.441   1.759
21075W        W84634  16.651  35.500  13.496
21076W        W84635  40.903  15.084  13.453
21077W        W84636  42.424  30.041   3.645
21078W        W84637   9.253  18.208   0.397
21079W        W84638  38.337  23.166  13.408
21080W        W84639   9.246   0.796   3.752
21081W        W84640  35.066   9.809   9.573
21082W        W84641   2.767  15.217  10.949
21083W        W84642  21.524  22.243  10.946
21084W        W84643  25.988   0.276  11.423
21085W        W84644   0.411  26.528  13.454
21086W        W84645  33.941   8.696   3.853
21087W        W84646  27.478   9.748  11.053
21088W        W84647   6.811  13.709  11.578
21089W        W84648  38.351  27.500  12.463
21090W        W84649  35.362  44.977  11.996
21091W        W84650  24.544  44.316  14.299
21092W        W84651   0.399   8.382   4.340
21093W        W84652  37.992   8.398  11.597
21094W        W84653  43.405   2.255  14.838
21095W        W84654  21.069  44.919   2.859
21096W        W84655  31.064  30.013  11.985
21097W        W84656   0.384  36.068  14.495
21098W        W84657  18.656   8.324  11.886
21099W        W84658  28.480  13.229  13.404
21100W        W84659  33.876  32.526  14.788
21101W        W84660  13.109  29.516  11.876
21102W        W84661  36.866  26.044  14.817
21103W        W84662   9.281  10.263   1.358
21104W        W84663   1.893   4.233   3.802
21105W        W84664   2.381   9.283   1.388
21106W        W84665  30.555  28.553   2.252
21107W        W84666  44.977  33.456  11.086
21108W        W84667  24.219  43.416  14.338
21109W        W84668  37.074  35.547   4.259
21110W        W84669  16.699  44.918   2.732
21111W        W84670  16.073  40.833   3.319
21112W        W84671   3.835  33.472   3.771
21113W        W84672  14.784  31.983   2.374
21114W        W84673  37.893  38.346  14.328
21115W        W84674  37.514  13.764   1.888
21116W        W84675  20.219  19.719  12.932
21117W        W84676  23.078  32.893  13.005
21118W        W84677  12.312  16.146  11.423
21119W        W84678  24.497  24.691   4.337
21120W        W84679  32.575  19.766  10.424
21121W        W84680   8.842  15.306   1.379
21122W        W84681  35.523  11.292  12.495
21123W        W84682  12.824  37.533   2.772
21124W        W84683  33.881  38.559   0.391
21125W        W84684  42.377  39.434  11.601
21126W        W84685  10.851   4.806   4.281
21127W        W84686  28.622  37.465   2.317
21128W        W84687  10.713  27.999  11.431
21129W        W84688  39.371   8.846  11.373
21130W        W84689  12.843  13.655  13.915
21131W        W84690  40.476  14.695   3.268
21132W        W84691  27.638   0.781   0.298
21133W        W84692  38.338  18.272   3.679
21134W        W84693  30.012   3.286  12.894
21135W        W84694  14.175  42.967   4.796
21136W        W84695  43.490  13.844   1.240
21137W        W84696  36.573   1.366   1.773
21138W        W84697  43.457  25.621  14.377
21139W        W84698  22.575  16.602   0.354
21140W        W84699   0.859  44.476  13.805
21141W        W84700   6.845  32.981   0.764
21142W        W84701  37.874  13.316  14.334
21143W        W84702  19.698  29.175   9.486
21144W        W84703   3.399  28.078   0.768
21145W        W84704   3.808   3.302   3.260
21146W        W84705   0.829  10.151  10.555
21147W        W84706  26.507  21.197  12.425
21148W        W84707  14.638  13.690  10.630
21149W        W84708  13.676  29.540  12.918
21150W        W84709  11.197  28.119  14.424
21151W        W84710  18.614  41.787   3.742
21152W        W84711   9.283  22.500   4.645
21153W        W84712  31.032  20.144  10.441
21154W        W84713  17.736  24.158  10.987
21155W        W84714  17.762   9.368  13.955
21156W        W84715   0.295  18.546  12.096
21157W        W84716  33.048  28.469   0.813
21158W        W84717  21.625  34.111   1.345
21159W        W84718  23.056  18.154   3.708
21160W        W84719  25.068  21.558  13.796
21161W        W84720  27.636  19.228  13.905
21162W        W84721  23.098  35.015  13.015
21163W        W84722  41.423   9.251   2.883
21164W        W84723  20.765  44.779   4.227
21165W        W84724   9.734   8.822   2.704
21166W        W84725  15.208  27.686  11.856
21167W        W84726  25.573  32.504  10.475
21168W        W84727   2.339  28.006  13.324
21169W        W84728   2.330  24.096   2.350
21170W        W84729  16.259  12.241  13.446
21171W        W84730  23.214  44.441  12.362
21172W        W84731  32.602   5.406  13.463
21173W        W84732  27.065  27.578   4.759
21174W        W84733  11.758  19.096  14.323
21175W        W84734  27.632  15.813   2.207
21176W        W84735  43.902   1.397  13.536
21177W        W84736  22.727  43.326   3.746
21178W        W84737  35.563  26.047   2.364
21179W        W84738  17.148  34.060  14.292
21180W        W84739  34.500  37.044  14.491
21181W        W84740  13.673   6.842   1.882
21182W        W84741   1.389  27.454  13.448
21183W        W84742  17.580  37.936   1.729
21184W        W84743  26.644  44.298   1.222
21185W        W84744  34.944  28.155   5.173
21186W        W84745   8.783  12.171   2.691
21187W        W84746  28.505  27.585  14.946
21188W        W84747  11.271  32.041  13.865
21189W        W84748  12.135  34.404   1.387
21190W        W84749  43.464  36.965   4.825
21191W        W84750   8.292  33.602  10.562
21192W        W84751   9.856  35.365   1.860
21193W        W84752  36.360  42.458  14.475
21194W        W84753  41.515  32.020  11.603
21195W        W84754  19.194  36.050  12.005
21196W        W84755  33.518  29.127   4.660
21197W        W84756  26.631   2.938   4.267
21198W        W84757  11.337  40.851   1.899
21199W        W84758  15.264  43.856  10.430
21200W        W84759  20.761  36.374   2.834
21201W        W84760  23.011  17.131  13.843
21202W        W84761  16.121  37.337  13.029
21203W        W84762  40.358  42.486   1.432
21204W        W84763  43.944   3.442  13.917
21205W        W84764  41.802  13.120   0.781
21206W        W84765   1.243  30.595   3.782
21207W        W84766  41.444   4.259   1.872
21208W        W84767  23.003   3.886  13.037
21209W        W84768   8.727  22.730   2.816
21210W        W84769  29.958  21.262  10.568
21211W        W84770  29.161  22.567   4.610
21212W        W84771  28.054  13.279  12.933
21213W        W84772  40.351  13.631   0.272
21214W        W84773  44.845  40.989   1.262
21215W        W84774  27.046  20.148   9.995
21216W        W84775  43.778  24.160   2.832
21217W        W84776  21.722  37.853  10.407
21218W        W84777   8.750   7.762  13.024
21219W        W84778  17.185  27.146  13.035
21220W        W84779  29.030  41.420  14.452
21221W        W84780  41.302   4.825   0.812
21222W        W84781  42.890  41.327  13.050
21223W        W84782  33.044  11.126  10.943
21224W        W84783  15.311  39.521   1.887
21225W        W84784   3.381  16.158  12.888
21226W        W84785  26.553  31.913   2.676
21227W        W84786  34.960  17.618   0.768
21228W        W84787  44.973  35.945   3.655
21229W        W84788   8.859  39.353  10.443
21230W        W84789  27.179  37.915  14.997
21231W        W84790  35.935  22.173   4.216
21232W        W84791  39.510   4.218   3.217
21233W        W84792  11.179  37.344  14.780
21234W        W84793  24.065  28.126   3.631
21235W        W84794  18.242  15.581   1.303
21236W        W84795  39.851  10.839  14.905
21237W        W84796   7.191  36.363   0.279
21238W        W84797  31.503  39.479  11.394
21239W        W84798  20.754  33.913  11.426
21240W        W84799  39.022  22.516   5.099
21241W        W84800   0.267  44.502  14.400
21242W        W84801  43.814  25.557  13.012
21243W        W84802  11.296  40.368  14.325
21244W        W84803   9.795  33.105   2.394
21245W        W84804  19.603  30.079  13.341
21246W        W84805   4.845  33.425  13.916
21247W        W84806  35.005  41.015   1.242
21248W        W84807  26.595  27.044  10.426
21249W        W84808   0.808  31.572  10.995
21250W        W84809  35.462  35.483   1.864
21251W        W84810  31.016  40.920  14.831
21252W        W84811   5.869  10.335  11.891
21253W        W84812  11.274   8.386  11.569
21254W        W84813  21.586  11.355  10.536
21255W        W84814  24.056  20.115  14.325
21256W        W84815  36.071  42.487   4.210
21257W        W84816  38.501   8.254  10.524
21258W        W84817  10.159  37.941  11.930
21259W        W84818  14.148  12.721  14.331
21260W        W84819  18.257  32.496  12.511
21261W        W84820  33.971  25.708   4.823
21262W        W84821  26.154  32.498   2.232
21263W        W84822  23.518  25.489   1.724
21264W        W84823  38.329   4.361   1.779
21265W        W84824  11.647   2.759   1.348
21266W        W84825  11.362  22.590   4.620
21267W        W84826  42.357   2.764  14.952
21268W        W84827  22.622  12.140  11.061
21269W        W84828  17.285  27.102   1.230
21270W        W84829  22.185  25.217  12.914
21271W        W84830  28.557   2.871  13.009
21272W        W84831  36.856   1.895  12.827
21273W        W84832  31.636  12.352   1.924
21274W        W84833   3.719  23.668   2.204
21275W        W84834  23.713  39.938  12.878
21276W        W84835  26.551   5.873   3.740
21277W        W84836  22.739  34.448   0.250
21278W        W84837  39.424  34.951  10.637
21279W        W84838   1.325  13.309   0.443
21280W        W84839  26.050  44.914   3.339
21281W        W84840  13.211  26.672   0.355
21282W        W84841  43.852  35.057   0.385
21283W        W84842   3.850   8.290   4.727
21284W        W84843  29.058  23.537   3.360
21285W        W84844  29.081  27.968   1.243
21286W        W84845  25.038  31.611   3.727
21287W        W84846   0.743  17.659  10.534
21288W        W84847  26.118  25.019  12.400
21289W        W84848  18.679  30.650  14.966
21290W        W84849  44.276  41.882   4.267
21291W        W84850   3.287  41.476  11.581
21292W        W84851  31.456  30.108  13.938
21293W        W84852  12.826  21.645   5.198
21294W        W84853  38.046  18.174   4.243
21295W        W84854  24.537   8.831  10.931
21296W        W84855  24.057   2.795   0.823
21297W        W84856   6.903   0.890  11.431
21298W        W84857  24.512  17.670  14.495
21299W        W84858  22.236  38.329  14.424
21300W        W84859  15.757  32.522   4.690
21301W        W84860  24.106  24.069   1.243
21302W        W84861  20.527  29.491  14.450
21303W        W84862  35.590  43.496  11.541
21304W        W84863   2.845  10.188  12.418
21305W        W84864  39.547  35.449   5.276
21306W        W84865  27.183   3.387   0.403
21307W        W84866  42.413  10.182  13.503
21308W        W84867  11.817  21.746  13.548
21309W        W84868  44.308  21.211   5.250
21310W        W84869  33.442  28.523  14.933
21311W        W84870  33.521   0.873   3.812
21312W        W84871   5.828  29.134  13.429
21313W        W84872  15.653   8.825  11.499
21314W        W84873   8.723   1.351   3.225
21315W        W84874  28.436  15.681  13.008
21316W        W84875  11.862  21.169   4.312
21317W        W84876  43.465  10.384   0.950
21318W        W84877  43.854   3.749  13.331
21319W        W84878   6.238  26.695  10.049
21320W        W84879  13.779  30.630  14.939
21321W        W84880  20.702  21.675  12.831
21322W        W84881  20.033  36.033  11.410
21323W        W84882   5.375  33.110   4.147
21324W        W84883  20.113  36.426  11.391
21325W        W84884  37.511  36.060   1.774
21326W        W84885   7.721   8.791   0.351
21327W        W84886  23.042  12.151   4.716
21328W        W84887  41.476  40.010   2.214
21329W        W84888  10.272  13.757  12.824
21330W        W84889  22.695  33.463   3.350
21331W        W84890  10.319  34.457   1.228
21332W        W84891  44.313   5.256  13.313
21333W        W84892  23.237  36.864   2.351
21334W        W84893  29.150  13.256  13.962
21335W        W84894   4.360  10.807  13.960
21336W        W84895  44.269  14.648   2.737
21337W        W84896  19.659  25.066  13.013
21338W        W84897  26.135   1.862  11.121
21339W        W84898  41.004  44.762   4.167
21340W        W84899  24.518   1.332  11.516
21341W        W84900  34.532  28.485  13.434
21342W        W84901  28.469  26.020   0.303
21343W        W84902   3.748  26.081   1.695
21344W        W84903  44.893  23.545   0.297
21345W        W84904  30.988  24.724   3.190
21346W        W84905  39.015  35.110   4.225
21347W        W84906  10.376   2.797  10.633
21348W        W84907  30.129  20.083  13.478
21349W        W84908   8.694  19.678  11.856
21350W        W84909  21.038  21.207   5.222
21351W        W84910  27.977   5.889  12.526
21352W        W84911   6.306  12.825   4.822
21353W        W84912  12.326  11.629   3.257
21354W        W84913  30.532   7.751  14.849
21355W        W84914  24.124  41.832   2.711
21356W        W84915   3.431  36.347   4.202
21357W        W84916  41.900  40.923  14.780
21358W        W84917  17.216   0.423   1.912
21359W        W84918  32.972  11.625  12.014
21360W        W84919   9.237  28.170  12.044
21361W        W84920  21.738  41.529  10.486
21362W        W84921   3.925  25.114   3.361
21363W        W84922  10.305  18.102  11.993
21364W        W84923   0.779  27.641  14.317
21365W        W84924  14.729   7.680   0.339
21366W        W84925   8.206  34.612  10.529
21367W        W84926  16.613   8.877  11.126
21368W        W84927  40.027  19.234   2.725
21369W        W84928  28.047   8.184   4.663
21370W        W84929  10.671  14.641  14.965
21371W        W84930  11.264  11.814   1.369
21372W        W84931  20.058  10.646  11.379
21373W        W84932  10.311  32.027   0.288
21374W        W84933  13.248   1.338  11.066
21375W        W84934  17.165  10.146  12.364
21376W        W84935  44.773  31.987  13.797
21377W        W84936  33.388  37.499  10.968
21378W        W84937  19.756  44.983   4.353
21379W        W84938   4.328  28.594  13.479
21380W        W84939  43.461  41.358  14.966
21381W        W84940  21.242   6.305   0.774
21382W        W84941  30.134  42.288   2.677
21383W        W84942  22.732  21.729  13.997
21384W        W84943   3.267   2.929  12.406
21385W        W84944  17.146  20.525  11.059
21386W        W84945  30.942   1.953   0.425
21387W        W84946  42.822  35.028  13.443
21388W        W84947  22.622  13.637  12.885
21389W        W84948  15.229  29.007   2.824
21390W        W84949  10.255  18.065  10.048
21391W        W84950   2.258   6.205  14.912
21392W        W84951  35.400  21.626  11.906
21393W        W84952  34.534  36.976  11.078
21394W        W84953   4.836  44.001   5.116
21395W        W84954  35.583  30.130   3.179
21396W        W84955  16.130  41.827  13.461
21397W        W84956  31.487  31.506   0.805
21398W        W84957  34.392  37.931   1.815
21399W        W84958  42.011  26.614   2.889
21400W        W84959  16.766  41.945   4.667
21401W        W84960  41.960  23.724  13.818
21402W        W84961  38.410   7.252   1.270
21403W        W84962  16.679  31.576   4.158
21404W        W84963   2.303  41.965  13.828
21405W        W84964   0.266  20.527  10.640
21406W        W84965  28.604  29.541   3.285
21407W        W84966   3.873  21.097   3.295
21408W        W84967  30.982  43.021  10.556
21409W        W84968  31.507   4.380   0.430
21410W        W84969  22.186   1.974   4.777
21411W        W84970  12.630  20.163  12.562
21412W        W84971  10.752   9.831  13.016
21413W        W84972  16.646  44.920  13.426
21414W        W84973  11.631  18.547   0.402
21415W        W84974  44.777  22.092  10.571
21416W        W84975  41.932  39.439   1.862
21417W        W84976   5.373  31.523  10.442
21418W        W84977  37.865  10.328   3.775
21419W        W84978  25.560  42.305   1.861
21420W        W84979  25.131  16.131   4.350
21421W        W84980  19.234  25.068   1.274
21422W        W84981  31.403  30.580  13.955
21423W        W84982   4.917  16.728   5.158
21424W        W84983  33.112   1.379  14.841
21425W        W84984   6.363  31.008   1.322
21426W        W84985  12.783   3.279   0.411
21427W        W84986  16.142  27.612  14.878
21428W        W84987  40.038  12.266  12.994
21429W        W84988  44.380  21.181   1.844
21430W        W84989  40.028  33.917  10.142
21431W        W84990   3.753  35.875   0.925
21432W        W84991  16.139   8.703   1.841
21433W        W84992  23.128  19.187  11.585
21434W        W84993  10.848  38.539  11.409
21435W        W84994  32.471   2.241   4.680
21436W        W84995   4.291  28.998  11.909
21437W        W84996  23.233  42.460   1.304
21438W        W84997  27.605   3.336   1.327
21439W        W84998  26.546  12.178  14.015
21440W        W84999  24.115   9.333  12.342
21441W        W85000  15.676  12.272   0.821
21442W        W85001   5.914  21.664  10.920
21443W        W85002  38.073  22.677   1.299
21444W        W85003   9.276  12.316  13.839
21445W        W85004  33.060   4.437  13.411
21446W        W85005   9.288  13.636   1.377
21447W        W85006  15.615  33.018  12.578
21448W        W85007  36.406  38.902  12.912
21449W        W85008  15.766  34.595   2.242
21450W        W85009  32.439   2.764   0.815
21451W        W85010  31.488   4.886   4.815
21452W        W85011  44.920   3.339  12.076
21453W        W85012  13.649  40.851  10.546
21454W        W85013  40.506  26.115   2.339
21455W        W85014  17.641   7.822   0.948
21456W        W85015  41.376  15.601  14.434
21457W        W85016   2.964  43.921   0.476
21458W        W85017  13.770  40.985  11.572
21459W        W85018  16.263  30.925   2.780
21460W        W85019  20.270  38.832   9.922
21461W        W85020   2.832  10.671  13.962
21462W        W85021  20.177  24.633  12.973
21463W        W85022  15.207   4.373   1.932
21464W        W85023   9.295   1.943  11.512
21465W        W85024   3.723  42.418  14.984
21466W        W85025  27.035   3.217  11.980
21467W        W85026   3.375   8.323  10.520
21468W        W85027  27.561  12.846   0.776
21469W        W85028  16.774  38.870  14.487
21470W        W85029  36.908  22.730   0.379
21471W        W85030  39.063  13.732  10.091
21472W        W85031  13.351  40.932   3.844
21473W        W85032  13.824   1.388  10.430
21474W        W85033  11.242  43.343   4.169
21475W        W85034  37.450   3.910  14.997
21476W        W85035  32.136  41.870   3.183
21477W        W85036  13.123   7.671   3.314
21478W        W85037   8.781  11.819   2.381
21479W        W85038  17.681  44.419  13.419
21480W        W85039  34.898   1.272   4.676
21481W        W85040  32.131   4.831  11.526
21482W        W85041  17.623   9.772  11.877
21483W        W85042   4.393   2.878   4.669
21484W        W85043  38.840  18.221   2.408
21485W        W85044   1.387  38.514   2.178
21486W        W85045   9.821  41.043   2.758
21487W        W85046   2.884  42.923  12.386
21488W        W85047  22.055  22.031   2.668
21489W        W85048  23.617   9.761  10.159
21490W        W85049  26.030   6.714   0.388
21491W        W85050  18.198  36.071  12.981
21492W        W85051  42.402   4.786   9.994
21493W        W85052  22.146  21.737   3.172
21494W        W85053  27.498  35.011   3.732
21495W        W85054  40.829   6.842  13.835
21496W        W85055  32.016  12.238  12.453
21497W        W85056  17.167   0.263  10.928
21498W        W85057  23.646  38.429   4.636
21499W        W85058   5.879  34.983  13.355
21500W        W85059   7.205  15.706  12.048
21501W        W85060  20.724  33.449   2.391
21502W        W85061  17.129  11.241   2.756
21503W        W85062   3.398  38.965  12.825
21504W        W85063  17.556  25.079   0.735
21505W        W85064  20.077  39.363   2.316
21506W        W85065   3.934  20.622  10.634
21507W        W85066  17.251  23.651   5.318
21508W        W85067  44.812  32.542  11.941
21509W        W85068  26.151  40.865  12.340
21510W        W85069  13.724  20.542  10.529
21511W        W85070   3.745  20.576   2.344
21512W        W85071  41.004  33.056   4.669
21513W        W85072  43.400   0.869   1.887
21514W        W85073  28.633  32.422  13.367
21515W        W85074  11.319  21.579  11.032
21516W        W85075   2.438  21.251  13.337
21517W        W85076  18.681  17.696   2.812
21518W        W85077  31.118  14.122   4.619
21519W        W85078  37.850  20.741  12.376
21520W        W85079  25.480  13.138   4.179
21521W        W85080  40.304   1.364  13.339
21522W        W85081   3.380   5.877  10.459
21523W        W85082  31.084  26.977  14.323
21524W        W85083  12.294  36.016  13.474
21525W        W85084   0.767  41.869  13.843
21526W        W85085  33.955  30.598   5.233
21527W        W85086  36.990  20.236  10.442
21528W        W85087   2.292   7.904   2.822
21529W        W85088  31.490  34.424   3.353
21530W        W85089  13.843  44.820  11.068
21531W        W85090  40.965  20.057  14.009
21532W        W85091   3.832   3.250  14.365
21533W        W85092   1.283  25.534   2.315
21534W        W85093   7.265   6.326  10.500
21535W        W85094  25.704  39.486   0.251
21536W        W85095  29.646  18.586  11.089
21537W        W85096  37.367  43.507  11.872
21538W        W85097  37.064   2.320  13.810
21539W        W85098  14.740  30.447  14.310
21540W        W85099   5.314  14.206  12.451
21541W        W85100  15.644  32.101   2.833
21542W        W85101  36.901   9.216   1.798
21543W        W85102  12.194  10.772  14.914
21544W        W85103  41.352  42.344  12.496
21545W        W85104   4.415  21.569  13.993
21546W        W85105  17.725  34.430  12.410
21547W        W85106  42.835  38.449  14.319
21548W        W85107  19.191   3.251  11.057
21549W        W85108  37.009  18.054  13.987
21550W        W85109   5.930   7.264  10.455
21551W        W85110  43.444  39.953  11.962
21552W        W85111   5.725   0.954  11.469
21553W        W85112  25.683  23.702  13.307
21554W        W85113  35.475  17.713   3.278
21555W        W85114   8.228   9.646  14.853
21556W        W85115  23.584  24.026  14.320
21557W        W85116  22.532  28.025  11.862
21558W        W85117  31.542  24.594   0.316
21559W        W85118   7.381   2.781  13.018
21560W        W85119  19.764  27.524  12.905
21561W        W85120  41.304  33.915   3.383
21562W        W85121   7.867  24.978  11.404
21563W        W85122  22.506  44.288   4.286
21564W        W85123   7.321  24.013   0.803
21565W        W85124  24.108  16.259   4.331
21566W        W85125  33.625  18.248  12.025
21567W        W85126   3.799  29.139  14.869
21568W        W85127   3.296   1.326   3.206
21569W        W85128  43.795  18.545  12.850
21570W        W85129   4.289  13.791  13.990
21571W        W85130   6.677  37.410   3.813
21572W        W85131  43.993  43.294   1.342
21573W        W85132   5.246  16.772   0.388
21574W        W85133   0.449  44.405   1.875
21575W        W85134   0.381  18.791   4.192
21576W        W85135  27.657  36.382   4.266
21577W        W85136  20.225  43.271   1.838
21578W        W85137  11.776  38.412  13.964
21579W        W85138  27.093   5.916  13.372
21580W        W85139  23.508  24.180  12.059
21581W        W85140   8.281   1.352   2.834
21582W        W85141  14.330  32.427  14.392
21583W        W85142  41.451  30.121  12.388
21584W        W85143  13.613   9.646  14.768
21585W        W85144  23.700  13.802  12.878
21586W        W85145  22.014  22.169   3.865
21587W        W85146  17.089   6.795   3.196
21588W        W85147  19.634  25.021   0.915
21589W        W85148   3.270  21.730   4.337
21590W        W85149   3.721  27.493  12.424
21591W        W85150  12.154   0.755   3.303
21592W        W85151  14.320  20.169   3.378
21593W        W85152   0.875  43.450  11.893
21594W        W85153  39.848  34.459  10.526
21595W        W85154  10.268  33.476  14.502
21596W        W85155  35.066  17.247   4.822
21597W        W85156  22.015   7.693  10.570
21598W        W85157  13.189   3.726   2.846
21599W        W85158  17.202  35.916  14.277
21600W        W85159  26.658  36.449  14.476
21601W        W85160  43.980  24.138   1.341
21602W        W85161  22.088  21.218  11.867
21603W        W85162  10.140  31.531   1.792
21604W        W85163  33.113  32.070  13.953
21605W        W85164  17.119  40.370  10.889
21606W        W85165  23.565  12.829  14.802
21607W        W85166   9.208  39.393  11.520
21608W        W85167  38.559   5.877  14.963
21609W        W85168  41.923  27.988  14.312
21610W        W85169  33.973   2.403  14.808
21611W        W85170   7.376  19.055   3.321
21612W        W85171  14.622  26.552  11.600
21613W        W85172  29.143  23.114  13.520
21614W        W85173  11.206  11.652  14.499
21615W        W85174  39.367  35.384   3.271
21616W        W85175  29.569  41.864  14.790
21617W        W85176  41.467  39.451  13.422
21618W        W85177  23.650  37.914  13.916
21619W        W85178  43.803  13.761   4.293
21620W        W85179  12.190  29.431   0.960
21621W        W85180  39.904  37.548  11.035
21622W        W85181   5.280  10.201  14.938
21623W        W85182   1.443  22.568   2.345
21624W        W85183  42.316  12.207  10.524
21625W        W85184  18.273  39.467  14.767
21626W        W85185  23.999  28.100  14.906
21627W        W85186  44.804  12.177   3.649
21628W        W85187  24.501  25.644   2.407
21629W        W85188  16.805   3.368  11.123
21630W        W85189  11.204   0.305   3.759
21631W        W85190  33.593   6.313   1.841
21632W        W85191   3.414  23.077   0.453
21633W        W85192  18.075  38.987  13.910
21634W        W85193   7.685   2.281  14.855
21635W        W85194   0.782  40.008  13.899
21636W        W85195  32.598   9.220  10.052
21637W        W85196  26.995  23.542  14.893
21638W        W85197   0.258  19.534   2.663
21639W        W85198  32.030   1.866  10.033
21640W        W85199  12.623   7.837   3.160
21641W        W85200  18.773   5.841  12.402
21642W        W85201  22.695  20.555  12.384
21643W        W85202   5.333  43.395   3.744
21644W        W85203  10.151  36.070  11.558
21645W        W85204  20.727  16.128   3.295
21646W        W85205  15.738   7.394  14.337
21647W        W85206  27.652  27.988   4.816
21648W        W85207  29.613   9.330   3.265
21649W        W85208  27.576   1.763   4.699
21650W        W85209  43.782  27.477   1.406
21651W        W85210  11.694   6.353   2.824
21652W        W85211  39.328  22.037  14.903
21653W        W85212  39.028  15.760  13.419
21654W        W85213  35.108   5.319  13.991
21655W        W85214   1.392  11.717   2.795
21656W        W85215   2.438  17.559  12.458
21657W        W85216  36.499  14.166   0.792
21658W        W85217   6.753  35.528  14.328
21659W        W85218  41.507  28.594  11.524
21660W        W85219  10.742  19.735  14.764
21661W        W85220  34.083   4.936  11.129
21662W        W85221  34.061  29.655  14.921
21663W        W85222  12.806  40.045  11.533
21664W        W85223  29.956  10.651  12.076
21665W        W85224  29.055  18.264   4.205
21666W        W85225  36.908  31.630   3.869
21667W        W85226  37.377  36.384  14.392
21668W        W85227  39.971  40.928   0.776
21669W        W85228  10.266  25.976   3.240
21670W        W85229   4.888  35.927  10.597
21671W        W85230  17.625   7.185   4.744
21672W        W85231  19.651  13.299   0.320
21673W        W85232  40.419   2.838   4.668
21674W        W85233  26.058   0.303  10.927
21675W        W85234  15.706  12.722  10.526
21676W        W85235  34.537  12.302   2.405
21677W        W85236  20.593  27.535  13.829
21678W        W85237  44.453  11.231  10.598
21679W        W85238  22.009  13.135   2.384
21680W        W85239  41.494  13.723   1.737
21681W        W85240  20.074  32.935   0.284
21682W        W85241  11.633  11.141   1.842
21683W        W85242  32.439  14.266   0.738
21684W        W85243  39.374  11.805  12.073
21685W        W85244   9.810  27.616  14.975
21686W        W85245   4.855  40.953  13.311
21687W        W85246  41.520  18.703   3.170
21688W        W85247  34.020   7.255   9.932
21689W        W85248  31.601   9.741  11.434
21690W        W85249  32.436   3.768  12.926
21691W        W85250  10.242  17.200  14.021
21692W        W85251  13.804  44.912  10.515
21693W        W85252  33.906  36.571  13.448
21694W        W85253   2.398   3.903   1.820
21695W        W85254  33.497  12.611   4.297
21696W        W85255  25.593  16.581  13.358
21697W        W85256  25.589  37.561   2.345
21698W        W85257  18.112   6.857  10.504
21699W        W85258  11.178  20.035   0.452
21700W        W85259  15.275   3.850  13.365
21701W        W85260  22.037  44.491  11.083
21702W        W85261  30.993  21.166  13.949
21703W        W85262  12.205  36.474  14.344
21704W        W85263   2.940  24.026  13.382
21705W        W85264  29.097  36.968  13.854
21706W        W85265  40.983  30.038   2.833
21707W        W85266   2.461  12.724  13.434
21708W        W85267  17.717  38.858   2.684
21709W        W85268  44.766  31.073  14.837
21710W        W85269  19.240  13.632  12.962
21711W        W85270  16.567   9.833   4.157
21712W        W85271   3.711  23.688  13.998
21713W        W85272  30.131   7.370   1.317
21714W        W85273  32.945   0.897   4.268
21715W        W85274  33.987  23.673  10.622
21716W        W85275   8.344  27.532  14.923
21717W        W85276  43.975  19.117   3.717
21718W        W85277  10.313  19.041  13.824
21719W        W85278   6.375   5.781   4.143
21720W        W85279   7.259   5.193   3.179
21721W        W85280  16.089  27.179   1.292
21722W        W85281  39.542  17.105   0.758
21723W        W85282  10.147  33.509  11.564
21724W        W85283  18.567  15.295   4.246
21725W        W85284  13.221   1.957  14.020
21726W        W85285  41.511   5.312  14.891
21727W        W85286  38.347  15.733   0.352
21728W        W85287   7.665  25.592  10.957
21729W        W85288   3.934  20.555  13.337
21730W        W85289  40.501  13.747  11.987
21731W        W85290  10.797  23.997  14.766
21732W        W85291  23.093  12.616   1.255
21733W        W85292  25.645   5.259   4.733
21734W        W85293  30.980  26.658  14.975
21735W        W85294   3.388  34.960  13.849
21736W        W85295  10.256  17.783  11.089
21737W        W85296  12.207   7.873   2.236
21738W        W85297  21.239  14.269  13.426
21739W        W85298  17.090   3.460  14.764
21740W        W85299   4.380  25.209   1.326
21741W        W85300   6.313  18.218  13.397
21742W        W85301   6.335  10.236   5.243
21743W        W85302  15.815  17.233   2.663
21744W        W85303  25.654  37.994  11.446
21745W        W85304   1.755  33.106   0.866
21746W        W85305  20.069   3.876  14.499
21747W        W85306   3.853  21.098  11.504
21748W        W85307  23.509  16.128   3.260
21749W        W85308  21.678  20.239  12.563
21750W        W85309   9.225   9.187  12.871
21751W        W85310   7.405  13.108   4.798
21752W        W85311   8.375  34.967   0.964
21753W        W85312  16.689  37.002  14.454
21754W        W85313   6.304  35.905   5.223
21755W        W85314   0.493  25.492   1.805
21756W        W85315  16.777  43.962  14.954
21757W        W85316  30.476  41.021  10.455
21758W        W85317  26.461  43.770  13.954
21759W        W85318  13.250  35.380   0.943
21760W        W85319  25.527  39.890   1.437
21761W        W85320  30.630   9.185  12.537
21762W        W85321  16.159   5.726   3.234
21763W        W85322  22.041  12.233  13.476
21764W        W85323  35.463  12.288   4.693
21765W        W85324  40.485  14.102   1.882
21766W        W85325  18.553   8.256   0.931
21767W        W85326  10.797  27.461  13.003
21768W        W85327   6.414  44.384   4.691
21769W        W85328  29.467  12.130   3.714
21770W        W85329  39.361   7.333  13.424
21771W        W85330  12.775  33.396   0.884
21772W        W85331  30.534  27.164   0.880
21773W        W85332   4.816  25.214  13.312
21774W        W85333  23.226  41.951   0.761
21775W        W85334  22.199  34.102  10.961
21776W        W85335  15.254   8.237  13.909
21777W        W85336  30.468   3.453  10.582
21778W        W85337   6.743  24.680  10.971
21779W        W85338  20.690  29.146  11.874
21780W        W85339  12.838   0.824  12.463
21781W        W85340  40.347   2.767  11.530
21782W        W85341  26.504   2.751   3.309
21783W        W85342  10.253  37.386   1.914
21784W        W85343  27.642  41.378   1.240
21785W        W85344  27.125   4.816  13.895
21786W        W85345  43.812  28.522  14.357
21787W        W85346  11.642  35.035  10.939
21788W        W85347  32.556  26.953  11.086
21789W        W85348   7.725  10.206   9.930
21790W        W85349  26.988  10.167  14.935
21791W        W85350  16.123  12.251   3.839
21792W        W85351  13.792  38.830  13.807
21793W        W85352  42.899  17.202   1.928
21794W        W85353   0.967  39.378  14.482
21795W        W85354   8.815  29.967   0.339
21796W        W85355   1.404  28.122  13.844
21797W        W85356   9.195  20.267  14.454
21798W        W85357  14.602  41.809  12.423
21799W        W85358  35.574  11.355  11.454
21800W        W85359  40.023   1.407  10.561
21801W        W85360   8.681  27.185  10.543
21802W        W85361  16.615  27.446  10.484
21803W        W85362  10.217  44.351   2.834
21804W        W85363  27.024   0.805  14.843
21805W        W85364  36.868  26.662  12.039
21806W        W85365   2.325   8.764   3.663
21807W        W85366  27.122  24.683   5.217
21808W        W85367  27.565  27.983  11.604
21809W        W85368  19.609  33.401   4.287
21810W        W85369  26.486  28.520   1.445
21811W        W85370  17.237  10.203  13.977
21812W        W85371  27.686  16.240  12.855
21813W        W85372   7.773  38.050  14.831
21814W        W85373  38.038  26.530   2.669
21815W        W85374   3.242  21.670   3.834
21816W        W85375  20.102  40.517   1.232
21817W        W85376   8.772  12.682  11.587
21818W        W85377  29.140  31.134   3.280
21819W        W85378  35.530  17.307  13.919
21820W        W85379  44.841  42.847   3.297
21821W        W85380  12.657  34.393   1.343
21822W        W85381  26.582   6.872   2.688
21823W        W85382  26.043  12.273   4.760
21824W        W85383  31.090  36.088  12.426
21825W        W85384  24.999  29.490   0.917
21826W        W85385   3.752  21.144   4.281
21827W        W85386  19.118   6.240  13.952
21828W        W85387  11.210   8.782   9.506
21829W        W85388  39.000  31.023   0.445
21830W        W85389  43.782  24.087   3.182
21831W        W85390  19.039  32.035   0.303
21832W        W85391   0.757  43.512   1.847
21833W        W85392  13.122   0.948  14.020
21834W        W85393  16.279  26.638   1.378
21835W        W85394  26.650  33.105  11.095
21836W        W85395  43.821  36.881  12.352
21837W        W85396  27.635   1.473  10.967
21838W        W85397  19.269  11.796   2.345
21839W        W85398  15.116   9.794  11.442
21840W        W85399   6.914  32.992  11.559
21841W        W85400  27.095  32.957   2.276
21842W        W85401  30.986  43.896  12.549
21843W        W85402  24.497   9.758   0.899
21844W        W85403  13.176  23.653   1.445
21845W        W85404  16.686  24.677   9.928
21846W        W85405  31.124  29.507   3.675
21847W        W85406  37.389   5.276  14.863
21848W        W85407  30.079  41.978   3.360
21849W        W85408   0.391  38.499  11.583
21850W        W85409  43.936   7.892  11.947
21851W        W85410  26.958  10.141   9.488
21852W        W85411  26.637  39.318  13.854
21853W        W85412   4.316  38.539  14.840
21854W        W85413  18.701  41.031  13.476
21855W        W85414  43.374  16.703  10.532
21856W        W85415  20.527  24.548   3.248
21857W        W85416   2.813  32.483  13.934
21858W        W85417  37.913  30.467  12.084
21859W        W85418  37.504   9.884  10.458
21860W        W85419  37.076  41.388   0.300
21861W        W85420  30.490  27.596  12.933
21862W        W85421  28.152  35.095   5.205
21863W        W85422  38.400   5.361  11.585
21864W        W85423  18.261  14.207   3.277
21865W        W85424  34.864  43.413   4.751
21866W        W85425  39.471  24.596  10.923
21867W        W85426  18.777  32.003   5.121
21868W        W85427  18.179  17.175  11.101
21869W        W85428  12.634  42.929  10.918
21870W        W85429  41.305  21.254   4.325
21871W        W85430  20.749  11.630  11.883
21872W        W85431   4.269  25.218   3.710
21873W        W85432  44.457   2.824  10.551
21874W        W85433  44.460  12.248  14.387
21875W        W85434  23.670  39.886  14.971
21876W        W85435  41.340  43.890  11.993
21877W        W85436  30.092  29.132   1.891
21878W        W85437  16.309  17.685   3.853
21879W        W85438  40.343  28.994   3.271
21880W        W85439  15.308  29.600   3.747
21881W        W85440  26.590  14.298   1.910
21882W        W85441   6.869   7.210  11.530
21883W        W85442  10.685  23.032   3.702
21884W        W85443  24.141  39.483  13.929
21885W        W85444   7.804  21.069  13.060
21886W        W85445  15.728  44.891   3.352
21887W        W85446  40.414  20.175   0.846
21888W        W85447  38.867  15.632   4.657
21889W        W85448  27.185  19.652  12.572
21890W        W85449   6.402   2.305   2.744
21891W        W85450  44.955  30.162  12.827
21892W        W85451  29.535  18.186  12.965
21893W        W85452  21.645  30.015   3.711
21894W        W85453  41.962  26.478   3.812
21895W        W85454  25.064  34.413  14.014
21896W        W85455  31.931   1.867   2.775
21897W        W85456  35.528  26.023  12.021
21898W        W85457  40.459  19.750   2.257
21899W        W85458   6.803  26.005   2.750
21900W        W85459  11.857  28.469  14.953
21901W        W85460  10.161  36.881  10.547
21902W        W85461  24.023  40.482  14.983
21903W        W85462  25.968  29.919  11.483
21904W        W85463   2.355   5.278  11.944
21905W        W85464  42.976  33.894  14.390
21906W        W85465  20.670   2.418   2.845
21907W        W85466  31.564   3.253   4.705
21908W        W85467  38.467  28.113   0.342
21909W        W85468   1.812  32.057  11.376
21910W        W85469  28.929  33.109   2.413
21911W        W85470  24.480   3.742   1.788
21912W        W85471  31.142  19.102   3.157
21913W        W85472  34.406  40.989   1.242
21914W        W85473  17.634  16.184  12.934
21915W        W85474   0.799   6.397   0.277
21916W        W85475   8.263   1.814   3.198
21917W        W85476  21.666  41.816   3.726
21918W        W85477  39.549  24.063  13.884
21919W        W85478   3.853  22.663   3.702
21920W        W85479  18.099  19.164   0.874
21921W        W85480   2.820  41.787  11.412
21922W        W85481  26.961  22.695   2.674
21923W        W85482  10.382  24.033   0.877
21924W        W85483   7.750  42.969   3.700
21925W        W85484   7.220  11.724  14.291
21926W        W85485  38.502  36.481   3.319
21927W        W85486   7.881  11.155   3.800
21928W        W85487  14.660   8.768  13.971
21929W        W85488  14.789  44.342  12.832
21930W        W85489   9.255   3.440   1.889
21931W        W85490  38.977  12.219   2.407
21932W        W85491  36.015  16.653   2.866
21933W        W85492  31.144  18.757   4.660
21934W        W85493  40.977  33.899   4.670
21935W        W85494   3.770  12.216  12.827
21936W        W85495   5.414  14.687   1.389
21937W        W85496  28.571   9.333   1.716
21938W        W85497   3.330  29.937  14.435
21939W        W85498  17.673   9.806  10.976
21940W        W85499  13.258  12.310  11.970
21941W        W85500  31.412   9.234  10.926
21942W        W85501  36.053  33.031   3.323
21943W        W85502  42.963  42.020  13.343
21944W        W85503  14.322   5.871   2.788
21945W        W85504  37.546  16.250  13.541
21946W        W85505  12.742  44.964   4.809
21947W        W85506   3.786   3.458   2.336
21948W        W85507  33.966  14.668   0.469
21949W        W85508  35.944  17.080   2.663
21950W        W85509  19.630  42.508   0.883
21951W        W85510  37.525  17.170  14.975
21952W        W85511  11.725  16.270  12.894
21953W        W85512  39.012  21.513  11.999
21954W        W85513  27.150   1.765   1.448
21955W        W85514   0.308  15.629   3.838
21956W        W85515   3.450  10.140  14.428
21957W        W85516  32.508   7.219   0.402
21958W        W85517  41.872  29.121  11.110
21959W        W85518   9.304   8.889   0.900
21960W        W85519  27.062  13.697   3.801
21961W        W85520  19.592  44.928   3.630
21962W        W85521  33.952  41.794   1.930
21963W        W85522  39.426   8.221   4.185
21964W        W85523  42.492  20.218   0.303
21965W        W85524  42.024  38.943  12.412
21966W        W85525   1.278  14.598  12.834
21967W        W85526  28.046  13.788   3.814
21968W        W85527  10.753  21.136  12.902
21969W        W85528  31.428  17.782   3.740
21970W        W85529  40.477  26.062  12.479
21971W        W85530  10.199  19.048   4.664
21972W        W85531  31.121  24.501  13.388
21973W        W85532  19.611  10.193   3.778
21974W        W85533  14.606   5.919  10.532
21975W        W85534  35.543  31.074  10.907
21976W        W85535  20.639  25.085  12.556
21977W        W85536  40.876  41.425   3.184
21978W        W85537  11.811  38.354   0.394
21979W        W85538  24.141   7.669   1.795
21980W        W85539  36.066  34.949   1.324
21981W        W85540  15.675  11.627  11.113
21982W        W85541  24.208  19.583  14.276
21983W        W85542   5.894  42.442   3.663
21984W        W85543   0.821  23.551  14.405
21985W        W85544  42.946  25.587  10.902
21986W        W85545   3.277  23.622   1.774
21987W        W85546  27.032  34.866  13.006
21988W        W85547  22.192  23.095  10.601
21989W        W85548  32.415  11.697   4.637
21990W        W85549   4.775   9.811  11.473
21991W        W85550   4.875   0.338  14.834
21992W        W85551  15.239  16.714  11.455
21993W        W85552  17.617  23.724   2.874
21994W        W85553  34.394  11.341   2.335
21995W        W85554  32.962  19.601  11.026
21996W        W85555  17.775  32.085   5.114
21997W        W85556  21.136  36.495   3.211
21998W        W85557  12.251  13.312   3.157
21999W        W85558   4.733  15.581   3.735
22000W        W85559  25.061  31.415   4.675
22001W        W85560  28.551  31.955  13.843
22002W        W85561  27.692  35.453   3.214
22003W        W85562  39.947   0.430   1.414
22004W        W85563  14.256  40.542   4.800
22005W        W85564  42.932  33.543   1.795
22006W        W85565  15.632  11.779  13.015
22007W        W85566   9.180  26.563  10.627
22008W        W85567  28.553  29.008  11.411
22009W        W85568  31.629  42.384  10.155
22010W        W85569  25.093  16.165   0.739
22011W        W85570  22.075  36.008  11.409
22012W        W85571   2.238  18.779  14.352
22013W        W85572  10.808  13.608  11.444
22014W        W85573  29.629  30.149  13.949
22015W        W85574  24.103  20.701   4.191
22016W        W85575  14.300   0.867  14.862
22017W        W85576  35.561  34.568   1.397
22018W        W85577  19.688  21.523  12.845
22019W        W85578  25.550  28.176   4.781
22020W        W85579  25.987  22.044   2.745
22021W        W85580  27.556  23.523   3.870
22022W        W85581  35.540  20.746  11.886
22023W        W85582  18.699  40.472   3.211
22024W        W85583   0.743  42.443   4.208
22025W        W85584  42.983  32.966  12.878
22026W        W85585  16.638  12.687  13.802
22027W        W85586   5.273  42.302   2.785
22028W        W85587  42.840  12.822  12.340
22029W        W85588   5.216  18.293   3.312
22030W        W85589  17.647  41.952  10.411
22031W        W85590   4.267  33.605   1.826
22032W        W85591   3.460  10.752  14.304
22033W        W85592  39.355  22.740  10.477
22034W        W85593  44.460  40.811   0.895
22035W        W85594   6.380  31.001  12.874
22036W        W85595  42.316  17.211   2.378
22037W        W85596  24.492   6.317  11.114
22038W        W85597  22.729   5.206  12.945
22039W        W85598  18.208  29.599   5.100
22040W        W85599  43.797   7.898  13.008
22041W        W85600  21.240  16.148  13.828
22042W        W85601   7.885  31.056  12.988
22043W        W85602  43.365  14.221  13.450
22044W        W85603   3.389  14.206   2.277
22045W        W85604  37.472  14.623   1.335
22046W        W85605  18.709  41.327  10.900
22047W        W85606   0.901  38.370   3.378
22048W        W85607  34.912  32.927  10.527
22049W        W85608  12.285  42.837  12.879
22050W        W85609  37.913  27.029   2.752
22051W        W85610  29.042  38.512  14.305
22052W        W85611  12.757  25.020   4.230
22053W        W85612  23.049   8.863  11.445
22054W        W85613  14.763  12.638  12.938
22055W        W85614  20.597  18.762   2.285
22056W        W85615  13.127  36.914  13.863
22057W        W85616  15.126  26.064   0.911
22058W        W85617  10.156  35.579   2.783
22059W        W85618   4.357  36.909   0.375
22060W        W85619  27.955  10.307   4.336
22061W        W85620  43.493  22.036   1.759
22062W        W85621  10.854  15.665  14.398
22063W        W85622  37.947   3.221   0.820
22064W        W85623  10.681  42.303  12.457
22065W        W85624   5.804   5.765   2.303
22066W        W85625  13.774   8.824   4.124
22067W        W85626  25.528  25.145   1.428
22068W        W85627  44.830  28.952  14.005
22069W        W85628  15.288  15.817   0.814
22070W        W85629   8.291  10.264  14.879
22071W        W85630  18.232   6.921  11.574
22072W        W85631  21.661  23.595  12.348
22073W        W85632  12.164  41.043  13.321
22074W        W85633  16.118  16.688   1.772
22075W        W85634  23.039  39.444   3.732
22076W        W85635  17.298  34.551   0.447
22077W        W85636  24.725  21.565   4.679
22078W        W85637  21.738   1.445  12.848
22079W        W85638  23.622  33.972  10.891
22080W        W85639  44.464  28.974  13.908
22081W        W85640  24.983  14.697   2.220
22082W        W85641  36.453   6.845  10.576
22083W        W85642  36.033  42.015  13.911
22084W        W85643  19.720  20.237  13.462
22085W        W85644  39.553   7.776   3.646
22086W        W85645  35.535  43.804   1.876
22087W        W85646  22.029  27.040  12.986
22088W        W85647  28.013   8.800   4.157
22089W        W85648   0.964  13.773   2.825
22090W        W85649  41.924   9.390   1.790
22091W        W85650  21.597  13.622   4.211
22092W        W85651  17.796  27.073   0.847
22093W        W85652   2.336  27.147   0.815
22094W        W85653   8.756  37.581   5.101
22095W        W85654  38.408  19.687  13.992
22096W        W85655  18.073  15.125   2.410
22097W        W85656  14.672  17.065   0.260
22098W        W85657   0.396  35.427   1.902
22099W        W85658  43.363  29.608  14.912
22100W        W85659  24.049  21.547   2.249
22101W        W85660  17.752  35.573   0.897
22102W        W85661  22.096   5.712   2.383
22103W        W85662  19.269  32.106   4.670
22104W        W85663  42.412  18.745  11.604
22105W        W85664   3.221  37.019  11.893
22106W        W85665  32.440  15.762  13.391
22107W        W85666  12.213  38.960   0.868
22108W        W85667  18.651   1.255  14.995
22109W        W85668  15.298  15.137  10.606
22110W        W85669  33.529  25.123   3.844
22111W        W85670  30.160  30.964   2.276
22112W        W85671  32.395  40.870  13.393
22113W        W85672  30.016  10.741   0.430
22114W        W85673  16.681  43.478   2.317
22115W        W85674  26.474  17.667  14.276
22116W        W85675  30.628  15.745  14.867
22117W        W85676   7.697   4.293  11.574
22118W        W85677  27.072  42.791   3.212
22119W        W85678  21.688  27.623   9.934
22120W        W85679  39.942  24.106  11.502
22121W        W85680   7.280   3.308   2.277
22122W        W85681  15.606  38.469   1.367
22123W        W85682   3.829  33.098   4.643
22124W        W85683  30.547  10.259  11.114
22125W        W85684  17.795   6.887   2.765
22126W        W85685  37.961  27.954  12.976
22127W        W85686  14.129  23.099  11.047
22128W        W85687  10.755  32.086   3.184
22129W        W85688   7.248   2.930   2.226
22130W        W85689   3.313   9.752   2.333
22131W        W85690  36.527  30.123  14.943
22132W        W85691  33.555  36.882  12.447
22133W        W85692  13.635   5.224   3.656
22134W        W85693  24.186  27.483  14.766
22135W        W85694  40.453  23.111  11.890
22136W        W85695  38.421  29.131   0.280
22137W        W85696  12.349   4.372   3.244
22138W        W85697   8.730  28.147   3.196
22139W        W85698  34.372  37.078   1.835
22140W        W85699  16.580   8.782   4.265
22141W        W85700  24.582  31.092   3.152
22142W        W85701   3.802  25.543   4.732
22143W        W85702  14.291   4.400  12.429
22144W        W85703  14.821   7.678   0.885
22145W        W85704   9.876  19.219   1.419
22146W        W85705  40.936  39.424   3.806
22147W        W85706   9.751  41.922  11.912
22148W        W85707  10.837  25.505  13.818
22149W        W85708  44.484  40.344   3.307
22150W        W85709  24.975  23.114   5.084
22151W        W85710  39.826  44.296  14.030
22152W        W85711  11.278  22.694  12.449
22153W        W85712  20.550  37.345  13.820
22154W        W85713  16.208  39.331  10.951
22155W        W85714  10.675  26.193   1.382
22156W        W85715  37.875  36.040   9.951
22157W        W85716  33.436  43.484   3.352
22158W        W85717   0.354  22.627  12.951
22159W        W85718   7.234  35.106   0.445
22160W        W85719  16.074  43.407   3.669
22161W        W85720  19.745  13.302   3.384
22162W        W85721   5.390   7.749  14.351
22163W        W85722  25.494   2.313   4.834
22164W        W85723  30.996  32.480  13.912
22165W        W85724  21.664  27.141   0.934
22166W        W85725   0.961  40.902   4.616
22167W        W85726  41.431   6.902   0.729
22168W        W85727  32.945  15.253   0.880
22169W        W85728   0.346  15.690   4.215
22170W        W85729   2.245   4.436  11.414
22171W        W85730  22.528   0.408  13.365
22172W        W85731  33.080  21.738   3.803
22173W        W85732  13.830  29.443  12.383
22174W        W85733  39.883  40.955  12.060
22175W        W85734  31.009  13.645  11.401
22176W        W85735  44.874  25.712  14.995
22177W        W85736  21.604   7.338   3.756
22178W        W85737   4.403  11.693   1.362
22179W        W85738   7.370  15.103   3.210
22180W        W85739  37.884   8.389   1.218
22181W        W85740  33.038  43.826  14.489
22182W        W85741   9.186   4.272   3.154
22183W        W85742  13.269  25.147   0.873
22184W        W85743  33.107   8.812   0.898
22185W        W85744  35.880   8.689  13.015
22186W        W85745  17.610   5.698   1.221
22187W        W85746   0.955   1.390  14.343
22188W        W85747  36.566  26.557  12.537
22189W        W85748   4.343  43.941  10.998
22190W        W85749  37.057  15.580   4.338
22191W        W85750  44.277  23.070  14.978
22192W        W85751  25.063   0.748  13.023
22193W        W85752  17.683  30.541   0.324
22194W        W85753  30.033  38.518   2.887
22195W        W85754   5.740  42.486   2.221
22196W        W85755  12.713   4.772   2.317
22197W        W85756  40.875   0.950   0.743
22198W        W85757  30.557  27.537  13.935
22199W        W85758  28.170  43.814  11.893
22200W        W85759  41.926  36.998   2.308
22201W        W85760  26.123  33.980   2.296
22202W        W85761  26.512  12.788   3.827
22203W        W85762  14.320  25.629   0.838
22204W        W85763  43.919  16.206  10.945
22205W        W85764  19.670  33.015  11.487
22206W        W85765  42.513  31.068   3.368
22207W        W85766  39.915  15.256  10.990
22208W        W85767   0.920  15.234   3.356
22209W        W85768  22.160  19.749  14.915
22210W        W85769   8.896  43.470   1.327
22211W        W85770   6.349  35.375  14.387
22212W        W85771  10.182  40.002  10.912
22213W        W85772   1.462  25.650   4.336
22214W        W85773  43.784  32.979   2.374
22215W        W85774  32.482   7.804   2.385
22216W        W85775   5.322  28.952   1.906
22217W        W85776  19.620  28.475   1.393
22218W        W85777   7.318  15.692   1.279
22219W        W85778   4.896  16.211  10.966
22220W        W85779  30.513  13.196   5.225
22221W        W85780  44.445  43.459  10.610
22222W        W85781  33.558   8.712   2.223
22223W        W85782   1.369  31.538   4.828
22224W        W85783   5.431  44.899  10.944
22225W        W85784  21.620  27.456   0.363
22226W        W85785  38.411   5.757   2.402
22227W        W85786  15.630  28.600   2.779
22228W        W85787  14.690  19.145  12.515
22229W        W85788   6.824  17.146  10.616
22230W        W85789  42.957   9.707   1.294
22231W        W85790  37.443  34.500   3.741
22232W        W85791  14.338   1.311  11.097
22233W        W85792  11.243  14.650  14.323
22234W        W85793  22.536  14.773  12.504
22235W        W85794   0.400  44.918   2.375
22236W        W85795  11.194  25.011  12.553
22237W        W85796   9.388   8.213   4.186
22238W        W85797  44.773  14.165  13.545
22239W        W85798  19.234  44.390   2.829
22240W        W85799   0.759  22.695  12.883
22241W        W85800   8.200  43.004  11.955
22242W        W85801  44.902  11.690  12.553
22243W        W85802  41.874  32.033   4.190
22244W        W85803  10.799  38.464   1.697
22245W        W85804  24.622   6.189  10.618
22246W        W85805  11.219  14.723   1.834
22247W        W85806  36.934  13.250  10.914
22248W        W85807  37.537   5.272   4.786
22249W        W85808  14.775  39.888  10.415
22250W        W85809  32.575  39.867  11.077
22251W        W85810  33.954  10.174  11.988
22252W        W85811   2.750  41.534  13.940
22253W        W85812  11.349  37.514   0.287
22254W        W85813  10.783   2.406   0.792
22255W        W85814  36.009  13.838  14.882
22256W        W85815  30.533  13.312   3.682
22257W        W85816  31.005   1.292   3.842
22258W        W85817  41.792  21.147   3.721
22259W        W85818  38.345  43.447   3.724
22260W        W85819  28.469  13.812   1.818
22261W        W85820  38.061  32.019  12.388
22262W        W85821  41.879   4.266  11.388
22263W        W85822  26.468  43.849  11.537
22264W        W85823  29.106  21.630  14.444
22265W        W85824  14.765  44.261  10.635
22266W        W85825  11.160   8.232   0.805
22267W        W85826   7.397  38.980  14.356
22268W        W85827  44.764   5.725  11.889
22269W        W85828  42.780   3.394  11.604
22270W        W85829   2.432  10.149  13.996
22271W        W85830  13.149  42.951  12.034
22272W        W85831  35.991   6.299  14.875
22273W        W85832  11.629  34.380  11.519
22274W        W85833  11.739  42.815   4.807
22275W        W85834  20.680  44.397   0.732
22276W        W85835  10.324  25.999  12.452
22277W        W85836   5.928  36.432  14.822
22278W        W85837  15.685  43.353   0.378
22279W        W85838  41.884  11.759  14.489
22280W        W85839   6.388   3.781   0.298
22281W        W85840  25.157  11.864   2.192
22282W        W85841  37.051  34.437  13.321
22283W        W85842  20.090   1.853   0.753
22284W        W85843  43.417   5.201   1.356
22285W        W85844  18.229  12.345   1.727
22286W        W85845  34.451  10.711   4.832
22287W        W85846  29.648  27.553  13.380
22288W        W85847   1.265  44.481   4.159
22289W        W85848   9.171  37.564   0.967
22290W        W85849   4.422  42.905  11.458
22291W        W85850  18.122  37.516  12.871
22292W        W85851  16.298   1.268   2.890
22293W        W85852  38.482   0.467  11.027
22294W        W85853  28.044  31.513  11.603
22295W        W85854   9.806  17.750   2.296
22296W        W85855   1.876  44.362   2.411
22297W        W85856  25.605  28.626   4.151
22298W        W85857   7.684  40.808   4.193
22299W        W85858  23.675   2.790  10.508
22300W        W85859  30.044  34.459   3.769
22301W        W85860  27.641  26.164  14.484
22302W        W85861   8.268  21.573  11.407
22303W        W85862  11.348  39.907  13.035
22304W        W85863  18.781  24.143  12.340
22305W        W85864  12.164  40.027  11.594
22306W        W85865  32.436  28.062  13.975
22307W        W85866  19.194   8.311   4.189
22308W        W85867  31.920  24.673  14.845
22309W        W85868  24.580   4.384   3.348
22310W        W85869  29.993  38.926   2.224
22311W        W85870  11.371  21.622  14.325
22312W        W85871   3.818  27.043   4.787
22313W        W85872  40.965   2.785  10.505
22314W        W85873  34.389  23.573   1.340
22315W        W85874  44.382  14.176   0.936
22316W        W85875   6.236  31.937   2.872
22317W        W85876  43.303  43.371  13.479
22318W        W85877   5.299  23.553  11.950
22319W        W85878  33.416  24.005   0.940
22320W        W85879  26.607  27.505   0.419
22321W        W85880  11.746   7.764   1.305
22322W        W85881   6.200  30.542  11.024
22323W        W85882  34.116  23.992  12.003
22324W        W85883  16.761  20.093   4.771
22325W        W85884  28.443   6.744  12.896
22326W        W85885   1.832  20.727  11.104
22327W        W85886  20.042  40.438   2.835
22328W        W85887  17.112   3.764  11.409
22329W        W85888  20.271  28.147  13.326
22330W        W85889  35.493  15.794   2.184
22331W        W85890  30.643  23.545   0.883
22332W        W85891  29.536   3.778   0.790
22333W        W85892  34.471  42.483  11.490
22334W        W85893  22.741  25.059   1.214
22335W        W85894   2.394  22.226   1.292
22336W        W85895  13.277  30.097   2.409
22337W        W85896  11.301   6.896   3.239
22338W        W85897  43.993  30.945   3.205
22339W        W85898   7.793  15.284  12.381
22340W        W85899  10.154   9.861   4.143
22341W        W85900  14.618   1.279  11.046
22342W        W85901  11.866   2.908   3.689
22343W        W85902  10.225  17.116  10.440
22344W        W85903  40.888  37.463   0.275
22345W        W85904  10.383  11.303  12.966
22346W        W85905   9.158   7.762  13.879
22347W        W85906  23.572  21.026   3.213
22348W        W85907  34.019  42.978  13.544
22349W        W85908  17.101  39.058   2.364
22350W        W85909  26.700   4.298   3.243
22351W        W85910  31.513  27.639  12.356
22352W        W85911  31.450   9.315   3.369
22353W        W85912  15.769  38.983   2.395
22354W        W85913  14.187   9.864   1.220
22355W        W85914   2.951  14.703  11.502
22356W        W85915  15.646  26.114   4.191
22357W        W85916  14.248  32.565   3.798
22358W        W85917  33.945  21.579   3.370
22359W        W85918  10.734   8.729   0.375
22360W        W85919  20.123  44.356  14.510
22361W        W85920  28.108   4.837  12.054
22362W        W85921  17.629   2.293  14.778
22363W        W85922  39.995  26.175   1.859
22364W        W85923  43.435  41.420  10.412
22365W        W85924  11.221  34.375   0.863
22366W        W85925  27.077  43.780  12.569
22367W        W85926  39.506  20.731  13.329
22368W        W85927   3.944  11.329  11.456
22369W        W85928  23.679   1.237   3.300
22370W        W85929  34.066  26.457  11.451
22371W        W85930  11.208  30.422  12.340
22372W        W85931  32.894  32.432  11.396
22373W        W85932  14.129  32.503   1.896
22374W        W85933  26.201  39.466  11.127
22375W        W85934  15.737  10.247   4.831
22376W        W85935  15.117  20.158   2.411
22377W        W85936  31.462  27.965  10.610
22378W        W85937  35.014  26.521   1.344
22379W        W85938  39.503   6.279  14.785
22380W        W85939  20.032  25.684   4.248
22381W        W85940   9.662  13.163   0.443
22382W        W85941   4.291  26.106  11.086
22383W        W85942  14.142  10.207  12.498
22384W        W85943  37.948  33.116   0.418
22385W        W85944  27.472  40.385   4.140
22386W        W85945  24.154  39.528   1.240
22387W        W85946  22.032  22.090  12.437
22388W        W85947  31.132  17.170   4.326
22389W        W85948   6.691   7.812  11.915
22390W        W85949  41.346  35.060   3.369
22391W        W85950   1.283  43.826   0.400
22392W        W85951  42.005  17.152   1.816
22393W        W85952  32.078  41.446   1.872
22394W        W85953  42.456   8.198  14.025
22395W        W85954  25.604  32.082   2.766
22396W        W85955  31.896   9.237   2.257
22397W        W85956  18.136  18.713   1.848
22398W        W85957  36.373   0.452  11.905
22399W        W85958  10.674  33.417  11.500
22400W        W85959  38.413   0.915   3.260
22401W        W85960  20.186  19.613   5.113
22402W        W85961  20.676   7.330   1.352
22403W        W85962  37.410  34.993   1.290
22404W        W85963   5.298   7.253   0.824
22405W        W85964   7.680  12.787  14.448
22406W        W85965   3.807  18.205  11.444
22407W        W85966   9.675  11.848  12.526
22408W        W85967  22.656  39.506   4.200
22409W        W85968  22.220  33.513  11.400
22410W        W85969   1.353  42.914   2.322
22411W        W85970  30.937  38.010   2.278
22412W        W85971  38.934  16.212  12.408
22413W        W85972  32.582  40.984  14.883
22414W        W85973   9.261  13.157  14.798
22415W        W85974  42.373  16.729  11.913
22416W        W85975   0.960   0.845   2.256
22417W        W85976  20.631  19.084  10.599
22418W        W85977  22.220  31.633  14.826
22419W        W85978  36.421   7.754   1.800
22420W        W85979   8.260  30.538   4.707
22421W        W85980  36.419   6.344  13.369
22422W        W85981  21.630  28.550  14.282
22423W        W85982  17.709  40.035  11.465
22424W        W85983  11.244  18.657   0.967
22425W        W85984  25.672  25.488  12.354
22426W        W85985  39.873  23.497  14.373
22427W        W85986  44.996  44.504  11.928
22428W        W85987   9.270  25.675  13.986
22429W        W85988  44.484  11.848   0.827
22430W        W85989  43.429  14.818  10.596
22431W        W85990  13.655  33.888  14.308
22432W        W85991  11.622   8.698   0.313
22433W        W85992  27.623  39.880  13.045
22434W        W85993  30.494   7.209  11.011
22435W        W85994   8.172  12.294  10.632
22436W        W85995  42.877  39.442  10.530
22437W        W85996  30.414  15.746   2.819
22438W        W85997  19.710   8.833   2.854
22439W        W85998  33.542  41.437   3.182
22440W        W85999  22.095  43.402   3.841
22441W        W86000   0.893  32.496   0.403
22442W        W86001  28.472  44.877  14.805
22443W        W86002  12.248   1.398  13.978
22444W        W86003  30.081  13.819  10.416
22445W        W86004  34.051  23.627  14.020
22446W        W86005  15.790  26.499   1.859
22447W        W86006   4.206  17.798  14.872
22448W        W86007  43.846  35.048   1.220
22449W        W86008  10.683  29.943  11.985
22450W        W86009  17.639  34.558   3.349
22451W        W86010  30.024  13.146  13.908
22452W        W86011   5.913  10.301  11.056
22453W        W86012  15.118  20.671  11.060
22454W        W86013  37.507  21.040  14.397
22455W        W86014  43.285  33.901   0.274
22456W        W86015   5.374   0.747   1.334
22457W        W86016  41.344  19.719   0.843
22458W        W86017  11.323   7.223  13.431
22459W        W86018  20.145  14.701   3.291
22460W        W86019  15.145  36.992   2.747
22461W        W86020  10.809  29.622   1.344
22462W        W86021  43.477  22.724  12.028
22463W        W86022   3.450   5.921  12.957
22464W        W86023  43.836  27.150  13.834
22465W        W86024  15.150  15.721  11.593
22466W        W86025  20.039  29.643   0.455
22467W        W86026   6.333  18.157  14.477
22468W        W86027  22.239  35.425  11.399
22469W        W86028  31.144  37.548   4.183
22470W        W86029  40.983  23.225   2.351
22471W        W86030  33.466  40.500  13.007
22472W        W86031  15.592  38.986  12.052
22473W        W86032   5.270  39.041  10.545
22474W        W86033  22.615   0.291   0.288
22475W        W86034  40.541  10.378  14.930
22476W        W86035  28.032  18.548  13.829
22477W        W86036   3.943  20.253   1.434
22478W        W86037   0.340  28.065   3.752
22479W        W86038  24.120   8.654   2.238
22480W        W86039  44.380  36.430  13.414
22481W        W86040  28.571  28.184  14.496
22482W        W86041   3.462  11.191  12.893
22483W        W86042  41.807  13.216  12.365
22484W        W86043  28.095  42.013   0.745
22485W        W86044   9.216  21.588   4.645
22486W        W86045  40.832  11.815  12.462
22487W        W86046  18.685  26.518   0.848
22488W        W86047  17.283   2.822   2.879
22489W        W86048  24.139   2.457   0.935
22490W        W86049  30.117  35.966   2.359
22491W        W86050   6.183  27.501  10.625
22492W        W86051  20.214  38.342   2.895
22493W        W86052  23.562  36.504  14.794
22494W        W86053   3.881  35.453   0.928
22495W        W86054  16.751  29.133   2.852
22496W        W86055  13.671  33.575  13.367
22497W        W86056   5.247  29.635   2.808
22498W        W86057  25.032  11.789  14.321
22499W        W86058  20.724  37.386  12.911
22500W        W86059  16.161  29.160  14.409
22501W        W86060  25.011  30.128   1.416
22502W        W86061  12.178  20.209   3.366
22503W        W86062  39.865  30.573  14.890
22504W        W86063  42.355  30.425  14.764
22505W        W86064  34.112  28.557   2.400
22506W        W86065  18.745  13.274  12.901
22507W        W86066  32.952   2.322  13.835
22508W        W86067  21.626  20.232  11.490
22509W        W86068  22.158  26.066  12.490
22510W        W86069  27.630  20.147  11.538
22511W        W86070   1.935  29.039  10.946
22512W        W86071  43.419  24.516  14.847
22513W        W86072   1.324   6.885  12.555
22514W        W86073  12.847  16.077  11.515
22515W        W86074   7.392  44.879  11.501
22516W        W86075  23.116   1.903   1.897
22517W        W86076  13.201  10.353  14.358
22518W        W86077  39.056  30.025  13.413
22519W        W86078   1.814  12.688   0.313
22520W        W86079  39.883   3.382   1.703
22521W        W86080   8.218   9.795   0.411
22522W        W86081  14.330  12.727  12.420
22523W        W86082  40.802  10.221  10.149
22524W        W86083  21.199  41.803  11.469
22525W        W86084  37.025  40.036   2.381
22526W        W86085  44.758  17.784   1.834
22527W        W86086  39.823  14.329   2.396
22528W        W86087  24.005  40.398   2.274
22529W        W86088   6.428  33.995   2.723
22530W        W86089  40.851  12.322  12.535
22531W        W86090  31.605  13.122   0.390
22532W        W86091  34.455   5.400  13.456
22533W        W86092  27.133  37.057  14.400
22534W        W86093  44.376   7.249  14.898
22535W        W86094  30.024  39.889  12.447
22536W        W86095  38.944   1.753   2.682
22537W        W86096   4.315   3.927   1.901
22538W        W86097  30.950  43.918   2.352
22539W        W86098   3.258  27.654  11.050
22540W        W86099  34.431   8.862  13.501
22541W        W86100  15.131  32.887   4.818
22542W        W86101  12.641  35.504  13.944
22543W        W86102  30.919  42.293   0.807
22544W        W86103   6.407  11.740  11.941
22545W        W86104   9.342  43.777  13.985
22546W        W86105  23.211  17.650  10.640
22547W        W86106  11.787  38.841   2.397
22548W        W86107  20.264  27.483  11.090
22549W        W86108  23.647  33.057  10.609
22550W        W86109  23.196  44.010   0.269
22551W        W86110  36.917  18.718  13.414
22552W        W86111   6.842   0.424  14.324
22553W        W86112  36.088  39.320  12.847
22554W        W86113  33.960  20.238   0.307
22555W        W86114  34.576   6.226  13.509
22556W        W86115  40.002  22.153  10.596
22557W        W86116  20.694  17.088   0.346
22558W        W86117  43.007  14.636  14.380
22559W        W86118   1.783  13.283  12.849
22560W        W86119   1.871   8.338  12.012
22561W        W86120  13.657  25.032   0.273
22562W        W86121  40.505  13.699  13.382
22563W        W86122  11.764  15.181   0.943
22564W        W86123  37.506  22.714   2.235
22565W        W86124  31.026   8.381   3.357
22566W        W86125  40.004  44.835   4.675
22567W        W86126  44.469  22.577  14.828
22568W        W86127  39.341  31.418  11.419
22569W        W86128  23.631  14.218   4.738
22570W        W86129  20.567  44.854   2.367
22571W        W86130   6.811  17.266  11.063
22572W        W86131   7.180  15.283  14.850
22573W        W86132  13.748  31.570  14.936
22574W        W86133  21.705   8.848  11.489
22575W        W86134  43.769  20.139  10.499
22576W        W86135  16.271  37.400  11.013
22577W        W86136   8.210   8.362  11.513
22578W        W86137  11.641  44.388  13.015
22579W        W86138  17.171  26.042   0.774
22580W        W86139   6.353  42.318   3.192
22581W        W86140  16.248  43.013   4.719
22582W        W86141  14.812  10.197  14.476
22583W        W86142  42.959  44.830  11.416
22584W        W86143  11.252  10.777  14.295
22585W        W86144  20.085  17.644   2.188
22586W        W86145  22.199  35.409   0.909
22587W        W86146  23.729   2.454   3.750
22588W        W86147  26.511   5.870   4.778
22589W        W86148  20.656   0.769  11.558
22590W        W86149  35.588  26.005   0.328
22591W        W86150  43.887  14.304   1.748
22592W        W86151   4.778   7.338  14.346
22593W        W86152  10.308  26.550   3.816
22594W        W86153  44.877  31.061   4.348
22595W        W86154  36.868  34.513  12.537
22596W        W86155  34.071  29.616  14.343
22597W        W86156  31.645  19.664   1.350
22598W        W86157  13.693   0.317  13.972
22599W        W86158  10.261  21.597   0.946
22600W        W86159  36.861  13.328   0.262
22601W        W86160  37.975  32.544   4.830
22602W        W86161   6.768  24.608   3.789
22603W        W86162  44.823   2.771   4.274
22604W        W86163  41.434   2.909  13.000
22605W        W86164   1.416  27.458  11.397
22606W        W86165  22.181  18.635  14.763
22607W        W86166  18.251   8.686  14.862
22608W        W86167   8.899  18.677  14.408
22609W        W86168   8.317  31.053  10.609
22610W        W86169  13.718  14.305  12.447
22611W        W86170   7.201  17.709   2.280
22612W        W86171  33.023  23.063  11.554
22613W        W86172  34.413   5.422  14.409
22614W        W86173  43.341  23.137  14.759
22615W        W86174   0.416  29.928   2.223
22616W        W86175   7.771  15.271  11.929
22617W        W86176   2.398  25.546  11.887
22618W        W86177  44.860  28.589   4.349
22619W        W86178  17.302  36.539   0.288
22620W        W86179  21.119  42.867  10.475
22621W        W86180  24.515  10.678  14.772
22622W        W86181  12.313  32.138  11.472
22623W        W86182  30.590   6.426   3.809
22624W        W86183  34.116  34.899   1.439
22625W        W86184  30.486  16.126   1.919
22626W        W86185  33.448  19.579  11.998
22627W        W86186   9.265   3.243  11.532
22628W        W86187  32.926  30.423  12.427
22629W        W86188  43.297   8.315  14.304
22630W        W86189  26.050  28.457  10.920
22631W        W86190  44.955   0.966  13.451
22632W        W86191  40.443  37.981  12.538
22633W        W86192  27.150  29.947   1.933
22634W        W86193  11.267  33.575   9.502
22635W        W86194  33.946  37.464   1.871
22636W        W86195  44.457  31.908   2.329
22637W        W86196   5.847   4.855  12.472
22638W        W86197   2.342  16.201   3.808
22639W        W86198  19.126   3.341   4.126
22640W        W86199  31.559   8.336   2.750
22641W        W86200   9.822  21.724   4.638
22642W        W86201  41.312  11.826  13.973
22643W        W86202  15.588   6.769  10.638
22644W        W86203  22.111  35.908   0.243
22645W        W86204   1.440  44.869  11.859
22646W        W86205  35.873  37.529   2.369
22647W        W86206  24.049  38.062   4.826
22648W        W86207  28.093   8.877  12.939
22649W        W86208  11.691  23.135   0.391
22650W        W86209  30.154  38.880   3.783
22651W        W86210   6.815  38.057   1.716
22652W        W86211  37.879  42.918  12.378
22653W        W86212  36.850  21.256   2.668
22654W        W86213  10.374  10.677   4.731
22655W        W86214  40.979  11.755   4.763
22656W        W86215   8.840  18.181   2.839
22657W        W86216   4.777   1.795  11.965
22658W        W86217   5.767   0.324  10.625
22659W        W86218   2.755  32.471  10.565
22660W        W86219   5.896  42.871  10.483
22661W        W86220  34.497   5.905   3.335
22662W        W86221  20.683  23.207   0.738
22663W        W86222  25.964  20.528   3.758
22664W        W86223  27.567   4.753  11.031
22665W        W86224  36.496  36.917   1.705
22666W        W86225  20.549   6.905   0.457
22667W        W86226  36.887  43.458   1.395
22668W        W86227  23.711  29.644   0.352
22669W        W86228  30.518  16.098   0.919
22670W        W86229  20.247   3.440   3.804
22671W        W86230  14.316   1.861  13.382
22672W        W86231  37.930  35.019   0.355
22673W        W86232   7.782  44.833   4.620
22674W        W86233  31.505  23.137  11.387
22675W        W86234  10.331  15.295   0.360
22676W        W86235   9.844   8.794   0.886
22677W        W86236  14.286  10.193   4.619
22678W        W86237  25.183  25.607  12.505
22679W        W86238  35.054  10.187  14.772
22680W        W86239  26.654  25.192  12.881
22681W        W86240  37.421   6.760   3.737
22682W        W86241   4.879  31.991   1.783
22683W        W86242   8.702  38.926  13.981
22684W        W86243  32.415  12.769  13.944
22685W        W86244  40.470  35.078   3.217
22686W        W86245   7.286  19.196   4.214
22687W        W86246  17.080  36.461   2.739
22688W        W86247  15.650  23.724  13.388
22689W        W86248  43.293  35.457   3.228
22690W        W86249  33.045   8.874   2.258
22691W        W86250  14.173  43.913  11.982
22692W        W86251  36.481  43.778  12.067
22693W        W86252   2.950   2.941  11.966
22694W        W86253  21.088  27.983   5.204
22695W        W86254  24.595  26.608  10.995
22696W        W86255  32.952  20.604  13.975
22697W        W86256  43.282  19.672   4.273
22698W        W86257  23.094  32.552   0.298
22699W        W86258   7.409  43.802  13.902
22700W        W86259  17.619  44.926   3.319
22701W        W86260  14.822  29.562  13.859
22702W        W86261  23.545  22.145   4.718
22703W        W86262  35.457  37.400  14.488
22704W        W86263  39.864   4.787  12.865
22705W        W86264  12.847   8.728   1.914
22706W        W86265  24.594  42.819  12.912
22707W        W86266  12.623  10.693  11.971
22708W        W86267  28.953  16.148   3.635
22709W        W86268  31.046  40.817  13.040
22710W        W86269  41.863  38.063   2.705
22711W        W86270   8.827  39.538  10.963
22712W        W86271  11.128  44.322  12.027
22713W        W86272   0.318  16.698  13.943
22714W        W86273   1.246  43.915   3.757
22715W        W86274  39.835  11.269   0.797
22716W        W86275  39.512  43.470   2.404
22717W        W86276  27.574  31.951   2.806
22718W        W86277   1.283  24.704  12.967
22719W        W86278   2.448  32.109  13.804
22720W        W86279  33.553  23.669  14.343
22721W        W86280  29.031  20.533   4.732
22722W        W86281  44.756   3.943  14.774
22723W        W86282  32.033  27.096   4.290
22724W        W86283  14.266   0.834  11.118
22725W        W86284  28.944  10.176   0.246
22726W        W86285  24.686  23.142  14.338
22727W        W86286  31.081  14.274  14.852
22728W        W86287  31.484  10.371   3.635
22729W        W86288   8.216  26.691   0.443
22730W        W86289  11.623   3.246  11.937
22731W        W86290  40.438  10.352  11.389
22732W        W86291   3.878  21.120  10.578
22733W        W86292  15.796  24.570  13.506
22734W        W86293  32.626  29.498  11.457
22735W        W86294  24.664  12.777  11.506
22736W        W86295  38.039   4.796   0.386
22737W        W86296  10.678  44.861   1.272
22738W        W86297  11.695  42.890   3.248
22739W        W86298  22.677   1.754   9.970
22740W        W86299  42.874  24.490   2.218
22741W        W86300  14.150  37.981  12.518
22742W        W86301  21.526   2.949   4.607
22743W        W86302  21.690   7.410   4.805
22744W        W86303  33.542   1.391   1.818
22745W        W86304  44.953  30.936  13.886
22746W        W86305  42.983  43.918   0.793
22747W        W86306  41.893  10.178  12.556
22748W        W86307  14.146  14.602   2.664
22749W        W86308  43.421  24.002  14.515
22750W        W86309  27.689  27.140   4.634
22751W        W86310  13.291   0.405   2.347
22752W        W86311   2.788  39.023  10.964
22753W        W86312   6.771  19.081  10.518
22754W        W86313  40.974   8.248   2.716
22755W        W86314   8.381  28.113   4.652
22756W        W86315  40.999  40.415  14.415
22757W        W86316  26.127  30.140   1.927
22758W        W86317  30.570  18.072   3.170
22759W        W86318  44.838  21.726   4.780
22760W        W86319  17.127  29.133  13.401
22761W        W86320  10.214  28.168  12.023
22762W        W86321  20.586  22.061   3.700
22763W        W86322  28.478  13.187  12.471
22764W        W86323  16.150  34.113  12.420
22765W        W86324   6.715  13.194  14.362
22766W        W86325   8.390  36.893   0.421
22767W        W86326   3.229   5.399  12.890
22768W        W86327  10.155  24.091   1.910
22769W        W86328   7.295  26.113   4.629
22770W        W86329   6.428  37.950   3.761
22771W        W86330  40.882   6.877   0.414
22772W        W86331  13.250  20.570   1.741
22773W        W86332  17.255  23.027   2.337
22774W        W86333  43.018  42.281  14.807
22775W        W86334  22.563  35.392   0.295
22776W        W86335  13.801  37.034  11.045
22777W        W86336  35.903   5.248  14.025
22778W        W86337   4.299   5.805  10.638
22779W        W86338  13.194  27.181   4.688
22780W        W86339  34.077  42.458   1.695
22781W        W86340   1.460  25.987   0.764
22782W        W86341  31.061  14.229   0.330
22783W        W86342  22.102   6.853   0.434
22784W        W86343  38.549  34.615  11.604
22785W        W86344  28.153  39.445   3.361
22786W        W86345  18.676  41.376   1.925
22787W        W86346  42.434   4.798   0.763
22788W        W86347   0.871   6.345   4.656
22789W        W86348  10.651   5.765   0.393
22790W        W86349   7.737  38.560   0.328
22791W        W86350  31.086   9.218   1.283
22792W        W86351  17.287   5.396   3.325
22793W        W86352  11.317  44.368  12.387
22794W        W86353  42.398  17.129  11.442
22795W        W86354  16.677  30.039   2.418
22796W        W86355  31.995   8.690   4.168
22797W        W86356  42.306  31.923   1.866
22798W        W86357  19.139  35.408  10.463
22799W        W86358  39.919  30.070  13.981
22800W        W86359  18.186  14.260  12.521
22801W        W86360  19.552  29.163  11.595
22802W        W86361  26.462  19.603  12.042
22803W        W86362  14.694  24.979  13.855
22804W        W86363  41.009  36.878  10.898
22805W        W86364  26.130  27.992  14.336
22806W        W86365  27.086  17.092  10.956
22807W        W86366  30.960  11.301  14.901
22808W        W86367   5.229  19.649  13.335
22809W        W86368   2.421  19.097   2.696
22810W        W86369  24.165  30.097   2.179
22811W        W86370  33.034  43.967   0.422
22812W        W86371  34.969  10.175  11.028
22813W        W86372   2.795  28.941   3.670
22814W        W86373  12.759   5.801  14.943
22815W        W86374  15.159  22.158  12.441
22816W        W86375  40.520  13.801  10.533
22817W        W86376  28.484   9.845  12.850
22818W        W86377  14.282  36.439   2.269
22819W        W86378  20.545  37.360  12.071
22820W        W86379  40.333   9.196   4.639
22821W        W86380  28.095  43.388  12.839
22822W        W86381  27.641   8.717  10.587
22823W        W86382  34.030   6.748   0.371
22824W        W86383  30.601  41.888  14.766
22825W        W86384  11.865  44.424  11.473
22826W        W86385  28.015  44.299  14.891
22827W        W86386  14.208   0.297   1.215
22828W        W86387  43.427  31.610   4.212
22829W        W86388  36.956  43.892  10.910
22830W        W86389  32.422  16.584   4.815
22831W        W86390  10.858  10.363   1.861
22832W        W86391  22.523  40.799   0.821
22833W        W86392   6.183  32.584   2.787
22834W        W86393   9.182  39.992   2.789
22835W        W86394  16.128   6.325  14.338
22836W        W86395  34.580  11.823   2.763
22837W        W86396  21.121  31.984  13.530
22838W        W86397  35.874  10.190  10.414
22839W        W86398  41.949   1.860   5.304
22840W        W86399   6.292   0.272   1.825
22841W        W86400  20.587  44.329  13.426
22842W        W86401  17.232  13.133   4.260
22843W        W86402  22.741   4.419  14.416
22844W        W86403  38.926   4.918  12.560
22845W        W86404  39.938  36.926   0.739
22846W        W86405  23.715  42.912  10.995
22847W        W86406  28.930  38.447  13.802
22848W        W86407   2.863  26.673  13.389
22849W        W86408  16.636  37.887  14.996
22850W        W86409   5.855   6.398   3.734
22851W        W86410  34.059  31.117   4.612
22852W        W86411  20.767  22.715  12.052
22853W        W86412  22.634   0.275  12.049
22854W        W86413  10.232  27.094  13.822
22855W        W86414  18.724   4.407  10.406
22856W        W86415  15.163  43.484  12.340
22857W        W86416  21.586  33.442   3.835
22858W        W86417  22.649  11.741  13.791
22859W        W86418   2.841  17.678   2.410
22860W        W86419  14.762  42.298  10.489
22861W        W86420  38.457  20.256   3.161
22862W        W86421   2.760  32.083  14.387
22863W        W86422  38.938  15.715  12.479
22864W        W86423   3.918   6.195  12.438
22865W        W86424   9.299   3.311   2.800
22866W        W86425  44.495  38.930   1.759
22867W        W86426  38.351  31.425  10.417
22868W        W86427  31.103   3.459  11.391
22869W        W86428  34.055   9.794  13.931
22870W        W86429  26.591   5.306   3.327
22871W        W86430  17.274  38.955  10.590
22872W        W86431   9.215  32.470  11.987
22873W        W86432   2.375   5.215  14.394
22874W        W86433  30.021   8.829   2.224
22875W        W86434  11.327  34.932   0.272
22876W        W86435   3.433   0.753   5.168
22877W        W86436  27.963  35.930   5.223
22878W        W86437  11.762  25.122   3.689
22879W        W86438  20.150  38.007   3.741
22880W        W86439   3.294  33.383  10.919
22881W        W86440  27.502  30.151  14.370
22882W        W86441  27.089  26.117   1.798
22883W        W86442   8.734  25.993  13.871
22884W        W86443  18.566   6.285   0.419
22885W        W86444   7.375  18.706  13.873
22886W        W86445  40.522  29.920  14.438
22887W        W86446  20.738  41.520  12.934
22888W        W86447   9.366  34.076  13.813
22889W        W86448  41.921   9.656   3.306
22890W        W86449  14.160  12.670   4.678
22891W        W86450  29.482  40.545   0.887
22892W        W86451  15.678  38.547  10.121
22893W        W86452  37.391  34.527   0.887
22894W        W86453  23.204  19.724   2.818
22895W        W86454  23.647  30.967   1.893
22896W        W86455  10.214   2.777   4.332
22897W        W86456   3.841  19.675   4.781
22898W        W86457  22.212  31.592  12.410
22899W        W86458  15.232  19.636   1.764
22900W        W86459  18.764  10.867   1.705
22901W        W86460  23.733   2.781   3.802
22902W        W86461   1.337  25.691   0.386
22903W        W86462   1.766  38.407  11.857
22904W        W86463  13.812   6.183   1.433
22905W        W86464  33.878  43.003  10.524
22906W        W86465  14.131  34.925  14.759
22907W        W86466  41.008   4.851  12.009
22908W        W86467  36.943  14.619  14.766
22909W        W86468  32.077  24.199   1.213
22910W        W86469  18.770  29.986   4.712
22911W        W86470  19.047  23.689  12.090
22912W        W86471  44.881  23.608   2.205
22913W        W86472  10.700  44.394   9.964
22914W        W86473  24.547  40.310  10.643
22915W        W86474  33.957  44.352  11.123
22916W        W86475  39.449  25.219  14.280
22917W        W86476   3.784   0.911  11.480
22918W        W86477  25.676  37.916  13.017
22919W        W86478  37.443  10.675  13.856
22920W        W86479  10.853   4.810  14.021
22921W        W86480  23.661  31.100  13.377
22922W        W86481  38.890  40.326   0.926
22923W        W86482  42.851  28.465   3.631
22924W        W86483  20.616  17.288  13.426
22925W        W86484  10.640  14.786  11.533
22926W        W86485  42.986  21.723   3.820
22927W        W86486  41.826  41.037   2.889
22928W        W86487   1.914  27.539  10.998
22929W        W86488   5.236  38.513   2.698
22930W        W86489  20.086  25.196   1.760
22931W        W86490  37.017   8.855  10.478
22932W        W86491   3.326  31.601  13.957
22933W        W86492  28.086  38.542  12.039
22934W        W86493   6.256  18.573   3.225
22935W        W86494   5.389  26.587  13.528
22936W        W86495  22.068   9.197  14.984
22937W        W86496  12.217  41.372  13.434
22938W        W86497  32.573  35.455   4.223
22939W        W86498  13.220  44.464   4.638
22940W        W86499  40.013  26.559   0.366
22941W        W86500  12.671  19.191  11.864
22942W        W86501  25.548   8.197   5.247
22943W        W86502  19.777   1.787   2.353
22944W        W86503   7.205  17.279   1.716
22945W        W86504  36.087  34.022   3.823
22946W        W86505  18.658   6.754   0.749
22947W        W86506  15.153  29.050   4.125
22948W        W86507  13.730  30.420  11.114
22949W        W86508   1.280  14.095  14.994
22950W        W86509   4.415   4.251  13.975
22951W        W86510  11.305  42.412  11.558
22952W        W86511  12.308   3.449   2.406
22953W        W86512  44.450   0.402  10.416
22954W        W86513  25.092  25.566   1.301
22955W        W86514   1.763  42.440  11.907
22956W        W86515  17.077  22.223  10.938
22957W        W86516  42.987  28.669  11.033
22958W        W86517   2.436  25.698  14.414
22959W        W86518  15.755   1.867  13.382
22960W        W86519  27.678  19.108  13.545
22961W        W86520   4.278  34.532  11.472
22962W        W86521  30.120  22.650  12.840
22963W        W86522  36.900  18.661   4.825
22964W        W86523  25.607   7.325  14.003
22965W        W86524  24.656  32.071   5.200
22966W        W86525  30.565   7.893  12.432
22967W        W86526   4.755   8.313  11.065
22968W        W86527  37.029  19.692  11.124
22969W        W86528  29.147  32.545   1.699
22970W        W86529  18.754  19.270  12.047
22971W        W86530  41.882  37.558   4.151
22972W        W86531  18.194   6.719   0.827
22973W        W86532   6.194  21.685   3.153
22974W        W86533  35.580  35.060   2.696
22975W        W86534  38.505  22.590   3.267
22976W        W86535   4.938  34.490   0.384
22977W        W86536  15.662  20.081   4.693
22978W        W86537  30.542  38.355  10.959
22979W        W86538  36.933  25.529  12.943
22980W        W86539  13.139  18.051   1.723
22981W        W86540  27.588   0.791  12.464
22982W        W86541  43.447  44.009   4.795
22983W        W86542   2.268  10.256   1.743
22984W        W86543  43.793  26.554  12.532
22985W        W86544   1.350  32.569  10.537
22986W        W86545  17.732   1.317   1.255
22987W        W86546  37.901  15.316  13.999
22988W        W86547   8.692  43.297  14.334
22989W        W86548  22.708  15.583   2.221
22990W        W86549  25.609   8.373  12.931
22991W        W86550  37.402   5.848  14.857
22992W        W86551   1.957  10.839  13.516
22993W        W86552  43.387  31.120   2.419
22994W        W86553  15.724  32.403   0.344
22995W        W86554  29.955  26.574  14.010
22996W        W86555  44.995  17.245   1.342
22997W        W86556  43.386   3.285   5.100
22998W        W86557  31.474  36.488  13.948
22999W        W86558   0.469  29.591   1.307
23000W        W86559   0.890  11.231  12.386
23001W        W86560   7.857  10.255  12.361
23002W        W86561  20.547  22.742   2.306
23003W        W86562  33.878  30.486  13.342
23004W        W86563   7.788   1.830   2.754
23005W        W86564   0.423  29.601   3.226
23006W        W86565  42.906  26.192  14.276
23007W        W86566  20.272   8.860   4.183
23008W        W86567   6.766   0.481   4.241
23009W        W86568   8.741  10.762  10.456
23010W        W86569  25.030  37.019  12.867
23011W        W86570  14.603  43.434  14.895
23012W        W86571  44.936  12.309  11.074
23013W        W86572  29.995  24.590  11.117
23014W        W86573  18.249  30.545   3.700
23015W        W86574   5.344  29.151   1.355
23016W        W86575  25.197  12.675   2.802
23017W        W86576  37.463  17.666  11.877
23018W        W86577   4.866  10.309   0.324
23019W        W86578   8.323  17.110   3.730
23020W        W86579  18.565  10.332   3.840
23021W        W86580  14.227  28.027  14.916
23022W        W86581  18.559   0.380  14.853
23023W        W86582  16.221  28.066   4.165
23024W        W86583  13.236  28.983  12.973
23025W        W86584  15.119  32.552  10.988
23026W        W86585   7.830  42.507   0.324
23027W        W86586   0.918  23.512  13.817
23028W        W86587  32.442  43.938   3.632
23029W        W86588   1.465  43.411  12.381
23030W        W86589  24.533  22.710   4.303
23031W        W86590  16.104  26.577  13.939
23032W        W86591   1.816   3.397  13.803
23033W        W86592  39.538  30.565   5.259
23034W        W86593  14.643  30.148   3.266
23035W        W86594  37.420  42.409  11.051
23036W        W86595  29.665  41.962  14.004
23037W        W86596  42.306  11.836   0.918
23038W        W86597  39.813   5.908  11.076
23039W        W86598  36.059  20.593  10.512
23040W        W86599   9.731  29.129   1.730
23041W        W86600  35.463  10.763  12.032
23042W        W86601  23.687   6.208  13.398
23043W        W86602  10.226  20.694  10.628
23044W        W86603  30.021  21.754   5.249
23045W        W86604   9.815  44.479  13.049
23046W        W86605  25.048  34.605  11.472
23047W        W86606   0.942   4.807  12.923
23048W        W86607  40.976  29.645  11.976
23049W        W86608   3.241  38.444  14.307
23050W        W86609  39.015   7.307   5.277
23051W        W86610  23.576  32.403  14.788
23052W        W86611  22.553  28.680  13.316
23053W        W86612  40.518  44.840  11.541
23054W        W86613   9.326  19.773  11.862
23055W        W86614  35.888  26.980   4.828
23056W        W86615   2.784   2.342  12.905
23057W        W86616  36.949  26.684  13.328
23058W        W86617  42.463  22.185  12.082
23059W        W86618  34.950  14.338  11.883
23060W        W86619  39.352  21.020  13.437
23061W        W86620   1.784   7.413  12.533
23062W        W86621   3.824  23.984   4.790
23063W        W86622  33.874  24.211   2.376
23064W        W86623  10.317  44.486  13.451
23065W        W86624  41.493   7.677   2.843
23066W        W86625   3.904  15.102  13.830
23067W        W86626  33.049  17.108   3.818
23068W        W86627  10.743  30.939  11.884
23069W        W86628   4.278  33.005   2.810
23070W        W86629   7.750  43.430   0.740
23071W        W86630  19.742  30.543   2.182
23072W        W86631   2.445  21.569  10.903
23073W        W86632  30.911  21.175  14.480
23074W        W86633  26.616   7.822   2.346
23075W        W86634  44.336   8.282  11.407
23076W        W86635  20.130  12.782   4.811
23077W        W86636  22.032  29.661   0.354
23078W        W86637  21.681   6.294   3.153
23079W        W86638  40.352  12.126  12.959
23080W        W86639   0.320  42.815  11.537
23081W        W86640  14.249  12.276  11.002
23082W        W86641  44.498  31.509  12.040
23083W        W86642  25.121  10.799  14.409
23084W        W86643   5.903  19.544   2.873
23085W        W86644  12.856   0.799   0.734
23086W        W86645   5.703   9.212  11.429
23087W        W86646   0.916  24.680  13.901
23088W        W86647   3.456  38.377   1.314
23089W        W86648  21.201  40.327  13.316
23090W        W86649  11.820   1.426  10.551
23091W        W86650   2.367  25.538  13.883
23092W        W86651   4.939  12.140  11.078
23093W        W86652  17.750  41.852   0.948
23094W        W86653  29.938   8.773   1.910
23095W        W86654  43.491  23.238  10.417
23096W        W86655   9.205  42.006   4.194
23097W        W86656  37.972   8.193  14.865
23098W        W86657   5.773  14.245  11.099
23099W        W86658  27.156  29.036  11.401
23100W        W86659  37.362  12.178   3.286
23101W        W86660  32.433  10.673   3.674
23102W        W86661  30.428  38.892  14.861
23103W        W86662  16.809  41.872   4.205
23104W        W86663  35.512  42.371   2.304
23105W        W86664  24.564   5.866  12.418
23106W        W86665  35.878  17.093  11.502
23107W        W86666  42.001  15.213   2.677
23108W        W86667  12.665  42.428  14.347
23109W        W86668  22.063  26.527  12.579
23110W        W86669   9.842  13.787   3.205
23111W        W86670   5.928  25.562  13.379
23112W        W86671  13.827  30.962   1.869
23113W        W86672  37.423  38.029  13.347
23114W        W86673  14.308  38.405  11.430
23115W        W86674  35.378  39.909  11.020
23116W        W86675   0.380  30.565  13.334
23117W        W86676  18.751  23.241  11.503
23118W        W86677  31.480   0.351   0.424
23119W        W86678  17.125   6.258  10.951
23120W        W86679  33.074  39.457   0.882
23121W        W86680  38.056   7.731   3.826
23122W        W86681   5.713  27.648   1.407
23123W        W86682   7.857  13.294   4.682
23124W        W86683  40.975  25.125  10.456
23125W        W86684  20.673   8.831  14.461
23126W        W86685  16.163  29.603  11.595
23127W        W86686   3.912  29.067  12.017
23128W        W86687  11.365  41.496  14.995
23129W        W86688  42.465   7.876  13.887
23130W        W86689  13.620  15.660   1.238
23131W        W86690  37.455  13.110  13.896
23132W        W86691  16.751  24.552   5.583
23133W        W86692  18.673  18.704  14.486
23134W        W86693  12.740  33.876   4.764
23135W        W86694   5.429  39.899  12.899
23136W        W86695  11.790  10.752   2.374
23137W        W86696  19.231  28.101  11.059
23138W        W86697  22.603  33.099  13.464
23139W        W86698  16.111   8.178   0.822
23140W        W86699  16.122  28.653   4.260
23141W        W86700  39.532  15.104   0.305
23142W        W86701  28.476  17.793   4.758
23143W        W86702  43.793   2.878   0.741
23144W        W86703  17.238  24.167  12.886
23145W        W86704   0.777  33.998  13.045
23146W        W86705   5.868  36.555  12.005
23147W        W86706  32.495   7.373  13.497
23148W        W86707   2.300  22.143   3.661
23149W        W86708  37.492  26.169  10.540
23150W        W86709  36.845  30.939  14.440
23151W        W86710   7.778   1.245  10.560
23152W        W86711  36.459   0.473  11.072
23153W        W86712  41.373  10.310   3.201
23154W        W86713  33.962  13.240   2.693
23155W        W86714  28.106  25.570   0.907
23156W        W86715   7.387  30.422   2.781
23157W        W86716  44.405  36.047   0.244
23158W        W86717  18.552  24.510  14.490
23159W        W86718  27.066  42.858  10.435
23160W        W86719  35.385  43.435  13.508
23161W        W86720  18.174  15.814   0.475
23162W        W86721   8.877   6.300   1.909
23163W        W86722  22.628  41.029  11.908
23164W        W86723  30.430   9.179  10.552
23165W        W86724   5.733  44.499  10.491
23166W        W86725  41.493   2.799   4.187
23167W        W86726  30.090  32.501   4.637
23168W        W86727  13.138   5.211  14.909
23169W        W86728   4.712  41.404   2.713
23170W        W86729  41.931  37.898   1.389
23171W        W86730  27.179  21.642  12.356
23172W        W86731  39.953   4.321   4.184
23173W        W86732   3.803   7.824  14.303
23174W        W86733  34.911  43.512  12.405
23175W        W86734  10.855  43.412  13.323
23176W        W86735  22.163  22.580  12.580
23177W        W86736  27.948   5.856   1.778
23178W        W86737  41.521  30.933  13.375
23179W        W86738  13.630  44.841  13.940
23180W        W86739  20.273   8.844  11.965
23181W        W86740  27.662  36.085  14.980
23182W        W86741  33.623   5.787  11.568
23183W        W86742  22.127   0.782   1.394
23184W        W86743  21.122  40.494   5.226
23185W        W86744  29.430  21.202   3.785
23186W        W86745  10.639  20.580  12.522
23187W        W86746  26.205   6.740  11.543
23188W        W86747  18.684  19.057   2.754
23189W        W86748  38.535   3.947   2.302
23190W        W86749  43.359  15.815  12.397
23191W        W86750  42.495  15.712  11.379
23192W        W86751  35.466  41.434  14.868
23193W        W86752  41.924  15.152  12.449
23194W        W86753  25.074  41.896   0.379
23195W        W86754   0.293   0.330  12.509
23196W        W86755  13.745  39.831   2.749
23197W        W86756   9.259   6.854   0.326
23198W        W86757  43.934   8.755  13.506
23199W        W86758  40.949  31.423  10.563
23200W        W86759   1.482  19.235   4.828
23201W        W86760  41.930  44.899   0.848
23202W        W86761  37.361   3.730  11.961
23203W        W86762  27.158  30.975  11.577
23204W        W86763  14.211  17.239  10.595
23205W        W86764  38.337   0.406  11.426
23206W        W86765   7.873   7.218   2.687
23207W        W86766  29.115  27.163  12.918
23208W        W86767  12.348  15.141   2.842
23209W        W86768  22.682  29.441  12.342
23210W        W86769  15.210  31.985   4.607
23211W        W86770  41.025  37.407   2.183
23212W        W86771  21.194  24.026   5.300
23213W        W86772  38.452  23.168   3.333
23214W        W86773  11.297  32.528   1.217
23215W        W86774  25.519  25.215   9.925
23216W        W86775  27.145   0.438  12.831
23217W        W86776  34.547  41.924  12.848
23218W        W86777  13.769  18.620  14.411
23219W        W86778  37.372  28.468   4.323
23220W        W86779  23.221  13.820  13.986
23221W        W86780  35.582  43.374  12.505
23222W        W86781   5.703  17.672   4.757
23223W        W86782  15.293  18.674  11.002
23224W        W86783  27.187  11.234   1.220
23225W        W86784  18.574  18.758  12.082
23226W        W86785   9.270   3.853  14.293
23227W        W86786  37.914  20.591   1.374
23228W        W86787  18.749  32.892   3.730
23229W        W86788   1.389  23.730   1.709
23230W        W86789  27.052  37.945  14.412
23231W        W86790  10.154  42.003   1.305
23232W        W86791  24.680  17.183  13.510
23233W        W86792  33.002  38.018  12.961
23234W        W86793  42.387  33.411  11.568
23235W        W86794  10.152  44.908  12.867
23236W        W86795  11.679  41.978  13.319
23237W        W86796  10.752  19.213   1.219
23238W        W86797  13.278  14.658  13.334
23239W        W86798  41.922  26.479  13.951
23240W        W86799  21.157  30.640   5.259
23241W        W86800  35.401  19.562   1.374
23242W        W86801   8.741  41.873   0.871
23243W        W86802  40.528  13.165  10.407
23244W        W86803  13.316  40.320  11.001
23245W        W86804  16.120  41.798  12.489
23246W        W86805  24.531  20.256   2.227
23247W        W86806  26.031  35.981  11.051
23248W        W86807  43.498   0.985  14.839
23249W        W86808  38.478   5.876  12.014
23250W        W86809   8.403  18.758   1.795
23251W        W86810   8.232  21.263  11.941
23252W        W86811  30.431  28.457   3.802
23253W        W86812   7.756  16.695   2.901
23254W        W86813  15.292  18.624  12.563
23255W        W86814  41.365  13.182  11.549
23256W        W86815  21.644  11.766  12.056
23257W        W86816  35.098  41.412  13.836
23258W        W86817  29.106  29.055  14.818
23259W        W86818  12.727  40.943   4.685
23260W        W86819  14.833   3.797   1.797
23261W        W86820   5.732  11.662   3.209
23262W        W86821  36.578   4.359   3.862
23263W        W86822   7.224  42.805   0.899
23264W        W86823  14.812  21.188  10.638
23265W        W86824  26.133  17.714   4.125
23266W        W86825  25.062  32.593  11.600
23267W        W86826  32.427  31.937   0.245
23268W        W86827   3.712   9.702  12.533
23269W        W86828  32.916  27.072   3.311
23270W        W86829  26.957  23.680   0.420
23271W        W86830   2.299  26.625   1.885
23272W        W86831   4.925  17.706  12.968
23273W        W86832  12.360  14.182   1.869
23274W        W86833  25.174  43.342   1.422
23275W        W86834  40.802  31.100  12.513
23276W        W86835  20.116  18.241  11.063
23277W        W86836  34.379  26.590  10.960
23278W        W86837  26.652   3.256  13.048
23279W        W86838   8.890   5.770  10.994
23280W        W86839  26.500  16.301  10.623
23281W        W86840   2.444  36.863  14.311
23282W        W86841  39.935  30.438  11.465
23283W        W86842  24.996  36.877   0.246
23284W        W86843   6.352   1.424   2.901
23285W        W86844  24.598  29.551  10.905
23286W        W86845  21.080   8.228   0.857
23287W        W86846   4.387   4.331   1.231
23288W        W86847   4.860  29.980  11.471
23289W        W86848  40.321  26.091   0.385
23290W        W86849  19.724  35.925   4.288
23291W        W86850  37.571   5.932   3.179
23292W        W86851  21.652  36.458   0.904
23293W        W86852  38.062  38.341   1.226
23294W        W86853  11.732  42.897  11.444
23295W        W86854  31.982  38.551  11.438
23296W        W86855  17.246   4.909  13.046
23297W        W86856  15.625   4.807  14.765
23298W        W86857  32.934  44.376   2.669
23299W        W86858  42.793   5.830  14.490
23300W        W86859  32.473   9.356  12.049
23301W        W86860   4.765   4.716   3.343
23302W        W86861  36.064  32.020   4.337
23303W        W86862  15.804   8.731   3.860
23304W        W86863  15.658  27.687   1.274
23305W        W86864  32.411  12.268  11.076
23306W        W86865   1.764   5.713   0.760
23307W        W86866  11.731   5.377  12.964
23308W        W86867  21.201  34.410  11.476
23309W        W86868  24.526  24.222  11.952
23310W        W86869  43.423  30.069  13.397
23311W        W86870  21.748  41.420  13.429
23312W        W86871  11.233   2.337   3.209
23313W        W86872  32.142  19.780  12.480
23314W        W86873  30.635   6.256  11.439
23315W        W86874  27.136  31.578  12.552
23316W        W86875  12.680  43.814  11.102
23317W        W86876   9.367  40.345   1.744
23318W        W86877  28.521  36.936   4.735
23319W        W86878   2.724   1.289  14.782
23320W        W86879  28.136  16.143  14.944
23321W        W86880   0.494  19.088   0.745
23322W        W86881  15.780  30.542  13.508
23323W        W86882  17.630  44.442   3.861
23324W        W86883  36.939  20.067   3.216
23325W        W86884  44.000  43.864  13.545
23326W        W86885  21.224  30.005  13.423
23327W        W86886  17.649  25.973   3.862
23328W        W86887  25.610   8.223   9.490
23329W        W86888  32.503  44.484  10.447
23330W        W86889  35.425  16.231  10.983
23331W        W86890  21.101  19.649   9.985
23332W        W86891  20.574   2.402  12.575
23333W        W86892   1.367   8.892  13.340
23334W        W86893  15.736  36.475   3.271
23335W        W86894  12.259  22.501  13.873
23336W        W86895  18.683   0.289   1.902
23337W        W86896  37.873   2.893  12.477
23338W        W86897  24.677   8.245   4.827
23339W        W86898  34.510  35.456   4.694
23340W        W86899   8.700  31.074  11.955
23341W        W86900  30.015   9.694  10.626
23342W        W86901  28.141  39.854   0.888
23343W        W86902  26.642  33.592  14.344
23344W        W86903  22.560  17.714  12.513
23345W        W86904   4.782  41.351  13.363
23346W        W86905  39.979   8.348  13.930
23347W        W86906  12.156  17.636  14.312
23348W        W86907  35.529  31.059   1.820
23349W        W86908  10.763  38.402  11.074
23350W        W86909   8.247   0.253  12.516
23351W        W86910  32.046  25.088  11.056
23352W        W86911  14.801  17.588  13.403
23353W        W86912   6.412  24.150  11.476
23354W        W86913   2.825  28.619   0.385
23355W        W86914   1.943  30.458   3.146
23356W        W86915  20.551  22.674  14.274
23357W        W86916  44.957  28.467  10.486
23358W        W86917  21.237   2.811   2.368
23359W        W86918  20.635  27.052   9.929
23360W        W86919  30.142  19.696  11.606
23361W        W86920  31.033  24.217  12.831
23362W        W86921  14.152  43.486  11.938
23363W        W86922   3.418   4.436  10.992
23364W        W86923  13.792  11.158  13.974
23365W        W86924   8.725  34.039  11.563
23366W        W86925  33.117  27.555  10.419
23367W        W86926  21.261  34.375  13.920
23368W        W86927  29.993  40.008   9.574
23369W        W86928  33.559  32.561   3.665
23370W        W86929  15.237  19.265   3.331
23371W        W86930  17.719  20.755   2.394
23372W        W86931   2.884  39.926  13.975
23373W        W86932  33.066  26.180   1.847
23374W        W86933  16.313   9.783   2.698
23375W        W86934  34.513   6.908   0.475
23376W        W86935  42.005  41.002   3.843
23377W        W86936  28.582  27.024   4.280
23378W        W86937  26.023  22.509  13.527
23379W        W86938  10.708  27.667   1.801
23380W        W86939   6.684  23.510  13.319
23381W        W86940  28.985  41.016  13.376
23382W        W86941  37.388  38.875   3.634
23383W        W86942  24.679  10.686   0.323
23384W        W86943  26.561  14.743  11.022
23385W        W86944   5.866  12.333   0.932
23386W        W86945  12.748   7.691  13.011
23387W        W86946  19.709  43.423  14.299
23388W        W86947  29.947   6.305  10.483
23389W        W86948  12.803  11.757  12.570
23390W        W86949  12.276  20.115   4.804
23391W        W86950  38.923   0.760   1.814
23392W        W86951   8.355  34.575  14.913
23393W        W86952   4.861  17.757   1.876
23394W        W86953  31.417   4.712  10.629
23395W        W86954  17.771  22.716  10.944
23396W        W86955   1.469   3.856  14.854
23397W        W86956  21.577   8.393   0.741
23398W        W86957   1.277  36.999   4.608
23399W        W86958   7.720  29.621  10.946
23400W        W86959  21.742   1.296  11.077
23401W        W86960  21.755  19.730  13.017
23402W        W86961  44.818  19.241   3.280
23403W        W86962  36.479   7.332  11.886
23404W        W86963  34.510   9.299   1.223
23405W        W86964  23.160   5.241  14.321
23406W        W86965  18.289  44.355   2.819
23407W        W86966  23.514  11.708   3.788
23408W        W86967   1.345   0.296  14.827
23409W        W86968  43.476  42.372   0.300
23410W        W86969  26.470  42.787  10.150
23411W        W86970  20.732  24.676  11.486
23412W        W86971   0.449  40.412   4.701
23413W        W86972  28.472  38.985   0.870
23414W        W86973   5.869  24.990  11.584
23415W        W86974  40.364  22.617   4.289
23416W        W86975  43.303  43.992   2.859
23417W        W86976  10.233  37.463  10.413
23418W        W86977   2.465  44.776   3.188
23419W        W86978  34.543  16.753  12.498
23420W        W86979  40.050  31.098   2.899
23421W        W86980  24.199   3.812   3.741
23422W        W86981  13.249  23.501  13.974
23423W        W86982   5.765   3.450   1.410
23424W        W86983  34.014   3.461  12.547
23425W        W86984  38.347  13.822  13.413
23426W        W86985  25.131  42.997  13.460
23427W        W86986   5.334   2.906  13.840
23428W        W86987  42.385  10.197   0.437
23429W        W86988  28.642  26.461  13.980
23430W        W86989   7.870  27.995  10.003
23431W        W86990  35.891  33.491   0.476
23432W        W86991  23.003  26.152   4.352
23433W        W86992   6.723  43.830  14.010
23434W        W86993   1.753  28.163   2.708
23435W        W86994  22.179  18.743   2.760
23436W        W86995   0.865   5.196   1.440
23437W        W86996  30.536   6.836  14.881
23438W        W86997   6.802   4.315  11.924
23439W        W86998  16.668  20.700   4.209
23440W        W86999  29.495  19.720  13.884
23441W        W87000  40.044  29.000   4.161
23442W        W87001  22.617  34.380   3.742
23443W        W87002   8.743  32.127   2.309
23444W        W87003  42.032  34.468   4.629
23445W        W87004  14.600   1.265   2.892
23446W        W87005   0.351   5.305   4.178
23447W        W87006  18.771   7.783   3.763
23448W        W87007  22.171  36.569  13.002
23449W        W87008   0.280  31.909  14.512
23450W        W87009   3.380   5.352   3.350
23451W        W87010  14.271  34.412  12.079
23452W        W87011  40.030  14.715   2.389
23453W        W87012  35.470  34.456   4.680
23454W        W87013  41.464  15.631  11.124
23455W        W87014  14.132  40.321   1.413
23456W        W87015  39.316  41.965  12.492
23457W        W87016  17.260  41.434   1.308
23458W        W87017  35.421   9.840  14.964
23459W        W87018  27.191  13.693   2.790
23460W        W87019  14.254  29.160  13.387
23461W        W87020  43.018  31.090   2.686
23462W        W87021  41.457  43.959  14.432
23463W        W87022  30.979  27.104   3.256
23464W        W87023   4.828   4.237  10.960
23465W        W87024  33.435  19.596  13.471
23466W        W87025  35.598  18.634  13.438
23467W        W87026  43.872  15.678  10.476
23468W        W87027  14.110   8.296   2.177
23469W        W87028  37.361  34.465  11.406
23470W        W87029  31.589  18.654  14.327
23471W        W87030  28.098  25.129  11.121
23472W        W87031  31.513   9.285   4.802
23473W        W87032  23.049  16.628  10.593
23474W        W87033  23.129  30.123   2.766
23475W        W87034  27.036  12.843   3.749
23476W        W87035  17.597   0.429   4.616
23477W        W87036   3.898  13.828  11.558
23478W        W87037  19.591  30.908   2.862
23479W        W87038  21.069  35.440  14.412
23480W        W87039  32.557  16.784  14.915
23481W        W87040  24.642  23.020  11.372
23482W        W87041   2.285  42.307  12.357
23483W        W87042  30.127  25.176  13.846
23484W        W87043  10.632  36.367   0.842
23485W        W87044  32.562  19.711   4.779
23486W        W87045  19.728  20.551   2.875
23487W        W87046   1.478  25.656   2.733
23488W        W87047  36.565  34.590  13.013
23489W        W87048  17.289   3.224   2.703
23490W        W87049  39.410   7.265   3.769
23491W        W87050  41.838  18.206  13.411
23492W        W87051  22.189  21.573  12.976
23493W        W87052  12.760  24.055  14.875
23494W        W87053  15.253  22.701   2.285
23495W        W87054   2.928  12.359  11.111
23496W        W87055  32.038  20.714  11.991
23497W        W87056  10.864  10.838   4.721
23498W        W87057  39.421  25.587   4.721
23499W        W87058   5.343  43.921  13.022
23500W        W87059  30.452  12.210   2.212
23501W        W87060  41.320  34.116   0.451
23502W        W87061  18.624  19.743   0.847
23503W        W87062  23.052  23.986  12.061
23504W        W87063   8.787  26.625  12.541
23505W        W87064  17.062  29.646  12.513
23506W        W87065  18.067  13.159   1.796
23507W        W87066  15.135  15.727   1.390
23508W        W87067  10.706   0.341  13.901
23509W        W87068  36.884  36.847   2.694
23510W        W87069  19.046   6.827  12.034
23511W        W87070  28.576  38.916  13.355
23512W        W87071  11.305  12.748   4.149
23513W        W87072  16.178  32.423   1.352
23514W        W87073  17.592   6.427   1.321
23515W        W87074  16.303  38.340  10.974
23516W        W87075  26.560  13.177   0.777
23517W        W87076  35.971   1.908   0.424
23518W        W87077   0.894   5.267   3.303
23519W        W87078  24.016   8.762  12.361
23520W        W87079  25.101  30.554  10.948
23521W        W87080  20.573   3.881  10.976
23522W        W87081  34.945  37.905  14.511
23523W        W87082  33.557   0.802   4.268
23524W        W87083  15.802  22.128   1.323
23525W        W87084   8.819  31.416   3.638
23526W        W87085  44.859  37.999   2.875
23527W        W87086  31.963  11.229  12.528
23528W        W87087  29.625  43.311   2.206
23529W        W87088  43.878  21.704   2.694
23530W        W87089   1.254  11.793  11.038
23531W        W87090  25.643  32.408   3.173
23532W        W87091  14.119  43.414   1.694
23533W        W87092   4.316  16.616   4.726
23534W        W87093  12.828  27.662  12.059
23535W        W87094  15.092  36.383  10.602
23536W        W87095  36.863  42.803   3.209
23537W        W87096  23.171   8.723  13.963
23538W        W87097  27.961  14.706   3.858
23539W        W87098  32.606  21.656  10.454
23540W        W87099  36.354  23.711  12.395
23541W        W87100  18.184  22.034   1.848
23542W        W87101   2.271  33.901  11.034
23543W        W87102   9.858  24.091  14.430
23544W        W87103   6.250  19.591  14.478
23545W        W87104   6.197  22.523  11.612
23546W        W87105  15.655   8.290   1.308
23547W        W87106  19.603  22.547   2.331
23548W        W87107  22.563  21.580   2.240
23549W        W87108   1.797  25.005  13.867
23550W        W87109  40.334  25.616  10.916
23551W        W87110  15.601   9.344  14.457
23552W        W87111  33.960  15.760  14.829
23553W        W87112  28.569  16.087   4.818
23554W        W87113  39.999  35.554  11.510
23555W        W87114  37.501  35.581  10.067
23556W        W87115   7.360  20.669  11.384
23557W        W87116   4.770  20.155   1.759
23558W        W87117   3.791  39.015   2.837
23559W        W87118   3.802   7.367   1.701
23560W        W87119   3.951  30.151   2.779
23561W        W87120   0.405  12.714   1.924
23562W        W87121   4.911   0.355   2.696
23563W        W87122  25.666  26.075   3.685
23564W        W87123  11.271  21.670   0.802
23565W        W87124  44.914  21.658   1.752
23566W        W87125  30.921  22.150  14.324
23567W        W87126  11.826  20.612   4.218
23568W        W87127  15.215   6.269   1.446
23569W        W87128   3.726   9.161   0.407
23570W        W87129   1.962  18.281   4.129
23571W        W87130   4.408  37.522   3.756
23572W        W87131  29.941  41.383  14.394
23573W        W87132  28.952   4.256  14.871
23574W        W87133  29.623  15.634  13.898
23575W        W87134  26.642  11.307   0.256
23576W        W87135   5.786  23.026  13.031
23577W        W87136  26.638  41.914   2.335
23578W        W87137   7.217   2.330  11.980
23579W        W87138   7.354   7.414  11.587
23580W        W87139  20.251  14.246   1.861
23581W        W87140   5.200  34.988  14.897
23582W        W87141  44.990   9.684  12.864
23583W        W87142  26.675  11.316   1.784
23584W        W87143  37.407   9.212  13.962
23585W        W87144  17.701  37.833   1.212
23586W        W87145  10.262  25.561   1.266
23587W        W87146  41.822  32.017  12.395
23588W        W87147  36.956  16.685   3.187
23589W        W87148  17.304  14.603  14.331
23590W        W87149   9.889  28.931   4.173
23591W        W87150  28.962  31.928   1.779
23592W        W87151  23.521  34.530   0.922
23593W        W87152  16.093  42.026  10.912
23594W        W87153  27.474  19.235  11.437
23595W        W87154  23.732  34.085   4.757
23596W        W87155  16.298  43.321  12.490
23597W        W87156   2.239  31.144   1.829
23598W        W87157   6.888  30.977   4.833
23599W        W87158  31.901  12.840   2.812
23600W        W87159   4.250  10.375   1.442
23601W        W87160   2.470  36.523  13.515
23602W        W87161  21.732  36.850   2.743
23603W        W87162  25.691  22.599  12.899
23604W        W87163  16.760  39.505  13.834
23605W        W87164  15.609   9.855  14.835
23606W        W87165  33.518  28.656  13.884
23607W        W87166  37.388   4.881  10.542
23608W        W87167  25.985  20.161   2.307
23609W        W87168  17.769   1.826  11.531
23610W        W87169   1.865  40.983  10.917
23611W        W87170  39.953  43.406   4.155
23612W        W87171  28.567  18.161  13.949
23613W        W87172  11.149  34.570   4.647
23614W        W87173  15.728  28.566  14.868
23615W        W87174  16.627  15.138   0.421
23616W        W87175  12.355  44.318  12.437
23617W        W87176  44.440  25.147  10.916
23618W        W87177  26.655  30.936   0.452
23619W        W87178  39.974  13.812   4.207
23620W        W87179  37.949   6.405   0.432
23621W        W87180  39.427  42.819   2.195
23622W        W87181  17.218  33.499   4.241
23623W        W87182  18.778  28.998   9.596
23624W        W87183  42.396  20.194   2.859
23625W        W87184  41.000  19.639  10.608
23626W        W87185  40.015  32.486  14.821
23627W        W87186  19.056   1.955  14.403
23628W        W87187   9.848  32.117   2.732
23629W        W87188  35.965  24.588   1.706
23630W        W87189  20.229  27.556   2.892
23631W        W87190  34.998   9.286   4.315
23632W        W87191  30.449  21.148  13.795
23633W        W87192  14.618  23.201   4.118
23634W        W87193  39.894  27.589   4.347
23635W        W87194  40.998  12.173   3.714
23636W        W87195  31.493  17.163   1.743
23637W        W87196   8.359  16.114  11.573
23638W        W87197   3.844  36.088  14.368
23639W        W87198  20.087   8.339   4.690
23640W        W87199  22.241  43.403   4.669
23641W        W87200  31.002   0.808  13.471
23642W        W87201  10.151  12.211  13.933
23643W        W87202  27.078  43.362   3.634
23644W        W87203  16.198  15.598   2.857
23645W        W87204   5.855  13.680  14.391
23646W        W87205  15.155  27.680   4.661
23647W        W87206  18.658  11.372  11.549
23648W        W87207  34.939  15.745   1.319
23649W        W87208  24.601  30.099  14.784
23650W        W87209  23.007  11.821  10.632
23651W        W87210  43.501   2.844  14.505
23652W        W87211  27.091  43.433   1.799
23653W        W87212  23.585   9.843  14.899
23654W        W87213   2.227  25.627   3.380
23655W        W87214  44.463  25.200   0.853
23656W        W87215   2.314  26.483   2.901
23657W        W87216  22.048  17.292   0.463
23658W        W87217  10.664   4.268  14.379
23659W        W87218  39.420   5.728  13.507
23660W        W87219  24.512  24.576   0.835
23661W        W87220  31.991  35.481  12.364
23662W        W87221  41.481   9.371   0.358
23663W        W87222  18.590  42.976  13.035
23664W        W87223  33.907   4.427  10.555
23665W        W87224  36.376  42.849  12.923
23666W        W87225  19.243   6.785  14.376
23667W        W87226  26.542   6.890   0.793
23668W        W87227  28.475  41.858  11.534
23669W        W87228  42.382  24.155   4.655
23670W        W87229   2.819  43.934   4.224
23671W        W87230   3.233  25.600   2.715
23672W        W87231  25.990  36.940   4.797
23673W        W87232  37.528  11.636   0.450
23674W        W87233  41.493   8.164  10.432
23675W        W87234   7.360  28.067   3.289
23676W        W87235  28.452  41.802   4.808
23677W        W87236  40.923  10.379   1.895
23678W        W87237   0.478   0.799   1.367
23679W        W87238  16.777  11.725  14.457
23680W        W87239   5.832  39.937  14.997
23681W        W87240  43.393  21.230   0.745
23682W        W87241  22.587  10.681   3.202
23683W        W87242  18.789  30.128   4.240
23684W        W87243  38.838  18.633  12.571
23685W        W87244  28.507  24.114  13.332
23686W        W87245  13.177  22.638   5.174
23687W        W87246  18.550  41.838  14.941
23688W        W87247  25.531   9.771  13.420
23689W        W87248  43.859  44.444   0.846
23690W        W87249  30.998  21.727   3.260
23691W        W87250  39.395   2.950  11.522
23692W        W87251  28.670  40.373  11.399
23693W        W87252  18.128  29.583   9.957
23694W        W87253   4.436  19.163   3.785
23695W        W87254  10.268  23.600   4.605
23696W        W87255  27.006   1.807  10.935
23697W        W87256  15.773   5.837  10.975
23698W        W87257  44.473  42.813   3.319
23699W        W87258  34.425  19.050   4.344
23700W        W87259  18.077  16.103   2.320
23701W        W87260  42.028  36.880  11.489
23702W        W87261   3.442   8.889  13.903
23703W        W87262  17.653  27.499   3.361
23704W        W87263  41.499  29.994   1.302
23705W        W87264   5.726  12.328  10.435
23706W        W87265  39.555  31.986  13.929
23707W        W87266  27.948   8.404  13.512
23708W        W87267  15.818  36.495   2.848
23709W        W87268  36.520  19.775  12.533
23710W        W87269  35.860  32.026   2.285
23711W        W87270  44.452  16.223  12.034
23712W        W87271  30.604  38.512  14.385
23713W        W87272  40.913  14.291  10.483
23714W        W87273  34.962  11.355  14.822
23715W        W87274  35.045   5.926   4.237
23716W        W87275  33.564   7.289  14.453
23717W        W87276   4.271  14.819   2.699
23718W        W87277  14.302  37.057   4.333
23719W        W87278  28.015  44.814  13.960
23720W        W87279  41.351  32.953  14.867
23721W        W87280  26.493  17.661   1.902
23722W        W87281  17.083  36.978   3.165
23723W        W87282  18.711  25.069   0.478
23724W        W87283  15.603  25.195   2.215
23725W        W87284  19.680  15.766   4.652
23726W        W87285  11.325  11.191   2.195
23727W        W87286  37.853  20.632   0.943
23728W        W87287  27.616   2.265  14.974
23729W        W87288  15.114  38.990   0.271
23730W        W87289  10.306  29.433  11.466
23731W        W87290  41.445   5.877   2.667
23732W        W87291   7.334  19.263  13.530
23733W        W87292  16.237  14.809   1.287
23734W        W87293  41.373  38.570   2.811
23735W        W87294  24.592  34.491  10.949
23736W        W87295  23.116   0.846  11.490
23737W        W87296  24.563   6.216   1.716
23738W        W87297   8.679   9.652   0.891
23739W        W87298  37.916   6.686   2.246
23740W        W87299   4.936  43.289  12.399
23741W        W87300  31.061  11.806  13.488
23742W        W87301  35.574  35.099   5.145
23743W        W87302   3.776  40.430  12.445
23744W        W87303  28.989  24.012  10.077
23745W        W87304  13.682  35.980   2.383
23746W        W87305  21.056  19.654  14.456
23747W        W87306  28.151  26.608  14.411
23748W        W87307  23.506  43.395  12.916
23749W        W87308  11.786  37.972  13.050
23750W        W87309  14.714  18.123   0.246
23751W        W87310  30.539  30.468  13.828
23752W        W87311  27.647  44.924  14.344
23753W        W87312  24.718  26.502  12.574
23754W        W87313  27.610  31.025   2.339
23755W        W87314  12.685  20.054   4.823
23756W        W87315  36.432  44.930   4.234
23757W        W87316   8.891  15.719  14.998
23758W        W87317  17.276  32.888  10.640
23759W        W87318   9.338  17.290   2.673
23760W        W87319  30.636  15.646  12.055
23761W        W87320  27.575  26.562   1.921
23762W        W87321  19.235   6.242  11.087
23763W        W87322  23.152  21.600  12.406
23764W        W87323  31.641  10.684   0.384
23765W        W87324  16.311  30.440  12.436
23766W        W87325  29.931  21.049  14.884
23767W        W87326  15.590  14.283  12.828
23768W        W87327  37.886   4.932  11.555
23769W        W87328  29.067  27.528  11.379
23770W        W87329  10.696  36.957  14.767
23771W        W87330   6.330  41.510   2.715
23772W        W87331   9.277   5.428  12.997
23773W        W87332  33.022  43.952  10.455
23774W        W87333  33.055  29.155  11.981
23775W        W87334  37.994  34.554  10.915
23776W        W87335  16.130  15.092  12.892
23777W        W87336   2.432  43.799  13.421
23778W        W87337  40.388  20.667  11.043
23779W        W87338  16.715   6.848   9.984
23780W        W87339   8.166  22.125   3.356
23781W        W87340  14.292  14.255   2.771
23782W        W87341  40.482  18.099   2.899
23783W        W87342  31.592  11.659  12.989
23784W        W87343   7.831  38.056   2.782
23785W        W87344  40.024  41.348   4.160
23786W        W87345  26.531  30.571   0.401
23787W        W87346  31.529  28.487  11.959
23788W        W87347   8.818  18.624   0.458
23789W        W87348  35.054  29.461   3.381
23790W        W87349   5.806  10.162   4.237
23791W        W87350   1.419  29.158   3.241
23792W        W87351  10.822  15.813  12.477
23793W        W87352  17.296  29.634  14.880
23794W        W87353   9.708   7.253  14.476
23795W        W87354  40.349  43.375   1.380
23796W        W87355  43.375  43.507   3.648
23797W        W87356  14.626   1.827   0.417
23798W        W87357  13.334  18.731   1.905
23799W        W87358  13.810   9.394   4.321
23800W        W87359  41.512  43.505   0.467
23801W        W87360  11.794  39.515   2.243
23802W        W87361   3.943  38.389  10.580
23803W        W87362  43.292  17.150  10.467
23804W        W87363  13.339  33.888   1.696
23805W        W87364  23.051  40.912   1.329
23806W        W87365  22.147  29.587   2.675
23807W        W87366  26.589  16.592   4.715
23808W        W87367  30.092  13.185  11.046
23809W        W87368  41.513   0.428  14.479
23810W        W87369   4.922  13.290  13.394
23811W        W87370  29.028  28.678  13.525
23812W        W87371   6.243  21.736   0.732
23813W        W87372  30.909  16.240   3.812
23814W        W87373  19.627  13.835  10.982
23815W        W87374  20.538   7.905   2.387
23816W        W87375  27.008  12.231  10.083
23817W        W87376  13.233  31.979   0.480
23818W        W87377  12.299  24.160  13.028
23819W        W87378  42.910  34.470  11.013
23820W        W87379  37.541  15.809  12.059
23821W        W87380  30.447  44.842  13.049
23822W        W87381  34.020  17.233  14.307
23823W        W87382   4.927  10.217   2.816
23824W        W87383  35.513  41.510   4.819
23825W        W87384  25.555  27.142  14.300
23826W        W87385  31.988  13.151   2.181
23827W        W87386  31.408  27.655   4.696
23828W        W87387   4.225  20.636   4.638
23829W        W87388   3.817   6.759   0.399
23830W        W87389  16.114  37.335  14.289
23831W        W87390   2.408  38.911  14.402
23832W        W87391  17.216  24.536  12.926
23833W        W87392  26.963  39.358  10.524
23834W        W87393  21.540  29.665   2.187
23835W        W87394  22.247   4.728  10.404
23836W        W87395  10.875  22.136  13.410
23837W        W87396   9.889  25.606  14.026
23838W        W87397  30.047   9.324   4.820
23839W        W87398  18.271  17.180  14.372
23840W        W87399   1.929   9.190  14.986
23841W        W87400  38.997  36.405   1.861
23842W        W87401  14.655  12.773   1.890
23843W        W87402  17.769   6.751  13.528
23844W        W87403  42.846  11.269  11.028
23845W        W87404  22.640  44.318  12.882
23846W        W87405  43.483   2.940   2.198
23847W        W87406  16.781  32.405   4.762
23848W        W87407  44.314   0.935   2.198
23849W        W87408   4.244   7.799   2.687
23850W        W87409  12.237  41.913  12.996
23851W        W87410  15.722  11.757   3.260
23852W        W87411  42.781  17.131  14.382
23853W        W87412  27.535  29.084  12.350
23854W        W87413  23.609  42.858  13.900
23855W        W87414  23.543  24.648  13.015
23856W        W87415  31.967  10.702  12.088
23857W        W87416  35.943  17.769   4.619
23858W        W87417  36.064  32.943   1.312
23859W        W87418   0.391  17.635   4.117
23860W        W87419   0.911  27.471  14.808
23861W        W87420  41.945  20.251  12.826
23862W        W87421  43.907   9.757  13.397
23863W        W87422  17.565  44.407  10.537
23864W        W87423   0.820  19.655   1.818
23865W        W87424   0.937   7.790  10.550
23866W        W87425   7.698   7.400   4.152
23867W        W87426  17.589  44.809  13.391
23868W        W87427   3.827  26.501  10.633
23869W        W87428  23.097  26.205  12.052
23870W        W87429  18.264   2.250  12.548
23871W        W87430   8.391   5.714   4.735
23872W        W87431  20.589  24.136   1.211
23873W        W87432  17.703   6.408   0.265
23874W        W87433  10.772   9.703   0.296
23875W        W87434  19.255  19.207   2.784
23876W        W87435   5.282   0.813   0.963
23877W        W87436  44.826  22.645  14.420
23878W        W87437   6.415  43.314  12.352
23879W        W87438  23.670  23.591   1.255
23880W        W87439  33.451  43.362   3.797
23881W        W87440  10.711   2.265  14.280
23882W        W87441  23.036   2.469  11.574
23883W        W87442  13.316   8.177  13.034
23884W        W87443  18.611  25.218  13.516
23885W        W87444  36.992  12.353  11.947
23886W        W87445  20.094  32.599   1.720
23887W        W87446  19.749  24.704   4.711
23888W        W87447  30.022  26.655   1.243
23889W        W87448  40.480  43.987   3.851
23890W        W87449  13.806  24.134   3.235
23891W        W87450  18.277  41.340   3.327
23892W        W87451   3.259   0.810  11.867
23893W        W87452  13.227  35.067  13.421
23894W        W87453  39.500  25.003  12.960
23895W        W87454   8.327  17.144  11.046
23896W        W87455  26.991  24.590  10.161
23897W        W87456  37.022  38.883   4.123
23898W        W87457  41.501  24.672   0.730
23899W        W87458  36.537   6.412   4.194
23900W        W87459  41.874  17.636   3.706
23901W        W87460  18.247  35.888   4.655
23902W        W87461  27.146  17.279   4.641
23903W        W87462   0.814  34.587   1.295
23904W        W87463  26.170  33.949   1.327
23905W        W87464  40.389  32.042  10.483
23906W        W87465  42.499  16.181  13.357
23907W        W87466  20.767  39.386  11.453
23908W        W87467   9.236  27.016  12.879
23909W        W87468  41.507  33.103  14.401
23910W        W87469  28.133   1.782   0.276
23911W        W87470  35.453  22.121  10.894
23912W        W87471  44.971  16.579  12.899
23913W        W87472  31.427  30.418   4.212
23914W        W87473  25.679  30.485   0.861
23915W        W87474  21.121  24.069  14.850
23916W        W87475   1.337   7.367   4.270
23917W        W87476   5.933   0.486   0.305
23918W        W87477  17.611  22.179  14.961
23919W        W87478   1.970  32.393   1.449
23920W        W87479  29.581   4.773  10.058
23921W        W87480  33.614  25.593  12.505
23922W        W87481  37.058  11.783   4.676
23923W        W87482  17.273   9.395   0.860
23924W        W87483   4.818  26.685  13.516
23925W        W87484   4.938  36.383   1.705
23926W        W87485  32.093  36.351   1.929
23927W        W87486  15.309   1.975  12.893
23928W        W87487  21.249  10.802  10.472
23929W        W87488  12.640  33.608  13.944
23930W        W87489   8.402   6.339   2.734
23931W        W87490  33.985  40.898   1.909
23932W        W87491  30.494  16.633   3.691
23933W        W87492  10.139  39.891  13.481
23934W        W87493  43.407   5.383  13.339
23935W        W87494  29.513  29.168   2.667
23936W        W87495  35.504   0.394   2.747
23937W        W87496  26.160  43.852   2.837
23938W        W87497  26.104  33.049   0.370
23939W        W87498  39.449   9.221   0.249
23940W        W87499   6.802  34.534   2.384
23941W        W87500  43.931   2.959   4.285
23942W        W87501  23.643  41.990  13.403
23943W        W87502  41.465  38.841   1.355
23944W        W87503  40.998  29.116   0.310
23945W        W87504  33.461  39.405  14.009
23946W        W87505   3.297  16.083   1.695
23947W        W87506  15.241  15.161   4.663
23948W        W87507  17.096  44.323   0.908
23949W        W87508  28.979   1.852  10.469
23950W        W87509  42.779   5.294  13.809
23951W        W87510  15.181  29.650  12.898
23952W        W87511   9.215  19.099  11.550
23953W        W87512   5.333  32.413  14.030
23954W        W87513  18.758   0.387   0.947
23955W        W87514  12.744  41.429  11.098
23956W        W87515   5.298  32.418   0.285
23957W        W87516   6.703   7.340  11.068
23958W        W87517  40.506  24.548  14.429
23959W        W87518  36.446   8.293   1.275
23960W        W87519  22.163  22.646   2.254
23961W        W87520   0.449  33.415   3.768
23962W        W87521   0.743  25.056   2.375
23963W        W87522  19.547  23.720  11.924
23964W        W87523  30.026  39.853  11.010
23965W        W87524  39.510  23.624   3.218
23966W        W87525   9.841   1.882   3.758
23967W        W87526  28.674  19.549  13.424
23968W        W87527   0.948   5.394  13.456
23969W        W87528  34.390  31.123   3.852
23970W        W87529  40.024  41.497  13.315
23971W        W87530  22.635   1.247   0.471
23972W        W87531  14.205  23.215   2.337
23973W        W87532  14.634  40.849   4.814
23974W        W87533  35.574  36.002   0.800
23975W        W87534  24.708  19.235   2.728
23976W        W87535  22.159  31.573   1.749
23977W        W87536  26.009  44.815   3.629
23978W        W87537  11.224   0.843   2.182
23979W        W87538  27.119  11.746   3.697
23980W        W87539  18.290   8.788   3.275
23981W        W87540  15.198   9.801  10.458
23982W        W87541  30.973  17.264   1.210
23983W        W87542  41.412   7.885  14.944
23984W        W87543  21.654  16.736  13.362
23985W        W87544  25.668   8.753   1.906
23986W        W87545  22.021  17.211  11.115
23987W        W87546  44.757  39.984  11.975
23988W        W87547  39.400  33.067  14.440
23989W        W87548  41.432  11.331  11.061
23990W        W87549  36.448  33.389  14.969
23991W        W87550  13.662  26.684   1.269
23992W        W87551  11.179  19.688   3.220
23993W        W87552  25.501  35.373   1.917
23994W        W87553  39.548  39.850   3.342
23995W        W87554  24.541  15.710  13.324
23996W        W87555  41.923   1.238   0.264
23997W        W87556  24.144  19.603   4.614
23998W        W87557  31.941  39.368  12.531
23999W        W87558  10.342  35.444   0.830
24000W        W87559  23.187  25.086   3.282
24001W        W87560  31.044  37.347   2.884
24002W        W87561   0.412  33.577   1.252
24003W        W87562  13.141  42.499  11.980
24004W        W87563   1.342  30.630  11.887
24005W        W87564  37.453  24.570  10.542
24006W        W87565  35.541  29.952   2.729
24007W        W87566  37.886  18.773   4.604
24008W        W87567   7.229  39.825  14.994
24009W        W87568  38.069  21.048   4.333
24010W        W87569  38.552  29.145   2.363
24011W        W87570  24.597   4.861   2.884
24012W        W87571   2.471  10.313  12.494
24013W        W87572  32.127  22.007  11.574
24014W        W87573  18.279   6.347   3.647
24015W        W87574  31.441  26.622  11.980
24016W        W87575   8.177  20.736   0.913
24017W        W87576   6.338   5.834   2.207
24018W        W87577   2.774  22.145  12.912
24019W        W87578  33.018  36.010  12.942
24020W        W87579  31.035  15.758  11.599
24021W        W87580  13.670  24.077  12.068
24022W        W87581  38.470  43.006   4.769
24023W        W87582  25.709  37.481  14.449
24024W        W87583  26.482   8.258  10.585
24025W        W87584   3.855  10.758  13.031
24026W        W87585  21.023  26.055  14.305
24027W        W87586  23.586  25.173  10.553
24028W        W87587   5.381  35.986  14.495
24029W        W87588  14.159   2.810   2.394
24030W        W87589   2.804  39.445  10.965
24031W        W87590  10.173   2.783   1.422
24032W        W87591  18.742  13.775   0.919
24033W        W87592  40.309   8.736   3.290
24034W        W87593  22.174  40.331   0.477
24035W        W87594  32.497  39.914   0.430
24036W        W87595  11.675   7.230   9.532
24037W        W87596  24.008  15.225   4.208
24038W        W87597   3.918  43.924  13.403
24039W        W87598  19.237  41.916  14.419
24040W        W87599  42.304  11.681  13.354
24041W        W87600  26.110  37.426  11.478
24042W        W87601   1.267  19.738   3.733
24043W        W87602  11.351  32.632   3.785
24044W        W87603  26.494  32.609   3.259
24045W        W87604  11.147  13.225   1.871
24046W        W87605  20.044  22.693   4.641
24047W        W87606   3.276  39.848  12.079
24048W        W87607  10.219   3.448  12.018
24049W        W87608  15.695  23.708  11.448
24050W        W87609   4.787   0.477   1.785
24051W        W87610  21.069  29.668  12.914
24052W        W87611   8.847  37.347  10.421
24053W        W87612  40.406  41.853   2.374
24054W        W87613  21.033   7.276   3.171
24055W        W87614  39.027  41.831   4.702
24056W        W87615  10.729  22.067   3.198
24057W        W87616  21.684   7.412  12.413
24058W        W87617  21.602  22.708   4.250
24059W        W87618   3.343  16.229   3.761
24060W        W87619  40.999   5.361  12.576
24061W        W87620  13.132  14.832  13.920
24062W        W87621   7.322  36.514   3.799
24063W        W87622  20.699  44.799  10.434
24064W        W87623  40.471  15.218   3.790
24065W        W87624  42.294  43.776   0.938
24066W        W87625  21.644   3.456  12.475
24067W        W87626  35.375  19.159  12.905
24068W        W87627  23.187   4.447  14.883
24069W        W87628  12.838   6.701  11.475
24070W        W87629  37.855   8.353   2.265
24071W        W87630  20.714   2.350   2.313
24072W        W87631  13.811  30.136  13.042
24073W        W87632  35.506  29.590   0.946
24074W        W87633  26.568  13.790  11.410
24075W        W87634  36.869  23.156  12.876
24076W        W87635  34.934  32.502  10.050
24077W        W87636  34.409   3.455  12.057
24078W        W87637  32.490  25.196   0.918
24079W        W87638  26.457  18.101   1.795
24080W        W87639  11.792   1.268   4.693
24081W        W87640  16.656  28.172  11.596
24082W        W87641  23.554   6.344  12.866
24083W        W87642  29.994  26.954   0.790
24084W        W87643   3.461  22.554   3.661
24085W        W87644  33.524  27.035   4.803
24086W        W87645  29.465  28.555  12.480
24087W        W87646  32.037  34.056  14.367
24088W        W87647  11.191  40.032   2.678
24089W        W87648  14.811   6.864   2.768
24090W        W87649  44.315  41.827  13.506
24091W        W87650  17.585  11.734  11.523
24092W        W87651  26.190  27.571   4.673
24093W        W87652  33.617   4.450  12.964
24094W        W87653  40.041  21.094  13.507
24095W        W87654  44.348   5.234  11.016
24096W        W87655  35.086  43.471  13.882
24097W        W87656   9.390  13.666   3.804
24098W        W87657   9.319   0.248  14.779
24099W        W87658  23.714  42.875   4.308
24100W        W87659  19.070  21.624  13.491
24101W        W87660  34.069   9.312  14.821
24102W        W87661   0.910  36.487  11.012
24103W        W87662   7.883  13.782  11.112
24104W        W87663   6.265  15.172  10.061
24105W        W87664  19.640  16.657   1.876
24106W        W87665  30.561  41.805  14.024
24107W        W87666  35.879  40.446   0.260
24108W        W87667   2.925  14.599  14.461
24109W        W87668  39.010  11.638  12.422
24110W        W87669  14.315   0.377   2.269
24111W        W87670  12.357  15.595   2.307
24112W        W87671  30.620  43.021  14.007
24113W        W87672  25.693  38.554  13.954
24114W        W87673  17.792   7.221  14.429
24115W        W87674   5.410   3.314   2.280
24116W        W87675  22.544  18.173  12.851
24117W        W87676  34.530  38.543  12.002
24118W        W87677   5.806  34.057   1.767
24119W        W87678  11.847  25.589  10.501
24120W        W87679   9.306  19.778   5.093
24121W        W87680  21.615   8.310   1.443
24122W        W87681  17.254  44.464  12.845
24123W        W87682   5.810  15.155  12.955
24124W        W87683  37.890  31.072   1.911
24125W        W87684  40.436  40.924  11.128
24126W        W87685  17.159  29.074   0.385
24127W        W87686   4.286  13.742   4.273
24128W        W87687   2.372   1.746   5.212
24129W        W87688  44.757  12.275   0.376
24130W        W87689  11.300  40.863  11.533
24131W        W87690  22.593   8.745  10.914
24132W        W87691  10.288  28.146  13.967
24133W        W87692  30.094  19.126   0.885
24134W        W87693   5.356  30.492  10.934
24135W        W87694  15.107   6.857  14.486
24136W        W87695  24.619   3.792   2.864
24137W        W87696  12.618  42.299   1.722
24138W        W87697  34.539  29.079   2.217
24139W        W87698  21.253  15.817   0.729
24140W        W87699  26.598  37.874  11.466
24141W        W87700  26.173  30.644  12.439
24142W        W87701  37.380  27.972   0.842
24143W        W87702  12.638  31.935   2.786
24144W        W87703  21.675  42.007  11.433
24145W        W87704  11.654   3.400   1.881
24146W        W87705  38.997   5.269  11.941
24147W        W87706   2.723  41.000   4.326
24148W        W87707  44.418  16.802  14.012
24149W        W87708  37.835  20.655   4.831
24150W        W87709  14.618  15.273  10.546
24151W        W87710  26.672   4.818   4.182
24152W        W87711  37.084  27.638  13.952
24153W        W87712  22.116  32.556  12.068
24154W        W87713  26.968   7.901  11.053
24155W        W87714  36.522  31.940  11.400
24156W        W87715  41.992  40.403   2.868
24157W        W87716  13.831  13.321  13.422
24158W        W87717  40.845  24.024   0.368
24159W        W87718  44.408  19.142   4.120
24160W        W87719  11.707  30.558  13.428
24161W        W87720  26.588   1.457  12.948
24162W        W87721  18.163   6.863   3.642
24163W        W87722  18.072  29.019   1.405
24164W        W87723  21.098  19.735   0.951
24165W        W87724  44.388  26.107   2.697
24166W        W87725   0.891  44.490  12.493
24167W        W87726  44.379  40.313   4.598
24168W        W87727  33.398  36.369  12.933
24169W        W87728  39.971  36.432  11.504
24170W        W87729  11.770  27.610  11.384
24171W        W87730   9.390   1.440  13.888
24172W        W87731  27.048  16.090  11.395
24173W        W87732  37.567  31.477  10.549
24174W        W87733  40.522   9.266   2.830
24175W        W87734  42.803   1.444  11.945
24176W        W87735  23.220  44.004   1.381
24177W        W87736   8.220  18.199   0.791
24178W        W87737  16.649   4.445  11.094
24179W        W87738  31.550  11.211  13.323
24180W        W87739  21.233  26.545  11.392
24181W        W87740   0.872  25.653   2.797
24182W        W87741  32.136  42.012  13.430
24183W        W87742  12.726   2.777  14.328
24184W        W87743  26.607  31.078   0.967
24185W        W87744   0.439  11.671  11.599
24186W        W87745  40.049   0.347   4.684
24187W        W87746  38.329   4.823   3.810
24188W        W87747  27.456  11.697   9.989
24189W        W87748  37.836  21.529  13.996
24190W        W87749  25.015  10.213  14.462
24191W        W87750   2.237  41.964   2.258
24192W        W87751  38.033  10.869   4.641
24193W        W87752  27.672  42.798  10.489
24194W        W87753  14.725  32.458   2.366
24195W        W87754   2.944  15.278  13.341
24196W        W87755   1.889  23.672  13.904
24197W        W87756  14.164  29.514  12.005
24198W        W87757  40.535  42.414   0.313
24199W        W87758   8.811  21.070  13.406
24200W        W87759  37.878  39.993  12.473
24201W        W87760   0.981   9.361   0.452
24202W        W87761  26.182  10.370   0.815
24203W        W87762  19.542  27.539  11.897
24204W        W87763  34.999  20.729   4.230
24205W        W87764  22.187  39.551   3.203
24206W        W87765  38.400  14.179   2.769
24207W        W87766  29.597  41.818   4.702
24208W        W87767  31.439   3.276  10.900
24209W        W87768  31.119  19.732   5.133
24210W        W87769  16.722  24.561  12.508
24211W        W87770  16.297  31.134   1.449
24212W        W87771   8.274  44.491   2.192
24213W        W87772  27.658   3.235  13.502
24214W        W87773   0.339  41.034   3.234
24215W        W87774  20.041  21.079   5.280
24216W        W87775   1.758   5.317   0.361
24217W        W87776  33.047  38.502  11.878
24218W        W87777   3.325  28.973  12.967
24219W        W87778  41.418  20.620   2.788
24220W        W87779  21.704   4.310  14.371
24221W        W87780  17.079   4.411  13.994
24222W        W87781  30.474   5.890   4.622
24223W        W87782  28.468  14.232  14.970
24224W        W87783  12.292  37.917  12.904
24225W        W87784  12.148   9.154   2.813
24226W        W87785   6.372   1.846   1.787
24227W        W87786  24.018  31.577   3.869
24228W        W87787  33.036  24.102   2.408
24229W        W87788  12.732   0.338  11.593
24230W        W87789  22.207  23.687  11.952
24231W        W87790  13.210  23.653  13.313
24232W        W87791  15.155  31.572  14.512
24233W        W87792  25.603   6.348   0.360
24234W        W87793  37.945  35.877  12.378
24235W        W87794  27.181  21.590   3.825
24236W        W87795  14.675  10.158   1.215
24237W        W87796   0.914  12.795  12.382
24238W        W87797  38.419   2.392   4.829
24239W        W87798  24.616  24.663  14.002
24240W        W87799  35.372   5.740  13.364
24241W        W87800  10.808  17.130  13.803
24242W        W87801  32.405   8.205  12.857
24243W        W87802  18.242  25.054  11.585
24244W        W87803  12.147  17.686   1.805
24245W        W87804   4.862  25.210   9.930
24246W        W87805  26.183  42.527  14.327
24247W        W87806  27.008  12.244  11.458
24248W        W87807  38.071   2.311   2.742
24249W        W87808   8.753  21.032   3.680
24250W        W87809  35.535  40.333   1.286
24251W        W87810   3.409  16.808  10.526
24252W        W87811  21.521  34.419   0.445
24253W        W87812  21.049  31.001   1.883
24254W        W87813   8.190  12.638   3.844
24255W        W87814  23.688  38.859  12.062
24256W        W87815   8.687  28.135   4.698
24257W        W87816  18.087  29.014  10.055
24258W        W87817  30.923  16.270  12.085
24259W        W87818  43.931  34.884  14.345
24260W        W87819  21.622   5.254   4.754
24261W        W87820  41.901  14.272   4.273
24262W        W87821  13.819  32.065  13.052
24263W        W87822  21.741   1.396  12.082
24264W        W87823   3.244   3.884   3.812
24265W        W87824  18.717  39.952  11.096
24266W        W87825   2.832  21.546  10.970
24267W        W87826  19.689  19.633  13.792
24268W        W87827  17.233   5.388  13.001
24269W        W87828  10.286  37.866  14.413
24270W        W87829  24.539   9.692  10.996
24271W        W87830  22.556  33.977   0.336
24272W        W87831  31.023  19.067   0.256
24273W        W87832  16.745  37.044  13.486
24274W        W87833   0.399   5.390  14.506
24275W        W87834  28.051  26.132   0.851
24276W        W87835   6.379  32.095   5.100
24277W        W87836  21.723  27.608   1.901
24278W        W87837   8.388   3.363   2.370
24279W        W87838  16.785  44.390   3.817
24280W        W87839   8.227  43.386   2.734
24281W        W87840  30.626  38.063  12.831
24282W        W87841  28.093  29.090   3.366
24283W        W87842  23.517  24.097   3.336
24284W        W87843   0.978  21.087   0.732
24285W        W87844   9.725  23.505   3.735
24286W        W87845  34.427  26.620  13.471
24287W        W87846  40.338  18.584  12.994
24288W        W87847  27.506  23.066   3.313
24289W        W87848  19.142   8.400   0.939
24290W        W87849  32.103   8.747   3.793
24291W        W87850  30.991  13.236  10.509
24292W        W87851  44.259  26.482   2.803
24293W        W87852  36.522  33.490  12.380
24294W        W87853  39.923  15.209  13.394
24295W        W87854  33.991  19.126   1.876
24296W        W87855  27.616   6.759  11.014
24297W        W87856  29.652  19.050   2.241
24298W        W87857  27.999  36.021   9.999
24299W        W87858  14.200  39.880  10.425
24300W        W87859  41.882  31.435  10.950
24301W        W87860  41.889  16.080  14.873
24302W        W87861  23.514  11.803   2.380
24303W        W87862  39.354  37.977  10.493
24304W        W87863  21.677  16.149   3.284
24305W        W87864   2.936  29.087  12.051
24306W        W87865  39.057   4.725   0.343
24307W        W87866   6.733  19.717   4.130
24308W        W87867  31.933  12.663  12.473
24309W        W87868   5.366  28.579  11.572
24310W        W87869  27.940  33.511  13.499
24311W        W87870   8.694  35.959  10.553
24312W        W87871  25.673  28.142  14.484
24313W        W87872  10.782  38.921   1.363
24314W        W87873   5.812  10.800   4.807
24315W        W87874  43.392  43.439   3.242
24316W        W87875  12.719  38.983  10.890
24317W        W87876  28.989  31.983  10.487
24318W        W87877  24.190   7.393   1.860
24319W        W87878  17.787  14.633   2.348
24320W        W87879   1.733  20.214   3.203
24321W        W87880  32.997  30.643   3.314
24322W        W87881  32.004  40.915  13.977
24323W        W87882  15.696  14.722  10.510
24324W        W87883  33.119  18.133   2.314
24325W        W87884  38.932   8.894  12.916
24326W        W87885   6.205   4.417   1.219
24327W        W87886   3.361   8.879   3.770
24328W        W87887   5.262  22.650  14.450
24329W        W87888   1.274  22.212   1.346
24330W        W87889  29.479   5.719  14.897
24331W        W87890  14.277  31.960   5.097
24332W        W87891  34.113   3.279   2.840
24333W        W87892  39.363  22.536   3.235
24334W        W87893  20.136  42.920   2.366
24335W        W87894  14.804  20.759  12.045
24336W        W87895  10.738  40.504   0.326
24337W        W87896  33.542  14.303  13.046
24338W        W87897  19.759  38.872   5.098
24339W        W87898  30.475  25.028  14.427
24340W        W87899   8.160  38.543  10.950
24341W        W87900  18.274  18.281  14.762
24342W        W87901   4.338  16.169   3.272
24343W        W87902  19.772  33.576  12.510
24344W        W87903   0.950   9.777   3.677
24345W        W87904  13.338   3.862   4.239
24346W        W87905  32.077  25.174   0.339
24347W        W87906   7.224   9.171   4.602
24348W        W87907  39.553   8.676  10.999
24349W        W87908  42.835   3.830  12.400
24350W        W87909  43.878  44.928  13.865
24351W        W87910  28.941   3.955   1.911
24352W        W87911  35.482  30.047   3.750
24353W        W87912   6.681  28.491  12.366
24354W        W87913  23.565  22.634  13.421
24355W        W87914  17.255   2.945  10.949
24356W        W87915  27.551  29.504  14.457
24357W        W87916  14.144  19.197   2.317
24358W        W87917  16.110   8.332  11.613
24359W        W87918  23.153  25.018  11.018
24360W        W87919  19.679  34.109  11.005
24361W        W87920  20.173  37.552   3.319
24362W        W87921  33.073   9.308   2.401
24363W        W87922   1.352  26.959  13.411
24364W        W87923  29.053  10.217   1.292
24365W        W87924  28.066  18.076   9.979
24366W        W87925  30.162  27.532  11.551
24367W        W87926  42.920  42.427  13.052
24368W        W87927  26.505  18.259  10.046
24369W        W87928  33.054  21.231  11.005
24370W        W87929  21.669  38.939  14.982
24371W        W87930  16.572  27.171   1.918
24372W        W87931  27.505   2.266  13.919
24373W        W87932  14.259  20.211   2.895
24374W        W87933  35.426  24.200  11.464
24375W        W87934  38.348  24.013  14.804
24376W        W87935  32.136  21.712  14.503
24377W        W87936  35.374  24.621  13.989
24378W        W87937  18.629  16.628   0.864
24379W        W87938  35.412  43.774  12.981
24380W        W87939  12.285  14.312  13.029
24381W        W87940   0.476  19.735  10.547
24382W        W87941  37.983   5.770  10.439
24383W        W87942  39.933  24.206   4.728
24384W        W87943   6.350  25.620  14.864
24385W        W87944  41.841   3.351   2.391
24386W        W87945  26.472  22.010  11.033
24387W        W87946  14.679  25.479  13.798
24388W        W87947   0.896  35.056  10.895
24389W        W87948   3.433  10.650   2.401
24390W        W87949  30.071  17.076  13.950
24391W        W87950  12.807  33.012  11.095
24392W        W87951  41.489   5.375   1.328
24393W        W87952   5.230  33.995  13.017
24394W        W87953  39.450   1.316   3.216
24395W        W87954  20.635  19.731   2.763
24396W        W87955  28.011  27.098  12.828
24397W        W87956  39.483  21.128  14.943
24398W        W87957  44.401   8.267  10.430
24399W        W87958  41.819  42.464  11.011
24400W        W87959  13.263  34.402   2.709
24401W        W87960  29.464  24.634  10.473
24402W        W87961  41.524  39.382  11.116
24403W        W87962  43.270  19.536  12.839
24404W        W87963  11.165  32.401   0.365
24405W        W87964  16.261  34.958   3.781
24406W        W87965   5.403  32.523  11.876
24407W        W87966  12.317  32.915   4.227
24408W        W87967  41.040   5.208  10.601
24409W        W87968  31.025  13.674   2.235
24410W        W87969  17.681  33.391   3.274
24411W        W87970  22.116  21.629  12.539
24412W        W87971  28.617  28.010  10.424
24413W        W87972  15.199  40.955   3.320
24414W        W87973  18.587  10.759  14.940
24415W        W87974  19.170  34.056   3.383
24416W        W87975  34.996  32.612   3.850
24417W        W87976  43.444  23.539   0.421
24418W        W87977  43.795  22.610   1.242
24419W        W87978  20.613  23.233  11.540
24420W        W87979   7.340  18.667   1.721
24421W        W87980  17.064   5.407   3.732
24422W        W87981  22.077  17.620   1.783
24423W        W87982  43.304   2.464  13.400
24424W        W87983  41.986  29.508   2.322
24425W        W87984  33.125  14.751  11.083
24426W        W87985  30.098   8.749  13.494
24427W        W87986  23.702  44.981   1.894
24428W        W87987  28.129   2.233  10.427
24429W        W87988  34.935  26.603   0.343
24430W        W87989  23.715  15.685  11.398
24431W        W87990  26.093  29.539  14.924
24432W        W87991  10.147  20.252   2.725
24433W        W87992  25.210   3.897  11.398
24434W        W87993  10.239  40.491  12.994
24435W        W87994   3.420  10.298  13.997
24436W        W87995  44.504  40.816   0.261
24437W        W87996  32.956   4.228   0.469
24438W        W87997  17.151   1.417  13.317
24439W        W87998   6.771  28.164  13.962
24440W        W87999   1.778  17.783   3.816
24441W        W88000  12.821  22.655  11.123
24442W        W88001  38.401  23.224  11.463
24443W        W88002   9.834   0.823  12.996
24444W        W88003  34.605   6.339  12.852
24445W        W88004  27.968  23.171  14.758
24446W        W88005  44.875  21.261  11.870
24447W        W88006  40.884  17.063  14.876
24448W        W88007  36.950  24.095   3.350
24449W        W88008  35.864  15.599  10.445
24450W        W88009   1.756  11.332   0.281
24451W        W88010  39.349   0.377  13.954
24452W        W88011  21.123  27.154  12.557
24453W        W88012  33.957   1.903  13.887
24454W        W88013  13.705  15.297   4.316
24455W        W88014  34.484  15.774  11.875
24456W        W88015   9.345  33.547   0.460
24457W        W88016  16.775  40.343   1.920
24458W        W88017   0.443  38.947  10.936
24459W        W88018   0.986  43.328  12.895
24460W        W88019  14.799  37.574   0.316
24461W        W88020  30.009  41.832   1.798
24462W        W88021  37.427  10.347   0.743
24463W        W88022  23.242  38.904   4.767
24464W        W88023  38.854   1.377  11.423
24465W        W88024  42.004  23.049   3.217
24466W        W88025  42.287   1.818   2.762
24467W        W88026  33.464  36.387   1.229
24468W        W88027  16.682   8.796   1.734
24469W        W88028   8.746  42.815   1.828
24470W        W88029  25.147  18.704  13.880
24471W        W88030  44.952  16.758  13.865
24472W        W88031  40.918  38.006  14.375
24473W        W88032  14.233  23.991  13.387
24474W        W88033   4.881  16.684  11.578
24475W        W88034  26.118  27.191  10.914
24476W        W88035  10.156   0.754   3.245
24477W        W88036  12.296   8.899   5.309
24478W        W88037  39.436  20.232   0.303
24479W        W88038  20.141  29.568  11.376
24480W        W88039  17.226  34.375  10.594
24481W        W88040  11.857   1.757  11.551
24482W        W88041  38.530  30.438  10.543
24483W        W88042   8.758  28.641   0.856
24484W        W88043  23.556   8.203   1.291
24485W        W88044  29.001  29.970   1.271
24486W        W88045  36.997  42.939  12.006
24487W        W88046  36.971  22.107   3.358
24488W        W88047   0.315  29.520  14.020
24489W        W88048  33.081   2.357   3.381
24490W        W88049  42.461   6.393  13.013
24491W        W88050   5.324  25.543   2.825
24492W        W88051  32.964  41.800   2.182
24493W        W88052  37.446   6.200   2.900
24494W        W88053   8.863  16.153   2.745
24495W        W88054  36.425  40.906  12.910
24496W        W88055  21.175  19.068   4.176
24497W        W88056  13.653  26.640   0.905
24498W        W88057  38.559  37.923  13.051
24499W        W88058   3.320  41.399  10.137
24500W        W88059   9.207  20.735   3.819
24501W        W88060  11.159   5.722   1.906
24502W        W88061  34.874   1.319  12.527
24503W        W88062  24.573  29.595  13.020
24504W        W88063   4.876   1.749   3.306
24505W        W88064   0.758   9.855   4.725
24506W        W88065  17.120  34.025  12.428
24507W        W88066  10.840   7.871  10.905
24508W        W88067   4.904   5.400   4.603
24509W        W88068  38.827  44.431   3.146
24510W        W88069  23.724  31.977   3.673
24511W        W88070  23.694  23.174   4.751
24512W        W88071   7.417  43.306  11.579
24513W        W88072  43.821  11.851  14.014
24514W        W88073  27.646  39.909  10.452
24515W        W88074  35.894  34.050   1.935
24516W        W88075  13.687  41.033  13.375
24517W        W88076  26.495   8.168   0.812
24518W        W88077  20.573  41.864  14.457
24519W        W88078  25.133   8.711  13.870
24520W        W88079  16.101  26.151  14.459
24521W        W88080  11.267  29.534   4.279
24522W        W88081  40.977  28.133  14.274
24523W        W88082   8.703  30.594  14.352
24524W        W88083  23.068  20.087   3.701
24525W        W88084  31.450  36.373   1.372
24526W        W88085  31.104  17.693  14.311
24527W        W88086  18.196  30.451   9.994
24528W        W88087  37.081  15.104   1.719
24529W        W88088  29.640  20.176   4.743
24530W        W88089  27.687  32.943  12.347
24531W        W88090  44.300   8.674   1.748
24532W        W88091   7.828  37.961   1.896
24533W        W88092   9.885  40.823   3.252
24534W        W88093  44.453  34.573   3.233
24535W        W88094  32.597  20.128   2.866
24536W        W88095  33.453  36.991   2.253
24537W        W88096  16.222  20.082   1.835
24538W        W88097  31.089   2.964  12.088
24539W        W88098  35.854  29.046  13.423
24540W        W88099  19.262  12.652   3.307
24541W        W88100   9.296  23.724   3.830
24542W        W88101  30.137  31.505   4.138
24543W        W88102  13.623  37.392   3.681
24544W        W88103  17.218  35.417   1.276
24545W        W88104  30.492  13.254  14.370
24546W        W88105  26.638  20.699   5.797
24547W        W88106  42.990   3.858   1.853
24548W        W88107  19.049  12.280  13.333
24549W        W88108  16.186  34.446  12.413
24550W        W88109  13.270  31.466  14.438
24551W        W88110  12.163  23.155  14.894
24552W        W88111  18.212  33.940   2.384
24553W        W88112  35.002  39.325   2.722
24554W        W88113  14.114  44.926  13.425
24555W        W88114  29.622  23.518  11.993
24556W        W88115  41.825  12.219   2.706
24557W        W88116  38.972  17.711  11.052
24558W        W88117   5.345  29.937   4.693
24559W        W88118  20.593  43.369  11.555
24560W        W88119  24.724  44.377  11.873
24561W        W88120  33.911  24.702  10.597
24562W        W88121  22.519   2.939  13.819
24563W        W88122  12.698  44.942   4.263
24564W        W88123  19.252   2.778   1.725
24565W        W88124  40.544  38.961  12.949
24566W        W88125  36.873  13.137  10.409
24567W        W88126   2.331  28.442   3.765
24568W        W88127  10.357  44.962  13.891
24569W        W88128  34.561  29.587  12.040
24570W        W88129  44.971  37.005   4.328
24571W        W88130  19.603  24.052   4.335
24572W        W88131  24.634  10.818   2.279
24573W        W88132   6.263   1.822  13.795
24574W        W88133  37.533  12.806   2.187
24575W        W88134  27.457  20.259   2.747
24576W        W88135  29.559  30.522   0.247
24577W        W88136  14.261  32.427   2.893
24578W        W88137  24.010  28.002  12.491
24579W        W88138  10.820  39.450  13.480
24580W        W88139   6.740  42.888  13.340
24581W        W88140  30.126  17.151   2.884
24582W        W88141  43.386  15.265   0.869
24583W        W88142   0.820  37.552   3.706
24584W        W88143   7.823  26.966  13.540
24585W        W88144   4.288  34.395   1.354
24586W        W88145  18.205  22.650  13.912
24587W        W88146  10.338  28.556  14.940
24588W        W88147  12.231  29.095  13.540
24589W        W88148  28.473  15.757   0.886
24590W        W88149  36.934  24.120   1.909
24591W        W88150  40.806   1.458   3.308
24592W        W88151  31.146  40.321   1.902
24593W        W88152  44.387  20.662  12.859
24594W        W88153   3.910  27.619   4.259
24595W        W88154  42.778   1.319   0.425
24596W        W88155   4.327  29.117   2.752
24597W        W88156   0.808  40.472  11.969
24598W        W88157  44.893  18.572   3.217
24599W        W88158   8.160  12.813  11.499
24600W        W88159   2.942  26.098  12.068
24601W        W88160  21.733  30.027  13.971
24602W        W88161  41.991  35.601   2.684
24603W        W88162   7.198  14.689  10.462
24604W        W88163  43.780  29.498   1.435
24605W        W88164  23.204   7.388   3.185
24606W        W88165  44.318  24.618  10.895
24607W        W88166  43.406  27.648   0.862
24608W        W88167  17.241  14.119   3.868
24609W        W88168  44.264  20.070  12.505
24610W        W88169  34.865  40.970   3.167
24611W        W88170  13.326   0.450   0.934
24612W        W88171   0.457  21.527  13.822
24613W        W88172  11.131   1.275   1.304
24614W        W88173   5.867  39.438  10.629
24615W        W88174  14.124  37.406   2.259
24616W        W88175  19.145  18.106  10.599
24617W        W88176  33.057  27.664   4.648
24618W        W88177  35.365  37.054  10.442
24619W        W88178  31.000  14.829  12.029
24620W        W88179  16.743  33.881   4.664
24621W        W88180  23.643   0.335  12.339
24622W        W88181   7.680  43.408  12.074
24623W        W88182   9.702   8.663  14.293
24624W        W88183  41.906  30.481   0.751
24625W        W88184  24.163  29.131   2.812
24626W        W88185  11.236   4.809  13.398
24627W        W88186  26.208  39.346   4.746
24628W        W88187  12.648   3.455  11.857
24629W        W88188  29.455   2.818   4.745
24630W        W88189   8.168  26.671   4.155
24631W        W88190  29.653  35.971   1.449
24632W        W88191   6.842  21.180   3.736
24633W        W88192  20.649  14.788  13.459
24634W        W88193  38.537  21.555   3.648
24635W        W88194   3.439  35.861   2.736
24636W        W88195  10.783  29.474   0.784
24637W        W88196   4.269  32.425   4.807
24638W        W88197  41.318  33.426  14.934
24639W        W88198  34.602  17.303   2.899
24640W        W88199  17.212  22.672  13.981
24641W        W88200   2.863  17.560   4.184
24642W        W88201  32.046  12.251  11.914
24643W        W88202  21.693  30.016   1.903
24644W        W88203  42.383  35.422  10.515
24645W        W88204  41.445  40.995   1.222
24646W        W88205   9.207  35.435  14.492
24647W        W88206  17.133  20.753  11.928
24648W        W88207   9.299  13.656  13.453
24649W        W88208  14.290  15.135  11.085
24650W        W88209  16.131  40.932  11.551
24651W        W88210  14.294  32.933   4.303
24652W        W88211  22.171  38.051   4.727
24653W        W88212  23.172  19.125  12.363
24654W        W88213  25.566   7.871  14.428
24655W        W88214  15.802   3.939  14.312
24656W        W88215   9.683  11.767   2.404
24657W        W88216  40.976  18.130   2.859
24658W        W88217  35.018  19.763  11.894
24659W        W88218  13.234  23.182   2.388
24660W        W88219  22.611   6.731  14.402
24661W        W88220  20.713  31.527   2.744
24662W        W88221   1.288  16.578  13.353
24663W        W88222   1.757  26.196   0.755
24664W        W88223   0.762  33.914   3.303
24665W        W88224  36.939  36.863  13.492
24666W        W88225  30.039  36.383  12.421
24667W        W88226   9.197  10.361   0.474
24668W        W88227  17.066  10.809   0.294
24669W        W88228   0.932  39.834   4.723
24670W        W88229  33.501  15.677  13.876
24671W        W88230  25.554  21.187   1.837
24672W        W88231  23.545   1.745  11.465
24673W        W88232   3.264  24.158  11.025
24674W        W88233  44.443  36.518  10.634
24675W        W88234   4.780   9.216  11.575
24676W        W88235  12.732   4.238   1.419
24677W        W88236   5.902  39.482  14.945
24678W        W88237  42.935  38.857  14.849
24679W        W88238   9.705  30.420   1.780
24680W        W88239  23.557  16.195  12.374
24681W        W88240  41.949   6.340  10.618
24682W        W88241  10.269  26.203  11.020
24683W        W88242  40.835  18.267   0.473
24684W        W88243  35.479  15.652   1.307
24685W        W88244  23.624   8.813  12.501
24686W        W88245  27.464  39.379  12.483
24687W        W88246  43.834  36.986   0.848
24688W        W88247  25.567  28.451   0.248
24689W        W88248  24.118   0.327   2.875
24690W        W88249  38.891  17.197   3.629
24691W        W88250  13.341  18.578   3.204
24692W        W88251  21.242  14.620  11.115
24693W        W88252  36.375  39.438  12.532
24694W        W88253  25.216   2.747  10.944
24695W        W88254  27.013  20.176   0.375
24696W        W88255   5.326  11.239   4.169
24697W        W88256   0.743  27.489  11.979
24698W        W88257  44.368  37.085   0.767
24699W        W88258  38.972  42.286  10.904
24700W        W88259   2.881   5.427  11.385
24701W        W88260  14.310  22.509  11.526
24702W        W88261  43.270  27.149   1.238
24703W        W88262  21.729  12.823   3.867
24704W        W88263   4.842  42.381   2.254
24705W        W88264  16.778  41.429   2.815
24706W        W88265  15.582  22.242  10.570
24707W        W88266  30.480  29.090  11.447
24708W        W88267  43.854  39.372   3.831
24709W        W88268   8.712   0.786  12.465
24710W        W88269  34.527  11.633  13.521
24711W        W88270   4.359  37.558   0.317
24712W        W88271  42.970  20.604   2.309
24713W        W88272   5.279  12.725  11.504
24714W        W88273  42.318  34.873   1.222
24715W        W88274  19.086  35.547   2.271
24716W        W88275   5.764  17.300  11.873
24717W        W88276  30.571  16.577  13.327
24718W        W88277  37.978  29.579   3.867
24719W        W88278  40.834  13.804  11.532
24720W        W88279  44.909   1.942   0.477
24721W        W88280  29.148   6.402   1.330
24722W        W88281  35.854  35.092   0.417
24723W        W88282  43.975   8.732  12.042
24724W        W88283  24.013  35.589   4.297
24725W        W88284  40.497  44.999   1.313
24726W        W88285  31.592   4.764  12.955
24727W        W88286  18.161  43.858  10.582
24728W        W88287  28.653   3.221  11.462
24729W        W88288  31.122  18.092  10.153
24730W        W88289   8.362  12.639   0.967
24731W        W88290   8.804  29.979  14.782
24732W        W88291   6.753  41.949  10.448
24733W        W88292  17.750  32.448   3.800
24734W        W88293   0.956  31.952  12.562
24735W        W88294  18.703  24.660   2.776
24736W        W88295  12.239  33.956   0.733
24737W        W88296   2.398  33.033  12.084
24738W        W88297  10.287  18.784  12.906
24739W        W88298  23.629  25.675  11.466
24740W        W88299  39.407  11.706  12.422
24741W        W88300  22.690  36.473  12.926
24742W        W88301  36.540  11.659   0.947
24743W        W88302   3.219  33.428   3.785
24744W        W88303  33.038   5.244   2.718
24745W        W88304  40.404  10.855  10.416
24746W        W88305  38.966  16.097  13.478
24747W        W88306  27.184  34.508   3.266
24748W        W88307   8.838  17.268   2.793
24749W        W88308  24.145   0.811   2.360
24750W        W88309   4.772   6.739   2.287
24751W        W88310   5.195  24.645   4.292
24752W        W88311   5.293  30.456  14.336
24753W        W88312  30.514  26.613   4.661
24754W        W88313  23.153   1.255  13.541
24755W        W88314  15.308  31.151  12.354
24756W        W88315  12.178  36.968   3.285
24757W        W88316  11.214   5.432   0.773
24758W        W88317  13.137  23.144   1.757
24759W        W88318  41.869  24.705  10.448
24760W        W88319   0.361  34.876  13.317
24761W        W88320  16.086  28.503   0.437
24762W        W88321  26.119  18.099  13.915
24763W        W88322  32.485  38.377  12.342
24764W        W88323  29.128   0.765   3.853
24765W        W88324   5.879  40.014  12.340
24766W        W88325  35.110  13.185  10.108
24767W        W88326   5.839  28.995  13.816
24768W        W88327  22.047  19.718   2.245
24769W        W88328  37.856  20.618  13.016
24770W        W88329  12.829  41.929  10.469
24771W        W88330  20.579  13.164  14.862
24772W        W88331   3.216  27.653   2.270
24773W        W88332  43.892  12.813  11.556
24774W        W88333  11.342  21.107  14.427
24775W        W88334   8.317  31.484  12.958
24776W        W88335  31.591   4.398  14.811
24777W        W88336  28.552  28.459  12.405
24778W        W88337  23.733   9.879  12.967
24779W        W88338  26.065   5.301   1.310
24780W        W88339   8.325  27.978  13.407
24781W        W88340  22.526  31.407  13.358
24782W        W88341   5.725  43.441  11.989
24783W        W88342  17.264   3.266  12.964
24784W        W88343   8.672   0.800   3.698
24785W        W88344   8.286  25.138  12.475
24786W        W88345  19.249   5.767   0.822
24787W        W88346  11.723   4.784  14.288
24788W        W88347  40.494  18.773  14.932
24789W        W88348  40.896  36.957  13.960
24790W        W88349  23.517   1.887  13.888
24791W        W88350  27.629  14.194  14.401
24792W        W88351  39.474  36.994   3.181
24793W        W88352  17.203  26.561   4.266
24794W        W88353  38.511  18.657   3.871
24795W        W88354  28.638  13.846  13.454
24796W        W88355  37.034  23.559   2.729
24797W        W88356   7.686  34.499  14.987
24798W        W88357  30.432  16.102   0.269
24799W        W88358  17.075  24.676  13.808
24800W        W88359  21.554  39.960  11.944
24801W        W88360   0.458  37.954  10.917
24802W        W88361  25.032   7.829  11.387
24803W        W88362  24.016  18.550   1.343
24804W        W88363  14.833  11.651   0.394
24805W        W88364  44.892   2.932   1.869
24806W        W88365   8.267  24.724   1.277
24807W        W88366  26.661  44.833   1.223
24808W        W88367  16.140   7.858   5.277
24809W        W88368  22.089  27.994   3.206
24810W        W88369  37.510  36.979  10.435
24811W        W88370  36.085   4.901   1.246
24812W        W88371  40.431  29.537   0.338
24813W        W88372  38.044  25.544   0.270
24814W        W88373  33.043  34.008   4.606
24815W        W88374  37.517  42.799   4.129
24816W        W88375  27.042  14.605  14.008
24817W        W88376  10.758  37.352  13.979
24818W        W88377  36.071  20.072   4.291
24819W        W88378  39.836   2.846  10.973
24820W        W88379   6.864  28.008   0.823
24821W        W88380  12.762   4.716  11.444
24822W        W88381   1.751   7.740   4.601
24823W        W88382  30.540  16.616   0.398
24824W        W88383  28.128   4.733  14.967
24825W        W88384   9.368   3.308   3.857
24826W        W88385  26.672   7.332   1.423
24827W        W88386   6.876  11.687  12.833
24828W        W88387   0.366  43.897  14.967
24829W        W88388  35.395  11.199   1.856
24830W        W88389  35.542  13.640   0.758
24831W        W88390  18.050  36.028  13.548
24832W        W88391  13.218  12.220  12.388
24833W        W88392  13.200  12.194  10.606
24834W        W88393  21.029  13.339  12.342
24835W        W88394  21.675  13.746   2.897
24836W        W88395   7.410  18.273   3.305
24837W        W88396  33.955   3.732  12.966
24838W        W88397   0.881  36.062  13.454
24839W        W88398  30.647  37.480   0.277
24840W        W88399   0.855  14.274  13.034
24841W        W88400  20.688  36.941  11.488
24842W        W88401  27.129  11.648  11.477
24843W        W88402  42.438   6.809   4.153
24844W        W88403   9.287  28.636  14.442
24845W        W88404  22.743  41.330   4.627
24846W        W88405  39.809   2.277  11.475
24847W        W88406  17.163  36.577   4.340
24848W        W88407  32.901  18.579  14.307
24849W        W88408  12.128  12.635   0.331
24850W        W88409  17.250   4.221  10.902
24851W        W88410  27.645  21.202   3.369
24852W        W88411   0.334  37.351   1.723
24853W        W88412  14.756  27.122  13.319
24854W        W88413   6.325  32.392  13.008
24855W        W88414   3.786  37.465  12.519
24856W        W88415  33.899  30.542  10.562
24857W        W88416  32.093   9.246  10.581
24858W        W88417  15.221  31.021  13.850
24859W        W88418  23.009  23.489  11.485
24860W        W88419  38.344  31.514   4.816
24861W        W88420  12.682  24.005   0.947
24862W        W88421  30.024  33.534   0.916
24863W        W88422  40.477  29.105  12.397
24864W        W88423  30.609  31.085   3.671
24865W        W88424  20.643  12.145  11.454
24866W        W88425  29.033  39.429   2.676
24867W        W88426  21.572  10.281  11.437
24868W        W88427  21.528  40.488   2.901
24869W        W88428  42.364   0.767   4.175
24870W        W88429   7.356  12.809   4.642
24871W        W88430  43.858  28.043   1.786
24872W        W88431  32.594  15.172  11.081
24873W        W88432  31.028   8.808   3.816
24874W        W88433  15.595  22.562   5.092
24875W        W88434  19.162   8.731   2.183
24876W        W88435   6.184  38.841  12.906
24877W        W88436  26.460   7.892   2.853
24878W        W88437  21.615   7.241  11.912
24879W        W88438  23.014   0.316  11.394
24880W        W88439   2.782  40.839  14.434
24881W        W88440   5.365  13.321   3.319
24882W        W88441  42.008   7.714   3.250
24883W        W88442  13.154  16.734   3.317
24884W        W88443  36.524  14.588  12.914
24885W        W88444  23.660  19.150   2.817
24886W        W88445  18.595  33.090   4.818
24887W        W88446  12.654  26.490   3.634
24888W        W88447  41.953   0.287   2.801
24889W        W88448  38.441  38.848  14.794
24890W        W88449  41.534  26.590   4.219
24891W        W88450  41.498  31.093   2.265
24892W        W88451   8.702  33.005  14.375
24893W        W88452  40.894   8.312  12.987
24894W        W88453   2.919  21.535  12.943
24895W        W88454  44.821  36.987   0.348
24896W        W88455  44.444   6.211   0.805
24897W        W88456   6.725  11.344   1.762
24898W        W88457   7.804  35.965   1.227
24899W        W88458  44.492  43.016  13.823
24900W        W88459  36.009  40.338  11.498
24901W        W88460   7.340  13.192   3.783
24902W        W88461  28.619  12.330   1.393
24903W        W88462   0.370  33.569   4.753
24904W        W88463   7.783   2.370  12.563
24905W        W88464   7.280   9.159  14.855
24906W        W88465  42.932   9.220   0.482
24907W        W88466  16.251  27.538  13.950
24908W        W88467  14.615   2.756   3.160
24909W        W88468  22.529  40.478   1.438
24910W        W88469   3.417  41.510   1.324
24911W        W88470  31.964  29.965   2.780
24912W        W88471  23.669  15.166   1.754
24913W        W88472  19.598  44.396  12.537
24914W        W88473  15.098  40.330  14.488
24915W        W88474  11.233  23.984  14.844
24916W        W88475  42.456  31.088  13.991
24917W        W88476   6.372  18.204   2.868
24918W        W88477   1.782  20.050   0.793
24919W        W88478  20.214  16.797   0.850
24920W        W88479  41.303  13.817   1.394
24921W        W88480  23.090  29.586  14.321
24922W        W88481   4.423  16.085  12.384
24923W        W88482  20.080  43.873   2.790
24924W        W88483  28.618  16.800   1.783
24925W        W88484  39.335  24.996   0.819
24926W        W88485  11.694  44.358   1.373
24927W        W88486  20.230  29.481   3.822
24928W        W88487  38.371   2.469  14.804
24929W        W88488  17.088   1.883   1.915
24930W        W88489  23.672  32.925   4.166
24931W        W88490   2.921   8.272  14.475
24932W        W88491  23.653  12.344  13.367
24933W        W88492   7.678  32.117  10.065
24934W        W88493  24.088  39.975  14.471
24935W        W88494  25.657  33.044  14.960
24936W        W88495  24.716  41.842  11.989
24937W        W88496  20.043  10.699  10.536
24938W        W88497   2.771  38.981   2.739
24939W        W88498  15.285  34.374  11.946
24940W        W88499   7.835  17.715   1.321
24941W        W88500  41.890  36.908  10.490
24942W        W88501  33.450  38.499   4.186
24943W        W88502   1.382  27.606  14.894
24944W        W88503   6.411   9.321   1.427
24945W        W88504  11.829  10.640   1.288
24946W        W88505  33.437  23.721  10.485
24947W        W88506  41.028  31.078   1.745
24948W        W88507  30.950  37.392  12.556
24949W        W88508   5.355  25.078  13.388
24950W        W88509  37.495   8.855   0.378
24951W        W88510   0.272  23.536  10.516
24952W        W88511  17.077  12.706   3.847
24953W        W88512   1.949  16.173  12.007
24954W        W88513   5.328  14.800   0.942
24955W        W88514   4.884  21.058   2.343
24956W        W88515   1.946  22.612  11.579
24957W        W88516  29.513  15.705  11.528
24958W        W88517  29.019   0.302  11.964
24959W        W88518  23.110  28.099  10.406
24960W        W88519  19.658   8.203  14.318
24961W        W88520  16.271  28.988   3.767
24962W        W88521  35.928  31.993   2.847
24963W        W88522  40.504  29.064   1.359
24964W        W88523   7.209  16.585  14.295
24965W        W88524  17.136   3.372   3.365
24966W        W88525   5.754   9.740  10.644
24967W        W88526  19.197  41.933   3.869
24968W        W88527   7.339  41.336   1.705
24969W        W88528  29.992  41.815   4.603
24970W        W88529  11.352  35.863  14.811
24971W        W88530   7.318  33.398   2.413
24972W        W88531  20.033  27.157   1.426
24973W        W88532  18.584  37.928   4.300
24974W        W88533  36.956  20.071   2.898
24975W        W88534  35.906  17.163   1.837
24976W        W88535  41.383  25.509  10.446
24977W        W88536   7.241  19.545   4.775
24978W        W88537  20.605  23.563  10.585
24979W        W88538  25.497  25.644   4.216
24980W        W88539   9.751  43.379   4.128
24981W        W88540  41.419   5.428  12.384
24982W        W88541  10.181   5.845   1.846
24983W        W88542  24.992   4.916   1.294
24984W        W88543  12.688   3.390  10.570
24985W        W88544   1.838  37.962   2.248
24986W        W88545   2.869  35.562  11.006
24987W        W88546   0.807  12.133  12.978
24988W        W88547   8.895  35.583   3.300
24989W        W88548   3.841  17.752  11.438
24990W        W88549  20.160  37.373  11.540
24991W        W88550  39.888  20.083  13.918
24992W        W88551  20.133  12.798  11.476
24993W        W88552   8.347  11.791   1.370
24994W        W88553  28.118  32.127   2.701
24995W        W88554  18.756  27.628  11.086
24996W        W88555  32.407  11.769  13.866
24997W        W88556   0.847  27.521   4.326
24998W        W88557  39.061  43.985   2.264
24999W        W88558  44.390   3.402  13.400
25000W        W88559  10.638   1.936   0.432
25001W        W88560  39.420  19.042  14.880
25002W        W88561  16.770  19.048  10.612
25003W        W88562  13.775  19.117   4.321
25004W        W88563  40.311  31.014  11.551
25005W        W88564   7.844  34.394  11.460
25006W        W88565  37.384   5.857   2.368
25007W        W88566   0.416  20.712   0.323
25008W        W88567   4.767   3.311   1.800
25009W        W88568   3.274   9.808   2.740
25010W        W88569  23.684  42.775  12.922
25011W        W88570  44.311  12.813   0.430
25012W        W88571  10.359   2.468  14.284
25013W        W88572  35.030  28.515  13.354
25014W        W88573   3.847  23.151  12.083
25015W        W88574  21.230  30.545  11.526
25016W        W88575  43.277  43.019   2.864
25017W        W88576  24.010  44.442   1.755
25018W        W88577  27.087  11.143   2.781
25019W        W88578  36.399  11.674   4.178
25020W        W88579  12.196  13.212   2.384
25021W        W88580  27.086  29.143   4.325
25022W        W88581  10.278   8.250  12.556
25023W        W88582   3.401   9.788   3.823
25024W        W88583  23.056   2.338   4.142
25025W        W88584  35.528  31.961   5.173
25026W        W88585  40.805  37.473  13.000
25027W        W88586  28.657  12.341   0.300
25028W        W88587  38.064  36.590   4.680
25029W        W88588  39.914  43.433   2.205
25030W        W88589   1.282  21.515   2.355
25031W        W88590  29.092  12.173  10.539
25032W        W88591  34.042  38.358  14.324
25033W        W88592  36.452  32.111  12.891
25034W        W88593  10.233  27.164  14.984
25035W        W88594   1.405  10.812   2.296
25036W        W88595  20.558  13.828  13.544
25037W        W88596   9.826   5.415   1.809
25038W        W88597  18.583  34.583   4.163
25039W        W88598  11.373  17.159  11.508
25040W        W88599  35.090   5.345  12.848
25041W        W88600  39.968  23.543   2.685
25042W        W88601  22.116  29.957  12.039
25043W        W88602  17.164  12.231  12.483
25044W        W88603  26.701  30.624   2.802
25045W        W88604   7.796   9.740   0.839
25046W        W88605  40.010  38.522  14.955
25047W        W88606  37.878  30.999   3.238
25048W        W88607  21.141   0.852   4.197
25049W        W88608   7.898  31.476   2.281
25050W        W88609  35.941  27.612   1.236
25051W        W88610  18.246   0.980  12.478
25052W        W88611  16.102   2.893   4.624
25053W        W88612  11.845  17.154   3.866
25054W        W88613  40.400   1.820   1.723
25055W        W88614  41.475  30.082   0.741
25056W        W88615  22.026  27.013  13.934
25057W        W88616  18.286  14.281  14.796
25058W        W88617   7.888  41.836   0.440
25059W        W88618   3.903   6.423   0.804
25060W        W88619   7.257   2.229   1.236
25061W        W88620   3.444  41.456   3.860
25062W        W88621  15.275  30.925  12.925
25063W        W88622  11.643  11.245  13.345
25064W        W88623   5.207  14.754   1.827
25065W        W88624  10.691  39.835   1.931
25066W        W88625  24.716  19.730   3.166
25067W        W88626  20.753  20.546  14.000
25068W        W88627  18.052  18.166   1.276
25069W        W88628   1.469   2.754   3.278
25070W        W88629  25.145  43.006   3.316
25071W        W88630   0.413  32.039   3.846
25072W        W88631  19.269  32.049  12.874
25073W        W88632  42.437   9.392  12.061
25074W        W88633  17.646  16.282  14.003
25075W        W88634  34.937  12.745  14.442
25076W        W88635  16.682   5.695  12.561
25077W        W88636  14.831  25.627   0.861
25078W        W88637   0.419  43.282   0.243
25079W        W88638  27.634  35.067  14.463
25080W        W88639  38.009   6.326  13.419
25081W        W88640  44.423   9.226   1.294
25082W        W88641  18.112   8.763   1.236
25083W        W88642  24.575   1.267   0.270
25084W        W88643  35.431   6.399  13.502
25085W        W88644   7.202  35.009  13.936
25086W        W88645  18.547  12.804   1.874
25087W        W88646  32.623  34.386   4.291
25088W        W88647   0.491  17.119  11.064
25089W        W88648  18.252  34.433   2.198
25090W        W88649  42.455  10.762   2.321
25091W        W88650   9.657  33.088   4.342
25092W        W88651  23.988  36.964  14.417
25093W        W88652  44.795  39.436  13.449
25094W        W88653  17.267  41.949   3.341
25095W        W88654  42.286  10.826   3.680
25096W        W88655   7.354  20.203   4.188
25097W        W88656  31.481  31.033  11.961
25098W        W88657  43.832   0.895  11.378
25099W        W88658   1.376  29.088   0.811
25100W        W88659   4.379   9.320  10.626
25101W        W88660   3.264   4.867   2.876
25102W        W88661  31.152   3.843  12.072
25103W        W88662  14.615   6.748  11.879
25104W        W88663  42.471   5.377   0.268
25105W        W88664  19.140  24.684  10.495
25106W        W88665   9.158  11.865   3.826
25107W        W88666  30.581  29.018  11.928
25108W        W88667  20.242  26.114  10.983
25109W        W88668  29.161  11.358  14.006
25110W        W88669  30.072  15.817  10.431
25111W        W88670  31.031  33.417   4.287
25112W        W88671  18.251  37.076  10.989
25113W        W88672  38.340   4.756  12.347
25114W        W88673  34.498  32.606   0.763
25115W        W88674   2.394  12.176  11.440
25116W        W88675  10.879  22.592   3.864
25117W        W88676  37.060  24.026  14.836
25118W        W88677   1.782  30.580   4.299
25119W        W88678   9.310  15.636   0.291
25120W        W88679  38.410  36.098  14.366
25121W        W88680  20.156   3.460  11.446
25122W        W88681  17.654  40.534  11.977
25123W        W88682  16.183  19.692   0.798
25124W        W88683   2.829  19.156   1.873
25125W        W88684   3.894   8.681   0.429
25126W        W88685  18.162  22.600   4.602
25127W        W88686  12.814   8.309   2.770
25128W        W88687  12.656  38.049  13.439
25129W        W88688  14.699  17.753   3.312
25130W        W88689  25.612  14.114  12.045
25131W        W88690  13.634  41.967  11.100
25132W        W88691  23.669  42.778   3.642
25133W        W88692  21.049  32.064  11.381
25134W        W88693   8.341   3.348   1.373
25135W        W88694  40.922  12.228  14.381
25136W        W88695  37.907  32.610  12.054
25137W        W88696  44.914  15.182   4.262
25138W        W88697   1.393   7.875   0.728
25139W        W88698  38.837   3.374  11.084
25140W        W88699  31.621  29.461   2.889
25141W        W88700  26.987  27.513  13.044
25142W        W88701  15.608  43.965  14.951
25143W        W88702  23.098   0.449  14.915
25144W        W88703  39.504  37.898   1.737
25145W        W88704  23.151   4.909   4.233
25146W        W88705  15.593  21.147   5.249
25147W        W88706  28.536  31.096  12.439
25148W        W88707   1.272  37.925  13.359
25149W        W88708  44.951  24.086  14.411
25150W        W88709  15.602  35.106   3.790
25151W        W88710  31.089   1.263   0.930
25152W        W88711  42.805  31.088  14.027
25153W        W88712  11.636  30.622   0.959
25154W        W88713  30.567  12.185  13.309
25155W        W88714  15.757  19.602   3.709
25156W        W88715  35.444  13.213  13.541
25157W        W88716  41.493   2.229   0.425
25158W        W88717  37.079  35.016   2.747
25159W        W88718   7.729  30.000  11.436
25160W        W88719  22.552   5.837   2.827
25161W        W88720   3.232  25.672  11.077
25162W        W88721  30.128  35.897  14.788
25163W        W88722   8.200   9.843   2.736
25164W        W88723   9.310  28.587   4.183
25165W        W88724  40.414   6.409   2.777
25166W        W88725  16.807  24.657  13.934
25167W        W88726  28.186  30.451  10.992
25168W        W88727  35.892  10.642  13.351
25169W        W88728  44.781  26.505   3.673
25170W        W88729  26.041  43.447   3.322
25171W        W88730   1.749  28.087   3.348
25172W        W88731  39.499  42.887  11.374
25173W        W88732  40.334  39.320  14.020
25174W        W88733  41.353   6.425  12.398
25175W        W88734  19.773  18.277   3.651
25176W        W88735  21.537  18.184  13.398
25177W        W88736   4.851  27.692   3.360
25178W        W88737   7.696  12.852   0.446
25179W        W88738   6.867  33.898   4.711
25180W        W88739  25.008   9.255  12.480
25181W        W88740  17.075  28.626   0.285
25182W        W88741  34.872  29.617   5.269
25183W        W88742  38.423   5.411  10.564
25184W        W88743  27.988  18.194   2.833
25185W        W88744   8.180  41.504   0.355
25186W        W88745  10.195  36.050   2.298
25187W        W88746  22.502  11.829  14.429
25188W        W88747  12.781  40.987  11.060
25189W        W88748   8.228  38.560  10.411
25190W        W88749   8.840  36.020   5.287
25191W        W88750  40.336   6.825   3.219
25192W        W88751  22.728  27.448   3.744
25193W        W88752   3.382  15.314  13.878
25194W        W88753   1.241  26.122   4.649
25195W        W88754  20.106  40.877  11.090
25196W        W88755  43.508   4.259   1.910
25197W        W88756  11.725   8.263  13.429
25198W        W88757  20.202  18.251   2.410
25199W        W88758  28.985  37.572  11.124
25200W        W88759   7.735  29.659   5.097
25201W        W88760  16.650   7.356   3.714
25202W        W88761   3.867  25.047   2.360
25203W        W88762  34.884  29.124   0.870
25204W        W88763  39.061  13.335  11.034
25205W        W88764  36.383  32.426   2.900
25206W        W88765   2.947  41.979  14.798
25207W        W88766  15.638  36.489   1.394
25208W        W88767   0.744   1.384   2.258
25209W        W88768  44.383  11.674  12.576
25210W        W88769  42.798   1.290   3.740
25211W        W88770  37.933   3.393   4.708
25212W        W88771  18.112   8.169   2.241
25213W        W88772  32.138  34.112   2.900
25214W        W88773   5.318  34.064  12.343
25215W        W88774  38.033  33.499  12.364
25216W        W88775  18.691  32.013  10.925
25217W        W88776  34.578  31.040  12.452
25218W        W88777   2.801  14.638   3.779
25219W        W88778  15.782  22.208   2.378
25220W        W88779   8.185  31.029   1.298
25221W        W88780  21.639  37.473  13.390
25222W        W88781  31.517  34.000  14.341
25223W        W88782  16.257  25.106   3.796
25224W        W88783  41.488  28.465   4.305
25225W        W88784  37.062   6.772  12.888
25226W        W88785  39.811   4.861  11.984
25227W        W88786  19.561  41.528   4.609
25228W        W88787   3.804  20.167   4.214
25229W        W88788   2.245   5.910   3.679
25230W        W88789  29.995  17.118  10.425
25231W        W88790  22.077  38.418  14.885
25232W        W88791   7.290   7.199   4.709
25233W        W88792  11.861  15.201   3.147
25234W        W88793  14.121  13.162   1.813
25235W        W88794   1.736  25.175  11.060
25236W        W88795  23.516  29.169   1.242
25237W        W88796  24.179  27.571   3.243
25238W        W88797  13.187   7.411  14.872
25239W        W88798  30.005  38.016   4.677
25240W        W88799  33.447  44.451   1.263
25241W        W88800   6.351  27.133  12.991
25242W        W88801  32.112  22.212  10.528
25243W        W88802  38.993  10.283  10.996
25244W        W88803   7.909  11.319   0.897
25245W        W88804   5.310  18.252  11.046
25246W        W88805  38.545  30.597  11.882
25247W        W88806  15.629   5.285   2.709
25248W        W88807  43.341  10.260  12.569
25249W        W88808  24.672  39.907   4.786
25250W        W88809  44.384  15.183   4.697
25251W        W88810  12.191  17.671   2.665
25252W        W88811  36.890  35.089   3.684
25253W        W88812  35.889  38.965  10.589
25254W        W88813  38.362  26.162   4.670
25255W        W88814  19.540   1.882  14.860
25256W        W88815  30.449  32.094   3.344
25257W        W88816  18.085   0.956  14.405
25258W        W88817  26.007  10.185  14.825
25259W        W88818  24.220  40.469   0.299
25260W        W88819  14.192  40.343  12.381
25261W        W88820   7.889  19.675  13.970
25262W        W88821   9.228  24.174   2.400
25263W        W88822  41.362  34.093  11.880
25264W        W88823  27.494  21.023  11.598
25265W        W88824  32.957  10.792  10.120
25266W        W88825  42.515  41.038  10.625
25267W        W88826  24.145  23.103   1.233
25268W        W88827  26.118  31.645  11.599
25269W        W88828  31.075  14.252   1.928
25270W        W88829  33.522  42.913   5.241
25271W        W88830  17.705  24.622   1.251
25272W        W88831  39.413  44.469  10.920
25273W        W88832  31.564  25.661  10.635
25274W        W88833  38.832  41.791  13.982
25275W        W88834  15.122  40.337   4.225
25276W        W88835  32.025  12.150  14.007
25277W        W88836   1.779  34.097   1.817
25278W        W88837  15.602  28.591  13.025
25279W        W88838  14.779  23.143  14.835
25280W        W88839   1.374  10.286  11.552
25281W        W88840  36.006  16.301   4.264
25282W        W88841  22.655   6.189  11.410
25283W        W88842  38.370  13.341   1.839
25284W        W88843  21.689  44.278   3.793
25285W        W88844  41.413  35.387  13.513
25286W        W88845  40.467   1.948  14.810
25287W        W88846  36.097  23.234   3.645
25288W        W88847  12.172   6.416   4.293
25289W        W88848  14.625  20.623   5.567
25290W        W88849  15.268   8.323  14.835
25291W        W88850  36.002  33.957   5.104
25292W        W88851  44.907   2.860  13.513
25293W        W88852  26.999  30.143   1.432
25294W        W88853  33.507   0.406  14.776
25295W        W88854  23.636  18.586   0.391
25296W        W88855  12.760  43.018  11.452
25297W        W88856   6.845   2.723  12.892
25298W        W88857   2.831  40.539   3.336
25299W        W88858  26.586  24.583  10.094
25300W        W88859  40.983  14.698  14.511
25301W        W88860   2.299  26.987  14.454
25302W        W88861   3.278  16.193  11.998
25303W        W88862  39.434  36.055   4.782
25304W        W88863   2.331   0.785   2.782
25305W        W88864  39.984  14.602  12.078
25306W        W88865  28.538   5.823  10.567
25307W        W88866  20.749  16.581   0.371
25308W        W88867  15.259  43.389  14.901
25309W        W88868  42.787  38.013   0.481
25310W        W88869  35.959  43.955  11.099
25311W        W88870   1.449  33.619  11.931
25312W        W88871  25.995  20.565  12.470
25313W        W88872  28.153  21.131  11.462
25314W        W88873  12.358  22.520   3.266
25315W        W88874  33.132  30.929   0.793
25316W        W88875  26.028  15.651  12.993
25317W        W88876   7.771  15.795  12.408
25318W        W88877  39.034   1.906   3.855
25319W        W88878   5.767  40.862  10.463
25320W        W88879  44.921  41.356  10.506
25321W        W88880  43.943   5.255  13.359
25322W        W88881  18.157  16.141  13.349
25323W        W88882  12.685   2.754   0.259
25324W        W88883  12.255  43.781  13.842
25325W        W88884  41.536  43.935  12.547
25326W        W88885   6.345  35.912  12.479
25327W        W88886  44.265  39.463  14.456
25328W        W88887  43.777  38.056   4.668
25329W        W88888  35.965   7.239  10.098
25330W        W88889  27.504   4.290   1.408
25331W        W88890  31.114  11.744   9.966
25332W        W88891  34.064  16.568  12.999
25333W        W88892  44.776  22.716  12.899
25334W        W88893   2.452  26.095   2.686
25335W        W88894  27.064  16.568  14.852
25336W        W88895  20.554  19.232   2.815
25337W        W88896  25.191  28.611  10.637
25338W        W88897  12.226  29.953   3.807
25339W        W88898  37.849  37.014   3.812
25340W        W88899  39.914  17.262   3.385
25341W        W88900   7.353  32.418   3.809
25342W        W88901  36.570  14.266  11.987
25343W        W88902  36.958  37.026   4.748
25344W        W88903   3.746  11.832  12.067
25345W        W88904  26.002   2.797  11.594
25346W        W88905  20.095  26.068   1.349
25347W        W88906  21.062  27.165  10.013
25348W        W88907   7.185   1.417   2.332
25349W        W88908  41.419   1.416  13.389
25350W        W88909   4.328  29.667   1.805
25351W        W88910  32.114  36.051  10.923
25352W        W88911  12.117  31.151  14.513
25353W        W88912  19.221  28.031  13.510
25354W        W88913   5.776   6.770  12.458
25355W        W88914  34.427  16.803   2.692
25356W        W88915  21.144  31.598   3.679
25357W        W88916  12.246  39.439   3.237
25358W        W88917  44.305  30.447  14.287
25359W        W88918  36.414  15.778  13.919
25360W        W88919   5.229   5.203  14.456
25361W        W88920  23.584  16.089  11.553
25362W        W88921  23.239  40.971   3.370
25363W        W88922  33.886  33.505  13.825
25364W        W88923  22.010   4.325  12.047
25365W        W88924   9.872  31.496   0.328
25366W        W88925  42.372   5.730   0.834
25367W        W88926  13.167  14.739   1.759
25368W        W88927  38.015  40.859   1.876
25369W        W88928  22.207   8.857   1.704
25370W        W88929  42.894  22.718  14.847
25371W        W88930  10.747   2.945  13.800
25372W        W88931  19.759   6.699   1.215
25373W        W88932  32.097  26.616   0.807
25374W        W88933   1.814  21.220   0.961
25375W        W88934  26.606  15.306  11.569
25376W        W88935  17.125   1.417  11.058
25377W        W88936  44.920  42.295  12.546
25378W        W88937  34.567  20.110   3.311
25379W        W88938  26.184  33.087  14.829
25380W        W88939  42.792  21.066   3.706
25381W        W88940  15.636  28.178   1.257
25382W        W88941   8.813  42.482   1.417
25383W        W88942  15.616  20.116  10.963
25384W        W88943  12.800   6.285   3.219
25385W        W88944   1.279   0.867  13.860
25386W        W88945  26.601  16.105  13.399
25387W        W88946  10.277   9.223   2.204
25388W        W88947  31.099  35.015   1.280
25389W        W88948  30.625  31.131   2.298
25390W        W88949  41.818  34.095   3.805
25391W        W88950   6.283  36.504   1.268
25392W        W88951  43.796  41.792   2.863
25393W        W88952  41.893  43.783   1.894
25394W        W88953  21.170  10.847   1.297
25395W        W88954  18.638   1.472  12.032
25396W        W88955  39.895  20.138  13.044
25397W        W88956  38.371  43.386  12.899
25398W        W88957  29.088  15.166   0.863
25399W        W88958  26.120   8.683  11.026
25400W        W88959   9.300  29.113   1.345
25401W        W88960  21.702  22.059   3.350
25402W        W88961  14.297   7.205  12.972
25403W        W88962   8.171  30.959   4.736
25404W        W88963  22.156  38.520  12.844
25405W        W88964  18.711  34.863  10.557
25406W        W88965  35.983  24.171   2.397
25407W        W88966  43.897  19.712  13.435
25408W        W88967  43.453   6.372  10.957
25409W        W88968   2.772  14.772  12.090
25410W        W88969  23.568  40.957   4.727
25411W        W88970  29.600  26.601  10.502
25412W        W88971  19.718  37.011   3.774
25413W        W88972  38.403  35.889   2.340
25414W        W88973  28.647   0.302  12.462
25415W        W88974  33.074  26.496  13.873
25416W        W88975   8.392   8.345   0.941
25417W        W88976   4.813   1.809  12.919
25418W        W88977   4.718  14.321  11.955
25419W        W88978  16.312   7.691   4.167
25420W        W88979  29.484  18.709  14.409
25421W        W88980  34.497  37.580   1.754
25422W        W88981   7.367   0.906  11.077
25423W        W88982  23.568  12.358  10.507
25424W        W88983  30.531  10.219   4.182
25425W        W88984   5.401  18.712  13.321
25426W        W88985  17.305  12.633   2.249
25427W        W88986   8.188   1.942  12.488
25428W        W88987  15.209  16.309  11.506
25429W        W88988  27.619  16.734   3.260
25430W        W88989  26.199  33.082   2.360
25431W        W88990  42.809  28.598   1.901
25432W        W88991  36.856  31.920   2.683
25433W        W88992  36.962   7.837  14.328
25434W        W88993  43.807  19.699  11.421
25435W        W88994  20.067  35.563  10.490
25436W        W88995  39.876  17.728   2.267
25437W        W88996  26.457  14.629   5.189
25438W        W88997  11.358  35.365   2.873
25439W        W88998  44.803  42.951   2.367
25440W        W88999  27.124  12.631   4.336
25441W        W89000   2.962  38.838   4.279
25442W        W89001   6.372   5.351   3.729
25443W        W89002  28.538  42.893  11.471
25444W        W89003  32.401   6.240  10.465
25445W        W89004   7.772  16.266  13.395
25446W        W89005  24.678  40.967   2.328
25447W        W89006  42.473  19.079   4.681
25448W        W89007  41.959   8.839   0.864
25449W        W89008  35.975   8.195  11.382
25450W        W89009  22.014  14.815   2.286
25451W        W89010  41.851  39.558   3.340
25452W        W89011  18.061  21.230  11.395
25453W        W89012  37.025  21.712   4.118
25454W        W89013  33.057   9.764   4.253
25455W        W89014  29.527  26.501  12.912
25456W        W89015   0.437  43.847   1.288
25457W        W89016   6.379  16.677   0.760
25458W        W89017  43.417  42.998   1.746
25459W        W89018  44.299  31.001   2.371
25460W        W89019  44.890  22.196  12.891
25461W        W89020  27.999   3.226  10.634
25462W        W89021   4.403   1.852  13.542
25463W        W89022  17.133  15.656   3.639
25464W        W89023   2.885   2.315   2.802
25465W        W89024   9.720  18.783   3.377
25466W        W89025  41.833  35.101  10.961
25467W        W89026   8.676   6.223  10.440
25468W        W89027  44.843  12.847  13.375
25469W        W89028   1.291   0.386  12.367
25470W        W89029  27.566  20.574  14.447
25471W        W89030  43.277  43.274   4.714
25472W        W89031  24.595  44.434  13.341
25473W        W89032  33.956  16.789  12.410
25474W        W89033  24.605  37.543   1.250
25475W        W89034  44.274  20.656  13.852
25476W        W89035  43.441  10.302  14.767
25477W        W89036  21.216  18.728  12.954
25478W        W89037  39.923  31.553  10.053
25479W        W89038  34.868  32.132   0.882
25480W        W89039  18.633  11.698   1.715
25481W        W89040   0.412  33.584  11.590
25482W        W89041  36.869   8.323   3.288
25483W        W89042  15.148  23.005  11.558
25484W        W89043  33.607  38.015  10.010
25485W        W89044   0.254  42.980   3.205
25486W        W89045  10.271  33.944   4.136
25487W        W89046  31.946  16.104  12.905
25488W        W89047   1.440  11.769  10.470
25489W        W89048  29.989  22.237  11.555
25490W        W89049  16.125  19.076   3.639
25491W        W89050  13.178   2.871  11.932
25492W        W89051  19.672   0.828  14.882
25493W        W89052   8.708   7.893  13.354
25494W        W89053  24.703   0.822  13.515
25495W        W89054  26.150   0.795   2.807
25496W        W89055  36.860  15.658   3.266
25497W        W89056   3.276   8.854  13.531
25498W        W89057  44.451  34.487  13.372
25499W        W89058  36.377  15.606  10.984
25500W        W89059  35.501   8.831  13.923
25501W        W89060  41.918  31.008   2.809
25502W        W89061  34.404  11.266  14.905
25503W        W89062  18.058  39.938  10.637
25504W        W89063   5.699  26.620  14.384
25505W        W89064   7.667   6.314  11.057
25506W        W89065  18.562  17.072   3.870
25507W        W89066  29.572  44.796   4.135
25508W        W89067   8.789  33.909  13.798
25509W        W89068   7.669  17.062  11.469
25510W        W89069  23.515   5.217  12.411
25511W        W89070   5.398  15.784  14.422
25512W        W89071  10.785  21.054   0.336
25513W        W89072   5.321   0.285  14.967
25514W        W89073  27.508  38.037   2.746
25515W        W89074  23.511  22.691   4.787
25516W        W89075  31.628  14.101  11.472
25517W        W89076  37.571  17.088   3.204
25518W        W89077  30.917  10.809   2.213
25519W        W89078  17.653  18.180  11.419
25520W        W89079  12.698  13.750  13.319
25521W        W89080  42.992   1.842   3.326
25522W        W89081  34.998  21.139  13.050
25523W        W89082   0.757  31.032   3.146
25524W        W89083   7.796   7.332   3.177
25525W        W89084  30.999  42.427   2.748
25526W        W89085   1.417  18.244   4.837
25527W        W89086   1.756  26.090   2.204
25528W        W89087  16.745   8.884   3.308
25529W        W89088  13.750   9.880  13.894
25530W        W89089  16.102  15.317  11.562
25531W        W89090  36.360  18.284   4.612
25532W        W89091  36.419  26.068   4.115
25533W        W89092  33.923   4.341   4.650
25534W        W89093  14.672  20.594   0.845
25535W        W89094  34.571  23.026  14.769
25536W        W89095  22.021  12.772  10.927
25537W        W89096  15.238  16.749   3.171
25538W        W89097  16.120  27.956   2.390
25539W        W89098   0.877   2.410  10.050
25540W        W89099  19.597  10.155  10.410
25541W        W89100  19.655  37.540  14.854
25542W        W89101  36.579  30.502  13.417
25543W        W89102  44.806  35.061   2.409
25544W        W89103  33.904   7.878  13.886
25545W        W89104  19.048  14.657  11.098
25546W        W89105  29.588  11.625  12.869
25547W        W89106   9.741  27.464   4.748
25548W        W89107  13.336  10.256   5.241
25549W        W89108  41.037  12.250   4.340
25550W        W89109   8.751  40.494  14.288
25551W        W89110  12.294  21.548   4.266
25552W        W89111   4.235  13.335  10.639
25553W        W89112   7.276  14.658   4.212
25554W        W89113  22.113  34.046   3.848
25555W        W89114  39.055   8.205  13.870
25556W        W89115  22.610  33.041   2.382
25557W        W89116  16.205   2.844  11.057
25558W        W89117  35.550  20.270  14.374
25559W        W89118  10.785  37.836  10.445
25560W        W89119   8.799   9.237   2.743
25561W        W89120   7.887  14.149   1.302
25562W        W89121  29.509  18.101  14.333
25563W        W89122  21.739   8.391   0.421
25564W        W89123  28.579  27.679  10.973
25565W        W89124  24.490   6.682   1.769
25566W        W89125  14.754  41.533   0.381
25567W        W89126  35.549  15.278   4.677
25568W        W89127  32.582  15.663  12.420
25569W        W89128  36.385  39.446   4.268
25570W        W89129  23.104  30.966   5.142
25571W        W89130  28.021  29.458   0.371
25572W        W89131  36.005  21.661  11.859
25573W        W89132  32.417  22.177  13.930
25574W        W89133   9.874  21.552   0.445
25575W        W89134  38.568  16.215  13.522
25576W        W89135  30.070  11.636  13.911
25577W        W89136  20.079  21.208  14.978
25578W        W89137  38.522   7.719   1.275
25579W        W89138  22.551  12.730   5.124
25580W        W89139  28.041  26.011  12.449
25581W        W89140  19.216  21.023   0.776
25582W        W89141  28.165  35.548   0.255
25583W        W89142   3.392  41.316   1.918
25584W        W89143  36.892   2.846  10.631
25585W        W89144  23.114  16.166   2.703
25586W        W89145  10.327  13.199  14.763
25587W        W89146  41.927  12.301   3.265
25588W        W89147  14.634  18.106  10.567
25589W        W89148  20.602  26.018   1.723
25590W        W89149  29.531  37.573  10.075
25591W        W89150  10.350  23.673   2.772
25592W        W89151   1.344   8.197  12.397
25593W        W89152  31.046   4.335   1.357
25594W        W89153  24.685  36.550  13.948
25595W        W89154  33.578  31.569  13.054
25596W        W89155  29.485  24.146  10.942
25597W        W89156  35.501  19.569  14.495
25598W        W89157  16.804  24.226   0.819
25599W        W89158  32.415   6.759  13.366
25600W        W89159   7.235  11.822  12.044
25601W        W89160  40.924  36.008   2.184
25602W        W89161   7.763   4.212   4.189
25603W        W89162   2.853  41.988   4.821
25604W        W89163  29.162  42.410   4.168
25605W        W89164  37.882  22.598  11.098
25606W        W89165  37.353  43.879   3.782
25607W        W89166  19.221  36.570   2.694
25608W        W89167  19.087  25.035   1.899
25609W        W89168  24.121  29.651   1.276
25610W        W89169  30.953   9.375   2.299
25611W        W89170  30.421  14.784   4.665
25612W        W89171  27.683  36.093  13.490
25613W        W89172  32.411   0.759   2.305
25614W        W89173  11.856  34.865   0.963
25615W        W89174  29.011  33.454   3.154
25616W        W89175  37.400   4.321   0.256
25617W        W89176  35.531  24.084   3.368
25618W        W89177   6.812  40.046  11.375
25619W        W89178   5.929  22.027   1.833
25620W        W89179  39.949  25.211  14.379
25621W        W89180  36.990  31.928  13.455
25622W        W89181  32.474   9.867  10.959
25623W        W89182  34.440   0.911   3.248
25624W        W89183  14.732  31.511   2.748
25625W        W89184  40.854   1.936   1.288
25626W        W89185  22.526   0.351   4.240
25627W        W89186  43.772  16.762  12.562
25628W        W89187  35.380  39.435  13.348
25629W        W89188  10.249  42.354  14.023
25630W        W89189   8.835  22.670  12.367
25631W        W89190  14.179   8.864  14.949
25632W        W89191   7.784  25.676  12.076
25633W        W89192  39.463   9.770  12.347
25634W        W89193  35.400  22.521   4.294
25635W        W89194  20.108  32.488  14.382
25636W        W89195  29.138  28.544   2.832
25637W        W89196  24.105   3.295   3.794
25638W        W89197  31.418  36.925  11.885
25639W        W89198   1.789  18.646  13.974
25640W        W89199  25.151  35.495  13.486
25641W        W89200  32.016  30.538   4.646
25642W        W89201  11.200  41.419   3.216
25643W        W89202  10.176  42.938   1.332
25644W        W89203   3.415  37.952  14.814
25645W        W89204  43.310   5.279  12.063
25646W        W89205  12.148  14.240   0.408
25647W        W89206  25.171  25.030  11.924
25648W        W89207  44.888  39.032   1.911
25649W        W89208  38.965  23.067  14.876
25650W        W89209  32.015  43.441   3.275
25651W        W89210  18.190   8.732   3.803
25652W        W89211  38.921  35.384   5.306
25653W        W89212  18.134   6.213   4.636
25654W        W89213  31.451   9.206   9.460
25655W        W89214  30.634  34.975  10.905
25656W        W89215  38.415  14.681   0.325
25657W        W89216  28.009  35.959   4.715
25658W        W89217  10.294  36.028   3.765
25659W        W89218   6.827  21.622   1.284
25660W        W89219  41.358  29.031   2.248
25661W        W89220  44.893  38.475  13.369
25662W        W89221   1.295  43.506  11.443
25663W        W89222  25.034   8.787  12.479
25664W        W89223  30.602  36.418   0.753
25665W        W89224  14.716  21.557  10.969
25666W        W89225   0.349  36.443   1.729
25667W        W89226  17.261  30.151  14.414
25668W        W89227  44.970  14.825   4.343
25669W        W89228  15.653  15.216  11.863
25670W        W89229  27.955  25.535   2.715
25671W        W89230  12.273  16.206   0.823
25672W        W89231   1.923  11.161  13.507
25673W        W89232  40.033  11.345  11.099
25674W        W89233  40.879  24.216   3.346
25675W        W89234  39.357  11.253   4.660
25676W        W89235   5.193  25.980  11.437
25677W        W89236  23.589  35.072   1.734
25678W        W89237   6.292  27.596  12.056
25679W        W89238  22.519  44.343   2.773
25680W        W89239   2.915  30.939  11.928
25681W        W89240  41.404  23.597  12.873
25682W        W89241  33.976   7.748   0.396
25683W        W89242  31.019  30.046   2.694
25684W        W89243  36.881  15.664  14.441
25685W        W89244  22.047   9.834  14.775
25686W        W89245   4.906  10.846  14.886
25687W        W89246  39.395  23.704  10.630
25688W        W89247  43.326   5.749  13.372
25689W        W89248   6.303  38.921  11.969
25690W        W89249  16.219  37.878   2.227
25691W        W89250  38.376   8.334  14.810
25692W        W89251  20.584  20.129   2.685
25693W        W89252  16.628  13.842   3.260
25694W        W89253  36.429  27.961  12.003
25695W        W89254  19.630   0.808  13.538
25696W        W89255  36.384  16.302  11.938
25697W        W89256  12.224  16.649   2.813
25698W        W89257  37.359  21.061   2.339
25699W        W89258  15.200  26.063   2.197
25700W        W89259  36.049   6.880   2.247
25701W        W89260  17.750   9.673  14.768
25702W        W89261   2.885  11.207   3.380
25703W        W89262  37.470  26.524  11.079
25704W        W89263   1.756  12.828   0.906
25705W        W89264  25.069   4.825  12.980
25706W        W89265   8.854  30.419   0.834
25707W        W89266   2.842   3.215   3.825
25708W        W89267  16.092  33.980  11.398
25709W        W89268  35.033  33.093  11.535
25710W        W89269   2.754  21.573   1.288
25711W        W89270   9.671   6.858  11.879
25712W        W89271  10.260  11.364  14.806
25713W        W89272  34.119  20.219   4.798
25714W        W89273  29.072  15.744   4.244
25715W        W89274  20.233  20.233   3.309
25716W        W89275  43.913  37.043  10.520
25717W        W89276   5.302   1.482   4.781
25718W        W89277  17.294   8.209   2.398
25719W        W89278  36.545   7.208   4.784
25720W        W89279  25.668  24.168   0.830
25721W        W89280   6.875  38.556  13.954
25722W        W89281  16.686   8.816  13.418
25723W        W89282  35.541  30.551   4.777
25724W        W89283  18.275  24.514  12.088
25725W        W89284  30.932  14.296  10.989
25726W        W89285  11.815  33.565   9.524
25727W        W89286   4.777   8.310  14.962
25728W        W89287  10.637  17.630  10.449
25729W        W89288  33.489  12.843  10.592
25730W        W89289  23.046  41.887  11.895
25731W        W89290  29.125   1.894  10.902
25732W        W89291  30.062   9.289   4.351
25733W        W89292  22.008  28.085   4.232
25734W        W89293  12.340  37.054   1.767
25735W        W89294  31.906  14.595  10.591
25736W        W89295  10.300  14.607   1.301
25737W        W89296  33.018  13.623  12.446
25738W        W89297  31.615  15.758  14.018
25739W        W89298  26.022   2.257  11.569
25740W        W89299   8.879  11.183  12.026
25741W        W89300   9.769  32.919  13.441
25742W        W89301  40.810  28.130  14.805
25743W        W89302   2.296   9.662   3.252
25744W        W89303   4.892  12.160   0.818
25745W        W89304  30.555  27.505  13.448
25746W        W89305   4.796   4.344   0.903
25747W        W89306   1.399   6.713  10.542
25748W        W89307  35.057  37.565  13.377
25749W        W89308   5.438  40.406   2.813
25750W        W89309   0.829   6.749   3.651
25751W        W89310  35.501   3.800  10.982
25752W        W89311  30.616  43.437  14.466
25753W        W89312  18.658   8.286  10.475
25754W        W89313  32.419  43.779   4.634
25755W        W89314  32.053  20.087   0.893
25756W        W89315  14.618  27.045  14.373
25757W        W89316  37.421  30.152   3.204
25758W        W89317  33.039  36.004  14.423
25759W        W89318   1.322  17.170  14.340
25760W        W89319  15.119   8.751   2.370
25761W        W89320  41.319   5.324   2.833
25762W        W89321  27.507  10.756  11.438
25763W        W89322   7.238   9.858   0.747
25764W        W89323   6.361  17.654  10.909
25765W        W89324   1.322  34.926   2.317
25766W        W89325  35.410  14.706   0.939
25767W        W89326  31.107  43.380  10.975
25768W        W89327  32.477   7.820  13.356
25769W        W89328  31.959  17.098  13.408
25770W        W89329   7.187  40.378  11.939
25771W        W89330  36.375   2.908   3.314
25772W        W89331  16.304  41.993   4.760
25773W        W89332  37.471   9.660  12.946
25774W        W89333  33.590  12.157  12.001
25775W        W89334  42.815  23.693  14.493
25776W        W89335  12.712  22.610  13.933
25777W        W89336  41.799  25.977  11.882
25778W        W89337  10.326  11.132   0.967
25779W        W89338  35.434  18.779   2.323
25780W        W89339  32.927  28.175  12.080
25781W        W89340  19.276   8.357  14.943
25782W        W89341  37.476  31.439  14.783
25783W        W89342  31.055   3.841  11.587
25784W        W89343  36.569  21.558   2.704
25785W        W89344  23.728  40.995  13.409
25786W        W89345  11.677  13.610   0.857
25787W        W89346  38.875  32.097   2.371
25788W        W89347  19.595   9.232   0.459
25789W        W89348  31.428   3.835  12.868
25790W        W89349  44.365   0.775   4.147
25791W        W89350  42.340  11.853   3.351
25792W        W89351  31.443   9.149  14.907
25793W        W89352  25.979  39.948  11.929
25794W        W89353  18.728  20.181   4.802
25795W        W89354  12.795   9.646   1.765
25796W        W89355  30.021  38.906  11.974
25797W        W89356  22.707  38.342  13.888
25798W        W89357  33.110   0.834   2.707
25799W        W89358   5.301  15.183   3.154
25800W        W89359  12.737   6.850   0.479
25801W        W89360  34.949   7.837   4.639
25802W        W89361  18.700   4.872  13.927
25803W        W89362  25.073  18.216   4.683
25804W        W89363   5.262   2.742   4.232
25805W        W89364  27.684   0.288   0.740
25806W        W89365  24.514  10.878   0.932
25807W        W89366   7.221   5.301  10.429
25808W        W89367   4.928  18.175  10.900
25809W        W89368   8.331  12.157   2.688
25810W        W89369   4.347   2.471  12.521
25811W        W89370  36.027  33.486   2.789
25812W        W89371  11.784  37.970   4.769
25813W        W89372  20.707  10.693   3.258
25814W        W89373  15.313  38.955   2.369
25815W        W89374   6.294  36.961  13.868
25816W        W89375  20.609  24.022  14.902
25817W        W89376  16.781   4.276  11.871
25818W        W89377  32.916   2.314   0.408
25819W        W89378   9.797   9.261  14.802
25820W        W89379  18.746  22.723  13.462
25821W        W89380  18.285   7.892  12.841
25822W        W89381  28.030  12.167   0.381
25823W        W89382  24.100  26.657  14.790
25824W        W89383  21.635  19.241  11.447
25825W        W89384  35.369  13.787   4.233
25826W        W89385  22.065  32.892  11.102
25827W        W89386  41.887   2.889   2.855
25828W        W89387  18.215  10.744   1.349
25829W        W89388  34.461  38.429  14.515
25830W        W89389  30.952  20.657   3.378
25831W        W89390  35.092  32.031  12.393
25832W        W89391  41.318   0.897   2.245
25833W        W89392   0.258  44.310  11.391
25834W        W89393  10.710  37.924   3.861
25835W        W89394  27.641  15.755  11.100
25836W        W89395  44.375  22.150  12.420
25837W        W89396  35.110   3.809  13.937
25838W        W89397  24.179  35.435  11.083
25839W        W89398  36.010  42.961   4.724
25840W        W89399  33.599  27.596  12.001
25841W        W89400  38.843   9.321  14.895
25842W        W89401  27.986  36.885   2.902
25843W        W89402  31.132   6.260  12.054
25844W        W89403  35.004  15.163   4.312
25845W        W89404  15.636  10.379   1.440
25846W        W89405  16.790  32.036   4.816
25847W        W89406  15.136  27.511  13.859
25848W        W89407  31.576  27.557  11.459
25849W        W89408  23.629  35.412  12.422
25850W        W89409  34.930  19.595  13.394
25851W        W89410  40.976  44.309   2.337
25852W        W89411  44.459   7.378   3.742
25853W        W89412  11.740  20.536   0.794
25854W        W89413   8.162  38.474   3.630
25855W        W89414   7.827  23.139   2.227
25856W        W89415  33.969   1.319  13.064
25857W        W89416  20.103   9.213   4.238
25858W        W89417  27.017  37.899   1.326
25859W        W89418  13.206  40.986   0.920
25860W        W89419  15.785  21.154  13.048
25861W        W89420  10.191   3.731   4.760
25862W        W89421   2.424  30.515  14.466
25863W        W89422  34.392  22.253  13.843
25864W        W89423  13.825  26.089  14.821
25865W        W89424  17.070   9.300   4.603
25866W        W89425  20.098  24.039  14.489
25867W        W89426  38.493   2.437   3.283
25868W        W89427  25.689  40.315  13.387
25869W        W89428   0.823  35.389   0.896
25870W        W89429   4.805  42.879   1.364
25871W        W89430   2.885  29.647  11.112
25872W        W89431  21.757  28.445   3.869
25873W        W89432  16.160  28.637   0.744
25874W        W89433  43.427  18.243   1.341
25875W        W89434  27.038  39.892   0.791
25876W        W89435  17.084  11.691   4.789
25877W        W89436  15.102  30.641  11.914
25878W        W89437  30.600  39.372  11.995
25879W        W89438  32.063  30.116   3.867
25880W        W89439  39.053   4.901  10.605
25881W        W89440  11.245  12.209  14.918
25882W        W89441  43.354   5.307   2.290
25883W        W89442  14.138   3.773   1.802
25884W        W89443  27.554  38.455  13.064
25885W        W89444  33.566  23.510  10.911
25886W        W89445   1.860  24.120  11.099
25887W        W89446  22.502  17.266  13.337
25888W        W89447  10.717   3.728  11.979
25889W        W89448  36.942  42.909  13.831
25890W        W89449   3.835  31.610   3.775
25891W        W89450  26.035   1.960   0.743
25892W        W89451  41.327  23.573  14.430
25893W        W89452   1.451  41.840  12.924
25894W        W89453  37.939   8.790  14.898
25895W        W89454   9.335  11.786   3.281
25896W        W89455   0.833  15.104  12.876
25897W        W89456  35.057   7.406   4.215
25898W        W89457  19.100   4.308   4.800
25899W        W89458   5.426  40.891  12.869
25900W        W89459  14.107  13.309  13.834
25901W        W89460  40.813  16.590   4.757
25902W        W89461  38.926  25.546  12.021
25903W        W89462  30.115  25.482   1.823
25904W        W89463   1.921  32.598   1.920
25905W        W89464  23.055  12.308   0.889
25906W        W89465  38.955  21.562  14.951
25907W        W89466  17.284  18.642   4.227
25908W        W89467  20.128   9.196  13.854
25909W        W89468  10.245  36.512  13.827
25910W        W89469  13.200   2.428  13.798
25911W        W89470   6.291  26.573   2.227
25912W        W89471  24.522  10.143  14.387
25913W        W89472   2.725  15.664   1.339
25914W        W89473  26.954  17.170   1.248
25915W        W89474   3.269  32.927  13.961
25916W        W89475  20.732  12.612  14.779
25917W        W89476  42.328  14.689   2.256
25918W        W89477  24.145  20.047  12.881
25919W        W89478  20.081  12.199   1.416
25920W        W89479   6.349  32.497  14.844
25921W        W89480  23.162  27.662  11.581
25922W        W89481  38.045  28.628  11.460
25923W        W89482  42.843   6.363   1.359
25924W        W89483  30.435   1.893  13.011
25925W        W89484  36.942  25.527  12.003
25926W        W89485  37.499  23.117  12.055
25927W        W89486  44.765  24.653   4.671
25928W        W89487  19.548  37.466   4.227
25929W        W89488  39.336   1.284   0.907
25930W        W89489   3.415  28.937   3.337
25931W        W89490  13.827  10.275   5.118
25932W        W89491  16.293  17.065  11.445
25933W        W89492  26.618  30.103   3.347
25934W        W89493  12.278   5.242   4.283
25935W        W89494  20.133  28.570  12.920
25936W        W89495  44.792  31.931   1.353
25937W        W89496  11.704  32.460   1.827
25938W        W89497  15.222  26.643   2.363
25939W        W89498  44.275  13.831   2.355
25940W        W89499  14.710  39.956   9.959
25941W        W89500  14.215  37.367  10.024
25942W        W89501   6.264  35.433  11.558
25943W        W89502  10.239   4.766   2.400
25944W        W89503   4.264  31.922  13.359
25945W        W89504   5.356   4.726   1.318
25946W        W89505  28.485  28.660  14.306
25947W        W89506  36.583  28.977   1.366
25948W        W89507  26.157   5.927   3.372
25949W        W89508  19.601  37.501  13.837
25950W        W89509  27.513  10.762  13.007
25951W        W89510  25.084  19.710  14.287
25952W        W89511  21.557  13.250   4.181
25953W        W89512  15.680  34.586  12.418
25954W        W89513  16.807  29.460  11.907
25955W        W89514  30.034  19.143  14.871
25956W        W89515  22.209  14.589  12.554
25957W        W89516  15.212  44.350  10.617
25958W        W89517   7.187  33.069  13.833
25959W        W89518  24.166  43.009   2.242
25960W        W89519  32.536  39.376   3.727
25961W        W89520  33.926  38.482   3.711
25962W        W89521  10.748   1.406  10.515
25963W        W89522  12.362  42.372  14.818
25964W        W89523   2.250  22.115  12.392
25965W        W89524  20.273  37.447  13.416
25966W        W89525  21.072  44.819   1.216
25967W        W89526  44.468  37.013  12.529
25968W        W89527  23.691  26.063   2.217
25969W        W89528  44.321   0.369  12.373
25970W        W89529  28.613  15.277   3.322
25971W        W89530   0.748  38.044  11.069
25972W        W89531  42.009  19.284   0.399
25973W        W89532  26.013  34.091   3.840
25974W        W89533   4.442  20.734  12.052
25975W        W89534   0.916  38.009  12.041
25976W        W89535  42.447  12.754   0.335
25977W        W89536  34.047  16.131   2.207
25978W        W89537  38.846  18.108   0.427
25979W        W89538  30.589  19.200  10.537
25980W        W89539  44.818   4.856  10.125
25981W        W89540  27.600  30.449  13.940
25982W        W89541  16.783  32.615  13.006
25983W        W89542  24.707  32.135  13.925
25984W        W89543   7.350  35.378   1.421
25985W        W89544  32.574  14.625   3.719
25986W        W89545  29.577  40.521  14.934
25987W        W89546  42.025  39.504  11.028
25988W        W89547  29.021  22.078   3.697
25989W        W89548  15.686  11.320   4.768
25990W        W89549  37.562  13.785   0.954
25991W        W89550  31.935  26.002  11.552
25992W        W89551  16.621   1.911  13.027
25993W        W89552  43.856   4.846   0.749
25994W        W89553   6.256  35.496   4.770
25995W        W89554  40.931  30.453  13.546
25996W        W89555  25.618  33.078   1.277
25997W        W89556  10.320  15.622   0.833
25998W        W89557  41.790  29.618   1.390
25999W        W89558   3.251  44.381   0.333
26000W        W89559   5.858  44.414  10.942
26001W        W89560  12.774  36.002  11.592
26002W        W89561  39.432  27.594  10.888
26003W        W89562  14.623  34.484  14.452
26004W        W89563  21.219  30.098   0.275
26005W        W89564   2.852  41.976  14.449
26006W        W89565   9.221   5.813  11.972
26007W        W89566  21.589  28.085  13.950
26008W        W89567  25.141  44.801  12.977
26009W        W89568  42.955  29.462  13.474
26010W        W89569  35.900  20.761  12.005
26011W        W89570  23.633  34.017   0.295
26012W        W89571  12.176   5.751  13.829
26013W        W89572   4.822  14.705   0.468
26014W        W89573  20.614  38.056   3.636
26015W        W89574  28.007   8.673   3.838
26016W        W89575  38.059  26.489  13.870
26017W        W89576   2.294  22.520  11.017
26018W        W89577   4.422  17.691   3.253
26019W        W89578  33.022   0.835   1.392
26020W        W89579  25.021  30.593  13.405
26021W        W89580  20.035   6.367   2.380
26022W        W89581  18.135  38.070  13.826
26023W        W89582   6.815  37.962  11.995
26024W        W89583  21.251  22.704   2.347
26025W        W89584  12.150   0.263  14.957
26026W        W89585  25.597  30.952   4.236
26027W        W89586  33.964   5.925  12.048
26028W        W89587   2.900  36.486   0.319
26029W        W89588  26.959  32.098   2.188
26030W        W89589  43.489  38.359   0.346
26031W        W89590  21.075  14.812  13.046
26032W        W89591  14.627  25.547  12.835
26033W        W89592  18.255   6.796   4.201
26034W        W89593  40.421   8.792   0.941
26035W        W89594  16.701  41.819  12.990
26036W        W89595  20.217  40.381   4.679
26037W        W89596  12.209   8.715  12.993
26038W        W89597  35.931   8.699  12.511
26039W        W89598  21.178  36.438   0.451
26040W        W89599  28.439  32.438  14.389
26041W        W89600  25.521  10.222   4.163
26042W        W89601  21.022  27.041  10.422
26043W        W89602  32.102   9.691   4.770
26044W        W89603  27.063  24.497   2.679
26045W        W89604  23.599  14.168   3.756
26046W        W89605   1.851  16.614   4.354
26047W        W89606  31.468  19.285  13.893
26048W        W89607  38.995  18.253  10.926
26049W        W89608  19.127  20.235   2.886
26050W        W89609   1.456  23.159   3.151
26051W        W89610  15.752  13.631  12.868
26052W        W89611  24.120   3.240   2.285
26053W        W89612  23.062  44.792  13.040
26054W        W89613  44.432  29.125   4.193
26055W        W89614  27.578  15.719  11.928
26056W        W89615   2.243  28.655   1.735
26057W        W89616  42.896  20.715   0.848
26058W        W89617  38.368   8.273   2.795
26059W        W89618  11.643  24.041  14.951
26060W        W89619  17.747   4.333  10.580
26061W        W89620  29.955  44.377   4.148
26062W        W89621  32.977  21.670  11.597
26063W        W89622   5.333   9.836   3.261
26064W        W89623   8.320  24.506   1.878
26065W        W89624  16.740  12.623   3.360
26066W        W89625   6.912  30.103   4.247
26067W        W89626  25.170  29.599  14.808
26068W        W89627  34.912  19.698   2.363
26069W        W89628  10.638  38.024   1.351
26070W        W89629  24.087  21.202   2.839
26071W        W89630  17.655  12.783  13.823
26072W        W89631   2.369  12.299  11.018
26073W        W89632  20.584  24.664   1.268
26074W        W89633  16.636  10.305  11.585
26075W        W89634  26.559  34.543  13.910
26076W        W89635  36.441  17.563   1.246
26077W        W89636   5.235   7.864   2.381
26078W        W89637  28.156   2.903  12.047
26079W        W89638  27.637  40.859   0.728
26080W        W89639  33.555  29.118   3.814
26081W        W89640  20.199  18.742   0.910
26082W        W89641   4.238  16.596   3.365
26083W        W89642  26.539  14.634  12.839
26084W        W89643  17.181   7.759   1.807
26085W        W89644  13.158  24.511  11.891
26086W        W89645  43.374  27.553  12.472
26087W        W89646  23.590  10.338  14.852
26088W        W89647  40.446  29.124   0.920
26089W        W89648   7.238   8.835   4.653
26090W        W89649  22.719  30.527  11.870
26091W        W89650   3.388  18.216  13.387
26092W        W89651  25.207  38.873  13.386
26093W        W89652  11.715   0.935  14.380
26094W        W89653  37.471  16.168  10.482
26095W        W89654  29.143  14.270   3.864
26096W        W89655   6.740  35.460  14.878
26097W        W89656  40.521  22.511   1.253
26098W        W89657  19.182  24.667  11.952
26099W        W89658  25.157   5.834   4.831
26100W        W89659  17.115  34.401  13.977
26101W        W89660  24.164  26.519   3.168
26102W        W89661  20.084  41.980  12.043
26103W        W89662  43.408  42.389   3.712
26104W        W89663  15.276  36.030   1.332
26105W        W89664  22.593   7.195  12.042
26106W        W89665  13.701  42.932  13.391
26107W        W89666  16.775  30.505  11.022
26108W        W89667  20.217   6.334   9.957
26109W        W89668  22.567  13.842  10.597
26110W        W89669  39.475  38.488  13.321
26111W        W89670  26.673  43.476  13.815
26112W        W89671  25.567  41.855  10.615
26113W        W89672  28.649  23.188   4.751
26114W        W89673  12.826  38.457  12.483
26115W        W89674  28.468  29.156  14.933
26116W        W89675  19.110  43.853   0.374
26117W        W89676   4.897  11.858   4.718
26118W        W89677  28.439  15.808  10.148
26119W        W89678  42.999  20.099  13.335
26120W        W89679   8.336  36.447   2.663
26121W        W89680  33.440   6.813   4.350
26122W        W89681  42.496  29.015  11.000
26123W        W89682  32.041  36.484   3.684
26124W        W89683  33.486  43.004  13.540
26125W        W89684  19.628  27.488   2.762
26126W        W89685  19.649  28.052  14.515
26127W        W89686  27.528  42.820   4.598
26128W        W89687  27.622  39.065  14.792
26129W        W89688   9.205  30.593  14.805
26130W        W89689  22.100  38.966  13.322
26131W        W89690   1.843   4.891   1.216
26132W        W89691  37.011   4.890   5.119
26133W        W89692  10.716  23.540  11.120
26134W        W89693  26.680  31.454   2.853
26135W        W89694  28.992  13.629  10.942
26136W        W89695  10.671  19.216   4.817
26137W        W89696   7.355   6.720  11.969
26138W        W89697  32.920  43.851   0.926
26139W        W89698  37.498   5.209   1.239
26140W        W89699  41.989  13.626   3.850
26141W        W89700   3.859  33.078   2.765
26142W        W89701  15.295  19.152  10.978
26143W        W89702  43.803  16.237   0.908
26144W        W89703  11.318  31.153  14.363
26145W        W89704  38.047   0.968   3.234
26146W        W89705  29.580  21.154  10.491
26147W        W89706  38.013  36.349  14.919
26148W        W89707  16.721  40.375  12.543
26149W        W89708  37.475  44.390   2.352
26150W        W89709  23.619  43.394  13.410
26151W        W89710  33.401   7.410   3.693
26152W        W89711  41.798  43.361  12.971
26153W        W89712  25.048  21.123   2.336
26154W        W89713  22.535   4.385  10.530
26155W        W89714  31.469  29.101   2.709
26156W        W89715   2.279  35.477  10.541
26157W        W89716  21.652  31.427  14.937
26158W        W89717  19.082   0.776   3.321
26159W        W89718  43.301  27.054   0.480
26160W        W89719   3.386  35.960   0.339
26161W        W89720   4.218  10.225  10.477
26162W        W89721  33.480  25.599   2.702
26163W        W89722   4.757  28.515   3.853
26164W        W89723  34.523  10.705  12.921
26165W        W89724   5.706  22.705  14.482
26166W        W89725  32.571  42.933   5.103
26167W        W89726  40.483   8.820   0.342
26168W        W89727   9.150  30.450  14.446
26169W        W89728   1.821  15.283  13.972
26170W        W89729  36.535  17.192  13.056
26171W        W89730  16.684  19.542   3.700
26172W        W89731  37.055  32.628  12.494
26173W        W89732   8.715  32.492   3.738
26174W        W89733  27.637  20.532  10.995
26175W        W89734  43.982  26.986  10.554
26176W        W89735   4.753  38.065  14.460
26177W        W89736  12.260  27.044   4.232
26178W        W89737  29.107  44.282   0.445
26179W        W89738  20.107  19.118   0.827
26180W        W89739  19.252  23.652  13.468
26181W        W89740  36.388   5.331   4.823
26182W        W89741  12.690  42.340  13.944
26183W        W89742  31.635   4.782   3.248
26184W        W89743   5.363  37.559  12.899
26185W        W89744  29.037  37.899   3.331
26186W        W89745  20.696  16.112  14.965
26187W        W89746  27.095  20.694   3.308
26188W        W89747  18.070  36.474  14.788
26189W        W89748  17.696  42.354  13.879
26190W        W89749  30.161   9.270   1.823
26191W        W89750  31.559  27.099  14.460
26192W        W89751  16.192   0.292   1.274
26193W        W89752  14.766  40.013   0.435
26194W        W89753  29.949  29.448  10.960
26195W        W89754  13.176   2.348   3.360
26196W        W89755  27.065  27.499  14.392
26197W        W89756  40.536  34.070  11.469
26198W        W89757   9.762  41.342   2.814
26199W        W89758  39.976  40.956   1.748
26200W        W89759  27.127   1.435  10.459
26201W        W89760   1.413  43.936  14.977
26202W        W89761   6.903  26.004   1.709
26203W        W89762  37.466  10.252  12.493
26204W        W89763   3.255  44.869   1.850
26205W        W89764  23.012  15.175  12.884
26206W        W89765  30.591  14.672   2.794
26207W        W89766   5.810  29.637   4.318
26208W        W89767  19.631   6.790   4.214
26209W        W89768   5.279   4.384   4.135
26210W        W89769  21.689  12.632  14.981
26211W        W89770  27.647  29.506  10.414
26212W        W89771  43.842  35.012   2.374
26213W        W89772  11.190  33.533   3.704
26214W        W89773   9.391  34.589   2.804
26215W        W89774   7.812   3.301   1.801
26216W        W89775   1.839  37.855  13.319
26217W        W89776  14.223   0.402  14.324
26218W        W89777  17.178   1.777  13.997
26219W        W89778  27.988  11.824   2.366
26220W        W89779  36.937  42.352  13.941
26221W        W89780  36.498  22.157  11.017
26222W        W89781  43.321  38.518   2.218
26223W        W89782  33.999  43.912   1.284
26224W        W89783  18.228  17.562  11.923
26225W        W89784   3.453   3.420  14.369
26226W        W89785   8.349  15.240  13.939
26227W        W89786   6.768   4.918  11.078
26228W        W89787  14.321  35.907   1.364
26229W        W89788   8.868  43.786   3.685
26230W        W89789   0.255  12.788  13.986
26231W        W89790  18.211   7.820   0.252
26232W        W89791  10.852  38.967  14.974
26233W        W89792  16.760  26.154   0.789
26234W        W89793  17.617  19.728  13.839
26235W        W89794  39.445  39.372   4.684
26236W        W89795  34.984  26.603  11.938
26237W        W89796  13.264  13.138  11.583
26238W        W89797  29.560  40.316   2.742
26239W        W89798  43.000   6.317  10.626
26240W        W89799  28.595  24.053   1.735
26241W        W89800  24.543  44.416  10.509
26242W        W89801  25.535  30.415   4.676
26243W        W89802  32.427  41.318  13.355
26244W        W89803  25.593   3.731   0.955
26245W        W89804  30.503  11.153   0.852
26246W        W89805  21.693  35.456  13.441
26247W        W89806  17.246  22.090   0.344
26248W        W89807  28.568  42.975  11.039
26249W        W89808  20.660  41.456   2.262
26250W        W89809  22.089  22.728   1.747
26251W        W89810  36.063   0.770   1.933
26252W        W89811   6.835  44.467   0.918
26253W        W89812   0.360  23.612  11.085
26254W        W89813   7.407  29.539  10.507
26255W        W89814  27.973   1.303  12.876
26256W        W89815  32.589  14.230  12.387
26257W        W89816  21.705  35.457  14.857
26258W        W89817   0.903  18.176  10.606
26259W        W89818  24.646   6.328  13.865
26260W        W89819   6.349  14.834   1.863
26261W        W89820  35.074  20.754  11.604
26262W        W89821  33.420  16.192  11.519
26263W        W89822  15.707  18.771  13.539
26264W        W89823   5.895  16.712   3.813
26265W        W89824  32.395  41.805  12.380
26266W        W89825  25.995  43.877  10.920
26267W        W89826  17.182  38.950  11.023
26268W        W89827  36.556  31.524  14.513
26269W        W89828  38.978  24.709  14.870
26270W        W89829  32.963  14.332   0.378
26271W        W89830  12.362  22.717   3.827
26272W        W89831  42.861  12.159   3.152
26273W        W89832  41.805  33.379  11.101
26274W        W89833  19.642  12.139   4.693
26275W        W89834   4.755  24.191   0.869
26276W        W89835  15.727  24.492  11.887
26277W        W89836  38.820  17.690  10.522
26278W        W89837   7.720  38.036  14.477
26279W        W89838  35.400  12.348  14.026
26280W        W89839  17.131  35.595  12.460
26281W        W89840  26.195  26.190   3.165
26282W        W89841  40.322  38.448  12.847
26283W        W89842  12.684  17.252  12.514
26284W        W89843  31.433   5.248  14.017
26285W        W89844  36.094   5.736  11.049
26286W        W89845   7.683  41.526   2.856
26287W        W89846  15.258   4.359   4.153
26288W        W89847   9.787  41.809   2.192
26289W        W89848  28.437  37.510   4.744
26290W        W89849  30.921  44.318   0.249
26291W        W89850  31.989  24.697  10.563
26292W        W89851   4.221  15.248   2.197
26293W        W89852  40.432  42.353   2.776
26294W        W89853  38.555  38.341  10.909
26295W        W89854  26.967  33.877   1.797
26296W        W89855  39.430  22.607   0.861
26297W        W89856  40.373  42.858  11.514
26298W        W89857  41.532  38.856  12.378
26299W        W89858   1.349  36.497   2.679
26300W        W89859  15.627  14.220  13.507
26301W        W89860   1.917  18.079  13.898
26302W        W89861   0.814  30.095  12.960
26303W        W89862  43.832  15.690  12.556
26304W        W89863  41.529  25.048   4.730
26305W        W89864  17.748  38.896   1.219
26306W        W89865  24.651  11.757   0.783
26307W        W89866  16.810  33.981  13.488
26308W        W89867   3.871  27.560   1.798
26309W        W89868  22.217  17.164  11.913
26310W        W89869  39.981  42.281   1.821
26311W        W89870   4.250   6.700   0.296
26312W        W89871   7.745  37.932  12.522
26313W        W89872  10.229  13.199   2.741
26314W        W89873  30.656  37.001  10.084
26315W        W89874  39.921   0.927   1.235
26316W        W89875  33.119   5.429  13.438
26317W        W89876  21.024  35.926   1.232
26318W        W89877   4.304  34.569   2.718
26319W        W89878  12.644   2.373  12.018
26320W        W89879  24.230  14.287  14.019
26321W        W89880  17.303  28.938  12.959
26322W        W89881  14.095  43.273  13.434
26323W        W89882  40.384  33.437   1.730
26324W        W89883  16.703  37.416   2.234
26325W        W89884  31.442  13.628  12.343
26326W        W89885  11.765   7.370  11.450
26327W        W89886  14.207   6.745  14.396
26328W        W89887  10.245  34.118   3.798
26329W        W89888  42.500  23.236   1.297
26330W        W89889  33.033  35.538  14.362
26331W        W89890  18.745  33.057  10.515
26332W        W89891  20.117  44.404   0.341
26333W        W89892  33.530   9.822   1.750
26334W        W89893  42.881  29.089  12.353
26335W        W89894   3.303  40.986   4.610
26336W        W89895   7.326  32.487   3.224
26337W        W89896  12.660  42.303  14.795
26338W        W89897  41.422  23.690   4.268
26339W        W89898  21.078  21.099  14.885
26340W        W89899   5.416  15.187  12.408
26341W        W89900  42.415  14.160  13.421
26342W        W89901   5.747  23.157   3.277
26343W        W89902  13.636  23.139  13.516
26344W        W89903  19.101  33.491  13.327
26345W        W89904   9.229  36.518   0.283
26346W        W89905  20.219  10.834   4.269
26347W        W89906  18.715  31.077  11.560
26348W        W89907  27.566  42.331  12.989
26349W        W89908  39.838  44.923   3.247
26350W        W89909  42.359  26.116   4.671
26351W        W89910  43.318  18.112   3.245
26352W        W89911  42.999  44.936  13.530
26353W        W89912   7.837  29.090   3.679
26354W        W89913   4.771   4.390  13.833
26355W        W89914  15.742  25.665   2.773
26356W        W89915   3.261  39.976   0.409
26357W        W89916   0.968  23.191   0.393
26358W        W89917  32.576  16.599  10.405
26359W        W89918  21.757  30.598   1.825
26360W        W89919  13.629  18.203   1.210
26361W        W89920  14.177   5.772   3.644
26362W        W89921  26.583   0.302  10.904
26363W        W89922  16.307  20.070   4.158
26364W        W89923  25.103  30.502  12.885
26365W        W89924  25.059   5.335   3.198
26366W        W89925  38.534  39.523  14.857
26367W        W89926   0.404  43.843   3.865
26368W        W89927  16.680   0.248   2.760
26369W        W89928  10.677  25.615  10.557
26370W        W89929  39.551   3.423   4.320
26371W        W89930   9.874  23.065  13.334
26372W        W89931  18.701  12.638   0.246
26373W        W89932   7.725  32.566   2.891
26374W        W89933  28.511   4.243  14.987
26375W        W89934  24.034  22.654   0.440
26376W        W89935   3.789  18.077   0.249
26377W        W89936   4.326  31.944   1.395
26378W        W89937   4.395  31.025  10.572
26379W        W89938  30.914   3.948  13.343
26380W        W89939  36.442   9.153   0.382
26381W        W89940   9.823  44.456   3.678
26382W        W89941  22.534  18.164   1.435
26383W        W89942  35.513  27.192   2.737
26384W        W89943  44.974   0.478  12.078
26385W        W89944  41.927  35.099   3.350
26386W        W89945  39.989   6.228   3.839
26387W        W89946   9.876  21.117  10.598
26388W        W89947  42.296   5.803   3.809
26389W        W89948  18.754  38.401   4.172
26390W        W89949  21.229  21.669  14.847
26391W        W89950  11.781  10.824   3.655
26392W        W89951  34.099   3.302   3.733
26393W        W89952  38.070   4.749  12.520
26394W        W89953   8.196  32.017  13.321
26395W        W89954  26.553  14.659  14.992
26396W        W89955  44.347  37.856   4.125
26397W        W89956   7.174   4.403   0.465
26398W        W89957  28.481   4.840   1.221
26399W        W89958  25.065  21.655  10.120
26400W        W89959   0.312  16.205   1.751
26401W        W89960  35.488  27.564   2.836
26402W        W89961  42.451  37.365   3.632
26403W        W89962  35.558  41.365   1.836
26404W        W89963  23.710  24.511  14.466
26405W        W89964   6.753  33.047   3.728
26406W        W89965  35.564  15.217   2.804
26407W        W89966  22.118   6.346   2.254
26408W        W89967  30.638  34.042  12.896
26409W        W89968  33.926  34.923   0.318
26410W        W89969  24.027  29.485   2.668
26411W        W89970  18.575  14.301  11.515
26412W        W89971  36.544  44.418   3.716
26413W        W89972  39.964  36.488   1.835
26414W        W89973   2.922  28.008   3.271
26415W        W89974  40.394   1.469   0.914
26416W        W89975  25.089  14.798   0.290
26417W        W89976  15.144  11.669   4.698
26418W        W89977   5.917  38.008  14.279
26419W        W89978  15.136  12.850  14.938
26420W        W89979  43.862  30.025  11.469
26421W        W89980  24.192  25.033   5.177
26422W        W89981  38.985   8.181   1.709
26423W        W89982  11.684   1.341   4.197
26424W        W89983   1.255  37.907   2.889
26425W        W89984  36.549  11.274   2.286
26426W        W89985  11.236  26.954   1.835
26427W        W89986  32.462  39.378  14.362
26428W        W89987  42.850  23.135  13.831
26429W        W89988   0.399  26.067   1.837
26430W        W89989  27.097   5.849  11.987
26431W        W89990  16.792  10.167  14.887
26432W        W89991  15.792   4.265   1.850
26433W        W89992  43.797   9.255  10.634
26434W        W89993   9.257   6.889   4.647
26435W        W89994  32.526   3.391   0.383
26436W        W89995  30.626  36.005   0.842
26437W        W89996  14.616  30.071  12.969
26438W        W89997  23.574  31.440   3.183
26439W        W89998   1.920  28.482  14.371
26440W        W89999  11.813  39.883  11.456
26441W        W90000  23.045  36.095  10.587
26442W        W90001  34.932   1.464  14.997
26443W        W90002  14.283  33.957  10.008
26444W        W90003  25.537  42.010  14.492
26445W        W90004   5.258  38.957   3.679
26446W        W90005   6.307  31.474   4.784
26447W        W90006  16.135  22.069  12.018
26448W        W90007   0.928   3.320   5.171
26449W        W90008  43.838  32.981  12.388
26450W        W90009  39.446  11.838   4.805
26451W        W90010  14.120  26.973   2.327
26452W        W90011  44.353  20.661  14.410
26453W        W90012   1.400  40.954  14.454
26454W        W90013  10.276  17.278   2.336
26455W        W90014  12.667  39.905   2.715
26456W        W90015  27.066   3.773  12.060
26457W        W90016   7.318  17.717  13.924
26458W        W90017   2.470  13.678  14.784
26459W        W90018  15.245   0.285  11.937
26460W        W90019  29.488  20.190   4.329
26461W        W90020  41.913  30.508   2.254
26462W        W90021  21.601   2.277  13.330
26463W        W90022  42.489  11.206  13.536
26464W        W90023  29.981  17.652  13.361
26465W        W90024  18.107  26.561  12.932
26466W        W90025  15.215   5.855   3.656
26467W        W90026  14.118  10.258   5.163
26468W        W90027  27.501  11.359   4.152
26469W        W90028  42.461  42.286   4.201
26470W        W90029  12.794  40.917   1.326
26471W        W90030  24.184  18.280   2.380
26472W        W90031  36.461  38.326  14.427
26473W        W90032  30.415   3.404  11.946
26474W        W90033  29.618   5.882   1.252
26475W        W90034  14.159   6.754   2.711
26476W        W90035  23.529  43.877  12.834
26477W        W90036  38.018  29.098   0.333
26478W        W90037  39.828  42.958   4.599
26479W        W90038   0.314   2.731  14.336
26480W        W90039  33.600  37.920  10.500
26481W        W90040  42.834  36.964   0.863
26482W        W90041   0.822  37.448  10.623
26483W        W90042  20.034   6.263  12.976
26484W        W90043  25.671  33.583   3.843
26485W        W90044   8.884  17.589   0.359
26486W        W90045  24.974  21.201  13.533
26487W        W90046   2.909  28.113  11.597
26488W        W90047  16.177   6.244   5.133
26489W        W90048  35.879  19.749   0.282
26490W        W90049  17.265  17.787   2.725
26491W        W90050  41.935  21.683   2.223
26492W        W90051  43.984  14.094  10.907
26493W        W90052  32.551  23.160  13.989
26494W        W90053  44.503   4.413  12.571
26495W        W90054  12.633  19.043  13.359
26496W        W90055   9.692  13.667  11.508
26497W        W90056  39.529  32.090   3.659
26498W        W90057   3.296  23.724  11.590
26499W        W90058   8.236   6.297  12.468
26500W        W90059  21.572  33.478  10.905
26501W        W90060  30.014  26.144   0.468
26502W        W90061   2.323   1.382   1.930
26503W        W90062  11.231  21.109   4.316
26504W        W90063  40.989  26.519   1.917
26505W        W90064   4.811  34.919  11.888
26506W        W90065  38.370  13.708   4.170
26507W        W90066  33.400  31.422  10.513
26508W        W90067   2.888  13.759   1.376
26509W        W90068  25.089   1.825  14.982
26510W        W90069  15.809  40.409  14.937
26511W        W90070   9.674  28.648  11.069
26512W        W90071  14.773  20.273   3.631
26513W        W90072  18.108  21.147   4.323
26514W        W90073  30.521  11.751   1.392
26515W        W90074  20.196   8.292   2.859
26516W        W90075  37.429  42.922  11.111
26517W        W90076  36.458  19.143   3.802
26518W        W90077  37.981  34.545   2.213
26519W        W90078  35.879  41.342  14.402
26520W        W90079  44.786  39.367   4.341
26521W        W90080   7.234  10.157  12.952
26522W        W90081  38.515  16.290   4.264
26523W        W90082  27.172  17.581   2.896
26524W        W90083   2.255  28.629   4.167
26525W        W90084  11.307  26.083  14.295
26526W        W90085   4.309  32.571   4.234
26527W        W90086   7.172  30.514   3.298
26528W        W90087   5.909  40.008  11.075
26529W        W90088  18.684  19.596  14.799
26530W        W90089  11.307  14.686  13.412
26531W        W90090  44.330  17.065  12.948
26532W        W90091  31.617  23.065   1.335
26533W        W90092   4.940  12.706   1.295
26534W        W90093  27.540  28.538  14.981
26535W        W90094  11.186   6.794   1.326
26536W        W90095   3.767  13.194  11.432
26537W        W90096  32.085  20.695   0.791
26538W        W90097  31.518   6.840  11.530
26539W        W90098   8.196  35.564   9.507
26540W        W90099  33.956   0.400   3.711
26541W        W90100  14.141  33.562  14.007
26542W        W90101   8.282   6.760   4.296
26543W        W90102  32.132  36.844   1.893
26544W        W90103  18.736   1.802   3.299
26545W        W90104  18.238  29.587  12.541
26546W        W90105  33.915  10.247  14.001
26547W        W90106  13.638  43.279   4.795
26548W        W90107   1.773  16.095   4.257
26549W        W90108  31.964  25.141   2.319
26550W        W90109  17.218  21.249   0.850
26551W        W90110  25.490  31.497  14.801
26552W        W90111  31.467   3.283  12.963
26553W        W90112  26.644  36.847   3.782
26554W        W90113  14.744  13.698   2.853
26555W        W90114  29.568  19.618   1.253
26556W        W90115  36.371  44.813   1.382
26557W        W90116  32.983   6.703   2.897
26558W        W90117  27.985  10.310  12.086
26559W        W90118  16.742  11.724   3.355
26560W        W90119   7.709  14.190  12.055
26561W        W90120  25.113  35.452  14.009
26562W        W90121  19.720  44.930  14.475
26563W        W90122  42.317  23.552  10.540
26564W        W90123  41.420  26.559  12.980
26565W        W90124  35.576  11.758   9.943
26566W        W90125  12.125   6.251   1.857
26567W        W90126  31.558  12.857  12.003
26568W        W90127  13.194  15.322  10.103
26569W        W90128  30.136  37.492   0.800
26570W        W90129  43.271  27.681  14.860
26571W        W90130  40.991  39.373   4.251
26572W        W90131  11.349  33.901   3.865
26573W        W90132  15.729  40.892   1.259
26574W        W90133  25.471  16.745  12.017
26575W        W90134  12.173  36.487   0.738
26576W        W90135  20.583  24.206   3.633
26577W        W90136  39.399  15.149  10.453
26578W        W90137  41.899  14.779   1.880
26579W        W90138   2.439  15.655  13.893
26580W        W90139  39.465  19.273  13.851
26581W        W90140   9.250  25.675   2.347
26582W        W90141   4.334  31.531   3.637
26583W        W90142  40.958   1.422   0.290
26584W        W90143  14.618  33.921   9.923
26585W        W90144   6.809  14.233   4.334
26586W        W90145  34.077   2.437  13.463
26587W        W90146   0.315  29.550  14.880
26588W        W90147  11.772  39.486  14.796
26589W        W90148  13.155  31.037  13.430
26590W        W90149  30.464   1.300  11.492
26591W        W90150  28.093   5.350   2.842
26592W        W90151   3.899  19.058   1.325
26593W        W90152  32.896   2.368  13.498
26594W        W90153  32.041   4.943   0.243
26595W        W90154  32.990   7.802   4.221
26596W        W90155  20.148  23.556   1.328
26597W        W90156  39.383  27.983  11.584
26598W        W90157  10.220  22.076  12.479
26599W        W90158   3.268   1.882   1.315
26600W        W90159   2.783   8.764  11.480
26601W        W90160  10.363   2.913  13.370
26602W        W90161   7.397   1.855   1.710
26603W        W90162   2.439  44.479   4.742
26604W        W90163  12.238  40.387  14.415
26605W        W90164  19.774  28.462   2.696
26606W        W90165  13.276   7.726  13.423
26607W        W90166  30.995  26.069   1.732
26608W        W90167  22.086   8.364   3.375
26609W        W90168  28.965  25.053  14.363
26610W        W90169  17.187  38.973  12.827
26611W        W90170  31.966  11.843   3.693
26612W        W90171   5.219  36.909   1.221
26613W        W90172  11.840  14.757   4.230
26614W        W90173  17.175  28.635   3.720
26615W        W90174  19.125   8.355  13.974
26616W        W90175  10.685   6.336  13.471
26617W        W90176  35.921  30.967   3.330
26618W        W90177   7.376   3.221  10.982
26619W        W90178  18.054  28.180   3.375
26620W        W90179  35.519  31.980   2.828
26621W        W90180  42.416  35.539  13.325
26622W        W90181  14.262  15.783  12.383
26623W        W90182  38.865  16.260   0.791
26624W        W90183  18.789  35.859   0.366
26625W        W90184   3.270   8.181  11.454
26626W        W90185  26.617  36.079   1.426
26627W        W90186  39.429  34.561  14.848
26628W        W90187  36.984  34.868   2.368
26629W        W90188  10.194  37.989  13.961
26630W        W90189  23.236  38.072  12.422
26631W        W90190   3.396   1.357  14.891
26632W        W90191   5.908  41.940   0.769
26633W        W90192   8.677  28.557   3.667
26634W        W90193  26.988  36.458  11.050
26635W        W90194  18.755  16.103  12.876
26636W        W90195  23.178  22.596  13.840
26637W        W90196   6.744  10.266   2.681
26638W        W90197  16.662  33.610   4.718
26639W        W90198  42.861  28.019   2.849
26640W        W90199   2.753   6.813  14.837
26641W        W90200  36.087  12.680  13.502
26642W        W90201  34.550  28.649  13.895
26643W        W90202  26.535  29.162   4.651
26644W        W90203  14.240   0.756   0.423
26645W        W90204  38.508  22.545  13.440
26646W        W90205   3.236  23.597   0.457
26647W        W90206  36.560  16.720   0.459
26648W        W90207  42.020  15.599   1.451
26649W        W90208  43.279   8.668   2.802
26650W        W90209   7.170  13.111  12.564
26651W        W90210  30.629   9.659  10.623
26652W        W90211  31.476  38.071   1.328
26653W        W90212  10.836  33.559   5.167
26654W        W90213  20.170  27.682  13.975
26655W        W90214  31.964  32.617  10.628
26656W        W90215  19.721  25.620  12.397
26657W        W90216  33.994  23.564   1.854
26658W        W90217  13.631  23.575   3.302
26659W        W90218  27.192  23.065   3.201
26660W        W90219  40.534  18.127   3.178
26661W        W90220  32.450   7.361   3.151
26662W        W90221  41.807  13.822  12.430
26663W        W90222  28.579  28.002   0.325
26664W        W90223  21.595  35.358  14.477
26665W        W90224  32.991  24.992  13.991
26666W        W90225   6.279   2.437   1.882
26667W        W90226  17.190  28.156   1.771
26668W        W90227  33.965  24.977  12.967
26669W        W90228   3.878  20.735   3.367
26670W        W90229  33.973  19.665   2.721
26671W        W90230  36.019  13.175  13.033
26672W        W90231   4.281   0.805  12.521
26673W        W90232  35.414  42.475  12.050
26674W        W90233  31.025  27.568   2.239
26675W        W90234  41.369  12.818  10.616
26676W        W90235  14.668   3.803  11.565
26677W        W90236   4.240  31.406  14.303
26678W        W90237  16.083   0.408   5.104
26679W        W90238  27.959   0.799  10.039
26680W        W90239  35.902  25.660  11.424
26681W        W90240   5.409  30.439   4.179
26682W        W90241  44.432   1.794  14.873
26683W        W90242   6.854  29.124  14.984
26684W        W90243   4.414  44.804  11.037
26685W        W90244   3.756  28.670  14.022
26686W        W90245  28.584  12.222   0.933
26687W        W90246  18.091  13.135  14.363
26688W        W90247  12.838  36.024  12.407
26689W        W90248   1.419  42.943  14.013
26690W        W90249   2.413  44.444   5.156
26691W        W90250  42.926  29.927  11.041
26692W        W90251  17.692   5.900  11.923
26693W        W90252  20.042   6.725  11.989
26694W        W90253  43.861  41.914  12.951
26695W        W90254   0.464  31.119  14.326
26696W        W90255   7.253  18.147   1.254
26697W        W90256   1.401  11.760  14.860
26698W        W90257  13.825  42.787  10.569
26699W        W90258  19.727  19.568   0.849
26700W        W90259  25.087  14.796  12.506
26701W        W90260  22.238  10.318   9.644
26702W        W90261  20.096  11.744   3.760
26703W        W90262   8.323   2.339   4.683
26704W        W90263   9.869  20.745  13.798
26705W        W90264   7.891   2.381   0.874
26706W        W90265  27.551  20.547   3.326
26707W        W90266  26.475  41.964   4.339
26708W        W90267  11.293  19.145   1.841
26709W        W90268  38.498   4.374  10.936
26710W        W90269  31.945  34.428   2.264
26711W        W90270  38.460  40.383   4.644
26712W        W90271  35.970  33.433   4.217
26713W        W90272   6.426  32.891   0.748
26714W        W90273  31.463  30.507  12.353
26715W        W90274  23.184  19.695  11.597
26716W        W90275  41.911  43.906  11.006
26717W        W90276  37.859   5.364   1.861
26718W        W90277  33.484   6.745  14.968
26719W        W90278   3.379  17.196   4.162
26720W        W90279  34.434  41.355   1.797
26721W        W90280  36.999  26.009   1.291
26722W        W90281  28.438  42.911   4.786
26723W        W90282  10.663   8.774   3.311
26724W        W90283  37.904  40.984  12.923
26725W        W90284  15.233  27.040  10.582
26726W        W90285  21.539  41.831  12.541
26727W        W90286  16.605  34.420  11.538
26728W        W90287  13.834   8.240  12.026
26729W        W90288  30.581  23.500   2.873
26730W        W90289  30.600   1.296   0.918
26731W        W90290  10.229  34.517  14.331
26732W        W90291  39.365   9.753   0.811
26733W        W90292   7.836  15.587   3.663
26734W        W90293  36.488   5.696   3.316
26735W        W90294  11.626  25.004   4.204
26736W        W90295  25.165   0.806  11.032
26737W        W90296  34.941  40.010   1.329
26738W        W90297  22.681   7.860  14.949
26739W        W90298  31.468  37.407  13.315
26740W        W90299  22.134  20.528   1.389
26741W        W90300   9.354  28.944   2.887
26742W        W90301   4.722  26.087   0.820
26743W        W90302  37.365  26.014   3.712
26744W        W90303   1.953   7.764   0.931
26745W        W90304   1.453   2.384  11.533
26746W        W90305  24.595  27.095  13.849
26747W        W90306   4.755  20.252  11.535
26748W        W90307  42.796  42.350  13.307
26749W        W90308   4.448  44.307   0.929
26750W        W90309  19.583  33.453  14.009
26751W        W90310  23.184  34.989  13.410
26752W        W90311  22.089  31.954  11.951
26753W        W90312  14.236   6.891   4.612
26754W        W90313  38.397  11.743  11.067
26755W        W90314   9.216   4.855   1.843
26756W        W90315  29.610  22.595   0.771
26757W        W90316   0.931  18.182   2.680
26758W        W90317  44.934  30.458   0.478
26759W        W90318  36.539  22.041   2.271
26760W        W90319  16.112  41.829   0.932
26761W        W90320  27.669  35.061  12.990
26762W        W90321  26.151   9.650   0.901
26763W        W90322  18.588  44.454  14.889
26764W        W90323  17.063  35.584  14.483
26765W        W90324  40.881   6.778  12.937
26766W        W90325   3.791   3.824   2.185
26767W        W90326   8.334  25.666  11.423
26768W        W90327  19.673  15.718   5.164
26769W        W90328  16.281  20.123  14.494
26770W        W90329  22.610  32.446   1.764
26771W        W90330   5.920  20.100  14.421
26772W        W90331  38.541  14.698  14.402
26773W        W90332  19.778  33.989  12.927
26774W        W90333  30.505  13.340  10.554
26775W        W90334  33.551   0.294  13.494
26776W        W90335  37.476   0.436  10.575
26777W        W90336  11.754  29.504  12.908
26778W        W90337   5.418  38.021  13.395
26779W        W90338  40.364  21.059   1.703
26780W        W90339  24.133  29.167  10.516
26781W        W90340   2.870  13.705   4.177
26782W        W90341  12.641  10.331   4.778
26783W        W90342  44.440  31.510   0.794
26784W        W90343  16.622  25.499   2.236
26785W        W90344  30.551   5.285   3.198
26786W        W90345  42.891  18.730   3.848
26787W        W90346  37.577  31.482   1.859
26788W        W90347  21.695  23.700   2.378
26789W        W90348  28.570   6.279   4.280
26790W        W90349  32.492  33.543   0.362
26791W        W90350   4.707  16.285  14.351
26792W        W90351  44.402  35.034  12.037
26793W        W90352   4.254  40.543  12.924
26794W        W90353  31.028  32.101   2.748
26795W        W90354  34.408   1.936   0.404
26796W        W90355  10.830  37.080  13.399
26797W        W90356  20.678  11.369   1.739
26798W        W90357  42.398   2.241  12.551
26799W        W90358  24.690  43.013   3.794
26800W        W90359  25.551  29.524   1.745
26801W        W90360  14.820  25.694  11.546
26802W        W90361  36.522   8.677  12.016
26803W        W90362  16.661  10.163   1.747
26804W        W90363  23.501  35.540  14.334
26805W        W90364  16.241   1.250   0.760
26806W        W90365  16.790  10.235  13.861
26807W        W90366  42.345  11.137   4.182
26808W        W90367  39.039  26.144   1.379
26809W        W90368  26.516  19.155   3.702
26810W        W90369  38.853  22.016   1.902
26811W        W90370  22.605  14.319   3.684
26812W        W90371   6.732   4.443   4.298
26813W        W90372  23.218  17.678   3.200
26814W        W90373  26.093  15.646  11.927
26815W        W90374  32.454  24.693  12.450
26816W        W90375  34.945  32.496  12.559
26817W        W90376  28.481   9.710   0.876
26818W        W90377  10.320  30.549   0.797
26819W        W90378  42.850  28.463  11.884
26820W        W90379  15.680   9.328   0.434
26821W        W90380   2.754   6.741  12.826
26822W        W90381  31.444  41.032   1.903
26823W        W90382   6.831  12.327  10.431
26824W        W90383  17.673  19.117  12.456
26825W        W90384  35.466  22.241   1.265
26826W        W90385  14.298  32.029   3.851
26827W        W90386  38.441  30.525  10.957
26828W        W90387   6.864  33.127  12.013
26829W        W90388  22.727   9.218   1.350
26830W        W90389   2.325  37.894  13.993
26831W        W90390  12.815  29.475   0.841
26832W        W90391  39.544  28.141   0.901
26833W        W90392  29.632  31.561  12.369
26834W        W90393   7.715  30.138  10.482
26835W        W90394  27.528  24.621  12.389
26836W        W90395  14.143  24.049   1.913
26837W        W90396  13.243  14.278  14.407
26838W        W90397   3.376  16.175   4.767
26839W        W90398  37.948  29.515  14.949
26840W        W90399  36.351   6.753  14.283
26841W        W90400  20.144  23.623   2.202
26842W        W90401  39.867   1.968  11.902
26843W        W90402  25.648  21.535  14.772
26844W        W90403  24.719  42.376   4.126
26845W        W90404  30.579  44.369  11.548
26846W        W90405  38.430  14.685   1.728
26847W        W90406  13.605  36.423  13.330
26848W        W90407  17.564  25.535  13.434
26849W        W90408  39.964  10.352   4.838
26850W        W90409   9.347  43.295  14.799
26851W        W90410  25.003  10.638  13.462
26852W        W90411  14.150   8.739  13.366
26853W        W90412  15.139  16.295   1.299
26854W        W90413  10.662  36.002   9.919
26855W        W90414  31.506   5.409  12.025
26856W        W90415   7.828  31.455   4.162
26857W        W90416  42.284  43.326  13.907
26858W        W90417   6.914   2.959   4.756
26859W        W90418  40.405  10.350  12.910
26860W        W90419  17.168  10.291  13.509
26861W        W90420  30.931  31.595  12.981
26862W        W90421  39.876   0.294   1.729
26863W        W90422  29.999  34.499   3.342
26864W        W90423  39.847  16.717  13.961
26865W        W90424  23.657  31.547   0.386
26866W        W90425  19.702   3.889   1.411
26867W        W90426  17.267  15.614  10.964
26868W        W90427  29.097   0.289  12.555
26869W        W90428   9.343  43.273   2.739
26870W        W90429   7.392  16.261  13.504
26871W        W90430  25.983   5.229   4.763
26872W        W90431   5.269  38.004   3.344
26873W        W90432   1.383  25.004  11.606
26874W        W90433   8.774   1.443   1.773
26875W        W90434  13.653  36.589  13.974
26876W        W90435   3.857  16.154  12.981
26877W        W90436   7.744  31.142   4.205
26878W        W90437  20.544  19.731   1.725
26879W        W90438  34.415   8.712  14.384
26880W        W90439   5.841  13.162  13.044
26881W        W90440  11.677  41.508  14.407
26882W        W90441  18.157  13.716   3.697
26883W        W90442  10.636  32.533  14.381
26884W        W90443  29.958  18.241  14.346
26885W        W90444  43.811  14.615   4.291
26886W        W90445   0.835  39.032   2.737
26887W        W90446   4.428  14.793   2.412
26888W        W90447  44.001  28.616   4.177
26889W        W90448  10.246  43.516  11.417
26890W        W90449  36.933  26.169   2.777
26891W        W90450  10.344  43.368   2.675
26892W        W90451  29.637  13.669   0.759
26893W        W90452  11.669  15.588  14.009
26894W        W90453  20.243  18.154   1.905
26895W        W90454   0.767  10.179   3.709
26896W        W90455  21.069  44.872   1.849
26897W        W90456  30.155  24.187   3.764
26898W        W90457   3.433   6.744   3.732
26899W        W90458  26.186  39.858   0.337
26900W        W90459   7.207  11.788   0.270
26901W        W90460   3.711  30.933   1.799
26902W        W90461  13.288  33.070  11.447
26903W        W90462  18.279   3.740   4.768
26904W        W90463  16.149  35.564   3.636
26905W        W90464  28.139  32.953   4.205
26906W        W90465  19.082  44.368   3.228
26907W        W90466  10.654  18.680  13.531
26908W        W90467  19.667   9.708  13.849
26909W        W90468   1.436  11.786   1.355
26910W        W90469  30.997  13.248   2.775
26911W        W90470   9.840  38.992   2.399
26912W        W90471  36.032  16.712   1.272
26913W        W90472  28.971   4.723   1.821
26914W        W90473  40.901  21.538  13.354
26915W        W90474   0.814  32.097   3.643
26916W        W90475  33.507  44.858   2.216
26917W        W90476  43.393   6.895  14.859
26918W        W90477  20.626   9.222  11.462
26919W        W90478  35.985  34.578  15.000
26920W        W90479  14.221  43.967   0.943
26921W        W90480   8.230  23.014  14.837
26922W        W90481  24.059  11.836   0.340
26923W        W90482   2.451  18.159   0.913
26924W        W90483  10.287  15.650  13.807
26925W        W90484  43.948  20.150   3.230
26926W        W90485  25.521  40.541  13.035
26927W        W90486  23.559  12.638   3.385
26928W        W90487  11.858  34.102  12.096
26929W        W90488   4.733   2.360   1.348
26930W        W90489  18.155  25.525   0.451
26931W        W90490  21.121  35.092   3.834
26932W        W90491  25.115  37.860   1.446
26933W        W90492  24.572  41.887   4.765
26934W        W90493  26.073  29.048   2.854
26935W        W90494  34.879  24.683  10.483
26936W        W90495  22.609   9.848   3.688
26937W        W90496  28.949  32.965  12.555
26938W        W90497  13.270  33.562   1.253
26939W        W90498  30.651  14.796  11.063
26940W        W90499  27.053  32.885  13.420
26941W        W90500  23.729   9.782   5.110
26942W        W90501  26.002  42.884  14.853
26943W        W90502  15.238  39.894   4.206
26944W        W90503  13.168  13.742   3.186
26945W        W90504   8.245   7.748   4.274
26946W        W90505  33.545  44.401   3.772
26947W        W90506   3.761   9.741   4.224
26948W        W90507   4.849  29.577  14.907
26949W        W90508  44.288  40.405  13.380
26950W        W90509  25.118  44.989   0.386
26951W        W90510  20.064  28.530   5.111
26952W        W90511  24.692   2.737  13.382
26953W        W90512  41.821  18.772   4.776
26954W        W90513  16.101  20.262   0.453
26955W        W90514  13.714  33.962   2.254
26956W        W90515  21.072  24.223   4.265
26957W        W90516  21.575  15.111   4.208
26958W        W90517  17.069  29.430  11.085
26959W        W90518  15.737  33.045  11.609
26960W        W90519  10.233   0.476  10.059
26961W        W90520   8.352  42.839  12.828
26962W        W90521  29.505  24.045  12.899
26963W        W90522  32.481  17.763  14.285
26964W        W90523   7.170  36.907  13.428
26965W        W90524  37.929  31.970   1.699
26966W        W90525  11.295  35.944   2.359
26967W        W90526   0.285  10.381   4.801
26968W        W90527  24.622  12.779   2.265
26969W        W90528  20.665  44.803   1.778
26970W        W90529   9.810   1.305  14.994
26971W        W90530  34.410   1.872  11.437
26972W        W90531  24.197  32.051  10.074
26973W        W90532   8.820  26.500   3.367
26974W        W90533  20.082  14.312  10.557
26975W        W90534  37.033  38.070   0.867
26976W        W90535   2.917  35.860   1.730
26977W        W90536   0.463  13.266  14.352
26978W        W90537  20.119  32.036  11.395
26979W        W90538  29.099  19.622   4.803
26980W        W90539  22.180  22.723   3.171
26981W        W90540  27.448  22.746   0.462
26982W        W90541   0.423  28.151  11.574
26983W        W90542  28.653  20.073   4.140
26984W        W90543  34.085  26.620   0.256
26985W        W90544   8.253   6.332  13.331
26986W        W90545  15.108   8.316  12.970
26987W        W90546  34.509  44.448   0.397
26988W        W90547  38.453   4.803  11.983
26989W        W90548  11.705  20.262   1.257
26990W        W90549  14.603  13.659   3.205
26991W        W90550   4.783  42.974  11.904
26992W        W90551  42.281  43.456  11.521
26993W        W90552  30.128  37.402  10.149
26994W        W90553  37.409  36.550   3.679
26995W        W90554  16.802  11.277  12.369
26996W        W90555  18.645  17.794   0.425
26997W        W90556  19.267  15.769   4.254
26998W        W90557  26.664  11.715   4.273
26999W        W90558  40.855  42.886   2.198
27000W        W90559  10.370  30.152   2.206
27001W        W90560  20.058  19.735  14.473
27002W        W90561  41.409  34.082  12.905
27003W        W90562   5.709   2.720   0.827
27004W        W90563  36.044  27.689   2.354
27005W        W90564  13.704  33.573   1.923
27006W        W90565  33.488  12.189   4.185
27007W        W90566   2.332   5.839  10.984
27008W        W90567  35.482  28.562  10.918
27009W        W90568   6.864  20.634   3.306
27010W        W90569  28.537  23.689  11.997
27011W        W90570  39.989  13.698  12.964
27012W        W90571  26.619  14.205   3.386
27013W        W90572  42.481  41.379   2.808
27014W        W90573  13.831  24.973  12.386
27015W        W90574  34.076  26.119   4.732
27016W        W90575   6.813  43.294   1.345
27017W        W90576  40.867  39.919   3.271
27018W        W90577  37.006  12.118  10.516
27019W        W90578  35.107  14.279   2.206
27020W        W90579  11.357  21.151   2.416
27021W        W90580   4.336  37.394   1.730
27022W        W90581  44.326  41.998   1.289
27023W        W90582  21.048   0.407   4.172
27024W        W90583   4.306   5.291   0.742
27025W        W90584   7.851  25.978   2.774
27026W        W90585  24.534   3.454   1.217
27027W        W90586  30.453  32.094  13.966
27028W        W90587  33.893   2.886   0.916
27029W        W90588   3.715  26.047   0.299
27030W        W90589   3.367  25.091  12.948
27031W        W90590  35.084  29.057  13.903
27032W        W90591   4.350  28.032   2.820
27033W        W90592  30.054   7.872  13.335
27034W        W90593   0.979  32.514  14.412
27035W        W90594  22.543  36.038  12.990
27036W        W90595  13.786  20.130  10.465
27037W        W90596   5.734  32.983  12.849
27038W        W90597  15.810   7.376   0.305
27039W        W90598  21.637  41.903   4.742
27040W        W90599   8.852  42.938  14.928
27041W        W90600  31.106  18.252   1.892
27042W        W90601  39.540  26.555   2.761
27043W        W90602  11.317   7.277  10.031
27044W        W90603  10.151  35.544  14.309
27045W        W90604  38.416  38.066  13.372
27046W        W90605  16.142  30.994   4.826
27047W        W90606  23.543   8.275   3.214
27048W        W90607  22.740  26.976  10.611
27049W        W90608  40.845  33.615  14.460
27050W        W90609   0.804  34.988  13.869
27051W        W90610  29.612   4.298  13.013
27052W        W90611  10.152  27.667   4.156
27053W        W90612  18.216  29.083   3.694
27054W        W90613  38.360   4.897   3.189
27055W        W90614  35.387  14.188   4.235
27056W        W90615  28.991  30.081  10.501
27057W        W90616  26.616  13.786   2.239
27058W        W90617  37.489  23.497  11.423
27059W        W90618  19.567   3.235  10.576
27060W        W90619  34.948   5.317   3.291
27061W        W90620  28.178  14.213  14.931
27062W        W90621  20.569  25.052   2.766
27063W        W90622  19.548  25.481  11.889
27064W        W90623   6.195  13.715   2.404
27065W        W90624  41.510  29.599   1.843
27066W        W90625  12.176  11.176   1.734
27067W        W90626  29.976  12.704  10.498
27068W        W90627  36.376  27.455  10.560
27069W        W90628  16.247  35.007  14.889
27070W        W90629  42.496  40.336  13.443
27071W        W90630  21.235  10.838  10.951
27072W        W90631  17.263   9.867  10.500
27073W        W90632  38.044  28.580  11.127
27074W        W90633  14.235  10.822   4.766
27075W        W90634  19.705  20.725  12.545
27076W        W90635  41.985   7.702  13.019
27077W        W90636  20.171  11.253  10.575
27078W        W90637  33.496  36.891  10.560
27079W        W90638   5.774  14.149  14.924
27080W        W90639  24.086  16.143   4.714
27081W        W90640   9.232  31.605   3.274
27082W        W90641   7.348  34.938   3.758
27083W        W90642   7.276  29.478  14.014
27084W        W90643  11.367  11.319  10.522
27085W        W90644   0.748  15.179   2.733
27086W        W90645  42.987  18.135   2.734
27087W        W90646   5.280  20.043  12.433
27088W        W90647  25.083  34.501   4.323
27089W        W90648   3.891  24.176  12.076
27090W        W90649  44.851  32.044  14.451
27091W        W90650  40.540   8.167   4.722
27092W        W90651  10.642  41.935  11.023
27093W        W90652   6.782  31.913   4.749
27094W        W90653  15.686  18.158   1.921
27095W        W90654  33.496  17.682   4.236
27096W        W90655  42.516   6.234  14.404
27097W        W90656  32.405  39.432  12.377
27098W        W90657  17.697  43.842  11.957
27099W        W90658  22.624  22.112  14.386
27100W        W90659   6.775   8.811   2.332
27101W        W90660  35.430   7.344  14.464
27102W        W90661  12.745  11.284   1.697
27103W        W90662  42.284  40.381   0.800
27104W        W90663  11.249  43.800  10.907
27105W        W90664  36.468  28.969  12.449
27106W        W90665   1.310  37.067   3.835
27107W        W90666  25.677  15.209  12.020
27108W        W90667  19.686  34.920   5.114
27109W        W90668  25.016  24.120   3.263
27110W        W90669  34.953  43.282  13.321
27111W        W90670  36.966   9.664   0.328
27112W        W90671  36.373  19.710   1.739
27113W        W90672  18.736  43.915   1.429
27114W        W90673   2.839  12.350  11.512
27115W        W90674  35.454  23.690   1.724
27116W        W90675  29.059  12.735  10.911
27117W        W90676  39.912  34.983   1.818
27118W        W90677  33.902  40.977  11.018
27119W        W90678  27.996   3.753   4.772
27120W        W90679   7.243  20.720  14.470
27121W        W90680  39.396  19.642  10.615
27122W        W90681  30.137   3.302   3.187
27123W        W90682  43.319  24.680   1.747
27124W        W90683  43.384   0.979  13.872
27125W        W90684  23.635  19.100  11.507
27126W        W90685  36.932  26.554   1.806
27127W        W90686  23.575   8.239   2.198
27128W        W90687  37.902  38.399  12.918
27129W        W90688  12.786  24.721  14.345
27130W        W90689  10.731   6.376  11.447
27131W        W90690   8.866  34.092   3.789
27132W        W90691   9.174  33.381   5.210
27133W        W90692  42.906  30.524   3.377
27134W        W90693   3.715  39.436   0.472
27135W        W90694  16.309  31.445  11.530
27136W        W90695  30.495  27.126  13.010
27137W        W90696  28.170  16.724   1.329
27138W        W90697  20.660  11.151   2.854
27139W        W90698  22.201  28.953  11.078
27140W        W90699  28.558  37.964   2.671
27141W        W90700  17.147   0.340  10.471
27142W        W90701  29.134  14.256   4.208
27143W        W90702   5.364  17.770  14.913
27144W        W90703  33.043  25.006   3.287
27145W        W90704  21.694  34.881   2.697
27146W        W90705  37.038  19.216  12.956
27147W        W90706  29.488  19.057  13.358
27148W        W90707  39.410   7.223  10.602
27149W        W90708  23.574  29.126  12.916
27150W        W90709  37.389  40.314   2.886
27151W        W90710  10.656  24.137  10.947
27152W        W90711  10.347  12.796   4.209
27153W        W90712  39.922  19.733   2.367
27154W        W90713   2.391  38.070   1.914
27155W        W90714   9.786   7.821   4.675
27156W        W90715  42.847  31.643  10.411
27157W        W90716   2.803   0.421  11.498
27158W        W90717  36.981   6.789  10.493
27159W        W90718  17.733   6.694  10.466
27160W        W90719  36.975   9.284  12.506
27161W        W90720   8.848  18.150  14.759
27162W        W90721  16.573  42.447  11.463
27163W        W90722  44.900  29.116   4.832
27164W        W90723  30.537  24.554   3.212
27165W        W90724  24.230  11.680  14.929
27166W        W90725  23.685  39.505   4.819
27167W        W90726   5.348  36.003   1.393
27168W        W90727   4.851  33.115   2.707
27169W        W90728  16.573  19.088  11.588
27170W        W90729   8.720   7.898  11.900
27171W        W90730  37.419   3.911  14.453
27172W        W90731  26.148  36.480   1.786
27173W        W90732  21.123  31.114  12.964
27174W        W90733  33.893  13.191   0.416
27175W        W90734  12.206  42.014  13.349
27176W        W90735  36.917   5.871  12.411
27177W        W90736  14.736  13.133  12.889
27178W        W90737  31.642  21.549  13.496
27179W        W90738  35.109  19.651  14.413
27180W        W90739   7.674  13.259   2.730
27181W        W90740  21.169   9.700  10.018
27182W        W90741  13.775  29.999  12.445
27183W        W90742  24.480  11.276  14.451
27184W        W90743  35.894  26.588   3.241
27185W        W90744   2.899  20.251   3.797
27186W        W90745   3.941  37.534   4.744
27187W        W90746  42.488  26.465   0.443
27188W        W90747  31.587  33.874   1.715
27189W        W90748  29.156  24.060  13.442
27190W        W90749  33.619   9.273  14.850
27191W        W90750  37.013  19.603   2.199
27192W        W90751  17.283  19.620  12.543
27193W        W90752  40.007  36.377  13.051
27194W        W90753  33.970   6.316   1.362
27195W        W90754  36.027   9.696   1.840
27196W        W90755  16.704  35.036   0.468
27197W        W90756   4.210  32.960   1.330
27198W        W90757  15.696   1.386   3.796
27199W        W90758  43.778  40.511   4.801
27200W        W90759  42.926  34.380   3.777
27201W        W90760   7.801  39.059  11.955
27202W        W90761  24.587  31.585  14.842
27203W        W90762  19.766   4.881  10.157
27204W        W90763  39.908  28.622   2.780
27205W        W90764   0.970  23.564  11.480
27206W        W90765  14.787   8.855  14.516
27207W        W90766  11.759   0.784  12.958
27208W        W90767  31.032  16.318  11.509
27209W        W90768  29.537  22.207   4.706
27210W        W90769  34.940  44.940   0.728
27211W        W90770  24.176  33.446   4.640
27212W        W90771  44.855  37.964   0.952
27213W        W90772  19.547  30.501  11.003
27214W        W90773  22.703  23.146   4.125
27215W        W90774  30.497  29.095  10.627
27216W        W90775  10.332  27.676  13.921
27217W        W90776  26.582  24.976   2.319
27218W        W90777   8.690  37.414  11.522
27219W        W90778  23.591  22.615   3.753
27220W        W90779  12.800  18.758  13.346
27221W        W90780   5.307  10.329   4.270
27222W        W90781   9.824  20.076   1.906
27223W        W90782  33.116  20.636   3.270
27224W        W90783  15.732  30.550   1.376
27225W        W90784  29.555  44.918  13.928
27226W        W90785  36.911  18.269   4.220
27227W        W90786  34.491   2.437  14.883
27228W        W90787   6.774  15.290   4.735
27229W        W90788   8.655  29.466   0.903
27230W        W90789  28.637  17.751   0.863
27231W        W90790   4.741  42.501   1.779
27232W        W90791  19.146  13.689  10.965
27233W        W90792   6.718  32.532   3.669
27234W        W90793  27.451  39.472   0.743
27235W        W90794  32.579   1.301   4.185
27236W        W90795  16.124  18.675   1.384
27237W        W90796  31.899  29.586  10.911
27238W        W90797  39.505  14.190   3.838
27239W        W90798  11.662   1.347   2.895
27240W        W90799  42.869  42.802   4.741
27241W        W90800   4.450  13.271  13.308
27242W        W90801  14.723  15.324   1.222
27243W        W90802  10.790  16.655   9.652
27244W        W90803  33.574  23.202  12.983
27245W        W90804  35.569  29.118  10.987
27246W        W90805  34.603   3.906   0.276
27247W        W90806  25.987  33.576  11.543
27248W        W90807   5.434  28.139   2.319
27249W        W90808  21.724   0.469   3.146
27250W        W90809   8.321  18.086   2.274
27251W        W90810  12.362  15.579   3.740
27252W        W90811  35.465   0.434  13.320
27253W        W90812  31.586  21.511   4.713
27254W        W90813   7.763   5.792  14.318
27255W        W90814  20.604  41.521   0.405
27256W        W90815  18.735  10.313  12.865
27257W        W90816  15.608  25.183  12.979
27258W        W90817  32.466  32.029  12.960
27259W        W90818   9.269  11.256  11.610
27260W        W90819  40.486  34.573  12.369
27261W        W90820  21.192  39.998  12.478
27262W        W90821   4.329  41.492  11.017
27263W        W90822  27.076  40.890  10.572
27264W        W90823  34.982  38.507  10.614
27265W        W90824  21.590   8.337   1.905
27266W        W90825  14.697  10.853  13.343
27267W        W90826   6.400  37.989   1.797
27268W        W90827   2.433   2.786   0.952
27269W        W90828   4.750  35.401  14.413
27270W        W90829   6.282  14.747  14.300
27271W        W90830   7.267  19.255  11.916
27272W        W90831  12.696  25.496  10.603
27273W        W90832  26.607  36.030   0.907
27274W        W90833  11.851  18.141  13.818
27275W        W90834  24.037   1.393   0.959
27276W        W90835  36.073  17.105  13.044
27277W        W90836  13.636  33.877  10.957
27278W        W90837   6.741  16.808   0.355
27279W        W90838  25.518   1.329  12.881
27280W        W90839  43.947  36.075  10.979
27281W        W90840  42.888  16.682  11.444
27282W        W90841  26.563  40.831  11.124
27283W        W90842  20.203   7.884  13.466
27284W        W90843  28.538  22.144  12.087
27285W        W90844  20.207  33.556  14.476
27286W        W90845   2.758  23.634  11.006
27287W        W90846  22.699   2.354   2.219
27288W        W90847  26.998  36.025  12.564
27289W        W90848   7.897   3.321   4.255
27290W        W90849  25.580  39.045  13.916
27291W        W90850  43.329  42.346   1.825
27292W        W90851  29.919  44.488  14.838
27293W        W90852  27.583   3.743   2.837
27294W        W90853  13.294  39.866   1.324
27295W        W90854  41.872  21.678   2.757
27296W        W90855  15.748  41.799   3.242
27297W        W90856  39.016   8.801  13.865
27298W        W90857  10.714  31.616   4.189
27299W        W90858   7.351  27.634   4.627
27300W        W90859   5.767  28.459   4.198
27301W        W90860  13.149  38.055   3.841
27302W        W90861  12.793  10.296   1.785
27303W        W90862   2.320   1.242   0.827
27304W        W90863  37.996  30.908   9.664
27305W        W90864  42.972   3.338  12.091
27306W        W90865  32.921  24.571  13.993
27307W        W90866  25.690  10.223   3.250
27308W        W90867   4.897  12.121  13.013
27309W        W90868  26.208  15.277  11.578
27310W        W90869  17.721   5.785   4.312
27311W        W90870  33.943   7.224  14.485
27312W        W90871   8.667  25.069   1.392
27313W        W90872  27.079  19.650   1.820
27314W        W90873  37.992  15.730  11.098
27315W        W90874  21.749  25.105  14.359
27316W        W90875  24.210  22.093   4.200
27317W        W90876  16.629  14.735  11.965
27318W        W90877   6.904  39.335   2.666
27319W        W90878  28.987  14.765   4.661
27320W        W90879  12.804  24.678   5.213
27321W        W90880  22.183  35.073  14.298
27322W        W90881  27.177  35.565  14.491
27323W        W90882  21.536  37.519  12.441
27324W        W90883   7.214  29.107  13.815
27325W        W90884  29.562  41.849  13.510
27326W        W90885  26.542  28.996   1.774
27327W        W90886  34.607  22.693  12.516
27328W        W90887  25.192  39.979  14.926
27329W        W90888  33.517  25.164   5.209
27330W        W90889  27.692  10.736   2.868
27331W        W90890   8.265  27.625  10.959
27332W        W90891  33.390  23.493   1.416
27333W        W90892  27.556  35.106  11.455
27334W        W90893  41.949  26.104   3.206
27335W        W90894   9.237  25.550   3.820
27336W        W90895  12.785  33.593   3.292
27337W        W90896  25.209   1.265   0.752
27338W        W90897  11.295  43.442  11.612
27339W        W90898   6.790  10.786  11.444
27340W        W90899   1.892  27.478  10.451
27341W        W90900  24.610  19.575   1.695
27342W        W90901  22.223   2.228  14.444
27343W        W90902  39.885  26.558   3.743
27344W        W90903  25.056  11.149   4.617
27345W        W90904  31.404  26.661  10.917
27346W        W90905  12.154   2.920   1.285
27347W        W90906  27.002  27.076   3.667
27348W        W90907  32.575  43.431   4.657
27349W        W90908  19.082  31.145   4.176
27350W        W90909   5.765  19.734   0.890
27351W        W90910  43.944  25.079  14.759
27352W        W90911  19.226   4.943   4.737
27353W        W90912  14.810   2.757  12.456
27354W        W90913  16.091  13.752   4.201
27355W        W90914  24.617  16.298  14.991
27356W        W90915   9.695  30.421   3.786
27357W        W90916  23.058  42.810  14.460
27358W        W90917  29.148  38.336  11.513
27359W        W90918  19.074  37.899  12.073
27360W        W90919  23.987  38.534   3.192
27361W        W90920  19.216  18.652  13.911
27362W        W90921   1.389   0.804   4.227
27363W        W90922   3.725  24.551   4.697
27364W        W90923  28.009  29.141   1.754
27365W        W90924  14.242  36.061  11.886
27366W        W90925  41.294  37.441  12.011
27367W        W90926  16.651   0.346   0.384
27368W        W90927  13.784   5.903   5.649
27369W        W90928   7.206   4.340   2.674
27370W        W90929  13.211  23.681   4.171
27371W        W90930  24.169  40.520  14.416
27372W        W90931  31.482  22.236  10.576
27373W        W90932  31.072  28.077  11.474
27374W        W90933  15.731  13.802  11.459
27375W        W90934  42.896  25.703   4.773
27376W        W90935  31.039   0.902   0.886
27377W        W90936   6.254   7.335  12.999
27378W        W90937  15.785  12.687  12.425
27379W        W90938  22.013  14.274   0.745
27380W        W90939  27.153   0.269  13.825
27381W        W90940   2.947  22.736   3.847
27382W        W90941  33.128  30.117  11.020
27383W        W90942  16.756  26.979   3.653
27384W        W90943  15.117  40.325   1.308
27385W        W90944   1.861  20.535  12.921
27386W        W90945  14.655  24.529  14.814
27387W        W90946  20.707  18.690  11.018
27388W        W90947   1.421  24.144   1.393
27389W        W90948  18.780   0.441  10.420
27390W        W90949  38.395  20.056   2.851
27391W        W90950  43.411  44.306  13.490
27392W        W90951   2.401  14.652   2.272
27393W        W90952  25.201  37.336   0.957
27394W        W90953  32.583  25.103  13.007
27395W        W90954  20.271  37.419   4.796
27396W        W90955  40.396   5.926  11.952
27397W        W90956   0.444   3.774   2.406
27398W        W90957  37.052  19.543   1.703
27399W        W90958  12.159   5.239  13.360
27400W        W90959  34.609  13.769  13.936
27401W        W90960  21.080   2.450  12.006
27402W        W90961   6.380   2.263  12.459
27403W        W90962  31.043  38.895   2.900
27404W        W90963  25.030  13.803   0.264
27405W        W90964  34.377  12.291  11.402
27406W        W90965  30.509  21.241  10.534
27407W        W90966  12.183  13.676   4.784
27408W        W90967   0.300   8.664  12.003
27409W        W90968   4.242   5.379   3.153
27410W        W90969  39.502   3.836  10.942
27411W        W90970  43.945  42.987  13.325
27412W        W90971  16.310  35.973  11.570
27413W        W90972  30.469  24.228  13.425
27414W        W90973  19.612  14.180   3.697
27415W        W90974  13.334  38.461   2.389
27416W        W90975   5.712   4.713  11.048
27417W        W90976  15.187  26.520   0.788
27418W        W90977  34.422  16.802  13.338
27419W        W90978  42.375  24.983   0.735
27420W        W90979  44.477  14.797   0.251
27421W        W90980  26.569  19.663   5.149
27422W        W90981  39.902   2.420   3.242
27423W        W90982  39.045  14.205   4.161
27424W        W90983  42.864  42.392   2.673
27425W        W90984  17.729  29.005  13.056
27426W        W90985  25.468  37.830   4.203
27427W        W90986  27.016  14.209   1.833
27428W        W90987  12.830   5.429   1.399
27429W        W90988  19.229  41.861  14.971
27430W        W90989  43.007  13.693  11.862
27431W        W90990  30.497  24.697  12.863
27432W        W90991  41.427  35.551  13.934
27433W        W90992  22.611  43.983  10.460
27434W        W90993  36.416  31.930  10.089
27435W        W90994  25.543  26.625   3.834
27436W        W90995   2.866  33.546   1.898
27437W        W90996  37.366  11.191   2.683
27438W        W90997  12.792   8.849  13.952
27439W        W90998  20.088   0.269  11.005
27440W        W90999  22.080  17.244   3.657
27441W        W91000  17.069   6.411   4.155
27442W        W91001  24.714   8.301  11.517
27443W        W91002  42.364   5.439   2.253
27444W        W91003  27.181  39.997   1.791
27445W        W91004  44.811   2.308  13.998
27446W        W91005  30.425  20.697  14.491
27447W        W91006  43.994  35.890  13.935
27448W        W91007  40.497  24.631  10.470
27449W        W91008  36.453  24.055   0.954
27450W        W91009   1.842  21.528   1.401
27451W        W91010  28.518   8.658   0.780
27452W        W91011  21.178   3.434  10.065
27453W        W91012   1.409   4.327  11.558
27454W        W91013  17.716  39.918  12.078
27455W        W91014  19.138  21.019  10.943
27456W        W91015  11.800   3.447   0.799
27457W        W91016  38.982  12.811   0.869
27458W        W91017  13.114  41.801   0.313
27459W        W91018  36.357   2.948   1.812
27460W        W91019  34.916  17.211  14.445
27461W        W91020  17.611  21.630  12.505
27462W        W91021  23.114  30.560  11.051
27463W        W91022   0.763  32.460   3.844
27464W        W91023  15.630  33.438   2.694
27465W        W91024   6.915  31.530   3.696
27466W        W91025   8.249  25.653  12.073
27467W        W91026  41.967  33.909   3.243
27468W        W91027  34.006  41.862   4.187
27469W        W91028  19.234  40.931   2.223
27470W        W91029  20.108  26.158   2.696
27471W        W91030  32.444  27.447   2.756
27472W        W91031  44.286   7.282   4.218
27473W        W91032  32.505  19.642  14.379
27474W        W91033  38.939   6.385   4.721
27475W        W91034  10.250   4.204  12.572
27476W        W91035  35.042   3.714   2.209
27477W        W91036  44.995  41.341   2.374
27478W        W91037  37.489  26.476  14.910
27479W        W91038  21.633   6.790  13.497
27480W        W91039  23.498  13.291   0.781
27481W        W91040  23.237  29.933  10.928
27482W        W91041   3.730   3.371  13.338
27483W        W91042  39.445  44.839   4.154
27484W        W91043  12.214   2.230  13.415
27485W        W91044  40.947  39.866   4.241
27486W        W91045   2.357   8.163   4.715
27487W        W91046  34.902  37.051   0.907
27488W        W91047  42.420   8.667  13.937
27489W        W91048   7.894   0.319   4.203
27490W        W91049  27.069  34.596   2.275
27491W        W91050  31.625  30.970   1.727
27492W        W91051  23.526  17.195  11.038
27493W        W91052  22.624   7.293  13.349
27494W        W91053  34.937  10.650  12.070
27495W        W91054  22.112   8.655  14.939
27496W        W91055  15.802  18.165   2.826
27497W        W91056  39.053  26.668  14.802
27498W        W91057  43.912  24.181  10.921
27499W        W91058  29.946  15.177   3.637
27500W        W91059  27.996  34.535   4.684
27501W        W91060  38.976   4.388  13.891
27502W        W91061   2.398   8.699  13.330
27503W        W91062   8.819  12.736   0.790
27504W        W91063   3.252  25.157   4.778
27505W        W91064  18.682  26.015   0.782
27506W        W91065  20.151  44.497  10.159
27507W        W91066  41.920  17.063   0.481
27508W        W91067  27.659  13.680  12.052
27509W        W91068  19.174  30.081   2.843
27510W        W91069  44.760  26.112  11.382
27511W        W91070  34.937  25.582   3.720
27512W        W91071  11.852  43.370   4.620
27513W        W91072  26.967  26.138  13.426
27514W        W91073  21.098  36.077   0.967
27515W        W91074  37.356  35.911   4.162
27516W        W91075   5.318  31.603   2.290
27517W        W91076  41.434  16.755  11.429
27518W        W91077  16.282  35.454  13.400
27519W        W91078  20.522   0.399   1.440
27520W        W91079   2.856  21.134   2.303
27521W        W91080  23.609  12.853  11.536
27522W        W91081  43.841  15.256  14.369
27523W        W91082   3.913  42.452  11.005
27524W        W91083   6.863  34.434   2.748
27525W        W91084   9.346  17.585   2.266
27526W        W91085  12.218  30.602  13.044
27527W        W91086  23.682  29.116  10.455
27528W        W91087   2.846  17.641  11.917
27529W        W91088  17.750  41.325  11.989
27530W        W91089   3.364  22.150   4.628
27531W        W91090  21.253   9.800   1.275
27532W        W91091   8.818   6.915  14.288
27533W        W91092  38.842  28.083  12.394
27534W        W91093  10.874  26.587  12.556
27535W        W91094  40.827  29.597   2.696
27536W        W91095  43.002  43.931   2.837
27537W        W91096  34.433  29.077   0.840
27538W        W91097  35.404  14.309  12.988
27539W        W91098   4.944  40.395  14.971
27540W        W91099   5.758  41.518   2.685
27541W        W91100   9.655  36.582   3.181
27542W        W91101  38.854   7.823  10.928
27543W        W91102  44.918  21.752   1.274
27544W        W91103  25.552  11.265  13.027
27545W        W91104   1.969  27.189  12.869
27546W        W91105  29.079   6.281  10.518
27547W        W91106  18.270  40.439   1.262
27548W        W91107  30.030  41.026  11.503
27549W        W91108  41.485   7.725  11.462
27550W        W91109  19.146   2.270  12.876
27551W        W91110   0.759  40.489  10.090
27552W        W91111  34.977  23.008   0.833
27553W        W91112  44.285   2.891  13.815
27554W        W91113  35.922   5.411   0.479
27555W        W91114  17.564  20.273  10.932
27556W        W91115  17.229  28.642  13.893
27557W        W91116   4.250  31.425   1.328
27558W        W91117  29.076  20.574  12.972
27559W        W91118  13.206   6.185  12.425
27560W        W91119  38.001  36.848   3.171
27561W        W91120  42.446  13.204   1.413
27562W        W91121  15.304  23.143   0.483
27563W        W91122  21.717   9.829   2.748
27564W        W91123  18.745   6.682   2.771
27565W        W91124   8.173   7.236   3.261
27566W        W91125  40.971  43.832  12.922
27567W        W91126  16.572  39.482   3.298
27568W        W91127   9.786  33.004  11.512
27569W        W91128   6.216  43.415   0.740
27570W        W91129  38.547  14.116  11.882
27571W        W91130  28.448  30.964  10.643
27572W        W91131   5.783   0.867   2.798
27573W        W91132  27.623  20.660  10.564
27574W        W91133  26.137  43.961   1.740
27575W        W91134   4.821  26.652  11.558
27576W        W91135  17.763  33.427  12.031
27577W        W91136  41.515  20.676   4.262
27578W        W91137   4.346  43.433   4.753
27579W        W91138  13.689  38.410   0.932
27580W        W91139  21.024  32.104   3.723
27581W        W91140  24.635  39.361  13.506
27582W        W91141   5.371  26.199  13.827
27583W        W91142   2.826  43.321  10.982
27584W        W91143  30.969   9.740  14.469
27585W        W91144  25.161  33.924   0.313
27586W        W91145  15.240  25.708   2.338
27587W        W91146   5.242  42.946  12.030
27588W        W91147  26.083   2.470   3.771
27589W        W91148  23.588  12.810  10.449
27590W        W91149  22.161  21.689   1.781
27591W        W91150  38.515  20.176   2.393
27592W        W91151  42.297  29.140  12.990
27593W        W91152  39.498  17.740  12.481
27594W        W91153  10.741  44.798   3.303
27595W        W91154  33.547  39.452  13.504
27596W        W91155  24.588   9.768  13.360
27597W        W91156  10.765  21.232  10.994
27598W        W91157  15.097   7.684   0.913
27599W        W91158  43.440  16.172   0.868
27600W        W91159   3.903   6.320  10.565
27601W        W91160   3.731  28.941   2.368
27602W        W91161   4.852  23.681   4.673
27603W        W91162  36.553   4.353  12.971
27604W        W91163  14.150  11.712  11.532
27605W        W91164  16.754   4.260   4.734
27606W        W91165  36.896  24.669   2.354
27607W        W91166  13.241  19.280   0.788
27608W        W91167  31.999   6.781  12.398
27609W        W91168  32.455  32.567  11.863
27610W        W91169  10.296  42.303   1.338
27611W        W91170  22.726  15.809  10.121
27612W        W91171  10.378  19.653  10.913
27613W        W91172  29.070   6.864   1.724
27614W        W91173  26.572   4.937  10.562
27615W        W91174   9.826  36.037   0.253
27616W        W91175  43.923  26.588  12.067
27617W        W91176  29.940  32.885   1.386
27618W        W91177  41.931  23.495   3.382
27619W        W91178   6.809  29.513  11.062
27620W        W91179  28.001  26.532   0.949
27621W        W91180  42.505  17.080   4.739
27622W        W91181  12.215  21.061  14.282
27623W        W91182   8.208  20.698  10.544
27624W        W91183   4.835  24.128   1.815
27625W        W91184  15.108  25.032   4.238
27626W        W91185  14.262  37.336  12.018
27627W        W91186   0.334  37.923  11.912
27628W        W91187  41.406   6.249   3.162
27629W        W91188  28.642   1.958  14.371
27630W        W91189   0.873  12.814   2.798
27631W        W91190  29.427  20.545  12.389
27632W        W91191   7.714   3.278  13.347
27633W        W91192   2.423   2.289  13.326
27634W        W91193  18.126  44.304   0.264
27635W        W91194  26.080  32.940   0.872
27636W        W91195  32.009  11.707   2.379
27637W        W91196  26.055  21.519   4.333
27638W        W91197  36.016  15.135  10.633
27639W        W91198  29.132  17.249  10.607
27640W        W91199  15.125  42.870  11.010
27641W        W91200   8.347  40.023  10.635
27642W        W91201  16.212   0.812  12.488
27643W        W91202  25.963  41.354   1.295
27644W        W91203  22.103   5.405   3.386
27645W        W91204   3.394   6.699  11.500
27646W        W91205   6.227  25.976  12.055
27647W        W91206  44.761  38.890   2.376
27648W        W91207  20.050  22.012   3.732
27649W        W91208   5.230  18.566   2.297
27650W        W91209  15.322   3.822   4.690
27651W        W91210  23.014   5.248   4.224
27652W        W91211  32.406  15.593   0.839
27653W        W91212   8.174  31.464   0.797
27654W        W91213  10.800   3.948   0.452
27655W        W91214   5.820  26.014   3.769
27656W        W91215  25.047  43.948  11.055
27657W        W91216  44.841   8.309  13.886
27658W        W91217  34.400  20.663  12.350
27659W        W91218  31.076  37.356  10.518
27660W        W91219  43.323  27.105  10.425
27661W        W91220  23.567   7.705   1.878
27662W        W91221  16.763   2.471  11.531
27663W        W91222   7.688   6.867  14.312
27664W        W91223  18.781   2.754   2.222
27665W        W91224  27.001  28.132   4.261
27666W        W91225  32.567   0.936  13.955
27667W        W91226  28.140  31.647  13.532
27668W        W91227  24.025  35.438   1.274
27669W        W91228  18.664  35.015  11.580
27670W        W91229  20.138  25.500  10.557
27671W        W91230   5.305  12.167  11.070
27672W        W91231   4.854   4.778   0.482
27673W        W91232  39.945  33.131   1.427
27674W        W91233   9.337  39.824  13.442
27675W        W91234  35.867  38.864  12.904
27676W        W91235  16.141   1.868  10.505
27677W        W91236   4.337  25.215  12.964
27678W        W91237   3.722  14.116   5.154
27679W        W91238  12.789  12.361  12.911
27680W        W91239  38.877  40.549   1.336
27681W        W91240  10.354   7.731   0.409
27682W        W91241   0.417  18.140  13.874
27683W        W91242  17.648  44.933   3.733
27684W        W91243  25.690  22.045  12.554
27685W        W91244  24.001  22.188  12.021
27686W        W91245  27.573   4.732   4.216
27687W        W91246   4.387   5.384   0.308
27688W        W91247  27.465  44.924  12.907
27689W        W91248  22.093  31.070   2.719
27690W        W91249   9.881  21.253  14.353
27691W        W91250  16.128  16.172   3.376
27692W        W91251   7.218  31.938  12.466
27693W        W91252  40.438  32.123   3.739
27694W        W91253  35.961  19.549  11.864
27695W        W91254   6.721  33.494  10.548
27696W        W91255  27.173  41.953  10.441
27697W        W91256   5.854  23.560   3.208
27698W        W91257   1.771  17.759  11.890
27699W        W91258  32.965  13.829  13.338
27700W        W91259   5.818  25.106   4.269
27701W        W91260   2.276  28.471  11.015
27702W        W91261  15.707  20.699  11.551
27703W        W91262  38.467  44.476   1.716
27704W        W91263  23.637  26.676   4.758
27705W        W91264  40.452   8.393   2.234
27706W        W91265   7.172   5.706  14.965
27707W        W91266  17.716  35.539  14.828
27708W        W91267  17.677  13.105  13.383
27709W        W91268  42.335  42.302  11.899
27710W        W91269  19.650   8.769  10.000
27711W        W91270  17.642  42.325   3.201
27712W        W91271  15.685  33.091   3.664
27713W        W91272  15.597  13.599   3.168
27714W        W91273   7.202  24.217   3.829
27715W        W91274  17.150  24.205  11.894
27716W        W91275  28.067  35.860  14.486
27717W        W91276  27.645  39.020   4.223
27718W        W91277   0.375  11.343   4.753
27719W        W91278  32.578  34.604   0.925
27720W        W91279  23.034  32.896  10.508
27721W        W91280  41.294  23.145   1.346
27722W        W91281   9.698   2.456   1.710
27723W        W91282  40.829  13.755  11.996
27724W        W91283  40.033  34.917  11.418
27725W        W91284  43.893   4.719  11.116
27726W        W91285  21.684  28.053   2.872
27727W        W91286  24.563   3.427  14.945
27728W        W91287  17.642  24.629   2.774
27729W        W91288  18.130  25.659  14.414
27730W        W91289  36.012  31.008  11.517
27731W        W91290  19.641  39.418  10.472
27732W        W91291  32.095   7.692   1.924
27733W        W91292  32.495   5.824  12.032
27734W        W91293  23.037   1.889   2.756
27735W        W91294  26.633  14.192   0.740
27736W        W91295  16.202  10.294  14.397
27737W        W91296   4.361  23.576  14.025
27738W        W91297  37.575  36.856   2.834
27739W        W91298  43.937  39.809  14.482
27740W        W91299  22.216   6.896   3.665
27741W        W91300  28.620  33.935  11.374
27742W        W91301  34.922  15.774  13.469
27743W        W91302  44.823   7.388   1.859
27744W        W91303  30.998  36.037   0.919
27745W        W91304  33.397  26.066   4.152
27746W        W91305  34.958  44.431   0.318
27747W        W91306  20.735  41.320  10.548
27748W        W91307  44.010  37.420   4.180
27749W        W91308  27.010   6.402  13.410
27750W        W91309  20.218  31.571   4.683
27751W        W91310  29.625  16.186  14.905
27752W        W91311   9.757  38.341   3.247
27753W        W91312   8.287  14.199  11.037
27754W        W91313  42.380   1.381  14.976
27755W        W91314  35.046  44.010  11.899
27756W        W91315   3.926  22.149   3.772
27757W        W91316  11.269  23.156   3.297
27758W        W91317  40.805   2.407   0.803
27759W        W91318  32.415  27.015   3.255
27760W        W91319  11.156  20.084   2.259
27761W        W91320  37.517  19.101  10.924
27762W        W91321  32.908  32.626   3.263
27763W        W91322  12.678  24.202   5.729
27764W        W91323  12.839  23.207  12.083
27765W        W91324  35.448  34.938  11.461
27766W        W91325  38.841  23.525   4.665
27767W        W91326  13.677  42.896   1.315
27768W        W91327  22.197   9.772   3.663
27769W        W91328  13.287  38.828   4.775
27770W        W91329  38.819  38.529   1.819
27771W        W91330  35.485  41.366   3.275
27772W        W91331  36.094  19.559  13.968
27773W        W91332  29.122   3.272   2.742
27774W        W91333  30.458  12.136  12.077
27775W        W91334  11.777   3.732   3.217
27776W        W91335  41.894   4.720  14.349
27777W        W91336  33.875  15.167   4.324
27778W        W91337  25.547  10.698   3.856
27779W        W91338   0.275   1.827   1.369
27780W        W91339   4.448  23.546  14.816
27781W        W91340  17.265  31.489  13.798
27782W        W91341  36.928  41.498   0.939
27783W        W91342  21.023  42.777  10.154
27784W        W91343  43.798   8.305   2.188
27785W        W91344  39.398  42.429   3.796
27786W        W91345  43.425   4.254  11.884
27787W        W91346  16.297  37.987   0.907
27788W        W91347  28.143   8.742  13.856
27789W        W91348  33.967   9.705   3.720
27790W        W91349   1.331  35.540   3.232
27791W        W91350   1.350   4.915   4.180
27792W        W91351  14.681  15.302  13.917
27793W        W91352  39.012  10.249   2.774
27794W        W91353  25.659  30.517   4.123
27795W        W91354  44.924  40.944  14.436
27796W        W91355   0.915   2.873   0.242
27797W        W91356  27.026  18.289   2.857
27798W        W91357  40.489  16.652   3.323
27799W        W91358   2.840  19.126  14.948
27800W        W91359  22.115  28.012  12.040
27801W        W91360  18.216   8.371   3.671
27802W        W91361  20.713  33.118   2.695
27803W        W91362  15.812  10.675  11.012
27804W        W91363  26.641  35.594  10.536
27805W        W91364  30.921  36.993   0.790
27806W        W91365  17.295   6.385   0.266
27807W        W91366   3.813  17.061  12.837
27808W        W91367  18.641   7.291  12.525
27809W        W91368  34.461   4.858  10.635
27810W        W91369  42.468  37.559  11.961
27811W        W91370  42.312   4.396  10.542
27812W        W91371  21.046  13.826  12.388
27813W        W91372  34.067  40.508  14.929
27814W        W91373   0.403  40.447  11.114
27815W        W91374  31.108  39.958   0.944
27816W        W91375  22.513   3.383  11.393
27817W        W91376  39.485   7.383  11.552
27818W        W91377  10.367  26.693  10.436
27819W        W91378   8.684   6.360  12.831
27820W        W91379  14.657  41.820   0.297
27821W        W91380  30.518  18.160   2.667
27822W        W91381   5.375  39.988  11.602
27823W        W91382  26.562   8.404  12.002
27824W        W91383   3.232  25.533  12.371
27825W        W91384  22.114  40.959   3.155
27826W        W91385   7.311  14.230  13.054
27827W        W91386   5.837  17.595  14.992
27828W        W91387   0.766  18.687  11.094
27829W        W91388   4.763  42.961  14.499
27830W        W91389  19.051   5.754  10.914
27831W        W91390  31.045  14.172  13.515
27832W        W91391   2.949  31.098   2.334
27833W        W91392   2.807   3.863  14.918
27834W        W91393   5.228  16.799   0.861
27835W        W91394  43.409  11.304   0.293
27836W        W91395   8.886  32.567  13.513
27837W        W91396  31.097  20.769  10.971
27838W        W91397  18.615  39.979   4.603
27839W        W91398  11.291  33.009   5.718
27840W        W91399   2.790   8.217  12.900
27841W        W91400  13.348  26.032   1.893
27842W        W91401   7.717  29.463  14.784
27843W        W91402  15.259  24.488  10.423
27844W        W91403  22.551  41.954  11.871
27845W        W91404  15.720  41.974   2.391
27846W        W91405   4.731  23.683  14.018
27847W        W91406   5.702  26.461  12.037
27848W        W91407  39.952  30.534  10.984
27849W        W91408  11.294  19.757   4.695
27850W        W91409   4.793  10.684   2.676
27851W        W91410  20.082   2.307  12.563
27852W        W91411  28.987  28.664  14.491
27853W        W91412   1.402  19.122  11.114
27854W        W91413  42.862   0.410  14.024
27855W        W91414  44.766  16.690  12.528
27856W        W91415  24.619  35.852  14.494
27857W        W91416  15.635  24.498  12.471
27858W        W91417   8.232   1.845  13.898
27859W        W91418  34.966  43.013  14.378
27860W        W91419  17.600  38.914   0.349
27861W        W91420  44.293   3.720   3.339
27862W        W91421  26.631  30.944  12.829
27863W        W91422   4.234  32.976  10.998
27864W        W91423  36.079  30.545   2.828
27865W        W91424  24.201  24.119   5.110
27866W        W91425  44.765  17.176  12.408
27867W        W91426   9.256  35.070  11.512
27868W        W91427  41.391  23.563   1.272
27869W        W91428  14.295   5.710  13.957
27870W        W91429  30.515  18.546  14.424
27871W        W91430   4.836  16.794  14.950
27872W        W91431  37.462  44.971  12.082
27873W        W91432   7.842  23.624  12.389
27874W        W91433   5.359  44.391   4.764
27875W        W91434  41.371  39.406   1.840
27876W        W91435  29.457  40.436   1.798
27877W        W91436  16.235  10.699   3.712
27878W        W91437  18.602  17.757  12.066
27879W        W91438  22.662  32.129   0.250
27880W        W91439   8.313  39.405   4.653
27881W        W91440  43.482   5.692   2.193
27882W        W91441  40.414   0.278   2.403
27883W        W91442   8.303  28.446   2.892
27884W        W91443  21.031  39.940   4.772
27885W        W91444  42.918  28.467   4.622
27886W        W91445  28.985  29.987   2.884
27887W        W91446   5.299  35.960   1.819
27888W        W91447  37.049  41.369  11.893
27889W        W91448  39.002   3.876  10.520
27890W        W91449  12.826  14.226   3.806
27891W        W91450   1.389   2.961   2.740
27892W        W91451   8.831   1.796  12.852
27893W        W91452  15.270  15.181   1.262
27894W        W91453  26.605  15.602   3.174
27895W        W91454  15.632   9.690   1.711
27896W        W91455  33.923   6.384   3.730
27897W        W91456  19.688   4.304  13.442
27898W        W91457  31.582  22.721  11.054
27899W        W91458  13.186  24.510   3.331
27900W        W91459  14.155   2.888   4.350
27901W        W91460   1.301   0.338  11.940
27902W        W91461  44.454  14.229  11.020
27903W        W91462   3.758  10.352   4.279
27904W        W91463   1.262  13.640  13.340
27905W        W91464  18.214   0.833  11.108
27906W        W91465  29.141   2.749  14.361
27907W        W91466  42.910  35.593  12.903
27908W        W91467  15.600   4.848  13.392
27909W        W91468  40.902  44.915   2.767
27910W        W91469  44.371  12.802  12.542
27911W        W91470   1.908  12.302   4.167
27912W        W91471  34.576  28.013  14.462
27913W        W91472  44.306  10.305  13.823
27914W        W91473  42.963  23.046  11.014
27915W        W91474   5.770  43.423   0.342
27916W        W91475   8.381   6.741   2.350
27917W        W91476   7.317  33.593   4.825
27918W        W91477  38.845  24.643  10.567
27919W        W91478   6.384  24.498   1.932
27920W        W91479  37.864   4.783  13.813
27921W        W91480  14.729  15.210   2.232
27922W        W91481  15.585  13.222  12.386
27923W        W91482   8.194  25.962   2.391
27924W        W91483  25.191  16.729  14.357
27925W        W91484  22.725  26.015   4.198
27926W        W91485  20.069  24.188   3.225
27927W        W91486   3.410   1.245   2.726
27928W        W91487   3.884   2.813  13.536
27929W        W91488  44.900  44.446  13.041
27930W        W91489  36.882   0.324   4.129
27931W        W91490  29.633  41.384   4.144
27932W        W91491  33.592  26.526  14.403
27933W        W91492  15.105  14.669  14.841
27934W        W91493  21.640  17.180  11.452
27935W        W91494   7.702  31.927  10.523
27936W        W91495  35.555  32.400   1.809
27937W        W91496   9.841  29.924  12.457
27938W        W91497  22.217   8.735   0.280
27939W        W91498  10.647  33.521   4.831
27940W        W91499  14.708  43.953  14.844
27941W        W91500  26.530  15.329  10.445
27942W        W91501   1.903  28.670   3.372
27943W        W91502  31.047  17.749   0.360
27944W        W91503  44.303  16.694  12.026
27945W        W91504   4.810   7.771   0.851
27946W        W91505  21.088   8.343   1.406
27947W        W91506  10.854  31.019   3.748
27948W        W91507  16.103  17.652   4.676
27949W        W91508  43.825  27.102  10.977
27950W        W91509  22.518  30.134  14.337
27951W        W91510   7.237  14.601   3.834
27952W        W91511  28.947  22.728  12.990
27953W        W91512  14.333  18.556   0.768
27954W        W91513  29.159  30.605   4.131
27955W        W91514  21.581  24.195  12.416
27956W        W91515  39.508   4.923   3.218
27957W        W91516  13.793  18.065  11.972
27958W        W91517  35.044  29.652   3.857
27959W        W91518  33.933   9.309  11.390
27960W        W91519   3.716  41.949   2.876
27961W        W91520  28.532  38.470   3.744
27962W        W91521  22.182  21.036   3.700
27963W        W91522  13.128  26.983   3.260
27964W        W91523  33.509  34.473  10.033
27965W        W91524  19.765   8.661   3.818
27966W        W91525  43.289  34.073  13.850
27967W        W91526   7.337  37.440  13.348
27968W        W91527  15.704  41.995   4.773
27969W        W91528  24.706  37.554  12.423
27970W        W91529  36.858  31.046   4.309
27971W        W91530  29.134  14.593  11.977
27972W        W91531  21.074  36.542  14.368
27973W        W91532  12.227   9.375   3.630
27974W        W91533   6.333  12.751   4.233
27975W        W91534  14.198   6.742   9.952
27976W        W91535   5.898   5.401   4.334
27977W        W91536  36.846   0.429   3.684
27978W        W91537  39.520  17.261   2.192
27979W        W91538  33.984  33.570  11.434
27980W        W91539  25.101  30.612   0.293
27981W        W91540  21.738  28.435  13.373
27982W        W91541  19.050   8.296   4.726
27983W        W91542  21.194   8.220   2.869
27984W        W91543  38.936  36.890  13.854
27985W        W91544  12.717  23.519   2.803
27986W        W91545  29.441  41.913   3.724
27987W        W91546  15.117  21.092  10.944
27988W        W91547  35.492  27.538  14.947
27989W        W91548  13.732  37.048   4.255
27990W        W91549  21.029  39.480   0.955
27991W        W91550   0.899  38.469  14.299
27992W        W91551   5.767  23.735  14.020
27993W        W91552  20.651  18.202  10.594
27994W        W91553  43.884  36.399  11.962
27995W        W91554  38.889  21.625   3.242
27996W        W91555  35.870   1.432   3.300
27997W        W91556  38.452  14.786  11.071
27998W        W91557  15.154  25.643   0.483
27999W        W91558   2.915  42.491   2.242
28000W        W91559  27.608  30.484   3.640
28001W        W91560  21.643  21.723   4.261
28002W        W91561   6.251  27.983  10.049
28003W        W91562  31.088  27.995   2.825
28004W        W91563  21.653  16.593   4.173
28005W        W91564   5.275   6.764   1.356
28006W        W91565   2.364   2.836  12.968
28007W        W91566  25.967  13.803  13.881
28008W        W91567  42.959  33.905   3.288
28009W        W91568   8.709  21.596   0.416
28010W        W91569  21.518  17.621  10.533
28011W        W91570  10.321  42.886  12.080
28012W        W91571  19.060  29.137   0.406
28013W        W91572  15.196  22.083   0.728
28014W        W91573   6.910  21.150  12.432
28015W        W91574   1.814  18.631  14.990
28016W        W91575  12.713  25.662  11.963
28017W        W91576  26.143  13.126  14.491
28018W        W91577   1.357  38.854  10.611
28019W        W91578   8.772  26.038  14.399
28020W        W91579  31.960  39.519   1.706
28021W        W91580   5.278   0.765  10.407
28022W        W91581  12.753  22.635   0.334
28023W        W91582  12.769  23.127  14.434
28024W        W91583  34.873   0.258  10.895
28025W        W91584  24.680  43.844   3.786
28026W        W91585  35.492  29.490   2.850
28027W        W91586  25.012  34.425  13.477
28028W        W91587  25.061  24.644   2.274
28029W        W91588  33.120  39.874  12.065
28030W        W91589  14.175  29.499  13.385
28031W        W91590   2.449  20.582   1.780
28032W        W91591   0.963  37.844  12.368
28033W        W91592   0.955   9.324  11.988
28034W        W91593  17.773   4.440  12.941
28035W        W91594  33.953  34.533  14.987
28036W        W91595   4.430  39.033   3.811
28037W        W91596  25.604  21.747  12.884
28038W        W91597   1.972  43.492   0.264
28039W        W91598  17.654  25.512  11.868
28040W        W91599  21.250  41.510   2.821
28041W        W91600  25.688   6.839  10.634
28042W        W91601  32.478  21.571   0.939
28043W        W91602   3.401  12.798   4.298
28044W        W91603  28.531   5.843  11.926
28045W        W91604  13.731   3.330   3.712
28046W        W91605  17.687  44.780   2.845
28047W        W91606   3.460  34.918   4.760
28048W        W91607  40.931   2.780  11.930
28049W        W91608   1.738  38.927   4.136
28050W        W91609  25.521  24.155  14.284
28051W        W91610  28.570  24.166  12.005
28052W        W91611  16.743  25.680  11.427
28053W        W91612  26.058   8.350   1.893
28054W        W91613  11.369  32.390  11.046
28055W        W91614  33.010  11.354   4.722
28056W        W91615   7.379  41.932   4.267
28057W        W91616  27.113   3.375   1.266
28058W        W91617  21.632  17.687  12.526
28059W        W91618   8.402   8.366  13.548
28060W        W91619  15.304  30.105   3.161
28061W        W91620  39.501  32.598  13.984
28062W        W91621  32.515   3.883  13.515
28063W        W91622  27.069  17.589  11.030
28064W        W91623  42.425  14.597   0.891
28065W        W91624  18.083  14.795  11.887
28066W        W91625  14.100  42.519  11.009
28067W        W91626  29.974   9.363   3.299
28068W        W91627  39.371  22.744   9.940
28069W        W91628   8.176  30.005   0.845
28070W        W91629  11.296   5.832  12.378
28071W        W91630   6.751  42.457   1.279
28072W        W91631  41.988  42.908  11.595
28073W        W91632  44.794  35.002   1.820
28074W        W91633  31.956   7.771  14.007
28075W        W91634  41.535  35.397  12.458
28076W        W91635  37.926  30.436  14.389
28077W        W91636  39.975  15.143  12.508
28078W        W91637  27.597  22.017  11.545
28079W        W91638  26.082  28.007   4.220
28080W        W91639  24.589   6.758   0.266
28081W        W91640  23.721   5.819  12.354
28082W        W91641  35.860  36.860   0.823
28083W        W91642  43.347  40.860   4.243
28084W        W91643  36.905  22.502  14.442
28085W        W91644  13.146  40.913  14.495
28086W        W91645  16.674  11.357   3.693
28087W        W91646  13.227  35.045  11.897
28088W        W91647  40.906  31.012   3.648
28089W        W91648   5.865  19.127  12.942
28090W        W91649  35.492  19.057   3.194
28091W        W91650  12.311  31.153  11.023
28092W        W91651  36.515  42.884  10.991
28093W        W91652   5.319   1.772  12.092
28094W        W91653  20.066  40.024   1.309
28095W        W91654  25.989  36.525  13.491
28096W        W91655  13.668  21.519   2.804
28097W        W91656   5.890   7.739  13.428
28098W        W91657  37.495  24.681   2.798
28099W        W91658  38.890  19.677  14.028
28100W        W91659  33.097   3.751   0.950
28101W        W91660  31.603  22.639  12.896
28102W        W91661  31.559  43.339  11.872
28103W        W91662  40.964  29.079   1.405
28104W        W91663  43.838  44.804   0.331
28105W        W91664   2.325  33.035  11.576
28106W        W91665  27.558  11.356  13.807
28107W        W91666  44.993  12.828   2.881
28108W        W91667   1.788  12.211  14.793
28109W        W91668  14.154   4.792   4.821
28110W        W91669  10.318  12.132  11.072
28111W        W91670   3.951  38.063  13.857
28112W        W91671  29.985   6.322   3.698
28113W        W91672  22.124   4.785   4.600
28114W        W91673  29.046  30.084  13.816
28115W        W91674  12.253  12.252  13.320
28116W        W91675  39.395  42.385   2.222
28117W        W91676  11.704   1.389  14.917
28118W        W91677  20.743  11.863  14.294
28119W        W91678   1.829  44.917  12.874
28120W        W91679  29.119   4.270  13.380
28121W        W91680  24.645   9.197   3.724
28122W        W91681  17.780  35.559   4.656
28123W        W91682  40.966  10.298  11.376
28124W        W91683  14.592  31.012  13.458
28125W        W91684  37.375  19.230   3.733
28126W        W91685  21.257  26.466   2.283
28127W        W91686  41.023  14.260   0.783
28128W        W91687  29.468  23.012   9.937
28129W        W91688  27.494  14.723  11.075
28130W        W91689  26.098  40.408  13.007
28131W        W91690  43.911  34.409   4.230
28132W        W91691  43.881  40.003  11.080
28133W        W91692   2.890  42.452   4.228
28134W        W91693  14.653  35.009  11.489
28135W        W91694   2.895   3.773  11.107
28136W        W91695  28.603  16.148  10.409
28137W        W91696   7.866  31.412   0.857
28138W        W91697  24.141  42.506   2.708
28139W        W91698  21.668  20.219   0.913
28140W        W91699   4.321  40.996   4.768
28141W        W91700  39.405  36.065  13.477
28142W        W91701  22.088  13.798  11.059
28143W        W91702  23.084  18.140   4.710
28144W        W91703  42.471  43.803  14.475
28145W        W91704  34.078  41.343   0.416
28146W        W91705  17.163  34.087   4.812
28147W        W91706  40.031   9.677   1.320
28148W        W91707   3.274  13.791   4.230
28149W        W91708  31.505   9.662   0.911
28150W        W91709   2.270  15.793   3.850
28151W        W91710  34.893  22.634   3.730
28152W        W91711  39.449  14.284   4.321
28153W        W91712  36.075   7.900   0.369
28154W        W91713   8.674  44.317  10.054
28155W        W91714   1.947   7.679  13.973
28156W        W91715  17.161  24.080  12.385
28157W        W91716   8.783  16.186  11.570
28158W        W91717  43.495  10.343  11.417
28159W        W91718  40.371  16.078  10.412
28160W        W91719  22.658  44.006  13.540
28161W        W91720  26.092   7.786   1.780
28162W        W91721  31.076  23.491   1.393
28163W        W91722  13.658  41.924  14.815
28164W        W91723  25.180  40.444   4.617
28165W        W91724  43.449  13.119  12.510
28166W        W91725  43.467  16.753   2.902
28167W        W91726   7.765  37.878  10.489
28168W        W91727  36.007  40.491  12.982
28169W        W91728   5.793   9.770  13.419
28170W        W91729  35.879  20.058  12.864
28171W        W91730  12.137   3.886  11.580
28172W        W91731  29.450  39.946  13.422
28173W        W91732  30.997  42.303   4.233
28174W        W91733  11.669  31.063  11.026
28175W        W91734  18.077   2.797  14.370
28176W        W91735   2.384  11.795   4.675
28177W        W91736  14.765   0.341   0.346
28178W        W91737  42.336  29.056   2.288
28179W        W91738  40.440   9.749   0.451
28180W        W91739  42.385  32.902  12.011
28181W        W91740  18.781  32.033  12.459
28182W        W91741  23.986  15.625   2.806
28183W        W91742  42.787  22.104  13.037
28184W        W91743   4.711   6.286  11.556
28185W        W91744  34.605  14.340  12.396
28186W        W91745  27.971  43.482   2.413
28187W        W91746   4.438  14.143  10.512
28188W        W91747   0.325  13.694  14.498
28189W        W91748  27.040   2.758   0.318
28190W        W91749  16.800  11.805   2.315
28191W        W91750  10.669  10.737   1.764
28192W        W91751  30.046  37.483   2.192
28193W        W91752  35.935  29.068  14.857
28194W        W91753  41.920  41.788  14.968
28195W        W91754  17.717   6.427  10.410
28196W        W91755   5.720  18.099   3.161
28197W        W91756  21.059  19.236   3.207
28198W        W91757   8.362  44.325  12.989
28199W        W91758  26.482  19.647  14.854
28200W        W91759  12.723   5.250  13.824
28201W        W91760  25.501  15.796   3.344
28202W        W91761  32.989  11.657   2.766
28203W        W91762  22.169  34.472   1.701
28204W        W91763  12.807  10.721  12.366
28205W        W91764   7.871  33.544   3.298
28206W        W91765   1.478   8.870  12.577
28207W        W91766   0.421  20.087   4.625
28208W        W91767  15.785  40.904  12.961
28209W        W91768   4.417  27.458  13.340
28210W        W91769   3.272   0.959  12.921
28211W        W91770   2.412  30.006   4.608
28212W        W91771  11.155  24.549  11.074
28213W        W91772  33.501  43.990   4.188
28214W        W91773  10.333  44.456  11.559
28215W        W91774  38.990  28.555   4.289
28216W        W91775   5.354  37.940   1.877
28217W        W91776  43.877   6.748  11.097
28218W        W91777   6.308  30.986   0.883
28219W        W91778  44.378  19.744  14.450
28220W        W91779  23.199   6.326  11.602
28221W        W91780  11.195  43.448   3.794
28222W        W91781   2.746  32.993   2.801
28223W        W91782  31.427  12.832   3.224
28224W        W91783  34.533  22.740  12.054
28225W        W91784  10.862  20.076   0.270
28226W        W91785  42.484  13.244   2.371
28227W        W91786  13.302  17.777   2.258
28228W        W91787   6.780  36.551  10.412
28229W        W91788  41.446  17.189  13.036
28230W        W91789  43.409  13.640   2.379
28231W        W91790  39.428  10.339  10.047
28232W        W91791  16.790  23.580  11.911
28233W        W91792  24.600   8.841  14.927
28234W        W91793  31.132  22.574  12.858
28235W        W91794   2.798  38.498  14.792
28236W        W91795   3.912  14.119  10.520
28237W        W91796  34.417  24.989  14.451
28238W        W91797  12.362  36.869   4.633
28239W        W91798   3.232  15.122  12.043
28240W        W91799  17.637  30.964   2.324
28241W        W91800  42.472  26.072  14.820
28242W        W91801   3.763  30.658  10.523
28243W        W91802   0.753   2.453  12.532
28244W        W91803  31.977  38.028  10.476
28245W        W91804  10.207  35.465   3.287
28246W        W91805  27.654  37.553  14.311
28247W        W91806  37.444  27.062  10.913
28248W        W91807  24.510  19.562   2.789
28249W        W91808  21.169  38.864  13.451
28250W        W91809  19.675  35.091  11.438
28251W        W91810   6.922  10.721  12.008
28252W        W91811   3.782   2.841  14.511
28253W        W91812   5.394   3.266  12.567
28254W        W91813  42.370   5.276  10.471
28255W        W91814   3.380  28.067  13.429
28256W        W91815  32.630  32.058  14.765
28257W        W91816  41.352  17.643  11.080
28258W        W91817  19.772   2.271   1.256
28259W        W91818  44.354  13.654  13.021
28260W        W91819  34.459  13.287   4.797
28261W        W91820  25.964   2.871   2.323
28262W        W91821  40.304  28.004   1.865
28263W        W91822  12.801   9.235  10.538
28264W        W91823   8.811  31.104   0.797
28265W        W91824  43.926  30.550  12.943
28266W        W91825   5.924  32.430  11.422
28267W        W91826  25.601  36.860  13.514
28268W        W91827   6.912  42.509   0.433
28269W        W91828   7.739  29.022   2.886
28270W        W91829  31.043  40.538  13.360
28271W        W91830  20.747  26.689  14.286
28272W        W91831  10.759  15.257   4.310
28273W        W91832  34.572  11.326   4.762
28274W        W91833  22.667  28.645   4.206
28275W        W91834  20.260  10.266   4.274
28276W        W91835   2.762  16.628   3.773
28277W        W91836  25.661  35.510   2.194
28278W        W91837  12.289  43.477   3.314
28279W        W91838  12.736  29.515   4.254
28280W        W91839  31.113   8.280   1.435
28281W        W91840   5.350  33.585  12.383
28282W        W91841  11.835  29.974  13.052
28283W        W91842  23.179  17.120   1.249
28284W        W91843  16.291  11.763   1.226
28285W        W91844  18.236  13.685   0.394
28286W        W91845   6.297  27.526  13.026
28287W        W91846  24.196  22.658   2.853
28288W        W91847  27.475   0.437  11.872
28289W        W91848  30.035  43.810  13.014
28290W        W91849  32.631  27.670  11.398
28291W        W91850  31.548  39.836  12.050
28292W        W91851   4.383  39.858   1.745
28293W        W91852  21.758   2.966   2.400
28294W        W91853   5.761   4.375   2.835
28295W        W91854  33.012  10.800   3.379
28296W        W91855  24.035  23.071  11.055
28297W        W91856  31.107  25.028  10.640
28298W        W91857   5.812  33.621  11.879
28299W        W91858  38.907  23.548   2.835
28300W        W91859  44.412  32.558   3.835
28301W        W91860  17.265  27.053   2.401
28302W        W91861   5.792  44.786  11.494
28303W        W91862  37.901  42.341  13.521
28304W        W91863  15.179   6.413   1.703
28305W        W91864   9.358   9.667   0.761
28306W        W91865  37.435  40.912   0.947
28307W        W91866  20.591  25.611   0.250
28308W        W91867  35.504  31.915  13.813
28309W        W91868   2.915  11.232   4.275
28310W        W91869  44.914  12.713   4.829
28311W        W91870   1.423  27.631  10.538
28312W        W91871  21.077   9.168   4.277
28313W        W91872   4.885  13.171   0.349
28314W        W91873  19.193  28.576   1.449
28315W        W91874   8.847  23.650   0.250
28316W        W91875  20.710  23.603  14.497
28317W        W91876  20.624   5.196  14.345
28318W        W91877   2.465  21.577   1.846
28319W        W91878  25.566  24.990   3.639
28320W        W91879  31.471  20.061   0.834
28321W        W91880  23.599  39.465   1.382
28322W        W91881  21.612  22.746   2.271
28323W        W91882   7.222   5.737   3.212
28324W        W91883   5.255  28.551   2.177
28325W        W91884   3.306  18.099  14.852
28326W        W91885  12.327  17.212  13.836
28327W        W91886  20.552   4.878  11.041
28328W        W91887  40.020   1.909  13.380
28329W        W91888  19.644  20.202   4.613
28330W        W91889   3.445  22.539  11.969
28331W        W91890   3.255  26.535  14.821
28332W        W91891  41.919  22.699  11.002
28333W        W91892  11.326   5.395  12.495
28334W        W91893  25.206  42.835  14.800
28335W        W91894   5.689   9.263   2.820
28336W        W91895  15.721  20.173  14.761
28337W        W91896  23.008  25.688   0.960
28338W        W91897  25.043  31.528  14.971
28339W        W91898   6.324  37.520  14.802
28340W        W91899   4.851  44.946   0.451
28341W        W91900  17.131   5.869  11.906
28342W        W91901   4.296  17.074  11.935
28343W        W91902  23.033   9.839   2.355
28344W        W91903   7.315  39.011  13.965
28345W        W91904  21.565   5.914   1.419
28346W        W91905  28.592  40.931  12.468
28347W        W91906  29.018   0.386  10.537
28348W        W91907  31.484  15.630  12.891
28349W        W91908  19.550  43.993  13.445
28350W        W91909   0.914   1.889   1.336
28351W        W91910  40.861  28.672   3.185
28352W        W91911   2.352  41.963   4.740
28353W        W91912  38.937  32.107   4.316
28354W        W91913  38.889  25.176   2.701
28355W        W91914  14.250   1.436   1.394
28356W        W91915  13.812   4.889  12.522
28357W        W91916  27.968  30.932   2.362
28358W        W91917  27.010   6.232  14.386
28359W        W91918  27.182  27.159   2.271
28360W        W91919  21.165  37.884  14.977
28361W        W91920  32.526  29.964  14.804
28362W        W91921  25.484  16.689  10.938
28363W        W91922   4.268   2.741  13.852
28364W        W91923   7.887  18.630   4.728
28365W        W91924  41.389  29.068   0.875
28366W        W91925  28.639   8.252   3.193
28367W        W91926   5.811  38.410  13.016
28368W        W91927  16.100  44.408  11.420
28369W        W91928   9.733  43.858   1.232
28370W        W91929  23.143  35.001   0.796
28371W        W91930  41.344   8.656  14.416
28372W        W91931   8.306  21.684   3.777
28373W        W91932   6.776   4.715   2.707
28374W        W91933  39.894  38.900   4.790
28375W        W91934   9.881   4.757  14.919
28376W        W91935  29.100  24.075   3.338
28377W        W91936  34.540  33.494  10.512
28378W        W91937  16.681   4.829   2.840
28379W        W91938   2.344   4.822   4.819
28380W        W91939  16.619  42.317   4.296
28381W        W91940  33.435  20.257  14.435
28382W        W91941  11.811  43.982   3.189
28383W        W91942  41.912  18.685  13.955
28384W        W91943  37.933  13.151  14.841
28385W        W91944   0.471  26.483  11.606
28386W        W91945  31.454   2.395   0.752
28387W        W91946  30.469  20.702  11.995
28388W        W91947   1.413  38.369  10.922
28389W        W91948  21.724  30.150  14.987
28390W        W91949   0.817  19.065  10.418
28391W        W91950  20.113  27.033   4.833
28392W        W91951  19.168  12.633   1.342
28393W        W91952  11.337  34.569  13.000
28394W        W91953   3.856  15.154   0.765
28395W        W91954  16.764  39.927  14.915
28396W        W91955   0.823  21.100  13.991
28397W        W91956  21.187  39.336   1.818
28398W        W91957  22.664  16.707   0.957
28399W        W91958  29.035  23.519  14.435
28400W        W91959   0.815  13.328  10.463
28401W        W91960  27.186  29.558   3.680
28402W        W91961   5.201   7.666  13.319
28403W        W91962   3.423  14.286  11.080
28404W        W91963  27.502   9.342   9.440
28405W        W91964  22.561  22.117  11.894
28406W        W91965  30.556  31.486  14.481
28407W        W91966  32.126  40.977  10.619
28408W        W91967  12.638  35.498   1.224
28409W        W91968  18.623   4.864   3.150
28410W        W91969   3.377  32.133   1.251
28411W        W91970  31.900   8.702   0.790
28412W        W91971  19.609  44.833   1.261
28413W        W91972  43.972  12.855  11.002
28414W        W91973  17.721  34.018  10.927
28415W        W91974  44.439   6.332  10.957
28416W        W91975  35.035   7.246   3.265
28417W        W91976   0.407  28.542  11.918
28418W        W91977  36.427   3.452  13.378
28419W        W91978  35.902  33.902   1.284
28420W        W91979  29.658  37.955  12.058
28421W        W91980   4.870   6.803   3.711
28422W        W91981  13.164  15.141   4.668
28423W        W91982   5.804  13.802   3.333
28424W        W91983  20.270  38.392   0.300
28425W        W91984  34.583   6.237  12.065
28426W        W91985   3.900  15.092  11.481
28427W        W91986  37.065  38.378   2.875
28428W        W91987   3.728   5.911   1.229
28429W        W91988  30.608   1.785   0.886
28430W        W91989  24.163   8.337   1.788
28431W        W91990  25.597  42.793  14.983
28432W        W91991   4.378  20.266  11.599
28433W        W91992  13.250  39.385  13.359
28434W        W91993  27.643  16.649   1.233
28435W        W91994  10.248  29.514   1.361
28436W        W91995  17.278  25.029  14.883
28437W        W91996  18.053  41.309   3.801
28438W        W91997   8.803  11.820  12.505
28439W        W91998  15.605  36.895   3.763
28440W        W91999  21.607  40.878   0.318
28441W        W92000  35.914   7.908   1.732
28442W        W92001   8.803   8.167   3.279
28443W        W92002  42.998  17.609   3.840
28444W        W92003  43.504  25.063   3.659
28445W        W92004  34.583  38.491   2.841
28446W        W92005  13.195  31.118   0.408
28447W        W92006  26.601  28.582   2.865
28448W        W92007  12.182   9.291  12.532
28449W        W92008  24.995  38.859   0.831
28450W        W92009  33.550   9.810   4.300
28451W        W92010  38.400  29.426   3.847
28452W        W92011  17.788  40.032   4.352
28453W        W92012  39.881  23.644   4.129
28454W        W92013  16.806  38.994   3.707
28455W        W92014  27.528  25.091  14.862
28456W        W92015   1.307  28.667  11.014
28457W        W92016   8.216  41.953  11.435
28458W        W92017  24.206   3.420  11.955
28459W        W92018  43.980  39.056  12.532
28460W        W92019   7.855   9.658  13.485
28461W        W92020  34.477  36.568  11.006
28462W        W92021   0.345   0.276  14.298
28463W        W92022  18.650  20.639   1.223
28464W        W92023  23.111   0.794  10.898
28465W        W92024  13.842   2.867  10.447
28466W        W92025  30.128  11.256  11.554
28467W        W92026  34.950   2.772   2.843
28468W        W92027  14.654  37.370   2.338
28469W        W92028  26.645  24.592  12.991
28470W        W92029  36.014  32.494  13.382
28471W        W92030  24.514  27.457  10.458
28472W        W92031   1.305   0.748  14.393
28473W        W92032  30.648  35.068  11.428
28474W        W92033  33.582   4.449  13.363
28475W        W92034  26.537  38.030   3.743
28476W        W92035   5.780  34.875  13.999
28477W        W92036  22.734  12.636   2.318
28478W        W92037   1.752  24.599   3.308
28479W        W92038  26.659  21.078   2.382
28480W        W92039  33.995  38.989  10.432
28481W        W92040   6.923  19.053   4.229
28482W        W92041  12.766  20.668  13.311
28483W        W92042  11.783  13.319   4.335
28484W        W92043   6.803   5.297  12.988
28485W        W92044  25.117  44.897   4.179
28486W        W92045  16.727  18.689   3.209
28487W        W92046  40.348  11.129  12.011
28488W        W92047  17.144  21.618  13.951
28489W        W92048  12.834  38.820  10.563
28490W        W92049  34.980  42.388   3.693
28491W        W92050  30.649  44.375   3.369
28492W        W92051  13.815  15.648  11.551
28493W        W92052  18.221  21.214  10.497
28494W        W92053   5.202  21.542   4.600
28495W        W92054   8.289  44.350   3.651
28496W        W92055  36.521  34.973  10.410
28497W        W92056  22.996  21.570   4.682
28498W        W92057  44.403  41.011  12.498
28499W        W92058  15.110   4.790  13.922
28500W        W92059  24.691  18.686  14.402
28501W        W92060   4.215  15.144   0.314
28502W        W92061  38.917  14.655   2.217
28503W        W92062   6.267  15.251  13.897
28504W        W92063   0.829  13.237   3.710
28505W        W92064  30.549   8.748   0.818
28506W        W92065  20.576   6.297   2.265
28507W        W92066  22.550  26.175  11.970
28508W        W92067  14.680  44.801  12.021
28509W        W92068  33.555  42.446  11.471
28510W        W92069  14.653  10.820  11.038
28511W        W92070  16.785  39.019   4.709
28512W        W92071   3.224  10.842   3.348
28513W        W92072  28.078  43.282  11.005
28514W        W92073  20.220  43.936  13.541
28515W        W92074  18.738  36.030  12.091
28516W        W92075  34.438  32.562  12.376
28517W        W92076  21.672  24.188   0.355
28518W        W92077  44.788   3.326   0.368
28519W        W92078  37.566  41.809  10.514
28520W        W92079  35.489  31.569  14.437
28521W        W92080  35.074  30.962  13.441
28522W        W92081   4.419  40.478  13.383
28523W        W92082  39.477  16.567  13.884
28524W        W92083  19.225  17.230  12.980
28525W        W92084  23.009  23.150   4.270
28526W        W92085  31.646  30.128   4.298
28527W        W92086  20.626   4.788   1.824
28528W        W92087  14.719  21.542  11.485
28529W        W92088  42.868   1.878  12.913
28530W        W92089  18.059  24.610   4.810
28531W        W92090  33.036  17.595  11.063
28532W        W92091  44.490  22.594   0.943
28533W        W92092  25.033   5.430   2.387
28534W        W92093  23.202  19.631   0.893
28535W        W92094  16.148  44.978   2.219
28536W        W92095  34.884   0.446   4.777
28537W        W92096  43.768  33.447  14.491
28538W        W92097  34.432  11.237  13.442
28539W        W92098  15.156   6.317  14.276
28540W        W92099  15.170  42.405  14.975
28541W        W92100  32.117  12.321  12.979
28542W        W92101  16.115  32.070  14.826
28543W        W92102  42.809  19.087  13.799
28544W        W92103   4.837   4.820  10.467
28545W        W92104  15.185  33.618   1.903
28546W        W92105   2.282  25.475   1.265
28547W        W92106  31.136   5.927   2.852
28548W        W92107  26.130  29.484   3.867
28549W        W92108  15.650  35.530  11.507
28550W        W92109  27.993  16.590  11.387
28551W        W92110   5.919  27.092   1.329
28552W        W92111  27.509   7.886   1.444
28553W        W92112  44.372  36.431  11.511
28554W        W92113  23.598  43.018   4.781
28555W        W92114  15.589  17.114   4.828
28556W        W92115   6.297  32.042  12.560
28557W        W92116   1.811   3.285  11.380
28558W        W92117   0.873   2.827  12.513
28559W        W92118  33.562  14.188  10.597
28560W        W92119  16.670  12.332   3.368
28561W        W92120  10.263  40.322  13.478
28562W        W92121  17.582   1.793   2.241
28563W        W92122  22.215   8.834   3.320
28564W        W92123  25.712  26.645   3.232
28565W        W92124  38.000  13.836   1.889
28566W        W92125  32.047  26.538   3.246
28567W        W92126   7.910   0.357  12.417
28568W        W92127  26.649  25.515  11.923
28569W        W92128  20.619  38.940  12.529
28570W        W92129   9.282  44.905  14.016
28571W        W92130  26.630  17.187  11.405
28572W        W92131  41.860  43.828  14.007
28573W        W92132  35.470  34.387  10.622
28574W        W92133  28.438  43.876  11.017
28575W        W92134  37.432   3.312  12.576
28576W        W92135  16.125  36.957  13.909
28577W        W92136  15.133  22.709   3.839
28578W        W92137  11.811  11.646  11.006
28579W        W92138  11.145   5.797   4.321
28580W        W92139  35.087  38.460   2.850
28581W        W92140  19.697   7.869  11.863
28582W        W92141  29.020  20.137   3.660
28583W        W92142  25.982   3.873   1.703
28584W        W92143   5.245  43.869   1.855
28585W        W92144   0.870  38.476  11.388
28586W        W92145  33.021  31.041  14.985
28587W        W92146   0.338  14.298   0.760
28588W        W92147   9.680  21.687  14.419
28589W        W92148   7.412  43.969  13.027
28590W        W92149  23.691   4.841   1.279
28591W        W92150   6.227  14.215  14.960
28592W        W92151  13.121  37.854  12.458
28593W        W92152  33.005  24.514  14.889
28594W        W92153  29.510  32.546   1.897
28595W        W92154  14.630  20.174   2.840
28596W        W92155   3.893  42.790   4.233
28597W        W92156  30.445  33.103  14.427
28598W        W92157  36.432  39.366   1.426
28599W        W92158  16.590  23.009   2.825
28600W        W92159  16.630  40.420   3.854
28601W        W92160  16.586  22.243   0.406
28602W        W92161  18.190  32.887  12.838
28603W        W92162   2.821   1.771   2.355
28604W        W92163  21.132   5.222   2.408
28605W        W92164  18.641  11.174  12.075
28606W        W92165  16.732  31.460  12.029
28607W        W92166  33.986  13.109  10.534
28608W        W92167  44.983  26.633  13.983
28609W        W92168  32.414   8.169   5.088
28610W        W92169  23.587   3.417  13.015
28611W        W92170  32.110   4.206  12.577
28612W        W92171  37.915   0.813  14.278
28613W        W92172   3.869  10.646  12.573
28614W        W92173  14.787   3.278  14.947
28615W        W92174  35.099  15.238   2.722
28616W        W92175  11.857  18.785  11.125
28617W        W92176  38.908  20.731   3.650
28618W        W92177  35.495  21.097   0.881
28619W        W92178  14.649  31.951  11.917
28620W        W92179  43.988  24.675  14.988
28621W        W92180   5.844  32.985  11.607
28622W        W92181  12.272   7.848   2.903
28623W        W92182  14.126  32.566   0.878
28624W        W92183   6.721  31.432   1.254
28625W        W92184  30.533  42.337  14.807
28626W        W92185  12.724  42.820  13.458
28627W        W92186  10.357  22.173  10.037
28628W        W92187  28.177  23.575   5.305
28629W        W92188  30.073  31.011  14.322
28630W        W92189   6.678  34.391  10.951
28631W        W92190  16.584  23.062   5.785
28632W        W92191  44.933  34.371  13.984
28633W        W92192  21.734  21.748   0.882
28634W        W92193  43.479   1.807  12.989
28635W        W92194  28.164  36.094  12.515
28636W        W92195  12.194  16.215   5.620
28637W        W92196  15.822  25.991   4.711
28638W        W92197  25.986  38.847   1.894
28639W        W92198  43.803  39.886  14.883
28640W        W92199  11.665  37.547   4.124
28641W        W92200  42.906  43.282   2.813
28642W        W92201  15.756  25.527   2.335
28643W        W92202  15.111  13.765  13.427
28644W        W92203   1.293  31.476   4.270
28645W        W92204  21.117  37.073   1.770
28646W        W92205  42.394  37.869  13.528
28647W        W92206  42.402   6.218   2.755
28648W        W92207  26.151  39.969   3.853
28649W        W92208  31.496   6.262   3.665
28650W        W92209  41.506  15.635   2.246
28651W        W92210  25.561  21.180  10.612
28652W        W92211  25.127  11.865   4.793
28653W        W92212   0.779  17.093  14.353
28654W        W92213  26.014   5.228  11.877
28655W        W92214  33.036  10.850   3.719
28656W        W92215  21.573  25.654  14.437
28657W        W92216   3.755  41.031  14.966
28658W        W92217  25.642  25.610   0.301
28659W        W92218  10.372   5.329  13.993
28660W        W92219  32.536  32.124  12.018
28661W        W92220  38.468   0.794  12.526
28662W        W92221  41.016  10.295   4.345
28663W        W92222  39.000  12.167   4.722
28664W        W92223  11.286  28.100   2.294
28665W        W92224  28.948  32.022  14.848
28666W        W92225  21.205  35.052   1.333
28667W        W92226  35.566  37.412  10.953
28668W        W92227  38.873   2.893   4.811
28669W        W92228   1.480  27.102  10.439
28670W        W92229  37.475  20.096   3.752
28671W        W92230  18.602  24.052   0.864
28672W        W92231  22.079   0.269   1.850
28673W        W92232  34.556  20.259   4.325
28674W        W92233  24.570  13.845   2.224
28675W        W92234  30.050  18.652   1.305
28676W        W92235   2.381  39.053  11.921
28677W        W92236  11.289   7.830   9.538
28678W        W92237  38.407  17.301  12.900
28679W        W92238  33.065  39.054   2.708
28680W        W92239  20.671  15.606  10.544
28681W        W92240  44.768  26.026   3.198
28682W        W92241  28.662  33.126   1.830
28683W        W92242  34.388  23.690   4.277
28684W        W92243  33.409  15.746   4.720
28685W        W92244   3.727  37.011  12.862
28686W        W92245  18.285   9.657   1.364
28687W        W92246  43.935  17.162   0.833
28688W        W92247  40.870  34.449   1.371
28689W        W92248  28.535  33.942  13.357
28690W        W92249   3.261  14.748   0.915
28691W        W92250   8.351  36.432  12.823
28692W        W92251   8.797  27.514   0.734
28693W        W92252  14.593   3.228  12.015
28694W        W92253  37.400  23.095   1.393
28695W        W92254   3.900  18.196   4.819
28696W        W92255  21.690  34.912  14.416
28697W        W92256  21.635  29.115  12.405
28698W        W92257  37.510  18.700   2.255
28699W        W92258  21.527  16.186   2.862
28700W        W92259  41.428  37.433  12.429
28701W        W92260   0.752  18.601  14.881
28702W        W92261   6.836   7.675  11.439
28703W        W92262  39.818  25.173  12.979
28704W        W92263   0.436   5.889   4.620
28705W        W92264  21.066  26.128  14.988
28706W        W92265   3.292  33.497   4.743
28707W        W92266  27.093   6.258  12.969
28708W        W92267  40.951  41.963  12.871
28709W        W92268  10.735  30.103   0.904
28710W        W92269  37.967  30.604  10.596
28711W        W92270   3.895  27.146  10.950
28712W        W92271  43.445  39.463   0.944
28713W        W92272   3.870  18.650  11.510
28714W        W92273   8.735  36.947  11.867
28715W        W92274  18.591  32.989   3.274
28716W        W92275  33.588   8.708   1.347
28717W        W92276   4.894  22.133  10.076
28718W        W92277  31.609  11.670   2.219
28719W        W92278  41.418  11.302  14.875
28720W        W92279  33.411  36.534   0.878
28721W        W92280  42.524  38.453  10.574
28722W        W92281   9.670   0.743  14.485
28723W        W92282  19.763  40.946   2.277
28724W        W92283  30.107   1.857  11.609
28725W        W92284  20.677  19.611   4.347
28726W        W92285  11.344  42.318  10.545
28727W        W92286   2.468  30.103   4.231
28728W        W92287   0.965   1.421  14.949
28729W        W92288  27.142  34.396   4.623
28730W        W92289  15.193   1.824  10.623
28731W        W92290   4.320  42.905  12.370
28732W        W92291  40.844  26.484   0.735
28733W        W92292  11.250  14.756   1.218
28734W        W92293   2.848  22.711  14.402
28735W        W92294   4.212  15.612   0.874
28736W        W92295  29.456  16.237  12.039
28737W        W92296  11.849  38.052  10.038
28738W        W92297  20.577  40.813  13.805
28739W        W92298  10.829  35.582  11.467
28740W        W92299  32.592  40.466  11.434
28741W        W92300   2.904  41.462  14.340
28742W        W92301  42.299   8.380  12.399
28743W        W92302   1.857  21.696  10.554
28744W        W92303  28.659  37.920   3.336
28745W        W92304   2.858  13.650   0.860
28746W        W92305  32.580  38.031   4.284
28747W        W92306  22.044   8.819   3.834
28748W        W92307  39.420   4.364  13.872
28749W        W92308  11.859  42.437  14.485
28750W        W92309  44.358   6.306   2.741
28751W        W92310  31.975  11.166   0.784
28752W        W92311  26.078   6.287   3.658
28753W        W92312  31.561  22.015   1.356
28754W        W92313   3.403  40.950   1.856
28755W        W92314  43.302  43.855   3.149
28756W        W92315  41.941  41.417  14.774
28757W        W92316  31.148  12.308  13.840
28758W        W92317   1.359  11.763   4.745
28759W        W92318  28.002   5.410   3.295
28760W        W92319  39.394  16.661  10.622
28761W        W92320  20.667  28.603  14.912
28762W        W92321   7.689  21.581   0.408
28763W        W92322  15.222  33.976   4.281
28764W        W92323  13.328  16.746  12.460
28765W        W92324  30.131  40.961   2.724
28766W        W92325  15.633  19.649  12.542
28767W        W92326  33.625  16.169   4.284
28768W        W92327  30.111  35.404  10.917
28769W        W92328  22.502  29.112   0.320
28770W        W92329  44.840  41.917   1.860
28771W        W92330  43.504  11.217  11.995
28772W        W92331  16.812  33.034   1.262
28773W        W92332  25.977  14.142  13.006
28774W        W92333  25.054  25.511   5.317
28775W        W92334  10.656  33.893  11.030
28776W        W92335  32.509  39.552  11.892
28777W        W92336   0.317  12.240  11.561
28778W        W92337  16.571   8.327   4.794
28779W        W92338  12.697  16.126   0.318
28780W        W92339  28.171  16.124   2.391
28781W        W92340  34.579   0.405  13.506
28782W        W92341  12.768  19.577  11.028
28783W        W92342  37.080  24.073   2.754
28784W        W92343  26.190   4.865  11.061
28785W        W92344  41.384  43.942   4.819
28786W        W92345   1.777   8.891   0.250
28787W        W92346   9.775  38.956  10.545
28788W        W92347  34.384  38.352  12.496
28789W        W92348   0.831  42.951   0.943
28790W        W92349  17.587  11.789  11.980
28791W        W92350   1.736   4.904  12.042
28792W        W92351   5.271  23.595   3.662
28793W        W92352  32.451  17.068   0.746
28794W        W92353   2.241  22.551   2.347
28795W        W92354   7.742  12.806   2.837
28796W        W92355  20.187  35.078   0.846
28797W        W92356  39.498  33.380   3.285
28798W        W92357  38.433   1.329  14.339
28799W        W92358  40.475   8.707   3.863
28800W        W92359   6.715  31.958   3.236
28801W        W92360  13.805  39.354  14.806
28802W        W92361  10.728  44.777  11.976
28803W        W92362  11.829  42.321  14.783
28804W        W92363  38.468   3.746  12.987
28805W        W92364  42.980  42.906  10.890
28806W        W92365  20.555  43.351   2.309
28807W        W92366  31.100  25.522   0.340
28808W        W92367  25.133  24.624   4.755
28809W        W92368  18.291   2.318   2.768
28810W        W92369  37.856  17.573   4.158
28811W        W92370  29.615  16.666  11.001
28812W        W92371  42.280  14.202   5.317
28813W        W92372  28.142  43.959   1.898
28814W        W92373   6.685  20.266  13.312
28815W        W92374   3.738  26.661  14.318
28816W        W92375  28.066  10.841   3.267
28817W        W92376   3.813  32.075  12.954
28818W        W92377  42.398  14.114   4.781
28819W        W92378  31.119  13.619   1.270
28820W        W92379  23.207   4.235   0.415
28821W        W92380  10.357   7.696   0.841
28822W        W92381  25.073  14.106   2.787
28823W        W92382  27.630  32.402   1.413
28824W        W92383   7.364  11.327   0.939
28825W        W92384  40.369  23.699   3.731
28826W        W92385  14.143  41.406  10.423
28827W        W92386  27.644  38.542   0.447
28828W        W92387   5.880   3.270  12.947
28829W        W92388  16.211  34.912  11.093
28830W        W92389  36.463   3.766   1.739
28831W        W92390  12.806  24.693  12.832
28832W        W92391   4.228   1.337   3.860
28833W        W92392   7.329  35.987  13.401
28834W        W92393  29.555  12.313  10.434
28835W        W92394  23.609  32.627  14.029
28836W        W92395  15.302  28.996  14.506
28837W        W92396   9.303  35.883   2.274
28838W        W92397  13.677  29.458   1.419
28839W        W92398   2.744   8.226  13.964
28840W        W92399  13.167  29.053   4.779
28841W        W92400   3.903  18.067   2.352
28842W        W92401   7.704   9.887  11.607
28843W        W92402  25.657  44.942  13.892
28844W        W92403  29.118  26.066   1.317
28845W        W92404  39.478  11.686  12.921
28846W        W92405  13.641  37.472  12.354
28847W        W92406  17.618  32.911   3.762
28848W        W92407   2.330  21.242   3.146
28849W        W92408  17.111  16.254  12.569
28850W        W92409  30.426   7.754  12.071
28851W        W92410   7.195  35.049   3.215
28852W        W92411  35.561   0.381  14.320
28853W        W92412   3.907  20.737  11.862
28854W        W92413  27.608  36.430   3.640
28855W        W92414  21.153  27.462   9.968
28856W        W92415  30.060  20.033  14.005
28857W        W92416   1.975  39.056  13.435
28858W        W92417   8.369   5.756  11.408
28859W        W92418  21.094  43.941  12.952
28860W        W92419   8.341  36.362   3.215
28861W        W92420   4.828  13.143   2.835
28862W        W92421  29.168  29.623   1.864
28863W        W92422  12.759  24.028  13.532
28864W        W92423  23.136  42.349   1.933
28865W        W92424   0.905   9.759  14.935
28866W        W92425  12.131  35.588  12.861
28867W        W92426   9.739  39.927   2.834
28868W        W92427  24.175  16.609   4.203
28869W        W92428  18.105  20.592   4.243
28870W        W92429  24.145  15.287   0.918
28871W        W92430  40.019   9.867   0.951
28872W        W92431   3.343  41.383   3.267
28873W        W92432   8.757  26.194  10.442
28874W        W92433   7.387   8.245  10.988
28875W        W92434  20.658  41.891   1.271
28876W        W92435  13.766  14.139   4.282
28877W        W92436   0.769   2.328   0.397
28878W        W92437   0.833  30.534  11.877
28879W        W92438   8.744  27.197  12.443
28880W        W92439   4.295  28.449  13.947
28881W        W92440  13.755  39.433  12.963
28882W        W92441  10.724  18.240  11.077
28883W        W92442   1.372  32.080   1.919
28884W        W92443  32.454   7.383  10.624
28885W        W92444  35.974   2.779   3.774
28886W        W92445   9.799  12.166  10.111
28887W        W92446  44.824  28.941  12.856
28888W        W92447  24.151   8.162  14.467
28889W        W92448  17.262  22.736  11.555
28890W        W92449   9.379  19.154   2.361
28891W        W92450  10.853  19.609  14.344
28892W        W92451  34.570  30.059   0.800
28893W        W92452  30.546  17.643  14.897
28894W        W92453  40.377  34.057   0.282
28895W        W92454  38.442  35.077   5.275
28896W        W92455  40.311  31.490   3.280
28897W        W92456  19.705  32.960   1.305
28898W        W92457  17.089   7.809   1.448
28899W        W92458  29.631  22.194   0.778
28900W        W92459  14.821   6.692  10.995
28901W        W92460  28.946  27.624  12.081
28902W        W92461  15.665   1.350  14.501
28903W        W92462  24.701  18.145  14.295
28904W        W92463  34.121  18.064   1.326
28905W        W92464  12.699  23.216  10.901
28906W        W92465   6.902  34.896  13.510
28907W        W92466  35.540  32.623   0.266
28908W        W92467   6.379  14.190   1.909
28909W        W92468   0.783  38.875   0.954
28910W        W92469  32.907  19.711   4.622
28911W        W92470   9.386   1.897  14.976
28912W        W92471  28.972  19.739   2.845
28913W        W92472  21.197   1.255   2.383
28914W        W92473  22.599   0.248  14.280
28915W        W92474  20.673  18.232  11.969
28916W        W92475  27.137  29.580   1.808
28917W        W92476  39.811  22.522   2.778
28918W        W92477  44.838   6.846   3.306
28919W        W92478  36.555  40.414  10.154
28920W        W92479  24.010  27.452  10.624
28921W        W92480  16.202  11.657   4.309
28922W        W92481  21.107  21.133  11.912
28923W        W92482  14.227   2.843  11.114
28924W        W92483  24.200  10.297   2.895
28925W        W92484  44.844  21.733   0.874
28926W        W92485  28.021  35.380   1.895
28927W        W92486  31.428  15.594   0.890
28928W        W92487  20.669  44.357  11.440
28929W        W92488   9.693  16.077   3.713
28930W        W92489  17.628   7.187  10.456
28931W        W92490  44.833  36.534  10.899
28932W        W92491  11.312  28.574   2.852
28933W        W92492  32.989   0.442   0.308
28934W        W92493  19.594   5.756  14.773
28935W        W92494  23.100  18.120  13.056
28936W        W92495  37.389  15.177   0.735
28937W        W92496  36.501  18.286  10.029
28938W        W92497  44.964  19.538  10.942
28939W        W92498  16.795   5.304   4.638
28940W        W92499  21.179  19.735  14.945
28941W        W92500  14.338  37.076   0.817
28942W        W92501  10.831  41.036   2.374
28943W        W92502  12.359  23.083  13.487
28944W        W92503  42.793  19.602   2.860
28945W        W92504  38.831  10.347   3.821
28946W        W92505  22.090  25.219   3.865
28947W        W92506  44.981   0.821   2.890
28948W        W92507  27.525   8.745   1.889
28949W        W92508   4.378  30.973  13.332
28950W        W92509  34.510  10.351  14.299
28951W        W92510  10.170  16.639  12.009
28952W        W92511  16.167  30.557  13.990
28953W        W92512  14.249  15.114   1.837
28954W        W92513  11.273   7.346   2.380
28955W        W92514   4.904  34.987  11.119
28956W        W92515   7.721  18.567   2.328
28957W        W92516   7.294  13.818   1.411
28958W        W92517   5.784  10.367  10.132
28959W        W92518  18.059  33.471   1.308
28960W        W92519  27.495  33.437   4.345
28961W        W92520  39.560  21.558   0.446
28962W        W92521  19.677  40.970   2.786
28963W        W92522  28.677  40.500  13.343
28964W        W92523   7.271  30.121  12.995
28965W        W92524  10.734   4.907  11.069
28966W        W92525  19.582   8.751   3.358
28967W        W92526   5.346  34.003   3.206
28968W        W92527  28.067  39.863   1.384
28969W        W92528  26.028  35.054  14.306
28970W        W92529  18.652  43.999   3.684
28971W        W92530  27.514  10.829  12.379
28972W        W92531  24.539  17.642  11.386
28973W        W92532  25.694  13.323   9.652
28974W        W92533  40.358  17.676   3.148
28975W        W92534  18.721  44.794  14.299
28976W        W92535   4.905   3.792  12.540
28977W        W92536  36.999  44.907  13.882
28978W        W92537  44.491  12.352  14.882
28979W        W92538  24.155   4.430  11.396
28980W        W92539  32.475  39.851  14.277
28981W        W92540  20.641  42.032   4.273
28982W        W92541  11.216  34.969  13.950
28983W        W92542  16.274  30.041   0.727
28984W        W92543  30.150   3.902  11.009
28985W        W92544   8.672   6.313  13.492
28986W        W92545  36.475  18.106   1.776
28987W        W92546  16.304   5.765   5.140
28988W        W92547  43.997   2.270  10.598
28989W        W92548  41.419  25.607   4.302
28990W        W92549  23.023   7.182  11.422
28991W        W92550  15.099  39.405   1.335
28992W        W92551  13.794  27.446  13.960
28993W        W92552  23.209   7.216   2.798
28994W        W92553  18.130  13.739  12.357
28995W        W92554  44.451  44.756  14.900
28996W        W92555  28.024  25.477  10.502
28997W        W92556  12.654   3.806   3.648
28998W        W92557  41.995  28.092  10.429
28999W        W92558   0.875  13.764   3.199
29000W        W92559  23.204  13.622  14.773
29001W        W92560  38.872  30.007   5.185
29002W        W92561   3.729  36.400   2.866
29003W        W92562  36.575  40.480   0.843
29004W        W92563  19.270  43.503   1.405
29005W        W92564  10.287  34.479  12.406
29006W        W92565  27.967   7.801   0.275
29007W        W92566  11.256  41.478  12.482
29008W        W92567   8.207   3.723   3.703
29009W        W92568  25.054  27.045   4.295
29010W        W92569  26.577   0.964  10.989
29011W        W92570  40.862  39.390  14.778
29012W        W92571  23.581  37.573  13.857
29013W        W92572  30.968  31.126   2.382
29014W        W92573   0.780  19.545   2.696
29015W        W92574  29.023   0.414   0.384
29016W        W92575   7.347  31.514  14.444
29017W        W92576  34.882  37.956  12.051
29018W        W92577  34.489  16.281   0.788
29019W        W92578  30.647  43.884   4.696
29020W        W92579  37.359  42.306  12.960
29021W        W92580  10.738  43.377  11.447
29022W        W92581   5.396  19.276  13.479
29023W        W92582   8.677  38.851  12.579
29024W        W92583  36.949  15.795   0.794
29025W        W92584  14.800  30.450   4.204
29026W        W92585  32.633  15.602   1.904
29027W        W92586   9.356  39.816  11.546
29028W        W92587  18.178   7.268  12.373
29029W        W92588  33.953  30.033  14.314
29030W        W92589  30.921  33.043   3.163
29031W        W92590  32.630  24.022   1.329
29032W        W92591  41.368  41.830  10.432
29033W        W92592  23.489   6.794   0.347
29034W        W92593  22.597  22.628  12.854
29035W        W92594   6.306  42.943   2.255
29036W        W92595  33.938  13.675   4.672
29037W        W92596  12.300  41.442  10.638
29038W        W92597  42.019  22.504  12.499
29039W        W92598  25.127  15.300  14.855
29040W        W92599   7.872  41.302  13.968
29041W        W92600  13.623  15.823   3.734
29042W        W92601  18.548  38.073  11.106
29043W        W92602  25.516   2.852  13.349
29044W        W92603  11.232   8.268  13.916
29045W        W92604   2.368  21.120   2.253
29046W        W92605  12.279  35.986   2.784
29047W        W92606  42.356   7.386  11.967
29048W        W92607  19.595  24.140  13.353
29049W        W92608  24.036  19.535  10.919
29050W        W92609   0.353  31.419   1.891
29051W        W92610  28.963  16.214   0.780
29052W        W92611   6.727   2.396   1.697
29053W        W92612  18.762   6.415  12.003
29054W        W92613  41.858   4.298   0.369
29055W        W92614  11.672  16.251  12.020
29056W        W92615   1.269  15.757   0.860
29057W        W92616   9.295  17.286  12.954
29058W        W92617   9.316  26.202   1.370
29059W        W92618   2.842  34.517   2.213
29060W        W92619  34.996  19.591  13.063
29061W        W92620  10.357   9.253   2.772
29062W        W92621  34.982   8.224   0.928
29063W        W92622  35.852  36.019  12.542
29064W        W92623   7.860  13.308   3.212
29065W        W92624  29.108   4.223   2.394
29066W        W92625  17.602  24.220   2.687
29067W        W92626   0.339  13.704  14.838
29068W        W92627  33.045  22.029  12.985
29069W        W92628   3.915  23.661  14.487
29070W        W92629  14.115  38.428  10.511
29071W        W92630  10.251   9.645  13.986
29072W        W92631  34.963  37.467  12.534
29073W        W92632  29.110  15.151  11.084
29074W        W92633  40.512  44.447   3.369
29075W        W92634  23.210  15.086   0.862
29076W        W92635  14.833   4.737   2.359
29077W        W92636  21.205   6.260  11.380
29078W        W92637  22.731  18.564   0.785
29079W        W92638  12.824  33.938   5.668
29080W        W92639   4.241  19.270  13.886
29081W        W92640  41.918  27.188  11.001
29082W        W92641   6.329   7.355  13.964
29083W        W92642  26.586  18.592  10.895
29084W        W92643   2.453   4.714   1.434
29085W        W92644  10.211   1.320   0.427
29086W        W92645  21.553   8.858   3.201
29087W        W92646   9.335   1.917   2.789
29088W        W92647  11.244  28.558  14.281
29089W        W92648  19.600  15.700  10.956
29090W        W92649  40.507   0.356   0.419
29091W        W92650  17.195  44.269   4.254
29092W        W92651   6.392  41.486   1.372
29093W        W92652  17.202  30.021   3.198
29094W        W92653  41.042  24.200   1.402
29095W        W92654   5.698   3.285  11.462
29096W        W92655  13.283   3.745   0.465
29097W        W92656  41.907  14.729  13.898
29098W        W92657  33.471  11.257   2.409
29099W        W92658   3.900   8.781  11.393
29100W        W92659  40.528  24.085   3.242
29101W        W92660   1.353  38.364   0.263
29102W        W92661  35.377  38.390  14.364
29103W        W92662  11.290  13.349  13.836
29104W        W92663  29.089  15.192   3.744
29105W        W92664   9.820  39.529  14.373
29106W        W92665  20.148   2.283  14.971
29107W        W92666  21.559  12.797   2.372
29108W        W92667  38.407  26.623   4.163
29109W        W92668  30.576  13.845   1.276
29110W        W92669  42.882   3.322   4.659
29111W        W92670  10.703  12.656   3.635
29112W        W92671  42.791  35.958  10.583
29113W        W92672  31.620   4.448  12.508
29114W        W92673  34.930  40.468  12.077
29115W        W92674  35.936  34.883  14.428
29116W        W92675  40.959  11.700  12.918
29117W        W92676   8.190   1.912   1.908
29118W        W92677  25.162  39.400   2.888
29119W        W92678  35.434  16.734  14.907
29120W        W92679  22.111  25.674   4.670
29121W        W92680  28.152  14.175   3.761
29122W        W92681  25.544  16.121  12.464
29123W        W92682  21.188  30.943  14.466
29124W        W92683  14.716   3.275   0.469
29125W        W92684  30.085  41.364   2.396
29126W        W92685  19.129  32.433   3.765
29127W        W92686  13.700  15.719  13.919
29128W        W92687   0.312  36.887  14.277
29129W        W92688  15.274  40.043  14.819
29130W        W92689  33.580  34.473  14.277
29131W        W92690  17.647  19.256  12.018
29132W        W92691  15.258  43.313   2.207
29133W        W92692  11.134  32.958   3.377
29134W        W92693  17.077  39.829   1.876
29135W        W92694   1.404  11.850  11.862
29136W        W92695  22.197   2.298  14.977
29137W        W92696  43.912  32.041   0.379
29138W        W92697  28.508  20.145  10.450
29139W        W92698  30.943  37.389   5.145
29140W        W92699   5.416  20.244  11.422
29141W        W92700  24.668  44.860  10.601
29142W        W92701  10.187  37.548  12.495
29143W        W92702   4.315   4.408   3.653
29144W        W92703  25.540  20.551  13.395
29145W        W92704  42.496  24.599   4.164
29146W        W92705  32.530   2.445  14.027
29147W        W92706  25.986  40.007   0.866
29148W        W92707   6.182  23.546   2.818
29149W        W92708   8.212  17.634  13.430
29150W        W92709  23.548  16.810  10.949
29151W        W92710  11.863  29.000  11.908
29152W        W92711   3.826  43.363   4.294
29153W        W92712  23.573  19.269   3.203
29154W        W92713   8.714  40.002   2.289
29155W        W92714   5.921  11.214  13.522
29156W        W92715  23.053  44.308  10.119
29157W        W92716  29.506  40.037   9.949
29158W        W92717  19.697  19.039   3.369
29159W        W92718   1.846  17.768   3.213
29160W        W92719  44.844  37.928  10.565
29161W        W92720   8.784  14.164   1.306
29162W        W92721   3.240  36.020   3.691
29163W        W92722  41.816  42.007   1.383
29164W        W92723  35.375  16.300   0.810
29165W        W92724   9.735   3.862   1.791
29166W        W92725   4.931  33.461   1.396
29167W        W92726  30.013  18.222  10.601
29168W        W92727  23.213  24.582  12.409
29169W        W92728   8.286  16.079   0.798
29170W        W92729  16.738  24.637   2.390
29171W        W92730  26.461  13.265  12.043
29172W        W92731   8.857   1.903   4.191
29173W        W92732  21.063  33.589  14.806
29174W        W92733  31.425  18.234  14.468
29175W        W92734   5.901  19.541   4.204
29176W        W92735  39.458  13.766  12.053
29177W        W92736  23.591   3.309  10.443
29178W        W92737  38.975  29.535  12.392
29179W        W92738  42.976  40.460   0.826
29180W        W92739   8.159  14.131  12.073
29181W        W92740  31.917  43.323   4.701
29182W        W92741  39.511   0.793   4.289
29183W        W92742  41.537  37.572   4.247
29184W        W92743  15.102  29.651  13.907
29185W        W92744  15.306  41.043  13.363
29186W        W92745  11.260  44.417   4.184
29187W        W92746  21.715  12.810   4.750
29188W        W92747  20.113  12.317  14.956
29189W        W92748  26.163  43.943  13.857
29190W        W92749  22.513   3.338  13.415
29191W        W92750  15.613  25.174  12.340
29192W        W92751  27.496  38.063  12.015
29193W        W92752   5.241  17.080   3.870
29194W        W92753  37.509  26.566   4.260
29195W        W92754  34.500  12.776   0.361
29196W        W92755  38.366  12.759  12.527
29197W        W92756  29.634  10.829   1.428
29198W        W92757  27.079  24.999   3.228
29199W        W92758  30.933  13.199   4.614
29200W        W92759   5.911  14.707  11.529
29201W        W92760  37.031  20.255  11.080
29202W        W92761  29.113   2.724   0.748
29203W        W92762  10.755  10.643  13.820
29204W        W92763  43.379   4.809  13.987
29205W        W92764  30.579  13.181   0.845
29206W        W92765  34.413  31.138  11.419
29207W        W92766  17.790  42.780  10.631
29208W        W92767  38.449  44.774  11.002
29209W        W92768  41.344  41.356   1.919
29210W        W92769  44.324  36.060   9.984
29211W        W92770   2.426  40.902  12.984
29212W        W92771  31.984  43.501  12.341
29213W        W92772   8.712  12.782  13.981
29214W        W92773  40.422  14.730  11.060
29215W        W92774  13.819  17.797   4.639
29216W        W92775  30.428   0.772  14.832
29217W        W92776  35.917  12.243   2.381
29218W        W92777  11.288  44.919  11.942
29219W        W92778  25.075  26.036   3.213
29220W        W92779   4.740  18.759  10.500
29221W        W92780  26.544  14.590   2.282
29222W        W92781  27.560  28.458   3.731
29223W        W92782  30.030  13.671  10.944
29224W        W92783  13.252  36.973  13.437
29225W        W92784   8.271  18.235   1.212
29226W        W92785  23.132  27.096  14.769
29227W        W92786  28.642   7.906   0.405
29228W        W92787  26.680  44.949  14.866
29229W        W92788  18.271  18.210  14.376
29230W        W92789   4.425  43.465   2.727
29231W        W92790  32.598  40.974   5.209
29232W        W92791  25.552   1.953   0.413
29233W        W92792  31.540  29.664   0.781
29234W        W92793  19.685   8.224   1.799
29235W        W92794  40.876  21.218   4.812
29236W        W92795  40.994   0.291  12.511
29237W        W92796  12.230   0.799   4.743
29238W        W92797  42.317   1.389   0.814
29239W        W92798  31.954  24.088   4.836
29240W        W92799   1.940  38.996   2.301
29241W        W92800  21.631  15.115  11.512
29242W        W92801  31.923   9.684   0.811
29243W        W92802  23.492   5.915  11.120
29244W        W92803   5.836  15.690   1.236
29245W        W92804  29.038  33.054   3.147
29246W        W92805   1.854  29.540   3.347
29247W        W92806  25.610  33.399  11.940
29248W        W92807  44.937  12.803  12.986
29249W        W92808  36.369   1.978   3.230
29250W        W92809  28.672  38.421   1.745
29251W        W92810  12.648   8.337  10.116
29252W        W92811  40.898  22.637  14.991
29253W        W92812  20.159  27.187  13.406
29254W        W92813  15.745  30.601  14.512
29255W        W92814  38.841   6.911  12.936
29256W        W92815  30.519   9.282  14.379
29257W        W92816  40.037  21.244  14.947
29258W        W92817  10.869   6.348   1.234
29259W        W92818  27.598   0.818   2.214
29260W        W92819  11.167   9.871  10.039
29261W        W92820  37.865  11.753  11.557
29262W        W92821   2.299   0.987   3.712
29263W        W92822  17.711  44.995   4.241
29264W        W92823  29.098  17.188   2.832
29265W        W92824  27.504  19.081  12.008
29266W        W92825  10.293  28.077   1.860
29267W        W92826  33.536  32.430   2.265
29268W        W92827  13.331  10.845   2.375
29269W        W92828  38.406  41.903  14.284
29270W        W92829  38.858  41.434   3.329
29271W        W92830  15.693  29.112  11.606
29272W        W92831   1.412   7.304  11.468
29273W        W92832  12.308   0.253   4.192
29274W        W92833   0.386  34.525  12.993
29275W        W92834  27.659  22.155   0.967
29276W        W92835   2.804   4.264  11.898
29277W        W92836   8.286   2.886  12.926
29278W        W92837  28.568  28.986  12.339
29279W        W92838  36.516  35.501   4.244
29280W        W92839   2.430  21.084   4.717
29281W        W92840  42.436  40.891   1.400
29282W        W92841  15.719   6.702   0.405
29283W        W92842  27.623   9.699  11.398
29284W        W92843  27.156  13.176   1.865
29285W        W92844   6.815   6.251   1.900
29286W        W92845  10.377  32.071   0.817
29287W        W92846  39.538  19.631   0.857
29288W        W92847  30.908  34.500  13.847
29289W        W92848  18.568  40.392   4.331
29290W        W92849  32.443   6.250  12.560
29291W        W92850  16.288  44.833  11.057
29292W        W92851  16.128  11.765  11.956
29293W        W92852   6.318  25.492   0.907
29294W        W92853  10.855   1.846  13.851
29295W        W92854   4.288  23.157  10.535
29296W        W92855   9.259  19.551  14.020
29297W        W92856   4.306  39.829  13.359
29298W        W92857  33.881  35.489   3.833
29299W        W92858  31.988  32.626   2.740
29300W        W92859   9.818  39.974  12.538
29301W        W92860   2.906  43.339  13.881
29302W        W92861  21.533   6.846   3.671
29303W        W92862  27.173  41.943   2.256
29304W        W92863  32.132  18.588   5.163
29305W        W92864  21.665  44.445   1.327
29306W        W92865   5.816  18.783  13.009
29307W        W92866  35.465  21.634  11.004
29308W        W92867  40.405   5.249   0.848
29309W        W92868  24.563  37.891  11.015
29310W        W92869  28.135  29.958   2.295
29311W        W92870  42.803  10.169  11.995
29312W        W92871  12.297   8.357  14.843
29313W        W92872  31.942  12.711  10.160
29314W        W92873  39.014   1.771  14.766
29315W        W92874  28.635   4.376  11.861
29316W        W92875  32.556  16.072  14.323
29317W        W92876  44.433  37.414   5.180
29318W        W92877  31.951   9.169  12.007
29319W        W92878  12.839   8.694   2.223
29320W        W92879  16.309   6.729   3.295
29321W        W92880   1.380   1.327   0.317
29322W        W92881  23.085  16.641   0.782
29323W        W92882   3.728  13.789  13.848
29324W        W92883   4.344  22.178   4.742
29325W        W92884   1.743   7.248   2.779
29326W        W92885  43.920  38.350  10.457
29327W        W92886  13.828  28.997  14.512
29328W        W92887  42.006  13.781  13.347
29329W        W92888  39.906  30.619  10.470
29330W        W92889  19.759  21.209  13.964
29331W        W92890   8.211   4.758  12.927
29332W        W92891  13.242  24.604  14.415
29333W        W92892   7.842  32.400  12.552
29334W        W92893  26.524  29.927   1.421
29335W        W92894   9.854   7.840   2.862
29336W        W92895  35.442  22.075  14.868
29337W        W92896   1.965   1.927   2.814
29338W        W92897   0.811  43.951   0.793
29339W        W92898  19.233  14.767   3.305
29340W        W92899  36.875   4.818   0.800
29341W        W92900  26.205  41.379   0.785
29342W        W92901   0.477  22.138  12.028
29343W        W92902  37.513   3.443  10.955
29344W        W92903  12.688  33.418  11.945
29345W        W92904  27.626  14.691   4.121
29346W        W92905  40.943  16.657   1.315
29347W        W92906   3.417  23.009  13.061
29348W        W92907  13.170   3.293   4.718
29349W        W92908   8.387  22.561  11.916
29350W        W92909  36.906   1.391   0.324
29351W        W92910  40.356  19.197  12.855
29352W        W92911  14.139  42.849  11.942
29353W        W92912  32.609  15.658  10.009
29354W        W92913   8.336  22.244  11.488
29355W        W92914   2.240  20.767  13.890
29356W        W92915  14.723  38.325   0.413
29357W        W92916  25.118  42.325   3.859
29358W        W92917  22.710   5.694  10.001
29359W        W92918  40.856  17.070  12.489
29360W        W92919   6.394  26.167   0.856
29361W        W92920  28.442  15.770   4.141
29362W        W92921  23.141   0.759   1.394
29363W        W92922  30.656  36.908  14.366
29364W        W92923  14.680  28.184  11.925
29365W        W92924  43.470   9.365   3.731
29366W        W92925  11.689  21.624   1.908
29367W        W92926  22.127  22.739  11.007
29368W        W92927  16.771  35.007  12.012
29369W        W92928   8.340   6.281  11.940
29370W        W92929  21.178  21.156  13.831
29371W        W92930  16.236  21.625  10.405
29372W        W92931   5.907  19.101   2.225
29373W        W92932  28.157  19.134   3.854
29374W        W92933  19.554   8.335  14.972
29375W        W92934  31.006   4.890  11.396
29376W        W92935  22.602   7.702  13.385
29377W        W92936  22.201  24.208   1.237
29378W        W92937  41.444  37.833  10.582
29379W        W92938  14.818  18.714  14.309
29380W        W92939   3.341  17.683   4.706
29381W        W92940  43.437   9.152   2.278
29382W        W92941  15.754   8.801   3.207
29383W        W92942  39.443  11.282  10.433
29384W        W92943  30.046  42.980  14.808
29385W        W92944  27.127   6.418  14.914
29386W        W92945  22.187  37.977  12.506
29387W        W92946  30.601  13.727   4.250
29388W        W92947  41.297  15.300  12.033
29389W        W92948  24.118   3.716  12.872
29390W        W92949  26.529  37.524   4.791
29391W        W92950  20.619   4.773   4.189
29392W        W92951   6.871   9.823  13.544
29393W        W92952  22.528  21.221  14.840
29394W        W92953  14.724  21.699  13.430
29395W        W92954  18.279   3.443   4.230
29396W        W92955   1.845  40.972  11.923
29397W        W92956  21.695  15.820   4.769
29398W        W92957   7.887  39.521   3.176
29399W        W92958  36.377  14.184  13.040
29400W        W92959  20.539  35.993   4.176
29401W        W92960  19.170  16.635   4.613
29402W        W92961  30.485   2.336   1.372
29403W        W92962  44.811  43.983   3.796
29404W        W92963   1.244   0.787   2.403
29405W        W92964   3.767   7.829   2.843
29406W        W92965  10.328  23.649  14.990
29407W        W92966   7.740   3.343  14.363
29408W        W92967   2.747   7.841  13.925
29409W        W92968   3.356  18.790   5.208
29410W        W92969  37.401  23.576   1.918
29411W        W92970  41.409   2.729  11.082
29412W        W92971  19.061  16.190   1.367
29413W        W92972  13.271  17.586   0.275
29414W        W92973  34.016  29.439  11.508
29415W        W92974   8.241  13.640   0.899
29416W        W92975  28.514   1.457  14.782
29417W        W92976  27.503  13.150  10.110
29418W        W92977  34.470   4.296   2.202
29419W        W92978   8.843  36.034   1.239
29420W        W92979  30.098  28.624  11.480
29421W        W92980  19.130  22.136   3.215
29422W        W92981   4.736  25.009   1.731
29423W        W92982   5.755  32.956   3.309
29424W        W92983  27.589  23.050  14.505
29425W        W92984  26.486  16.230  11.502
29426W        W92985  17.592  11.355   2.367
29427W        W92986  20.236  28.181   0.873
29428W        W92987  42.993   4.872  14.925
29429W        W92988  39.433   3.309   0.350
29430W        W92989  36.905  16.592  12.555
29431W        W92990  16.154  26.577   2.832
29432W        W92991   5.861  31.564   3.215
29433W        W92992  41.451  17.565   4.330
29434W        W92993  31.986  20.717   4.354
29435W        W92994   7.199  18.124   4.281
29436W        W92995  14.755  22.084   0.452
29437W        W92996  32.458  19.698   1.813
29438W        W92997  16.208  17.564   1.764
29439W        W92998  23.030   7.857   2.392
29440W        W92999  32.079   5.883  10.939
29441W        W93000  26.494  20.702   3.223
29442W        W93001   6.352  44.465   5.215
29443W        W93002   1.422  28.500  14.292
29444W        W93003   8.723  12.802  14.956
29445W        W93004  42.837  28.458  14.835
29446W        W93005   5.853   6.380  14.381
29447W        W93006  38.421   1.277  13.044
29448W        W93007  27.633  14.641   3.766
29449W        W93008  37.069  26.565  14.925
29450W        W93009  25.684  20.247   2.384
29451W        W93010  11.142  25.556  12.079
29452W        W93011   2.342   4.447  10.929
29453W        W93012  35.536  44.887   0.362
29454W        W93013  38.489  38.393  13.451
29455W        W93014  41.390  21.546   4.314
29456W        W93015  17.619  26.984  12.388
29457W        W93016  14.182  28.947   1.774
29458W        W93017  27.017  14.129  11.484
29459W        W93018  18.177   8.367  14.410
29460W        W93019  14.185   7.750  10.049
29461W        W93020  12.810  41.807   0.480
29462W        W93021  37.034  35.940  14.320
29463W        W93022   8.332  17.681   2.367
29464W        W93023  34.438  21.535   0.479
29465W        W93024  21.720  25.681  13.823
29466W        W93025  21.043  29.071  10.406
29467W        W93026  42.492  17.282  12.483
29468W        W93027  31.097  40.867   2.740
29469W        W93028  43.994  43.991  12.034
29470W        W93029  24.984  42.290  11.379
29471W        W93030  32.032   9.766   3.177
29472W        W93031   9.393  33.064   2.394
29473W        W93032  25.698  37.058   1.772
29474W        W93033  39.994  43.997   2.711
29475W        W93034   5.736  29.527  11.117
29476W        W93035  12.763  40.803  11.481
29477W        W93036  40.414   4.887  12.005
29478W        W93037  12.246  27.963   4.265
29479W        W93038  32.042  19.108   3.201
29480W        W93039  15.603   5.330  10.441
29481W        W93040  12.636  22.675   9.470
29482W        W93041  18.288  37.570  14.025
29483W        W93042   1.802  27.577  12.992
29484W        W93043  40.864  22.545   0.425
29485W        W93044  40.901  32.560   1.352
29486W        W93045  40.847  25.193   2.271
29487W        W93046  40.884  34.945  13.857
29488W        W93047  35.857  20.727  14.860
29489W        W93048  41.334  29.031   4.321
29490W        W93049  31.024  32.412   2.823
29491W        W93050   7.769  38.951  11.595
29492W        W93051  32.002  34.018  11.425
29493W        W93052  27.023  34.392  14.344
29494W        W93053  18.241   3.441   5.131
29495W        W93054   5.320  30.957  14.291
29496W        W93055  20.231  20.639   3.303
29497W        W93056   5.382  30.957   1.224
29498W        W93057  18.568  42.014  14.029
29499W        W93058  37.058  34.912  10.537
29500W        W93059  21.703  36.593  14.854
29501W        W93060  31.415   1.239  10.908
29502W        W93061   6.425   1.301  13.991
29503W        W93062  27.598   8.730  14.774
29504W        W93063  15.592  24.224   1.213
29505W        W93064  34.444  44.353  11.472
29506W        W93065  25.072  23.649   3.852
29507W        W93066  40.877  44.754  13.962
29508W        W93067  31.049  30.450   5.092
29509W        W93068  16.622  14.281   0.870
29510W        W93069   9.855  14.132   0.255
29511W        W93070  10.253  22.188   4.645
29512W        W93071  35.570  20.190  10.549
29513W        W93072  36.437   5.798  14.483
29514W        W93073  18.635  21.046  12.580
29515W        W93074  35.598  24.536   3.375
29516W        W93075  43.935  15.314   0.364
29517W        W93076  27.183   4.381   3.862
29518W        W93077  33.886   5.783   3.174
29519W        W93078  12.795  32.595  11.495
29520W        W93079  21.225  35.037  10.599
29521W        W93080  40.424  19.624   3.832
29522W        W93081  36.011  40.013   1.342
29523W        W93082   0.905  42.483  11.104
29524W        W93083  44.992  31.409   1.698
29525W        W93084  36.351  21.236  11.056
29526W        W93085  11.625   5.811   2.847
29527W        W93086  36.387  24.632   3.809
29528W        W93087  22.108  13.332   4.210
29529W        W93088   8.796  31.981  14.834
29530W        W93089  34.056   4.834  13.365
29531W        W93090  38.825   9.182   0.850
29532W        W93091  31.153  14.211   2.310
29533W        W93092  43.348  39.892   4.290
29534W        W93093   8.394   8.722  12.390
29535W        W93094  30.633   1.881  11.981
29536W        W93095  10.282   8.216   4.198
29537W        W93096   9.323   4.866  13.501
29538W        W93097  16.593  14.592  10.528
29539W        W93098  32.550  33.114  10.550
29540W        W93099  39.976  18.694   3.246
29541W        W93100  31.445  30.595  10.429
29542W        W93101  24.196  40.438  13.943
29543W        W93102  29.605  24.702   4.705
29544W        W93103   1.299   1.837  12.860
29545W        W93104   8.390  26.077  12.946
29546W        W93105   8.287  14.161   5.803
29547W        W93106  38.056  21.727   2.267
29548W        W93107  25.635  21.033  12.953
29549W        W93108  44.870  42.030  13.366
29550W        W93109  11.334  12.239   3.829
29551W        W93110  34.510  41.868   3.754
29552W        W93111  38.882  17.122  14.439
29553W        W93112  20.706  32.908  10.155
29554W        W93113  43.935  12.252  11.395
29555W        W93114  22.136  42.403  14.799
29556W        W93115  15.764  34.590  11.549
29557W        W93116  16.641  14.806   0.811
29558W        W93117   1.821  36.571   3.786
29559W        W93118   4.236  37.055  11.954
29560W        W93119  26.505  29.576   2.258
29561W        W93120   0.868  15.265   3.695
29562W        W93121  28.520   7.671  14.995
29563W        W93122  18.597  23.146   0.832
29564W        W93123   9.224  36.876   0.412
29565W        W93124   1.870   9.372   0.383
29566W        W93125  27.501  20.261   2.203
29567W        W93126   3.876  33.491  14.833
29568W        W93127  32.438   2.798  14.020
29569W        W93128  15.257  12.857   1.251
29570W        W93129  43.778  13.298   3.167
29571W        W93130  34.530  32.575   1.724
29572W        W93131  18.746   7.193  14.512
29573W        W93132  35.931  21.067  14.796
29574W        W93133  43.306  11.747   0.462
29575W        W93134   3.462   2.307   1.838
29576W        W93135  23.190  43.821  13.922
29577W        W93136  33.899  41.889   0.864
29578W        W93137  10.830  25.178   0.360
29579W        W93138  27.530  29.497  12.929
29580W        W93139  29.657  29.996   2.214
29581W        W93140   0.854  17.768   2.224
29582W        W93141  21.710   7.870  13.036
29583W        W93142  31.019  21.700  14.347
29584W        W93143  43.406  34.456   2.191
29585W        W93144  36.887  22.143   2.718
29586W        W93145  12.794  18.098  10.990
29587W        W93146   4.222  37.567  14.949
29588W        W93147  33.922  15.109   3.803
29589W        W93148   4.855  22.098   1.444
29590W        W93149  40.013  29.030  12.829
29591W        W93150  24.521   6.207   3.669
29592W        W93151  29.163  25.561   4.811
29593W        W93152  10.844   0.828   1.433
29594W        W93153  44.376  26.550   1.735
29595W        W93154  28.528  33.530  13.474
29596W        W93155  34.941  33.560   1.281
29597W        W93156  28.018  38.399   4.115
29598W        W93157  44.339   7.739   0.305
29599W        W93158   1.899   8.384   4.138
29600W        W93159  11.753  11.358   5.306
29601W        W93160  42.408  37.412  11.444
29602W        W93161  26.053   1.244  10.487
29603W        W93162  39.487   4.832   0.965
29604W        W93163  44.495  35.911   2.819
29605W        W93164   9.774   3.869  14.973
29606W        W93165  30.054  38.864  14.833
29607W        W93166  34.013  39.030   3.755
29608W        W93167  15.680  10.180  13.897
29609W        W93168  28.071  27.123  13.524
29610W        W93169  23.160  18.660   1.438
29611W        W93170   5.200   7.261   4.349
29612W        W93171  28.013  29.989   9.993
29613W        W93172  26.077  14.771   3.726
29614W        W93173   2.226  32.462   2.390
29615W        W93174  20.146  20.706   1.263
29616W        W93175   4.227  19.616   0.245
29617W        W93176  39.357   3.244  11.414
29618W        W93177  44.300  28.084   4.811
29619W        W93178  25.522  23.607   3.193
29620W        W93179  17.627  31.493   3.746
29621W        W93180  12.248  26.489   2.285
29622W        W93181  22.595  37.000  12.475
29623W        W93182  30.068  34.063   2.273
29624W        W93183  11.717  28.052  13.015
29625W        W93184   2.420  36.997  12.897
29626W        W93185  42.366   1.383  13.031
29627W        W93186  30.043  40.448  12.424
29628W        W93187  17.735  11.242   4.795
29629W        W93188   2.314   3.819  12.405
29630W        W93189  35.972   8.823   4.349
29631W        W93190  14.233  16.277  12.946
29632W        W93191  29.470  44.991   1.768
29633W        W93192  18.195  14.652  11.489
29634W        W93193  20.726   9.258  13.397
29635W        W93194   9.815  22.198   2.764
29636W        W93195  21.705  22.624  14.923
29637W        W93196  22.658  19.100  14.495
29638W        W93197   4.927  30.109   2.689
29639W        W93198  26.509  36.593   1.884
29640W        W93199   9.864  22.735   0.871
29641W        W93200   2.328   0.470  12.873
29642W        W93201  40.030  35.575   0.249
29643W        W93202  43.471  34.530  11.987
29644W        W93203  16.313  18.689  14.394
29645W        W93204  35.387  44.303  14.275
29646W        W93205  17.626  40.389   3.253
29647W        W93206  29.951   5.687   0.808
29648W        W93207  15.814  30.648   0.418
29649W        W93208  43.944   1.290  12.931
29650W        W93209  38.882  22.062   4.686
29651W        W93210   7.806  26.085   1.774
29652W        W93211  19.260  23.706   0.249
29653W        W93212  15.591  43.486   4.797
29654W        W93213   1.314  37.468  12.861
29655W        W93214  25.545  40.528  14.279
29656W        W93215  24.002  22.511  11.480
29657W        W93216   9.800  27.966  11.881
29658W        W93217  43.277  20.091  11.927
29659W        W93218  10.704  27.108  10.932
29660W        W93219  12.683   4.280  11.049
29661W        W93220   4.902  40.035  13.375
29662W        W93221  19.719  42.315  12.366
29663W        W93222   7.263  43.478   2.873
29664W        W93223  12.837   6.821   4.250
29665W        W93224  43.331  17.299  14.766
29666W        W93225  27.470  18.549  13.456
29667W        W93226  23.602  41.459  11.038
29668W        W93227   3.902  39.394   1.409
29669W        W93228  24.090  42.916   0.809
29670W        W93229   4.730  43.451  14.989
29671W        W93230   0.898  10.363  13.817
29672W        W93231   8.170  44.372   0.286
29673W        W93232   0.892  34.389  11.396
29674W        W93233  36.459  43.355  12.346
29675W        W93234  19.062  44.280  10.435
29676W        W93235   5.204   7.855  11.518
29677W        W93236  44.779  13.266   0.468
29678W        W93237  20.608  38.903  10.618
29679W        W93238  24.562  17.200   1.847
29680W        W93239  42.298  11.203  11.932
29681W        W93240   6.223  25.485  10.563
29682W        W93241   0.931  33.914  13.412
29683W        W93242  44.754  24.658  11.900
29684W        W93243  29.423   2.728  12.953
29685W        W93244   3.845  16.778  10.410
29686W        W93245  17.292  30.042   1.856
29687W        W93246  20.717   6.402  10.981
29688W        W93247  39.818  26.952  12.095
29689W        W93248  27.129  21.185  13.361
29690W        W93249  35.417  13.796  12.842
29691W        W93250  25.150  42.778   2.770
29692W        W93251  42.410  40.339   1.226
29693W        W93252  15.214  41.967  13.416
29694W        W93253  24.152  14.834  14.941
29695W        W93254   6.714  21.030  14.016
29696W        W93255  10.761  22.081   4.131
29697W        W93256  32.118  10.800   3.245
29698W        W93257  13.263  36.475   3.816
29699W        W93258  37.480  16.271   2.787
29700W        W93259  13.731  42.945  12.454
29701W        W93260   4.280   5.339  13.347
29702W        W93261  37.847  44.410  14.762
29703W        W93262  29.442  34.469   1.811
29704W        W93263  39.815  28.660  11.510
29705W        W93264  31.428  29.119  14.426
29706W        W93265  34.610   1.777   0.857
29707W        W93266  33.960  19.154  12.896
29708W        W93267  30.050   5.724   3.730
29709W        W93268  37.354  27.465   0.417
29710W        W93269  17.734  38.338  13.879
29711W        W93270  34.609  38.994   2.695
29712W        W93271  36.512  16.603   1.403
29713W        W93272  38.382   2.852  11.476
29714W        W93273  28.445  10.300   1.829
29715W        W93274  30.999   8.188  13.423
29716W        W93275   2.884  37.929  11.029
29717W        W93276   5.207  30.448   3.682
29718W        W93277   1.835   0.840  14.940
29719W        W93278  18.601  24.564   3.866
29720W        W93279  12.738  22.064   0.847
29721W        W93280  21.642  13.622   1.911
29722W        W93281  10.711  32.108  11.048
29723W        W93282  39.021  18.109  10.124
29724W        W93283  34.110  36.370  12.391
29725W        W93284  44.005  36.938   0.394
29726W        W93285  14.240  44.288   4.622
29727W        W93286  32.624  29.962  12.535
29728W        W93287  18.735   2.422  12.580
29729W        W93288  27.484  21.588  10.979
29730W        W93289  44.339   6.787  12.885
29731W        W93290  29.450  26.011   3.707
29732W        W93291  13.638  17.558   1.263
29733W        W93292   5.247  35.014  12.008
29734W        W93293  29.480  42.013  12.851
29735W        W93294  12.795  18.676   3.778
29736W        W93295  30.448  35.938   3.349
29737W        W93296   9.286  27.480   2.774
29738W        W93297  33.103  15.717   4.154
29739W        W93298  42.452  44.472  13.912
29740W        W93299   5.359   4.731   1.874
29741W        W93300   0.490   8.719   1.278
29742W        W93301   3.406  19.168  12.938
29743W        W93302  11.868   9.266   2.794
29744W        W93303  24.139  22.182   9.668
29745W        W93304   4.814  29.504   1.419
29746W        W93305  26.698   5.291   1.850
29747W        W93306  29.516   5.887   2.724
29748W        W93307  34.595   9.813  10.428
29749W        W93308  13.296  15.125   3.198
29750W        W93309  16.679  26.604   0.763
29751W        W93310  29.536  20.044   1.386
29752W        W93311  33.480  24.023   3.213
29753W        W93312  27.449  35.520   1.724
29754W        W93313  34.393  17.172  10.559
29755W        W93314  20.044  20.539  11.858
29756W        W93315  20.124  17.277   3.840
29757W        W93316   2.359  31.131  12.856
29758W        W93317   4.437   7.195   0.787
29759W        W93318  43.467   8.889   9.986
29760W        W93319  30.638  30.120   0.327
29761W        W93320   9.193   8.306  13.005
29762W        W93321  28.980   8.231   3.209
29763W        W93322  11.186  15.668  10.960
29764W        W93323  36.430  41.966  10.997
29765W        W93324  16.797  37.578   3.335
29766W        W93325  31.566  21.193   4.798
29767W        W93326   5.794  22.736   4.742
29768W        W93327   0.432  23.642  12.011
29769W        W93328  14.609  37.985   3.650
29770W        W93329  19.241  26.048   1.353
29771W        W93330  33.074  34.480  12.937
29772W        W93331  34.546  23.024  12.056
29773W        W93332  39.014  16.662  10.412
29774W        W93333  18.702   0.272  12.554
29775W        W93334  36.908  11.764  10.565
29776W        W93335   4.930  36.535   5.162
29777W        W93336  14.731  36.364   0.947
29778W        W93337  39.039   4.933   2.383
29779W        W93338  28.108  34.442  11.900
29780W        W93339  20.190  34.597  12.339
29781W        W93340  14.268  24.188  11.496
29782W        W93341  11.158  32.110   5.084
29783W        W93342   1.902  19.215   0.349
29784W        W93343  18.743  10.746   0.739
29785W        W93344  26.002  12.821   1.878
29786W        W93345   6.396  22.604   2.201
29787W        W93346  10.846  35.110  11.521
29788W        W93347  36.860   4.365   4.708
29789W        W93348  13.266  21.121  13.916
29790W        W93349  10.643  11.251  10.947
29791W        W93350  32.435  32.532   0.297
29792W        W93351   9.299  23.526  10.605
29793W        W93352  11.648  29.612  14.812
29794W        W93353  43.969  12.156  13.826
29795W        W93354  36.347  11.215  13.977
29796W        W93355  40.427   2.405   2.261
29797W        W93356   7.386  36.923   1.721
29798W        W93357  36.857  42.775   3.744
29799W        W93358  38.442  44.786  13.808
29800W        W93359  15.144  32.028  10.978
29801W        W93360  20.204  33.982  11.375
29802W        W93361  42.833  19.661  13.503
29803W        W93362  44.772  12.670   2.413
29804W        W93363  44.808  42.498  12.920
29805W        W93364  29.091  34.058   3.704
29806W        W93365  17.763  22.191  10.509
29807W        W93366  32.499   1.371  11.471
29808W        W93367   9.240  36.940   3.252
29809W        W93368  11.849  38.470   0.877
29810W        W93369  18.121  19.549  12.886
29811W        W93370  37.847   4.332  10.532
29812W        W93371  35.899  44.822  14.986
29813W        W93372  33.109  35.596  14.970
29814W        W93373  13.192   7.334   0.760
29815W        W93374   8.764  15.136  14.941
29816W        W93375  22.531   9.287   0.737
29817W        W93376  38.819  12.805   1.362
29818W        W93377  10.348  27.496   0.286
29819W        W93378   0.928  36.550   2.398
29820W        W93379  38.503  16.738  13.511
29821W        W93380  43.834  43.512   2.233
29822W        W93381  26.685  38.030   1.267
29823W        W93382   5.761  38.975   2.749
29824W        W93383  12.812  29.653   1.394
29825W        W93384   3.893  25.550   0.865
29826W        W93385  44.929  16.241  12.900
29827W        W93386  26.541  19.241  13.491
29828W        W93387  41.443  43.409   1.724
29829W        W93388  23.644   8.391  11.941
29830W        W93389  19.252  16.684  12.386
29831W        W93390   7.723   8.755  10.490
29832W        W93391  37.565  20.651   1.239
29833W        W93392  33.990   4.229   2.742
29834W        W93393  32.573  33.433  14.878
29835W        W93394  34.032  21.200  11.518
29836W        W93395   0.851   6.682   2.407
29837W        W93396   2.283  43.309   3.763
29838W        W93397   3.312   6.219  11.595
29839W        W93398  15.215  24.091   1.253
29840W        W93399  13.219  18.183   4.666
29841W        W93400  11.161   9.678  14.435
29842W        W93401  24.688   3.924   3.756
29843W        W93402  32.465  24.527   0.736
29844W        W93403   7.868  30.074  13.802
29845W        W93404  35.372  44.436  12.974
29846W        W93405  19.743  14.771   5.169
29847W        W93406  13.116  41.362   2.416
29848W        W93407  28.670  20.680  14.952
29849W        W93408  26.109   2.881  10.444
29850W        W93409  19.059  22.246   4.606
29851W        W93410  25.191   3.352   4.129
29852W        W93411  14.155   7.401   3.259
29853W        W93412  10.327  15.740  10.527
29854W        W93413   3.948  39.872   4.321
29855W        W93414   2.729  11.291  12.530
29856W        W93415   9.697  31.075  13.505
29857W        W93416  40.535   8.330   4.235
29858W        W93417  17.231   9.254   0.247
29859W        W93418  18.739   4.707   3.643
29860W        W93419   6.396  31.566  12.016
29861W        W93420  16.201  40.498  13.433
29862W        W93421  36.389  20.125   3.833
29863W        W93422   0.411  23.676   0.965
29864W        W93423   1.873  43.950  11.381
29865W        W93424  40.506  20.631  11.378
29866W        W93425  10.644  19.122   2.675
29867W        W93426   5.914  15.821  14.479
29868W        W93427   6.205   6.189   9.948
29869W        W93428  25.536  12.359  14.993
29870W        W93429  12.181  25.573   0.323
29871W        W93430  29.469   6.716   2.709
29872W        W93431  35.040  39.488  13.018
29873W        W93432   8.225   5.225  10.542
29874W        W93433  40.951  20.080  14.807
29875W        W93434  28.532  21.263  13.972
29876W        W93435  37.535   6.839  12.031
29877W        W93436  20.551  35.080   1.354
29878W        W93437   5.413  17.611  14.024
29879W        W93438  28.957  19.205   1.349
29880W        W93439  25.177  32.627   3.181
29881W        W93440  32.450  37.504  11.021
29882W        W93441   2.449  36.484   2.861
29883W        W93442  16.177  44.364   4.139
29884W        W93443  31.543  39.934  13.057
29885W        W93444  37.964   6.830  12.024
29886W        W93445  12.331   1.749   1.366
29887W        W93446   2.853  12.175  13.908
29888W        W93447  42.913  22.733  12.943
29889W        W93448  29.479  12.630  12.986
29890W        W93449   8.760  15.662  13.965
29891W        W93450  41.315  10.217  10.420
29892W        W93451   8.833  30.426   4.744
29893W        W93452  38.956  25.560  14.392
29894W        W93453  39.964  34.471   1.283
29895W        W93454   9.156   3.331   5.213
29896W        W93455  28.125   7.778   1.811
29897W        W93456   5.202   4.363   3.817
29898W        W93457  25.154  40.526  12.865
29899W        W93458  26.693  12.303   2.857
29900W        W93459  38.902  40.372  10.914
29901W        W93460  39.867  23.008  14.904
29902W        W93461  25.585   7.353  10.017
29903W        W93462  22.709  34.930  13.945
29904W        W93463  44.297   7.878   1.281
29905W        W93464   9.780  20.698   3.329
29906W        W93465  15.764  14.679  11.440
29907W        W93466   9.822  20.592  13.514
29908W        W93467  32.411   7.182   1.837
29909W        W93468  22.015  28.105  14.002
29910W        W93469  32.981  39.559  11.094
29911W        W93470  19.679  26.167  11.049
29912W        W93471  44.285  20.074  12.932
29913W        W93472  33.085   4.921  14.292
29914W        W93473   3.781  28.182   0.776
29915W        W93474  18.110  11.314   0.313
29916W        W93475  18.776  10.222   5.219
29917W        W93476  35.396  11.836  12.559
29918W        W93477  26.091  14.736  13.941
29919W        W93478  15.205   1.265   3.651
29920W        W93479  11.251   7.390  14.924
29921W        W93480  16.143   6.337   0.471
29922W        W93481  11.720  43.313   1.237
29923W        W93482  15.705  29.558  14.834
29924W        W93483   2.927  36.060   0.270
29925W        W93484   6.738  13.625   4.812
29926W        W93485  28.562  32.076  11.052
29927W        W93486   6.219  44.903   3.742
29928W        W93487  22.740  32.441  14.317
29929W        W93488  35.038  40.406  11.508
29930W        W93489  18.724  39.445  13.492
29931W        W93490  16.742  39.354   2.217
29932W        W93491  40.405  17.080  13.029
29933W        W93492  10.230  25.607  13.921
29934W        W93493  27.677  43.828  14.009
29935W        W93494  19.193  37.880  10.931
29936W        W93495  39.835  34.060  12.523
29937W        W93496   8.310  31.451  12.342
29938W        W93497  40.974  41.871   3.794
29939W        W93498  28.543  27.069   0.921
29940W        W93499  10.791   2.340   4.317
29941W        W93500  26.971   8.786   0.311
29942W        W93501  29.521  26.042  10.592
29943W        W93502  24.167  18.790  12.543
29944W        W93503  13.602  10.172   9.940
29945W        W93504  29.142  39.439   3.769
29946W        W93505  43.888   1.373   3.695
29947W        W93506  39.443  42.823  13.971
29948W        W93507  11.256  12.738  14.992
29949W        W93508  13.610   3.384   0.397
29950W        W93509   5.346  27.678  12.435
29951W        W93510  22.133  13.772  14.769
29952W        W93511   3.792  14.817   3.866
29953W        W93512  32.397  32.426   0.741
29954W        W93513  18.283   3.767   0.250
29955W        W93514  43.300  17.109  11.484
29956W        W93515  38.927  27.635  10.040
29957W        W93516  44.282  18.715   3.277
29958W        W93517  21.250  12.155   3.801
29959W        W93518  38.969  23.092   1.344
29960W        W93519  19.601  33.069  12.068
29961W        W93520  38.956  25.023   2.307
29962W        W93521  24.186  22.721  13.017
29963W        W93522   5.916  17.700  11.433
29964W        W93523  40.535  14.740  14.805
29965W        W93524  27.123   9.851  13.795
29966W        W93525  16.206   8.717   3.230
29967W        W93526  32.614  41.436  11.966
29968W        W93527  27.602  25.570  13.382
29969W        W93528  14.181  14.209   1.408
29970W        W93529  43.821  15.758   2.854
29971W        W93530  27.689  10.171   4.719
29972W        W93531   4.276  19.163   2.397
29973W        W93532  24.519   6.210  12.367
29974W        W93533   8.355   0.973  10.452
29975W        W93534   3.825  31.427  11.047
29976W        W93535  27.455  24.493  13.825
29977W        W93536  42.360  15.692  13.359
29978W        W93537  41.462  28.953  13.942
29979W        W93538  28.098  17.194   4.684
29980W        W93539  15.713  39.816  12.470
29981W        W93540  36.570  43.326  11.472
29982W        W93541  15.139  32.075   4.217
29983W        W93542  35.956   1.948  12.019
29984W        W93543  20.066   0.317  11.409
29985W        W93544   4.355  15.167  12.830
29986W        W93545   2.886  14.750   1.416
29987W        W93546  40.476   4.775   5.216
29988W        W93547   2.431  38.413  11.609
29989W        W93548  19.642  22.702  13.402
29990W        W93549   2.426   7.240   4.817
29991W        W93550  23.683   5.773  11.884
29992W        W93551  38.048  20.194  14.826
29993W        W93552  37.519  15.669  12.461
29994W        W93553  32.629  37.380   1.718
29995W        W93554  37.408  18.248   4.773
29996W        W93555  29.098  40.954   1.230
29997W        W93556  26.484  28.010  11.935
29998W        W93557  38.477  31.914  10.427
29999W        W93558   1.850  37.446   4.148
30000W        W93559  20.076  15.177  10.594
30001W        W93560   6.337   6.390  13.853
30002W        W93561  35.374  13.697   4.646
30003W        W93562   7.366  17.291  10.506
30004W        W93563  29.144   5.904   3.249
30005W        W93564  28.465   1.418   3.381
30006W        W93565   0.322  10.822   4.765
30007W        W93566  43.455  14.680  14.901
30008W        W93567  33.107  23.034   2.301
30009W        W93568   3.294  26.598  11.007
30010W        W93569  17.188  19.215   0.288
30011W        W93570  41.322  24.643   1.839
30012W        W93571   7.413  14.807   5.781
30013W        W93572  30.632  25.157  14.787
30014W        W93573  35.569  29.066  13.439
30015W        W93574  44.779   6.393   1.705
30016W        W93575  23.639   2.292   0.357
30017W        W93576  28.659  17.095   2.189
30018W        W93577   2.271  25.059  14.311
30019W        W93578  39.946  12.717   2.347
30020W        W93579  34.521   6.714  11.857
30021W        W93580  22.194  19.678  11.988
30022W        W93581  17.141  12.668   1.798
30023W        W93582  28.523  24.060  10.593
30024W        W93583  10.317   3.291   3.718
30025W        W93584   8.394  35.919   1.841
30026W        W93585  22.644  11.322  10.505
30027W        W93586  36.521  14.662   1.419
30028W        W93587  29.987   4.726   2.727
30029W        W93588   7.183  17.103   1.361
30030W        W93589  12.694  18.688  12.859
30031W        W93590   8.188  20.136   3.177
30032W        W93591  27.160  29.996   2.736
30033W        W93592  18.253   0.379   1.331
30034W        W93593  17.715  12.335   3.302
30035W        W93594  44.495  44.489  14.370
30036W        W93595  42.965  16.235  14.330
30037W        W93596   0.939  39.843  14.443
30038W        W93597  11.826  20.766  14.872
30039W        W93598   8.810  27.973  10.462
30040W        W93599  33.580   0.327   2.689
30041W        W93600  31.918  19.539   2.702
30042W        W93601  31.442  32.886   2.806
30043W        W93602   5.337  43.516  12.413
30044W        W93603  32.006  11.812  14.396
30045W        W93604  17.074  19.650   0.411
30046W        W93605  36.878  27.984  14.493
30047W        W93606   6.820  14.332  14.943
30048W        W93607  34.553   2.403   3.233
30049W        W93608  34.913   8.262  14.871
30050W        W93609  36.858  40.351  11.103
30051W        W93610   4.309   5.430   3.675
30052W        W93611  31.112  14.666   4.730
30053W        W93612  34.019  32.074   0.863
30054W        W93613  34.032  14.225   4.219
30055W        W93614  20.241  24.083  10.921
30056W        W93615  23.159   8.306   2.345
30057W        W93616  28.528   7.885   0.772
30058W        W93617  41.295  43.433   1.314
30059W        W93618  42.513  38.891   4.724
30060W        W93619   0.745  11.349  13.354
30061W        W93620  43.440   1.924  10.096
30062W        W93621   8.718  29.566  11.022
30063W        W93622  26.078  13.712   2.800
30064W        W93623   1.353  13.187   2.755
30065W        W93624   1.955  12.668   1.925
30066W        W93625  12.726   0.392  11.924
30067W        W93626  38.484   3.882  10.621
30068W        W93627  30.419   8.389  11.524
30069W        W93628   0.401  29.940   2.701
30070W        W93629  13.125  35.370   3.659
30071W        W93630  19.612   0.325   3.291
30072W        W93631  37.931  36.844  12.414
30073W        W93632  31.557  40.844  11.465
30074W        W93633  30.552  25.588  11.512
30075W        W93634  19.775  32.533   5.167
30076W        W93635  26.566  10.267  13.532
30077W        W93636  13.730   0.462  15.000
30078W        W93637  20.200   2.837  14.358
30079W        W93638  23.131  18.748  13.020
30080W        W93639  32.534  19.092   4.755
30081W        W93640  19.144   3.408   2.846
30082W        W93641  11.673  42.520   0.454
30083W        W93642  37.930   6.868   3.634
30084W        W93643  27.083  17.137   0.434
30085W        W93644  35.521  39.318   3.308
30086W        W93645  38.378  14.794  12.460
30087W        W93646  28.109  27.540  10.471
30088W        W93647  41.351  31.063   1.763
30089W        W93648  41.373  26.995   1.857
30090W        W93649  39.427  24.039   0.745
30091W        W93650   6.374  33.044   0.342
30092W        W93651  44.838  21.189  10.434
30093W        W93652  12.847  35.604   4.690
30094W        W93653   5.920  31.020   0.473
30095W        W93654  32.575   3.455   3.310
30096W        W93655   8.312   4.768  14.277
30097W        W93656  28.044  15.639   0.893
30098W        W93657  11.279  33.462   5.736
30099W        W93658  37.978  28.971   5.184
30100W        W93659  34.869  32.995  12.555
30101W        W93660  26.053  44.481  13.929
30102W        W93661  43.514   0.252   1.244
30103W        W93662  22.052  11.627  12.015
30104W        W93663  17.252   2.954   2.338
30105W        W93664  28.612  20.674   9.951
30106W        W93665   3.320  43.316   2.233
30107W        W93666  43.313  35.384  10.963
30108W        W93667  25.530  18.283   2.270
30109W        W93668  25.966  28.465  11.446
30110W        W93669  22.547   5.419  10.618
30111W        W93670  16.170  13.105  13.338
30112W        W93671  31.543  40.491   5.150
30113W        W93672  44.365  32.060   2.731
30114W        W93673   6.408  39.560   3.231
30115W        W93674  38.995  43.988  14.904
30116W        W93675   2.845  30.599  13.320
30117W        W93676  13.796  15.811  10.605
30118W        W93677  34.086  42.856  13.030
30119W        W93678  20.167  11.301  13.529
30120W        W93679  18.188  10.695   3.696
30121W        W93680  34.431  11.223  14.456
30122W        W93681  29.442  37.851  12.990
30123W        W93682  31.578   4.787  11.372
30124W        W93683  44.392  41.421  13.513
30125W        W93684  44.421   5.314  13.809
30126W        W93685   2.733  37.516   3.667
30127W        W93686  26.121  28.435  14.980
30128W        W93687  18.595   6.880  13.803
30129W        W93688  18.129  16.141   1.248
30130W        W93689  31.425  39.352   4.670
30131W        W93690   5.200  25.024  14.836
30132W        W93691   2.725   0.885  13.881
30133W        W93692  32.610   0.858   1.274
30134W        W93693  44.891  33.082   0.942
30135W        W93694   5.248  31.639  14.032
30136W        W93695  30.524  28.998  13.312
30137W        W93696  30.556   0.871   3.683
30138W        W93697  44.497  16.789  12.579
30139W        W93698  31.408   7.702  11.382
30140W        W93699  22.711  26.533   0.941
30141W        W93700  23.532   0.778   3.243
30142W        W93701  34.502  10.194   3.702
30143W        W93702   7.897  12.306   3.349
30144W        W93703  26.025  27.940   4.729
30145W        W93704   9.324  12.279   1.770
30146W        W93705  39.479  42.382  12.349
30147W        W93706  37.841  34.007  12.457
30148W        W93707  39.970  25.690   2.714
30149W        W93708  14.162  25.675  14.478
30150W        W93709  32.924  44.992  10.482
30151W        W93710  19.629  42.981  13.032
30152W        W93711  38.823  11.777  11.430
30153W        W93712  44.274  34.018   3.151
30154W        W93713  39.054   4.297  10.445
30155W        W93714  39.894  36.018  13.435
30156W        W93715  35.971   7.690   4.157
30157W        W93716  18.127  32.892   3.374
30158W        W93717  25.189   7.855   3.788
30159W        W93718  14.101  43.314  11.022
30160W        W93719   2.305  11.132   4.223
30161W        W93720  31.923   1.796  14.486
30162W        W93721  26.588   5.856  13.022
30163W        W93722  26.003  17.618  11.919
30164W        W93723   8.673   2.825   3.811
30165W        W93724  44.799   0.363   3.848
30166W        W93725  35.013  19.687   3.176
30167W        W93726  10.291  20.101  13.466
30168W        W93727   4.770  39.844  12.840
30169W        W93728  37.578  30.630  14.993
30170W        W93729  43.873   4.832   4.824
30171W        W93730  44.442  25.483  13.480
30172W        W93731   0.946   2.744  11.856
30173W        W93732  43.947   6.183   1.788
30174W        W93733  44.276  13.105  13.432
30175W        W93734  22.514   4.740  11.477
30176W        W93735  31.038  36.403  12.434
30177W        W93736  10.825   8.779  12.532
30178W        W93737  13.744  38.364  13.957
30179W        W93738  16.289  26.098   1.217
30180W        W93739  39.482  19.113   2.883
30181W        W93740  25.996  41.967  11.999
30182W        W93741  29.099   5.844  11.895
30183W        W93742  40.002  13.747  12.497
30184W        W93743  36.513  16.175   1.772
30185W        W93744  31.413  26.628   4.266
30186W        W93745  21.052  35.448  14.838
30187W        W93746  44.813  40.352   1.922
30188W        W93747  25.477   4.809  13.374
30189W        W93748  35.424  12.772   4.114
30190W        W93749  23.055  14.206   4.631
30191W        W93750   3.771  40.810  11.120
30192W        W93751  30.560  17.168   1.410
30193W        W93752  21.126  28.496  14.477
30194W        W93753  39.416  27.660   4.228
30195W        W93754  30.960   1.851  10.087
30196W        W93755  27.593  30.619  11.556
30197W        W93756   6.850   1.461   3.765
30198W        W93757   7.224   9.289   3.828
30199W        W93758  26.060  41.021   4.683
30200W        W93759  21.531  31.979   5.153
30201W        W93760  44.907  27.541  11.079
30202W        W93761  11.351   0.920  11.916
30203W        W93762   1.813  38.391   3.807
30204W        W93763  20.152  39.956  11.479
30205W        W93764   3.955   5.836  12.508
30206W        W93765  29.133  29.646   1.448
30207W        W93766  20.087  29.471  14.943
30208W        W93767   1.851  32.969   4.200
30209W        W93768  40.815  34.432   2.258
30210W        W93769  36.508  29.977  12.079
30211W        W93770  22.625   0.256  10.630
30212W        W93771  10.292  41.444  11.010
30213W        W93772  34.453  30.959  12.043
30214W        W93773  20.204  38.886  10.475
30215W        W93774   5.222   0.394   5.166
30216W        W93775  34.084  12.126   1.363
30217W        W93776  23.647   6.855   3.705
30218W        W93777   1.755  22.587   1.770
30219W        W93778  36.960   6.352   4.338
30220W        W93779   6.230   9.296   0.728
30221W        W93780  20.247  21.114   3.737
30222W        W93781  17.755   3.313   0.859
30223W        W93782  27.619  21.093   2.768
30224W        W93783  30.046  34.599   4.748
30225W        W93784  33.916  10.844  10.007
30226W        W93785  36.508  37.892  13.021
30227W        W93786  22.183  27.991  12.497
30228W        W93787  29.092   3.770  13.971
30229W        W93788   8.372  36.433  11.566
30230W        W93789  33.013  43.950   4.247
30231W        W93790  16.734  21.707  13.048
30232W        W93791  12.302  33.565   2.788
30233W        W93792  30.907  19.213   4.744
30234W        W93793   8.776  37.514  13.523
30235W        W93794  22.734  38.973   1.823
30236W        W93795  43.274  23.575   1.312
30237W        W93796  27.506  24.224  11.537
30238W        W93797  18.697   6.678   3.846
30239W        W93798   0.859   9.651  11.102
30240W        W93799  41.855  24.680   0.768
30241W        W93800  18.227  25.024   0.347
30242W        W93801  18.162  42.896   0.322
30243W        W93802  16.093  22.572   4.695
30244W        W93803  32.889   1.760  14.869
30245W        W93804   0.892  19.661  12.993
30246W        W93805  24.551  32.625   4.230
30247W        W93806  12.156  37.856  10.418
30248W        W93807  29.991  23.161   3.808
30249W        W93808  15.245   0.797   1.780
30250W        W93809  15.654  14.609  14.820
30251W        W93810  13.610  32.078   1.855
30252W        W93811   7.902   8.392  10.541
30253W        W93812  19.776   0.492   4.215
30254W        W93813  38.376   7.804   1.800
30255W        W93814   3.852   5.266  13.499
30256W        W93815  43.341  38.419   4.311
30257W        W93816  40.948   0.983   4.268
30258W        W93817  44.891  30.512   1.353
30259W        W93818  26.600   7.762  14.416
30260W        W93819  36.971  27.579  10.457
30261W        W93820  30.051  21.630  12.516
30262W        W93821  19.059  19.053  13.465
30263W        W93822  35.061  16.183  12.484
30264W        W93823  20.257  38.509  14.873
30265W        W93824  37.918  23.728   2.698
30266W        W93825  17.115  40.526   3.354
30267W        W93826  40.857  28.074  11.911
30268W        W93827  39.527  39.533   1.924
30269W        W93828  30.039  23.011  10.132
30270W        W93829  18.635   2.398  10.456
30271W        W93830  44.494  14.771  13.013
30272W        W93831  14.330  43.516  10.644
30273W        W93832   6.247  37.465  13.483
30274W        W93833   3.777  43.783  12.056
30275W        W93834  40.946  14.316   5.321
30276W        W93835  36.951  41.484   3.865
30277W        W93836  37.847  34.902   3.764
30278W        W93837  28.629  22.017  14.920
30279W        W93838   0.750  38.943  13.334
30280W        W93839  15.661  15.183  11.389
30281W        W93840  26.986   7.782   2.227
30282W        W93841  24.113  12.813   0.275
30283W        W93842  42.822  41.427  10.452
30284W        W93843  25.684  30.960   2.339
30285W        W93844  42.839  21.513  14.467
30286W        W93845   8.318   7.307   1.451
30287W        W93846  34.076  20.573  10.966
30288W        W93847  39.476  41.939   4.273
30289W        W93848  29.661  24.124   3.796
30290W        W93849  12.716  38.569   2.726
30291W        W93850  16.317   7.842   3.162
30292W        W93851   1.462  23.534  13.504
30293W        W93852   8.744  44.864   1.355
30294W        W93853   2.827  39.991  12.992
30295W        W93854  29.160   1.878   1.228
30296W        W93855  40.305  44.809   0.963
30297W        W93856  13.738   1.975  14.344
30298W        W93857  19.678  40.856  10.984
30299W        W93858  42.315  28.090   3.251
30300W        W93859  22.996  25.690  13.351
30301W        W93860  20.743  17.745   3.795
30302W        W93861  24.675  17.089  11.016
30303W        W93862  44.344  23.493  11.864
30304W        W93863   0.348   6.323  14.492
30305W        W93864  21.233   5.729   4.167
30306W        W93865   7.698  11.277   4.187
30307W        W93866  37.881  44.274  13.508
30308W        W93867   2.740  31.955   2.808
30309W        W93868  20.030  35.888  12.930
30310W        W93869  42.934  12.661  13.947
30311W        W93870  32.440  28.932   3.843
30312W        W93871  39.526  19.224   0.915
30313W        W93872   2.725  13.253  14.968
30314W        W93873  22.103  37.969   1.715
30315W        W93874  20.570  21.063   4.200
30316W        W93875  14.116   3.320  13.045
30317W        W93876  37.878  32.506  11.421
30318W        W93877  16.084  11.322  14.284
30319W        W93878  42.827  40.828   1.910
30320W        W93879  32.030  35.925   3.630
30321W        W93880  24.981  28.126  11.608
30322W        W93881   0.388  29.087   2.238
30323W        W93882   8.841  21.055   3.321
30324W        W93883  27.492  17.587   2.678
30325W        W93884  19.172  31.486   1.437
30326W        W93885  25.027  23.643   3.177
30327W        W93886  17.681   3.905  13.969
30328W        W93887  14.705  31.965  12.528
30329W        W93888  30.609   4.847   4.749
30330W        W93889  12.821  18.674  11.077
30331W        W93890  18.116  35.006  10.589
30332W        W93891   3.825   0.284   0.367
30333W        W93892   7.348  31.634  13.447
30334W        W93893  28.676  42.808  14.506
30335W        W93894  38.390  21.141   1.835
30336W        W93895  39.451   1.954   2.240
30337W        W93896  20.658   6.850  14.516
30338W        W93897   2.468   2.862  10.889
30339W        W93898  29.946  25.614   2.219
30340W        W93899  25.037  18.175  11.488
30341W        W93900  37.029  21.698   4.713
30342W        W93901  25.128  39.925  12.035
30343W        W93902  13.257  28.176   3.204
30344W        W93903  14.725  11.338   4.637
30345W        W93904   4.209   7.775  11.435
30346W        W93905   9.690  26.972   0.295
30347W        W93906  33.875  10.735  13.321
30348W        W93907   0.254  40.039  14.420
30349W        W93908  17.597   9.802   0.809
30350W        W93909  29.656   6.398   0.299
30351W        W93910  10.678   3.732  14.304
30352W        W93911  38.398   4.396   2.188
30353W        W93912  30.915  43.983  10.567
30354W        W93913  39.520  10.195   4.598
30355W        W93914  43.381  16.726   0.451
30356W        W93915  28.450  24.071  14.373
30357W        W93916  10.643  23.523   3.820
30358W        W93917  40.908  10.689  13.933
30359W        W93918  10.729  35.912  12.011
30360W        W93919  19.584  30.553  14.335
30361W        W93920  44.423  18.057  14.910
30362W        W93921   3.711  33.625   9.956
30363W        W93922  31.590  24.605  14.989
30364W        W93923  15.643  32.523  13.330
30365W        W93924   4.935  40.885   0.913
30366W        W93925  18.065  24.543   0.401
30367W        W93926  11.181  44.930   3.224
30368W        W93927  41.351  21.204   4.813
30369W        W93928  26.594  23.606  12.072
30370W        W93929  19.603  19.202  10.425
30371W        W93930  33.443  34.887   1.835
30372W        W93931  44.985  43.919   4.598
30373W        W93932  44.259   4.733   3.148
30374W        W93933  33.606  42.448  12.977
30375W        W93934  36.526   4.859  12.500
30376W        W93935  37.983  16.257   4.316
30377W        W93936  30.912  43.296   4.715
30378W        W93937   5.848  12.295   0.262
30379W        W93938  38.911  18.619   0.789
30380W        W93939  10.862  37.036   3.788
30381W        W93940   5.335   7.298   3.155
30382W        W93941  28.598   4.397  13.827
30383W        W93942  31.091  37.504  14.871
30384W        W93943   9.751  31.960   0.253
30385W        W93944  24.054  29.647   1.868
30386W        W93945  36.376  36.591   1.384
30387W        W93946  40.919  31.913  11.002
30388W        W93947  36.847   4.405   3.710
30389W        W93948  24.038   2.443   4.190
30390W        W93949  26.536  12.835  12.557
30391W        W93950  11.235  23.602  12.056
30392W        W93951  18.722  37.869   2.845
30393W        W93952  22.080  41.326   2.304
30394W        W93953  36.908  40.896   0.342
30395W        W93954  12.688  26.042  13.428
30396W        W93955  28.054  30.620  14.819
30397W        W93956  17.170   6.914   1.738
30398W        W93957   7.316   3.906   0.392
30399W        W93958  38.034  25.147  11.030
30400W        W93959  21.156  21.624   4.643
30401W        W93960   8.183  30.014   1.811
30402W        W93961  25.573  12.760   5.581
30403W        W93962  38.520   4.834   0.928
30404W        W93963   3.803  19.146   1.823
30405W        W93964  24.044  26.684   3.772
30406W        W93965  12.304  19.711   1.889
30407W        W93966  22.206  30.412  14.483
30408W        W93967  35.917  19.132   4.779
30409W        W93968  11.850  38.055  12.349
30410W        W93969  14.771  40.810  12.571
30411W        W93970  10.667  44.288  14.284
30412W        W93971   2.275  41.908  12.071
30413W        W93972  11.799  26.147   0.924
30414W        W93973   3.859   7.881   4.792
30415W        W93974  25.124  38.938  11.030
30416W        W93975  36.083  37.981  13.959
30417W        W93976   8.679  12.207  14.889
30418W        W93977  38.853  31.942  11.051
30419W        W93978  14.742  21.059  11.399
30420W        W93979  24.566  27.073  12.904
30421W        W93980   9.856  11.696   9.568
30422W        W93981  15.762  33.540  10.578
30423W        W93982  35.545  33.087  10.593
30424W        W93983  17.588  18.060   4.159
30425W        W93984  33.967  42.437   2.883
30426W        W93985  15.324  39.433   3.762
30427W        W93986  42.894   8.836   1.727
30428W        W93987  22.726   7.295   2.772
30429W        W93988  11.285  16.658   4.293
30430W        W93989  10.665  10.257  11.598
30431W        W93990  25.073  10.750   0.962
30432W        W93991  24.172  28.517  10.423
30433W        W93992  24.039   5.914  11.442
30434W        W93993  20.108   4.338  12.424
30435W        W93994  25.098   4.756  12.357
30436W        W93995  30.045  24.634  10.460
30437W        W93996  12.339  43.922   3.730
30438W        W93997   6.854  27.003  11.046
30439W        W93998  23.067  31.470  12.927
30440W        W93999  16.785   0.363  11.538
30441W        W94000  38.004  19.573   3.197
30442W        W94001   2.397  32.431   4.132
30443W        W94002  13.637   0.465   2.661
30444W        W94003  23.143  32.578  13.531
30445W        W94004  22.531  11.753  12.461
30446W        W94005  10.668  10.174   4.807
30447W        W94006  35.928  25.973   0.789
30448W        W94007  31.101   8.312   0.470
30449W        W94008  44.477   4.731  12.445
30450W        W94009  19.192  29.443  11.573
30451W        W94010  19.276  19.063  10.486
30452W        W94011  31.423  15.626   4.249
30453W        W94012   1.745   4.896  13.882
30454W        W94013  26.101  17.099   1.248
30455W        W94014  23.135  20.051   4.255
30456W        W94015  24.573  37.006  10.951
30457W        W94016  35.568  36.064  13.525
30458W        W94017   4.702  24.064  14.806
30459W        W94018  28.004  15.229  14.935
30460W        W94019  24.542  33.967   4.631
30461W        W94020  41.440  14.210   2.292
30462W        W94021  21.551  17.611  14.918
30463W        W94022  42.394   9.296  13.909
30464W        W94023   6.400  28.594  10.509
30465W        W94024  36.071  16.218  11.412
30466W        W94025  22.064   2.723  13.309
30467W        W94026  43.839  35.100  10.491
30468W        W94027  42.022   6.915   4.687
30469W        W94028  33.918  11.711   4.210
30470W        W94029  16.671  11.221   3.381
30471W        W94030   6.689  43.008  14.024
30472W        W94031  14.316  35.895  14.024
30473W        W94032   6.222   0.967   3.308
30474W        W94033   0.303  18.121   3.354
30475W        W94034  25.485  19.153   4.281
30476W        W94035  33.877  18.781   1.240
30477W        W94036  44.806  40.811   0.762
30478W        W94037   2.273  20.058  12.396
30479W        W94038  40.840   5.861   1.840
30480W        W94039   7.788  31.588   3.191
30481W        W94040  41.862  24.004   4.264
30482W        W94041  15.312   6.234  11.452
30483W        W94042  15.245  19.650   1.408
30484W        W94043   0.385  11.139  13.929
30485W        W94044  40.955  22.649  13.899
30486W        W94045   4.291  27.446   4.817
30487W        W94046  38.353  15.174  12.545
30488W        W94047   7.836   7.785  14.768
30489W        W94048   6.256   5.431  13.825
30490W        W94049   9.153  30.495   1.410
30491W        W94050   1.397   0.334   2.260
30492W        W94051   7.816  42.509   1.915
30493W        W94052  33.472  44.470   3.186
30494W        W94053   1.342  35.975  10.477
30495W        W94054  17.700  30.915  13.967
30496W        W94055  31.449  41.872   3.731
30497W        W94056   9.832  11.339  14.016
30498W        W94057  22.021  41.914   1.808
30499W        W94058  11.286  25.496   9.519
30500W        W94059  25.597  17.786  13.803
30501W        W94060  21.134   9.380   1.729
30502W        W94061  23.495  26.022  14.384
30503W        W94062   1.852   3.240   3.166
30504W        W94063  28.043  30.586  14.299
30505W        W94064  39.357  12.839   3.795
30506W        W94065  24.058  30.018  13.976
30507W        W94066  16.092   3.225   1.243
30508W        W94067  32.915  27.068   2.716
30509W        W94068  27.637  14.125  12.385
30510W        W94069  41.306  26.017  14.447
30511W        W94070  36.430  23.127   3.824
30512W        W94071  32.424  31.474   0.885
30513W        W94072  36.037  31.089  13.040
30514W        W94073   1.330   0.779   3.331
30515W        W94074  31.916  17.249   5.087
30516W        W94075  41.295  26.087   3.828
30517W        W94076  33.494  10.705  11.043
30518W        W94077  41.470  39.953  14.317
30519W        W94078  26.066   3.402  11.972
30520W        W94079  17.699  33.924  10.639
30521W        W94080   7.834  40.502  13.940
30522W        W94081  21.653  21.061  14.455
30523W        W94082  38.075  31.010   1.263
30524W        W94083   2.923  11.729  13.463
30525W        W94084  29.141  16.784  11.035
30526W        W94085  30.634  13.738  13.416
30527W        W94086   0.354   3.232  11.533
30528W        W94087  33.025   8.406   0.263
30529W        W94088  17.072  24.049  13.423
30530W        W94089   5.790  30.538  11.412
30531W        W94090  30.567  18.214  10.476
30532W        W94091  37.540  24.091   4.762
30533W        W94092  14.717  32.573   3.332
30534W        W94093   3.306   9.279  14.456
30535W        W94094  38.550  13.145   2.382
30536W        W94095  43.972  39.917   1.710
30537W        W94096   5.225  36.881   2.839
30538W        W94097  36.421  30.936  12.000
30539W        W94098   5.787   6.741   3.745
30540W        W94099  26.578  27.503  11.857
30541W        W94100  15.611  13.828  13.348
30542W        W94101   7.832  30.603  10.062
30543W        W94102  40.964  21.572   0.338
30544W        W94103  40.488   5.815  13.370
30545W        W94104  39.543  23.518   2.697
30546W        W94105   6.844  26.594  10.608
30547W        W94106  17.142  18.276   4.348
30548W        W94107  35.885  30.584  14.014
30549W        W94108  37.854  33.095  14.003
30550W        W94109  16.153  38.953  12.953
30551W        W94110   4.867  25.566   2.213
30552W        W94111  16.226  43.996   2.766
30553W        W94112   1.842  29.658  10.935
30554W        W94113  42.963   9.291  11.038
30555W        W94114  12.347  27.657  13.963
30556W        W94115  27.676   3.390   0.253
30557W        W94116  19.162  32.888  11.518
30558W        W94117  33.041  10.711  13.332
30559W        W94118  25.638   5.210   4.344
30560W        W94119  35.495  44.790   4.756
30561W        W94120   2.887  43.370   1.259
30562W        W94121   0.988   6.399  12.487
30563W        W94122  24.704  30.134  12.576
30564W        W94123  39.365   7.201   3.189
30565W        W94124   9.179  38.533   2.299
30566W        W94125  12.224   0.257  10.629
30567W        W94126  24.546  17.586   4.614
30568W        W94127  15.744  44.387   3.242
30569W        W94128  26.066  22.655   1.908
30570W        W94129   8.244  36.954  13.498
30571W        W94130   7.835   6.693   1.396
30572W        W94131  35.394   5.332   0.860
30573W        W94132  16.678  21.258  14.865
30574W        W94133  27.587  30.954  12.459
30575W        W94134  37.557  10.649  14.995
30576W        W94135  39.440  17.214   1.234
30577W        W94136   8.188  42.359   4.217
30578W        W94137  13.307  29.473   2.254
30579W        W94138  19.561  39.557   2.821
30580W        W94139   2.291   7.197  11.980
30581W        W94140   0.333  21.614  11.943
30582W        W94141   7.320  13.221  12.003
30583W        W94142  19.761  24.023  12.365
30584W        W94143  35.471  16.164  12.928
30585W        W94144  21.140  39.489  14.496
30586W        W94145  12.825  26.959   4.342
30587W        W94146  37.964  36.050   4.148
30588W        W94147  10.180  39.962   3.663
30589W        W94148  41.487  43.435  10.482
30590W        W94149   7.761  32.587  14.786
30591W        W94150   0.949  23.148  11.562
30592W        W94151  28.460  19.099  11.463
30593W        W94152  36.440  10.210  13.474
30594W        W94153  44.469   9.762   1.772
30595W        W94154  12.207   0.745  11.538
30596W        W94155  33.027  24.196   1.898
30597W        W94156  38.529  43.868  12.902
30598W        W94157  11.371  30.143  10.903
30599W        W94158   1.416  41.873   2.410
30600W        W94159   2.401  14.333  10.142
30601W        W94160  10.349  44.349  12.890
30602W        W94161  36.398  33.423   2.859
30603W        W94162  11.254   8.170   5.198
30604W        W94163  10.308  12.235   5.229
30605W        W94164  35.526  21.240  13.050
30606W        W94165  18.281   1.826  11.520
30607W        W94166  39.974  13.715  14.952
30608W        W94167  36.576  28.641   1.447
30609W        W94168  35.955  32.474   9.600
30610W        W94169   2.363   6.795  11.582
30611W        W94170  34.012  33.529   0.924
30612W        W94171  33.478  40.815   2.383
30613W        W94172  16.160   5.284  11.064
30614W        W94173  38.974   8.342   3.184
30615W        W94174  35.008  30.994   4.269
30616W        W94175  17.206  19.734  10.462
30617W        W94176  29.147  34.500   0.374
30618W        W94177  15.806   5.775   0.868
30619W        W94178  22.684  32.007   4.783
30620W        W94179  42.849   0.328   0.783
30621W        W94180  37.925  21.533  11.952
30622W        W94181   3.385  32.490  12.013
30623W        W94182  38.348  30.003   4.243
30624W        W94183  15.582  40.904   1.847
30625W        W94184  27.469  31.024  10.628
30626W        W94185   7.828  11.647   3.252
30627W        W94186  43.288  36.851   0.301
30628W        W94187  34.885  38.488  11.901
30629W        W94188  16.163  31.088  11.508
30630W        W94189   3.274   9.172   4.244
30631W        W94190  22.075  38.875   1.908
30632W        W94191  15.111   0.913   3.794
30633W        W94192   0.746   5.735  13.969
30634W        W94193   8.188  14.726  11.396
30635W        W94194  31.079   6.862   3.364
30636W        W94195   6.735  23.137  10.928
30637W        W94196   9.301  25.144   0.296
30638W        W94197  21.037  23.501   4.686
30639W        W94198   2.260  27.483   3.235
30640W        W94199   8.873  26.621  14.485
30641W        W94200  24.587   2.331  11.587
30642W        W94201  25.174   3.385  11.421
30643W        W94202  33.477  30.068  10.517
30644W        W94203  18.205  29.427   4.323
30645W        W94204  42.298  43.467   4.606
30646W        W94205   1.879   5.293   1.898
30647W        W94206  13.793  43.405  11.888
30648W        W94207   3.812  17.597   2.678
30649W        W94208  30.511   0.260  13.052
30650W        W94209   0.353  10.326  13.493
30651W        W94210   6.690  17.130  12.383
30652W        W94211  16.172  28.955   4.761
30653W        W94212  33.932  14.649   2.364
30654W        W94213  40.373  16.590  12.399
30655W        W94214  36.982  31.598   0.388
30656W        W94215   7.858  19.230  14.820
30657W        W94216  23.643  31.058   2.768
30658W        W94217  25.547  24.045   4.231
30659W        W94218  28.624  11.661  13.485
30660W        W94219  35.032  33.994  10.615
30661W        W94220   1.331  43.417  11.080
30662W        W94221  17.616   2.890   4.824
30663W        W94222  41.480  42.374  14.854
30664W        W94223  23.717  43.302   3.342
30665W        W94224  14.336  37.470  11.379
30666W        W94225  25.157   6.324  11.919
30667W        W94226  16.573  39.370  12.068
30668W        W94227  41.862  23.674  14.359
30669W        W94228  37.933  12.152  14.847
30670W        W94229  21.055  24.517  11.063
30671W        W94230   9.323   6.768  12.870
30672W        W94231  20.028  41.299  13.908
30673W        W94232   1.865  29.940  14.790
30674W        W94233  41.036  27.046  11.020
30675W        W94234  17.629   7.746  12.402
30676W        W94235  33.905  22.231  12.011
30677W        W94236  12.648  33.500  11.126
30678W        W94237   1.251  12.682  11.587
30679W        W94238  16.136  17.700   4.176
30680W        W94239  22.700  23.113  13.833
30681W        W94240   7.911  26.665  10.527
30682W        W94241  10.217  26.557   0.824
30683W        W94242  34.057   3.287   2.241
30684W        W94243  35.937  42.012  14.955
30685W        W94244  12.218  22.131   2.878
30686W        W94245  37.053   2.444   2.707
30687W        W94246   9.676   1.874  14.989
30688W        W94247  27.980  16.134   3.352
30689W        W94248  11.812   2.933  14.432
30690W        W94249  41.304   2.768  12.529
30691W        W94250  29.941   1.387   2.380
30692W        W94251   2.435  27.993   1.830
30693W        W94252  27.622   7.745   3.314
30694W        W94253   7.253  36.086   1.369
30695W        W94254  23.232  35.056  14.879
30696W        W94255  12.800  43.309   1.847
30697W        W94256  15.279   9.888   0.826
30698W        W94257  30.132   3.252  13.351
30699W        W94258  22.578  28.996  10.426
30700W        W94259  19.560   1.424  13.060
30701W        W94260  26.177  13.176  14.918
30702W        W94261  35.528  26.592  12.045
30703W        W94262  28.952  44.342  11.117
30704W        W94263  12.336  17.207   2.205
30705W        W94264  44.372  40.042  13.837
30706W        W94265  28.096  11.755  14.856
30707W        W94266  41.358   4.769  10.459
30708W        W94267   7.896  32.097  12.366
30709W        W94268  15.807  14.319   1.821
30710W        W94269  35.928  27.196  11.021
30711W        W94270  18.641  24.117  14.501
30712W        W94271  23.143  43.888   2.335
30713W        W94272  11.854   7.795  11.963
30714W        W94273   6.334   4.289   0.274
30715W        W94274  39.958  28.515  14.438
30716W        W94275   8.332  14.825  11.081
30717W        W94276  32.483   0.839   3.258
30718W        W94277  40.885   2.248   2.804
30719W        W94278   6.765  32.452  11.894
30720W        W94279  11.295   8.768   2.770
30721W        W94280  43.432  36.962   0.921
30722W        W94281  23.590  36.385  11.564
30723W        W94282  29.561   9.716  14.478
30724W        W94283   4.875  27.608  14.014
30725W        W94284   7.772  37.860   0.467
30726W        W94285   8.839  22.020   2.391
30727W        W94286  39.916   8.212  13.526
30728W        W94287   5.340   9.221   0.870
30729W        W94288  18.546  21.199  11.922
30730W        W94289  38.402   4.718   0.449
30731W        W94290  38.965  25.153  10.521
30732W        W94291  24.013  39.005  11.010
30733W        W94292  40.458  44.395   3.755
30734W        W94293   5.779  43.340  14.383
30735W        W94294  28.488  12.813   3.825
30736W        W94295  17.238  36.560  12.985
30737W        W94296  20.713   8.383   3.336
30738W        W94297  36.946  23.713  11.867
30739W        W94298  10.161  20.126   2.336
30740W        W94299  38.560  10.849  12.851
30741W        W94300  37.966  31.447  13.425
30742W        W94301   0.960  14.296   3.379
30743W        W94302  18.713  44.876  11.416
30744W        W94303  23.183  14.246  13.517
30745W        W94304  29.981  27.506   0.913
30746W        W94305  38.410  20.574   1.864
30747W        W94306  40.433  34.900  11.011
30748W        W94307  40.818  26.533  13.537
30749W        W94308   9.669  32.544  13.473
30750W        W94309  38.949  38.480   3.215
30751W        W94310   8.807  30.969  10.993
30752W        W94311  26.020  19.173   2.321
30753W        W94312   1.331  27.561  11.908
30754W        W94313  28.467  14.311  12.574
30755W        W94314  16.078  18.268   4.824
30756W        W94315  15.323  32.999  14.284
30757W        W94316  31.939  38.020  14.027
30758W        W94317  34.454  11.236  11.962
30759W        W94318  23.066  40.427   1.376
30760W        W94319  21.050  34.087   4.120
30761W        W94320   5.760  16.776  13.349
30762W        W94321  23.190   9.392   1.831
30763W        W94322  33.941  16.093   0.851
30764W        W94323  12.657  11.836   0.290
30765W        W94324   3.894  37.433   1.835
30766W        W94325  35.524  30.450  12.450
30767W        W94326  28.608  26.617   2.888
30768W        W94327  18.068  18.266   4.294
30769W        W94328   5.822  44.335   1.419
30770W        W94329  20.135  32.107   2.669
30771W        W94330   3.337  11.806   0.286
30772W        W94331  10.217  17.581  12.849
30773W        W94332  16.283   9.158  10.940
30774W        W94333  29.007  43.376  14.954
30775W        W94334   3.352   9.338  11.495
30776W        W94335   9.661   6.306  13.508
30777W        W94336  19.592  21.064   1.805
30778W        W94337   9.652  26.597   2.357
30779W        W94338   6.326  42.802   4.796
30780W        W94339  13.658  22.203   4.739
30781W        W94340  33.005  12.314   1.771
30782W        W94341  34.540  29.623  12.480
30783W        W94342  22.221  35.402  14.923
30784W        W94343  30.477  39.869   0.875
30785W        W94344  27.514  33.068   4.624
30786W        W94345  28.618  18.260   4.234
30787W        W94346  34.543  35.395   1.356
30788W        W94347  36.503   9.653   2.893
30789W        W94348  44.956  14.158   1.846
30790W        W94349   4.854  17.184  14.511
30791W        W94350  40.530  13.602   1.345
30792W        W94351  25.636   3.740  13.474
30793W        W94352  34.375  32.482  13.536
30794W        W94353  30.104   2.384  13.377
30795W        W94354   4.727  14.262  10.099
30796W        W94355   9.672  33.405  10.562
30797W        W94356   0.490   2.787   0.290
30798W        W94357  35.383  16.243  14.843
30799W        W94358  43.380  28.001  14.443
30800W        W94359  30.551   5.417   2.412
30801W        W94360   9.305  30.415  11.558
30802W        W94361   6.316  32.009  11.941
30803W        W94362  24.220  27.604  11.562
30804W        W94363  18.663  34.047  13.493
30805W        W94364  31.069  12.331  10.554
30806W        W94365  25.663  10.775  13.476
30807W        W94366  22.743  13.113   4.213
30808W        W94367  19.145  42.891   3.788
30809W        W94368  22.026  14.729   2.811
30810W        W94369  24.998   4.751  14.931
30811W        W94370  18.787  12.277   0.837
30812W        W94371  44.864  23.732  14.864
30813W        W94372  31.129  15.817  10.627
30814W        W94373   7.179  34.580  13.364
30815W        W94374  41.315  40.366  14.985
30816W        W94375  36.379  20.230   4.633
30817W        W94376  22.631  40.973  10.518
30818W        W94377   8.340  25.975  11.577
30819W        W94378  33.380  28.608   2.183
30820W        W94379  16.140  36.453   0.288
30821W        W94380   2.905  26.988   1.750
30822W        W94381  43.797  14.701   3.834
30823W        W94382  29.561   7.796  10.902
30824W        W94383  20.046  14.288  10.925
30825W        W94384  14.310  39.983  13.963
30826W        W94385  43.410  26.194  12.825
30827W        W94386  28.155  43.461   4.329
30828W        W94387  42.903  11.848  14.340
30829W        W94388  18.201  38.505  10.950
30830W        W94389   7.193  11.365  10.623
30831W        W94390  14.675  31.150  10.903
30832W        W94391  16.207  43.911  12.891
30833W        W94392  43.499   7.796  14.425
30834W        W94393  42.805  29.071  14.289
30835W        W94394  36.887  28.984   0.954
30836W        W94395   2.758  27.001  12.048
30837W        W94396  43.480  15.306  10.421
30838W        W94397  34.117  26.185   3.359
30839W        W94398  30.096  41.414   2.700
30840W        W94399   6.841  36.952  10.954
30841W        W94400  30.577   1.404   0.460
30842W        W94401  34.879  10.322   2.902
30843W        W94402  13.341  23.583   0.444
30844W        W94403  17.731  13.734   3.750
30845W        W94404  41.489  20.155  14.905
30846W        W94405  25.125  13.698  12.995
30847W        W94406  33.886  21.200   1.442
30848W        W94407   0.753  12.123  11.554
30849W        W94408  16.719  37.419   2.741
30850W        W94409  18.288  23.599  10.454
30851W        W94410  35.434  26.091  13.379
30852W        W94411   8.191  33.384   4.766
30853W        W94412  32.536  10.348   3.648
30854W        W94413  11.183  12.148   2.893
30855W        W94414  32.540  15.786  11.541
30856W        W94415  13.831  31.596  14.490
30857W        W94416  19.233  27.448  11.471
30858W        W94417  19.625  38.853  10.021
30859W        W94418   1.917  15.278   2.238
30860W        W94419  25.601  30.108   4.169
30861W        W94420   1.867  36.950  12.449
30862W        W94421  43.957  24.594  14.289
30863W        W94422  29.166   2.264  13.840
30864W        W94423  40.850  16.724   1.841
30865W        W94424   5.234  29.092  14.327
30866W        W94425   9.689  37.076   4.269
30867W        W94426  10.865  10.653   2.894
30868W        W94427  18.611  17.627  13.862
30869W        W94428  25.023  42.784  13.805
30870W        W94429  26.027  27.143   3.192
30871W        W94430   1.287  15.104  14.496
30872W        W94431  18.199   6.840   3.368
30873W        W94432   7.413  26.974   1.888
30874W        W94433  36.347  26.086  10.627
30875W        W94434  25.604  15.286   0.346
30876W        W94435  17.097  36.929  14.872
30877W        W94436  21.606  44.448   3.354
30878W        W94437  33.044   1.476   1.366
30879W        W94438  17.786  36.858  14.797
30880W        W94439  37.917  30.152  14.805
30881W        W94440  12.724   0.918   2.410
30882W        W94441   0.356   7.871  12.578
30883W        W94442   2.321   6.856   2.736
30884W        W94443   3.388   3.827   4.682
30885W        W94444  36.532   8.282  13.824
30886W        W94445   9.753  25.517   1.790
30887W        W94446  36.554  26.063  12.491
30888W        W94447  37.379  31.898  12.998
30889W        W94448   1.775  10.338  12.956
30890W        W94449  32.442   4.710   2.233
30891W        W94450  40.921   8.882  14.025
30892W        W94451  11.651  31.408  12.923
30893W        W94452  37.926  19.749  10.537
30894W        W94453   1.291  16.706   3.788
30895W        W94454   7.193  32.060   0.275
30896W        W94455   1.870   2.809  14.451
30897W        W94456  36.422  14.175   2.242
30898W        W94457  22.501  19.591   5.117
30899W        W94458  10.712   7.911   3.252
30900W        W94459   1.423  30.964   3.765
30901W        W94460  21.252  43.944  13.810
30902W        W94461  18.645  13.799   2.380
30903W        W94462  11.290  35.588  13.517
30904W        W94463  40.937  42.822  12.365
30905W        W94464   0.429  39.990   4.674
30906W        W94465  10.837  23.130  14.366
30907W        W94466  19.055  41.929   0.473
30908W        W94467   2.767   8.357  13.377
30909W        W94468  22.137  18.272   1.272
30910W        W94469  19.714   9.212  12.546
30911W        W94470  10.255  28.467  11.898
30912W        W94471  30.548  31.568   1.794
30913W        W94472  39.822  28.096   1.845
30914W        W94473  28.607  31.015   1.325
30915W        W94474  44.408  33.539  11.598
30916W        W94475  14.216  19.698   2.838
30917W        W94476  29.974  11.810  12.080
30918W        W94477  14.679  38.557  12.062
30919W        W94478  36.987  42.804   0.867
30920W        W94479   9.708   7.792  14.283
30921W        W94480  39.939  26.976  13.802
30922W        W94481  31.960   1.783  12.528
30923W        W94482   1.481  27.688  11.063
30924W        W94483  41.817  15.191  10.571
30925W        W94484   9.746  36.903   5.175
30926W        W94485  13.156  19.658   3.232
30927W        W94486  40.981  11.269  11.066
30928W        W94487  19.232  20.623   4.345
30929W        W94488  28.536   2.433   2.232
30930W        W94489  24.716  43.905   0.437
30931W        W94490  33.433  39.894  13.422
30932W        W94491  30.608  38.937   0.915
30933W        W94492   9.231   4.370  13.323
30934W        W94493  28.116   5.267  13.903
30935W        W94494   6.900  22.250  12.356
30936W        W94495   7.249  14.177   4.301
30937W        W94496  44.864  19.603   1.836
30938W        W94497   4.791  32.637  10.906
30939W        W94498   4.328  29.533   3.868
30940W        W94499  34.528   2.250  13.340
30941W        W94500  10.381  31.111   3.870
30942W        W94501  40.814  21.219   4.114
30943W        W94502   7.242   9.727  10.990
30944W        W94503  24.162  19.685   4.228
30945W        W94504   3.885  13.318  14.926
30946W        W94505  16.210  28.949  11.477
30947W        W94506  25.600  14.094   5.304
30948W        W94507  27.052  38.482  11.893
30949W        W94508  34.959  13.647   4.696
30950W        W94509  15.617   9.763   2.699
30951W        W94510  28.681  11.729  12.958
30952W        W94511   7.786  38.839   2.717
30953W        W94512  12.674  19.162   4.277
30954W        W94513  29.528   0.816  12.057
30955W        W94514  42.028   7.394   2.310
30956W        W94515  36.065   1.958   1.242
30957W        W94516   6.815  36.368  12.954
30958W        W94517  41.414  12.749   0.833
30959W        W94518  37.420  42.881  14.783
30960W        W94519  22.249  23.095   3.823
30961W        W94520  42.308  40.921   1.708
30962W        W94521  38.865  15.688  10.641
30963W        W94522  39.038  15.812   1.881
30964W        W94523   9.198  15.599  13.530
30965W        W94524  25.672  37.841  13.335
30966W        W94525  12.849  32.418   0.895
30967W        W94526  10.684  15.815  12.853
30968W        W94527  37.012  43.765   0.420
30969W        W94528   5.896  39.406   0.918
30970W        W94529  33.434   5.366   3.646
30971W        W94530  21.628  10.138   0.306
30972W        W94531  39.007   2.890   1.272
30973W        W94532  30.938  16.809  11.451
30974W        W94533   8.350  14.752   1.275
30975W        W94534  40.003  18.653  10.999
30976W        W94535  12.332  42.289   1.244
30977W        W94536   9.748  35.446  13.838
30978W        W94537  27.579  35.999  13.911
30979W        W94538  33.105  38.366  14.329
30980W        W94539  33.395  29.618  12.979
30981W        W94540   4.788   1.242   2.706
30982W        W94541  35.916  37.981  12.973
30983W        W94542  18.202  43.909   3.149
30984W        W94543   6.312  44.803   4.818
30985W        W94544  13.758  21.751  11.961
30986W        W94545   9.315   4.446   2.336
30987W        W94546  15.622  35.387   1.296
30988W        W94547  20.076  33.097  11.045
30989W        W94548   7.337  16.252   1.797
30990W        W94549  27.586  17.277  12.495
30991W        W94550  32.521  14.245   2.814
30992W        W94551  16.572  17.233   1.430
30993W        W94552   1.977   0.387   1.363
30994W        W94553  14.683  14.125  11.084
30995W        W94554   3.302  43.829   1.696
30996W        W94555  24.636   3.882  10.539
30997W        W94556  35.435  37.928  13.526
30998W        W94557  10.643  36.457  12.849
30999W        W94558   8.291   7.325   2.289
31000W        W94559  11.841  42.892  10.425
31001W        W94560  13.117  20.267   2.741
31002W        W94561   5.918  42.960   0.326
31003W        W94562  37.055  12.826   4.321
31004W        W94563   4.337  18.724   1.798
31005W        W94564  41.465  33.506  13.972
31006W        W94565  34.986  13.326   2.802
31007W        W94566  39.902  24.699   4.339
31008W        W94567   8.194  20.639   4.769
31009W        W94568  12.723  11.214   4.743
31010W        W94569  11.194  41.040  13.928
31011W        W94570   3.278  31.897   2.226
31012W        W94571  27.689  21.025  13.332
31013W        W94572  15.127  28.119  14.931
31014W        W94573  23.673  38.918   1.216
31015W        W94574  35.984  12.309   2.876
31016W        W94575  26.071   9.825   5.200
31017W        W94576  23.114   1.832  11.077
31018W        W94577   9.868  38.501  14.777
31019W        W94578  10.750  41.471  10.613
31020W        W94579  24.191   6.334   1.841
31021W        W94580   4.730  34.049   1.784
31022W        W94581  12.688  37.398   4.352
31023W        W94582  39.817  22.541   3.257
31024W        W94583  22.079  41.015  13.545
31025W        W94584  39.030  19.722  13.328
31026W        W94585  23.529  16.220   4.201
31027W        W94586  32.139  44.880   1.266
31028W        W94587  25.538  15.126  10.910
31029W        W94588  41.922  31.035  14.295
31030W        W94589  40.410  28.647  12.517
31031W        W94590  32.064  39.421  14.299
31032W        W94591  26.683  14.802  12.359
31033W        W94592  14.228  39.475  11.984
31034W        W94593  36.093  37.442  13.344
31035W        W94594  31.070  16.269   4.702
31036W        W94595   3.901  15.147  12.378
31037W        W94596  16.293  25.485   1.422
31038W        W94597   9.684  41.385   1.756
31039W        W94598  18.563  30.974  14.853
31040W        W94599  34.052  41.890  12.852
31041W        W94600   3.847  31.004   4.118
31042W        W94601  23.030  35.890   0.484
31043W        W94602  34.399   1.418   3.381
31044W        W94603  40.455  14.772   4.676
31045W        W94604  28.074  24.479  11.963
31046W        W94605  13.824   1.393   3.753
31047W        W94606  35.892  13.675   2.763
31048W        W94607  42.486  13.154   3.644
31049W        W94608   9.325  39.502  12.947
31050W        W94609   0.892  22.700  11.107
31051W        W94610  33.902  43.334  14.479
31052W        W94611  43.280  14.746   3.264
31053W        W94612  17.644  20.699  13.503
31054W        W94613  24.198  41.427   4.746
31055W        W94614   8.296  11.130  14.920
31056W        W94615  30.044  44.891  12.016
31057W        W94616  11.351   1.333   3.349
31058W        W94617  43.491   0.494  13.031
31059W        W94618   2.805  29.136  11.550
31060W        W94619  37.419  28.992  12.515
31061W        W94620  14.340  44.409  13.842
31062W        W94621   4.738  22.202   3.315
31063W        W94622   0.388  33.563  10.638
31064W        W94623  39.441  35.418   4.629
31065W        W94624  23.689  21.105  14.885
31066W        W94625  30.079  43.010   1.338
31067W        W94626   3.937  43.299   0.397
31068W        W94627  10.281  33.572   1.236
31069W        W94628  28.961   5.844   3.687
31070W        W94629  19.100  30.138  12.490
31071W        W94630  12.670   3.325  12.979
31072W        W94631  27.660   7.693  12.517
31073W        W94632  28.600  32.093   4.805
31074W        W94633  42.820   6.750  13.836
31075W        W94634  16.169  30.569   0.763
31076W        W94635  34.429  35.871  12.533
31077W        W94636  28.139  26.676   2.728
31078W        W94637  23.653  23.029   0.870
31079W        W94638  11.713  41.935  14.415
31080W        W94639  29.668  10.296  10.573
31081W        W94640  18.778  14.765  13.417
31082W        W94641  33.394  35.961  13.035
31083W        W94642  21.163  19.553  12.967
31084W        W94643   4.869  27.988   3.284
31085W        W94644  32.476  35.031  11.607
31086W        W94645  15.696  23.029   2.266
31087W        W94646  42.870   9.356  14.893
31088W        W94647   1.798   7.365  12.952
31089W        W94648  27.533  33.901   0.944
31090W        W94649  32.104  24.532  14.301
31091W        W94650  41.328   0.768   3.807
31092W        W94651  10.281   5.277   0.912
31093W        W94652  34.529  18.716   0.813
31094W        W94653   7.226  17.602   3.346
31095W        W94654  43.854   2.937   1.363
31096W        W94655  41.476  32.136  14.498
31097W        W94656  15.666  33.057  13.367
31098W        W94657  15.181  13.618   2.683
31099W        W94658  15.764  31.401   4.255
31100W        W94659  42.984   7.702   4.728
31101W        W94660  28.118   3.311  10.152
31102W        W94661  43.503  42.509  13.914
31103W        W94662  38.915  12.194   1.913
31104W        W94663   7.710  37.506   3.738
31105W        W94664  31.519  20.633   1.911
31106W        W94665  13.833   1.388   1.270
31107W        W94666  30.149   6.274   1.788
31108W        W94667  43.916   0.450   2.803
31109W        W94668   8.707  34.947   1.382
31110W        W94669  24.580   4.933  10.924
31111W        W94670   9.754  39.044   1.322
31112W        W94671  14.801  23.106   3.772
31113W        W94672  26.658  10.287   3.631
31114W        W94673   0.426  28.454  11.019
31115W        W94674   6.871  38.051   3.275
31116W        W94675  33.427  13.825   0.794
31117W        W94676  38.959  31.566  13.995
31118W        W94677  28.556   2.277   2.778
31119W        W94678  29.612  13.253   2.685
31120W        W94679  30.015  27.644   0.364
31121W        W94680  31.148  39.039   0.764
31122W        W94681   6.815  24.537   4.800
31123W        W94682  34.376   1.399   3.651
31124W        W94683  12.656  18.097   0.372
31125W        W94684  17.065   0.408   1.434
31126W        W94685  16.767  41.442  10.534
31127W        W94686   9.179  39.514  14.856
31128W        W94687   5.930  44.908   0.892
31129W        W94688  21.538  22.182   4.785
31130W        W94689  10.816  31.471   2.855
31131W        W94690  21.708  16.592   0.368
31132W        W94691   9.268  23.629   2.876
31133W        W94692  22.220  40.013   2.733
31134W        W94693  22.157  27.521   1.439
31135W        W94694   8.684  41.831  13.317
31136W        W94695   2.472  11.176  14.337
31137W        W94696  24.702  28.976  13.485
31138W        W94697  12.352  43.903   2.747
31139W        W94698  27.118  12.337   0.884
31140W        W94699  41.484  41.520   0.938
31141W        W94700  42.345  10.726  10.574
31142W        W94701  10.701  41.512   2.319
31143W        W94702   4.700  36.354   1.334
31144W        W94703  34.070  24.606   3.680
31145W        W94704  20.752  20.177   0.344
31146W        W94705  17.789  39.413   1.776
31147W        W94706  30.578   4.310  12.084
31148W        W94707   4.347   2.340  10.598
31149W        W94708  41.885  13.614  13.041
31150W        W94709  12.617  19.053  14.507
31151W        W94710  17.771   8.883   3.310
31152W        W94711  10.241  24.621   4.263
31153W        W94712  10.320  40.373   0.397
31154W        W94713   7.336  25.189   3.646
31155W        W94714  29.430  18.588   0.468
31156W        W94715  19.756  22.551   2.831
31157W        W94716  41.910  37.566  10.469
31158W        W94717  36.390  35.464  10.636
31159W        W94718  43.793   8.708  10.906
31160W        W94719  44.897   0.884  11.545
31161W        W94720  43.312  12.796  14.885
31162W        W94721  31.532  21.715   0.759
31163W        W94722  17.786  16.081   2.211
31164W        W94723  17.610  14.316  11.477
31165W        W94724   8.682   6.206  11.489
31166W        W94725   6.866  28.552  11.491
31167W        W94726  37.413  22.560  12.974
31168W        W94727   8.406   5.693   0.789
31169W        W94728   8.669  20.541  14.489
31170W        W94729  29.995  24.530   1.788
31171W        W94730  16.076  32.087   2.767
31172W        W94731  11.345   6.185  12.355
31173W        W94732  25.543  15.686  13.494
31174W        W94733   1.346   9.812  11.126
31175W        W94734   9.704  38.989  12.554
31176W        W94735  38.991  13.774  12.060
31177W        W94736   0.752  18.719   1.700
31178W        W94737  42.498  34.506  13.336
31179W        W94738  44.961  32.004  12.085
31180W        W94739  19.155   4.346  11.520
31181W        W94740  29.039   8.736  14.009
31182W        W94741  25.162  32.074   0.385
31183W        W94742  37.569  42.486   2.418
31184W        W94743  25.169  22.050   0.826
31185W        W94744  27.016  11.639  11.989
31186W        W94745   2.382   9.712  13.952
31187W        W94746   7.406   4.252  10.964
31188W        W94747   3.812  11.340  14.479
31189W        W94748  27.063  35.928  11.957
31190W        W94749  29.665   4.764   2.875
31191W        W94750   5.207  20.701   0.244
31192W        W94751  16.180   4.222   3.784
31193W        W94752  33.033  12.739  11.449
31194W        W94753  16.262  22.652   3.725
31195W        W94754  33.435   3.733   1.283
31196W        W94755   3.444  31.509  14.798
31197W        W94756   0.834  31.980   1.227
31198W        W94757  37.907  38.897   4.340
31199W        W94758  34.090  31.915   3.654
31200W        W94759  10.190  21.205  13.047
31201W        W94760  32.987  10.831  11.486
31202W        W94761   2.430  42.921   3.726
31203W        W94762  38.519  34.426   2.877
31204W        W94763  36.376  16.784   3.233
31205W        W94764  30.622   5.847   1.908
31206W        W94765  28.620   2.733  10.412
31207W        W94766  26.052  42.406  12.510
31208W        W94767  26.181  10.328   3.634
31209W        W94768  29.142   0.751  12.570
31210W        W94769  33.087  43.774  13.364
31211W        W94770  35.576  30.593   4.176
31212W        W94771  19.067  27.624  10.890
31213W        W94772  43.365  11.347  14.289
31214W        W94773  11.273  24.689  12.495
31215W        W94774  20.638  39.432   4.643
31216W        W94775  41.006   9.707   4.137
31217W        W94776  37.357  12.195  11.125
31218W        W94777  22.684   4.920   1.228
31219W        W94778   0.327  40.840   1.841
31220W        W94779  36.377  33.478   3.338
31221W        W94780  19.545   0.261   0.378
31222W        W94781  36.443  43.814  10.639
31223W        W94782  11.714   7.301   4.114
31224W        W94783   2.251   1.875  12.361
31225W        W94784   4.368   8.720   0.730
31226W        W94785   7.792   3.770   4.351
31227W        W94786  21.218  25.101  12.827
31228W        W94787  30.602  32.965   1.349
31229W        W94788  27.045  12.746  12.963
31230W        W94789   6.261   8.313  13.901
31231W        W94790  16.278   7.754   3.763
31232W        W94791  22.672  41.427   2.859
31233W        W94792  22.998  30.048  11.521
31234W        W94793  27.586   1.294   0.868
31235W        W94794  14.232  23.121   0.434
31236W        W94795   4.701  31.927  10.485
31237W        W94796  13.171  14.240   1.264
31238W        W94797  34.604  24.642   1.221
31239W        W94798   3.284   7.689   0.335
31240W        W94799  34.530   9.729  13.851
31241W        W94800  35.000  12.712  10.057
31242W        W94801  14.243  16.300  10.524
31243W        W94802   5.876  28.930   2.359
31244W        W94803  10.204  36.852   3.701
31245W        W94804   7.771  17.132   4.169
31246W        W94805  38.385   0.393   0.264
31247W        W94806   0.436   5.307  11.016
31248W        W94807  15.322  19.623   0.275
31249W        W94808  24.195  27.590   0.959
31250W        W94809  26.498  26.172   4.222
31251W        W94810  15.763   3.389  11.934
31252W        W94811  10.281  16.219   1.316
31253W        W94812   6.350  43.328  12.988
31254W        W94813  20.543  21.213  10.516
31255W        W94814  39.399  16.281  13.939
31256W        W94815   1.824  20.064   0.448
31257W        W94816  13.202  22.647  11.389
31258W        W94817   9.172  12.261   3.740
31259W        W94818  15.207   2.881  11.026
31260W        W94819  31.123   8.324  10.618
31261W        W94820  24.613  23.208   3.767
31262W        W94821  22.128  14.336   1.749
31263W        W94822  28.164   6.739  14.911
31264W        W94823  25.070  19.543  10.592
31265W        W94824  41.515  43.319  12.392
31266W        W94825  10.799  41.012  13.047
31267W        W94826  18.766  18.276   2.845
31268W        W94827  41.803  37.343  13.845
31269W        W94828  35.431  14.269  13.907
31270W        W94829   9.272  19.069   4.598
31271W        W94830  18.216  27.497  13.383
31272W        W94831   0.401  40.341   2.798
31273W        W94832  24.602  41.887   4.302
31274W        W94833  34.441  27.063  14.514
31275W        W94834   2.875  37.549  11.606
31276W        W94835  11.708   8.288   5.730
31277W        W94836   4.737  33.914  14.822
31278W        W94837  14.799  44.496   2.836
31279W        W94838  34.874  31.545  11.568
31280W        W94839  39.401  22.538   0.306
31281W        W94840  35.514   4.310   0.734
31282W        W94841  41.831  19.586  14.280
31283W        W94842  28.528  20.761  10.980
31284W        W94843  34.982  31.422   2.228
31285W        W94844  36.575  15.606   0.466
31286W        W94845  23.089  25.199  12.869
31287W        W94846   6.224  34.388   1.709
31288W        W94847  40.339  30.590  11.496
31289W        W94848  22.541  39.049  11.472
31290W        W94849  17.720   9.682  13.369
31291W        W94850  28.543  41.814  11.979
31292W        W94851  43.513  43.964   0.327
31293W        W94852  17.258  27.478   0.786
31294W        W94853   8.268  12.723  14.859
31295W        W94854  16.711  25.002   0.737
31296W        W94855   5.291  22.583   2.375
31297W        W94856  11.734  31.023  11.374
31298W        W94857   6.351  28.460  11.127
31299W        W94858  23.636  43.287   0.351
31300W        W94859  43.979   0.951  13.887
31301W        W94860  17.161  29.616   2.829
31302W        W94861  41.455  29.515   3.839
31303W        W94862   1.748   5.884  10.903
31304W        W94863  19.714  29.114   2.326
31305W        W94864   0.409  10.845  12.407
31306W        W94865  21.104  11.229   1.849
31307W        W94866   1.921  43.868   2.697
31308W        W94867  33.963  20.133  13.317
31309W        W94868   8.889  39.023   3.841
31310W        W94869   1.441  21.030   0.761
31311W        W94870  41.310  21.141   9.979
31312W        W94871  14.144  29.103  10.640
31313W        W94872  42.834  40.478  11.884
31314W        W94873  11.654  39.022  12.481
31315W        W94874   3.854   2.323   2.397
31316W        W94875   9.872  31.529   3.805
31317W        W94876  34.083  22.566  14.389
31318W        W94877   0.940  38.398   2.229
31319W        W94878   8.210  32.564   3.379
31320W        W94879  37.565  14.770   3.253
31321W        W94880   6.345  39.907  14.292
31322W        W94881  17.722  24.175  11.857
31323W        W94882  34.049  17.733  12.348
31324W        W94883  28.673  44.755  11.885
31325W        W94884  28.577   4.346   4.809
31326W        W94885  18.617  23.580  11.505
31327W        W94886  33.593  39.928   4.233
31328W        W94887  16.589  43.850  11.951
31329W        W94888  20.156   4.899  12.481
31330W        W94889   5.342  21.630   4.113
31331W        W94890   0.289  39.826   3.696
31332W        W94891  14.119  38.062  13.310
31333W        W94892  26.588  13.692  12.988
31334W        W94893  35.361   0.336   4.263
31335W        W94894  26.074   3.236  10.419
31336W        W94895  18.271  28.177  12.934
31337W        W94896   5.924  33.936   4.196
31338W        W94897  36.975   6.228  10.915
31339W        W94898  12.352  11.179  12.540
31340W        W94899  22.548  33.604  13.473
31341W        W94900  11.665  20.056   2.867
31342W        W94901  32.916  30.646  10.921
31343W        W94902  10.208   7.819  13.045
31344W        W94903  29.534  42.414  10.585
31345W        W94904  20.219  37.890   4.233
31346W        W94905  28.021  14.312   3.281
31347W        W94906   1.899  41.808   5.228
31348W        W94907  17.154   4.810   5.082
31349W        W94908  33.012  28.503  11.948
31350W        W94909  43.301  40.429  14.415
31351W        W94910  35.864   4.750  13.519
31352W        W94911  37.419  13.731  10.946
31353W        W94912   0.432  20.163  14.399
31354W        W94913  32.015   1.368  11.912
31355W        W94914   9.225  41.825  13.883
31356W        W94915   8.697  33.591  12.527
31357W        W94916  39.892  24.555   4.649
31358W        W94917   8.245  29.591  13.015
31359W        W94918  41.810  17.737  13.947
31360W        W94919   0.435   4.316   4.122
31361W        W94920   2.951  10.243   0.408
31362W        W94921  26.620  35.936   9.976
31363W        W94922  40.327  33.508   4.722
31364W        W94923  33.051   3.763   1.336
31365W        W94924  31.907   0.280   3.256
31366W        W94925  29.469   3.461  12.016
31367W        W94926   9.774  29.060   3.229
31368W        W94927  25.571  18.636  13.437
31369W        W94928  33.534  35.438  12.885
31370W        W94929  29.949   8.766  13.924
31371W        W94930  13.140  40.368  12.901
31372W        W94931  34.878   8.240  13.453
31373W        W94932  38.347  40.396  10.956
31374W        W94933  14.676  18.197   0.932
31375W        W94934  12.634  21.233   4.257
31376W        W94935   5.825  31.899  10.487
31377W        W94936   7.793  23.502  10.536
31378W        W94937  37.556  29.053  12.087
31379W        W94938  14.606  35.439   1.248
31380W        W94939  16.578  13.191  13.457
31381W        W94940  31.103  41.883  10.156
31382W        W94941   5.264   6.353  12.030
31383W        W94942  13.612  40.303  14.946
31384W        W94943   7.284  14.714  10.947
31385W        W94944   9.688   8.893  10.475
31386W        W94945  31.487  38.386   9.947
31387W        W94946   6.802   4.416   0.364
31388W        W94947  29.066   8.371   0.377
31389W        W94948  16.662   6.221  11.519
31390W        W94949   5.712  32.008  12.055
31391W        W94950  12.139   4.937  12.392
31392W        W94951   3.847  12.666  14.358
31393W        W94952  37.451  10.250  13.961
31394W        W94953   5.323  42.450  12.824
31395W        W94954  34.006  39.903  13.827
31396W        W94955  37.043  35.873   1.925
31397W        W94956  18.737  36.857  10.956
31398W        W94957  26.603  26.593  10.950
31399W        W94958   0.308   4.337  11.526
31400W        W94959   9.709   2.443   4.820
31401W        W94960  19.184  25.563   0.825
31402W        W94961  26.661  42.373  13.793
31403W        W94962  30.553  14.633   2.317
31404W        W94963  15.727  23.662  14.021
31405W        W94964   6.751  24.653   4.141
31406W        W94965  39.900  19.212  12.079
31407W        W94966  42.461  28.523  10.910
31408W        W94967  28.982   3.731  14.834
31409W        W94968  22.230   6.879  13.439
31410W        W94969  38.979   9.820   4.128
31411W        W94970  12.711  37.529  11.013
31412W        W94971  26.531  43.893   1.864
31413W        W94972  36.468  25.115  11.371
31414W        W94973   9.789  34.011  14.786
31415W        W94974   0.826   6.743  10.512
31416W        W94975  41.409  14.338  14.837
31417W        W94976  21.531  35.991  13.954
31418W        W94977  41.853  36.082  11.399
31419W        W94978  36.037   7.693  13.345
31420W        W94979  26.528  21.542  12.914
31421W        W94980   6.366  13.133  14.834
31422W        W94981  10.364  36.091   1.779
31423W        W94982  17.753  34.438   0.475
31424W        W94983  39.532  39.998  11.487
31425W        W94984  21.718  32.129   1.423
31426W        W94985  24.088   8.742   1.788
31427W        W94986  14.626  20.742  12.542
31428W        W94987  17.118  44.764   3.151
31429W        W94988   0.970  43.803   3.727
31430W        W94989  12.829   0.792   3.307
31431W        W94990  24.618  37.513   0.291
31432W        W94991  36.862  16.700  11.492
31433W        W94992  19.703  18.561  12.873
31434W        W94993  41.400  19.218   0.412
31435W        W94994  44.389   6.831  14.023
31436W        W94995  32.953  21.675  12.489
31437W        W94996  26.981   9.245  12.522
31438W        W94997  37.038  22.735   3.824
31439W        W94998   5.224  24.550  11.917
31440W        W94999  43.923  11.854   0.755
31441W        W95000  41.360  39.015   1.732
31442W        W95001  17.251   7.863  12.982
31443W        W95002   3.291   3.747   2.225
31444W        W95003  11.769  37.468  14.355
31445W        W95004  18.668  44.317  10.130
31446W        W95005  36.931  31.961  14.383
31447W        W95006   2.275   4.393  14.355
31448W        W95007   5.358  16.163  12.871
31449W        W95008  42.290  17.781  14.336
31450W        W95009  36.440  29.489  12.479
31451W        W95010  42.320  13.828  12.364
31452W        W95011  34.422   6.258   3.659
31453W        W95012  34.448  24.570   3.839
31454W        W95013  40.800  34.599   0.247
31455W        W95014  16.747  15.187   3.671
31456W        W95015  16.162  27.517  11.033
31457W        W95016  24.170   8.776   3.640
31458W        W95017  23.237  39.835  11.586
31459W        W95018   8.828   8.311   1.810
31460W        W95019   4.824   5.232   4.342
31461W        W95020  27.647   3.926   2.258
31462W        W95021  44.452  42.022  11.080
31463W        W95022  32.132  16.145  14.454
31464W        W95023  44.404  13.704   3.362
31465W        W95024  12.649  36.513  12.958
31466W        W95025  26.961  20.239  12.018
31467W        W95026  38.030  42.309  11.940
31468W        W95027  35.573  38.376   3.730
31469W        W95028   7.776  20.583   2.843
31470W        W95029  25.678  25.220   2.190
31471W        W95030  39.421  37.445  12.005
31472W        W95031  39.968   0.824   0.844
31473W        W95032  23.052  31.033   2.824
31474W        W95033  38.026  35.538  10.031
31475W        W95034  21.046  30.572   4.748
31476W        W95035  26.077  26.490  13.375
31477W        W95036   8.900   8.687  13.438
31478W        W95037  11.716  34.062  13.796
31479W        W95038  22.581  11.164  14.861
31480W        W95039  42.825  25.565   5.284
31481W        W95040  42.982   4.320   0.302
31482W        W95041  13.155  42.282  12.853
31483W        W95042  18.158  20.240   1.412
31484W        W95043  22.565  30.117   1.212
31485W        W95044  14.726  25.123   1.837
31486W        W95045  13.716   7.407  12.087
31487W        W95046   2.404  28.528  11.872
31488W        W95047  15.698  42.948  14.431
31489W        W95048  18.276  13.778  10.954
31490W        W95049  12.279   0.475   3.262
31491W        W95050  19.180  23.160  11.461
31492W        W95051  33.413  28.076   2.221
31493W        W95052  29.061  12.137  11.382
31494W        W95053  28.172  13.820  12.967
31495W        W95054   9.329  17.266  13.907
31496W        W95055  17.282  28.622   0.777
31497W        W95056  43.429  12.311  13.886
31498W        W95057  38.342  24.562  10.525
31499W        W95058   4.714  33.974  13.398
31500W        W95059  42.438  14.124   2.820
31501W        W95060  41.294  41.522   0.333
31502W        W95061  21.087  25.468  12.831
31503W        W95062  42.498  36.408   1.233
31504W        W95063   3.777  19.666  14.919
31505W        W95064  20.114  24.220  12.384
31506W        W95065  44.312  11.863   5.171
31507W        W95066  35.474  29.156   4.837
31508W        W95067  13.196   2.323  14.349
31509W        W95068   3.850  26.127   3.309
31510W        W95069  18.550  35.961   1.332
31511W        W95070  15.089  32.495   4.785
31512W        W95071  35.090  15.584   4.653
31513W        W95072  36.383  12.229  12.396
31514W        W95073  10.278  40.988  14.927
31515W        W95074   8.264  34.477  14.354
31516W        W95075  11.821  22.131  11.404
31517W        W95076  37.048  38.011   1.313
31518W        W95077  22.689  24.582   0.742
31519W        W95078  23.636  33.449   0.288
31520W        W95079  40.964  43.876   0.864
31521W        W95080  24.605  11.778   2.811
31522W        W95081  22.616  22.077   1.716
31523W        W95082  25.628  31.521   0.331
31524W        W95083  18.063  44.874   1.283
31525W        W95084  43.784  43.363   4.627
31526W        W95085  14.686  23.128   0.948
31527W        W95086  31.066  31.467   0.939
31528W        W95087   0.867  44.893   0.441
31529W        W95088   8.307  16.649  14.479
31530W        W95089  27.643  26.502   4.348
31531W        W95090  32.434  18.173  10.572
31532W        W95091  19.101   5.353  13.961
31533W        W95092  33.882   3.357  13.515
31534W        W95093  11.749  38.390   4.236
31535W        W95094  40.045   1.769  11.515
31536W        W95095   7.759  36.409  13.534
31537W        W95096  26.610  41.348  12.951
31538W        W95097  13.689   3.786   4.689
31539W        W95098  34.056  30.984  14.509
31540W        W95099   3.789  41.984   2.238
31541W        W95100  40.838  18.175  14.504
31542W        W95101  28.942  10.346   3.856
31543W        W95102   8.838  39.551   3.154
31544W        W95103  40.349  13.306   0.842
31545W        W95104  42.841   6.790   0.278
31546W        W95105  24.682   6.754  12.004
31547W        W95106   0.471   8.290   4.682
31548W        W95107  35.581  15.723   1.704
31549W        W95108  31.561  37.897   5.601
31550W        W95109  33.019   0.948  10.910
31551W        W95110  40.416  38.972  11.058
31552W        W95111  44.297  34.508  12.034
31553W        W95112  10.212  11.320   3.195
31554W        W95113  20.595  33.947   2.267
31555W        W95114  21.561  10.769  13.955
31556W        W95115  30.096   3.284   2.894
31557W        W95116  21.678  10.837  10.637
31558W        W95117  11.857   9.739  10.520
31559W        W95118  40.871  30.157   0.883
31560W        W95119   1.238  16.108   4.747
31561W        W95120  40.337  42.897  10.497
31562W        W95121   8.311  29.935  13.908
31563W        W95122  44.848  33.615  11.970
31564W        W95123   3.290  42.877  10.561
31565W        W95124  12.737  36.416  11.456
31566W        W95125  35.380  39.906  12.825
31567W        W95126  17.778  24.479  14.925
31568W        W95127  20.123  34.087  13.402
31569W        W95128  36.403  34.062   0.289
31570W        W95129   3.243  41.472  14.279
31571W        W95130  35.373  21.695   0.350
31572W        W95131   6.701  27.958   1.757
31573W        W95132  31.450  28.449  14.929
31574W        W95133  43.956   7.402   1.235
31575W        W95134  21.688  31.569   0.864
31576W        W95135  10.367  26.100  13.813
31577W        W95136  32.926  19.211  11.605
31578W        W95137  18.295  40.997  14.415
31579W        W95138  43.774  38.517  11.883
31580W        W95139   6.750  41.293  14.423
31581W        W95140   8.385  22.071  14.434
31582W        W95141  33.098   8.891  12.545
31583W        W95142  40.804  43.441   0.845
31584W        W95143  37.026   8.847  13.026
31585W        W95144  12.772   1.442  11.384
31586W        W95145   7.868  34.993  10.906
31587W        W95146  43.875  23.734  11.492
31588W        W95147   1.858  39.952   2.706
31589W        W95148   6.766  36.551   2.265
31590W        W95149  40.316   0.986  14.423
31591W        W95150  10.377  21.746  12.467
31592W        W95151  37.369  14.823  10.979
31593W        W95152  19.051  16.276  12.837
31594W        W95153  21.202  22.718  11.411
31595W        W95154  23.709  21.749  13.396
31596W        W95155   2.791  42.282   0.332
31597W        W95156  32.064  35.430  10.556
31598W        W95157  10.721  27.088   2.246
31599W        W95158   8.192  33.593   2.376
31600W        W95159   0.935  12.669   4.628
31601W        W95160  20.153  19.738  13.954
31602W        W95161  23.223  37.348   2.788
31603W        W95162  13.249  35.890  12.449
31604W        W95163  21.649  32.138  12.975
31605W        W95164  41.506  34.894  10.547
31606W        W95165  33.924  21.104   2.228
31607W        W95166  13.120  16.569  13.513
31608W        W95167  17.284  42.920   5.180
31609W        W95168  22.608  21.245   4.335
31610W        W95169  31.969   6.821  12.885
31611W        W95170  35.421   5.428  10.902
31612W        W95171  16.619   6.867   1.870
31613W        W95172  29.588  33.994  14.010
31614W        W95173   1.311  28.070  12.900
31615W        W95174   4.439  40.505   0.811
31616W        W95175  30.964  36.066   3.199
31617W        W95176  24.161  30.033  13.390
31618W        W95177  20.199  23.647  12.001
31619W        W95178  20.240  14.304  14.889
31620W        W95179  17.712  39.349   3.714
31621W        W95180  42.779   6.399  13.341
31622W        W95181  14.777  11.767  14.976
31623W        W95182   0.307  37.940  12.909
31624W        W95183  44.337   2.335  14.895
31625W        W95184  18.731  25.657   0.762
31626W        W95185  38.436  22.625   2.895
31627W        W95186  25.620   7.786   3.372
31628W        W95187  25.496  17.250   1.264
31629W        W95188  14.127   6.397  11.380
31630W        W95189  37.549  30.470  11.541
31631W        W95190  16.275  28.450  11.484
31632W        W95191  25.130  43.846  14.361
31633W        W95192  29.519  18.213   2.367
31634W        W95193  35.037  16.756   0.363
31635W        W95194  15.650  32.084   5.107
31636W        W95195  13.732  27.195  10.969
31637W        W95196  40.412  34.472  13.829
31638W        W95197  24.057  41.881   1.873
31639W        W95198  43.957  23.038  14.505
31640W        W95199  14.676  38.969  14.830
31641W        W95200  28.929  21.568   4.207
31642W        W95201  41.325  22.505   1.852
31643W        W95202   6.302  19.258   4.810
31644W        W95203  40.855  43.442   2.262
31645W        W95204   4.921  32.130  11.936
31646W        W95205  40.950  34.553   2.776
31647W        W95206  42.791   0.803  11.892
31648W        W95207  37.905  17.786  13.425
31649W        W95208  44.807   9.694   1.344
31650W        W95209  11.690  16.674  12.455
31651W        W95210  12.615  10.668  13.537
31652W        W95211  28.087   3.430  11.985
31653W        W95212  39.972  14.250  10.585
31654W        W95213  15.283  25.083  13.796
31655W        W95214  31.077   2.909  12.356
31656W        W95215  11.211  21.039  10.523
31657W        W95216  13.644   3.775   4.167
31658W        W95217   1.379  35.008  11.095
31659W        W95218  14.266  40.034   4.119
31660W        W95219  29.498  14.701  10.590
31661W        W95220  15.763  33.963   5.288
31662W        W95221   8.768  42.314   2.414
31663W        W95222  44.808   4.326  14.918
31664W        W95223  37.415  33.896   1.383
31665W        W95224  21.561  24.163  11.540
31666W        W95225   5.805  32.928  12.091
31667W        W95226  17.634   0.386   2.703
31668W        W95227  23.726  40.407  14.445
31669W        W95228   3.747   0.797  13.481
31670W        W95229  43.854  13.162   4.629
31671W        W95230  17.229  43.497   4.344
31672W        W95231  40.369  15.117   4.789
31673W        W95232   9.227   2.423   4.261
31674W        W95233  26.576   4.412  11.122
31675W        W95234   2.359  29.432   4.821
31676W        W95235   3.896  20.181  12.989
31677W        W95236   7.384  23.051  12.942
31678W        W95237  10.676  22.516  13.905
31679W        W95238  31.015  10.723   3.844
31680W        W95239  28.053  27.184   0.425
31681W        W95240   0.352  22.175   1.815
31682W        W95241  30.564  16.186  10.899
31683W        W95242  20.161  21.595  11.124
31684W        W95243  37.498  18.248   0.742
31685W        W95244  30.649  28.118  12.570
31686W        W95245  30.090  29.014   4.246
31687W        W95246   8.360  38.386  13.874
31688W        W95247  25.499   3.938  14.419
31689W        W95248  22.534  21.145   2.733
31690W        W95249  28.086  17.729   2.283
31691W        W95250  17.562  36.495  10.604
31692W        W95251   6.742  41.515   0.349
31693W        W95252  28.172   3.311   2.349
31694W        W95253  39.957  44.990  12.459
31695W        W95254  29.947   8.846  14.801
31696W        W95255  16.619   0.490   3.767
31697W        W95256   1.280   3.884   0.271
31698W        W95257  12.284   1.923   1.870
31699W        W95258  31.934  22.104   2.800
31700W        W95259  13.710  21.128  13.351
31701W        W95260   8.179  16.721   0.296
31702W        W95261  33.541  41.900  11.522
31703W        W95262  43.295  32.570  14.938
31704W        W95263  18.183  18.558  11.419
31705W        W95264   6.310   2.255   3.675
31706W        W95265  44.423  20.168   0.906
31707W        W95266  44.864  24.574   1.397
31708W        W95267  32.474   5.246   1.233
31709W        W95268  33.555  39.914   5.787
31710W        W95269   3.311   8.373  11.995
31711W        W95270  11.673  27.460   4.660
31712W        W95271   9.651   1.825  13.480
31713W        W95272  41.437  44.464  12.484
31714W        W95273   2.739  36.438  12.900
31715W        W95274  11.371  24.633   3.331
31716W        W95275  38.015   8.301   0.868
31717W        W95276   9.367  22.045   3.287
31718W        W95277  11.826  33.619   3.778
31719W        W95278  26.637  16.670  12.341
31720W        W95279   1.786  13.687   3.160
31721W        W95280   3.307  18.593  12.069
31722W        W95281  37.465  22.602   3.292
31723W        W95282  44.306  10.754  11.447
31724W        W95283  16.152  38.335   3.847
31725W        W95284  37.968  31.899   4.604
31726W        W95285  38.911  42.022   3.686
31727W        W95286  44.879  18.097  13.538
31728W        W95287  32.928  21.647  14.916
31729W        W95288   7.898  13.636  12.067
31730W        W95289   7.827  40.516  14.377
31731W        W95290  20.215  18.727   1.251
31732W        W95291  25.635   9.308   1.765
31733W        W95292  37.466  11.836  14.858
31734W        W95293  11.248  29.140  14.783
31735W        W95294  39.446  43.951   4.644
31736W        W95295  43.505  33.440  10.053
31737W        W95296   1.399  34.044  10.493
31738W        W95297  33.885  19.162  13.842
31739W        W95298  35.087  37.519   0.770
31740W        W95299  26.554  32.398  12.871
31741W        W95300  33.521  38.048  11.015
31742W        W95301  18.174  29.095   5.282
31743W        W95302  16.793  13.811   2.393
31744W        W95303  18.613   1.789   1.435
31745W        W95304  23.156   9.373  11.458
31746W        W95305  39.541  26.661  14.302
31747W        W95306  19.646  36.383  10.404
31748W        W95307  27.631  18.080   1.337
31749W        W95308  15.281  27.058  13.797
31750W        W95309  37.495  21.097  14.859
31751W        W95310  27.070  42.929   0.347
31752W        W95311  37.976   8.364   4.703
31753W        W95312  38.057  14.281   2.824
31754W        W95313  42.929  38.936  13.442
31755W        W95314  39.404   6.831   0.254
31756W        W95315  17.083  14.258   0.298
31757W        W95316  28.108   1.806  10.033
31758W        W95317  27.616  30.614   2.218
31759W        W95318  29.921  27.028   3.726
31760W        W95319  37.562  25.637   1.753
31761W        W95320  43.298   5.412   3.844
31762W        W95321   3.845   8.400   2.195
31763W        W95322  37.933  40.942  11.385
31764W        W95323   4.209  43.906   0.305
31765W        W95324  41.039  33.949  12.570
31766W        W95325  23.723  34.078  10.457
31767W        W95326  26.652  27.960  12.971
31768W        W95327   1.456  21.663   0.375
31769W        W95328  22.139  12.741   0.756
31770W        W95329  25.167  13.247   4.619
31771W        W95330  24.167  40.455  10.581
31772W        W95331  12.139   3.759  10.566
31773W        W95332  11.237  28.930   1.415
31774W        W95333  22.153  31.968   5.594
31775W        W95334   1.850  16.732  12.409
31776W        W95335  20.713  29.979  11.514
31777W        W95336  29.605   1.793  14.481
31778W        W95337  39.427  23.126   0.783
31779W        W95338   3.731  34.107  11.497
31780W        W95339  17.120   1.962  11.504
31781W        W95340  24.034  43.852  12.571
31782W        W95341   2.870  29.653  14.394
31783W        W95342   9.294  31.036   4.276
31784W        W95343  20.764  10.647  14.850
31785W        W95344  29.645  34.536   4.171
31786W        W95345   1.329   9.349   0.795
31787W        W95346  17.676  16.686  11.114
31788W        W95347  44.397  25.521  14.849
31789W        W95348  39.867  16.756   1.809
31790W        W95349  40.532  29.969   3.341
31791W        W95350  33.491  12.648  13.901
31792W        W95351  10.327  12.325   1.767
31793W        W95352  30.543  43.352   3.795
31794W        W95353  29.465  16.138  10.940
31795W        W95354  34.867  24.210  12.404
31796W        W95355  39.941  36.477  10.920
31797W        W95356  28.997  39.925   9.938
31798W        W95357   0.792   6.356   2.895
31799W        W95358  40.337  33.539  12.927
31800W        W95359  21.690  10.784   2.265
31801W        W95360   9.297  20.060  11.997
31802W        W95361  18.643  10.814   2.895
31803W        W95362  12.320  22.711   0.935
31804W        W95363  42.425   8.174  14.879
31805W        W95364  25.014  16.588  10.643
31806W        W95365   2.410   5.714   2.857
31807W        W95366   1.775   0.784   1.310
31808W        W95367   6.852  31.048   0.479
31809W        W95368  44.299  35.521   0.299
31810W        W95369  34.480  15.640   2.749
31811W        W95370   1.449  21.206  13.929
31812W        W95371  21.607  25.675   1.244
31813W        W95372   4.832  43.375  10.901
31814W        W95373  36.004  16.104  14.927
31815W        W95374  27.985  23.232  11.424
31816W        W95375  32.620  23.545   0.784
31817W        W95376  21.523  26.096  12.046
31818W        W95377  23.165  42.897  12.398
31819W        W95378   3.793   6.379  14.363
31820W        W95379  25.163   0.880  11.543
31821W        W95380  43.910  33.906   0.320
31822W        W95381  22.569   6.323   2.193
31823W        W95382  32.415  15.259  12.381
31824W        W95383  30.478  43.484  13.977
31825W        W95384  44.434  20.611   4.336
31826W        W95385  44.288  44.351   1.721
31827W        W95386  44.788  16.668  10.546
31828W        W95387  26.057  13.753   3.748
31829W        W95388  34.579  21.542   0.825
31830W        W95389  34.892  43.289   1.814
31831W        W95390   1.862  11.297  11.930
31832W        W95391  44.815  30.986  12.425
31833W        W95392  13.254  36.469   2.384
31834W        W95393  44.414   7.259   3.358
31835W        W95394   2.247  44.981  11.009
31836W        W95395   0.849   9.830  10.514
31837W        W95396   9.330  40.972   4.725
31838W        W95397  10.301  24.213  12.457
31839W        W95398   0.347  31.615  10.950
31840W        W95399  21.567  32.598  10.930
31841W        W95400  19.773  42.369   1.905
31842W        W95401  30.569   8.901  12.527
31843W        W95402  44.261   8.383  14.807
31844W        W95403  18.272  29.469  14.414
31845W        W95404  29.012  39.514  12.897
31846W        W95405  39.350  16.759   0.328
31847W        W95406  41.043  37.366  12.018
31848W        W95407  34.040  30.533   0.904
31849W        W95408  31.957  41.923   5.186
31850W        W95409   5.706   2.281  11.591
31851W        W95410  34.924  16.717  14.841
31852W        W95411  21.692   2.386   2.851
31853W        W95412  32.891  44.000   3.314
31854W        W95413  43.328  19.625  14.019
31855W        W95414  12.359  32.417   3.783
31856W        W95415  10.730  26.561  10.103
31857W        W95416  21.656  20.746  12.923
31858W        W95417   5.286  25.106  11.912
31859W        W95418  19.767  19.134  12.470
31860W        W95419  43.827  35.568   2.769
31861W        W95420  14.728  12.166  10.458
31862W        W95421  26.699  33.620   2.415
31863W        W95422  18.137  10.348   4.177
31864W        W95423   4.210  13.620   3.797
31865W        W95424  30.065  32.130  14.005
31866W        W95425  26.998  43.000   4.825
31867W        W95426   3.246   2.886  13.931
31868W        W95427  22.246  28.598  14.343
31869W        W95428   0.254   7.771  10.475
31870W        W95429  39.943  10.874   3.787
31871W        W95430  31.436  18.626   3.861
31872W        W95431  39.920  40.885  13.016
31873W        W95432   1.787  25.974  12.506
31874W        W95433  16.569  41.468   1.791
31875W        W95434  10.346   1.411  12.381
31876W        W95435  20.570  30.075   2.769
31877W        W95436  36.078  12.317   5.191
31878W        W95437  30.654  16.280  11.503
31879W        W95438  32.141   4.887  14.787
31880W        W95439  12.758  25.169  11.967
31881W        W95440  19.057  36.532   0.959
31882W        W95441  12.622  21.245   1.228
31883W        W95442  13.292  44.822   0.731
31884W        W95443  24.228  27.127   2.267
31885W        W95444   9.274  34.514  10.943
31886W        W95445   5.814  29.978  10.543
31887W        W95446  41.295  24.060   1.724
31888W        W95447  19.044  12.707  13.805
31889W        W95448  21.531  17.139  11.942
31890W        W95449  37.547  44.006   2.784
31891W        W95450  40.907  40.844  13.539
31892W        W95451   1.357  16.664  11.560
31893W        W95452  35.412  16.116   1.713
31894W        W95453  21.255  42.007  13.345
31895W        W95454  24.111   9.357   4.297
31896W        W95455  43.493  40.317  12.062
31897W        W95456  43.295  40.826  10.468
31898W        W95457  35.507   1.793  12.397
31899W        W95458  40.946   8.357  13.947
31900W        W95459  39.524  36.935   1.284
31901W        W95460  27.147  33.419   2.222
31902W        W95461  27.945   1.419   2.249
31903W        W95462  25.023   1.742  12.365
31904W        W95463  30.413  11.155   2.415
31905W        W95464  14.738   5.415   0.403
31906W        W95465  13.276  33.607   5.268
31907W        W95466  27.546  33.891   1.282
31908W        W95467  31.553   6.324  13.393
31909W        W95468  13.323  19.628  11.022
31910W        W95469  37.491   2.834   2.668
31911W        W95470  27.454  15.748  10.546
31912W        W95471  20.661   1.774   3.653
31913W        W95472  21.022  28.679  10.517
31914W        W95473  44.275  21.647   4.617
31915W        W95474   1.794  27.971   0.446
31916W        W95475  14.760  33.929   0.731
31917W        W95476  30.437  23.152   2.883
31918W        W95477  30.988   7.373   3.772
31919W        W95478   0.766   6.893  11.024
31920W        W95479  30.934   0.989  11.391
31921W        W95480  31.620  14.271   3.870
31922W        W95481  35.929  23.101  12.010
31923W        W95482   9.734  12.650  12.025
31924W        W95483  43.871  23.510  14.372
31925W        W95484  43.474  28.161   3.771
31926W        W95485  21.068  20.133  13.370
31927W        W95486  44.863  13.341   2.353
31928W        W95487  35.414   4.267  12.442
31929W        W95488  29.615  10.193  14.398
31930W        W95489   4.749   6.247  13.834
31931W        W95490   6.392  17.158   5.180
31932W        W95491  23.100  15.716   2.777
31933W        W95492   7.176  22.196   2.232
31934W        W95493  21.698   5.782   3.364
31935W        W95494  37.989  20.708   0.388
31936W        W95495   0.413  26.107   2.246
31937W        W95496  36.441   8.719   4.252
31938W        W95497   9.846  42.821   2.251
31939W        W95498  23.034  37.909   0.318
31940W        W95499  31.100   6.829   0.790
31941W        W95500  43.966   4.937   1.364
31942W        W95501  36.004  18.646  13.005
31943W        W95502  31.556  36.079  14.330
31944W        W95503   8.263   0.937  12.355
31945W        W95504  32.077  27.543  11.911
31946W        W95505  39.365  31.629   0.346
31947W        W95506   8.811  43.015  10.129
31948W        W95507   5.818  38.884   4.631
31949W        W95508   8.725   1.469  10.982
31950W        W95509  10.176  29.446  13.994
31951W        W95510  29.063  42.901   3.743
31952W        W95511  22.148  44.825  10.530
31953W        W95512   8.775  29.435   4.232
31954W        W95513  28.559  10.837  11.477
31955W        W95514  39.550  27.635   4.695
31956W        W95515  12.830  23.070  13.364
31957W        W95516  27.671   5.697  12.924
31958W        W95517  18.092  36.074  11.595
31959W        W95518   6.354  15.097   0.393
31960W        W95519  31.014  32.105   2.397
31961W        W95520  21.565   9.814   4.758
31962W        W95521  15.669  31.116   1.434
31963W        W95522  24.084   9.707  14.383
31964W        W95523  11.294  16.690  12.452
31965W        W95524  40.316  29.929  13.544
31966W        W95525   5.226   0.257  13.846
31967W        W95526  35.375  28.037  11.957
31968W        W95527  35.034  43.786  10.557
31969W        W95528  41.011   2.465   4.821
31970W        W95529  11.661  27.057  12.034
31971W        W95530  36.422  21.018  12.430
31972W        W95531  31.530  15.726  11.033
31973W        W95532  34.939  25.711   4.178
31974W        W95533  23.602  21.607   4.261
31975W        W95534  20.696  14.149  10.485
31976W        W95535  41.821  12.216   3.671
31977W        W95536  25.162  23.571  12.936
31978W        W95537  37.983  21.654  12.962
31979W        W95538  24.010  32.408   0.348
31980W        W95539  39.553   6.273  12.839
31981W        W95540  14.309   3.437   4.634
31982W        W95541  20.721  17.708  13.980
31983W        W95542  34.031  26.023   3.755
31984W        W95543   7.188  35.937   2.804
31985W        W95544  12.765  39.908  12.366
31986W        W95545  32.621  21.741   3.850
31987W        W95546  14.181  18.633   4.820
31988W        W95547  28.987  23.997  12.555
31989W        W95548  20.137  10.784  12.541
31990W        W95549  42.298   4.730  14.867
31991W        W95550  17.125  28.667   1.759
31992W        W95551   2.247  36.463   2.341
31993W        W95552  42.366   8.754  12.884
31994W        W95553  12.799  28.617  10.584
31995W        W95554  29.456  36.579   2.830
31996W        W95555  20.228  30.130  11.004
31997W        W95556  22.231   4.329   2.776
31998W        W95557  11.218  37.042  12.839
31999W        W95558   8.251   0.854   2.333
32000W        W95559   6.771  39.944   1.229
32001W        W95560  39.860  19.576   0.435
32002W        W95561  29.174   6.716   4.189
32003W        W95562  32.430   6.910  11.006
32004W        W95563   2.757  10.245  11.996
32005W        W95564   9.842  34.438   4.228
32006W        W95565   8.357   0.255  13.051
32007W        W95566  39.827   8.295   0.304
32008W        W95567  27.629  32.921   2.254
32009W        W95568  42.866  35.021  13.947
32010W        W95569   1.816   8.676  11.577
32011W        W95570  21.565   1.805  11.075
32012W        W95571   3.821  44.308  14.838
32013W        W95572  22.053  12.857  13.858
32014W        W95573  14.128  28.070   1.717
32015W        W95574  14.792  29.518   2.723
32016W        W95575  18.144  26.597   3.739
32017W        W95576  16.150  40.832  10.568
32018W        W95577   9.224   6.887  12.091
32019W        W95578  40.433  29.536  10.923
32020W        W95579   2.263  42.950  14.468
32021W        W95580  38.358  36.371   1.880
32022W        W95581  15.118  32.588  14.026
32023W        W95582  25.651  44.775  14.312
32024W        W95583   3.914  43.339  10.546
32025W        W95584  25.539  36.454   0.828
32026W        W95585   1.925  44.260  12.405
32027W        W95586   9.159   8.877   0.404
32028W        W95587  30.042  28.931   3.387
32029W        W95588  15.223  44.897   2.184
32030W        W95589  29.549  28.677   1.736
32031W        W95590   2.944  32.635  11.454
32032W        W95591  12.219   1.884  13.444
32033W        W95592  37.977  40.419   2.845
32034W        W95593  37.022  28.537   3.268
32035W        W95594  36.000  19.154   2.233
32036W        W95595  34.491   1.776  13.027
32037W        W95596   6.828  35.954  11.526
32038W        W95597   5.333  39.429  12.442
32039W        W95598  11.699   9.807   4.121
32040W        W95599  21.049  29.088   4.626
32041W        W95600  18.089  31.422   0.447
32042W        W95601  16.109  36.059   2.777
32043W        W95602  32.120  10.675   2.186
32044W        W95603  25.194   3.342  10.160
32045W        W95604  16.788  18.703   2.880
32046W        W95605  43.997   4.397   1.339
32047W        W95606   7.708  41.980  14.864
32048W        W95607  20.726  15.156  11.434
32049W        W95608  11.270  21.213  11.051
32050W        W95609  41.789  27.057   1.442
32051W        W95610  29.592   1.875   4.141
32052W        W95611   1.940  11.750  11.128
32053W        W95612  29.424  25.110  12.912
32054W        W95613  11.153   6.778  14.855
32055W        W95614  25.020  29.626  11.433
32056W        W95615  42.482  13.735   0.357
32057W        W95616  28.025   9.346  12.524
32058W        W95617   6.405  26.535  11.513
32059W        W95618  23.561  36.922   3.773
32060W        W95619  38.928   7.697   2.369
32061W        W95620  39.543  29.599  13.470
32062W        W95621  14.271  21.143   2.287
32063W        W95622  23.570  21.676   1.273
32064W        W95623  44.794   3.248  14.822
32065W        W95624  25.219  22.609   1.214
32066W        W95625  36.565   7.684   2.894
32067W        W95626  34.568  31.917  11.998
32068W        W95627  37.487  38.370  14.294
32069W        W95628  34.880  36.891   1.904
32070W        W95629  30.499  19.762  13.967
32071W        W95630  35.902  17.308   0.864
32072W        W95631  21.107  44.313  10.993
32073W        W95632  18.728  35.056  10.962
32074W        W95633  16.115   1.271  12.054
32075W        W95634   6.901  30.509   1.379
32076W        W95635  20.196   5.879  13.050
32077W        W95636  34.017   0.882   3.340
32078W        W95637  42.424  32.406   0.878
32079W        W95638   1.448  34.910   4.117
32080W        W95639  26.169  39.917   2.866
32081W        W95640  11.139  24.562   4.636
32082W        W95641  36.369  10.271  12.477
32083W        W95642   2.770  22.122   0.813
32084W        W95643  19.551  34.031  10.550
32085W        W95644  31.488  40.440   4.180
32086W        W95645  28.114  15.249  13.346
32087W        W95646   1.314   9.198  10.481
32088W        W95647  44.963   7.177   0.337
32089W        W95648   0.388   3.309  10.507
32090W        W95649  18.166  39.353   2.390
32091W        W95650  30.427   4.353  12.572
32092W        W95651  25.060  44.934   3.718
32093W        W95652  29.961   3.300   1.789
32094W        W95653  31.981  36.428   1.339
32095W        W95654   8.196  10.738  13.405
32096W        W95655   0.273  32.031   2.698
32097W        W95656  38.949  18.229   1.297
32098W        W95657  29.941  22.514   0.854
32099W        W95658  32.394  36.014   5.114
32100W        W95659  40.502  36.001  13.380
32101W        W95660  22.131  12.353   4.332
32102W        W95661  32.397   0.339  12.083
32103W        W95662   0.915   8.344  14.791
32104W        W95663  43.491  33.517  13.969
32105W        W95664  20.727   9.754  10.978
32106W        W95665   8.347  40.483  12.050
32107W        W95666  38.507  27.179   3.659
32108W        W95667  23.605   2.862  13.525
32109W        W95668  17.620  22.623  14.332
32110W        W95669  43.960  42.430  11.988
32111W        W95670   2.344  16.747   4.776
32112W        W95671  17.301  37.337   3.795
32113W        W95672  28.577  33.059  10.473
32114W        W95673  36.961   2.379  10.922
32115W        W95674  29.496  29.572  12.563
32116W        W95675  43.367   3.287  14.763
32117W        W95676  27.510   3.720  13.045
32118W        W95677  15.795  41.504   2.859
32119W        W95678  11.173  27.986  10.557
32120W        W95679  39.399  16.084  10.410
32121W        W95680   5.226  37.533  12.359
32122W        W95681  27.646  33.449  10.919
32123W        W95682  39.058  24.624   2.383
32124W        W95683  43.305   0.329   4.711
32125W        W95684  18.683  11.308  14.855
32126W        W95685   6.797  28.100   4.265
32127W        W95686  38.502  42.788  12.858
32128W        W95687  30.419   7.680   1.739
32129W        W95688  16.708  13.663  14.878
32130W        W95689  37.476  21.112  13.941
32131W        W95690  17.244  32.617   0.414
32132W        W95691  28.611  27.501  10.458
32133W        W95692  44.903  38.055  13.055
32134W        W95693  15.322   9.651  12.388
32135W        W95694   2.236  38.504  12.513
32136W        W95695  30.031  34.986  14.372
32137W        W95696  20.206  21.052  13.481
32138W        W95697  10.141  11.726  13.938
32139W        W95698   2.422  42.833  12.462
32140W        W95699   2.931  12.321   1.816
32141W        W95700  10.176  35.904  11.889
32142W        W95701   3.259   1.853  13.822
32143W        W95702  17.138  23.178  11.971
32144W        W95703   3.731  18.696  13.472
32145W        W95704  41.950  10.180  11.978
32146W        W95705  39.056  27.530  13.312
32147W        W95706  39.980  31.930  13.533
32148W        W95707  15.158  33.583  13.467
32149W        W95708  18.789   5.872  14.831
32150W        W95709  31.981  43.918  12.846
32151W        W95710  37.412  23.550   0.844
32152W        W95711  10.673  12.624   4.319
32153W        W95712  17.171  41.402   3.330
32154W        W95713  19.548  33.050   0.303
32155W        W95714   3.391   0.744   3.204
32156W        W95715  19.580  28.634  13.329
32157W        W95716  29.970  25.636   4.700
32158W        W95717  23.003   3.911   0.802
32159W        W95718  37.374  43.362   1.911
32160W        W95719  39.852  34.996  14.949
32161W        W95720  34.383   6.272   4.298
32162W        W95721  28.439  21.535  11.986
32163W        W95722  15.813  30.013   3.845
32164W        W95723  20.537  34.118  13.434
32165W        W95724  33.035   8.744  14.492
32166W        W95725   6.822   1.377   4.179
32167W        W95726  26.076  39.489   0.448
32168W        W95727   1.466  36.995   2.313
32169W        W95728  42.286   5.193  14.461
32170W        W95729  30.907   1.417   3.306
32171W        W95730  35.971  35.975  14.942
32172W        W95731  17.289  21.125  11.552
32173W        W95732   1.377  38.510   1.253
32174W        W95733  43.835  38.476  11.491
32175W        W95734   0.275   7.409  12.565
32176W        W95735  30.061   3.221  14.831
32177W        W95736   0.436   6.303   4.307
32178W        W95737  24.504  19.595  11.536
32179W        W95738  29.991  44.379   1.772
32180W        W95739   0.895  14.786  11.996
32181W        W95740   1.866  40.001   4.287
32182W        W95741  31.445  23.534  10.891
32183W        W95742   5.883  14.294   1.284
32184W        W95743  20.240   3.396  14.381
32185W        W95744  18.223  11.269  13.828
32186W        W95745  19.114  23.566   3.321
32187W        W95746  26.603  26.973   3.794
32188W        W95747  25.487  12.773   4.142
32189W        W95748  21.713   7.240  13.424
32190W        W95749  37.516   7.876   2.348
32191W        W95750  25.565  12.853  13.524
32192W        W95751   9.693  13.300   2.675
32193W        W95752  27.984  32.477  14.317
32194W        W95753   7.338  28.103   5.143
32195W        W95754  33.914  29.665   4.315
32196W        W95755  22.150  10.223  12.970
32197W        W95756   2.808  16.162   3.705
32198W        W95757  44.377  10.260  11.374
32199W        W95758  29.641   0.337  12.537
32200W        W95759  20.631  28.539   0.862
32201W        W95760   7.685  30.969  14.851
32202W        W95761  17.125  26.574   1.915
32203W        W95762   8.683   4.812   2.418
32204W        W95763  23.231  24.140  13.835
32205W        W95764  34.467  39.399  12.077
32206W        W95765  38.329  39.997  12.995
32207W        W95766  43.014  31.466  11.456
32208W        W95767  10.833  14.302   3.238
32209W        W95768   7.682  44.767  14.338
32210W        W95769  19.045   7.387   1.357
32211W        W95770  39.437  43.389   4.602
32212W        W95771   8.721  41.427  12.972
32213W        W95772  17.705   9.851   3.742
32214W        W95773  28.501  29.155  13.060
32215W        W95774  25.490  19.559  10.539
32216W        W95775  15.780  39.927   1.812
32217W        W95776  25.682   3.824  10.956
32218W        W95777  30.579   5.261   1.821
32219W        W95778   9.301  39.052  14.337
32220W        W95779  42.944  15.184  14.960
32221W        W95780   1.790  44.866  11.453
32222W        W95781  36.350   2.241   3.209
32223W        W95782  37.018  23.542  14.772
32224W        W95783  30.958  36.951  14.477
32225W        W95784  10.172  24.599  10.087
32226W        W95785  33.431  26.531  14.997
32227W        W95786  44.962  23.991  12.999
32228W        W95787  34.902  33.422  14.394
32229W        W95788  14.691  33.422  10.941
32230W        W95789  14.712  10.841   0.356
32231W        W95790  17.064  41.952  10.481
32232W        W95791  24.185  44.774  13.864
32233W        W95792  21.722  32.076   4.155
32234W        W95793  41.841  18.288  12.446
32235W        W95794  41.892  25.048   4.801
32236W        W95795  40.837  31.450  13.519
32237W        W95796  34.402  39.338   1.820
32238W        W95797  26.078   6.900   0.927
32239W        W95798   3.421   3.955   1.934
32240W        W95799  15.196  22.582  12.351
32241W        W95800  36.442  24.676  13.547
32242W        W95801  32.552  32.008  14.447
32243W        W95802  35.570  39.819  11.461
32244W        W95803  23.094   6.392   2.821
32245W        W95804  15.609  42.846   3.369
32246W        W95805  18.670   1.479   4.699
32247W        W95806  26.662  22.027   3.721
32248W        W95807   0.975  42.411   3.708
32249W        W95808  43.320  43.879   3.670
32250W        W95809  38.909  24.064  11.505
32251W        W95810  15.641  11.656   0.770
32252W        W95811  17.740  43.939  11.020
32253W        W95812  38.885   0.413   0.378
32254W        W95813   3.225  23.585  13.368
32255W        W95814  23.665  20.657   1.848
32256W        W95815  24.045  34.038   3.237
32257W        W95816   9.225  34.388  13.051
32258W        W95817  21.557  17.107   4.204
32259W        W95818  11.225   2.722   1.357
32260W        W95819  28.983  39.375  14.999
32261W        W95820  22.517  35.893  10.634
32262W        W95821  14.589  43.886  12.980
32263W        W95822  16.138  14.645  12.055
32264W        W95823  14.266  42.429   1.843
32265W        W95824  15.648  39.511  10.446
32266W        W95825  13.108  21.674   0.328
32267W        W95826  13.151   4.774   4.710
32268W        W95827  10.825  24.086   1.854
32269W        W95828  17.737  43.935   4.782
32270W        W95829   1.746  22.079  13.402
32271W        W95830  44.922  38.329  12.927
32272W        W95831  42.434  38.346  12.343
32273W        W95832   7.360  14.180   3.252
32274W        W95833  10.307  24.680   0.300
32275W        W95834  18.264  15.766  12.846
32276W        W95835  11.628  21.643   4.708
32277W        W95836  33.901  35.930   3.646
32278W        W95837  23.186  10.246   4.117
32279W        W95838   7.297   3.440  14.948
32280W        W95839   6.228  44.758   0.282
32281W        W95840  42.992  33.897   3.682
32282W        W95841  37.581   6.289   5.308
32283W        W95842  15.150  33.529   2.350
32284W        W95843   0.333  11.809   0.893
32285W        W95844   9.786  39.975   3.277
32286W        W95845   2.287  34.423  13.875
32287W        W95846  14.167  38.557  12.511
32288W        W95847  12.139  27.005  14.958
32289W        W95848  34.539  17.676  13.018
32290W        W95849  19.609  20.265  14.022
32291W        W95850  32.445  36.073  13.807
32292W        W95851   0.314  15.122  12.474
32293W        W95852  19.220   3.400   3.235
32294W        W95853  44.426  16.617   1.717
32295W        W95854   3.781  27.083   3.148
32296W        W95855  29.046  40.508  12.988
32297W        W95856  39.028  44.946  14.422
32298W        W95857   8.267  21.615   4.265
32299W        W95858  19.243  33.447   4.321
32300W        W95859   9.384  44.849   4.618
32301W        W95860  33.558   6.210   0.268
32302W        W95861  14.169  43.803   1.451
32303W        W95862  12.133  13.817  12.843
32304W        W95863   0.935  33.475   4.794
32305W        W95864   2.279  25.991   4.340
32306W        W95865  35.100   3.222   2.252
32307W        W95866  34.394   0.772   2.361
32308W        W95867  13.267  34.083  12.576
32309W        W95868  11.694   6.354   3.361
32310W        W95869  25.202   1.483   2.374
32311W        W95870  15.303  18.219   4.820
32312W        W95871   6.261  17.179   3.770
32313W        W95872  11.803  34.588   0.328
32314W        W95873  41.495  11.623   0.957
32315W        W95874  27.036  22.146  12.089
32316W        W95875   6.211   0.891  12.391
32317W        W95876  12.210  16.309  14.933
32318W        W95877   9.807   9.751  13.799
32319W        W95878  28.534  32.609   1.852
32320W        W95879  24.185  36.555  11.397
32321W        W95880   6.735  21.148  13.342
32322W        W95881   5.220  27.664   4.321
32323W        W95882  32.135   6.196  10.511
32324W        W95883  26.641  19.677   2.665
32325W        W95884  23.645   5.405   1.786
32326W        W95885   2.443   5.226  14.838
32327W        W95886  36.879  39.415   4.754
32328W        W95887   3.293   0.267   1.443
32329W        W95888  16.275  28.606  14.785
32330W        W95889  20.734   8.164   0.348
32331W        W95890  10.330  25.610   0.366
32332W        W95891  13.751  25.643  14.465
32333W        W95892  38.043   3.365  10.005
32334W        W95893  12.804  37.837   4.803
32335W        W95894  41.907  16.776  11.398
32336W        W95895  30.608  21.640   1.881
32337W        W95896  40.934   5.741  13.381
32338W        W95897  17.728  28.034  14.837
32339W        W95898  38.885  19.675   1.877
32340W        W95899  13.191  23.564  14.475
32341W        W95900  30.083  20.755  10.513
32342W        W95901  40.813  26.652   5.115
32343W        W95902  28.109  16.174  11.405
32344W        W95903  20.260  37.832   0.473
32345W        W95904  15.669  39.929   3.190
32346W        W95905  26.038  16.096  10.436
32347W        W95906   2.835  25.088   1.879
32348W        W95907  24.124   9.739  13.357
32349W        W95908  19.046  31.474   0.961
32350W        W95909  26.550  23.706   4.750
32351W        W95910   4.879  10.800  13.916
32352W        W95911  42.819   9.282   4.129
32353W        W95912  32.559   5.221   0.830
32354W        W95913  17.609  40.925   0.314
32355W        W95914  33.966  23.613   4.651
32356W        W95915  38.892  30.465   4.836
32357W        W95916  23.239   4.722  14.922
32358W        W95917  34.374   8.322   5.651
32359W        W95918  40.363   1.766  12.349
32360W        W95919  20.126   3.319  14.889
32361W        W95920  26.584  34.537   4.339
32362W        W95921  28.127   0.264   9.994
32363W        W95922  32.416  39.928   3.335
32364W        W95923  37.528   6.382  11.013
32365W        W95924  35.596  36.380   4.287
32366W        W95925  16.153   6.296  12.942
32367W        W95926  35.974  39.851   2.309
32368W        W95927  29.649  38.535   0.893
32369W        W95928  27.030  15.289   1.896
32370W        W95929  24.141  43.373   0.271
32371W        W95930  12.703  24.188  11.404
32372W        W95931  33.929  27.985  10.586
32373W        W95932  35.420   4.785  10.506
32374W        W95933  44.478  40.015   3.210
32375W        W95934  27.477  19.267   3.262
32376W        W95935  20.114  43.424  10.574
32377W        W95936  26.047  28.019   3.232
32378W        W95937  37.976  19.708   0.405
32379W        W95938   2.900  25.046   4.217
32380W        W95939  20.619  39.441  11.066
32381W        W95940  13.628  26.526  12.013
32382W        W95941  42.805  21.035  12.854
32383W        W95942  23.165  41.454  12.379
32384W        W95943  20.543  43.312   4.728
32385W        W95944  32.441  41.306  10.447
32386W        W95945  35.971  38.470   4.143
32387W        W95946  33.421  24.553  11.007
32388W        W95947  19.280  25.178  13.891
32389W        W95948   3.801  25.021  13.815
32390W        W95949  22.605  22.196  10.901
32391W        W95950  33.489   5.266  13.986
32392W        W95951  37.362  10.383  10.939
32393W        W95952  42.996  18.165  10.586
32394W        W95953   0.744   2.868  14.839
32395W        W95954  29.007   7.702   4.174
32396W        W95955  14.100  40.349   0.784
32397W        W95956   9.721  37.471   1.871
32398W        W95957  21.514  37.006   4.115
32399W        W95958   1.847  37.544   1.815
32400W        W95959  36.358  13.843   3.772
32401W        W95960  33.620  25.144   3.217
32402W        W95961  12.206  15.314   3.148
32403W        W95962  18.775  11.677  11.965
32404W        W95963  28.109  41.418  11.884
32405W        W95964   4.935   4.884   5.259
32406W        W95965  13.603  19.548   1.278
32407W        W95966   8.714  27.501   3.635
32408W        W95967  31.035  20.070  12.537
32409W        W95968  42.315   7.845   1.292
32410W        W95969   8.709  30.593  11.066
32411W        W95970  35.050  35.990   2.888
32412W        W95971   9.158  23.058  10.636
32413W        W95972  39.978   4.262  13.031
32414W        W95973  44.759  36.362   0.383
32415W        W95974   6.191  22.549  10.601
32416W        W95975   3.827  35.051   2.405
32417W        W95976  11.189  23.006  11.024
32418W        W95977  26.002   4.384   2.313
32419W        W95978  23.090   1.777   4.691
32420W        W95979   7.673  21.131   0.348
32421W        W95980  18.613  20.714  14.872
32422W        W95981  10.854  26.108   0.346
32423W        W95982   3.763   4.880  13.850
32424W        W95983  13.828  39.336   1.759
32425W        W95984   8.277  22.176  13.520
32426W        W95985   4.705  23.143  14.838
32427W        W95986  40.386  13.841   1.711
32428W        W95987  11.286  38.070   4.282
32429W        W95988   9.364   6.884  13.960
32430W        W95989  11.291  29.998   1.801
32431W        W95990  23.125  37.891   4.835
32432W        W95991  44.421  19.745   5.281
32433W        W95992  17.289  40.911   4.186
32434W        W95993  18.774  32.416   2.899
32435W        W95994  40.363  16.191   3.348
32436W        W95995  13.140  28.116   2.881
32437W        W95996  18.264  21.133  12.473
32438W        W95997  12.712  25.070  13.410
32439W        W95998  19.217  15.153   0.886
32440W        W95999  29.607  32.903  12.398
32441W        W96000  11.802  24.570  12.001
32442W        W96001  19.688  36.496   2.669
32443W        W96002  25.489  18.131   0.929
32444W        W96003  33.533  33.479   1.741
32445W        W96004  33.427   1.456   2.679
32446W        W96005  27.102   5.226   2.833
32447W        W96006  15.148  16.579   3.687
32448W        W96007  44.764  12.187   3.164
32449W        W96008   6.274  18.721  11.067
32450W        W96009  31.981  25.162   3.360
32451W        W96010  27.051  20.722  14.006
32452W        W96011  41.995  28.990   0.839
32453W        W96012   8.350  40.840   1.356
32454W        W96013  28.108  10.661  10.408
32455W        W96014  44.372  21.098  14.939
32456W        W96015  38.039  23.104   0.392
32457W        W96016  16.650  14.751  12.398
32458W        W96017   5.385  29.478  10.589
32459W        W96018  36.932   1.881   1.436
32460W        W96019  25.480  32.534   2.819
32461W        W96020  26.473  29.169   0.366
32462W        W96021  41.316   7.899  14.332
32463W        W96022   7.757  39.886   1.813
32464W        W96023   2.397  18.069  10.105
32465W        W96024  29.550  16.688  14.028
32466W        W96025  17.243   5.427   1.446
32467W        W96026  30.485   8.663  14.318
32468W        W96027  31.453  28.004   0.368
32469W        W96028  24.702  23.659  10.978
32470W        W96029  22.235  37.970   4.258
32471W        W96030  28.552   6.407   3.347
32472W        W96031  40.963  35.448  11.517
32473W        W96032   5.802  28.062  12.994
32474W        W96033  37.470  44.437  11.927
32475W        W96034  42.019  11.269  12.396
32476W        W96035  42.515  18.782   2.378
32477W        W96036  28.186   4.882  13.358
32478W        W96037   8.720  35.569  13.053
32479W        W96038  19.275   0.832   2.337
32480W        W96039  34.518  35.496   2.695
32481W        W96040  22.633  21.216   0.750
32482W        W96041  35.361  40.371  12.465
32483W        W96042  15.694  24.202  13.855
32484W        W96043   7.728  28.087   3.753
32485W        W96044  11.827  17.599   4.645
32486W        W96045  36.963  29.443   3.212
32487W        W96046  21.083  36.538  13.808
32488W        W96047   3.392   5.906   4.133
32489W        W96048   4.830  20.211   0.377
32490W        W96049  32.514   7.839   0.907
32491W        W96050  11.169  31.606   3.239
32492W        W96051  27.645  14.266   2.781
32493W        W96052  30.549  27.101  12.025
32494W        W96053  26.614  18.638   4.151
32495W        W96054   9.242   1.747   2.273
32496W        W96055  25.168  24.668  11.470
32497W        W96056  18.688  33.956   0.272
32498W        W96057   7.202  31.119  10.512
32499W        W96058   3.325  13.714  10.999
32500W        W96059  44.377  35.602   3.861
32501W        W96060  10.702   1.967   4.154
32502W        W96061  14.646  28.494   2.681
32503W        W96062  14.221  41.949  14.904
32504W        W96063  27.587   0.872  13.952
32505W        W96064  21.184  39.986   4.304
32506W        W96065  25.529  18.651   0.413
32507W        W96066   2.870  16.311   3.258
32508W        W96067  34.963  27.672   1.702
32509W        W96068  12.758  28.529  11.917
32510W        W96069  42.336  19.608   1.758
32511W        W96070  44.879  15.093   2.342
32512W        W96071  12.230  12.664  14.430
32513W        W96072  35.434   5.855  12.087
32514W        W96073  39.024  10.807   3.340
32515W        W96074  41.007   8.809  10.572
32516W        W96075   5.849  31.507   4.267
32517W        W96076  27.616  40.545  10.632
32518W        W96077  11.284   6.889  14.376
32519W        W96078  29.949  16.644  12.897
32520W        W96079  35.399  31.932  10.428
32521W        W96080  40.932   3.304   4.274
32522W        W96081  26.071  41.825   0.439
32523W        W96082  30.922  16.212   1.444
32524W        W96083  27.643  41.010   2.895
32525W        W96084  12.657  28.633   0.321
32526W        W96085  22.070  13.791  11.911
32527W        W96086  40.469  18.667  11.476
32528W        W96087   3.315   4.813  13.810
32529W        W96088   4.921   9.840   5.082
32530W        W96089   9.721  32.540  10.419
32531W        W96090  38.881   5.704  11.439
32532W        W96091  36.400  33.497  11.082
32533W        W96092  23.731  14.321  13.413
32534W        W96093  35.007  27.503   0.829
32535W        W96094  27.029   8.174  10.412
32536W        W96095  33.580  16.286   1.751
32537W        W96096  10.786  42.434   2.264
32538W        W96097  35.095  15.617   2.694
32539W        W96098  37.980  12.734  10.999
32540W        W96099  18.647  30.450   4.234
32541W        W96100  40.365  16.798   2.193
32542W        W96101  32.007  37.561   5.604
32543W        W96102  14.643  22.541   4.122
32544W        W96103  32.998  24.553   0.840
32545W        W96104  39.052  35.503   0.742
32546W        W96105  23.145  28.940  11.990
32547W        W96106  25.600  30.460   3.836
32548W        W96107  35.999  41.500  11.001
32549W        W96108   8.344  37.353  10.645
32550W        W96109  17.108  23.025  12.947
32551W        W96110   5.212   4.944  14.944
32552W        W96111  24.033  21.665  12.040
32553W        W96112   9.843  39.442   3.838
32554W        W96113  40.457  11.742  12.404
32555W        W96114  29.972  27.041  10.546
32556W        W96115   3.955  23.720   3.653
32557W        W96116  30.054  23.996  12.043
32558W        W96117  25.186   4.708   4.796
32559W        W96118  33.581  33.595   5.233
32560W        W96119  13.745  34.372   4.159
32561W        W96120  33.578   7.375   4.771
32562W        W96121  30.476   2.405  10.956
32563W        W96122  17.219   4.229  10.528
32564W        W96123  31.549  43.501   2.217
32565W        W96124  26.065  23.234   1.403
32566W        W96125  36.430  39.412  12.042
32567W        W96126  11.272   8.236   2.387
32568W        W96127   2.283   0.356  13.485
32569W        W96128   3.855  41.831  10.464
32570W        W96129   6.719  35.064   3.311
32571W        W96130  11.739  13.651  14.488
32572W        W96131  35.935   1.444   1.739
32573W        W96132  20.132  32.108  11.121
32574W        W96133  33.451  27.066  12.399
32575W        W96134   6.283  44.423   2.665
32576W        W96135  43.491   0.867  11.388
32577W        W96136   4.890  29.999   1.769
32578W        W96137   7.212  26.971  10.430
32579W        W96138  40.441  14.749   3.644
32580W        W96139  13.163  43.491   4.718
32581W        W96140  23.006  36.866   3.768
32582W        W96141  41.012  20.056  11.010
32583W        W96142  30.061  34.869   0.876
32584W        W96143   7.175  37.525   0.727
32585W        W96144  44.944  31.078  10.959
32586W        W96145   1.909  32.912   2.847
32587W        W96146   5.273  38.406   3.282
32588W        W96147   2.793  13.796   0.278
32589W        W96148   8.188  30.997   2.853
32590W        W96149  28.680  12.139   4.720
32591W        W96150  15.768  34.441   0.471
32592W        W96151   5.318  43.992  14.895
32593W        W96152  27.142   4.817   4.717
32594W        W96153  12.359  10.170  14.364
32595W        W96154   5.691   0.278   4.709
32596W        W96155  13.743   5.864  13.818
32597W        W96156  11.745  43.446  12.378
32598W        W96157  13.716  37.347   0.878
32599W        W96158  41.364  35.496  11.900
32600W        W96159  10.167  17.790   4.672
32601W        W96160  15.138  42.357   4.350
32602W        W96161  25.999  35.017  11.052
32603W        W96162  30.621  44.323   4.782
32604W        W96163  44.808  13.802   2.739
32605W        W96164  18.283  25.475   3.805
32606W        W96165  10.282  10.173  10.471
32607W        W96166  21.163  39.458  11.380
32608W        W96167  24.642  14.317   0.906
32609W        W96168  40.328  36.429   4.718
32610W        W96169  10.874  41.934   2.411
32611W        W96170  11.663  21.133   2.391
32612W        W96171  15.088  42.923  12.054
32613W        W96172  20.274  33.073  12.559
32614W        W96173  26.484   6.862   0.354
32615W        W96174  20.544  10.197   4.171
32616W        W96175  41.437  16.136  12.967
32617W        W96176   0.405  25.623  12.492
32618W        W96177  42.417   2.830   1.384
32619W        W96178  24.607  26.567   3.348
32620W        W96179  14.821   3.441  11.437
32621W        W96180  10.644  39.047   2.390
32622W        W96181  16.215  21.754   2.259
32623W        W96182   3.826  29.980  10.527
32624W        W96183   6.817  27.677  13.391
32625W        W96184  19.088  24.534   3.306
32626W        W96185  31.055  29.481  13.026
32627W        W96186  14.745  39.019   1.817
32628W        W96187   5.259  42.868  12.426
32629W        W96188  37.980  16.756   4.835
32630W        W96189   8.255  29.056   0.786
32631W        W96190   8.838   3.248  11.459
32632W        W96191   9.788  35.482  11.392
32633W        W96192  41.518  44.998   0.407
32634W        W96193  24.570  40.325  13.025
32635W        W96194  32.630   3.229  10.929
32636W        W96195  11.730  15.600  10.050
32637W        W96196   1.467   6.792   0.858
32638W        W96197  34.043   0.494  14.409
32639W        W96198  18.204  25.554  11.612
32640W        W96199  11.359  18.647   1.274
32641W        W96200  28.437  14.613  14.275
32642W        W96201  15.219  33.054  10.609
32643W        W96202  22.605  40.906  10.019
32644W        W96203  38.021  17.201   3.208
32645W        W96204  41.294  24.052  11.986
32646W        W96205  39.498  19.731   0.392
32647W        W96206   9.238  26.582  14.004
32648W        W96207  33.446   1.465  13.526
32649W        W96208  25.649  10.786   0.259
32650W        W96209  24.108  28.953  13.841
32651W        W96210  33.463   6.754   2.384
32652W        W96211  22.741  18.211   3.264
32653W        W96212  20.612  41.891   0.728
32654W        W96213  33.388  17.612  14.900
32655W        W96214  22.666   5.832  12.962
32656W        W96215   3.417  44.975  10.963
32657W        W96216  20.675  14.294  12.953
32658W        W96217  10.259  17.751   1.397
32659W        W96218  41.991  10.873  10.622
32660W        W96219   1.483  28.034   0.448
32661W        W96220  31.572  34.607  10.441
32662W        W96221  18.752  44.372   3.670
32663W        W96222  31.896  33.088   2.789
32664W        W96223   7.277  38.902  12.079
32665W        W96224  13.299  21.720   4.774
32666W        W96225  33.619  16.607   3.238
32667W        W96226   4.812  30.967  11.424
32668W        W96227  18.189   2.917   0.804
32669W        W96228  15.801  27.495  10.598
32670W        W96229   3.824  39.838  11.393
32671W        W96230  31.604  10.169  11.007
32672W        W96231  11.713   8.758   2.416
32673W        W96232  30.934   4.922  14.998
32674W        W96233  18.093  23.119  13.417
32675W        W96234  34.873  18.257   0.479
32676W        W96235  24.519   7.350   1.352
32677W        W96236  11.179   8.811  14.320
32678W        W96237  37.390  35.949  14.464
32679W        W96238  18.243  25.534  12.851
32680W        W96239  33.025   2.911   3.656
32681W        W96240  44.480   9.229  13.029
32682W        W96241  37.888   2.766   1.271
32683W        W96242  35.418  22.572  13.377
32684W        W96243  21.257   6.807   4.636
32685W        W96244  20.165  34.543  11.538
32686W        W96245   8.669  15.153  12.074
32687W        W96246  36.073  27.974  10.953
32688W        W96247  12.701  36.916  10.407
32689W        W96248  42.941   4.820   1.841
32690W        W96249  26.613  36.438   4.176
32691W        W96250   9.659  12.274   0.388
32692W        W96251  13.136  11.644   1.438
32693W        W96252  35.360  39.814   1.721
32694W        W96253  31.969  17.745   1.893
32695W        W96254  12.669  35.857  14.835
32696W        W96255   2.391  42.329  12.892
32697W        W96256  42.357  24.623   3.720
32698W        W96257  26.996   1.259  13.864
32699W        W96258  43.851  19.233  13.934
32700W        W96259  41.992  30.138   2.288
32701W        W96260  21.255  15.180  12.369
32702W        W96261  40.004  31.450  12.021
32703W        W96262  21.043  36.900  13.522
32704W        W96263  36.459  12.237   1.392
32705W        W96264  33.011  31.465   0.903
32706W        W96265  19.128   5.322  14.386
32707W        W96266  44.363   3.735   4.714
32708W        W96267  35.384  33.026   4.834
32709W        W96268  20.111  37.417   3.640
32710W        W96269  24.496  30.955  11.602
32711W        W96270  30.488  37.018  11.056
32712W        W96271  26.457   6.780   4.235
32713W        W96272  11.812  23.110  13.956
32714W        W96273  33.091   4.272   4.309
32715W        W96274  23.037   1.348   3.641
32716W        W96275   1.949  42.901   0.462
32717W        W96276  34.104  18.273   2.679
32718W        W96277  11.650   1.424   2.358
32719W        W96278  19.094  16.575  11.007
32720W        W96279  13.657  40.546  12.519
32721W        W96280  26.005  32.628   1.327
32722W        W96281  27.120  43.020   1.277
32723W        W96282   8.897  41.438   3.362
32724W        W96283  27.106  21.589   4.235
32725W        W96284   8.820  19.605  11.542
32726W        W96285   8.183  31.934   1.822
32727W        W96286  31.503  27.671  14.387
32728W        W96287  23.150  38.950   0.799
32729W        W96288   1.380  40.528   3.658
32730W        W96289  19.076  44.861   0.874
32731W        W96290  34.014  33.532  12.851
32732W        W96291   7.325   8.319   2.340
32733W        W96292  10.808  28.074   3.191
32734W        W96293  24.203   1.842  10.940
32735W        W96294  44.263  32.013  11.545
32736W        W96295  31.949  37.344  11.087
32737W        W96296   9.214  13.723   0.316
32738W        W96297   6.837   5.872  10.638
32739W        W96298  18.750  13.607   3.250
32740W        W96299  33.957  36.586  12.049
32741W        W96300  28.128   7.815   0.812
32742W        W96301  40.004  32.482  11.589
32743W        W96302   5.272  20.140   2.769
32744W        W96303  27.109  21.120  13.968
32745W        W96304   6.201   1.387   4.176
32746W        W96305   5.928  34.916   4.770
32747W        W96306  22.679  34.963  13.060
32748W        W96307  26.207  10.769  14.394
32749W        W96308  25.172  26.475   3.204
32750W        W96309  13.348   3.363   0.305
32751W        W96310  21.089  27.653   4.349
32752W        W96311  14.647   0.383  10.541
32753W        W96312  42.918  17.613   4.329
32754W        W96313  23.048  12.748   1.745
32755W        W96314   3.322  39.057   5.283
32756W        W96315  10.261   9.207  14.830
32757W        W96316   6.912  42.849   3.169
32758W        W96317  23.211   1.950  11.398
32759W        W96318  21.148  42.416   1.888
32760W        W96319  36.951  18.750   4.290
32761W        W96320  19.108  16.105  14.773
32762W        W96321   6.860  30.070  11.522
32763W        W96322  44.340  24.721  14.008
32764W        W96323  44.307  30.142   2.293
32765W        W96324  22.698  21.147  13.873
32766W        W96325  36.357  30.479   5.101
32767W        W96326  39.548  40.514   4.660
32768W        W96327   4.764   9.800   2.694
32769W        W96328  31.478  14.796   4.709
32770W        W96329  16.282  10.793   2.898
32771W        W96330  17.668  31.071  11.412
32772W        W96331  26.992  43.273   2.769
32773W        W96332  23.176   9.877   0.322
32774W        W96333  44.957  19.683   3.321
32775W        W96334  44.260  29.574  13.001
32776W        W96335   0.377  33.001   2.317
32777W        W96336  21.534  28.102  14.929
32778W        W96337  15.261  34.555  13.412
32779W        W96338  43.338  40.510   1.316
32780W        W96339  43.826  13.169   4.281
32781W        W96340  28.030  23.086  10.085
32782W        W96341   9.682  41.313  14.018
32783W        W96342   7.365  16.770   1.288
32784W        W96343  41.535  36.562   3.686
32785W        W96344   9.646  19.048   2.875
32786W        W96345  17.682  14.103  13.377
32787W        W96346  29.465  12.768  12.083
32788W        W96347  38.023  43.807  12.823
32789W        W96348  21.228  31.147  11.403
32790W        W96349   5.836   1.747   0.256
32791W        W96350  23.218  12.738   2.804
32792W        W96351  11.653  10.695  14.454
32793W        W96352  41.803  15.295   0.456
32794W        W96353  16.705  17.078  10.911
32795W        W96354  14.675  44.872  13.823
32796W        W96355   8.707  19.082  12.489
32797W        W96356   2.235  33.500  12.019
32798W        W96357  34.109  20.688   4.300
32799W        W96358  27.077  32.490  14.836
32800W        W96359  38.843  16.693   1.758
32801W        W96360  38.840  17.583  11.999
32802W        W96361  19.696   1.420  14.333
32803W        W96362   3.717  13.718   2.413
32804W        W96363   0.811  37.009  11.511
32805W        W96364  43.401  39.958  10.919
32806W        W96365  25.707  24.629  14.477
32807W        W96366  17.578  19.632  14.378
32808W        W96367  25.218  22.145  14.402
32809W        W96368  33.965  32.930   4.605
32810W        W96369  38.057   0.976  13.910
32811W        W96370  38.456  15.249  11.485
32812W        W96371  31.504   9.826   2.217
32813W        W96372  23.213  23.118  13.479
32814W        W96373   9.649  36.003   3.324
32815W        W96374  41.846  34.557   3.634
32816W        W96375  20.123  22.093   2.390
32817W        W96376  28.548  35.017  13.014
32818W        W96377   9.242   6.865  11.127
32819W        W96378  39.496  43.839  11.440
32820W        W96379  42.915  42.924   1.417
32821W        W96380  20.228  44.371   1.392
32822W        W96381  35.859  35.074  10.103
32823W        W96382  31.608   3.310  13.382
32824W        W96383  13.257  24.159   0.781
32825W        W96384  29.008   6.767  11.887
32826W        W96385  24.632   7.807  14.322
32827W        W96386   6.846  40.521  14.941
32828W        W96387  28.553  31.603  11.407
32829W        W96388  43.279  29.977  12.899
32830W        W96389  36.522  10.648  11.095
32831W        W96390  31.416  38.072   4.829
32832W        W96391  30.605  33.941   4.732
32833W        W96392  42.963  43.350   3.253
32834W        W96393  38.547   6.328   0.873
32835W        W96394   4.232  11.829  14.433
32836W        W96395  43.783   7.692  13.917
32837W        W96396   2.270  24.071  14.364
32838W        W96397  31.496  22.622  12.466
32839W        W96398  19.721   6.236   3.334
32840W        W96399   9.163  12.857  13.864
32841W        W96400  14.234  10.725  13.498
32842W        W96401  32.924  28.662  11.474
32843W        W96402  39.337  37.350   1.799
32844W        W96403  20.174  17.652   3.272
32845W        W96404  34.381   6.378  13.973
32846W        W96405   4.895  42.362  10.040
32847W        W96406  12.650  12.762  10.139
32848W        W96407  14.105  33.940   1.872
32849W        W96408   3.375  43.380   2.744
32850W        W96409  43.844  44.352  13.408
32851W        W96410  20.671  35.988  13.050
32852W        W96411  43.358  33.114  11.880
32853W        W96412  25.522  18.161   0.483
32854W        W96413  37.931  18.050   0.414
32855W        W96414  16.161  27.593   2.253
32856W        W96415  19.758  29.593  12.089
32857W        W96416  17.745   9.203   1.440
32858W        W96417  12.810  24.674  11.580
32859W        W96418   7.690  43.306  12.550
32860W        W96419  25.576  19.172   2.889
32861W        W96420  30.020  41.343  13.049
32862W        W96421  40.411  41.352  11.955
32863W        W96422  30.078  16.269  10.944
32864W        W96423  23.241  37.079  14.945
32865W        W96424  39.919  13.246   2.358
32866W        W96425  21.197  31.418   4.231
32867W        W96426  31.988  34.001  12.370
32868W        W96427   9.802  15.183   3.821
32869W        W96428   2.374  15.266  11.393
32870W        W96429  31.479  26.505  12.887
32871W        W96430  20.661   7.178  12.469
32872W        W96431  21.634  24.598   4.730
32873W        W96432  30.919  30.449  11.942
32874W        W96433  17.118   0.319  11.608
32875W        W96434   3.775  41.439  11.545
32876W        W96435  38.833   2.960  11.477
32877W        W96436  36.094  40.938   2.805
32878W        W96437   2.735  36.988  13.466
32879W        W96438   7.248   9.293  11.106
32880W        W96439   7.728   2.276  14.010
32881W        W96440  42.957  28.530   2.776
32882W        W96441  28.109  12.175   0.918
32883W        W96442   4.267  12.257   2.225
32884W        W96443   8.709   7.228   1.236
32885W        W96444   8.769  41.304   4.200
32886W        W96445   0.429  41.531   4.780
32887W        W96446  36.949  38.471  14.760
32888W        W96447  36.068  11.859  10.544
32889W        W96448  40.850  26.539  11.881
32890W        W96449  16.760  24.228  12.411
32891W        W96450  37.884  21.666  12.499
32892W        W96451  29.923   1.738  14.288
32893W        W96452   4.786   3.954  12.940
32894W        W96453   4.862  23.705  11.564
32895W        W96454   2.797  31.101  14.802
32896W        W96455  33.406  30.039  12.412
32897W        W96456  31.588  43.515  12.945
32898W        W96457  10.289  25.517   3.771
32899W        W96458  41.948  32.885  12.390
32900W        W96459  15.763  30.105  14.823
32901W        W96460   3.826  43.810  11.421
32902W        W96461  44.772  20.180   0.254
32903W        W96462  33.520  39.848   9.624
32904W        W96463  17.689   5.816  10.435
32905W        W96464  10.706  42.966  12.846
32906W        W96465  28.525  27.167   1.781
32907W        W96466  18.636  37.985   0.946
32908W        W96467  26.564  41.797  11.099
32909W        W96468  36.052  30.565   2.348
32910W        W96469  32.887  20.253  14.028
32911W        W96470   3.367   3.436   0.819
32912W        W96471  15.686  19.167  14.024
32913W        W96472  31.478  14.281   2.307
32914W        W96473  29.105  30.595  12.978
32915W        W96474  20.043  15.323   0.801
32916W        W96475  37.537  16.792   3.386
32917W        W96476  31.998  27.083  11.048
32918W        W96477   5.247  28.016  14.285
32919W        W96478  13.184   9.390   2.901
32920W        W96479  28.560   5.353   3.264
32921W        W96480  16.637  17.785   3.279
32922W        W96481  11.168  30.602  12.070
32923W        W96482  37.900  18.107   1.346
32924W        W96483  15.823  10.716   0.883
32925W        W96484  14.639   6.734   1.768
32926W        W96485  28.634   4.933   0.765
32927W        W96486  26.181  24.666  10.538
32928W        W96487  34.555  22.185   4.190
32929W        W96488  20.050   1.304  10.539
32930W        W96489   5.340  36.842  10.592
32931W        W96490  25.671   9.232  14.452
32932W        W96491  44.896  37.374   0.327
32933W        W96492  40.886  38.996   2.284
32934W        W96493  27.470   2.251  13.426
32935W        W96494  41.808  44.334  10.970
32936W        W96495  30.470  15.289  14.408
32937W        W96496  12.130  26.059  11.598
32938W        W96497  42.323  28.070  11.516
32939W        W96498  11.186  36.458   2.185
32940W        W96499  32.963  23.030   4.763
32941W        W96500  31.006  38.017  10.617
32942W        W96501  26.158  36.915   2.269
32943W        W96502  31.906   8.331   4.694
32944W        W96503  24.028  11.294   1.326
32945W        W96504   2.427  31.547  12.083
32946W        W96505   2.308  13.183  10.599
32947W        W96506   3.789   3.923   4.805
32948W        W96507   9.315  14.619   0.922
32949W        W96508  36.568  26.523   2.265
32950W        W96509  29.450   3.775  11.067
32951W        W96510   0.439  36.993   2.859
32952W        W96511  22.740  27.586  11.016
32953W        W96512   5.202  43.950  14.397
32954W        W96513  19.761  10.167  14.389
32955W        W96514  32.076  36.965  13.034
32956W        W96515  14.772  24.046  11.498
32957W        W96516  24.570  32.953   0.391
32958W        W96517  21.709  27.106  13.060
32959W        W96518  24.092  22.502   4.293
32960W        W96519  24.130  14.336  10.539
32961W        W96520  42.948  14.260   0.805
32962W        W96521  10.787   6.825  12.474
32963W        W96522   8.713  41.363   4.771
32964W        W96523  24.528   1.791  11.052
32965W        W96524  11.713   8.164  10.074
32966W        W96525   3.411   1.349  12.872
32967W        W96526  24.092   2.880   3.252
32968W        W96527  41.866  18.662   1.430
32969W        W96528  28.539   3.418   2.838
32970W        W96529  14.099  27.687  10.938
32971W        W96530  29.976   5.716   3.146
32972W        W96531  22.075   5.265  12.918
32973W        W96532   0.760  43.868   4.608
32974W        W96533  10.848  30.939   0.732
32975W        W96534  27.115  21.561   1.783
32976W        W96535  21.654   5.351   3.344
32977W        W96536   6.424  31.101   3.806
32978W        W96537  20.710  35.448   2.377
32979W        W96538  23.735   4.866   0.963
32980W        W96539  12.229  24.104  14.768
32981W        W96540  36.409  17.272   1.706
32982W        W96541   5.870  10.822   1.452
32983W        W96542   3.859  27.134  11.992
32984W        W96543  19.558  43.433   2.830
32985W        W96544  17.193  36.427   3.241
32986W        W96545  16.221   8.813   3.870
32987W        W96546  21.663  23.591  11.982
32988W        W96547  44.386  24.599   2.320
32989W        W96548  14.643  19.089  13.428
32990W        W96549  13.166  32.084   0.863
32991W        W96550  13.148  15.793   2.666
32992W        W96551  41.317   6.779  10.461
32993W        W96552  11.707  41.527   1.360
32994W        W96553   2.303  13.126   3.851
32995W        W96554  40.864  18.555   4.283
32996W        W96555   0.379  32.502  13.998
32997W        W96556  17.576   5.321  10.919
32998W        W96557  14.755  25.681   3.735
32999W        W96558  32.974  13.269  14.859
33000W        W96559  10.219  36.862  11.583
33001W        W96560  26.630  10.241  13.018
33002W        W96561  13.823  14.210   2.869
33003W        W96562  29.918  13.161   1.772
33004W        W96563  27.607   1.963  10.624
33005W        W96564  10.804   4.372  13.447
33006W        W96565  25.055  35.016  13.310
33007W        W96566  22.027  23.233  14.383
33008W        W96567   6.206  23.577  14.770
33009W        W96568  11.721   5.206   3.723
33010W        W96569  41.376  22.164  13.949
33011W        W96570  35.033  27.509  11.111
33012W        W96571  42.901  23.993   2.338
33013W        W96572  28.471  17.685   3.781
33014W        W96573  14.710   5.787   0.380
33015W        W96574  39.997  22.734   0.786
33016W        W96575  10.379  19.642  10.558
33017W        W96576   9.697  43.886   4.220
33018W        W96577   4.347  32.440  14.481
33019W        W96578  12.242   1.261   0.797
33020W        W96579  11.278  27.487  11.033
33021W        W96580   2.837  34.500   3.686
33022W        W96581  29.454   8.798   4.194
33023W        W96582  21.750  10.683   1.429
33024W        W96583  16.711  34.552  13.307
33025W        W96584  16.293  40.803  12.344
33026W        W96585  15.171   3.946   0.323
33027W        W96586  37.406  42.357   1.905
33028W        W96587  19.703  20.168   3.635
33029W        W96588  13.238  14.193  11.041
33030W        W96589  34.001   5.838  14.775
33031W        W96590  40.368  31.116  13.333
33032W        W96591  41.864   8.854  14.774
33033W        W96592  28.085  25.595  12.828
33034W        W96593  42.507   9.333  12.390
33035W        W96594   5.205  17.245   3.255
33036W        W96595  42.814   5.717   4.323
33037W        W96596   4.384  19.614  13.510
33038W        W96597  39.478   2.866   4.351
33039W        W96598   6.389  24.514   2.277
33040W        W96599   8.386  36.957  12.399
33041W        W96600  21.055  25.677   2.232
33042W        W96601  13.325  34.582  10.949
33043W        W96602   9.384  17.593   0.829
33044W        W96603  25.122  40.465  12.382
33045W        W96604   6.920  14.699   5.153
33046W        W96605  27.053  44.880  11.009
33047W        W96606   2.411  26.514  14.979
33048W        W96607  12.354  26.999  11.580
33049W        W96608  38.068  17.633  10.890
33050W        W96609   9.384  14.688  12.484
33051W        W96610  26.501   5.820   3.352
33052W        W96611  27.194  38.548   3.639
33053W        W96612  20.245   8.803   3.853
33054W        W96613   6.329  12.256   4.736
33055W        W96614  33.916  12.665  14.848
33056W        W96615   4.297  43.323   4.124
33057W        W96616  27.989  26.007  14.838
33058W        W96617  21.689  29.987  12.952
33059W        W96618  29.540  17.260  12.008
33060W        W96619  24.702   4.735   0.305
33061W        W96620  11.198  42.005   3.164
33062W        W96621   4.832  31.940   4.229
33063W        W96622  38.040  12.249  10.555
33064W        W96623  36.519  21.722   1.808
33065W        W96624   9.795  19.044   0.444
33066W        W96625  30.413  42.870   2.823
33067W        W96626  26.116  19.731   3.199
33068W        W96627   7.692  28.455   3.378
33069W        W96628  33.101  37.043   4.207
33070W        W96629   2.280   2.723  13.383
33071W        W96630  22.144  37.052  14.787
33072W        W96631  13.117  20.622  11.462
33073W        W96632  39.924   9.175   0.412
33074W        W96633  40.947  43.883   4.737
33075W        W96634  10.228  35.105   3.697
33076W        W96635  41.951  34.965  14.009
33077W        W96636   2.376  35.406  14.006
33078W        W96637  15.112  32.540   0.865
33079W        W96638   2.738  17.781  10.522
33080W        W96639  41.786   3.309   4.695
33081W        W96640  24.019   5.760  12.479
33082W        W96641  16.717  19.281   3.337
33083W        W96642   8.182  39.871  10.952
33084W        W96643  22.688  26.577  10.586
33085W        W96644  33.564   5.840  12.433
33086W        W96645   6.802  22.028   0.853
33087W        W96646  26.465  12.226  11.891
33088W        W96647   3.813   9.181  12.057
33089W        W96648  16.293  27.166   1.741
33090W        W96649  22.208  32.546  14.443
33091W        W96650  43.280  29.649   2.353
33092W        W96651  16.779   2.370  14.956
33093W        W96652  13.108  35.439   4.794
33094W        W96653  21.541  38.907  10.482
33095W        W96654  33.380  10.350   1.769
33096W        W96655  39.877  39.534   0.848
33097W        W96656   2.943  43.833   2.852
33098W        W96657   1.821  17.218   0.396
33099W        W96658  22.136  44.919   0.745
33100W        W96659  10.376  28.467   4.237
33101W        W96660  21.734   4.911  10.909
33102W        W96661  42.855  28.502  11.488
33103W        W96662  30.586  23.007  11.110
33104W        W96663   5.422  21.581   2.410
33105W        W96664  38.032  30.931   4.678
33106W        W96665  16.102  36.593  13.334
33107W        W96666   7.223  13.136  13.976
33108W        W96667  15.821   4.364   3.651
33109W        W96668  15.744  19.601   5.085
33110W        W96669   4.708  40.911   0.458
33111W        W96670   7.179  24.493   0.953
33112W        W96671  15.728  15.130   2.771
33113W        W96672  20.726   2.821  14.288
33114W        W96673   5.834  11.210  10.448
33115W        W96674  10.250  15.817   2.885
33116W        W96675  19.115  35.396  12.005
33117W        W96676  27.021  31.420   1.317
33118W        W96677  20.079  11.669  13.404
33119W        W96678  26.094  25.983  11.386
33120W        W96679   6.826  17.064   4.327
33121W        W96680  11.169  24.985   4.741
33122W        W96681  43.477  38.027   1.792
33123W        W96682   1.787  10.688   1.830
33124W        W96683  25.551   9.180   4.320
33125W        W96684  25.529   1.278  10.626
33126W        W96685  28.103   1.353  10.895
33127W        W96686   2.951  23.502   2.351
33128W        W96687  29.162   9.345  12.464
33129W        W96688  32.473   7.282   4.668
33130W        W96689  12.204   0.363  13.328
33131W        W96690  27.631   9.375   4.272
33132W        W96691  14.136  13.338   5.140
33133W        W96692   8.316  11.245   1.258
33134W        W96693  25.530   9.808  10.958
33135W        W96694   3.290  28.986   3.730
33136W        W96695  36.985  41.969   3.748
33137W        W96696  12.275  13.839   9.526
33138W        W96697   1.919  26.539   3.264
33139W        W96698  22.251  31.984  12.989
33140W        W96699  16.129   2.727  11.907
33141W        W96700  36.970   3.871  13.372
33142W        W96701   6.780   3.392   4.117
33143W        W96702  16.637   1.776  14.426
33144W        W96703   5.689  18.052  12.351
33145W        W96704  27.151   8.884  14.853
33146W        W96705   0.465  40.867  13.373
33147W        W96706   0.311   6.396  12.417
33148W        W96707  31.554  31.581  13.949
33149W        W96708  29.630   8.773  10.085
33150W        W96709  16.129  21.191   0.877
33151W        W96710  17.186   4.809  10.994
33152W        W96711  44.772   6.706   3.793
33153W        W96712   0.406  24.199   2.341
33154W        W96713  10.333  44.330   3.350
33155W        W96714  16.302   6.187   3.197
33156W        W96715   5.408   9.705   0.391
33157W        W96716  24.710  38.429   0.465
33158W        W96717  12.221   9.646  11.050
33159W        W96718  16.317   5.793  12.552
33160W        W96719  13.200  21.231   0.736
33161W        W96720  38.385  22.166  11.954
33162W        W96721  30.428  26.072  11.398
33163W        W96722  20.197   3.248   4.756
33164W        W96723  14.794  27.684   2.376
33165W        W96724  44.971  20.270   0.789
33166W        W96725  21.094   7.414  11.576
33167W        W96726  10.745  14.591   3.345
33168W        W96727  43.498  12.223   3.677
33169W        W96728  37.535   6.740   3.335
33170W        W96729  40.410  17.095  13.881
33171W        W96730  40.314   7.793  10.577
33172W        W96731   9.806  31.646  13.472
33173W        W96732  31.472   6.258   2.321
33174W        W96733  42.499  24.131   1.251
33175W        W96734  29.562  21.730   9.942
33176W        W96735  21.213   9.665   0.907
33177W        W96736   7.883  23.016   4.631
33178W        W96737   8.898  41.871   3.352
33179W        W96738  28.080   5.226   0.962
33180W        W96739  25.093   7.325   1.397
33181W        W96740  24.617  41.444   3.669
33182W        W96741  35.940  44.464  10.998
33183W        W96742   7.833  12.838  13.980
33184W        W96743  27.149  37.051  11.093
33185W        W96744  33.068  11.288   1.932
33186W        W96745  26.698   4.915  12.434
33187W        W96746  18.136  43.367   1.797
33188W        W96747  10.176  21.254  14.021
33189W        W96748  14.715  38.479  13.917
33190W        W96749  17.661  11.315   1.697
33191W        W96750   7.765   1.905  10.951
33192W        W96751  40.357  17.152   0.736
33193W        W96752  32.892  41.883   9.983
33194W        W96753  14.625  10.878   1.429
33195W        W96754  22.118  44.475  10.620
33196W        W96755   5.292  17.063  14.817
33197W        W96756  36.876  37.473   3.632
33198W        W96757  42.438   9.796  11.002
33199W        W96758  20.555  26.542   4.758
33200W        W96759  24.543  37.437   1.871
33201W        W96760  15.724  40.990  13.307
33202W        W96761  26.628  11.704   3.724
33203W        W96762  28.109  39.423   1.933
33204W        W96763  35.982  30.086   3.329
33205W        W96764  25.075  20.198   1.302
33206W        W96765   1.360  23.208  13.938
33207W        W96766   7.827  11.216  13.921
33208W        W96767  30.579   2.783   4.662
33209W        W96768  18.217  41.801   1.446
33210W        W96769  23.192  30.654   5.275
33211W        W96770  26.190  26.149  12.060
33212W        W96771   7.226   0.426   4.741
33213W        W96772  23.131  39.327   4.821
33214W        W96773  17.603  20.102  12.440
33215W        W96774  30.605   0.764   2.220
33216W        W96775  20.746  11.264   2.204
33217W        W96776  27.096   8.755  14.349
33218W        W96777  29.484  21.175   0.477
33219W        W96778   4.310   2.828   0.408
33220W        W96779  44.898  12.329   2.730
33221W        W96780  44.387  12.640  14.425
33222W        W96781  15.612  38.502   4.271
33223W        W96782   5.230   5.808  10.415
33224W        W96783   3.933  43.415   1.446
33225W        W96784  12.856  19.754   1.286
33226W        W96785  38.889  37.995   4.713
33227W        W96786  42.882  12.784  11.379
33228W        W96787  24.719  18.696  10.631
33229W        W96788  27.464   2.913  11.961
33230W        W96789  12.299  28.100  13.825
33231W        W96790   6.909   2.295   2.900
33232W        W96791   9.865  37.460   3.330
33233W        W96792  31.644  13.826  12.978
33234W        W96793   2.428  37.917   3.225
33235W        W96794  44.384  23.061   0.334
33236W        W96795  23.149  32.042  13.398
33237W        W96796  34.540  18.688   3.178
33238W        W96797  26.039  11.836   3.819
33239W        W96798   4.436  41.476   0.324
33240W        W96799   9.825  29.984  14.007
33241W        W96800  11.300  28.560   3.329
33242W        W96801  30.014   9.170   0.840
33243W        W96802   8.833   2.804  10.965
33244W        W96803  44.879  20.130   1.272
33245W        W96804  27.502  29.456  11.876
33246W        W96805  26.088   2.294  10.963
33247W        W96806  44.438  19.222   0.448
33248W        W96807  44.491  11.821  14.875
33249W        W96808  32.553  21.255   1.887
33250W        W96809   4.843   7.342   2.892
33251W        W96810  37.991   1.315   1.301
33252W        W96811  21.538  31.096  11.967
33253W        W96812  30.039   0.747  13.897
33254W        W96813  21.542  33.624   4.667
33255W        W96814   7.252  18.281   2.724
33256W        W96815   0.816  10.291   2.247
33257W        W96816   0.324  13.786   0.739
33258W        W96817  18.743   3.454   4.125
33259W        W96818  33.427  37.072  12.830
33260W        W96819  26.969  15.204  11.562
33261W        W96820  35.000  10.299  13.497
33262W        W96821  31.140   2.346  12.921
33263W        W96822  14.238  44.973   2.372
33264W        W96823  42.416  44.406  12.044
33265W        W96824  33.080  17.210  10.616
33266W        W96825  24.097  16.189   1.395
33267W        W96826  40.465  18.613   0.783
33268W        W96827   2.232  13.825  12.398
33269W        W96828  25.660   4.405   1.752
33270W        W96829  28.634  24.623  11.902
33271W        W96830   8.236   5.327  12.046
33272W        W96831  43.432   3.425  11.123
33273W        W96832  33.514  34.438  11.530
33274W        W96833  31.524  30.497  14.404
33275W        W96834   4.700  13.343  10.933
33276W        W96835   3.775   9.164  14.402
33277W        W96836  44.439  27.118  13.423
33278W        W96837  44.399  22.248  14.885
33279W        W96838  43.810   1.899  11.517
33280W        W96839   3.266  28.619   0.434
33281W        W96840  26.614  40.348  13.970
33282W        W96841  43.831  43.410  13.941
33283W        W96842  43.446  12.843   4.706
33284W        W96843  21.552  12.851   0.343
33285W        W96844  20.648  24.148  13.015
33286W        W96845  33.487  33.068  12.550
33287W        W96846  18.588  38.854  11.029
33288W        W96847  37.387   0.837  13.542
33289W        W96848  27.030  12.314  13.524
33290W        W96849  20.688  18.131   4.710
33291W        W96850  23.156   8.206   3.165
33292W        W96851  34.604  36.568  13.480
33293W        W96852  19.776  21.150   3.830
33294W        W96853  32.465  17.250   2.735
33295W        W96854   2.317  17.275  13.999
33296W        W96855  18.585  40.501   2.830
33297W        W96856   5.917   6.263   0.868
33298W        W96857   5.930  23.561  13.013
33299W        W96858  24.666  15.791   0.879
33300W        W96859   4.894   7.798   4.671
33301W        W96860  26.155  22.246   3.846
33302W        W96861  39.420  32.892   3.227
33303W        W96862  35.893  14.272   3.150
33304W        W96863  10.713  25.581   0.750
33305W        W96864  13.644  32.088  14.811
33306W        W96865  14.192  14.696   0.303
33307W        W96866  20.168  27.553   4.617
33308W        W96867   1.316  41.401   2.816
33309W        W96868  25.004   0.334  10.451
33310W        W96869  14.820  20.535   4.816
33311W        W96870  22.581   4.394  14.882
33312W        W96871  14.270  17.707  12.561
33313W        W96872  24.504   1.318   0.898
33314W        W96873  36.848  23.512   4.309
33315W        W96874   2.389  23.180  14.509
33316W        W96875  37.385  40.941  12.867
33317W        W96876  16.299  24.664  11.451
33318W        W96877   6.689  20.257  11.085
33319W        W96878  41.036  31.012   4.268
33320W        W96879  42.322  43.006   1.803
33321W        W96880  29.576   7.711  11.551
33322W        W96881  19.040   0.842   0.953
33323W        W96882  11.191  36.449   4.310
33324W        W96883  17.151   6.334   0.947
33325W        W96884   2.765   6.258  14.451
33326W        W96885  36.373  30.524   1.789
33327W        W96886  10.377   5.746  14.482
33328W        W96887   2.306   9.311   4.126
33329W        W96888  37.862  29.116  12.471
33330W        W96889  43.797   0.378  11.950
33331W        W96890  14.768  36.076  14.769
33332W        W96891  40.922   6.286   0.341
33333W        W96892  32.502  41.866   1.446
33334W        W96893  28.974   3.857   0.913
33335W        W96894   4.933  31.469  14.493
33336W        W96895  41.935  15.746  10.618
33337W        W96896  18.568  18.679   4.344
33338W        W96897   1.284   2.892   0.375
33339W        W96898  24.610  26.957   0.308
33340W        W96899  11.149  27.625   0.459
33341W        W96900   4.902  44.274   3.726
33342W        W96901   2.377  30.116   3.365
33343W        W96902   8.888  30.072  10.917
33344W        W96903  16.649  38.850   1.888
33345W        W96904  25.488  30.032  12.823
33346W        W96905  37.336  35.938  10.045
33347W        W96906   0.454  38.333   2.685
33348W        W96907   1.975   1.339   2.886
33349W        W96908   0.912   1.907   4.685
33350W        W96909  20.542  35.085   1.890
33351W        W96910  28.493   2.348  11.008
33352W        W96911  23.168  34.533   3.830
33353W        W96912  37.574  38.047   1.859
33354W        W96913   2.929  23.611  12.885
33355W        W96914  41.474  36.960  14.296
33356W        W96915  35.362  14.326   0.338
33357W        W96916  44.992  38.940   0.808
33358W        W96917   6.312  26.669   2.725
33359W        W96918   6.825  35.960  10.557
33360W        W96919   8.193  31.573  11.455
33361W        W96920  23.538   6.848  10.635
33362W        W96921  14.661   6.198  14.031
33363W        W96922  26.693  34.922  12.384
33364W        W96923   0.361  41.890  11.463
33365W        W96924   0.305   2.292   0.419
33366W        W96925  32.502  22.526   2.883
33367W        W96926  17.179  21.149   5.261
33368W        W96927  39.961  20.177  14.413
33369W        W96928  26.148   5.919   0.747
33370W        W96929  33.389  44.319   0.458
33371W        W96930  37.870  22.527  12.359
33372W        W96931  22.592  40.993  13.903
33373W        W96932  15.244  36.380   3.373
33374W        W96933  32.914  26.571   3.778
33375W        W96934  17.669  12.324  11.572
33376W        W96935   3.337  25.082   4.280
33377W        W96936   8.260  17.607   0.260
33378W        W96937  24.580  16.649   0.278
33379W        W96938  37.417   0.285   4.670
33380W        W96939  22.198  31.479   2.196
33381W        W96940  31.484   0.457  11.863
33382W        W96941  13.641   3.245  11.557
33383W        W96942   6.921  36.847  10.513
33384W        W96943   7.673  35.498   0.315
33385W        W96944  14.140  18.583  14.357
33386W        W96945  25.648   4.425  13.868
33387W        W96946  11.636  23.546   3.704
33388W        W96947  34.505  32.395  10.501
33389W        W96948  12.675  41.428  13.540
33390W        W96949  12.273   3.750  12.419
33391W        W96950   2.255  14.212  14.274
33392W        W96951  27.145  40.900   0.941
33393W        W96952   9.794  40.473  11.420
33394W        W96953   8.804  27.626   3.163
33395W        W96954   5.763   8.305   2.256
33396W        W96955  17.622   1.271  11.999
33397W        W96956  17.091  13.842  11.986
33398W        W96957  21.706  39.526  11.452
33399W        W96958  42.376  43.975  13.375
33400W        W96959  18.051  39.555   4.806
33401W        W96960  44.824  17.730  13.344
33402W        W96961  15.683  25.476  11.991
33403W        W96962  38.952   0.364   0.764
33404W        W96963  14.619  10.306  12.040
33405W        W96964  29.971  26.554   0.308
33406W        W96965  21.078  34.095  14.833
33407W        W96966  27.647  41.407   2.301
33408W        W96967  44.768  26.187   1.252
33409W        W96968  42.848  18.757   2.345
33410W        W96969  11.263  36.538  13.025
33411W        W96970  12.731  11.824  11.006
33412W        W96971  30.454  40.923   1.391
33413W        W96972  15.739  16.316   1.355
33414W        W96973   0.984  20.037   0.419
33415W        W96974  22.230   2.457   3.678
33416W        W96975  44.832  27.527   0.302
33417W        W96976  41.347  19.195   3.369
33418W        W96977  11.723  25.681   0.950
33419W        W96978  43.406  18.572   0.857
33420W        W96979  37.348  40.329   0.329
33421W        W96980  32.936  15.811  13.384
33422W        W96981  30.989  41.828   2.191
33423W        W96982   1.285  44.872   3.346
33424W        W96983  24.609   8.764   0.442
33425W        W96984  13.260  39.390   3.648
33426W        W96985   2.278  40.329  10.620
33427W        W96986  23.564  14.197  12.520
33428W        W96987  33.882  28.527  12.030
33429W        W96988  41.391  14.698   0.316
33430W        W96989  27.081  21.051   1.254
33431W        W96990  21.723  26.543  14.283
33432W        W96991  36.948  11.745  12.929
33433W        W96992  23.709  38.366   3.358
33434W        W96993  25.643   6.191   5.286
33435W        W96994  24.973  27.613  10.440
33436W        W96995  41.892  32.537  13.885
33437W        W96996  22.631  22.523   4.835
33438W        W96997  24.491  35.449   3.377
33439W        W96998  16.655  25.174  10.593
33440W        W96999  31.420   0.419   2.861
33441W        W97000  30.070  23.123   1.210
33442W        W97001  13.842   5.789  10.062
33443W        W97002   3.730  23.709   1.381
33444W        W97003   1.414   1.834  13.406
33445W        W97004   1.837  17.155   3.870
33446W        W97005  23.494  13.295  10.514
33447W        W97006  44.272  28.503   2.742
33448W        W97007  25.570   3.336  11.568
33449W        W97008  21.140  29.049  12.824
33450W        W97009  15.707  35.076   1.931
33451W        W97010   3.356  11.150  10.610
33452W        W97011  28.447  39.463  12.375
33453W        W97012  13.695  34.425  14.786
33454W        W97013   8.362  40.303  11.589
33455W        W97014  28.597   2.341  11.550
33456W        W97015   6.908  36.532  12.074
33457W        W97016  20.062  37.972  12.577
33458W        W97017   4.858  31.110   9.966
33459W        W97018  18.662  42.922  14.952
33460W        W97019  21.650  36.384  11.979
33461W        W97020  44.996  36.847  10.532
33462W        W97021  15.616  24.624   0.336
33463W        W97022  16.317  43.935   3.654
33464W        W97023  29.557  21.515  11.058
33465W        W97024  23.555   3.448  14.395
33466W        W97025   1.749  17.617   2.220
33467W        W97026  10.782  14.602  13.535
33468W        W97027  44.438  43.989   5.288
33469W        W97028  42.953  43.986  14.923
33470W        W97029  23.006  29.099  10.619
33471W        W97030  18.157  14.141   3.714
33472W        W97031  43.512  11.151  12.920
33473W        W97032  28.176  17.075   4.229
33474W        W97033   1.877  25.168   2.304
33475W        W97034  21.150  17.109   3.225
33476W        W97035  36.385  24.054   1.747
33477W        W97036   1.863  20.621   0.379
33478W        W97037   5.740  23.223   0.817
33479W        W97038  44.909  44.915   3.386
33480W        W97039  18.242  35.960  12.363
33481W        W97040  42.431   3.339   3.342
33482W        W97041   4.852  32.507  11.376
33483W        W97042  40.816  25.967   4.664
33484W        W97043  40.851  31.126   0.443
33485W        W97044   7.370  14.752   1.755
33486W        W97045  29.034  32.993   0.245
33487W        W97046  11.161  30.986  14.915
33488W        W97047  22.108  22.112   1.335
33489W        W97048   4.844  30.486   0.407
33490W        W97049  40.511  27.190   4.331
33491W        W97050  18.194  37.044   2.811
33492W        W97051   1.811   8.654  12.956
33493W        W97052   0.898  18.057  12.830
33494W        W97053  44.484  19.076  14.385
33495W        W97054  13.298   7.407   2.821
33496W        W97055  14.339  17.631  12.868
33497W        W97056   1.934  15.139   3.184
33498W        W97057  26.634  25.562   1.268
33499W        W97058  37.017  20.693  12.473
33500W        W97059  36.500  10.354   0.933
33501W        W97060  39.056  39.997  11.515
33502W        W97061  27.053  28.090  14.908
33503W        W97062   7.344  20.169   0.908
33504W        W97063  38.915  20.707   4.835
33505W        W97064  43.290  16.587   2.417
33506W        W97065  21.514  29.918   0.826
33507W        W97066  24.981  42.348  14.813
33508W        W97067  39.402  41.909  12.013
33509W        W97068  18.698  22.188  11.412
33510W        W97069   3.267  37.861   1.762
33511W        W97070  35.470  14.625  10.630
33512W        W97071   0.858  17.151  14.818
33513W        W97072  31.532  16.112   3.712
33514W        W97073   2.736  27.529  10.421
33515W        W97074  17.072  23.036  13.331
33516W        W97075   7.397  13.779  14.394
33517W        W97076  43.510   7.725  14.818
33518W        W97077  40.471  25.194  14.846
33519W        W97078  37.563  11.220   3.267
33520W        W97079  20.215  12.298   0.409
33521W        W97080   9.671   5.883  12.541
33522W        W97081  36.082  12.266   0.728
33523W        W97082  19.535   2.957   0.769
33524W        W97083  36.887  30.045  13.038
33525W        W97084  10.272  33.041  10.412
33526W        W97085  19.164   2.784  11.926
33527W        W97086  41.796  17.220   1.353
33528W        W97087  20.590  39.901  10.963
33529W        W97088  29.139  36.472   0.459
33530W        W97089  17.113   7.341  12.544
33531W        W97090  26.626   3.901   3.805
33532W        W97091   5.727  29.621  12.415
33533W        W97092  44.849   4.366  11.599
33534W        W97093  43.910  30.654  10.631
33535W        W97094  19.136   3.223   4.788
33536W        W97095  16.713  14.276  11.901
33537W        W97096   0.388   8.399  12.859
33538W        W97097  28.530  29.130  13.377
33539W        W97098  37.569  21.512  13.909
33540W        W97099  41.364   8.398   3.683
33541W        W97100  27.580  26.601   3.177
33542W        W97101  36.551  19.712  13.946
33543W        W97102  11.175  33.409  13.919
33544W        W97103  16.764  33.480   1.901
33545W        W97104  35.042  22.642   4.114
33546W        W97105  23.633   1.327  10.437
33547W        W97106  23.078   1.788   2.178
33548W        W97107  42.474  15.123   4.198
33549W        W97108   1.932  40.332  13.996
33550W        W97109  16.160   1.327  13.481
33551W        W97110  17.701  26.586   3.841
33552W        W97111   6.921  43.281   3.798
33553W        W97112  26.560  32.908   3.298
33554W        W97113  26.659  42.281  10.486
33555W        W97114  41.800  43.309   3.744
33556W        W97115   4.203  38.541  14.012
33557W        W97116  28.007  33.898  11.894
33558W        W97117  40.897  44.862  14.798
33559W        W97118   5.768   8.218   2.724
33560W        W97119  11.768  25.154  11.016
33561W        W97120   9.272  23.038   2.314
33562W        W97121  31.981  13.699  11.425
33563W        W97122   9.736   5.885   2.279
33564W        W97123  25.979  13.785   0.869
33565W        W97124  38.357  22.525   4.258
33566W        W97125   5.908  14.779   2.825
33567W        W97126  12.706   5.889   1.438
33568W        W97127  12.668  33.509  14.934
33569W        W97128  14.274  34.373  13.831
33570W        W97129  19.246  40.308   2.705
33571W        W97130   2.829  15.164   2.824
33572W        W97131  38.837  35.874   4.317
33573W        W97132  40.029  35.594   2.283
33574W        W97133  22.628   7.197  10.965
33575W        W97134  35.425   7.878  14.974
33576W        W97135   5.747  25.001   3.147
33577W        W97136   5.930  16.775  14.382
33578W        W97137  43.399  37.387  14.322
33579W        W97138  31.142  13.216  11.960
33580W        W97139  31.958   2.266  10.473
33581W        W97140  30.533  33.541  13.535
33582W        W97141   9.316  40.929   3.191
33583W        W97142   6.747  27.136   0.817
33584W        W97143   3.420  29.056  10.618
33585W        W97144   4.439  23.525  10.995
33586W        W97145   1.478  28.537  12.368
33587W        W97146  30.162  24.489  13.015
33588W        W97147   0.985  15.778  14.862
33589W        W97148   0.881  42.842  11.959
33590W        W97149  11.717  43.320   0.763
33591W        W97150  40.970  27.111  12.463
33592W        W97151  29.947  40.799   1.835
33593W        W97152  29.666  31.451   0.909
33594W        W97153  36.060  29.075  14.355
33595W        W97154  39.945  27.953  11.537
33596W        W97155  31.571  10.678   1.360
33597W        W97156  19.235   5.270  10.988
33598W        W97157   8.663   8.781   3.317
33599W        W97158  41.876  40.456  11.126
33600W        W97159  42.314   6.884  14.862
33601W        W97160  11.755   6.899   0.933
33602W        W97161   9.370   1.361   2.413
33603W        W97162  21.704  31.111   5.791
33604W        W97163   1.455  35.926  12.014
33605W        W97164  30.017  35.094   1.848
33606W        W97165  11.153  28.676   3.674
33607W        W97166  12.313  42.911  10.617
33608W        W97167  40.934   2.272  14.813
33609W        W97168   4.210   4.840   0.860
33610W        W97169  40.421  35.058  13.932
33611W        W97170   1.302  28.575  14.020
33612W        W97171   2.371   7.829   1.247
33613W        W97172  10.870  27.633  10.974
33614W        W97173  12.834   9.701   1.351
33615W        W97174  16.755  39.880   4.334
33616W        W97175  35.455  39.467   4.290
33617W        W97176  28.476  34.079   1.821
33618W        W97177  31.408  18.095   0.901
33619W        W97178  21.586  33.571  13.450
33620W        W97179  22.699  41.321  10.121
33621W        W97180  39.960  37.955   0.936
33622W        W97181  25.602  19.566   1.335
33623W        W97182  13.642   6.402  10.151
33624W        W97183  28.069   6.809   4.631
33625W        W97184  30.636  38.868  14.419
33626W        W97185   6.702  23.672   0.740
33627W        W97186  20.585  19.134  12.936
33628W        W97187  37.390  11.215   2.301
33629W        W97188  32.972   2.252   2.763
33630W        W97189  28.168  23.146  13.528
33631W        W97190  24.499  36.874  12.443
33632W        W97191  38.564  15.305  10.499
33633W        W97192  33.550  12.309  10.626
33634W        W97193  30.639   3.802   1.906
33635W        W97194  43.796  33.603  13.875
33636W        W97195   9.304  25.653  10.524
33637W        W97196  30.637  30.049   0.810
33638W        W97197  41.880  40.489  14.804
33639W        W97198   4.731  18.738  12.850
33640W        W97199  21.584  43.310  13.009
33641W        W97200  25.683  40.942  14.764
33642W        W97201  41.803  14.218  10.004
33643W        W97202  14.258  11.143   4.278
33644W        W97203  14.163  18.285   0.817
33645W        W97204  38.471  44.277   3.325
33646W        W97205   5.821  29.156   2.801
33647W        W97206   2.801  19.735   1.368
33648W        W97207  32.557  14.335   4.145
33649W        W97208   8.788   9.823  11.003
33650W        W97209   6.364   7.854  14.788
33651W        W97210  42.312  44.884  11.934
33652W        W97211  14.154  22.687   1.417
33653W        W97212   3.222  38.423  13.358
33654W        W97213  28.115  10.657   1.229
33655W        W97214  29.126  34.473  14.780
33656W        W97215  29.985  30.036  11.557
33657W        W97216  29.987  22.017  14.994
33658W        W97217  10.209  11.662   2.730
33659W        W97218  20.696  26.125  14.368
33660W        W97219   8.353  24.129  14.996
33661W        W97220  14.788  29.161  12.040
33662W        W97221  20.576  39.890   1.854
33663W        W97222  18.158  31.592  12.375
33664W        W97223  34.043   9.211   0.452
33665W        W97224  28.466  33.389  10.420
33666W        W97225  28.603  16.773   0.923
33667W        W97226  29.122  40.921   3.212
33668W        W97227   2.290  40.414   1.807
33669W        W97228   2.867  33.910   1.316
33670W        W97229  39.821  25.510  12.846
33671W        W97230   5.734  29.095  10.441
33672W        W97231  18.251  11.213   1.414
33673W        W97232   8.712  23.583   3.281
33674W        W97233  22.096  43.390  14.456
33675W        W97234   4.347  29.075   4.249
33676W        W97235  36.383  31.153   0.773
33677W        W97236  18.588  28.041   3.178
33678W        W97237   9.692  27.992   1.224
33679W        W97238  27.950   0.763  14.289
33680W        W97239  35.437  40.920   1.712
33681W        W97240  19.072  20.559  15.000
33682W        W97241  28.128  42.901   2.399
33683W        W97242  18.696  11.249  12.501
33684W        W97243  40.007  29.581  12.911
33685W        W97244  16.600  36.465   3.333
33686W        W97245  43.874   1.336   4.193
33687W        W97246  17.231  20.678   3.671
33688W        W97247  15.613  20.729  13.517
33689W        W97248   9.768   8.893   1.426
33690W        W97249   3.738  39.026  10.630
33691W        W97250  20.175  34.450   9.982
33692W        W97251  14.333  18.080   2.883
33693W        W97252   3.369  26.619  13.032
33694W        W97253  40.450  44.328  12.404
33695W        W97254  38.841  15.591   2.207
33696W        W97255  12.666  21.023   1.898
33697W        W97256  10.335  20.164  12.381
33698W        W97257   3.825  28.008  13.801
33699W        W97258  39.508  31.112   1.769
33700W        W97259   9.377  40.328   3.274
33701W        W97260   2.471  44.801   1.778
33702W        W97261  17.662  13.281   4.290
33703W        W97262  40.429  22.070   1.325
33704W        W97263  23.598  14.178   1.840
33705W        W97264  19.660  13.159  14.323
33706W        W97265   6.361  24.161   1.777
33707W        W97266  40.380  42.349  14.896
33708W        W97267   5.882   0.798  10.980
33709W        W97268  26.199   6.695  12.461
33710W        W97269  25.023  20.602  13.427
33711W        W97270  17.153   4.905  11.855
33712W        W97271  16.573  22.240   4.154
33713W        W97272  29.621  31.509  11.960
33714W        W97273  42.409   3.711  13.496
33715W        W97274  44.282  36.457   3.819
33716W        W97275  22.743  43.486   1.779
33717W        W97276  17.695   4.755  10.419
33718W        W97277  37.855  30.545   1.734
33719W        W97278   3.316  37.342   0.262
33720W        W97279  29.080  33.955   0.405
33721W        W97280  41.401  20.115  13.985
33722W        W97281  18.216  11.655  11.565
33723W        W97282  12.277  22.587   2.774
33724W        W97283  21.758  33.482  11.458
33725W        W97284  28.038  14.764   0.338
33726W        W97285  13.263   1.430   2.747
33727W        W97286  10.648  34.894  13.522
33728W        W97287  10.877   4.385   4.791
33729W        W97288  36.029  36.888   1.211
33730W        W97289  33.035  32.548   4.146
33731W        W97290  43.498  31.430   3.720
33732W        W97291  39.838  14.659  13.485
33733W        W97292   6.867  17.282   0.926
33734W        W97293  28.109  23.516  12.574
33735W        W97294   4.322  29.070  14.008
33736W        W97295  20.116   6.308   1.848
33737W        W97296  34.874  14.097  14.334
33738W        W97297  39.032  11.662   1.919
33739W        W97298  22.068  20.166   3.359
33740W        W97299  30.561  30.034  14.951
33741W        W97300  24.669  21.185   5.230
33742W        W97301   2.746  42.517  12.561
33743W        W97302   1.800  35.532  13.948
33744W        W97303  41.962  31.410   3.694
33745W        W97304  37.951  35.369  14.397
33746W        W97305  25.162  43.281  12.414
33747W        W97306  43.877  27.093   0.861
33748W        W97307  40.351  35.019   2.832
33749W        W97308  10.170  13.800   2.337
33750W        W97309  44.432   1.279  14.999
33751W        W97310   7.788   5.911   1.374
33752W        W97311  28.985  40.422  10.057
33753W        W97312  26.028  42.291   2.302
33754W        W97313   2.281  26.160  14.341
33755W        W97314  11.809  38.042   4.263
33756W        W97315  19.618  12.150  14.799
33757W        W97316  31.032  22.197  13.032
33758W        W97317  11.747  13.666  12.353
33759W        W97318  39.527   4.718   1.224
33760W        W97319  24.171  42.958   4.774
33761W        W97320  26.076  30.161   1.241
33762W        W97321  16.763  40.960   3.151
33763W        W97322  14.722  19.554   2.717
33764W        W97323  30.499  36.385   1.322
33765W        W97324  36.431   5.785   1.793
33766W        W97325   8.379  23.991  13.336
33767W        W97326   2.951   0.281   0.765
33768W        W97327  34.899  36.019   2.258
33769W        W97328  15.651  20.617   1.374
33770W        W97329  43.309  20.095  10.552
33771W        W97330  43.772  42.872   4.312
33772W        W97331  12.157  25.965   5.133
33773W        W97332  28.644  26.198   3.335
33774W        W97333  20.606  24.002  11.583
33775W        W97334  36.037  32.541  14.341
33776W        W97335  18.664  13.826   3.654
33777W        W97336  22.531  40.540   1.824
33778W        W97337  29.137  38.420  13.439
33779W        W97338  11.866  26.599   3.381
33780W        W97339  26.996   3.221  13.507
33781W        W97340  25.713  39.359  13.821
33782W        W97341   7.752  23.181   2.865
33783W        W97342   7.209   7.708  14.760
33784W        W97343   7.868   0.469  13.900
33785W        W97344  28.109  39.927  13.325
33786W        W97345  33.877  38.015  11.410
33787W        W97346  36.355   6.781  11.597
33788W        W97347  36.898   6.402  11.557
33789W        W97348  31.494  10.771  13.995
33790W        W97349  21.021   4.872  11.891
33791W        W97350  27.995  13.706  10.481
33792W        W97351   1.428   4.732  11.411
33793W        W97352  13.126  28.049  13.019
33794W        W97353  30.947  22.192   0.295
33795W        W97354   0.387  29.959   0.401
33796W        W97355  18.114  31.587  13.026
33797W        W97356  11.349  40.482  12.028
33798W        W97357   8.717  38.422  11.929
33799W        W97358  27.463  33.454   4.753
33800W        W97359  41.939  38.062   0.330
33801W        W97360  14.835  14.094  10.144
33802W        W97361  18.771  43.287   0.895
33803W        W97362  28.544   1.429  14.374
33804W        W97363  17.722   9.849   1.417
33805W        W97364  29.619  28.163   3.366
33806W        W97365   9.850  34.033   4.767
33807W        W97366  30.962   1.849  14.867
33808W        W97367  33.884   1.345  11.912
33809W        W97368  11.683  33.903  11.511
33810W        W97369  14.204  18.618  14.824
33811W        W97370  24.011   4.753  10.552
33812W        W97371  39.829   3.917  14.451
33813W        W97372  21.528   1.444   2.798
33814W        W97373   8.850   0.834  11.027
33815W        W97374  43.325   7.322  12.434
33816W        W97375   1.354  23.505  12.958
33817W        W97376   4.292  30.560   1.743
33818W        W97377  10.220   3.936  13.892
33819W        W97378  19.172  35.367  11.522
33820W        W97379  36.058   0.928  12.579
33821W        W97380  19.717  30.130   1.378
33822W        W97381   9.359   3.347   4.698
33823W        W97382  33.570  30.450   2.381
33824W        W97383  37.394   9.281   5.661
33825W        W97384  36.091  10.680  14.453
33826W        W97385  26.574  21.201  10.453
33827W        W97386   8.357  35.885   1.387
33828W        W97387  41.837  34.416  13.924
33829W        W97388  25.576  23.076   0.465
33830W        W97389  27.608  26.031  12.918
33831W        W97390  37.485  15.114   1.916
33832W        W97391  20.618  31.121  10.525
33833W        W97392   0.474  27.685  12.555
33834W        W97393  20.538  29.035   3.757
33835W        W97394  38.959   0.284   3.282
33836W        W97395  17.565  43.851   0.296
33837W        W97396  37.552  21.564   4.151
33838W        W97397   7.340  19.534  14.779
33839W        W97398   5.888  22.096  12.039
33840W        W97399  19.078  31.114   0.337
33841W        W97400  38.861  36.480   0.771
33842W        W97401  31.940   1.378   3.765
33843W        W97402  33.551  32.063  13.465
33844W        W97403  42.799  24.031   1.746
33845W        W97404   6.842  40.304   1.240
33846W        W97405  12.751   5.842   1.712
33847W        W97406  41.974  37.068   0.842
33848W        W97407  44.765  21.111  10.115
33849W        W97408  40.425  24.625  11.083
33850W        W97409  17.181  15.761  14.469
33851W        W97410  22.144  26.665  11.445
33852W        W97411   5.736   2.962   3.325
33853W        W97412  31.024  24.151  12.533
33854W        W97413  21.178  35.920  10.521
33855W        W97414  10.232  37.380  12.842
33856W        W97415   0.334   9.692  10.900
33857W        W97416  12.160  22.157   1.363
33858W        W97417  30.089  22.733  14.426
33859W        W97418  44.874  26.494   0.337
33860W        W97419  13.831  36.436  10.109
33861W        W97420  25.654  29.586   4.831
33862W        W97421   8.195  27.660  14.015
33863W        W97422  19.559  16.576  12.993
33864W        W97423  37.048  28.618  12.509
33865W        W97424  15.324  20.676  14.890
33866W        W97425  37.979  16.807   1.900
33867W        W97426  41.885  37.569  13.419
33868W        W97427  14.206  25.000  12.402
33869W        W97428   8.268  34.385   3.784
33870W        W97429  18.219  25.501  10.942
33871W        W97430  40.381   0.874  12.878
33872W        W97431  40.457  19.669   4.682
33873W        W97432  22.219   1.297   4.180
33874W        W97433  14.119  29.051   3.630
33875W        W97434  32.444   9.243  14.515
33876W        W97435   0.257  14.795   4.114
33877W        W97436  11.804  32.603  13.896
33878W        W97437  14.269  16.194   0.838
33879W        W97438   2.250  27.122  11.925
33880W        W97439  38.439   5.375   1.214
33881W        W97440  11.680  11.269  10.069
33882W        W97441  20.158  33.451  11.098
33883W        W97442  30.097   6.426   0.863
33884W        W97443  43.019   0.745   3.148
33885W        W97444  24.021  36.086  13.010
33886W        W97445  15.662  33.562   0.794
33887W        W97446  19.668  38.464   3.196
33888W        W97447  38.448   1.842  12.385
33889W        W97448  42.495  29.951  10.928
33890W        W97449  44.496  41.341  12.943
33891W        W97450  44.943  33.902   1.787
33892W        W97451  19.562  31.492  11.540
33893W        W97452  14.239  41.955   1.856
33894W        W97453   0.806  31.009  13.795
33895W        W97454  30.488  39.044  13.048
33896W        W97455  14.750  22.214   4.296
33897W        W97456  13.667  20.534   0.323
33898W        W97457  40.932   3.288  12.988
33899W        W97458  37.014  31.128  14.964
33900W        W97459  42.821  33.020   3.230
33901W        W97460  29.636   9.854  12.575
33902W        W97461   1.972  42.401  11.544
33903W        W97462  41.370   6.798   1.229
33904W        W97463   3.245  35.366  11.995
33905W        W97464  24.201  29.427  12.522
33906W        W97465  21.749  25.023  12.441
33907W        W97466   6.219  39.987  11.871
33908W        W97467  38.488  35.019  11.048
33909W        W97468  27.003   2.408   1.765
33910W        W97469  25.082   3.446   0.960
33911W        W97470  39.844  22.676  11.046
33912W        W97471  34.083   5.229   0.276
33913W        W97472   5.721  28.089  11.423
33914W        W97473  37.451   3.307   2.841
33915W        W97474  18.560   7.378   4.826
33916W        W97475  15.273  44.780  11.425
33917W        W97476  33.441  34.532   1.273
33918W        W97477  38.923  39.464  13.331
33919W        W97478  33.908  39.377  14.494
33920W        W97479  41.941  18.103  14.414
33921W        W97480   2.808   5.711  11.893
33922W        W97481  37.849  19.694   1.824
33923W        W97482  30.939  22.630   5.129
33924W        W97483  13.666  25.174   4.301
33925W        W97484   4.731  16.653  13.998
33926W        W97485  44.261  27.117   5.093
33927W        W97486  44.501   1.438   2.740
33928W        W97487  25.218  10.695  11.912
33929W        W97488  11.341  27.972   1.696
33930W        W97489  15.147  40.517   2.203
33931W        W97490  38.389  42.960   3.741
33932W        W97491  14.678  36.978  10.602
33933W        W97492  16.813   4.334  13.492
33934W        W97493  44.909   5.247   3.639
33935W        W97494  21.037  15.681   4.267
33936W        W97495   4.221  16.586   1.891
33937W        W97496  38.973  15.708   0.346
33938W        W97497  41.876   7.872   1.770
33939W        W97498  37.393  32.566   3.637
33940W        W97499   6.388  25.993  11.015
33941W        W97500  38.487  29.971  12.397
33942W        W97501  33.087  15.607  12.004
33943W        W97502  34.981   8.374   3.266
33944W        W97503  30.649  21.251  11.980
33945W        W97504   4.806   5.752  14.936
33946W        W97505  41.955  27.559  12.935
33947W        W97506  32.982  32.900   3.746
33948W        W97507  11.236  33.511   2.344
33949W        W97508   3.461  19.609   0.820
33950W        W97509  43.946  33.921  11.542
33951W        W97510  17.180  29.149  14.010
33952W        W97511  34.084  35.409  14.471
33953W        W97512   7.912   4.336  14.944
33954W        W97513  15.711  21.054   1.358
33955W        W97514  19.277  24.093   3.152
33956W        W97515  26.498  41.916  12.015
33957W        W97516  16.109   9.151  10.621
33958W        W97517  29.590  28.630   3.758
33959W        W97518   3.916  36.513  11.054
33960W        W97519  34.400  32.440   9.937
33961W        W97520   9.709  40.535  13.905
33962W        W97521  43.822   3.434   0.777
33963W        W97522   7.746  23.088   3.808
33964W        W97523  23.140   7.673   4.671
33965W        W97524  32.011  28.674   1.849
33966W        W97525  11.668   4.798   1.743
33967W        W97526  36.447  16.275  11.422
33968W        W97527   8.731  25.120  10.157
33969W        W97528  29.429  10.704   0.374
33970W        W97529  34.459  22.513  11.580
33971W        W97530  28.619  31.445   0.345
33972W        W97531  11.316  32.526   4.298
33973W        W97532  10.286   6.231   0.466
33974W        W97533  25.526  24.504  12.461
33975W        W97534  22.151   0.913  13.942
33976W        W97535   9.880  43.288   0.801
33977W        W97536  40.347  25.563  13.513
33978W        W97537  28.105   7.882  10.426
33979W        W97538  35.474  21.142  13.348
33980W        W97539   9.652  11.719  11.916
33981W        W97540  14.722   2.236  11.094
33982W        W97541  11.700   5.794   4.253
33983W        W97542   2.966  15.277  11.947
33984W        W97543  13.170  34.067  14.936
33985W        W97544  34.472  20.630  12.975
33986W        W97545  26.539   4.913  14.347
33987W        W97546  29.479   0.977   0.934
33988W        W97547  22.212   4.445   2.379
33989W        W97548  44.833  15.127   2.871
33990W        W97549  11.141  41.824   4.698
33991W        W97550   9.654  15.824   0.419
33992W        W97551  13.133  20.625  10.899
33993W        W97552   9.679   2.466  10.513
33994W        W97553  30.134  30.657   1.816
33995W        W97554  34.547  33.597  11.536
33996W        W97555  28.008  44.899  14.950
33997W        W97556  20.757  30.034   0.271
33998W        W97557   3.810  43.481  13.323
33999W        W97558  18.232  35.954   0.903
34000W        W97559   6.828  28.521   0.790
34001W        W97560  40.374   7.703  12.524
34002W        W97561  25.529   9.322  12.948
34003W        W97562  34.099  41.895   2.253
34004W        W97563  34.944  30.933  11.570
34005W        W97564  25.681  38.043  10.549
34006W        W97565  38.077  24.012  10.436
34007W        W97566   4.449  35.082   1.275
34008W        W97567  25.149  29.556  12.376
34009W        W97568  25.122  26.689  10.559
34010W        W97569  32.491  21.242   9.940
34011W        W97570  11.631   8.261   4.347
34012W        W97571  34.034   5.328   4.303
34013W        W97572  43.442  14.627   0.468
34014W        W97573  26.108   8.362  14.877
34015W        W97574  14.623  11.818   1.734
34016W        W97575   0.826  22.040   1.351
34017W        W97576  27.104  12.733   0.373
34018W        W97577  41.948  42.936  13.426
34019W        W97578  17.770  40.809  11.422
34020W        W97579  27.107  28.049  13.536
34021W        W97580   6.683  18.692   0.833
34022W        W97581  10.295  40.911  12.496
34023W        W97582  17.595   8.896  14.804
34024W        W97583   0.967  40.806   0.814
34025W        W97584  10.779  10.690   3.661
34026W        W97585  39.041  36.861  14.780
34027W        W97586  33.621  14.613  10.506
34028W        W97587   9.345  23.204  14.474
34029W        W97588   1.913  16.664  12.864
34030W        W97589  41.392  15.240  11.429
34031W        W97590   2.793  27.466  11.381
34032W        W97591  14.793  43.777   4.223
34033W        W97592   3.292  42.297   0.429
34034W        W97593  20.652  11.836   4.695
34035W        W97594  29.159  14.237  12.579
34036W        W97595  43.839   9.771  11.441
34037W        W97596   8.752  28.663   2.841
34038W        W97597   2.727  12.254   3.374
34039W        W97598  11.149  14.098  11.031
34040W        W97599   3.430  26.176   0.928
34041W        W97600  37.915   6.692  11.016
34042W        W97601  23.066   3.230  12.355
34043W        W97602  30.639  42.907   1.814
34044W        W97603   9.316   8.382  14.994
34045W        W97604  16.711  11.229   2.310
34046W        W97605  18.646  28.529   0.286
34047W        W97606  34.953  38.531  14.505
34048W        W97607  35.868  17.198  12.090
34049W        W97608  34.530   4.271   3.837
34050W        W97609  43.020  11.738   3.227
34051W        W97610  21.072  37.399  10.156
34052W        W97611  30.140  42.288   1.711
34053W        W97612   5.309  10.349   2.267
34054W        W97613  33.026   6.332  14.413
34055W        W97614  23.631  19.536   4.239
34056W        W97615  41.416  26.027  11.386
34057W        W97616  23.057  43.776   3.836
34058W        W97617  16.159  34.572   0.408
34059W        W97618  18.729  41.839  11.391
34060W        W97619   6.803  11.290   2.697
34061W        W97620   2.746  17.199   3.174
34062W        W97621  24.079  29.615  10.029
34063W        W97622  15.614  12.302   2.193
34064W        W97623  23.099   0.751  14.791
34065W        W97624  12.676   4.751  13.503
34066W        W97625  21.652  19.251   4.173
34067W        W97626  23.511   0.832   2.263
34068W        W97627  40.348  37.481  10.079
34069W        W97628  25.527  21.103   4.237
34070W        W97629  20.262  42.392   0.421
34071W        W97630  10.819  26.548  11.990
34072W        W97631  36.415  16.750  14.004
34073W        W97632   7.256  41.962   3.311
34074W        W97633  30.118  34.441   1.334
34075W        W97634   1.829  32.061  13.793
34076W        W97635   4.267   9.759   4.759
34077W        W97636  31.512   9.658   4.147
34078W        W97637  37.433  11.687   3.257
34079W        W97638  20.690   4.273   0.912
34080W        W97639  31.037  38.971  13.345
34081W        W97640  12.233  29.653   1.334
34082W        W97641  14.284   4.226  11.063
34083W        W97642  37.988  13.621  13.420
34084W        W97643  21.734   6.914  12.843
34085W        W97644  25.107  37.455   1.429
34086W        W97645  16.222  24.492   4.765
34087W        W97646  15.803  11.645   4.737
34088W        W97647  16.675  33.093   4.833
34089W        W97648  14.722  14.223  14.344
34090W        W97649  11.298  26.486  12.349
34091W        W97650   9.161  22.663  14.839
34092W        W97651  25.502  28.482   2.323
34093W        W97652  24.696  12.179  12.961
34094W        W97653  42.467  34.866  13.530
34095W        W97654   7.304  33.928   4.153
34096W        W97655  12.824  28.026   2.204
34097W        W97656  43.400  26.513   4.706
34098W        W97657  31.123  31.991   0.789
34099W        W97658  34.400  30.142  14.437
34100W        W97659   1.480  34.070   4.806
34101W        W97660  28.066  12.806   3.317
34102W        W97661  25.058  33.058   2.178
34103W        W97662  15.196  12.211   3.766
34104W        W97663   8.870  25.638   0.429
34105W        W97664  13.705  41.421  14.890
34106W        W97665   1.911  11.744   4.800
34107W        W97666   2.936   5.896  12.417
34108W        W97667  27.962  11.736   4.719
34109W        W97668   3.378  16.802   0.311
34110W        W97669  16.617  34.461   0.754
34111W        W97670  40.822   5.331  13.813
34112W        W97671  29.019   3.886  12.405
34113W        W97672  33.484  37.867   1.848
34114W        W97673  11.672  31.402  11.857
34115W        W97674   4.219  13.825  11.921
34116W        W97675  18.631   6.795  14.422
34117W        W97676  40.976  37.838   2.693
34118W        W97677  35.961   9.324   3.206
34119W        W97678   9.332  31.537   2.715
34120W        W97679  41.887   4.929  11.471
34121W        W97680  40.463  21.127  11.898
34122W        W97681  19.065  41.300   0.391
34123W        W97682  34.113  18.104  12.453
34124W        W97683  13.784  17.159  11.429
34125W        W97684   0.418  42.355  10.934
34126W        W97685  15.698   3.403   1.752
34127W        W97686   4.906   3.922   1.884
34128W        W97687  18.788   4.878   0.306
34129W        W97688  41.842  38.923  11.429
34130W        W97689  41.886  41.925   2.842
34131W        W97690  24.504  20.541   2.716
34132W        W97691  30.515   3.412   3.868
34133W        W97692  12.304  31.979  12.845
34134W        W97693  34.379  43.017  11.381
34135W        W97694  40.021  15.633   1.388
34136W        W97695   7.720  20.594  12.953
34137W        W97696  24.615   9.211  11.053
34138W        W97697  37.048   9.209   3.778
34139W        W97698  25.593  10.261   3.792
34140W        W97699  25.572  37.938  12.034
34141W        W97700   7.370  42.905  13.896
34142W        W97701   4.400  31.921  14.425
34143W        W97702  17.627  10.296   3.371
34144W        W97703  29.484  43.857  12.477
34145W        W97704  30.146  43.276   0.266
34146W        W97705  15.168  35.454  13.419
34147W        W97706   3.727  12.170   0.897
34148W        W97707  39.514   9.341   0.746
34149W        W97708   2.374  11.239   0.777
34150W        W97709  24.022  33.441   1.863
34151W        W97710  15.823   9.320   2.683
34152W        W97711  28.553  37.035  13.352
34153W        W97712  18.787  34.517  11.461
34154W        W97713  43.790   4.378   3.808
34155W        W97714  13.174   1.455  13.425
34156W        W97715  10.290   3.264  13.988
34157W        W97716  17.287  29.105  11.562
34158W        W97717  17.790  22.680  13.834
34159W        W97718   2.758  40.983  11.403
34160W        W97719  37.006  30.977   1.761
34161W        W97720  39.898  38.489  11.563
34162W        W97721   4.259  43.425  14.972
34163W        W97722  25.186  31.949  14.509
34164W        W97723  24.503  26.028   0.429
34165W        W97724  24.541  20.581  13.372
34166W        W97725  19.612  42.779  14.994
34167W        W97726   3.399  20.645  12.907
34168W        W97727  44.860  37.562   2.218
34169W        W97728   4.273  44.818  12.510
34170W        W97729  41.538  23.716  10.962
34171W        W97730  28.166  40.042   4.678
34172W        W97731  30.655  31.144  11.876
34173W        W97732  33.616  16.111   0.957
34174W        W97733  11.188  34.932   1.432
34175W        W97734   0.858  30.630   3.185
34176W        W97735   7.326  18.585  11.459
34177W        W97736  36.026  33.036   9.653
34178W        W97737  33.904  13.740   2.847
34179W        W97738  33.427  24.550   3.869
34180W        W97739  39.357  20.164  13.953
34181W        W97740  15.798  23.603   0.751
34182W        W97741   8.812  18.677  12.459
34183W        W97742   3.447  14.213  12.460
34184W        W97743  12.766  32.498   3.797
34185W        W97744  43.271  19.689   3.856
34186W        W97745  23.020  28.031   2.246
34187W        W97746   2.257  32.099  10.151
34188W        W97747  39.348  14.295  12.937
34189W        W97748  26.124  15.091  12.361
34190W        W97749   8.763  29.980   0.835
34191W        W97750  10.171  25.012   1.834
34192W        W97751   3.948  20.067   2.218
34193W        W97752  18.588   1.424  13.348
34194W        W97753  26.186  31.959  12.355
34195W        W97754   8.839   0.382  13.507
34196W        W97755  31.565  40.889   5.787
34197W        W97756  32.075   7.248  12.410
34198W        W97757  19.726   7.721  13.029
34199W        W97758  13.352  27.489   3.675
34200W        W97759  11.169   4.854  13.947
34201W        W97760  37.000  15.629   3.865
34202W        W97761  21.696  44.949  14.963
34203W        W97762  36.973  12.261  13.871
34204W        W97763  20.088  43.350  11.020
34205W        W97764   3.354  35.102   1.863
34206W        W97765  13.755  42.936  13.806
34207W        W97766  10.673  33.010   3.697
34208W        W97767  40.876   4.303  12.916
34209W        W97768  29.585   2.886   2.864
34210W        W97769   8.848  37.072   0.392
34211W        W97770  30.460  11.347  11.501
34212W        W97771   8.319  34.597   4.331
34213W        W97772  31.997  38.014  12.532
34214W        W97773   6.703  13.841  13.048
34215W        W97774   0.482   9.173  12.548
34216W        W97775  26.037  43.308   3.675
34217W        W97776  22.070   7.776  12.512
34218W        W97777   3.823   1.945  11.128
34219W        W97778  23.539  11.147   2.797
34220W        W97779  36.369   8.890  13.405
34221W        W97780  31.573   1.817  11.102
34222W        W97781   1.923  30.524  11.522
34223W        W97782  36.990   4.937   4.303
34224W        W97783  44.371  39.988   0.470
34225W        W97784  22.626  26.987  13.960
34226W        W97785  13.183  36.022  12.919
34227W        W97786   4.714  19.151   2.270
34228W        W97787  19.182  11.690  14.289
34229W        W97788  40.973  40.804  12.540
34230W        W97789  44.852  43.785  13.999
34231W        W97790   5.896  25.704  14.505
34232W        W97791  19.097  28.065   0.826
34233W        W97792  39.950  19.765  13.798
34234W        W97793  35.902  22.158  10.546
34235W        W97794  35.963  43.903   1.229
34236W        W97795  37.860  14.143   4.673
34237W        W97796  25.189  24.494   0.764
34238W        W97797  18.130  32.511  13.001
34239W        W97798   9.654  40.359  13.542
34240W        W97799   8.162  44.974   2.814
34241W        W97800   7.324  25.209  13.814
34242W        W97801   0.901  14.138   2.746
34243W        W97802  22.137   9.215  13.370
34244W        W97803  22.595  28.509   3.770
34245W        W97804   6.868  42.876   1.399
34246W        W97805   3.924   9.264   2.321
34247W        W97806   5.836   2.230  14.897
34248W        W97807  27.519  43.357   2.379
34249W        W97808  27.061  24.527  14.509
34250W        W97809   1.887  37.044  13.445
34251W        W97810  32.076  40.457  14.362
34252W        W97811  11.211  38.555   0.298
34253W        W97812  32.058  29.161  10.618
34254W        W97813  33.900  37.479   3.345
34255W        W97814  19.155  24.567  14.356
34256W        W97815  14.776   3.749   3.694
34257W        W97816  31.583   3.391   3.695
34258W        W97817  15.200  38.957  14.000
34259W        W97818  18.562   9.749   4.315
34260W        W97819  31.900   9.304   5.146
34261W        W97820  16.629  38.968  11.061
34262W        W97821  30.498  25.974   4.353
34263W        W97822  11.239  15.692  14.774
34264W        W97823  20.199  34.061  12.476
34265W        W97824  16.204  37.402   2.674
34266W        W97825  37.083  30.606  11.006
34267W        W97826  21.595  11.301   3.844
34268W        W97827  43.355   4.311  13.451
34269W        W97828  14.671  10.641   5.572
34270W        W97829  17.699  40.522  11.442
34271W        W97830  10.197   4.784   3.769
34272W        W97831  41.512  36.388   0.296
34273W        W97832  35.368  16.253   3.756
34274W        W97833  30.608  24.181   3.730
34275W        W97834  21.220  22.190  10.413
34276W        W97835  13.657  34.497  11.871
34277W        W97836   5.420  23.990  14.777
34278W        W97837   6.678  30.626   0.864
34279W        W97838  26.472  24.669   0.379
34280W        W97839  35.995  11.828  14.859
34281W        W97840   9.317  27.540   1.271
34282W        W97841   3.732  32.041  13.433
34283W        W97842  40.004  15.606   2.734
34284W        W97843  28.639   5.308  13.794
34285W        W97844  42.848   2.922   1.337
34286W        W97845   1.412  34.552   2.226
34287W        W97846  39.317  13.624   4.651
34288W        W97847  37.950  40.025   1.793
34289W        W97848  10.694  42.917   4.222
34290W        W97849  18.093  21.607  13.837
34291W        W97850  42.009  44.366  13.957
34292W        W97851  34.019  16.309  12.055
34293W        W97852  17.605   2.887  12.553
34294W        W97853  10.197   2.914  11.086
34295W        W97854   4.797  42.334  11.479
34296W        W97855  23.012  23.535  14.397
34297W        W97856  37.864  27.986  14.023
34298W        W97857  23.050   8.738   0.310
34299W        W97858   3.410  30.567  10.423
34300W        W97859  19.149   5.767   1.351
34301W        W97860   1.877  36.906  11.057
34302W        W97861   8.739  10.653  11.965
34303W        W97862  30.053  26.030  11.474
34304W        W97863  21.568  24.050  12.021
34305W        W97864  35.599  44.979  13.056
34306W        W97865   8.678  22.559   0.428
34307W        W97866   5.376  27.122  12.915
34308W        W97867  15.245  16.603   1.339
34309W        W97868  20.573  17.588   1.880
34310W        W97869  28.517   9.653   4.830
34311W        W97870  40.864   0.892  13.501
34312W        W97871   0.967  29.109  10.089
34313W        W97872  33.899  34.020   0.789
34314W        W97873  38.455  15.138  12.960
34315W        W97874  38.037  43.964  12.475
34316W        W97875  27.526  20.072  14.420
34317W        W97876   4.778  23.144   1.437
34318W        W97877   6.705  22.031   0.417
34319W        W97878  14.796  36.409   2.241
34320W        W97879  12.266  24.710  12.520
34321W        W97880  25.713  34.557  11.856
34322W        W97881  25.690   1.887   1.428
34323W        W97882  14.646  28.453   4.320
34324W        W97883  37.950  30.654   4.257
34325W        W97884  11.273   7.263  11.590
34326W        W97885   4.294  43.988  10.485
34327W        W97886  44.415  23.141  10.458
34328W        W97887  21.641  19.771  14.000
34329W        W97888  27.463  37.342   3.281
34330W        W97889   4.748  43.482   4.799
34331W        W97890   6.853  24.118  14.454
34332W        W97891  17.667   1.855   1.297
34333W        W97892  35.993  36.845  12.540
34334W        W97893  42.297  27.108  14.819
34335W        W97894  29.511  13.337  12.340
34336W        W97895  26.005  37.430  12.459
34337W        W97896  11.293  28.544  13.487
34338W        W97897  33.544  31.951   5.295
34339W        W97898  41.529  30.509  14.478
34340W        W97899  15.274  39.839  10.541
34341W        W97900  35.464  18.192  12.975
34342W        W97901  30.972   3.456   5.226
34343W        W97902  22.126  17.165   0.960
34344W        W97903  26.493  30.593   1.825
34345W        W97904  22.530   0.492   0.868
34346W        W97905  30.922  12.293  14.510
34347W        W97906  44.337  21.540  14.851
34348W        W97907  21.648  42.815  13.022
34349W        W97908  32.966   6.358   0.906
34350W        W97909  30.108  28.442   4.213
34351W        W97910   0.282  43.326   4.272
34352W        W97911  36.412   7.825   4.808
34353W        W97912  31.969  11.683   0.472
34354W        W97913  42.304  10.227  13.796
34355W        W97914  38.396  12.845  13.861
34356W        W97915  38.063   1.783  11.578
34357W        W97916  43.354  12.740  10.637
34358W        W97917   6.761  31.906   0.727
34359W        W97918  13.156   6.298   5.626
34360W        W97919  41.397  11.625  14.468
34361W        W97920   8.895  43.995   2.272
34362W        W97921  31.616  40.336  13.818
34363W        W97922   3.860  17.272   3.767
34364W        W97923  27.002  15.645   3.843
34365W        W97924  44.487  11.862   3.709
34366W        W97925   6.885   4.934  10.035
34367W        W97926  12.796   9.727  11.559
34368W        W97927  15.792  30.092  10.609
34369W        W97928  40.478  16.773   4.276
34370W        W97929  36.563  30.483   0.377
34371W        W97930  35.412  13.331   0.784
34372W        W97931  14.720  34.592   3.198
34373W        W97932  16.752  42.984   1.278
34374W        W97933  41.320  19.559  11.111
34375W        W97934  33.115  25.701  11.859
34376W        W97935   3.338  17.121  13.047
34377W        W97936  25.690  17.592  12.358
34378W        W97937  15.325  31.982   2.675
34379W        W97938  21.604  16.134  13.415
34380W        W97939  23.190   8.686   5.107
34381W        W97940  23.736  17.231  14.470
34382W        W97941  31.507  40.955  14.799
34383W        W97942  17.181  43.870   4.717
34384W        W97943  17.648   3.416   1.908
34385W        W97944   6.777   8.765  11.089
34386W        W97945   8.752   6.197   0.841
34387W        W97946  28.487   7.372   1.751
34388W        W97947  29.448  31.597   3.233
34389W        W97948  31.905  20.197   3.235
34390W        W97949   1.335   0.456   3.265
34391W        W97950  13.285   9.303   2.349
34392W        W97951   2.387  28.497  11.472
34393W        W97952  19.064  15.777   0.873
34394W        W97953  36.487   7.723   1.340
34395W        W97954  33.936   7.192   4.159
34396W        W97955   1.810  31.435   4.190
34397W        W97956  33.021  21.563   3.345
34398W        W97957  25.986  15.823  14.005
34399W        W97958  11.753   2.954  14.897
34400W        W97959  28.146   7.203  12.027
34401W        W97960  26.625  31.613  13.018
34402W        W97961  41.525   8.385  13.428
34403W        W97962  20.762  13.188   1.711
34404W        W97963  10.713  42.801  11.467
34405W        W97964   3.441  44.391  13.385
34406W        W97965  25.112  27.489  13.501
34407W        W97966  29.555  18.077  14.863
34408W        W97967   6.225  43.449   2.808
34409W        W97968  35.942  30.103  11.527
34410W        W97969  13.306   4.709   1.431
34411W        W97970   0.787  27.552   4.638
34412W        W97971  41.913   3.450  11.044
34413W        W97972  18.646   3.919  10.531
34414W        W97973  30.619  25.500  10.561
34415W        W97974  13.163  11.171   3.757
34416W        W97975  38.950  11.163  14.454
34417W        W97976  37.522   7.380   0.407
34418W        W97977  27.530  22.036  13.913
34419W        W97978  34.977  13.148   4.343
34420W        W97979  29.535  20.260  13.518
34421W        W97980  36.563   4.748  11.460
34422W        W97981  29.448   7.670  14.381
34423W        W97982  17.700  42.384  13.368
34424W        W97983  13.197  31.462   2.781
34425W        W97984  43.379  29.157  14.499
34426W        W97985  39.374  14.751   2.693
34427W        W97986   5.836   2.361   0.305
34428W        W97987   0.790  37.938  13.431
34429W        W97988  30.098  42.874  13.469
34430W        W97989  15.678   4.875   0.481
34431W        W97990  34.455  26.602   1.867
34432W        W97991  32.990  32.885   0.881
34433W        W97992   5.767  18.181  13.911
34434W        W97993  27.660   2.830   2.885
34435W        W97994   7.736  13.296   9.983
34436W        W97995  37.844  13.650   4.684
34437W        W97996  32.526  28.677   3.758
34438W        W97997  22.734  23.540   2.830
34439W        W97998  39.416  30.524   0.348
34440W        W97999  39.490   0.266  12.570
34441W        W98000  44.448  16.582  10.920
34442W        W98001  13.154   3.406   9.954
34443W        W98002  22.219  39.352   2.290
34444W        W98003  27.537  28.446  13.873
34445W        W98004  24.588  20.108  12.567
34446W        W98005  34.377  40.353  10.514
34447W        W98006  24.090  15.720   5.294
34448W        W98007  29.448  12.740  11.462
34449W        W98008  22.737   8.391  14.368
34450W        W98009   1.306  34.494   4.285
34451W        W98010  36.571  43.969  14.354
34452W        W98011  43.358   2.456   4.219
34453W        W98012  36.555  20.613  14.417
34454W        W98013  21.699  28.663   3.199
34455W        W98014  25.668   5.848   0.333
34456W        W98015  26.569   7.800   3.798
34457W        W98016  29.572  35.083  12.341
34458W        W98017  32.429  14.764   4.831
34459W        W98018  37.556  40.971   4.265
34460W        W98019  13.268  30.536  10.600
34461W        W98020  23.583  10.255  10.888
34462W        W98021  41.937   1.940   4.780
34463W        W98022  43.908  38.334  13.965
34464W        W98023   8.669  37.343   2.756
34465W        W98024  24.210  32.993   1.224
34466W        W98025  32.952  39.010  13.826
34467W        W98026   5.912  10.335  12.472
34468W        W98027   9.778  19.075   1.745
34469W        W98028  40.943   5.880  14.019
34470W        W98029   5.253  13.814   2.866
34471W        W98030  30.596  11.622  10.567
34472W        W98031  39.494  27.570  13.321
34473W        W98032   2.338  40.418  13.352
34474W        W98033   2.256  36.896   2.774
34475W        W98034  36.478  38.050   0.760
34476W        W98035  41.513   7.695   1.873
34477W        W98036  25.551  14.333   0.277
34478W        W98037  17.255  43.506   3.383
34479W        W98038  35.540  29.021  12.386
34480W        W98039  11.719  39.969  12.084
34481W        W98040  31.594  17.092  14.929
34482W        W98041   1.840  10.365   2.269
34483W        W98042  15.820   1.806   4.649
34484W        W98043  15.747  25.688   4.735
34485W        W98044   5.849  41.025   2.305
34486W        W98045   8.765  24.637  14.960
34487W        W98046  43.488  40.962  11.021
34488W        W98047  38.503  17.689  14.390
34489W        W98048   6.186   5.690   3.302
34490W        W98049  16.236  28.594   2.819
34491W        W98050   8.337  28.581  13.016
34492W        W98051  26.639  21.249   4.221
34493W        W98052   2.903  14.224   4.183
34494W        W98053  23.554   1.307   2.749
34495W        W98054   1.303  19.558   1.750
34496W        W98055  39.410  25.006   3.770
34497W        W98056  32.486  38.457   4.119
34498W        W98057  31.077  42.457  10.911
34499W        W98058  18.698  44.885  12.446
34500W        W98059  31.065  33.425   3.820
34501W        W98060  41.341  17.592   1.817
34502W        W98061   6.320  20.140  12.827
34503W        W98062   0.744  15.779   0.966
34504W        W98063  36.394  38.392   2.394
34505W        W98064  30.029  11.772  10.985
34506W        W98065  14.185  18.164  13.438
34507W        W98066  41.919  42.942  12.027
34508W        W98067  27.583  24.178  13.347
34509W        W98068  25.047  27.161  11.541
34510W        W98069   8.696  17.299  13.337
34511W        W98070  27.523   2.812   2.369
34512W        W98071  26.553   8.197   3.831
34513W        W98072  20.737  18.707  13.504
34514W        W98073  42.009  22.122   3.786
34515W        W98074  15.265  25.574   3.706
34516W        W98075   4.811   9.306   9.931
34517W        W98076  25.050   4.847  10.921
34518W        W98077  43.393   2.271   0.412
34519W        W98078   2.414  30.501   4.139
34520W        W98079  43.392  40.501  13.868
34521W        W98080  29.104  26.166   3.818
34522W        W98081  33.004  40.957  12.052
34523W        W98082  26.148   9.728   1.403
34524W        W98083   3.812  21.632   0.812
34525W        W98084  23.722  12.296   3.304
34526W        W98085  33.958  19.093   3.727
34527W        W98086   2.767  30.152   0.741
34528W        W98087  20.175  43.423   4.157
34529W        W98088   3.379  41.404   2.674
34530W        W98089  36.352  35.394   3.350
34531W        W98090  13.339   2.901  14.992
34532W        W98091  25.050  37.858  14.383
34533W        W98092  15.301  20.724   0.799
34534W        W98093  18.131  34.884   0.962
34535W        W98094   3.837  29.072   2.693
34536W        W98095  35.872  38.034  13.476
34537W        W98096  11.130  26.168   2.349
34538W        W98097   4.723  35.444   1.264
34539W        W98098  20.754   4.929  11.974
34540W        W98099  22.670  16.695  14.369
34541W        W98100   9.342  10.261   3.869
34542W        W98101  44.992  31.546   4.645
34543W        W98102  18.573  25.602   0.313
34544W        W98103  13.801  37.420  11.971
34545W        W98104  16.724   2.744   1.783
34546W        W98105  30.526  17.074   2.693
34547W        W98106  18.745  15.284   3.372
34548W        W98107  13.730  43.373  14.414
34549W        W98108  28.535  39.026  10.889
34550W        W98109   2.467  37.973  12.899
34551W        W98110   9.358   6.883   3.365
34552W        W98111  28.557  11.253  11.977
34553W        W98112   5.254   3.433   5.274
34554W        W98113   2.779  22.507   1.779
34555W        W98114  32.555  43.327  10.628
34556W        W98115  10.146  32.599   4.687
34557W        W98116   6.195   8.301  12.897
34558W        W98117  10.374  16.580  13.939
34559W        W98118   0.328  37.932  10.474
34560W        W98119  11.861  35.536  11.045
34561W        W98120  23.703  31.905   1.931
34562W        W98121  39.926  44.409   0.397
34563W        W98122   4.737   3.323   4.177
34564W        W98123   9.741  13.331  14.440
34565W        W98124   9.176  43.888  11.093
34566W        W98125  13.650  21.184  12.043
34567W        W98126  22.082  26.020  10.436
34568W        W98127  30.659  39.524  12.484
34569W        W98128  28.060  20.040  14.282
34570W        W98129   3.937  17.168   4.677
34571W        W98130  14.244   5.736   2.183
34572W        W98131  36.559  11.304  14.284
34573W        W98132  23.997  24.156  12.496
34574W        W98133  17.070  12.281   3.675
34575W        W98134   6.383   9.293  12.828
34576W        W98135  23.058   3.788   2.681
34577W        W98136  43.856  20.219   1.394
34578W        W98137  39.820  38.337  12.437
34579W        W98138  42.462   0.388  11.492
34580W        W98139  43.839  22.129   3.670
34581W        W98140   4.812   1.413  14.902
34582W        W98141  23.062  15.207  10.935
34583W        W98142   2.891   5.773   2.739
34584W        W98143  30.014  43.984  11.381
34585W        W98144  14.606   9.678   3.647
34586W        W98145  16.628  15.635  11.442
34587W        W98146   3.947   1.347  14.295
34588W        W98147  28.981  17.693  12.867
34589W        W98148   5.765   1.750  14.332
34590W        W98149  35.016  36.514  12.988
34591W        W98150  28.591  44.827   1.725
34592W        W98151  28.623  40.504  10.416
34593W        W98152  40.029  20.155  13.348
34594W        W98153  31.546  27.610  13.951
34595W        W98154  11.214   7.392   4.787
34596W        W98155  32.546  15.644  11.952
34597W        W98156  34.424  37.015   4.695
34598W        W98157  13.838  32.081   2.880
34599W        W98158  18.572  37.997  10.573
34600W        W98159  38.991  30.482  13.051
34601W        W98160   2.734  32.946   1.380
34602W        W98161  37.374  30.506  14.401
34603W        W98162  44.305   8.680  14.850
34604W        W98163  19.637   0.399   1.243
34605W        W98164  25.552  44.292  13.335
34606W        W98165  30.526  10.304  13.406
34607W        W98166  32.515  32.015  11.051
34608W        W98167  29.644   6.403   3.294
34609W        W98168  25.530  29.584   3.749
34610W        W98169  14.671  15.762   3.672
34611W        W98170  29.583  34.459   4.673
34612W        W98171  39.456   6.801   2.283
34613W        W98172  24.976  12.297   4.227
34614W        W98173   0.265  36.561  14.873
34615W        W98174  42.960  42.360   4.161
34616W        W98175  25.065  30.417   4.693
34617W        W98176  34.590   0.933   2.800
34618W        W98177  11.210   4.341  14.962
34619W        W98178  35.564  19.682   4.302
34620W        W98179  43.952  39.366   4.789
34621W        W98180  30.443  39.455   2.768
34622W        W98181  15.671   5.866   3.349
34623W        W98182  31.920  44.987  13.528
34624W        W98183   7.269  40.415   0.400
34625W        W98184  36.047  19.576   1.290
34626W        W98185  27.970  26.690   1.924
34627W        W98186  34.011  28.657  12.368
34628W        W98187  15.812  44.495   3.822
34629W        W98188  18.767  29.144   4.275
34630W        W98189   8.852   5.920  13.968
34631W        W98190   1.457  30.123   1.290
34632W        W98191  24.572  11.209  12.071
34633W        W98192   6.867   6.763   4.777
34634W        W98193  24.630  30.573  11.522
34635W        W98194   2.237  25.564  14.897
34636W        W98195   6.696  20.120  11.374
34637W        W98196  44.824  32.962   2.792
34638W        W98197  28.593  40.487  12.348
34639W        W98198  44.332  17.108   2.853
34640W        W98199  16.102   6.922   2.330
34641W        W98200  40.475  18.578  13.886
34642W        W98201  31.619  13.190  12.342
34643W        W98202   8.363  10.196  13.955
34644W        W98203   9.888   7.264  12.992
34645W        W98204  35.458   1.394  10.624
34646W        W98205   0.458  19.049  10.522
34647W        W98206   7.881  26.626  12.910
34648W        W98207   8.687   8.391  13.813
34649W        W98208  33.410  34.508   3.762
34650W        W98209  16.674  29.638  13.463
34651W        W98210  42.320  13.144   2.688
34652W        W98211   6.837  10.728  14.369
34653W        W98212   2.467  40.797   0.866
34654W        W98213  34.387  11.167   0.465
34655W        W98214   8.747  22.554  13.338
34656W        W98215  12.831   3.813  10.892
34657W        W98216  44.778   8.732  14.957
34658W        W98217  37.531  39.457   3.761
34659W        W98218  44.438  31.906  11.019
34660W        W98219  14.242   9.375  11.944
34661W        W98220  19.626  14.193  13.399
34662W        W98221   8.673   1.938   0.250
34663W        W98222   2.765  17.090  12.071
34664W        W98223  27.453   8.655   3.759
34665W        W98224  32.400  30.119  11.948
34666W        W98225   5.863  18.700   0.875
34667W        W98226  18.778  23.546   3.263
34668W        W98227  26.164  41.406  11.955
34669W        W98228  41.435  26.013   2.414
34670W        W98229  24.566  14.811  13.548
34671W        W98230  14.212  39.469   3.862
34672W        W98231  31.931  35.604   2.777
34673W        W98232   3.356  39.986   4.124
34674W        W98233  23.069  40.325   3.314
34675W        W98234  29.531  10.638  14.875
34676W        W98235  41.483  12.179   1.451
34677W        W98236  16.142  10.776   4.331
34678W        W98237  26.522  26.032  13.805
34679W        W98238  25.708  15.317  11.592
34680W        W98239  29.175  31.411  14.853
34681W        W98240  27.978  38.513  14.919
34682W        W98241  12.614  18.237   2.382
34683W        W98242  10.364  19.146  14.853
34684W        W98243  12.626  28.611   2.773
34685W        W98244   0.745  39.339   3.276
34686W        W98245  18.728  10.330  10.078
34687W        W98246  23.120  27.167  10.440
34688W        W98247  27.148  13.244   3.636
34689W        W98248   7.693  36.087  11.983
34690W        W98249  25.622   8.391  10.951
34691W        W98250  16.297   8.183  12.423
34692W        W98251  12.219  21.558   3.353
34693W        W98252   0.817  17.090   0.825
34694W        W98253   5.872  26.106  13.444
34695W        W98254  39.519  13.257  13.514
34696W        W98255  22.107  32.415   0.476
34697W        W98256   9.300  25.516  14.460
34698W        W98257  16.251  24.570   0.287
34699W        W98258  37.044  34.421  14.770
34700W        W98259  35.377  13.347  14.494
34701W        W98260  19.147  37.505   2.852
34702W        W98261  10.151  40.349   5.181
34703W        W98262   7.227   9.804  12.979
34704W        W98263  43.878   6.865   4.306
34705W        W98264  39.359  29.549   4.634
34706W        W98265  39.499  15.673  14.878
34707W        W98266   4.332  11.638  13.943
34708W        W98267  37.912  29.571  11.857
34709W        W98268   7.259   8.181   0.473
34710W        W98269   3.793  10.360  13.476
34711W        W98270  14.246   4.331  13.972
34712W        W98271   2.445  11.717   4.298
34713W        W98272  37.929  37.357   0.949
34714W        W98273  21.097  40.919   3.798
34715W        W98274   0.809  12.358   4.708
34716W        W98275  37.509  26.125   1.917
34717W        W98276  35.884  40.868  14.893
34718W        W98277  21.689  24.175  11.092
34719W        W98278   8.680  33.478  10.524
34720W        W98279  18.059   0.909   0.360
34721W        W98280  37.430  30.417   1.428
34722W        W98281  40.464   1.459   2.411
34723W        W98282  35.867  39.336  11.420
34724W        W98283  20.036   3.447   1.291
34725W        W98284  28.479   5.701   4.606
34726W        W98285  26.578  43.764  13.470
34727W        W98286  20.577   5.694  14.508
34728W        W98287  38.971  19.124  10.917
34729W        W98288  22.178  35.908   4.290
34730W        W98289  19.069  14.121  12.552
34731W        W98290  44.816  14.829  11.067
34732W        W98291   3.385  30.016   4.234
34733W        W98292   6.680  16.309   1.827
34734W        W98293   4.728  31.493   4.685
34735W        W98294  44.808  17.717  10.467
34736W        W98295  28.657  43.326  13.856
34737W        W98296  10.307  26.644   1.820
34738W        W98297  13.204  33.486  13.926
34739W        W98298  30.973  43.007   0.880
34740W        W98299  18.082  28.961   3.353
34741W        W98300  14.109  33.554  14.990
34742W        W98301   6.240   1.940  10.538
34743W        W98302  18.289  15.136  10.432
34744W        W98303  25.517  24.027   4.599
34745W        W98304  11.260  40.006   2.366
34746W        W98305   8.364  34.555   0.254
34747W        W98306  34.955  28.610   4.698
34748W        W98307  17.753  19.096  13.823
34749W        W98308   7.795   9.254  12.082
34750W        W98309  22.025  40.526   1.373
34751W        W98310  10.198  38.365   3.180
34752W        W98311   3.424  25.122  14.508
34753W        W98312   7.356  19.202  12.897
34754W        W98313   7.308   3.354  11.461
34755W        W98314  23.225   0.769  14.289
34756W        W98315  11.288  16.306   0.264
34757W        W98316   1.445  38.978   2.812
34758W        W98317   3.841  25.974   3.803
34759W        W98318   4.329  26.633   3.782
34760W        W98319  23.218  25.524   3.223
34761W        W98320  28.973  12.675   4.287
34762W        W98321  10.701  36.897   4.354
34763W        W98322  10.643  20.042   1.413
34764W        W98323  15.772  38.053   2.847
34765W        W98324  14.306  33.025   1.349
34766W        W98325   9.290  22.040  12.438
34767W        W98326  37.579  23.097  12.865
34768W        W98327  30.914  34.110   2.234
34769W        W98328  35.393  19.668  14.877
34770W        W98329  37.952  24.713  14.439
34771W        W98330  40.429  13.160  13.009
34772W        W98331  24.493  22.168   2.332
34773W        W98332  24.482   1.436  11.955
34774W        W98333   1.374  36.972  13.924
34775W        W98334  23.045  28.585  13.531
34776W        W98335  32.419  38.565  12.992
34777W        W98336  34.939  11.331   2.213
34778W        W98337  19.042  39.039   1.839
34779W        W98338  16.710   1.932  13.456
34780W        W98339  43.342  38.030   0.452
34781W        W98340  38.980   9.198   1.247
34782W        W98341  16.762  10.666   2.847
34783W        W98342   1.964  21.096  14.837
34784W        W98343  35.464  10.326  11.587
34785W        W98344  32.051  37.406   2.683
34786W        W98345  19.638  29.561   3.261
34787W        W98346  36.537  25.567  11.882
34788W        W98347  37.082  25.073   4.723
34789W        W98348  23.214  26.963  13.826
34790W        W98349  24.982   6.358   1.807
34791W        W98350   4.380  13.146   0.358
34792W        W98351  24.665  16.188   4.800
34793W        W98352  27.547  44.471   2.799
34794W        W98353  41.417  43.806  11.577
34795W        W98354  15.120  38.333   0.788
34796W        W98355  27.554  31.050  13.965
34797W        W98356   7.772  14.315   4.209
34798W        W98357  24.587  41.036  14.918
34799W        W98358  13.614  31.568  12.504
34800W        W98359  40.460  30.036  10.535
34801W        W98360  35.529  27.118  10.565
34802W        W98361   4.284   8.285   4.656
34803W        W98362  43.381  40.530  11.100
34804W        W98363  19.279   5.694  11.952
34805W        W98364  25.001  28.541   2.312
34806W        W98365   0.823  38.357  12.359
34807W        W98366  25.059  32.929  13.952
34808W        W98367   4.230  40.981   2.816
34809W        W98368  30.622  40.446  11.581
34810W        W98369  15.239  25.128  10.486
34811W        W98370  19.535   4.827   4.271
34812W        W98371  17.161   7.786  14.309
34813W        W98372  27.550  37.057   1.843
34814W        W98373  16.589  13.280  10.518
34815W        W98374  38.048   0.436   0.348
34816W        W98375  33.103   5.245   1.870
34817W        W98376  19.610  10.694  12.927
34818W        W98377   1.477  12.177   2.723
34819W        W98378   7.297  35.006   4.337
34820W        W98379   5.333  16.709   4.795
34821W        W98380  32.140  37.475   9.594
34822W        W98381  29.474  19.565   0.732
34823W        W98382   0.291  30.033  14.474
34824W        W98383  11.632  27.977   5.291
34825W        W98384  35.067  15.317   2.314
34826W        W98385  42.482   8.260   4.689
34827W        W98386  30.115  17.768  12.917
34828W        W98387  40.506  17.777  13.437
34829W        W98388  13.714   2.415  12.421
34830W        W98389  14.760  34.092   2.398
34831W        W98390   9.822  25.983  14.409
34832W        W98391   7.368  12.797  13.806
34833W        W98392   1.320  14.644   2.710
34834W        W98393   6.759  35.414   2.226
34835W        W98394  25.613  29.477   1.425
34836W        W98395  39.959  42.456   4.136
34837W        W98396  39.478  25.509  11.471
34838W        W98397  24.155  24.601   3.384
34839W        W98398  41.471  44.396  11.880
34840W        W98399  36.539  44.839   4.667
34841W        W98400  31.049  39.006  11.952
34842W        W98401  28.664  30.481   1.919
34843W        W98402  28.041  44.949  12.039
34844W        W98403  24.616  28.661   2.842
34845W        W98404  22.050  32.585  10.501
34846W        W98405  39.316  37.462   3.287
34847W        W98406  44.900  26.475  11.097
34848W        W98407  40.037  19.056   3.358
34849W        W98408  44.831  14.769  14.405
34850W        W98409  26.062  22.688   3.724
34851W        W98410  20.656  39.059  14.838
34852W        W98411  39.523   2.900  12.552
34853W        W98412   7.889  33.031   0.893
34854W        W98413  12.224  14.796  11.460
34855W        W98414   2.405  23.621   3.772
34856W        W98415  38.876   7.757  10.486
34857W        W98416  31.601  10.269   1.731
34858W        W98417  41.804  15.773  11.897
34859W        W98418  27.974  28.604   2.260
34860W        W98419  41.489  40.028  11.883
34861W        W98420  20.560   5.205  12.922
34862W        W98421  43.361   9.704   3.679
34863W        W98422  17.257  14.140   1.879
34864W        W98423  14.607  34.118  13.384
34865W        W98424  23.181  20.150  11.090
34866W        W98425  25.199  14.266   3.291
34867W        W98426  30.095  16.616  14.777
34868W        W98427  34.039  42.798   1.862
34869W        W98428  37.463  14.755  11.607
34870W        W98429  14.315   5.305   1.860
34871W        W98430  15.201  13.179   3.372
34872W        W98431   4.857   8.179   4.688
34873W        W98432  11.248  38.410  12.374
34874W        W98433  25.698  26.622  12.488
34875W        W98434   5.768  32.462  10.933
34876W        W98435   1.261  17.240   1.796
34877W        W98436   7.215  24.688   3.719
34878W        W98437  27.069  31.459   4.240
34879W        W98438  15.212  12.199  14.846
34880W        W98439   1.477  31.977  14.282
34881W        W98440   6.833  17.279   3.821
34882W        W98441  10.283   1.856  14.766
34883W        W98442  43.300  11.363   1.710
34884W        W98443  41.474  29.650  12.538
34885W        W98444   6.422  26.158   4.116
34886W        W98445  44.978  25.606   3.808
34887W        W98446   3.277  35.094   3.706
34888W        W98447  35.885  21.596   2.713
34889W        W98448  32.978  24.178  14.825
34890W        W98449  13.169  34.425   4.179
34891W        W98450  33.502  19.243  14.481
34892W        W98451   4.860  33.125  12.962
34893W        W98452  34.464  22.684   4.641
34894W        W98453  13.117   7.207  10.953
34895W        W98454  28.664  19.654  11.008
34896W        W98455  28.156  34.409   0.416
34897W        W98456   3.315   2.381   2.792
34898W        W98457  37.974   7.788   2.689
34899W        W98458  43.503  39.361   1.362
34900W        W98459  25.527  13.688   2.290
34901W        W98460  15.149   8.221   3.338
34902W        W98461  36.984   2.957   3.828
34903W        W98462  43.470  24.506   4.290
34904W        W98463  19.053  19.259  14.817
34905W        W98464  39.904   5.883  13.908
34906W        W98465   2.910  40.996  12.389
34907W        W98466  10.144  34.891  14.884
34908W        W98467   4.276  39.426  14.829
34909W        W98468  33.578  26.046   0.889
34910W        W98469  23.131  10.354  11.515
34911W        W98470  20.633   1.418  13.478
34912W        W98471  21.593  38.907  12.044
34913W        W98472  13.175  30.036  11.593
34914W        W98473   6.861  39.330  10.561
34915W        W98474  19.763  13.617  11.452
34916W        W98475  36.374  37.508   2.326
34917W        W98476  33.119   1.843   1.826
34918W        W98477  17.785  40.451  13.967
34919W        W98478  38.485  40.443   2.234
34920W        W98479  20.240  16.090  14.373
34921W        W98480  14.298  32.908   0.396
34922W        W98481  32.956  43.775   2.770
34923W        W98482  29.511  43.313   4.621
34924W        W98483  25.698  17.627  13.008
34925W        W98484  41.359   7.329  14.783
34926W        W98485  33.462  16.700  14.959
34927W        W98486  41.870  43.013  10.610
34928W        W98487  17.753  22.537   3.376
34929W        W98488  29.603  23.183   3.322
34930W        W98489   3.303  32.934   2.859
34931W        W98490  39.455  33.128  11.050
34932W        W98491   5.324   7.217  13.335
34933W        W98492   3.952  24.675  11.439
34934W        W98493   9.173  18.109   3.215
34935W        W98494   3.431  36.922  14.440
34936W        W98495  16.582  27.514   0.884
34937W        W98496  42.892  21.644   0.759
34938W        W98497  29.458  36.502   2.330
34939W        W98498  34.383  23.091  13.936
34940W        W98499   9.812  37.515  12.059
34941W        W98500  13.160   4.290   4.310
34942W        W98501  10.197   3.774  12.380
34943W        W98502  17.088  11.702  13.816
34944W        W98503  26.505  26.589   1.292
34945W        W98504   3.350   3.952  10.998
34946W        W98505  30.012  17.676   0.423
34947W        W98506  38.951   5.836  12.580
34948W        W98507  36.507   0.968   4.115
34949W        W98508  27.489   8.710  11.554
34950W        W98509   7.715  35.480   1.758
34951W        W98510  28.046  43.318  14.293
34952W        W98511   0.967  27.050   0.842
34953W        W98512  38.933  36.857  11.460
34954W        W98513   6.772  27.642   3.291
34955W        W98514  42.787  33.968   0.754
34956W        W98515   4.750  26.091  14.496
34957W        W98516  42.431  18.720   4.208
34958W        W98517  28.066  27.527  13.959
34959W        W98518   8.385  19.580   4.195
34960W        W98519   8.743  30.543  10.627
34961W        W98520  19.245  41.418   2.683
34962W        W98521  44.789  19.246  12.468
34963W        W98522  31.097  43.493  13.537
34964W        W98523   0.474  16.654   3.326
34965W        W98524  23.038  14.811  11.521
34966W        W98525   8.812  30.595  13.925
34967W        W98526  10.294   4.403  14.475
34968W        W98527  20.109  19.701  11.910
34969W        W98528   5.358  30.964   3.850
34970W        W98529   5.697  26.143  13.828
34971W        W98530  39.051  27.083   3.342
34972W        W98531  10.751  43.310   4.147
34973W        W98532  40.878  10.875   3.251
34974W        W98533  10.307  33.433   2.809
34975W        W98534   4.352  12.628  14.500
34976W        W98535  17.200  36.901  13.998
34977W        W98536   5.864  27.496   0.328
34978W        W98537  31.637  26.592  14.955
34979W        W98538  38.981  14.266  14.409
34980W        W98539  36.014   7.383   0.921
34981W        W98540  24.198   7.288   0.454
34982W        W98541   7.866  22.245   3.838
34983W        W98542  28.086  43.486  13.915
34984W        W98543   5.339  21.732  11.872
34985W        W98544  22.645  14.294  12.058
34986W        W98545  21.183  33.506   1.882
34987W        W98546  41.924  21.031  10.543
34988W        W98547  36.423  21.551  11.091
34989W        W98548  17.267  16.715   2.840
34990W        W98549   6.704  24.089   2.360
34991W        W98550  12.287  33.084  10.497
34992W        W98551  15.648   9.730   3.287
34993W        W98552  21.540  17.146   1.877
34994W        W98553  41.821  24.976   2.775
34995W        W98554   9.359  16.739  11.432
34996W        W98555  40.983  17.248  12.993
34997W        W98556  38.948  19.236  10.119
34998W        W98557   9.739  20.678  14.858
34999W        W98558  16.213  14.787   4.828
35000W        W98559  16.191  20.662  12.904
35001W        W98560  23.008  24.607  14.360
35002W        W98561   9.192   3.315  10.435
35003W        W98562  38.932  20.668   2.677
35004W        W98563   1.797  44.830   0.467
35005W        W98564  16.237  39.978  11.977
35006W        W98565   7.863   9.368  10.913
35007W        W98566  31.425  16.770  13.499
35008W        W98567   0.482  36.881   1.774
35009W        W98568  15.236  15.784   9.923
35010W        W98569  10.662  22.188  10.636
35011W        W98570  23.173  42.851   4.278
35012W        W98571  11.734  40.346   2.314
35013W        W98572  18.700  22.521   2.831
35014W        W98573  43.986  43.309  12.835
35015W        W98574  31.625  41.504   5.142
35016W        W98575  33.083   0.336  12.371
35017W        W98576  20.229  29.952  13.496
35018W        W98577  23.171  26.041   1.806
35019W        W98578  11.361  44.498  13.341
35020W        W98579  41.865   2.335  13.951
35021W        W98580  12.160   1.825  11.973
35022W        W98581  30.543  15.586  13.966
35023W        W98582  39.418   6.820   4.348
35024W        W98583   7.772  22.614   0.345
35025W        W98584  12.183  34.559  14.462
35026W        W98585  41.974  25.200   0.811
35027W        W98586  39.375  35.600   1.710
35028W        W98587  25.017  19.752  11.581
35029W        W98588  12.686  27.153  10.491
35030W        W98589  33.032  21.262  13.987
35031W        W98590  40.494   2.830  10.445
35032W        W98591   9.841  21.519  13.393
35033W        W98592  43.309  44.884  12.986
35034W        W98593  21.159  26.671  13.955
35035W        W98594   2.936  37.574  13.365
35036W        W98595  36.498   9.742   4.224
35037W        W98596  15.095  42.421   2.220
35038W        W98597  38.022  14.768   4.748
35039W        W98598  39.490  18.545  10.506
35040W        W98599  31.975  16.090   3.303
35041W        W98600  21.070  29.968   4.236
35042W        W98601  12.246   0.429  12.419
35043W        W98602  42.005   3.881  10.564
35044W        W98603  37.984  24.652  14.005
35045W        W98604  22.183  31.976   3.630
35046W        W98605  35.577  28.968  14.474
35047W        W98606  34.544  34.411  14.817
35048W        W98607  26.499   2.810   2.774
35049W        W98608   6.811  13.201   1.782
35050W        W98609  31.588  38.423   1.825
35051W        W98610  39.488  26.164   1.368
35052W        W98611   5.283  18.203   3.635
35053W        W98612  18.725  35.924   3.768
35054W        W98613  34.443  29.062  12.361
35055W        W98614  41.002   9.761   0.336
35056W        W98615  39.541  33.879  13.837
35057W        W98616  38.349  37.458   3.285
35058W        W98617  19.655  41.449  12.083
35059W        W98618   0.854  18.599  12.008
35060W        W98619  13.773   8.224   1.835
35061W        W98620   2.892  41.812   2.185
35062W        W98621  21.145  31.146   0.869
35063W        W98622  29.471  14.101  10.944
35064W        W98623  44.465  42.282   2.396
35065W        W98624  31.438  33.600  10.986
35066W        W98625  17.569  35.920  12.013
35067W        W98626  40.883  35.995   4.180
35068W        W98627   3.278  22.185   1.425
35069W        W98628  25.500  22.064   3.179
35070W        W98629  35.474  38.928  12.348
35071W        W98630  10.748  44.283  12.889
35072W        W98631  34.941  30.433   1.843
35073W        W98632  38.510  24.689   0.758
35074W        W98633  32.074  41.013   2.251
35075W        W98634  35.371  22.582  12.042
35076W        W98635  29.518  22.554   1.694
35077W        W98636  27.020  41.460   2.773
35078W        W98637  20.181  40.335   0.870
35079W        W98638  30.088  30.484   3.776
35080W        W98639  43.922  29.485   4.811
35081W        W98640  35.907   7.357  13.474
35082W        W98641   7.829  12.730   1.409
35083W        W98642  41.443  17.125   1.392
35084W        W98643   2.247  35.584   3.667
35085W        W98644  21.612  28.608  10.990
35086W        W98645  18.069  39.322   3.731
35087W        W98646  36.888  19.273  13.347
35088W        W98647   7.384  26.643  13.449
35089W        W98648   6.388  23.504  13.047
35090W        W98649  37.352   6.374   4.711
35091W        W98650  37.079   0.312  11.389
35092W        W98651  13.232  23.685   0.899
35093W        W98652  12.252   2.855  13.523
35094W        W98653  41.368  16.642  10.979
35095W        W98654  37.554  24.707   3.156
35096W        W98655  44.282  10.737  10.517
35097W        W98656   4.275  13.798   3.211
35098W        W98657  32.425  13.733  14.382
35099W        W98658  21.523  26.163   4.347
35100W        W98659  36.397  28.548  10.594
35101W        W98660  32.133  20.270   1.806
35102W        W98661   1.305   8.162   2.264
35103W        W98662  19.628  22.252   3.384
35104W        W98663  10.317  15.731   4.791
35105W        W98664  38.431   5.199   2.254
35106W        W98665  25.201  23.057   1.374
35107W        W98666  13.835  25.663  14.939
35108W        W98667  24.642  23.562   1.441
35109W        W98668   6.191  30.631  13.052
35110W        W98669  17.192   9.242   2.682
35111W        W98670  24.090   1.895  14.876
35112W        W98671  11.149   9.714  13.950
35113W        W98672  40.973   3.258  14.357
35114W        W98673  12.144  44.856   1.237
35115W        W98674   2.254   9.675  12.920
35116W        W98675  24.089  43.317   1.411
35117W        W98676  12.263  28.108   2.729
35118W        W98677   3.275  10.156  11.965
35119W        W98678  28.512  32.617  12.975
35120W        W98679  28.542  17.722  10.454
35121W        W98680  34.042  23.588   0.474
35122W        W98681  44.942  35.358  13.807
35123W        W98682  39.981   6.858   2.662
35124W        W98683   3.289  14.759  13.986
35125W        W98684  17.758   6.236  13.843
35126W        W98685  30.586  24.209  12.994
35127W        W98686   0.920  35.096  14.336
35128W        W98687  28.011  14.334   1.737
35129W        W98688  14.689  38.022   1.833
35130W        W98689  16.589   3.728   1.237
35131W        W98690   6.363  26.514  10.980
35132W        W98691  42.340  21.664   0.454
35133W        W98692  19.055  18.135  14.008
35134W        W98693   3.770   0.486  12.381
35135W        W98694  25.702  15.200   1.278
35136W        W98695  33.914   0.796   0.832
35137W        W98696  42.823  29.146   1.268
35138W        W98697   6.845   1.328  12.466
35139W        W98698  41.359   8.272  12.418
35140W        W98699  30.577  31.138  13.945
35141W        W98700  23.605  26.703  14.380
35142W        W98701  33.919  11.782   3.733
35143W        W98702  42.010  28.018  10.968
35144W        W98703  29.026  39.550   4.760
35145W        W98704   5.418  23.653  13.029
35146W        W98705  15.277   1.770  14.327
35147W        W98706  24.594  44.937  11.053
35148W        W98707  36.860  44.440   4.286
35149W        W98708  30.049  11.221  13.466
35150W        W98709  44.431  12.795  14.994
35151W        W98710  38.008  39.038  10.618
35152W        W98711  35.044  13.703  11.402
35153W        W98712   7.363  25.613  10.627
35154W        W98713  36.072  36.008   4.209
35155W        W98714  43.515  28.067   3.152
35156W        W98715  16.133   4.826  14.765
35157W        W98716  21.056  36.579  11.093
35158W        W98717   7.754  10.139   3.862
35159W        W98718  34.078  22.672   4.199
35160W        W98719  13.760   4.348  11.431
35161W        W98720  29.132  21.568   5.112
35162W        W98721   6.199  24.076   3.720
35163W        W98722  14.222   0.985  12.829
35164W        W98723  17.573  43.974   2.280
35165W        W98724  42.377  17.560   2.313
35166W        W98725  44.842  16.095  14.858
35167W        W98726   0.914  40.840   4.330
35168W        W98727   4.734   9.714  10.583
35169W        W98728  10.200  30.062   4.148
35170W        W98729  10.197  25.612   4.786
35171W        W98730  37.374  30.934  12.378
35172W        W98731  31.582   0.942  14.922
35173W        W98732  15.297  32.979  12.945
35174W        W98733  35.860  14.620  13.343
35175W        W98734   4.928  22.675  11.425
35176W        W98735  25.644   8.212  13.817
35177W        W98736   5.227  19.598   1.423
35178W        W98737  37.381  14.628   5.169
35179W        W98738   0.917  43.787  14.804
35180W        W98739  24.708  43.501  13.995
35181W        W98740  43.458  16.662  13.351
35182W        W98741  14.832  41.956  12.856
35183W        W98742  19.676  36.464   1.851
35184W        W98743  14.722  30.098   3.664
35185W        W98744  32.515   3.866   2.217
35186W        W98745   7.750  33.902  12.879
35187W        W98746  31.600  12.252   4.260
35188W        W98747  44.991  20.120   2.343
35189W        W98748   7.797   8.376  14.992
35190W        W98749  13.226   9.738  10.411
35191W        W98750  33.968  38.439   4.134
35192W        W98751  40.812  10.728  12.445
35193W        W98752  42.330  27.591   1.747
35194W        W98753  41.916  43.846   2.247
35195W        W98754  38.570  13.778   0.474
35196W        W98755   5.318  34.497   1.424
35197W        W98756  24.535  27.095  14.791
35198W        W98757  43.366  33.050  14.371
35199W        W98758  25.604  15.116   0.859
35200W        W98759  38.460   3.370   3.747
35201W        W98760  40.984  12.827  14.884
35202W        W98761   7.360  43.276   0.799
35203W        W98762  25.566  11.654  12.558
35204W        W98763  26.484  40.489   2.368
35205W        W98764  12.773   8.672  12.071
35206W        W98765   1.316   3.897  14.334
35207W        W98766  22.124  31.929  12.363
35208W        W98767  18.296  32.569   4.285
35209W        W98768  19.224  27.474  13.915
35210W        W98769  29.642  21.218   0.856
35211W        W98770  22.694  13.284   2.317
35212W        W98771   5.425  14.713  11.443
35213W        W98772  22.138  36.014   1.326
35214W        W98773  21.536   3.383   2.806
35215W        W98774  20.096  20.152   0.297
35216W        W98775   7.270  28.461   4.698
35217W        W98776   6.789   6.258  14.821
35218W        W98777   0.437   8.365   1.262
35219W        W98778  30.460   7.683   1.283
35220W        W98779   9.367  11.178   4.811
35221W        W98780  37.556  37.369  13.460
35222W        W98781  37.385  14.609  14.383
35223W        W98782  37.010  16.723   1.284
35224W        W98783   7.376  18.569  12.016
35225W        W98784  18.262   5.353   0.294
35226W        W98785  17.678  20.065  11.952
35227W        W98786  12.153  32.113   2.238
35228W        W98787   8.356  17.252   1.371
35229W        W98788   0.805  44.856  13.547
35230W        W98789   4.848  23.539   9.986
35231W        W98790   9.849  24.708  13.435
35232W        W98791  10.141  29.135  10.981
35233W        W98792  29.099   2.820  12.372
35234W        W98793  10.344  24.715  14.493
35235W        W98794   0.421  37.986   0.260
35236W        W98795  21.221  14.312   1.921
35237W        W98796  41.409  38.501  11.913
35238W        W98797  40.842  31.633   0.967
35239W        W98798   3.461   2.818   2.374
35240W        W98799  28.957  33.513  11.495
35241W        W98800   7.175  13.770  14.024
35242W        W98801  42.820  36.937  13.835
35243W        W98802  44.850  26.976  10.543
35244W        W98803  32.462  19.695  10.998
35245W        W98804   8.357   8.699   4.732
35246W        W98805  38.919   6.268   2.837
35247W        W98806  35.492   6.840  13.482
35248W        W98807   3.351  35.106  12.916
35249W        W98808  20.132  26.079   4.122
35250W        W98809  32.128  15.287  11.952
35251W        W98810  29.045  41.459  10.930
35252W        W98811  20.694  18.272  14.910
35253W        W98812  25.575  10.671  14.800
35254W        W98813  15.107  12.826   3.296
35255W        W98814  17.802  43.506  11.098
35256W        W98815   6.387  35.565   2.849
35257W        W98816  17.164  41.925  11.411
35258W        W98817   9.691  12.677   1.771
35259W        W98818  32.022  39.442  11.969
35260W        W98819   3.376  12.750   3.725
35261W        W98820   3.934   6.207   3.735
35262W        W98821  41.850  20.173  10.504
35263W        W98822  32.011   6.337   2.853
35264W        W98823  22.679  16.605   2.876
35265W        W98824   6.713  15.642  12.094
35266W        W98825  37.418   1.884  12.443
35267W        W98826  43.404  25.214   1.405
35268W        W98827  41.327  34.880   2.334
35269W        W98828  22.745   5.319   1.417
35270W        W98829  13.662  41.327   0.452
35271W        W98830  24.038  14.658  11.512
35272W        W98831  44.259  44.981   1.314
35273W        W98832  33.003  30.586   1.432
35274W        W98833  28.037  16.791  14.900
35275W        W98834  15.196  39.525   4.672
35276W        W98835  10.301   1.760   3.772
35277W        W98836  20.634  16.632  14.306
35278W        W98837   6.770  10.329  12.054
35279W        W98838  44.925   3.820   2.897
35280W        W98839   0.466  30.619  11.923
35281W        W98840  34.402  43.301  10.952
35282W        W98841   3.330  35.001  11.509
35283W        W98842  30.492  33.410   4.668
35284W        W98843  33.397  10.702   0.815
35285W        W98844  15.114   8.366   2.360
35286W        W98845  28.469  21.698   3.637
35287W        W98846  35.854  12.136  11.963
35288W        W98847  20.726  15.261  14.507
35289W        W98848   3.357  36.454   0.827
35290W        W98849  18.255  11.796   2.702
35291W        W98850   6.329  42.495  11.412
35292W        W98851  10.775  37.935  12.340
35293W        W98852  39.013  41.034   4.315
35294W        W98853  44.290   2.335   1.410
35295W        W98854  33.083  15.294  10.527
35296W        W98855  10.714  14.718  14.484
35297W        W98856  44.945  34.477   3.173
35298W        W98857   1.922   9.787  11.042
35299W        W98858   3.444  38.488  13.911
35300W        W98859  14.599  39.416   0.376
35301W        W98860  14.740  22.737  10.568
35302W        W98861  20.194  33.006   3.641
35303W        W98862  36.502  13.281   5.083
35304W        W98863  24.200  39.850   0.481
35305W        W98864   9.340  41.870  14.312
35306W        W98865  30.045  15.183  11.517
35307W        W98866   7.203   5.284   2.213
35308W        W98867  40.920   9.786  12.075
35309W        W98868  14.323  33.422   0.909
35310W        W98869   6.215   1.780  14.919
35311W        W98870  10.866   3.276  11.089
35312W        W98871   5.255  29.962  10.987
35313W        W98872  36.349   9.793  14.003
35314W        W98873  22.718   1.389  12.536
35315W        W98874  21.734  41.856   1.816
35316W        W98875  15.326  34.479   2.815
35317W        W98876  27.550  43.314   0.816
35318W        W98877  22.634  35.945  14.918
35319W        W98878  27.102  16.654   1.264
35320W        W98879  32.017   1.299  14.436
35321W        W98880  18.778  23.986  11.515
35322W        W98881   5.436  24.605   4.648
35323W        W98882  21.215  10.244   3.848
35324W        W98883  32.569  17.663  14.765
35325W        W98884  39.007  40.907   0.883
35326W        W98885  39.982  27.137  10.417
35327W        W98886   7.370  37.075   1.339
35328W        W98887  23.147  16.677   2.901
35329W        W98888  35.000  18.703   4.161
35330W        W98889  16.584  37.916   3.247
35331W        W98890  31.933  21.725   1.926
35332W        W98891  19.225  28.951  10.585
35333W        W98892  39.327  40.503   0.455
35334W        W98893   0.759   5.760  13.347
35335W        W98894   2.330  39.407  13.458
35336W        W98895   0.298  30.126  12.923
35337W        W98896   6.678  12.120  12.447
35338W        W98897  27.691  24.175  10.031
35339W        W98898   3.935  29.551  11.053
35340W        W98899  40.328  26.622  10.499
35341W        W98900   9.363  21.088  12.470
35342W        W98901  24.485  41.330   1.222
35343W        W98902  17.099  12.615   3.203
35344W        W98903   8.238   3.817  14.512
35345W        W98904  41.020  20.630  12.824
35346W        W98905  29.922  23.521  11.920
35347W        W98906  13.661   7.879  14.932
35348W        W98907  15.618  34.478   1.430
35349W        W98908  34.406  44.879  14.422
35350W        W98909  13.703   9.706  11.575
35351W        W98910  32.584  18.222   4.144
35352W        W98911  31.507  29.445  14.423
35353W        W98912  19.221   1.316  13.957
35354W        W98913   7.803  42.029  10.636
35355W        W98914  33.597  41.986  13.344
35356W        W98915  37.468  21.659  10.495
35357W        W98916  43.494  40.368  11.447
35358W        W98917  31.131  20.531  12.396
35359W        W98918  15.659   1.342   0.421
35360W        W98919  29.175  26.563  12.860
35361W        W98920   3.853  19.221   0.276
35362W        W98921  39.424  34.976  13.312
35363W        W98922  14.697   2.306  10.452
35364W        W98923  37.360   1.830   3.350
35365W        W98924   6.875  18.614   2.200
35366W        W98925  34.442  22.541   2.356
35367W        W98926   7.378  40.845   1.904
35368W        W98927  36.881  36.854   4.196
35369W        W98928  26.997  40.925   2.794
35370W        W98929   8.853   4.728   0.467
35371W        W98930   9.367  25.110   1.434
35372W        W98931  21.594  26.167   3.380
35373W        W98932  18.068   9.699  14.920
35374W        W98933  30.426   2.424   0.283
35375W        W98934  16.243   6.853   3.769
35376W        W98935  19.568  15.730  14.009
35377W        W98936  15.627  37.969  14.282
35378W        W98937  10.325  20.162   0.952
35379W        W98938   9.311  17.786   3.749
35380W        W98939   5.898  36.867  11.950
35381W        W98940  18.163  28.102  11.988
35382W        W98941  35.989   9.200   4.793
35383W        W98942   5.268  28.558  14.807
35384W        W98943   2.908  14.606  10.563
35385W        W98944  41.974  37.082   1.441
35386W        W98945  17.174  29.486  13.822
35387W        W98946  13.284  43.275  14.928
35388W        W98947  44.973   7.710   3.794
35389W        W98948  16.740  29.495  14.933
35390W        W98949  25.129  41.487   3.709
35391W        W98950  30.125  26.508  13.438
35392W        W98951  15.325  21.182  14.765
35393W        W98952  33.405  13.812  12.534
35394W        W98953   9.314  32.906   2.885
35395W        W98954   4.262  18.200   2.759
35396W        W98955  24.988  38.383   1.310
35397W        W98956  30.602   6.735  13.808
35398W        W98957  44.342   1.894   0.936
35399W        W98958  39.840  30.028   1.785
35400W        W98959  12.681   0.431   2.192
35401W        W98960  22.571  30.621   4.251
35402W        W98961  23.576  36.406   4.307
35403W        W98962   0.938   9.699  14.031
35404W        W98963  25.522  11.670   3.287
35405W        W98964  26.575  39.463   1.316
35406W        W98965  21.690   7.403   3.259
35407W        W98966  28.493  30.614   3.726
35408W        W98967  34.966  30.538   2.331
35409W        W98968  14.821  32.574  14.375
35410W        W98969   8.183  38.343  13.544
35411W        W98970  19.692  24.031  13.959
35412W        W98971  30.015  27.656  14.941
35413W        W98972  26.620  31.641  11.599
35414W        W98973  38.522  14.168   4.744
35415W        W98974  15.692   0.941   2.376
35416W        W98975  17.728   7.265  13.417
35417W        W98976  18.759  29.070  11.521
35418W        W98977  15.218   5.761  14.999
35419W        W98978  13.332  43.420  10.953
35420W        W98979  18.278   6.358   2.269
35421W        W98980   2.312  35.968   4.804
35422W        W98981  43.501  33.609   4.782
35423W        W98982  36.556   2.389  13.495
35424W        W98983  33.131  25.106  11.612
35425W        W98984  21.585  13.119   4.739
35426W        W98985  25.678  40.432  10.966
35427W        W98986  28.158  28.633   3.850
35428W        W98987  28.954  19.280   4.801
35429W        W98988  43.397   9.220   3.365
35430W        W98989   8.192  44.463   4.689
35431W        W98990  35.909  18.068  10.458
35432W        W98991  15.749  24.602  11.536
35433W        W98992  39.952  22.554  13.509
35434W        W98993  25.522  43.903   2.887
35435W        W98994  11.287   5.378  11.480
35436W        W98995  22.584  38.929   4.761
35437W        W98996  21.084  12.214   0.256
35438W        W98997  26.654  25.085  10.482
35439W        W98998   0.770  15.662   1.435
35440W        W98999   4.329  12.234   1.365
35441W        W99000  30.619  10.160  11.575
35442W        W99001   4.291  41.927   2.417
35443W        W99002  25.172  24.559  13.361
35444W        W99003  44.370   2.768  10.920
35445W        W99004  41.884  35.041  10.577
35446W        W99005  18.722  12.189  14.978
35447W        W99006  33.874  31.935   2.228
35448W        W99007  43.798   3.915   3.342
35449W        W99008  36.861  43.283  10.985
35450W        W99009  10.196   4.385   2.198
35451W        W99010   7.895  41.890  11.008
35452W        W99011  16.128  22.149  11.465
35453W        W99012   4.323  16.180  11.913
35454W        W99013   5.352   7.753  14.985
35455W        W99014  26.587  21.583  12.093
35456W        W99015   0.339  28.568   0.330
35457W        W99016   0.975  26.126  14.432
35458W        W99017  38.406   8.173  13.017
35459W        W99018   6.181   5.355  12.874
35460W        W99019   4.822  42.974   3.280
35461W        W99020   9.703  40.883  14.482
35462W        W99021  18.253  39.921   1.311
35463W        W99022   3.894   5.269  14.418
35464W        W99023  25.139  27.687  11.079
35465W        W99024   8.182  37.980   1.933
35466W        W99025  16.265  21.617  11.935
35467W        W99026   4.744  26.472   3.329
35468W        W99027  16.671   8.770   1.378
35469W        W99028  16.240  43.840  12.029
35470W        W99029  37.518   3.792  11.538
35471W        W99030  16.094  32.092  13.859
35472W        W99031  28.052  16.749  11.960
35473W        W99032  40.526  30.454  13.920
35474W        W99033  32.064  14.727   4.746
35475W        W99034  33.051  13.648   0.813
35476W        W99035  25.080  40.812  14.372
35477W        W99036  37.897  44.401  12.945
35478W        W99037  19.746  30.508  14.824
35479W        W99038  43.840  29.976   2.827
35480W        W99039   9.807  12.195  11.024
35481W        W99040   2.741  23.197   1.426
35482W        W99041   9.183   7.217  14.777
35483W        W99042  42.801  20.269  14.872
35484W        W99043  23.625  34.107   3.228
35485W        W99044  27.627  37.062  13.451
35486W        W99045  10.702  20.231  13.508
35487W        W99046   1.872  20.702   3.782
35488W        W99047  40.331  38.836  11.503
35489W        W99048  34.418  14.693   0.404
35490W        W99049  28.631  16.809  12.472
35491W        W99050   0.288  10.802   0.256
35492W        W99051   4.290  11.210   1.306
35493W        W99052  39.379  35.548  13.825
35494W        W99053  25.482  16.805   4.688
35495W        W99054  43.947  26.149  11.006
35496W        W99055   5.364  17.296   1.296
35497W        W99056  23.029  25.479   2.183
35498W        W99057  42.958  11.687  11.390
35499W        W99058  31.464  10.659  14.979
35500W        W99059  36.963   3.860   0.267
35501W        W99060  14.260   9.262  10.484
35502W        W99061  24.504  21.086  11.434
35503W        W99062   4.731  15.666   0.932
35504W        W99063  37.458  27.540   3.345
35505W        W99064  12.281  16.579   3.184
35506W        W99065  29.546  12.178  13.381
35507W        W99066  40.050  14.186  11.105
35508W        W99067  24.133   7.761  13.991
35509W        W99068  25.476  11.211  11.101
35510W        W99069  33.068  19.235  11.908
35511W        W99070  15.754   4.834  10.644
35512W        W99071  44.910  36.856  12.851
35513W        W99072  20.590  10.221  12.018
35514W        W99073   2.350  12.773   3.732
35515W        W99074  15.190   2.873   3.784
35516W        W99075   2.920   3.279  13.381
35517W        W99076  34.546  24.105   0.910
35518W        W99077  34.075   0.307   2.695
35519W        W99078  17.124  22.175  13.897
35520W        W99079  12.139  24.492   2.351
35521W        W99080  17.252  33.478  10.080
35522W        W99081  11.645  12.740  12.474
35523W        W99082  24.090  21.050   0.391
35524W        W99083   7.813  24.630  14.397
35525W        W99084  18.736   0.285   0.407
35526W        W99085  30.070  20.541   0.415
35527W        W99086  28.458   4.827   2.829
35528W        W99087   6.387   9.280  13.893
35529W        W99088  13.254  40.407   1.290
35530W        W99089   9.219  30.540   4.641
35531W        W99090  40.409  38.890  10.067
35532W        W99091  12.790  15.731  11.466
35533W        W99092   5.320  34.972  11.063
35534W        W99093  41.845  38.455  11.523
35535W        W99094  38.472  28.169   2.848
35536W        W99095   0.834  34.427  14.295
35537W        W99096  11.842  26.045  11.605
35538W        W99097  22.194  27.526  13.869
35539W        W99098  27.503  13.604   2.322
35540W        W99099  31.987  24.534  12.435
35541W        W99100  11.630  16.683  10.945
35542W        W99101  31.548  27.962  14.329
35543W        W99102  38.522  27.167  11.491
35544W        W99103  24.216  18.076  13.057
35545W        W99104   5.391  41.310  11.111
35546W        W99105  25.472   7.675   3.752
35547W        W99106  44.777  26.164   1.703
35548W        W99107   4.403  31.990  12.528
35549W        W99108  19.239  10.288  11.997
35550W        W99109  35.098   4.352  13.977
35551W        W99110  21.241   1.295  14.981
35552W        W99111  34.012  30.156  13.990
35553W        W99112   8.246  14.332   1.270
35554W        W99113   3.342   1.868  14.971
35555W        W99114  15.636   3.290   0.257
35556W        W99115  20.607   1.375  13.021
35557W        W99116  40.990   6.413   3.328
35558W        W99117  25.554   7.400   4.342
35559W        W99118  24.710  31.641   2.319
35560W        W99119  25.013  13.236   9.962
35561W        W99120  41.966  32.480  11.038
35562W        W99121  38.972  24.975   0.301
35563W        W99122  30.936  13.625   4.678
35564W        W99123  18.688   9.377   1.439
35565W        W99124  28.679  16.748   0.387
35566W        W99125  29.544  14.109   2.296
35567W        W99126   3.928  38.478  14.287
35568W        W99127   0.771  26.618   3.720
35569W        W99128  35.955  44.376   4.335
35570W        W99129  17.695  38.001  12.833
35571W        W99130   4.891  29.953   4.154
35572W        W99131  25.086   3.233   0.444
35573W        W99132  35.416  14.816   2.226
35574W        W99133  10.788   3.945   2.779
35575W        W99134  30.098  40.836  11.034
35576W        W99135  37.832  18.107  13.020
35577W        W99136   0.969  29.459   1.837
35578W        W99137   2.880  11.152  11.895
35579W        W99138  32.931  18.762  11.874
35580W        W99139  42.841  14.267  10.594
35581W        W99140   0.903   9.189  13.425
35582W        W99141   8.301  11.190   3.331
35583W        W99142  23.228  24.578   4.253
35584W        W99143   3.386  29.969  11.985
35585W        W99144  21.571  38.856   0.785
35586W        W99145  43.810  35.991  11.417
35587W        W99146  21.712   1.892  13.923
35588W        W99147  14.185  36.473   4.271
35589W        W99148  31.608  35.383   2.752
35590W        W99149  22.185  37.896   3.282
35591W        W99150   1.365   1.377  11.372
35592W        W99151   5.784  14.207  13.525
35593W        W99152   9.338   7.880  13.407
35594W        W99153  11.156  31.039   3.341
35595W        W99154  35.452  34.385  11.988
35596W        W99155   3.792  29.450  10.551
35597W        W99156  16.308  12.317   4.618
35598W        W99157   0.775   1.309   1.262
35599W        W99158  32.399   9.659   1.786
35600W        W99159  42.020  19.259   3.168
35601W        W99160  20.103  42.802   2.763
35602W        W99161   8.887  17.782  12.394
35603W        W99162  19.764  21.144  14.514
35604W        W99163  33.933  41.322  10.968
35605W        W99164  19.646   9.193   0.753
35606W        W99165  28.451  18.281  11.095
35607W        W99166  39.448  16.637   2.273
35608W        W99167  43.904  32.922   4.637
35609W        W99168   6.312  34.378   4.239
35610W        W99169  15.715   8.171   9.448
35611W        W99170  22.128   9.783   9.948
35612W        W99171  33.414  15.149   0.381
35613W        W99172  19.558  11.783   0.273
35614W        W99173  22.231   8.317   1.890
35615W        W99174  37.379  24.187  11.540
35616W        W99175  22.610  14.310  11.041
35617W        W99176  43.402  31.024  12.407
35618W        W99177   1.464  29.666  11.033
35619W        W99178   9.189  13.780  12.508
35620W        W99179  24.591  11.629  11.051
35621W        W99180  21.229  21.117  10.612
35622W        W99181  19.575   5.768  11.093
35623W        W99182   4.861  27.609  10.445
35624W        W99183  16.224  19.587   3.758
35625W        W99184  22.692  43.479   2.875
35626W        W99185  18.073  34.904  13.448
35627W        W99186  31.040  36.872  11.002
35628W        W99187  34.378  42.014   1.892
35629W        W99188  12.121  24.083   3.743
35630W        W99189  18.278   5.240   1.827
35631W        W99190  23.648  33.944  12.963
35632W        W99191  36.562   8.843   4.629
35633W        W99192  41.905  17.112  13.850
35634W        W99193   5.205  26.656   0.432
35635W        W99194  43.386   9.186  13.375
35636W        W99195   6.817  27.602  11.564
35637W        W99196  26.559   7.730  10.967
35638W        W99197  11.358  23.200  14.809
35639W        W99198  12.117  27.501  12.908
35640W        W99199  15.171  25.997   4.811
35641W        W99200  29.074  37.505   1.881
35642W        W99201  42.885  31.003   5.295
35643W        W99202  18.664  27.137  14.844
35644W        W99203  15.759   9.748  12.902
35645W        W99204  36.856  13.340   4.139
35646W        W99205  35.578   9.218   3.376
35647W        W99206  13.797  11.740  12.091
35648W        W99207  11.148  21.094   2.862
35649W        W99208  25.469  40.888  12.921
35650W        W99209  13.117  10.359   0.256
35651W        W99210  17.217  31.042  12.417
35652W        W99211   4.771   5.836  11.980
35653W        W99212   0.421  13.134  11.981
35654W        W99213  26.999  40.826  12.474
35655W        W99214  42.336  35.416   1.920
35656W        W99215  39.051  43.514  14.022
35657W        W99216  12.141  14.634   1.897
35658W        W99217  38.049  15.244   2.255
35659W        W99218  41.514   2.280   1.374
35660W        W99219  44.260  37.355  11.872
35661W        W99220  39.984  23.199  13.944
35662W        W99221  17.290   7.799  10.472
35663W        W99222  13.318  17.734  13.844
35664W        W99223   6.278  35.430   1.743
35665W        W99224   7.380  33.561  10.949
35666W        W99225  18.579  29.450   4.114
35667W        W99226   0.260  41.513   2.890
35668W        W99227  37.581   8.889   2.877
35669W        W99228  13.753  31.404  11.540
35670W        W99229  21.683  14.321  13.446
35671W        W99230  22.623  25.485  11.932
35672W        W99231  39.395  32.082  14.413
35673W        W99232  26.081  35.007  13.859
35674W        W99233  17.274  27.128  11.119
35675W        W99234  38.821  33.567  12.341
35676W        W99235  38.538   4.774  11.461
35677W        W99236   9.273  27.064  14.921
35678W        W99237   7.808   9.696  14.395
35679W        W99238   8.325  19.614  12.380
35680W        W99239  17.077  17.116   0.839
35681W        W99240  19.675   4.884   0.265
35682W        W99241  43.361  38.415  12.921
35683W        W99242   4.419  36.377   1.795
35684W        W99243  14.129  26.966  11.880
35685W        W99244   6.265   2.466  10.521
35686W        W99245  42.932   1.300  14.964
35687W        W99246  16.652  44.977   3.174
35688W        W99247  44.473  43.382  13.977
35689W        W99248  32.587   6.872   3.833
35690W        W99249   0.842  18.190  11.458
35691W        W99250  38.545   8.783  11.375
35692W        W99251  24.094  26.694  14.428
35693W        W99252  17.779  22.665   3.752
35694W        W99253  33.129   9.784  13.064
35695W        W99254  28.579  19.765   4.659
35696W        W99255  39.334  40.319  10.151
35697W        W99256  33.126   9.167  12.900
35698W        W99257  14.818   0.921   2.414
35699W        W99258  41.927  28.005  12.540
35700W        W99259  42.421   6.341   0.935
35701W        W99260  26.077   2.451  11.950
35702W        W99261   6.885   5.423   4.675
35703W        W99262  26.112  17.638  14.279
35704W        W99263   2.288  44.897   4.664
35705W        W99264  15.105  41.339  13.014
35706W        W99265   6.798  35.472  10.477
35707W        W99266  39.402   4.272  14.789
35708W        W99267   1.971  29.929  10.466
35709W        W99268  36.518  39.948  11.874
35710W        W99269  29.443   2.460   2.198
35711W        W99270  19.263  12.700  12.384
35712W        W99271  16.670  11.642  13.910
35713W        W99272  16.691  37.544  12.917
35714W        W99273  23.092   3.353  10.503
35715W        W99274  38.439  11.821   3.714
35716W        W99275  12.740  25.549   2.874
35717W        W99276  29.117   1.905   4.271
35718W        W99277  24.985  24.080   2.892
35719W        W99278  38.867  30.553   5.086
35720W        W99279  18.145  23.549   2.685
35721W        W99280  43.958  44.920   3.759
35722W        W99281  33.029  36.878  12.470
35723W        W99282   8.333   0.882   0.745
35724W        W99283   3.340  31.959   0.744
35725W        W99284  12.318  39.515  12.967
35726W        W99285  20.192  37.353  14.963
35727W        W99286  13.205  15.650  10.481
35728W        W99287  32.396   4.841  12.001
35729W        W99288   7.836  23.728   4.257
35730W        W99289  24.225  41.969   2.240
35731W        W99290  26.096  34.570  14.015
35732W        W99291  12.629   6.320   2.313
35733W        W99292  27.449  10.779   0.451
35734W        W99293  14.145  39.394  14.007
35735W        W99294   2.236  22.157   0.966
35736W        W99295   0.966  15.820  13.976
35737W        W99296   2.875   9.391  11.586
35738W        W99297  31.568  34.097  10.951
35739W        W99298  27.953  34.875  14.385
35740W        W99299  17.077  34.913  13.890
35741W        W99300  10.341  40.319  12.342
35742W        W99301   8.809   6.731  13.029
35743W        W99302  15.245  10.800   1.847
35744W        W99303  24.147  15.272  13.488
35745W        W99304   9.225  16.755   0.873
35746W        W99305  15.115  24.710  10.089
35747W        W99306   9.198  39.382  11.088
35748W        W99307   1.317  42.923  13.021
35749W        W99308   9.851  10.190   1.789
35750W        W99309   4.440  18.624  11.494
35751W        W99310  33.445  27.492   1.877
35752W        W99311  24.654  31.608   0.968
35753W        W99312  28.535  10.679   1.769
35754W        W99313  37.918  36.527  11.426
35755W        W99314  24.107  16.621  11.898
35756W        W99315   7.370   3.339   1.754
35757W        W99316  36.456   0.954   0.797
35758W        W99317  33.573  30.639  12.539
35759W        W99318  30.969  35.854  13.468
35760W        W99319   4.806  27.099  14.480
35761W        W99320  19.547  19.551   1.778
35762W        W99321  35.976  30.624   4.303
35763W        W99322  14.765  16.638   1.315
35764W        W99323  41.962  37.549   4.766
35765W        W99324  13.211   3.288   3.835
35766W        W99325  17.077  10.351  14.370
35767W        W99326   1.379  22.731   2.793
35768W        W99327  43.360   6.244  12.378
35769W        W99328  33.626  25.106   0.413
35770W        W99329  17.078  29.542  10.153
35771W        W99330  37.007   9.326  14.997
35772W        W99331  17.156  24.496  10.532
35773W        W99332  27.958  44.775  11.082
35774W        W99333  19.567   7.835  13.374
35775W        W99334  17.164  36.913   1.270
35776W        W99335   5.817  13.185   0.919
35777W        W99336  28.956   1.331  10.611
35778W        W99337   4.324  21.178  14.760
35779W        W99338  27.489  39.927  13.429
35780W        W99339  12.783  14.138   0.402
35781W        W99340  41.924  35.562   3.644
35782W        W99341   6.896  42.014  13.335
35783W        W99342  29.434   0.770   1.289
35784W        W99343  44.887  25.200  14.312
35785W        W99344  26.130  12.743  10.446
35786W        W99345   2.385  33.516   0.326
35787W        W99346  38.547  37.477   0.946
35788W        W99347  36.061  12.723   2.794
35789W        W99348  12.240   8.291   4.349
35790W        W99349   3.323  27.674  10.435
35791W        W99350  25.583  44.427   0.864
35792W        W99351  43.867  15.135  14.985
35793W        W99352  29.436  34.078   4.737
35794W        W99353  42.916  31.510  13.946
35795W        W99354  18.596  43.797  13.395
35796W        W99355  39.463  40.380  10.421
35797W        W99356  20.110  15.167   4.146
35798W        W99357  28.639   5.224  14.777
35799W        W99358   8.357  37.028   3.656
35800W        W99359   5.929  42.411  14.917
35801W        W99360  40.998  27.034  12.892
35802W        W99361   5.211  28.493   0.816
35803W        W99362   6.208  29.105  13.884
35804W        W99363  19.280  29.981   3.866
35805W        W99364  23.501   3.455  12.525
35806W        W99365  32.569  25.084  11.978
35807W        W99366   6.800  22.703  14.847
35808W        W99367  33.429  20.580  14.997
35809W        W99368  14.729   8.247  13.489
35810W        W99369  30.492   3.354  11.392
35811W        W99370  31.516  44.364  11.572
35812W        W99371  41.404  31.108   3.295
35813W        W99372   1.800  42.976  12.983
35814W        W99373  44.364   0.903  11.935
35815W        W99374  28.106  14.762   3.228
35816W        W99375  10.299  15.140   1.215
35817W        W99376  37.898  36.914  11.913
35818W        W99377  23.506   6.358   2.398
35819W        W99378  12.757  13.606   1.318
35820W        W99379  11.213  41.457   2.809
35821W        W99380  37.464  13.765   1.276
35822W        W99381  40.352   3.793   3.158
35823W        W99382  20.751   6.392  10.533
35824W        W99383   0.436  27.055   3.848
35825W        W99384   0.273  16.314  12.853
35826W        W99385  33.481   6.285   4.328
35827W        W99386  27.677  15.158  10.975
35828W        W99387  40.461  35.575  11.403
35829W        W99388  17.639  37.471  14.317
35830W        W99389  44.886  27.572   2.389
35831W        W99390  11.806  28.077   0.756
35832W        W99391  14.291   5.791   0.825
35833W        W99392  23.175  37.374   0.253
35834W        W99393  18.749  36.390  14.408
35835W        W99394  13.652  10.256  10.978
35836W        W99395   7.681  36.965   3.643
35837W        W99396  36.436  42.317   2.716
35838W        W99397  40.891  39.548   2.279
35839W        W99398   6.832   2.354   0.940
35840W        W99399  35.887   5.899  11.981
35841W        W99400   4.700   5.438   3.207
35842W        W99401  25.467  36.416  12.522
35843W        W99402  16.245  11.263   4.723
35844W        W99403  18.279  31.068  14.822
35845W        W99404  27.513  19.583   5.285
35846W        W99405  11.695  38.879   4.230
35847W        W99406  14.738  29.985   2.227
35848W        W99407  35.382  44.896  12.426
35849W        W99408  24.481  35.073   0.450
35850W        W99409  26.184  40.330  14.425
35851W        W99410  11.826  23.186   5.739
35852W        W99411  16.074  23.116   1.756
35853W        W99412   3.907  23.541  14.877
35854W        W99413  16.716  16.295  14.836
35855W        W99414   5.823  29.925  12.859
35856W        W99415   0.928  36.028   9.931
35857W        W99416   1.833  32.980   1.352
35858W        W99417  42.294  41.386  14.942
35859W        W99418  33.448  23.627   1.905
35860W        W99419   5.790  16.707   2.819
35861W        W99420  18.063  36.495   2.419
35862W        W99421  11.765  20.081   1.714
35863W        W99422  39.926  18.286  12.890
35864W        W99423  17.197  24.692   0.425
35865W        W99424  40.899  41.380  13.993
35866W        W99425  34.493   6.760   3.356
35867W        W99426  38.840  41.314  14.321
35868W        W99427  16.183   3.716   0.397
35869W        W99428  14.636  36.356  14.468
35870W        W99429  41.475   7.776  13.440
35871W        W99430  24.099  15.318   2.843
35872W        W99431  33.496  33.461   0.857
35873W        W99432  20.580  20.767   1.847
35874W        W99433  28.069  13.236  10.949
35875W        W99434   8.813  32.487   2.359
35876W        W99435   1.793  36.992   0.387
35877W        W99436  15.101  14.727   0.874
35878W        W99437  29.551   1.412   0.432
35879W        W99438  16.299  38.070  11.096
35880W        W99439   9.211   4.731   3.720
35881W        W99440  41.310   3.231  10.965
35882W        W99441  44.386  42.322   5.156
35883W        W99442  31.968   9.182  12.938
35884W        W99443  37.411  29.571  13.876
35885W        W99444  12.295  40.913   2.779
35886W        W99445  32.536   2.851   4.119
35887W        W99446   3.321  36.370   1.927
35888W        W99447  22.171  15.688  11.919
35889W        W99448  42.437  24.106  11.899
35890W        W99449  28.964   1.450  13.508
35891W        W99450  10.213   5.799  10.089
35892W        W99451  29.475  36.382   4.824
35893W        W99452  21.751  21.576   3.182
35894W        W99453  36.900  17.235  12.882
35895W        W99454  20.540   0.763   0.943
35896W        W99455  39.442  41.488  12.949
35897W        W99456  30.494   1.293  13.921
35898W        W99457   5.419   5.300   3.644
35899W        W99458  33.995  28.620   1.329
35900W        W99459   2.837   3.263   4.326
35901W        W99460  32.029   2.404  11.533
35902W        W99461  15.207   9.369  13.052
35903W        W99462  42.817  24.536  12.922
35904W        W99463  12.844  12.353   2.802
35905W        W99464  32.033  14.334  11.505
35906W        W99465  31.532  14.792   3.836
35907W        W99466  22.100  39.364   2.853
35908W        W99467   5.872  21.097  13.010
35909W        W99468  33.621  29.952  13.443
35910W        W99469   2.933   4.260   2.831
35911W        W99470  36.508  17.256  12.497
35912W        W99471   8.329  40.939   3.671
35913W        W99472  31.079  32.034  10.618
35914W        W99473   4.232  41.010   1.779
35915W        W99474  40.427  11.315  14.389
35916W        W99475   6.270  32.411   4.680
35917W        W99476  10.212  14.128   0.899
35918W        W99477   0.952  25.522  14.373
35919W        W99478  40.367   6.221  13.546
35920W        W99479  27.131  19.619  11.051
35921W        W99480  14.595  35.417   2.884
35922W        W99481  34.389  30.453   0.442
35923W        W99482   1.237  43.277   4.309
35924W        W99483  23.587   4.744   4.185
35925W        W99484  32.454  29.081   2.845
35926W        W99485  35.593  30.592   3.245
35927W        W99486  22.239  13.325   0.349
35928W        W99487  19.641   9.301  13.791
35929W        W99488  38.415   1.740  10.472
35930W        W99489   8.734  11.193  10.624
35931W        W99490  41.410  36.985   4.205
35932W        W99491  38.947  11.628  11.897
35933W        W99492  10.797   0.248   1.719
35934W        W99493   0.923   5.741   3.148
35935W        W99494  23.047  34.871  11.093
35936W        W99495  13.612  41.900   4.165
35937W        W99496  15.220  11.638  12.343
35938W        W99497  14.690  22.037  10.979
35939W        W99498  36.547  32.002   2.866
35940W        W99499  40.504   6.741  14.375
35941W        W99500  20.752  12.162   0.963
35942W        W99501  27.499  27.941   3.275
35943W        W99502   7.186   1.773  13.824
35944W        W99503  30.577  11.345  12.037
35945W        W99504  41.356  30.117  13.981
35946W        W99505  39.374  26.583  11.965
35947W        W99506  36.912   6.197   1.268
35948W        W99507   4.749  44.287  12.566
35949W        W99508   4.234  37.025  13.870
35950W        W99509  17.154  42.906  14.284
35951W        W99510  34.869   2.762   3.383
35952W        W99511  15.218   7.288   1.414
35953W        W99512   7.682   7.329  14.021
35954W        W99513  42.452   9.661  12.091
35955W        W99514  36.416  21.680   0.399
35956W        W99515  36.452   5.829  11.466
35957W        W99516   0.391  37.001  12.395
35958W        W99517   3.288  20.199  10.971
35959W        W99518  34.108  34.965  13.485
35960W        W99519   8.691  36.487  10.520
35961W        W99520  14.724  21.119  11.033
35962W        W99521   8.793   9.253   3.660
35963W        W99522  36.050  42.922  13.371
35964W        W99523   8.678   7.228   4.606
35965W        W99524  15.579   4.296  11.043
35966W        W99525  27.095  35.002   4.221
35967W        W99526  19.258  32.626  11.010
35968W        W99527  41.847  36.990  12.471
35969W        W99528   9.314   5.388   4.332
35970W        W99529   1.447  11.846  12.508
35971W        W99530  42.481  24.640   1.907
35972W        W99531  16.604  34.035   1.838
35973W        W99532   0.987  28.635   3.219
35974W        W99533   9.186  32.133  10.423
35975W        W99534   2.341  13.242   1.348
35976W        W99535  40.352  42.948   5.184
35977W        W99536  31.612  40.446  11.912
35978W        W99537  17.678  34.450   4.641
35979W        W99538  24.993  26.120   4.664
35980W        W99539  22.553  34.895  11.892
35981W        W99540  19.240  37.871   0.319
35982W        W99541  20.670  20.643  11.976
35983W        W99542  34.603  36.477   4.178
35984W        W99543   3.918  13.343   1.862
35985W        W99544  20.094  31.411   4.352
35986W        W99545  31.065  34.113   1.904
35987W        W99546   4.853   9.184  13.898
35988W        W99547  18.732  11.847  10.060
35989W        W99548   8.682   7.243  11.032
35990W        W99549  22.243  18.122   4.805
35991W        W99550  37.498  40.914  14.942
35992W        W99551  15.659   2.326  14.848
35993W        W99552   3.435  12.296  12.467
35994W        W99553  40.977  18.265  11.489
35995W        W99554  24.687  36.961  14.426
35996W        W99555   2.940  33.911   2.190
35997W        W99556  42.311  11.279   1.275
35998W        W99557  25.139  29.997   3.695
35999W        W99558  36.580  11.821   3.376
36000W        W99559  29.552  14.833   1.395
36001W        W99560  39.320   3.885  12.841
36002W        W99561  43.793  31.078   4.681
36003W        W99562  38.511   2.238  13.864
36004W        W99563  34.907  18.161  12.923
36005W        W99564  35.102  27.561  11.506
36006W        W99565  30.058   7.903   3.720
36007W        W99566  33.527  17.797  12.906
36008W        W99567  23.629  38.453  12.834
36009W        W99568  27.448  42.860   1.775
36010W        W99569  29.068  17.605   3.278
36011W        W99570   7.389  39.993  10.981
36012W        W99571  28.577  35.107   4.674
36013W        W99572   6.396  26.186  14.419
36014W        W99573  23.219  31.034  14.278
36015W        W99574  11.338  16.198   3.269
36016W        W99575  17.655  10.307   4.705
36017W        W99576   9.732  14.770  12.427
36018W        W99577  35.014  25.609  12.876
36019W        W99578   1.976   7.273   0.261
36020W        W99579   7.859  26.624   9.926
36021W        W99580  27.667   0.809   0.814
36022W        W99581  25.971   2.332   1.825
36023W        W99582  37.907  13.600   2.363
36024W        W99583  44.282  11.735   1.333
36025W        W99584   7.413   9.711   4.606
36026W        W99585  43.809  23.673   2.706
36027W        W99586  33.884   3.888   3.771
36028W        W99587   5.777  19.580   3.752
36029W        W99588  16.144   8.713   5.234
36030W        W99589  30.941   5.362  12.924
36031W        W99590  28.507  44.389  11.961
36032W        W99591  38.449  41.340  12.486
36033W        W99592  42.426   4.406   0.884
36034W        W99593  24.117  25.149   4.815
36035W        W99594  16.109   7.318  12.576
36036W        W99595  23.493  35.046  12.395
36037W        W99596  20.244  43.489   3.204
36038W        W99597  32.583  10.787   0.807
36039W        W99598  22.179  16.089   3.164
36040W        W99599  40.508   6.389  10.078
36041W        W99600  24.090  39.884   4.243
36042W        W99601  11.252  27.669   2.342
36043W        W99602  25.991   5.262  10.978
36044W        W99603  23.657   6.257   3.345
36045W        W99604  34.946   9.307  12.956
36046W        W99605   3.455  39.335   4.272
36047W        W99606  29.973  11.804  14.334
36048W        W99607  29.921  11.369  12.950
36049W        W99608  16.567  29.102   0.961
36050W        W99609  31.545  31.971  12.476
36051W        W99610   8.672  16.080   1.769
36052W        W99611  28.950  42.810  10.960
36053W        W99612  39.510  39.066   3.811
36054W        W99613  20.656  21.680  10.465
36055W        W99614   4.745  18.557  13.484
36056W        W99615  13.312  22.208  14.978
36057W        W99616  38.844   3.937   2.275
36058W        W99617  27.509  36.892  11.900
36059W        W99618   7.318  34.496   1.769
36060W        W99619  10.380  36.071  10.539
36061W        W99620  38.352  25.479   4.768
36062W        W99621  24.550  43.825  13.817
36063W        W99622   8.886  42.866   3.328
36064W        W99623  28.044  18.633   3.181
36065W        W99624   8.307  41.410  10.617
36066W        W99625   9.247   1.915  14.508
36067W        W99626  27.969  19.770   2.245
36068W        W99627  25.148  29.603   1.420
36069W        W99628  29.568  24.974  12.416
36070W        W99629  10.747  20.733  10.895
36071W        W99630  10.295  16.779  11.561
36072W        W99631  33.015  44.357  13.854
36073W        W99632   0.807   2.927   4.216
36074W        W99633  33.012  41.389   2.246
36075W        W99634  18.734   2.908  10.517
36076W        W99635  18.278  20.559   4.759
36077W        W99636   3.814  21.636   4.633
36078W        W99637   0.388   5.738   4.176
36079W        W99638   4.822  24.534   4.314
36080W        W99639  29.481  19.112   2.701
36081W        W99640  38.536  42.866   2.781
36082W        W99641  34.974  11.345  10.113
36083W        W99642   4.342  44.351   3.683
36084W        W99643  24.558  24.513   3.218
36085W        W99644  28.536   5.327   4.195
36086W        W99645   7.336  43.976   0.450
36087W        W99646  12.227   3.240   2.757
36088W        W99647   8.400  10.284   1.303
36089W        W99648  12.719   2.763   1.927
36090W        W99649  26.965  25.666   2.394
36091W        W99650   2.446  33.992   1.836
36092W        W99651  12.679   2.351   4.662
36093W        W99652   2.918   6.232  11.094
36094W        W99653  12.144   0.489   0.756
36095W        W99654  37.518  20.128   2.240
36096W        W99655  13.750  40.811   4.206
36097W        W99656  39.896  36.040  12.990
36098W        W99657  11.704  35.924  12.866
36099W        W99658  21.086   6.770   2.829
36100W        W99659  11.244  12.751  14.362
36101W        W99660  17.564   8.361   1.815
36102W        W99661  40.048  41.959  11.105
36103W        W99662  17.606  44.897  12.358
36104W        W99663  15.767  43.880  10.592
36105W        W99664   4.381  17.610  11.452
36106W        W99665  37.874  31.451  14.495
36107W        W99666  36.429   8.673  11.118
36108W        W99667  21.668  40.980  14.398
36109W        W99668   5.774  39.972  13.501
36110W        W99669  34.914  33.513  10.071
36111W        W99670  42.901  21.033   1.888
36112W        W99671   9.645  13.711  11.095
36113W        W99672  16.731  40.332   3.237
36114W        W99673  12.787  33.087   0.755
36115W        W99674  43.509   4.832  14.400
36116W        W99675  42.282  12.355  14.001
36117W        W99676  26.190  14.708  11.054
36118W        W99677  32.590  22.580   4.282
36119W        W99678   7.265  40.816   3.228
36120W        W99679  37.491  26.664   0.357
36121W        W99680  40.435  38.865   3.771
36122W        W99681   4.921  24.631  10.583
36123W        W99682  15.150  10.708  11.909
36124W        W99683  42.009   5.748   0.948
36125W        W99684  41.883   9.232   3.295
36126W        W99685  27.071   8.229   2.754
36127W        W99686  27.465   9.174  11.441
36128W        W99687   6.298  21.551   1.884
36129W        W99688  13.651  12.321   0.395
36130W        W99689   8.691  22.119  10.613
36131W        W99690  39.046  31.027   1.902
36132W        W99691  12.788  19.186   2.297
36133W        W99692  34.955  43.984   4.660
36134W        W99693   4.354  27.072  11.980
36135W        W99694   1.961  26.629  11.077
36136W        W99695  44.795  19.675   2.382
36137W        W99696  13.144  22.502  14.936
36138W        W99697  18.704  37.337  14.780
36139W        W99698   8.701   4.907   3.377
36140W        W99699  24.718  22.126  10.539
36141W        W99700  11.208  31.982  11.972
36142W        W99701   8.894  23.699   2.789
36143W        W99702   1.743  39.915  12.849
36144W        W99703  10.711  10.302   3.172
36145W        W99704   3.312  36.913   3.244
36146W        W99705  25.064  23.222  10.941
36147W        W99706  19.252  42.410  13.818
36148W        W99707  39.833  12.272  11.908
36149W        W99708  38.840  12.186  14.949
36150W        W99709  42.970  39.929  10.603
36151W        W99710  10.871  18.701   4.319
36152W        W99711  43.964   3.345  12.983
36153W        W99712  28.953  21.232  14.407
36154W        W99713  35.069  44.963  13.468
36155W        W99714   6.285  43.473  14.933
36156W        W99715  38.944   9.882  11.426
36157W        W99716   8.852  27.014  14.352
36158W        W99717  33.984  10.827   5.096
36159W        W99718  34.520  31.424   3.219
36160W        W99719  30.154  29.567   2.796
36161W        W99720  12.291  23.053   0.326
36162W        W99721   1.240  36.065   4.335
36163W        W99722   5.702   6.334   2.793
36164W        W99723   2.951  17.258   4.724
36165W        W99724  14.797  32.928  12.437
36166W        W99725  27.196   8.761  12.379
36167W        W99726  14.212  20.745   5.240
36168W        W99727  27.477   0.752   3.382
36169W        W99728  10.339  16.730   3.316
36170W        W99729  14.255  20.033   4.191
36171W        W99730  22.674  40.022   1.736
36172W        W99731  39.905  18.615  12.395
36173W        W99732  38.389  42.338  13.495
36174W        W99733  42.839  14.229   2.338
36175W        W99734  38.329  30.961  14.503
36176W        W99735   1.832  42.850   5.237
36177W        W99736  21.101  11.737   4.826
36178W        W99737  36.853  17.698   2.850
36179W        W99738  36.930  13.830  12.398
36180W        W99739  26.022  34.531  13.408
36181W        W99740  14.685  31.987   4.706
36182W        W99741  42.776   3.889  13.542
36183W        W99742  26.044  10.680   3.376
36184W        W99743   6.857  34.063   4.247
36185W        W99744  11.707  31.471   4.244
36186W        W99745   6.726  24.666   2.369
36187W        W99746  13.791  38.026   3.854
36188W        W99747   0.451  37.424   1.292
36189W        W99748  37.353   0.851  10.628
36190W        W99749  17.280  32.052   1.908
36191W        W99750  32.569  44.993  12.001
36192W        W99751  32.573   9.683   3.360
36193W        W99752  10.286   5.887  14.959
36194W        W99753  29.656  36.428   3.277
36195W        W99754  18.207  22.722  11.453
36196W        W99755  42.291  17.108   0.274
36197W        W99756  35.551   3.246   1.309
36198W        W99757   6.190  29.116  12.514
36199W        W99758  22.239   1.860  10.473
36200W        W99759   4.891  25.592   3.356
36201W        W99760  34.532  36.502   2.863
36202W        W99761  36.551  24.529   1.280
36203W        W99762  15.329  32.548   2.736
36204W        W99763  39.448  38.466   0.956
36205W        W99764  23.498   2.769  11.116
36206W        W99765   2.384  26.061   3.267
36207W        W99766   5.783  44.265   4.717
36208W        W99767  43.420   1.402   0.888
36209W        W99768  43.375   0.949  12.348
36210W        W99769  13.229  23.533   2.798
36211W        W99770  15.605  39.372   0.274
36212W        W99771  33.541  15.153   3.716
36213W        W99772  40.431   2.308  12.480
36214W        W99773   9.267  32.907   0.728
36215W        W99774  44.409  30.111   2.705
36216W        W99775  35.028  24.688   2.332
36217W        W99776  20.655  12.215  12.045
36218W        W99777  39.369  19.560   3.224
36219W        W99778  25.142  13.752   1.234
36220W        W99779  31.037   9.643  10.904
36221W        W99780  14.697  26.988   0.338
36222W        W99781  42.393   7.241   4.627
36223W        W99782  11.779   8.838  11.548
36224W        W99783  40.306   9.196  13.868
36225W        W99784  32.077  20.223  11.904
36226W        W99785  13.174  36.525  10.903
36227W        W99786   3.919  34.405   4.659
36228W        W99787   6.705  27.033  11.519
36229W        W99788  16.679  12.611  14.884
36230W        W99789  24.714  33.896   3.742
36231W        W99790  18.669  44.826   4.287
36232W        W99791  36.862  39.913  12.925
36233W        W99792  19.060  44.776  13.307
36234W        W99793  29.574   9.230   3.663
36235W        W99794  44.791  27.988  14.795
36236W        W99795   4.374  30.133   2.219
36237W        W99796  17.790  18.282   3.343
36238W        W99797   4.764  23.625  11.948
36239W        W99798  10.302  37.007   4.787
36240W        W99799   7.332  23.548  11.993
36241W        W99800  41.000  44.971  12.367
36242W        W99801  10.267  38.381  14.279
36243W        W99802  10.263  11.219  13.859
36244W        W99803  12.192  28.461  13.815
36245W        W99804  42.999  42.386  12.026
36246W        W99805  11.150  17.223  14.938
36247W        W99806  28.644  18.645   0.464
36248W        W99807  43.827   0.349   2.333
36249W        W99808  27.451  40.938  14.938
36250W        W99809  17.719  12.194   0.770
36251W        W99810   4.310  27.100  10.536
36252W        W99811  29.992   6.916   0.844
36253W        W99812   2.964  36.464   4.698
36254W        W99813  14.231  15.710   0.396
36255W        W99814  11.149  10.803   1.330
36256W        W99815  13.822  36.855   0.416
36257W        W99816   3.832   2.879   2.206
36258W        W99817  27.678  27.007  11.383
36259W        W99818  10.169   1.880   0.772
36260W        W99819  15.685   0.864   1.265
36261W        W99820  38.882  28.176   0.961
36262W        W99821  41.025  27.681  10.498
36263W        W99822  29.459  12.796   3.377
36264W        W99823  14.305   5.332   2.265
36265W        W99824   2.919  27.152   2.812
36266W        W99825  14.173  18.147  14.471
36267W        W99826  27.068  21.138  11.402
36268W        W99827   4.333  11.244  10.415
36269W        W99828   9.286  14.808   2.343
36270W        W99829   0.327   5.746  11.094
36271W        W99830  26.972   4.264  12.067
36272W        W99831  31.072  34.525   5.092
36273W        W99832  41.496  40.833   4.347
36274W        W99833   7.709  24.518   1.701
36275W        W99834  17.584  39.943  13.804
36276W        W99835  42.847  37.372   4.255
36277W        W99836  35.546  21.042   1.857
36278W        W99837   2.749   6.423  14.965
36279W        W99838   5.293  15.736  11.127
36280W        W99839   6.334   8.674  12.518
36281W        W99840  27.616  18.069  12.006
36282W        W99841  21.655   0.356  13.842
36283W        W99842  31.429   1.354   3.268
36284W        W99843  21.240  11.727  13.919
36285W        W99844  25.062  12.361  14.929
36286W        W99845  39.923  27.496   1.229
36287W        W99846  19.118   2.385   3.815
36288W        W99847   6.214   1.478   0.912
36289W        W99848  38.470  30.105  12.986
36290W        W99849  36.495  42.821  13.460
36291W        W99850  43.304  27.131   2.248
36292W        W99851   7.753  24.564   1.327
36293W        W99852   0.894  29.526  12.882
36294W        W99853  10.250  10.680  10.146
36295W        W99854  30.136  33.918   4.716
36296W        W99855  44.822   7.231  14.342
36297W        W99856  30.576  20.620   0.355
36298W        W99857   7.309  24.214  10.531
36299W        W99858  37.412  30.575   2.213
36300W        W99859  13.765  39.847  12.562
36301W        W99860   8.237  17.160  12.032
36302W        W99861  26.654  43.386  14.437
36303W        W99862  28.079  21.149   1.776
36304W        W99863   6.300  27.541   0.795
36305W        W99864  33.102   6.745  10.533
36306W        W99865   1.842  26.042  13.921
36307W        W99866  26.066  32.592   0.267
36308W        W99867  28.470  14.213   3.240
36309W        W99868  27.522  33.122  11.897
36310W        W99869  21.645  41.907   2.265
36311W        W99870  27.127  13.769  13.835
36312W        W99871   9.158  23.735  12.399
36313W        W99872  36.520  10.191  13.994
36314W        W99873  25.513  41.966  12.860
36315W        W99874  30.561   4.399   0.404
36316W        W99875  30.450  38.511   2.402
36317W        W99876  41.417  42.991  13.452
36318W        W99877  15.294  15.124   3.254
36319W        W99878   7.334  27.489   2.186
36320W        W99879   9.227   0.485  12.008
36321W        W99880   2.426  38.993   3.650
36322W        W99881   7.895  25.698   3.862
36323W        W99882  11.727  36.090  10.509
36324W        W99883  16.209  13.835   2.823
36325W        W99884  31.139  27.079  11.932
36326W        W99885   0.767  25.001  12.505
36327W        W99886  12.724  32.502   2.738
36328W        W99887   4.708  42.411   3.162
36329W        W99888   1.808  44.411  14.907
36330W        W99889  25.703  27.594   4.333
36331W        W99890  14.102  30.998  10.574
36332W        W99891  40.995  24.647  11.595
36333W        W99892   9.867  21.127   1.413
36334W        W99893  32.464  31.509   3.682
36335W        W99894  22.047  35.388   2.294
36336W        W99895  33.065  31.063   4.766
36337W        W99896   8.199  31.459  11.932
36338W        W99897  27.572   7.911  11.072
36339W        W99898  14.167  16.123   4.174
36340W        W99899  43.470   9.709   3.223
36341W        W99900   9.708  25.102  12.553
36342W        W99901   9.843  11.671   1.278
36343W        W99902   0.444  18.107  12.032
36344W        W99903  19.541  28.936   5.659
36345W        W99904  27.131  37.420  11.065
36346W        W99905  14.232  43.973   2.393
36347W        W99906   0.873  39.370  12.013
36348W        W99907  44.342  15.169   3.663
36349W        W99908   1.395  18.548  11.429
36350W        W99909  16.132  18.253  11.863
36351W        W99910  37.995  26.601   2.298
36352W        W99911  28.605   0.862  13.424
36353W        W99912   1.305  35.013  13.989
36354W        W99913   8.827  35.440  14.835
36355W        W99914  24.078  33.983   4.261
36356W        W99915  40.844  44.792   4.782
36357W        W99916  41.878   9.815  14.774
36358W        W99917  40.340  20.232  13.910
36359W        W99918  36.929   3.454   4.145
36360W        W99919  20.705  24.230  10.480
36361W        W99920  39.874  38.006  13.340
36362W        W99921  36.094  30.533  11.083
36363W        W99922  32.927  31.510  10.895
36364W        W99923  34.907  41.036  11.862
36365W        W99924  36.376  25.212   4.266
36366W        W99925  43.932  20.655  14.976
36367W        W99926  44.956   0.279  13.797
36368W        W99927  15.641  37.348   0.819
36369W        W99928   9.332  33.598  10.011
36370W        W99929   0.258  33.882   3.631
36371W        W99930  38.038  32.142  12.836
36372W        W99931  13.714  30.563  13.921
36373W        W99932  16.785  15.206  14.327
36374W        W99933  14.746   9.704  12.569
36375W        W99934   3.323  16.309   0.429
36376W        W99935  16.255   9.281   0.942
36377W        W99936   6.732  43.446  14.440
36378W        W99937  19.077  40.984  12.944
36379W        W99938  36.538  35.506  12.832
36380W        W99939  30.143  23.034  10.613
36381W        W99940   5.401  44.374   3.761
36382W        W99941  12.133  14.326  10.108
36383W        W99942   6.386  23.726  13.990
36384W        W99943  38.062  28.942  12.084
36385W        W99944  34.093   4.910   0.476
36386W        W99945  27.600  42.408   1.848
36387W        W99946  31.058  20.671   1.337
36388W        W99947   7.414   1.909   3.371
36389W        W99948  15.610  12.643  11.012
36390W        W99949   4.257   8.886   0.262
36391W        W99950  33.429  16.307  12.423
36392W        W99951  13.329  29.136  10.533
36393W        W99952  40.314  21.636   1.417
36394W        W99953  20.179  36.048   0.890
36395W        W99954  21.643  15.807   4.201
36396W        W99955  14.317  41.833   0.760
36397W        W99956  11.286  17.094  12.921
36398W        W99957  37.471   4.281  12.579
36399W        W99958  10.779  38.513  13.979
36400W        W99959  16.787  39.407   0.765
36401W        W99960  13.728  14.591   1.261
36402W        W99961  12.134  21.078  13.881
36403W        W99962   6.203  31.633  14.766
36404W        W99963  13.213  32.902   2.294
36405W        W99964  36.526  15.687   2.674
36406W        W99965  34.417   3.716  11.567
36407W        W99966  33.530  44.352   1.848
36408W        W99967  20.041  12.170  11.375
36409W        W99968  37.889  10.654  14.914
36410W        W99969  34.432  18.120   0.876
36411W        W99970  21.629  21.715   1.265
36412W        W99971  39.877  42.785  14.913
36413W        W99972  26.955   1.951  12.946
36414W        W99973  26.040  21.704  14.855
36415W        W99974  17.797  21.030   2.403
36416W        W99975   1.392   1.264   4.326
36417W        W99976  11.363  15.224   0.427
36418W        W99977   8.391  32.496  10.556
36419W        W99978  17.684  18.565  10.485
36420W        W99979  33.059  17.662   2.393
36421W        W99980  37.350  34.525  14.922
36422W        W99981  10.167  13.689  12.033
36423W        W99982   3.222  33.600   1.291
36424W        W99983  28.548  19.765   3.340
36425W        W99984  40.836  42.326  14.389
36426W        W99985   0.454   7.236  11.072
36427W        W99986   3.309  23.141   1.396
36428W        W99987  21.687  44.865  13.886
36429W        W99988  20.035  44.963   3.849
36430W        W99989  43.299  43.946  11.948
36431W        W99990   7.892  19.557  11.595
36432W        W99991   3.458  16.309  13.982
36433W        W99992  33.567  23.540   4.262
36434W        W99993  11.245   1.401   0.964
36435W        W99994   3.364  27.195   3.665
36436W        W99995   6.209  36.845   4.287
36437W        W99996  12.187   1.825  12.556
36438W        W99997  11.342  25.181   4.307
36439W        W99998  36.896  32.522  11.914
36440W        W99999  18.147   6.304   1.923
36441W        W    0  42.827  13.230   0.250
36442W        W    1   5.384  40.043   3.809
36443W        W    2  19.130   0.894  14.499
36444W        W    3  27.566   5.892   4.273
36445W        W    4   9.367   7.682   2.866
36446W        W    5  11.702   0.821  10.011
36447W        W    6  33.933  33.450   3.367
36448W        W    7  16.220  16.220  10.949
36449W        W    8  18.062   6.816  13.956
36450W        W    9  22.597  35.106  11.089
36451W        W   10  42.523  36.521  12.013
36452W        W   11  33.057  14.631  14.813
36453W        W   12   7.336   6.688  13.927
36454W        W   13  16.139   7.777  14.787
36455W        W   14  24.705   6.725   4.676
36456W        W   15  12.127  13.678   1.859
36457W        W   16  13.110  16.082  11.036
36458W        W   17   5.429  37.475   0.802
36459W        W   18  27.584   3.411  11.110
36460W        W   19  41.360  28.950  10.621
36461W        W   20  33.951  25.529  10.414
36462W        W   21  14.755  18.787   0.781
36463W        W   22  33.942  36.415  14.502
36464W        W   23  16.648   7.699   0.475
36465W        W   24  14.334  28.470  12.396
36466W        W   25  23.114  14.682  14.764
36467W        W   26   1.885   7.792  14.829
36468W        W   27   2.900  33.530  14.820
36469W        W   28  28.547  34.455   2.868
36470W        W   29   8.333  12.665   2.872
36471W        W   30  30.156  38.068  10.586
36472W        W   31   3.761  28.520   3.857
36473W        W   32  23.059  15.273  14.890
36474W        W   33   6.741  11.795  13.794
36475W        W   34  19.264   6.710  13.412
36476W        W   35  11.213  29.621  14.965
36477W        W   36  30.598  30.586  10.942
36478W        W   37  38.820   0.832  14.889
36479W        W   38  30.455  10.139  14.824
36480W        W   39  42.863  40.432   2.301
36481W        W   40  10.355  24.645   3.778
36482W        W   41  31.081  21.548   1.772
36483W        W   42  38.553  14.593   0.839
36484W        W   43  37.463  30.091  11.444
36485W        W   44  10.149  24.986  14.929
36486W        W   45  17.736  33.910  13.510
36487W        W   46  36.429  24.076  12.847
36488W        W   47   4.278  24.126  13.382
36489W        W   48  37.953  20.633  11.011
36490W        W   49  16.276  20.676  10.982
36491W        W   50  27.552  39.872   2.209
36492W        W   51  11.343  13.307   0.439
36493W        W   52   1.279  21.250  12.920
36494W        W   53  40.373  39.454   1.325
36495W        W   54  20.717   7.865  12.994
36496W        W   55  16.164  32.025  11.119
36497W        W   56  44.884   3.774   1.797
36498W        W   57  31.975   5.919   0.324
36499W        W   58  36.935  37.420   2.701
36500W        W   59  18.737  31.481   2.720
36501W        W   60  34.086  25.706  14.927
36502W        W   61   2.901  14.673   2.822
36503W        W   62  40.006  23.676  11.984
36504W        W   63  42.856  39.050  11.970
36505W        W   64  43.795  25.204  11.470
36506W        W   65  38.370  27.941   1.418
36507W        W   66  27.638  28.505   2.345
36508W        W   67  38.997   5.765   4.328
36509W        W   68  16.740  43.996  11.568
36510W        W   69  18.768  26.555  12.529
36511W        W   70  36.945  40.404   1.835
36512W        W   71   2.420  38.860   4.621
36513W        W   72  22.107  28.483  13.399
36514W        W   73  31.967  43.288   1.816
36515W        W   74   9.647  10.243  14.492
36516W        W   75   9.725  33.567   5.172
36517W        W   76  13.150   3.438   1.773
36518W        W   77  14.232  18.066   1.231
36519W        W   78  11.666  20.075  11.128
36520W        W   79  10.745  12.750   1.853
36521W        W   80  36.350  15.722   3.321
36522W        W   81  12.337  41.000   0.946
36523W        W   82  42.984  28.063  10.625
36524W        W   83  36.358  38.325   0.376
36525W        W   84  15.736  39.541   3.284
36526W        W   85   2.266  34.583  14.441
36527W        W   86  12.292  41.388  14.890
36528W        W   87  38.878  32.044  14.890
36529W        W   88  32.057  29.964   1.830
36530W        W   89  12.295  14.740  14.876
36531W        W   90  41.002  16.216  13.499
36532W        W   91  17.724  23.532  13.352
36533W        W   92  20.630  10.763   3.788
36534W        W   93  10.879  28.139   1.341
36535W        W   94  25.050  27.640   4.798
36536W        W   95  18.235  12.856  14.874
36537W        W   96  21.690  16.726  14.329
36538W        W   97  35.011  10.779  13.050
36539W        W   98  26.560  40.961  10.638
36540W        W   99  37.463  36.453  10.614
36541W        W  100  20.637  22.069  14.791
36542W        W  101  18.675   6.831   1.716
36543W        W  102  18.199  11.665   0.839
36544W        W  103  27.461  12.683  14.475
36545W        W  104   8.380   6.686  13.064
36546W        W  105   8.868  21.246   4.291
36547W        W  106  14.108  22.637   2.219
36548W        W  107  27.589  41.306   0.793
36549W        W  108  34.605  29.973   0.299
36550W        W  109  32.459  28.015   3.849
36551W        W  110  10.655  19.274  12.826
36552W        W  111  13.657  14.825   2.368
36553W        W  112  33.434   3.737  13.819
36554W        W  113  18.167  37.487  12.529
36555W        W  114  15.108   1.358  10.587
36556W        W  115  42.409  30.616  11.536
36557W        W  116  23.536  41.432  14.023
36558W        W  117  29.997  34.092  13.382
36559W        W  118  34.061  43.324  12.944
36560W        W  119  35.566   0.984  11.073
36561W        W  120  15.622  26.107  10.485
36562W        W  121  28.680  44.493   3.216
36563W        W  122   0.955  13.298   4.707
36564W        W  123   3.403  39.526  14.031
36565W        W  124  12.786  43.465   2.264
36566W        W  125  29.080  19.125  13.409
36567W        W  126  36.070  14.097  14.953
36568W        W  127   8.397  36.546  12.445
36569W        W  128  35.577  30.130   1.886
36570W        W  129  14.135   6.329   3.242
36571W        W  130  24.550   4.790   3.739
36572W        W  131  44.864   9.830   2.744
36573W        W  132  19.187   2.925  14.928
36574W        W  133  15.617  36.860   0.799
36575W        W  134   1.830  22.011  12.960
36576W        W  135   7.673  14.281  12.372
36577W        W  136  35.099  36.933  11.611
36578W        W  137  40.344  25.660  14.807
36579W        W  138  41.452  15.651  14.766
36580W        W  139   0.946  11.852   5.197
36581W        W  140   7.873  25.545   3.301
36582W        W  141  37.528  34.866  12.389
36583W        W  142  16.130  44.849   1.303
36584W        W  143  14.639   6.378   2.703
36585W        W  144   2.906  31.585  14.819
36586W        W  145  24.582  26.608   0.303
36587W        W  146   1.281  32.957   3.834
36588W        W  147  18.078  40.529  14.325
36589W        W  148   8.387  43.383  14.385
36590W        W  149  23.129  24.204   0.353
36591W        W  150   8.813  42.843  11.936
36592W        W  151   0.986  17.171  13.845
36593W        W  152  12.190  27.629   1.806
36594W        W  153   4.219   2.435   0.376
36595W        W  154  19.183   0.789  14.021
36596W        W  155  26.551  40.932  12.909
36597W        W  156  35.373  32.933  14.923
36598W        W  157  21.170  38.368   4.189
36599W        W  158  32.403  22.246  12.077
36600W        W  159   4.868   0.776   0.281
36601W        W  160  23.189  34.615  13.024
36602W        W  161  44.412   7.875   3.174
36603W        W  162  40.451  17.139  13.323
36604W        W  163  19.122  29.087   2.228
36605W        W  164   5.803  27.609  13.526
36606W        W  165  40.336  36.864  10.446
36607W        W  166  36.083   0.433  11.910
36608W        W  167  44.294  22.700   5.247
36609W        W  168  23.181   4.790  14.417
36610W        W  169  34.939   8.389   0.467
36611W        W  170  44.965  16.121  14.304
36612W        W  171  41.002   4.790  13.012
36613W        W  172  16.162   2.253   0.760
36614W        W  173  30.013  19.063  13.457
36615W        W  174  15.295  21.721  13.055
36616W        W  175  33.433  14.268  14.413
36617W        W  176   8.862   8.404  14.836
36618W        W  177   3.298   4.439   1.706
36619W        W  178  39.414  21.530   3.774
36620W        W  179   1.772  19.268   2.668
36621W        W  180  43.376  13.217   2.366
36622W        W  181  17.121   9.762   2.784
36623W        W  182  25.710  25.666  10.989
36624W        W  183  17.629  40.893   2.178
36625W        W  184   5.792  22.035   4.190
36626W        W  185  34.111  20.678   0.323
36627W        W  186   1.966  17.165   3.289
36628W        W  187  43.826  39.536  11.409
36629W        W  188   5.771  36.874  11.579
36630W        W  189  40.547  42.915   0.413
36631W        W  190  38.819  39.033   4.294
36632W        W  191  28.519   6.712   4.191
36633W        W  192  34.529  13.221   3.828
36634W        W  193  29.620  29.509   0.825
36635W        W  194   1.474  29.618   0.767
36636W        W  195  15.247  27.040   3.757
36637W        W  196  36.909   9.171   5.274
36638W        W  197  40.357  27.965  14.782
36639W        W  198  38.858  38.540   0.912
36640W        W  199  18.171  18.084   0.909
36641W        W  200  11.170  39.320  10.993
36642W        W  201  43.927  32.586  11.113
36643W        W  202  44.475  41.995   3.834
36644W        W  203   6.904  39.317  12.907
36645W        W  204  14.640  17.232   9.938
36646W        W  205  36.453  33.891  10.469
36647W        W  206   0.471  27.119  11.077
36648W        W  207  44.823  27.141   0.881
36649W        W  208  30.558  19.260   0.366
36650W        W  209  31.029  29.595  10.536
36651W        W  210  29.946  32.541  10.470
36652W        W  211  44.807  33.485   1.872
36653W        W  212  19.252  29.493   2.306
36654W        W  213  24.634  25.672   3.823
36655W        W  214  42.394  29.568   2.728
36656W        W  215  22.703  13.148   2.734
36657W        W  216   6.285  10.681   2.360
36658W        W  217   2.845  23.125   4.310
36659W        W  218  27.620  24.703  14.432
36660W        W  219  41.870  11.137  14.008
36661W        W  220  17.738  31.428  14.344
36662W        W  221  36.402  10.299  10.960
36663W        W  222  37.986  12.845   3.291
36664W        W  223  23.170  34.021   0.872
36665W        W  224  14.269  11.748  11.961
36666W        W  225   1.944   6.908  14.817
36667W        W  226  17.778  25.018   3.285
36668W        W  227   4.931   1.284   3.186
36669W        W  228  37.509   9.216  14.336
36670W        W  229  28.122  20.111   2.831
36671W        W  230  11.702  34.406  13.060
36672W        W  231   0.765  12.300   0.959
36673W        W  232  39.360  22.581   4.737
36674W        W  233  31.968  38.492  12.972
36675W        W  234  36.370  12.307   5.306
36676W        W  235  33.055  25.219   0.285
36677W        W  236  31.608  12.854  13.437
36678W        W  237  29.058  26.014   0.425
36679W        W  238   6.916  23.019   1.859
36680W        W  239  31.120  31.993   3.343
36681W        W  240  35.951  44.903   3.868
36682W        W  241   5.763  44.836  11.977
36683W        W  242  40.397  40.019   1.414
36684W        W  243  37.461  17.632   1.796
36685W        W  244  27.606  30.963   3.650
36686W        W  245  36.950   9.205  14.430
36687W        W  246  34.929   7.903   4.295
36688W        W  247  29.458   9.381   1.798
36689W        W  248  30.047  34.463  11.467
36690W        W  249  42.404  11.200  12.532
36691W        W  250  22.515   1.357   2.213
36692W        W  251  20.223   2.730  10.486
36693W        W  252  40.034  37.427   2.236
36694W        W  253  11.809   2.454   3.649
36695W        W  254  40.425  21.708  13.447
36696W        W  255   3.836  22.651  13.502
36697W        W  256  15.140  22.609  10.130
36698W        W  257   4.763   5.846   9.978
36699W        W  258  21.034  12.612  10.969
36700W        W  259  38.853  15.192   1.211
36701W        W  260  21.596  11.245   2.717
36702W        W  261  37.898  38.472   2.312
36703W        W  262  12.328  32.537  11.524
36704W        W  263   0.373  40.036  14.950
36705W        W  264   6.389   6.799  14.811
36706W        W  265  17.667  36.932   0.839
36707W        W  266  38.369  40.945  14.285
36708W        W  267  23.064  24.214   4.280
36709W        W  268  16.700   5.772   2.257
36710W        W  269   7.230   9.307  13.982
36711W        W  270   6.388  20.048  10.956
36712W        W  271  15.247  19.631   4.159
36713W        W  272  24.017  35.547   1.863
36714W        W  273  18.562   6.269   4.300
36715W        W  274   7.413  27.552  12.954
36716W        W  275  40.389  29.471  10.420
36717W        W  276   4.887  14.655   4.698
36718W        W  277   0.253  23.715   4.269
36719W        W  278   3.406  19.205  13.936
36720W        W  279  20.584   4.429  12.453
36721W        W  280  29.073   7.248  12.539
36722W        W  281  16.649  27.599  14.832
36723W        W  282   2.305  15.691   0.948
36724W        W  283  34.874  34.441  11.876
36725W        W  284  29.021  13.142   1.281
36726W        W  285   2.297  42.936  10.160
36727W        W  286  29.086  16.680  14.440
36728W        W  287  37.418  43.487   3.694
36729W        W  288  22.654  23.149  14.998
36730W        W  289  13.113   8.747  14.906
36731W        W  290  39.833  40.435  11.540
36732W        W  291  43.911  44.949   4.201
36733W        W  292  37.079   8.733  11.990
36734W        W  293  26.954   9.689  14.877
36735W        W  294   9.213  21.131   3.202
36736W        W  295  43.325  29.637  11.413
36737W        W  296  39.958  38.411   1.789
36738W        W  297  16.115  21.610   0.464
36739W        W  298  41.416  24.714   4.615
36740W        W  299  28.022   5.693  10.900
36741W        W  300  12.776   0.489  12.573
36742W        W  301  40.911   0.932  12.361
36743W        W  302   0.313  17.766  12.525
36744W        W  303   9.705  17.247   0.885
36745W        W  304  40.389  17.720  11.890
36746W        W  305  36.527  19.542   3.755
36747W        W  306   5.768  19.154   0.293
36748W        W  307  20.551  34.591  11.581
36749W        W  308  40.009  11.345   1.394
36750W        W  309   0.300  12.122   3.659
36751W        W  310   1.443  37.892  12.490
36752W        W  311  30.500  37.894  13.510
36753W        W  312  34.614  35.508  11.944
36754W        W  313  11.672   2.765   3.370
36755W        W  314  35.463  29.978  11.412
36756W        W  315  39.543  12.164  13.025
36757W        W  316  40.839   5.225  10.943
36758W        W  317  25.557   9.236   5.266
36759W        W  318  30.140  20.234   0.763
36760W        W  319  26.085  24.577  11.567
36761W        W  320  23.077  10.297  13.420
36762W        W  321  23.553  17.283  12.085
36763W        W  322   7.829   7.299   2.413
36764W        W  323  27.611  38.421   2.793
36765W        W  324   9.160  15.253  10.920
36766W        W  325  37.474  33.087   0.888
36767W        W  326  25.667  42.952  13.431
36768W        W  327   9.877  30.479  12.444
36769W        W  328  10.157  27.089  14.313
36770W        W  329  35.898   2.296   3.386
36771W        W  330  27.958  38.037  10.977
36772W        W  331  10.682  37.566   0.465
36773W        W  332   0.958  40.002   2.778
36774W        W  333  43.376  36.445  11.444
36775W        W  334  14.212  15.137  13.461
36776W        W  335  35.875   5.392   4.790
36777W        W  336  14.828  14.832  10.634
36778W        W  337  41.950   4.420   4.304
36779W        W  338   2.949  14.312  14.021
36780W        W  339  31.991   6.904   3.853
36781W        W  340  14.230   3.220   2.751
36782W        W  341  33.096   3.825  10.619
36783W        W  342  32.005  31.413   2.359
36784W        W  343  18.787  26.593  11.994
36785W        W  344   8.294  34.041   2.820
36786W        W  345   5.261  11.694  10.614
36787W        W  346  18.289  20.704  10.901
36788W        W  347  44.781  43.895  13.356
36789W        W  348  27.524   4.934   4.755
36790W        W  349  13.802  27.005  11.450
36791W        W  350   5.912   8.300   0.938
36792W        W  351   4.397   2.922  12.009
36793W        W  352  15.686  11.229  11.008
36794W        W  353  30.972  21.095   4.709
36795W        W  354  27.102   2.374  10.922
36796W        W  355   2.871   2.472  13.860
36797W        W  356  15.699  14.603  13.368
36798W        W  357  26.061  42.377   2.887
36799W        W  358   1.828  23.608  11.070
36800W        W  359  33.389   9.303   3.290
36801W        W  360  32.905  16.233   3.339
36802W        W  361  40.020   9.227  11.479
36803W        W  362  28.162  26.608  12.538
36804W        W  363  30.539   3.432  14.516
36805W        W  364   1.354  30.637  12.512
36806W        W  365  12.214  15.273  12.482
36807W        W  366  16.633  17.689  13.960
36808W        W  367  34.884  36.581  13.351
36809W        W  368   3.353  29.638   2.744
36810W        W  369  13.317  28.526   0.331
36811W        W  370  25.032  27.188   3.385
36812W        W  371  19.594  28.609  11.878
36813W        W  372  43.980   8.666   0.924
36814W        W  373  17.702  42.003  12.366
36815W        W  374  38.406  14.302  10.559
36816W        W  375  44.915  30.159   2.730
36817W        W  376  33.025  38.000   1.907
36818W        W  377  18.138  22.715  11.903
36819W        W  378   0.310  42.321  10.516
36820W        W  379   2.802  42.781   1.337
36821W        W  380  14.248  27.180  14.310
36822W        W  381   7.322  28.677  13.866
36823W        W  382   0.406  21.517   3.368
36824W        W  383  33.063   5.213  13.900
36825W        W  384  18.222   8.244  14.761
36826W        W  385  32.540  40.001  14.890
36827W        W  386   3.267  24.541  14.940
36828W        W  387   4.944  16.151  14.990
36829W        W  388  31.135  21.645   3.863
36830W        W  389  41.396  23.997   1.269
36831W        W  390  23.024  13.284   4.696
36832W        W  391  19.121  33.991   1.873
36833W        W  392  16.224   6.717  12.479
36834W        W  393  11.829  39.479   2.837
36835W        W  394  26.990  43.477  12.571
36836W        W  395  42.353  31.419  12.362
36837W        W  396  33.105  36.503   3.315
36838W        W  397  33.387  23.219   3.315
36839W        W  398  35.868   4.307  12.955
36840W        W  399   9.867  27.615   4.281
36841W        W  400  13.312  12.817   2.766
36842W        W  401  16.273  18.620  14.778
36843W        W  402  25.084  32.568  14.870
36844W        W  403  36.427  37.917  12.406
36845W        W  404  15.326  26.562  14.488
36846W        W  405  34.891  19.538  13.880
36847W        W  406  29.119  18.711  14.433
36848W        W  407  40.001   3.452   0.377
36849W        W  408  10.195  29.025   3.776
36850W        W  409   8.703  11.799  13.050
36851W        W  410  15.619  43.843  12.413
36852W        W  411  30.046  41.032  13.908
36853W        W  412  29.973  16.145   2.784
36854W        W  413   3.945  21.263  12.904
36855W        W  414  16.182   1.881   5.188
36856W        W  415  10.722   6.813  13.359
36857W        W  416  32.420  27.027  11.587
36858W        W  417   0.880  23.496   1.216
36859W        W  418   1.342   4.441  14.447
36860W        W  419   2.878  44.826   0.271
36861W        W  420   1.291  21.733   0.841
36862W        W  421  14.236  36.445  13.412
36863W        W  422  29.063  33.525  14.028
36864W        W  423  21.124  38.393  10.598
36865W        W  424  16.124  33.119   2.410
36866W        W  425   7.847   4.849  14.978
36867W        W  426  33.591  42.525   3.285
36868W        W  427  29.576   5.322   3.346
36869W        W  428  27.998  42.829   1.768
36870W        W  429  27.567  17.071   2.782
36871W        W  430  39.515  23.144   4.764
36872W        W  431  36.360  44.400   4.601
36873W        W  432  19.730  21.630   3.784
36874W        W  433  14.177  16.755   4.655
36875W        W  434   0.854  14.158  10.091
36876W        W  435  32.464  36.502   0.422
36877W        W  436  18.653  30.415  14.405
36878W        W  437  10.834  35.057  14.946
36879W        W  438  10.645  17.164  11.897
36880W        W  439   9.349  15.628  10.468
36881W        W  440  14.149   2.845  12.447
36882W        W  441  13.287   8.873   0.939
36883W        W  442  16.282   5.348  13.948
36884W        W  443  13.299  25.547  12.088
36885W        W  444   3.737  39.368  11.596
36886W        W  445  20.590  36.508  12.559
36887W        W  446  19.730  27.587  12.567
36888W        W  447   6.191   0.798   1.752
36889W        W  448  29.091  15.207   1.713
36890W        W  449  27.520   4.850   1.261
36891W        W  450  30.509  33.461   3.220
36892W        W  451  41.932  33.380   4.283
36893W        W  452  30.618  17.087  13.828
36894W        W  453  19.620  26.596  11.872
36895W        W  454   5.346   7.217   5.083
36896W        W  455  38.430  40.528   0.891
36897W        W  456  12.804  23.023   0.334
36898W        W  457  17.597  36.356  12.546
36899W        W  458  17.740  29.153  11.507
36900W        W  459  18.666  38.048  14.975
36901W        W  460  17.251  44.462  10.140
36902W        W  461   0.855  39.554   4.201
36903W        W  462  13.275   4.215  11.047
36904W        W  463  20.107  27.569   2.243
36905W        W  464  38.866  11.371   2.862
36906W        W  465  35.080  37.994  11.605
36907W        W  466  37.405  30.911  13.469
36908W        W  467   1.809  40.481   3.294
36909W        W  468  38.436  34.981   4.240
36910W        W  469   9.780   9.800  14.998
36911W        W  470  33.023  34.975   0.466
36912W        W  471  33.441  38.071   1.375
36913W        W  472   4.927  43.489  12.089
36914W        W  473  19.153  38.463   1.777
36915W        W  474  37.051  32.098  12.034
36916W        W  475  15.154  30.625   3.314
36917W        W  476   2.957  13.217   1.231
36918W        W  477  33.068  26.007   3.690
36919W        W  478  26.544  24.141   0.937
36920W        W  479  33.042  22.706   0.738
36921W        W  480   1.846   2.746  13.968
36922W        W  481  26.642  13.168  13.929
36923W        W  482  31.567  19.743  14.280
36924W        W  483  40.040  38.962  10.624
36925W        W  484  36.906  27.486   0.311
36926W        W  485  18.655  23.036  12.395
36927W        W  486  30.996  18.751   4.203
36928W        W  487  17.079  43.766   4.169
36929W        W  488  44.998  23.673  12.439
36930W        W  489   1.463   8.183   0.438
36931W        W  490  24.648   5.321   2.814
36932W        W  491  36.044  39.371   2.398
36933W        W  492  37.486  11.846   1.779
36934W        W  493  27.991  34.114   0.769
36935W        W  494   1.861   2.747   1.351
36936W        W  495   5.417  28.489   3.661
36937W        W  496  31.057  23.985  10.997
36938W        W  497  42.987  30.034  14.985
36939W        W  498  40.492  13.320   4.266
36940W        W  499   2.351   7.859  11.994
36941W        W  500  28.142  44.942  11.560
36942W        W  501  35.083  18.618  13.511
36943W        W  502  20.261  44.777  13.427
36944W        W  503  35.499  31.073  13.914
36945W        W  504  16.687  19.148  13.451
36946W        W  505  40.008  25.603   0.815
36947W        W  506  30.080  22.185  13.501
36948W        W  507   8.371   7.893   0.851
36949W        W  508  36.912   8.737   1.216
36950W        W  509  30.500  34.890  12.562
36951W        W  510  18.658  31.498  14.289
36952W        W  511  33.945  17.236   0.412
36953W        W  512  38.334  16.090   1.849
36954W        W  513  38.551  26.623   1.283
36955W        W  514   0.349  26.636   4.668
36956W        W  515  33.599  31.599   5.107
36957W        W  516  11.283  32.934  14.401
36958W        W  517  24.628  38.428   2.810
36959W        W  518  37.567  32.965   4.236
36960W        W  519  17.606  39.358  11.024
36961W        W  520  29.435  14.711  12.868
36962W        W  521  38.061  36.561   1.415
36963W        W  522   4.268  30.431  13.031
36964W        W  523   6.319  21.675   3.724
36965W        W  524  14.162  44.349  11.928
36966W        W  525  12.737   5.718  10.545
36967W        W  526  27.668  44.999   4.653
36968W        W  527   5.251  37.980   3.717
36969W        W  528   5.875   5.694   1.804
36970W        W  529  15.616  27.030  11.411
36971W        W  530   6.861  32.015   3.755
36972W        W  531   8.729  40.477  14.938
36973W        W  532  25.654  37.020  12.537
36974W        W  533  44.344  25.563   3.673
36975W        W  534  42.298  29.120  14.433
36976W        W  535  37.463  30.457  10.992
36977W        W  536  13.779  19.586  13.445
36978W        W  537  32.446  18.183   3.269
36979W        W  538  22.654  26.984   0.254
36980W        W  539  35.543  34.880  10.563
36981W        W  540  23.226  41.015   4.169
36982W        W  541  15.730  38.405   3.254
36983W        W  542  27.486   9.883  13.973
36984W        W  543  40.366  11.373   1.314
36985W        W  544  15.301   6.735  10.461
36986W        W  545  38.371   1.464  12.542
36987W        W  546   6.710  14.795  12.424
36988W        W  547  14.265   2.952  12.940
36989W        W  548  41.971  15.231   4.642
36990W        W  549  15.202  38.544   4.242
36991W        W  550  18.640  35.079  14.985
36992W        W  551  25.651  30.477   0.345
36993W        W  552  16.718  43.890   0.385
36994W        W  553   5.257  36.586  13.844
36995W        W  554  37.440   2.806  13.940
36996W        W  555  39.528  41.998  12.978
36997W        W  556   4.714  17.286   0.412
36998W        W  557  15.774   1.407   1.734
36999W        W  558  15.295  10.223  12.903
37000W        W  559  13.211  40.842  12.387
37001W        W  560  28.435   0.931   1.324
37002W        W  561  15.783  42.483  11.904
37003W        W  562  41.413  13.339  13.425
37004W        W  563   8.258  23.579  12.512
37005W        W  564  20.748  35.107  10.630
37006W        W  565   9.861  27.184   2.897
37007W        W  566  21.530  43.378   4.688
37008W        W  567   2.380  38.406   3.698
37009W        W  568  14.229  15.608   0.916
37010W        W  569  36.563  33.496  11.506
37011W        W  570   7.227  37.034   3.276
37012W        W  571   0.409  26.139  14.823
37013W        W  572  22.747  40.340   0.758
37014W        W  573  27.115  38.396   4.213
37015W        W  574  37.392  39.838  13.455
37016W        W  575  10.149  13.115   0.258
37017W        W  576  21.068  21.075   0.806
37018W        W  577  24.617  13.290   1.910
37019W        W  578  32.983  12.704  11.011
37020W        W  579  39.549  22.069  13.915
37021W        W  580  15.652  29.028   1.740
37022W        W  581  18.656   3.302   1.328
37023W        W  582  30.039  41.916  14.943
37024W        W  583   3.419   8.730   2.813
37025W        W  584   8.293  27.196   1.382
37026W        W  585  11.368  20.574   2.383
37027W        W  586  38.979  26.612   3.844
37028W        W  587  36.456   9.835  11.608
37029W        W  588   9.392  14.255   0.298
37030W        W  589  43.922   5.384   0.849
37031W        W  590   1.374  33.463  11.062
37032W        W  591  25.484   4.374   2.280
37033W        W  592   1.269  26.995  14.429
37034W        W  593  36.025  28.680   1.756
37035W        W  594   8.896  23.173   4.193
37036W        W  595  39.823  34.052   4.219
37037W        W  596  14.763  28.142   4.179
37038W        W  597  13.277  24.003   1.270
37039W        W  598   0.900  10.246  12.379
37040W        W  599   8.771  20.038   0.422
37041W        W  600  41.974  14.753   3.222
37042W        W  601  16.128   3.783   2.205
37043W        W  602  16.739  34.600   1.274
37044W        W  603  18.643  17.608  11.522
37045W        W  604  15.124  31.907  11.453
37046W        W  605  43.804  38.995   1.265
37047W        W  606  25.100  12.270  12.408
37048W        W  607   1.453  16.235   0.965
37049W        W  608  39.470  13.617   1.696
37050W        W  609  33.047   5.229   2.321
37051W        W  610  10.757  11.183   0.293
37052W        W  611  39.350  13.714  11.379
37053W        W  612  14.339   9.885  14.456
37054W        W  613  40.381  22.652   3.650
37055W        W  614  13.220  13.802  12.366
37056W        W  615   7.383  39.358  13.939
37057W        W  616  13.655   9.249   3.196
37058W        W  617  41.499   9.260   4.311
37059W        W  618   6.242  32.499  14.392
37060W        W  619  22.070  26.506  12.069
37061W        W  620   3.317  20.219  12.494
37062W        W  621  44.974  37.433   2.868
37063W        W  622  15.250   3.768   3.765
37064W        W  623  35.442  19.089   1.768
37065W        W  624  17.179  35.372   4.637
37066W        W  625  19.237  23.523   0.900
37067W        W  626  10.241  28.473  13.791
37068W        W  627  19.764  35.944  14.478
37069W        W  628  25.109   2.938  13.052
37070W        W  629  30.486  14.806   3.354
37071W        W  630  24.007  25.700  13.382
37072W        W  631   8.269  32.125  11.890
37073W        W  632  13.255  27.107  14.780
37074W        W  633  24.186   7.327   2.789
37075W        W  634  13.133   4.358   2.809
37076W        W  635  35.520  17.604   1.284
37077W        W  636   2.359  31.123  10.578
37078W        W  637   6.297   1.912   1.448
37079W        W  638  30.936   0.754  13.003
37080W        W  639  20.657  27.077  11.431
37081W        W  640  19.751  34.061   3.224
37082W        W  641   2.790   9.323  12.827
37083W        W  642  44.992   6.192  13.021
37084W        W  643  24.540  39.540   2.261
37085W        W  644  34.902  26.646  14.957
37086W        W  645  27.010   5.362   2.343
37087W        W  646  23.080  32.020  13.054
37088W        W  647   3.423  35.565  13.412
37089W        W  648  29.928   8.373   0.387
37090W        W  649  30.983  14.799  12.543
37091W        W  650  41.329  23.049   3.386
37092W        W  651  41.915   6.378  12.420
37093W        W  652   7.214  27.131   2.684
37094W        W  653   9.822  34.892  11.464
37095W        W  654  44.789  30.550  14.294
37096W        W  655  24.481   1.278  12.911
37097W        W  656  15.106   9.223  14.959
37098W        W  657   8.886  35.906   2.357
37099W        W  658  43.790  23.100   2.412
37100W        W  659  18.782   8.278  14.436
37101W        W  660  28.437  16.790  13.523
37102W        W  661  35.361  20.664   3.153
37103W        W  662  29.549  37.404  14.322
37104W        W  663  20.752   9.370  10.522
37105W        W  664  24.034  15.643  13.817
37106W        W  665   7.808   4.372   3.209
37107W        W  666  34.495  32.906  13.868
37108W        W  667  33.048   7.722  14.987
37109W        W  668  16.778   1.859   1.735
37110W        W  669  14.240   4.420  11.943
37111W        W  670  32.037  24.498  11.023
37112W        W  671  12.670   1.785   0.401
37113W        W  672  27.002  40.449  10.942
37114W        W  673  22.712  39.815  12.542
37115W        W  674  38.966  32.451  12.834
37116W        W  675  40.975  37.539   3.316
37117W        W  676  37.010  23.020   2.668
37118W        W  677  36.581  21.050  13.407
37119W        W  678   3.367   5.846   0.470
37120W        W  679  27.661  20.533   1.873
37121W        W  680  21.579  26.019  14.450
37122W        W  681  35.010  23.647  13.897
37123W        W  682  11.327  42.488   1.303
37124W        W  683  28.033  24.119   2.776
37125W        W  684   8.179  14.616  13.486
37126W        W  685  35.485   2.364  14.879
37127W        W  686  36.871  37.519  14.403
37128W        W  687  30.456  22.526   2.664
37129W        W  688  14.317  27.658  13.893
37130W        W  689  12.709  39.487  10.993
37131W        W  690   0.785  31.149  14.783
37132W        W  691  21.553  31.598   1.298
37133W        W  692  21.133  29.141  14.815
37134W        W  693  40.920  23.594   1.275
37135W        W  694  26.987  14.155   0.793
37136W        W  695   4.230  11.764   3.801
37137W        W  696  32.986  31.077  13.792
37138W        W  697  39.898  18.616   1.234
37139W        W  698  32.419  31.149  11.901
37140W        W  699  10.359  39.035   4.275
37141W        W  700  28.971  13.281   2.319
37142W        W  701   9.256   5.294   2.308
37143W        W  702  44.268  23.240  14.359
37144W        W  703   6.756  37.491  13.510
37145W        W  704   5.866   3.388   1.892
37146W        W  705  16.148   3.320   0.738
37147W        W  706  27.962   9.869  12.824
37148W        W  707  33.581   3.368   1.378
37149W        W  708  33.485  32.076  12.063
37150W        W  709   5.215  28.681   2.805
37151W        W  710  44.925  39.940   5.223
37152W        W  711  23.666  22.554  11.018
37153W        W  712  40.502  20.254  11.564
37154W        W  713  26.519  15.714   0.431
37155W        W  714  41.923   7.378  13.971
37156W        W  715  37.997  31.091   5.774
37157W        W  716  10.878  17.760  14.516
37158W        W  717  19.088   1.449  12.845
37159W        W  718   5.927  17.787   0.268
37160W        W  719  25.705  39.330   1.292
37161W        W  720  21.566  20.207  11.890
37162W        W  721  25.093   1.269  13.838
37163W        W  722  37.833  31.627   4.230
37164W        W  723  20.611  29.494  13.002
37165W        W  724   6.916  42.967   4.321
37166W        W  725  36.083  16.291   3.668
37167W        W  726  14.276   3.802  12.482
37168W        W  727  41.852  40.522   3.844
37169W        W  728   7.311  29.460  12.363
37170W        W  729   9.818  39.043   0.829
37171W        W  730  15.124  17.635  10.637
37172W        W  731  12.729  13.336  13.852
37173W        W  732  43.824  10.272   4.782
37174W        W  733  37.466   4.255   2.209
37175W        W  734  28.063  22.638  13.497
37176W        W  735  28.148   6.348   1.826
37177W        W  736  30.609  43.769  11.455
37178W        W  737  23.654  25.555   4.222
37179W        W  738  42.314  18.567  13.517
37180W        W  739  10.828  28.152   2.331
37181W        W  740  30.159  16.290   0.734
37182W        W  741  24.656   2.738   0.420
37183W        W  742  12.778   5.283  12.092
37184W        W  743  23.027  17.153   4.164
37185W        W  744  20.694  36.957  13.931
37186W        W  745  42.856  24.535  13.430
37187W        W  746   3.709  39.974  12.859
37188W        W  747  44.992   1.417  13.020
37189W        W  748  14.632  31.635  11.031
37190W        W  749   4.704   6.909  10.945
37191W        W  750  23.149  25.663  10.498
37192W        W  751   3.327  17.267   1.774
37193W        W  752  44.436  13.281  14.401
37194W        W  753  22.160   2.424  11.963
37195W        W  754  44.430  26.207  12.461
37196W        W  755   2.406  31.914   1.335
37197W        W  756  42.798  21.241   2.331
37198W        W  757  20.106   4.869  11.574
37199W        W  758   2.248  13.298  12.450
37200W        W  759  26.686  13.721  13.385
37201W        W  760   8.684  43.507  12.431
37202W        W  761  39.891   9.351  12.900
37203W        W  762   6.827   3.889  12.456
37204W        W  763   4.256  27.002   3.372
37205W        W  764   1.412   2.804  11.114
37206W        W  765  33.078  37.580   4.161
37207W        W  766  11.650  39.912   2.670
37208W        W  767  30.558   3.929  14.317
37209W        W  768  14.764  30.493  13.542
37210W        W  769   5.851  16.269   3.325
37211W        W  770   1.363  22.591  13.014
37212W        W  771   9.322  31.035   2.721
37213W        W  772  18.691  19.171  10.448
37214W        W  773  15.794  41.527  11.105
37215W        W  774  19.536  15.187  14.411
37216W        W  775   3.790  25.687  14.480
37217W        W  776   4.759  23.992   2.240
37218W        W  777  18.652  33.596   2.801
37219W        W  778   1.737  20.535  11.412
37220W        W  779   7.173   3.358  14.018
37221W        W  780  42.965  41.983   4.787
37222W        W  781  27.017  12.820  11.061
37223W        W  782  44.795  33.508  11.445
37224W        W  783  10.256  44.866   1.359
37225W        W  784   0.318  19.090  13.042
37226W        W  785  31.589  16.088  10.935
37227W        W  786  31.907  37.062   4.641
37228W        W  787  39.534   2.279  10.548
37229W        W  788  16.133  42.917   3.713
37230W        W  789  33.925  34.961  14.975
37231W        W  790  22.164  33.014   0.885
37232W        W  791  26.625  20.212   1.227
37233W        W  792  15.660  21.709  14.768
37234W        W  793  14.276  31.091   2.396
37235W        W  794  39.971  25.190  13.858
37236W        W  795  23.189  41.868   2.189
37237W        W  796  40.534  29.574  12.562
37238W        W  797  22.130  30.072   1.844
37239W        W  798  27.103  19.711   3.336
37240W        W  799  43.953  40.336  13.056
37241W        W  800  43.999   0.392   4.278
37242W        W  801   1.405  20.527  11.473
37243W        W  802  35.596  21.529   3.671
37244W        W  803   1.766   7.905  12.069
37245W        W  804  42.996  33.033   1.830
37246W        W  805   6.282  27.953   0.735
37247W        W  806  38.448  17.295  10.938
37248W        W  807  40.488   4.931   3.665
37249W        W  808  27.472  31.135   2.888
37250W        W  809  16.638  16.640  11.994
37251W        W  810  14.105  38.965   4.211
37252W        W  811  17.074   5.873   4.208
37253W        W  812  42.013  25.641   0.423
37254W        W  813  13.658  21.605  14.422
37255W        W  814   3.881  12.756   1.905
37256W        W  815   7.248   6.773   3.284
37257W        W  816  18.166  28.461  12.410
37258W        W  817   2.729  17.703  11.011
37259W        W  818  37.428   3.723   1.296
37260W        W  819  15.212  43.887   0.942
37261W        W  820  37.998  35.495  13.831
37262W        W  821  31.924   5.371   0.369
37263W        W  822  43.306  31.141   0.840
37264W        W  823   7.350  33.489  12.374
37265W        W  824  11.667  23.644   1.357
37266W        W  825   9.281   4.385   3.731
37267W        W  826  43.331  11.131   1.229
37268W        W  827  11.784  39.357  14.317
37269W        W  828  38.886  14.109   5.242
37270W        W  829  27.052   4.391   2.249
37271W        W  830  28.166   0.336   4.205
37272W        W  831  14.819  26.088  11.079
37273W        W  832  29.951   6.334   2.806
37274W        W  833  34.492  29.956   2.857
37275W        W  834  21.101  16.791   3.828
37276W        W  835  33.106   8.348  13.408
37277W        W  836   4.342   1.924  14.911
37278W        W  837  13.783   4.382   2.691
37279W        W  838  22.145  44.320   1.306
37280W        W  839  13.673   9.183  11.871
37281W        W  840  29.024  29.169   1.297
37282W        W  841  43.431  39.334   2.871
37283W        W  842  39.881  38.349   4.765
37284W        W  843   5.831  32.439  11.934
37285W        W  844  36.941  33.884  10.982
37286W        W  845  11.770  36.536   5.655
37287W        W  846  33.126  37.059   4.734
37288W        W  847  16.646  33.109  11.565
37289W        W  848  10.833  35.870  13.351
37290W        W  849  30.489  19.054   4.702
37291W        W  850  16.652  34.098   0.245
37292W        W  851  24.599  42.330  11.395
37293W        W  852  29.140  40.965  11.915
37294W        W  853  19.690  12.797  11.590
37295W        W  854  27.968  30.651  12.075
37296W        W  855  17.783  43.785  14.424
37297W        W  856   5.281  18.629  14.844
37298W        W  857  39.401  20.033   2.404
37299W        W  858  44.465   9.173  10.585
37300W        W  859  28.017  11.827   0.769
37301W        W  860   7.778  30.908   0.252
37302W        W  861  27.169  18.257   5.219
37303W        W  862   6.182   6.342  12.014
37304W        W  863   6.845  26.959   4.214
37305W        W  864  36.926  14.600  12.353
37306W        W  865  19.104  40.988   2.739
37307W        W  866  15.716  19.199  10.498
37308W        W  867  22.533  44.894  11.589
37309W        W  868  29.175   5.218  13.962
37310W        W  869  26.081  42.433   0.347
37311W        W  870  44.988  39.478   3.725
37312W        W  871   8.241  44.342   0.730
37313W        W  872  14.820   3.835   2.869
37314W        W  873  23.073  21.114   4.618
37315W        W  874  31.927   9.710  14.433
37316W        W  875  18.181   1.903  14.420
37317W        W  876  28.161   4.742   5.257
37318W        W  877  16.288   5.910   4.228
37319W        W  878  42.998  27.651  10.971
37320W        W  879   2.760  35.109   3.829
37321W        W  880  23.651  42.513  11.068
37322W        W  881  10.360  16.620  13.490
37323W        W  882   6.856  40.416  10.526
37324W        W  883  22.117  17.287  12.915
37325W        W  884  13.328  26.462  11.549
37326W        W  885   9.710  11.129   1.902
37327W        W  886  35.382   1.925   0.928
37328W        W  887  12.153  41.326   1.222
37329W        W  888  20.131  14.139   2.363
37330W        W  889  32.025  38.843   2.348
37331W        W  890  33.064  14.118   4.690
37332W        W  891   0.838  44.270   3.866
37333W        W  892  40.837  36.453   2.195
37334W        W  893  44.352  43.973  13.423
37335W        W  894  23.051  12.639  12.861
37336W        W  895  33.429  34.982  14.286
37337W        W  896  41.320  24.591   0.468
37338W        W  897  22.511  34.391  13.958
37339W        W  898   3.306  11.215  11.380
37340W        W  899  33.940  13.608  10.966
37341W        W  900  15.316  11.240   4.783
37342W        W  901  24.695  39.532   4.128
37343W        W  902  20.262   1.956  10.542
37344W        W  903  10.292  33.098   0.385
37345W        W  904  34.975  29.458  12.950
37346W        W  905  28.142  29.126  13.971
37347W        W  906  25.541  25.569  10.634
37348W        W  907  42.014  24.113   0.966
37349W        W  908  16.607  44.454   4.817
37350W        W  909   6.304  39.989   0.344
37351W        W  910  25.066  10.382   0.831
37352W        W  911  12.616   2.744   4.612
37353W        W  912   7.789  14.719  12.897
37354W        W  913  21.051   0.263  14.357
37355W        W  914   3.719  35.493   3.726
37356W        W  915  23.664  39.363  13.451
37357W        W  916  24.631  24.163   3.149
37358W        W  917  33.493  40.307  14.856
37359W        W  918  25.485  42.345   0.455
37360W        W  919  27.097  25.018  13.920
37361W        W  920  43.875  18.648   2.287
37362W        W  921  35.396   6.710   2.890
37363W        W  922  28.984  23.212   3.815
37364W        W  923   2.374  20.626   1.211
37365W        W  924   3.875   9.269  12.885
37366W        W  925   9.318  22.057   0.364
37367W        W  926   0.491   0.481  11.562
37368W        W  927  22.230  21.704  12.002
37369W        W  928   0.366  36.030   3.665
37370W        W  929  32.589  31.995   3.690
37371W        W  930   6.765  13.808   3.311
37372W        W  931  43.493  26.648  12.960
37373W        W  932  11.648  10.267  13.397
37374W        W  933   9.857  23.179   1.260
37375W        W  934   7.686   1.423  10.967
37376W        W  935   8.308   1.283  10.436
37377W        W  936  13.638  19.689   3.346
37378W        W  937  23.706  22.068  13.793
37379W        W  938  39.877  29.664   3.675
37380W        W  939  20.227   9.663  11.383
37381W        W  940  19.673  28.533  14.835
37382W        W  941  29.474  30.130   0.923
37383W        W  942   2.404  27.654   2.742
37384W        W  943  21.580  25.530   0.387
37385W        W  944  39.998  31.123   4.764
37386W        W  945  26.505  12.629   4.253
37387W        W  946  33.102   7.771  11.492
37388W        W  947  26.093  10.172   2.396
37389W        W  948  32.111   3.261  14.851
37390W        W  949  23.578  24.578   2.724
37391W        W  950   6.319  39.047   1.816
37392W        W  951  24.180  34.391   1.440
37393W        W  952  28.143  20.549  12.059
37394W        W  953  44.342  20.702   3.804
37395W        W  954  24.685   9.755   5.621
37396W        W  955  35.560  30.610   2.771
37397W        W  956  42.480   0.790  10.555
37398W        W  957  42.353  14.684   1.704
37399W        W  958  43.496  43.386  11.118
37400W        W  959  20.617  38.448   2.358
37401W        W  960  24.022   2.388   3.278
37402W        W  961  10.855  35.964  14.808
37403W        W  962  31.402  14.684  12.425
37404W        W  963  39.971  17.651   0.449
37405W        W  964   9.231  34.413  11.965
37406W        W  965  33.409  37.842  13.988
37407W        W  966  30.456  36.450   2.359
37408W        W  967  11.720  34.501   0.948
37409W        W  968  36.536  18.267  10.407
37410W        W  969   8.752   9.752  13.939
37411W        W  970  10.246   2.749   2.291
37412W        W  971  26.578   7.292  11.378
37413W        W  972  34.912  33.900  12.565
37414W        W  973  23.217  34.505  14.349
37415W        W  974  20.064  23.026  13.312
37416W        W  975  21.235   8.719  10.030
37417W        W  976  19.770   5.333   2.738
37418W        W  977   9.358  13.284  14.020
37419W        W  978  44.796  34.990  10.613
37420W        W  979  26.505  19.732   0.795
37421W        W  980   4.885  34.989  14.438
37422W        W  981  11.314   5.802  14.450
37423W        W  982  31.102  35.512  13.799
37424W        W  983   0.419  13.106  11.393
37425W        W  984  44.436  18.151   4.237
37426W        W  985  24.599   1.451   4.326
37427W        W  986  41.819   3.730   1.394
37428W        W  987   3.385  29.647   3.649
37429W        W  988  20.086   7.343  14.484
37430W        W  989  33.486  30.995  13.935
37431W        W  990  26.181  33.563   0.816
37432W        W  991  25.003  11.781   4.190
37433W        W  992  37.447  24.575   0.937
37434W        W  993  16.626  17.698  12.025
37435W        W  994  43.424   5.349   2.739
37436W        W  995  27.034  17.614  10.619
37437W        W  996   1.382  39.979  11.067
37438W        W  997   6.745   3.321   0.264
37439W        W  998   0.845  22.124   1.833
37440W        W  999  29.606  21.643   3.256
37441W        W 1000  36.353  15.299  14.024
37442W        W 1001  18.631   0.760   4.277
37443W        W 1002   3.324   0.917   1.393
37444W        W 1003  42.995   4.344   0.927
37445W        W 1004  35.400   4.360   4.833
37446W        W 1005  20.162   6.412  12.484
37447W        W 1006  28.956   0.310   1.867
37448W        W 1007  14.194  31.412  12.897
37449W        W 1008  26.590  17.257   3.173
37450W        W 1009   2.289  26.646  10.630
37451W        W 1010  29.120  11.643  13.960
37452W        W 1011  36.521  28.987   3.291
37453W        W 1012  42.903  12.240   1.260
37454W        W 1013  16.789  36.888   0.799
37455W        W 1014  43.932   1.781  14.381
37456W        W 1015  24.653  17.617   3.766
37457W        W 1016   2.861   2.862   0.248
37458W        W 1017  21.081  22.126   0.456
37459W        W 1018  29.626  37.048  14.864
37460W        W 1019  24.099   4.350   3.658
37461W        W 1020  34.018  19.114   0.331
37462W        W 1021  23.050  24.700  13.992
37463W        W 1022  11.365   7.335  12.990
37464W        W 1023  43.988  19.626   3.757
37465W        W 1024   3.723  10.862  11.991
37466W        W 1025  15.196  16.648   0.735
37467W        W 1026  12.219  24.673   4.668
37468W        W 1027  26.981  41.817  12.041
37469W        W 1028  37.529  10.142   3.660
37470W        W 1029   7.716  28.453  14.815
37471W        W 1030   2.366  27.476  12.003
37472W        W 1031  25.184  41.527  11.409
37473W        W 1032  34.913  26.699  10.911
37474W        W 1033  16.078  38.024   3.636
37475W        W 1034   7.856  20.229  10.469
37476W        W 1035  34.863  44.857  14.787
37477W        W 1036  37.501  15.626   0.928
37478W        W 1037  41.990  18.211   0.245
37479W        W 1038  17.764  17.755   3.823
37480W        W 1039   2.875  30.577   0.386
37481W        W 1040  43.948  40.454  12.495
37482W        W 1041   4.227  23.533   4.191
37483W        W 1042  37.527  43.326  14.438
37484W        W 1043  21.682  44.960   0.858
37485W        W 1044  18.163  30.436   1.288
37486W        W 1045   0.436  42.287  13.821
37487W        W 1046   0.772  36.930   2.307
37488W        W 1047  19.063   6.291   0.861
37489W        W 1048  34.047  17.693   1.715
37490W        W 1049  32.897  14.649  12.553
37491W        W 1050  27.677  34.554   4.125
37492W        W 1051   8.660  27.990  13.951
37493W        W 1052  15.128  33.130   3.240
37494W        W 1053  30.644  42.019  10.987
37495W        W 1054  34.043  42.997  14.912
37496W        W 1055  41.314   6.411  10.924
37497W        W 1056  29.452   7.264  12.031
37498W        W 1057  21.516  33.459  14.416
37499W        W 1058  37.575  40.883   0.466
37500W        W 1059   0.929  22.569  14.765
37501W        W 1060  37.026  16.133   3.630
37502W        W 1061  31.629  37.511   5.279
37503W        W 1062   2.265   4.298   4.262
37504W        W 1063  41.893   7.408  11.054
37505W        W 1064  32.507  28.967  12.964
37506W        W 1065  24.658   5.813   2.413
37507W        W 1066  20.210   6.856   1.378
37508W        W 1067  41.942  16.280  10.619
37509W        W 1068  34.085  42.019  10.630
37510W        W 1069  10.741   0.917   3.170
37511W        W 1070  30.575  20.617  12.877
37512W        W 1071  27.587  36.494   3.320
37513W        W 1072   6.364  13.213   2.678
37514W        W 1073  20.733  30.487   3.183
37515W        W 1074  35.579  34.946  12.414
37516W        W 1075  16.737  18.715   4.240
37517W        W 1076   5.415   0.959   2.700
37518W        W 1077  20.756  42.527   0.388
37519W        W 1078  23.551  26.985   3.252
37520W        W 1079  25.979  12.775   0.380
37521W        W 1080  20.715  24.653   0.332
37522W        W 1081  14.219  10.342  14.422
37523W        W 1082  41.932  25.521   3.639
37524W        W 1083  43.499  34.539   3.187
37525W        W 1084  18.254  15.597  10.911
37526W        W 1085   0.931  37.965   1.404
37527W        W 1086  42.820  41.391   2.207
37528W        W 1087  18.191  22.225  13.967
37529W        W 1088  44.830  18.545   4.775
37530W        W 1089  16.597  38.539  14.903
37531W        W 1090   3.733  23.204  14.950
37532W        W 1091  32.584   7.871   1.433
37533W        W 1092  36.919  21.150  13.545
37534W        W 1093  14.664   5.851  14.289
37535W        W 1094  23.075  29.099   5.297
37536W        W 1095   5.223  31.569  11.072
37537W        W 1096  27.197  20.527  10.530
37538W        W 1097  33.520  19.275  13.955
37539W        W 1098  43.955  43.891   0.955
37540W        W 1099  21.703  40.033   4.134
37541W        W 1100  18.762  33.548   9.964
37542W        W 1101  19.174   1.754  14.030
37543W        W 1102  40.548  40.959   2.195
37544W        W 1103   6.904  35.447  12.832
37545W        W 1104  23.509  27.130   4.185
37546W        W 1105   5.876  34.081   0.871
37547W        W 1106   9.255   4.301  14.455
37548W        W 1107  13.318  36.484   4.772
37549W        W 1108  11.169   2.444  13.916
37550W        W 1109  14.813  10.302   0.762
37551W        W 1110   2.273   1.828  11.584
37552W        W 1111  33.052  18.066  11.128
37553W        W 1112   3.831  33.942  14.834
37554W        W 1113  35.473  27.615  13.459
37555W        W 1114  42.862  30.155   1.722
37556W        W 1115  26.635   2.908  12.529
37557W        W 1116   1.327  41.469  11.594
37558W        W 1117  31.597  40.421   2.716
37559W        W 1118  14.127  11.640  10.971
37560W        W 1119   1.912  19.081  14.797
37561W        W 1120  27.527  25.077  13.419
37562W        W 1121  32.984  29.149  11.590
37563W        W 1122  35.528  16.249   2.812
37564W        W 1123  23.579  32.096   0.926
37565W        W 1124  34.368  31.611  12.991
37566W        W 1125  32.036  37.488   0.442
37567W        W 1126  24.693  39.354  13.945
37568W        W 1127   4.406   8.266   3.835
37569W        W 1128   6.218  36.000   4.701
37570W        W 1129  42.970  36.038   2.285
37571W        W 1130  21.229  42.928  13.375
37572W        W 1131  22.068  37.940  10.444
37573W        W 1132  35.538  11.289  13.510
37574W        W 1133  22.686  26.105  10.539
37575W        W 1134  34.491  27.063   3.654
37576W        W 1135   6.267   8.172  14.799
37577W        W 1136  40.963  11.207   0.402
37578W        W 1137  31.606   2.732  11.028
37579W        W 1138  35.969  32.937   1.801
37580W        W 1139  12.317   6.826   2.802
37581W        W 1140  35.597  15.728  12.400
37582W        W 1141  35.428  42.797  12.368
37583W        W 1142  10.289  19.629   2.360
37584W        W 1143  11.771   2.316  11.011
37585W        W 1144  18.681  21.144   1.305
37586W        W 1145  40.493  20.687  12.339
37587W        W 1146   7.323  34.591   3.665
37588W        W 1147  33.094  42.782   3.241
37589W        W 1148  25.127  43.309   1.834
37590W        W 1149   9.833  16.769   0.796
37591W        W 1150  29.520  25.078   1.427
37592W        W 1151  23.013  15.619   4.722
37593W        W 1152  12.653  36.861  12.047
37594W        W 1153   4.784   4.712   1.751
37595W        W 1154  16.178  10.691  13.905
37596W        W 1155  31.438   7.288  10.935
37597W        W 1156  42.006  28.663   0.820
37598W        W 1157  39.553  40.881   4.784
37599W        W 1158  44.001  19.590  12.561
37600W        W 1159  25.508   7.850   0.324
37601W        W 1160  25.996  14.606  12.831
37602W        W 1161  10.769  21.710   2.265
37603W        W 1162   3.811   1.414  12.849
37604W        W 1163  33.957  15.627  12.423
37605W        W 1164  18.078  19.705   3.718
37606W        W 1165  40.046  10.145   0.261
37607W        W 1166   6.402  17.567   3.250
37608W        W 1167  31.121  14.592   3.180
37609W        W 1168  41.940  28.536   3.704
37610W        W 1169   1.959  24.615   2.278
37611W        W 1170  26.482  28.024  14.809
37612W        W 1171  13.329  15.089   0.902
37613W        W 1172  23.548   6.684   1.861
37614W        W 1173  25.486  40.403   3.798
37615W        W 1174  25.092  42.441  12.030
37616W        W 1175  25.101  14.813  10.899
37617W        W 1176  13.249  16.229   0.276
37618W        W 1177  24.588  44.409   3.294
37619W        W 1178  35.873  11.710   1.917
37620W        W 1179  39.520  22.097  12.388
37621W        W 1180   3.441  23.559  13.859
37622W        W 1181  42.434   4.379  14.977
37623W        W 1182  18.128  17.620   1.244
37624W        W 1183   0.943   7.766  14.434
37625W        W 1184  39.347  22.023  14.362
37626W        W 1185  35.959  15.302   4.808
37627W        W 1186  41.499  16.083   4.251
37628W        W 1187   7.194  36.473  13.320
37629W        W 1188  31.107  24.146  11.410
37630W        W 1189  16.301  16.768  10.967
37631W        W 1190  35.939  11.327  10.505
37632W        W 1191   9.269  41.875   2.807
37633W        W 1192  13.301  42.962   2.762
37634W        W 1193   2.739  42.314   2.733
37635W        W 1194  37.972  14.337  12.442
37636W        W 1195  14.622  42.518  12.935
37637W        W 1196  18.758  27.942   1.225
37638W        W 1197   3.906  17.773  11.986
37639W        W 1198  17.630  20.577   0.388
37640W        W 1199   4.370  38.827   2.712
37641W        W 1200  15.795  13.315   3.155
37642W        W 1201   6.754   5.748   1.316
37643W        W 1202  12.297  21.066   1.895
37644W        W 1203  14.729  19.219   4.244
37645W        W 1204  27.504  32.980  12.946
37646W        W 1205  19.703  40.959  14.357
37647W        W 1206  38.871  20.623  14.419
37648W        W 1207  35.505   2.234  12.985
37649W        W 1208  15.129  27.104   1.303
37650W        W 1209  24.123  38.373  13.037
37651W        W 1210  38.511   0.789   2.180
37652W        W 1211  10.828   7.297  12.404
37653W        W 1212  10.800   0.775   4.335
37654W        W 1213  25.583  43.939  12.014
37655W        W 1214   2.916  29.646  11.927
37656W        W 1215   2.314   7.753   3.797
37657W        W 1216  24.555  43.438   0.331
37658W        W 1217  13.302  20.717  13.331
37659W        W 1218   6.689  44.938   4.809
37660W        W 1219   0.358  15.091  13.436
37661W        W 1220  22.557  26.027   1.733
37662W        W 1221  27.176  21.698  13.800
37663W        W 1222  19.150   1.814  12.972
37664W        W 1223   8.187  17.617   4.625
37665W        W 1224  30.128  43.913  10.599
37666W        W 1225   5.844   6.279  13.905
37667W        W 1226  32.021  14.730   3.819
37668W        W 1227   0.282  40.328   3.705
37669W        W 1228   2.856  21.193   1.218
37670W        W 1229  15.268  26.122   2.814
37671W        W 1230  20.211  39.854   2.200
37672W        W 1231  17.179  27.573  11.439
37673W        W 1232  34.559  44.353  14.887
37674W        W 1233  31.918  30.641   2.225
37675W        W 1234   7.700  29.120  14.301
37676W        W 1235  29.144  27.448   1.899
37677W        W 1236  30.961   6.351   2.809
37678W        W 1237  36.562  40.471   3.748
37679W        W 1238   3.350  20.573  10.096
37680W        W 1239  29.071   3.840   4.155
37681W        W 1240  44.759  11.759  13.858
37682W        W 1241   4.214  10.706  12.407
37683W        W 1242   5.383  44.477   9.967
37684W        W 1243  19.702  24.481  11.450
37685W        W 1244  32.099  33.440  10.638
37686W        W 1245   0.902  20.582  14.491
37687W        W 1246   4.233   9.753  11.592
37688W        W 1247  27.676   1.362  12.426
37689W        W 1248   2.365  26.527   0.414
37690W        W 1249  14.780  10.167   3.181
37691W        W 1250  18.252  43.808  12.463
37692W        W 1251  29.501  26.184  14.477
37693W        W 1252   8.660  35.005  14.767
37694W        W 1253  23.986  28.103   1.729
37695W        W 1254  42.428  30.939   1.910
37696W        W 1255  37.887  29.015  14.359
37697W        W 1256  24.213  22.209   2.406
37698W        W 1257  12.615  30.915   3.717
37699W        W 1258  20.234  17.622  12.393
37700W        W 1259   9.780  34.069   5.238
37701W        W 1260   0.742   4.229   0.242
37702W        W 1261  29.066  31.476   0.855
37703W        W 1262  43.878  33.532  10.577
37704W        W 1263  25.202   2.312   0.857
37705W        W 1264   9.346   2.339  11.439
37706W        W 1265  26.508  35.377   2.765
37707W        W 1266  18.089  19.719   1.376
37708W        W 1267  32.586  11.140  10.625
37709W        W 1268  35.444   4.216   3.266
37710W        W 1269  34.615   8.769  10.959
37711W        W 1270  37.893  28.498  14.918
37712W        W 1271  21.616   6.817   0.828
37713W        W 1272  43.430  36.976   3.677
37714W        W 1273   5.306   4.297   0.334
37715W        W 1274  22.068  21.569  14.308
37716W        W 1275   2.948   5.798  11.045
37717W        W 1276  12.308  37.081  11.930
37718W        W 1277  29.949   1.775   4.750
37719W        W 1278  18.731  25.146  11.456
37720W        W 1279  31.105   7.858  13.970
37721W        W 1280   2.472   4.760  13.020
37722W        W 1281  30.933  27.596  13.359
37723W        W 1282  24.018  15.618  10.124
37724W        W 1283   6.724  35.889   3.347
37725W        W 1284  11.187  14.781   9.984
37726W        W 1285  41.039   7.390   2.325
37727W        W 1286   6.217  17.604  11.981
37728W        W 1287   5.723  11.824   0.406
37729W        W 1288  22.157  17.272   3.319
37730W        W 1289  36.052  28.965   4.139
37731W        W 1290   5.798  22.036  14.955
37732W        W 1291   4.392  34.085   0.390
37733W        W 1292  37.831  25.158  11.948
37734W        W 1293  40.459   0.906  10.625
37735W        W 1294  31.989   4.357   1.423
37736W        W 1295  12.176  44.457   1.849
37737W        W 1296  12.205  34.962  13.548
37738W        W 1297  42.837  37.355  12.377
37739W        W 1298  20.268  37.453   0.774
37740W        W 1299  16.611  16.603  10.915
37741W        W 1300  39.926  29.477  13.341
37742W        W 1301  27.045  43.297   4.766
37743W        W 1302   1.811  25.556   4.704
37744W        W 1303   9.750   6.716   4.259
37745W        W 1304  18.131  41.526  12.941
37746W        W 1305   9.346  28.511   2.247
37747W        W 1306  28.171  14.255   0.478
37748W        W 1307  43.405  11.627   4.824
37749W        W 1308  33.962  43.838  13.802
37750W        W 1309  17.732   1.350   4.147
37751W        W 1310   9.232  38.827   0.269
37752W        W 1311  10.317  44.904  12.066
37753W        W 1312  13.125  37.997   2.670
37754W        W 1313  33.915  11.169  10.953
37755W        W 1314  26.062   3.818  14.780
37756W        W 1315   7.755  27.648   3.699
37757W        W 1316  38.844  16.237  10.486
37758W        W 1317  11.325   2.294  10.915
37759W        W 1318  30.472  16.761   2.306
37760W        W 1319  42.347  11.645  11.101
37761W        W 1320  28.982  16.178   1.396
37762W        W 1321   2.737  23.145  11.406
37763W        W 1322  44.796  43.842  14.873
37764W        W 1323  42.324   3.411  12.864
37765W        W 1324  37.371  28.976   0.458
37766W        W 1325  16.650  24.551   4.615
37767W        W 1326  34.589  19.269   4.830
37768W        W 1327  19.549  12.242  13.510
37769W        W 1328  13.219   9.683  14.889
37770W        W 1329  44.798  23.148  11.390
37771W        W 1330  13.815  18.213  10.443
37772W        W 1331  28.654  35.505   2.402
37773W        W 1332   5.906   2.263  12.934
37774W        W 1333  32.477  29.504  14.432
37775W        W 1334  36.887  20.100  14.476
37776W        W 1335   8.724   9.791  14.868
37777W        W 1336  20.244  37.062   3.700
37778W        W 1337   5.919  41.886   1.736
37779W        W 1338  19.239   0.447   2.796
37780W        W 1339   1.839   9.659  12.085
37781W        W 1340   3.888  26.001  12.554
37782W        W 1341  17.650  32.508   2.901
37783W        W 1342  23.707  13.162   0.409
37784W        W 1343  24.000  12.247  13.950
37785W        W 1344   5.891  28.128  13.933
37786W        W 1345  32.131  14.303  10.508
37787W        W 1346  41.363   9.309  12.826
37788W        W 1347  43.813  17.288  10.889
37789W        W 1348  31.524  11.694  12.507
37790W        W 1349   2.962  27.187  12.362
37791W        W 1350  21.036  24.679   3.753
37792W        W 1351  32.394  37.836  10.923
37793W        W 1352  29.056  12.200   4.752
37794W        W 1353  29.513  17.606   4.121
37795W        W 1354  16.104  44.322  12.429
37796W        W 1355  43.814  25.564  14.787
37797W        W 1356  18.080  34.537   4.161
37798W        W 1357  19.643  18.764  14.814
37799W        W 1358  22.673  39.904   9.967
37800W        W 1359   8.327  22.018  11.946
37801W        W 1360  32.466  42.855  13.321
37802W        W 1361  27.484  22.746  13.963
37803W        W 1362  20.676  28.516  10.598
37804W        W 1363  44.360   1.237  13.410
37805W        W 1364   2.818  16.317  10.632
37806W        W 1365  33.028  42.334  13.344
37807W        W 1366  38.860  43.795   4.666
37808W        W 1367  21.752   4.302   0.729
37809W        W 1368   8.679  31.466   1.424
37810W        W 1369  16.133  16.803  14.279
37811W        W 1370  17.659   6.424   1.698
37812W        W 1371  28.582  15.734  14.892
37813W        W 1372  12.231  44.913  11.432
37814W        W 1373  25.585  17.091   2.811
37815W        W 1374  21.634  30.965  13.500
37816W        W 1375  15.313   2.331  14.979
37817W        W 1376   0.418  42.923   3.841
37818W        W 1377  22.063  16.265  14.943
37819W        W 1378  37.020  15.789  11.964
37820W        W 1379   3.302  19.075   3.271
37821W        W 1380  31.488  40.490   1.374
37822W        W 1381  40.435  37.085  13.811
37823W        W 1382  10.699  25.041   2.765
37824W        W 1383  21.589  38.548   1.756
37825W        W 1384  23.647  17.634   3.835
37826W        W 1385  26.048  34.014  13.035
37827W        W 1386  34.022   9.156   0.821
37828W        W 1387  19.116  13.601   3.852
37829W        W 1388  17.219   4.394  12.977
37830W        W 1389  23.198  14.174   3.666
37831W        W 1390  26.969  10.268  12.883
37832W        W 1391  10.207  33.914  14.454
37833W        W 1392  28.090   4.311  10.601
37834W        W 1393   0.819  20.557   2.842
37835W        W 1394   3.929  33.449   4.149
37836W        W 1395  38.566  39.916   0.727
37837W        W 1396   0.273  21.214  14.937
37838W        W 1397  29.011   5.247  14.840
37839W        W 1398  18.229  25.200  11.959
37840W        W 1399  10.284  28.107  11.482
37841W        W 1400  25.023  14.764  13.792
37842W        W 1401  21.201  44.487   0.427
37843W        W 1402  13.831  18.196   2.317
37844W        W 1403  11.204   6.820   0.409
37845W        W 1404  31.057  10.207   9.960
37846W        W 1405  14.833  17.164  14.920
37847W        W 1406  32.494  32.065  11.608
37848W        W 1407  33.479  32.392   1.934
37849W        W 1408  22.033  38.489  11.566
37850W        W 1409  28.591  28.523  12.978
37851W        W 1410  44.435  29.427   0.921
37852W        W 1411  40.376  23.140  13.319
37853W        W 1412  30.604  15.122   1.431
37854W        W 1413   5.753  15.219  14.308
37855W        W 1414  15.146  13.749  12.890
37856W        W 1415  29.105  15.580   2.263
37857W        W 1416  27.569   9.656  14.891
37858W        W 1417  22.167  35.362  13.858
37859W        W 1418  36.409  36.878  14.443
37860W        W 1419  31.044  19.074   2.298
37861W        W 1420   8.222  13.139  12.848
37862W        W 1421   2.326   8.227   2.767
37863W        W 1422  24.155  22.212   5.109
37864W        W 1423   7.822  30.925   2.342
37865W        W 1424  18.271  38.845   3.222
37866W        W 1425  20.079   2.842  14.816
37867W        W 1426  23.215  27.688   3.147
37868W        W 1427  37.998  37.339   4.239
37869W        W 1428  40.417  42.287   4.691
37870W        W 1429  16.282  24.658   4.332
37871W        W 1430  11.241  11.324  14.766
37872W        W 1431   9.242  43.765   0.463
37873W        W 1432  25.519   7.224   0.770
37874W        W 1433  22.110  12.322   5.715
37875W        W 1434  21.073   7.737  11.108
37876W        W 1435  43.947  28.110   4.132
37877W        W 1436  25.070   1.948   1.803
37878W        W 1437  24.221  41.909   0.309
37879W        W 1438   9.862  22.739   2.387
37880W        W 1439  12.790   6.891  10.933
37881W        W 1440   0.781  34.871  12.572
37882W        W 1441   5.796  40.882   1.442
37883W        W 1442  32.481   2.250   4.239
37884W        W 1443  18.100  28.186  11.560
37885W        W 1444  11.743  24.483  14.982
37886W        W 1445  15.227  28.454  12.907
37887W        W 1446  14.688  43.413   0.838
37888W        W 1447  28.627  35.091   3.244
37889W        W 1448  18.296  22.023  12.085
37890W        W 1449   7.258  36.378   0.739
37891W        W 1450  34.537  16.176  13.980
37892W        W 1451  24.690   2.426   4.835
37893W        W 1452  37.447  10.879   0.458
37894W        W 1453  22.610   0.478   1.403
37895W        W 1454  13.144  24.208   0.479
37896W        W 1455  44.379  16.660   2.787
37897W        W 1456  15.643  33.984   0.850
37898W        W 1457   2.910  18.259   2.691
37899W        W 1458  14.163  17.069  13.804
37900W        W 1459  16.576  21.579  14.789
37901W        W 1460  25.110  31.404  11.984
37902W        W 1461  20.120  25.157   3.286
37903W        W 1462  14.814  43.315  10.572
37904W        W 1463   2.890  17.687   0.744
37905W        W 1464  25.522  25.010  14.464
37906W        W 1465  11.306  18.237   0.275
37907W        W 1466  12.177   6.242  13.980
37908W        W 1467  30.430  34.536  11.073
37909W        W 1468   6.725  13.621  13.390
37910W        W 1469  39.403  10.267   3.772
37911W        W 1470  41.836  10.185   4.642
37912W        W 1471  31.076   8.293  12.455
37913W        W 1472  10.821   0.861  14.768
37914W        W 1473   7.365  34.892  10.921
37915W        W 1474  18.140  10.378   0.480
37916W        W 1475   2.954   5.329  14.823
37917W        W 1476  36.857   8.218  11.485
37918W        W 1477  24.213   4.415   2.811
37919W        W 1478   2.724   3.867   4.314
37920W        W 1479  37.922   7.720  14.930
37921W        W 1480  43.886  17.571  11.019
37922W        W 1481  26.496  17.234   2.362
37923W        W 1482   6.676  29.517   3.328
37924W        W 1483  32.973  17.581  12.867
37925W        W 1484  19.568  41.404  14.313
37926W        W 1485  15.169  13.306  13.412
37927W        W 1486  19.187   8.735  14.853
37928W        W 1487  13.753  18.583  14.782
37929W        W 1488  13.656  36.429   0.449
37930W        W 1489  39.528  36.076   2.872
37931W        W 1490  29.485   0.378  11.966
37932W        W 1491   5.417  40.306   1.318
37933W        W 1492  25.006  12.300   1.260
37934W        W 1493  38.415  41.873   4.320
37935W        W 1494  29.918  26.563   2.860
37936W        W 1495  40.864  43.277  11.494
37937W        W 1496  43.446  27.003  12.536
37938W        W 1497  43.455   8.759  14.984
37939W        W 1498  22.100  36.580   4.157
37940W        W 1499  37.002   4.374   0.939
37941W        W 1500  39.497  19.079   1.831
37942W        W 1501  12.269  23.066  14.481
37943W        W 1502   1.860  32.992   2.349
37944W        W 1503  28.172  17.191   1.230
37945W        W 1504  38.457  17.670  10.514
37946W        W 1505   1.898  13.209  12.351
37947W        W 1506  24.075  22.585   5.290
37948W        W 1507  27.651  44.277   3.643
37949W        W 1508  19.710  28.526   5.134
37950W        W 1509  37.868  10.840  12.824
37951W        W 1510  38.873   5.852   0.828
37952W        W 1511  12.723  28.989  10.490
37953W        W 1512  20.639  28.437  12.408
37954W        W 1513  43.019  38.374   1.878
37955W        W 1514   4.763  44.856   4.750
37956W        W 1515   3.776  15.211   1.765
37957W        W 1516  42.440  28.989  11.388
37958W        W 1517  11.315  15.219  11.910
37959W        W 1518   6.851  10.308  10.531
37960W        W 1519  12.745  14.325  13.343
37961W        W 1520   9.249  16.215  13.337
37962W        W 1521  15.206   0.379   1.768
37963W        W 1522  29.980  13.207  11.959
37964W        W 1523  10.792  15.176   0.359
37965W        W 1524   6.698  28.518   1.224
37966W        W 1525  10.298  30.910   3.326
37967W        W 1526  22.536  17.693   1.876
37968W        W 1527   1.799  16.096   3.808
37969W        W 1528   7.865  10.381   2.243
37970W        W 1529  25.512  18.650   2.223
37971W        W 1530  25.550   4.835   1.282
37972W        W 1531  33.959   3.899  12.005
37973W        W 1532   0.908  36.964   4.157
37974W        W 1533  23.168   2.360   3.733
37975W        W 1534   2.438  17.751  14.005
37976W        W 1535  21.592  17.645  12.080
37977W        W 1536   2.935  12.761  13.899
37978W        W 1537  22.593  18.221   4.747
37979W        W 1538  24.722   8.383   3.246
37980W        W 1539  14.204  17.573  13.850
37981W        W 1540  12.166  12.622   2.275
37982W        W 1541  40.530   8.393   2.891
37983W        W 1542   5.253   5.788  14.823
37984W        W 1543  14.223  10.140  10.002
37985W        W 1544  37.027  19.698  13.434
37986W        W 1545   0.869  29.440   2.268
37987W        W 1546  37.374  34.588  11.911
37988W        W 1547  36.467  38.956   0.331
37989W        W 1548  41.392  15.171  12.921
37990W        W 1549  39.026  15.805   3.192
37991W        W 1550  24.615   6.697  10.506
37992W        W 1551  39.420  21.084   3.740
37993W        W 1552  37.434  23.584   1.406
37994W        W 1553  26.154  14.269   3.733
37995W        W 1554  13.220  26.973  10.436
37996W        W 1555   1.315  20.711   3.316
37997W        W 1556   3.353  28.642  13.855
37998W        W 1557  17.599   0.305  13.396
37999W        W 1558  34.441  15.102   1.883
38000W        W 1559   4.234  27.523   3.792
38001W        W 1560   7.241   5.286  12.877
38002W        W 1561  10.346  33.516  11.031
38003W        W 1562  41.941  10.644   3.851
38004W        W 1563   7.310  32.066  14.454
38005W        W 1564  15.608  24.055  13.490
38006W        W 1565  14.317  34.082   4.703
38007W        W 1566  22.105   6.330  13.491
38008W        W 1567   7.252  25.595   4.138
38009W        W 1568   0.837   4.445  12.986
38010W        W 1569  33.596  22.029  12.035
38011W        W 1570   6.309  18.057   2.279
38012W        W 1571  22.629  43.302   4.165
38013W        W 1572  36.534  28.021   2.177
38014W        W 1573  25.495  36.579  10.933
38015W        W 1574  31.456  41.408  10.960
38016W        W 1575  10.752   0.425   4.615
38017W        W 1576  35.079   7.274   9.958
38018W        W 1577  10.158  35.557   1.413
38019W        W 1578   6.741   7.263  13.998
38020W        W 1579  11.306   6.815  13.396
38021W        W 1580  10.208   0.310   5.215
38022W        W 1581  22.147  32.407   4.784
38023W        W 1582  11.283   5.888   3.865
38024W        W 1583  38.908  24.209   1.219
38025W        W 1584   9.283  40.825  10.603
38026W        W 1585  25.678  16.311  13.392
38027W        W 1586  18.260   2.376  11.550
38028W        W 1587   7.787  35.465   3.744
38029W        W 1588  28.980  33.933  14.795
38030W        W 1589  42.895  31.620   3.868
38031W        W 1590  14.322   4.765   1.405
38032W        W 1591  27.559  18.278  12.968
38033W        W 1592  14.779  38.852  11.903
38034W        W 1593   8.186  43.441   2.392
38035W        W 1594  19.650  21.528  13.979
38036W        W 1595   8.252  27.149   0.395
38037W        W 1596   8.314  26.997   3.290
38038W        W 1597  23.707  21.063  13.808
38039W        W 1598  34.487  12.158  13.514
38040W        W 1599  32.095  28.942   1.387
38041W        W 1600  38.540   2.872   3.347
38042W        W 1601   3.855  24.587  11.959
38043W        W 1602   9.209  35.878  13.841
38044W        W 1603  14.215  21.062   1.715
38045W        W 1604   1.742  33.915   4.814
38046W        W 1605  23.055  26.481  14.935
38047W        W 1606  15.696  28.127   3.227
38048W        W 1607  34.582  22.581   3.822
38049W        W 1608   7.806  42.454  14.340
38050W        W 1609   7.794  26.058  11.964
38051W        W 1610   8.369  14.639   4.779
38052W        W 1611  24.626   9.386   5.153
38053W        W 1612  28.136  41.009   2.290
38054W        W 1613  23.492   9.674   2.231
38055W        W 1614   6.823  12.328   4.704
38056W        W 1615  17.252   7.275  13.367
38057W        W 1616   6.814  30.500   4.143
38058W        W 1617  29.597  41.337   4.825
38059W        W 1618   5.294  41.004   4.143
38060W        W 1619  31.030  36.431   3.261
38061W        W 1620  28.056  29.120   2.773
38062W        W 1621  36.485  21.167   3.768
38063W        W 1622   3.764  42.833   4.698
38064W        W 1623  33.018  28.183   4.746
38065W        W 1624  42.882  32.461   0.262
38066W        W 1625  17.640   8.378  11.057
38067W        W 1626  30.033   2.347   3.148
38068W        W 1627  18.190  12.224  12.352
38069W        W 1628  22.655  36.506  10.635
38070W        W 1629  24.655  28.661  13.841
38071W        W 1630  16.082  17.081   0.471
38072W        W 1631   2.898  40.490  10.497
38073W        W 1632  22.521  35.969  11.462
38074W        W 1633  28.047  19.064  11.510
38075W        W 1634   1.414  44.280   2.862
38076W        W 1635  36.369  14.776   3.693
38077W        W 1636  15.259  21.754   4.324
38078W        W 1637  35.033  33.551  14.820
38079W        W 1638  17.663  38.454  13.369
38080W        W 1639  23.042  15.142   0.259
38081W        W 1640  22.166  25.576   0.414
38082W        W 1641  29.940  12.745   0.737
38083W        W 1642  41.842  25.702   1.798
38084W        W 1643   2.725  39.814  10.927
38085W        W 1644  14.636  25.206   2.180
38086W        W 1645  40.517  22.695   0.382
38087W        W 1646   8.201  10.817  12.882
38088W        W 1647  21.067  10.846   1.849
38089W        W 1648  42.468  12.187   4.326
38090W        W 1649  34.603  36.080  12.824
38091W        W 1650   8.172  16.673  13.432
38092W        W 1651   1.432  29.526   2.675
38093W        W 1652  23.581  27.996  11.046
38094W        W 1653  44.404  34.972  14.313
38095W        W 1654   8.216  13.203  13.949
38096W        W 1655   8.293  28.451   3.247
38097W        W 1656  12.349   2.390  12.878
38098W        W 1657  30.062  11.298   0.402
38099W        W 1658  10.377  23.112  14.310
38100W        W 1659  32.027   0.858  14.010
38101W        W 1660  34.533  19.682  13.386
38102W        W 1661  36.059  39.027   2.376
38103W        W 1662  21.585   9.808  14.389
38104W        W 1663   4.277  14.336   3.166
38105W        W 1664  40.422  15.145  10.554
38106W        W 1665   4.929  28.013   5.113
38107W        W 1666   6.812  39.998  11.003
38108W        W 1667  23.215  29.604   4.328
38109W        W 1668  10.869  35.442  14.866
38110W        W 1669  37.929  17.070   1.258
38111W        W 1670  23.589  40.964   2.255
38112W        W 1671  11.723  15.168   1.695
38113W        W 1672  39.343  30.576   4.277
38114W        W 1673   7.233  34.068  10.574
38115W        W 1674  12.740  31.468   2.186
38116W        W 1675  27.188  31.938  13.944
38117W        W 1676   0.484  13.773   3.681
38118W        W 1677  11.828  36.843   4.197
38119W        W 1678  43.896  35.421   0.916
38120W        W 1679   3.397  35.973  14.503
38121W        W 1680   8.168  40.915  14.391
38122W        W 1681   5.720  39.514  11.937
38123W        W 1682  10.798   7.417  13.907
38124W        W 1683  16.802  18.561  11.378
38125W        W 1684  35.039  22.021  14.296
38126W        W 1685  32.430  41.928  11.111
38127W        W 1686  39.503  12.165  12.488
38128W        W 1687  40.492  41.815   0.281
38129W        W 1688  21.542   3.725   2.835
38130W        W 1689  28.661  29.947   1.821
38131W        W 1690  44.395  29.635   3.376
38132W        W 1691  23.065  40.341   2.371
38133W        W 1692  12.761  35.488  11.421
38134W        W 1693   1.465   8.804   1.351
38135W        W 1694  26.566  13.208   2.371
38136W        W 1695  44.901  30.995  12.837
38137W        W 1696  36.906  29.078   3.701
38138W        W 1697  33.053  12.798   1.853
38139W        W 1698   4.320   1.841  11.011
38140W        W 1699  22.597   7.328   1.887
38141W        W 1700   0.341  38.343  14.765
38142W        W 1701  17.116  10.837   2.716
38143W        W 1702   6.339  11.335   2.306
38144W        W 1703  10.156  38.902   3.808
38145W        W 1704  13.817  27.672  14.326
38146W        W 1705   4.791  27.157   1.834
38147W        W 1706  42.849  19.626   3.640
38148W        W 1707  13.335  36.982   1.292
38149W        W 1708  13.119  43.887   4.603
38150W        W 1709   7.671  41.417  14.817
38151W        W 1710  39.502  40.892   0.935
38152W        W 1711  21.654   9.290  13.862
38153W        W 1712  44.950  35.946  12.367
38154W        W 1713   9.869   0.344   1.918
38155W        W 1714  33.435   7.875  13.541
38156W        W 1715  13.342  30.552  11.864
38157W        W 1716  30.469  20.149   0.842
38158W        W 1717  12.696   9.248  13.436
38159W        W 1718  30.639   7.218  12.906
38160W        W 1719  20.257  43.442  13.997
38161W        W 1720   6.813   0.361  10.631
38162W        W 1721  27.067   0.384  11.005
38163W        W 1722  14.127  29.957   4.133
38164W        W 1723  28.126  43.460  11.475
38165W        W 1724  20.545   0.971   2.848
38166W        W 1725  17.113   4.365  11.964
38167W        W 1726   1.877  20.062   1.745
38168W        W 1727  41.033  22.038  12.407
38169W        W 1728  40.526  10.283   4.737
38170W        W 1729  37.986   2.373  11.068
38171W        W 1730   5.867  18.221  10.942
38172W        W 1731  36.869  25.033   1.303
38173W        W 1732  34.865  30.593   2.724
38174W        W 1733   7.742  44.973  12.937
38175W        W 1734  29.126  27.451   1.220
38176W        W 1735  36.965   0.388  12.959
38177W        W 1736  30.948  43.827   3.371
38178W        W 1737  20.748  37.530   2.266
38179W        W 1738  33.029  42.430   4.137
38180W        W 1739  11.629  38.417   1.911
38181W        W 1740  32.470  37.494  12.460
38182W        W 1741  27.003   7.290   4.638
38183W        W 1742  12.779  37.860   1.862
38184W        W 1743  23.204  12.160   2.315
38185W        W 1744  16.190   6.395  13.317
38186W        W 1745  17.751  23.580  12.464
38187W        W 1746   5.702   7.886   4.167
38188W        W 1747   6.849   3.914  10.437
38189W        W 1748  20.728   7.887  11.071
38190W        W 1749  44.888  15.748   1.890
38191W        W 1750   4.786  20.153   4.205
38192W        W 1751  37.949  23.082   4.839
38193W        W 1752   9.376  39.901   1.856
38194W        W 1753   6.267   7.363   2.283
38195W        W 1754  18.757  29.979  10.492
38196W        W 1755   6.901  26.987   4.707
38197W        W 1756  22.026  37.389  10.477
38198W        W 1757  13.638   9.850   0.412
38199W        W 1758  12.346  33.421  11.473
38200W        W 1759  13.672   0.988  12.984
38201W        W 1760  36.957  12.709   3.362
38202W        W 1761  31.028  34.896   2.738
38203W        W 1762   3.839  12.762  12.846
38204W        W 1763  23.159  16.691  12.068
38205W        W 1764  33.540  11.847  13.422
38206W        W 1765  27.607  35.385   1.428
38207W        W 1766  26.621   8.683  14.974
38208W        W 1767  41.482  20.701   3.378
38209W        W 1768  23.019  38.403  13.471
38210W        W 1769  20.166  11.708  10.019
38211W        W 1770  34.083   7.802   1.806
38212W        W 1771  33.919   8.184   0.927
38213W        W 1772   9.193  40.431   0.883
38214W        W 1773   0.777  44.956   3.326
38215W        W 1774  19.712   6.871  12.519
38216W        W 1775  28.057  20.590   0.342
38217W        W 1776  42.852   7.875   1.254
38218W        W 1777  30.102  12.793   1.756
38219W        W 1778   5.286   5.794  12.891
38220W        W 1779  21.673  34.590   4.187
38221W        W 1780  29.135   8.730  13.489
38222W        W 1781  40.303  18.694   2.248
38223W        W 1782   0.894  39.978   4.263
38224W        W 1783  18.753  17.098   4.279
38225W        W 1784  24.574  13.195  14.379
38226W        W 1785   7.227  15.801  10.511
38227W        W 1786  18.178  39.833  10.993
38228W        W 1787  41.456  29.460   0.944
38229W        W 1788  15.735  15.087  12.878
38230W        W 1789   9.840   9.810   0.814
38231W        W 1790  41.002   7.911  10.598
38232W        W 1791   6.754  13.611   1.359
38233W        W 1792  33.433   9.379   3.730
38234W        W 1793  22.069   6.288   1.229
38235W        W 1794  17.617   9.763  12.539
38236W        W 1795  29.453  31.523  13.346
38237W        W 1796  30.517  39.009  11.931
38238W        W 1797   1.783  31.593  11.914
38239W        W 1798   4.824   8.248   4.324
38240W        W 1799  26.068  35.382  14.448
38241W        W 1800  21.166   5.780   1.850
38242W        W 1801  33.892   0.456  12.975
38243W        W 1802  25.478  20.036   4.340
38244W        W 1803  38.568  38.489  14.851
38245W        W 1804   9.812  39.314  13.464
38246W        W 1805  35.902  26.127  11.114
38247W        W 1806  21.751   4.441   2.210
38248W        W 1807  16.095  44.771   4.286
38249W        W 1808  27.988  35.969  14.016
38250W        W 1809  10.791  22.178  12.345
38251W        W 1810  23.490   6.883   3.260
38252W        W 1811  36.354  32.616   4.348
38253W        W 1812  30.086  42.502  10.996
38254W        W 1813  37.017  36.844  13.022
38255W        W 1814  43.301  20.262   2.242
38256W        W 1815  19.235  44.274   1.886
38257W        W 1816  21.711  35.014   1.388
38258W        W 1817  14.610  26.983   1.794
38259W        W 1818  43.883  18.268  13.846
38260W        W 1819   2.842  33.977  13.492
38261W        W 1820  38.855  23.641  14.915
38262W        W 1821  18.178  24.703   2.747
38263W        W 1822  42.871  36.969  10.576
38264W        W 1823   9.244  43.822   4.821
38265W        W 1824   3.328   9.298   2.721
38266W        W 1825  23.062  35.967  14.778
38267W        W 1826   4.345   6.829  11.420
38268W        W 1827  31.951  30.521   1.802
38269W        W 1828  20.728   4.743   9.979
38270W        W 1829  15.310  16.638  13.039
38271W        W 1830  22.505  27.124   2.881
38272W        W 1831  34.030  39.059  13.542
38273W        W 1832  24.100  37.488   1.874
38274W        W 1833  21.674  33.948  14.351
38275W        W 1834   5.391  32.945  12.439
38276W        W 1835  40.507   5.347   1.898
38277W        W 1836  34.898   0.911   2.892
38278W        W 1837  30.968   2.264  13.971
38279W        W 1838   6.864  13.756   0.758
38280W        W 1839   6.880   2.933  13.348
38281W        W 1840  35.376  27.077   3.743
38282W        W 1841  37.526  11.244   4.323
38283W        W 1842  41.304  13.175  13.883
38284W        W 1843  27.462  33.552   2.715
38285W        W 1844  43.888  27.660  13.313
38286W        W 1845  34.096   7.318   9.544
38287W        W 1846  11.330  38.986  14.794
38288W        W 1847  29.134  32.042  12.007
38289W        W 1848  16.699  29.010  12.901
38290W        W 1849   0.425   5.355   2.263
38291W        W 1850  31.554   1.767  14.937
38292W        W 1851  15.671  17.247   0.788
38293W        W 1852  10.725  24.520   1.450
38294W        W 1853  21.684   8.765   2.844
38295W        W 1854  32.898  36.033   2.326
38296W        W 1855  13.290  14.828   0.855
38297W        W 1856  43.388  24.505   2.320
38298W        W 1857  36.523  24.646   0.783
38299W        W 1858  25.175   8.891   2.284
38300W        W 1859  42.369  29.161  11.859
38301W        W 1860  28.102   5.246  12.097
38302W        W 1861  30.153  10.828  11.468
38303W        W 1862  22.008  30.986  11.921
38304W        W 1863  13.617  28.066  13.517
38305W        W 1864  39.979  34.096  10.906
38306W        W 1865  13.810  10.879  10.031
38307W        W 1866  25.013  20.579  12.943
38308W        W 1867  27.550  31.097   0.815
38309W        W 1868  39.552  35.502   9.546
38310W        W 1869  39.945  42.001   2.318
38311W        W 1870  43.907  36.905  14.458
38312W        W 1871   1.403  29.523  10.407
38313W        W 1872  12.773  30.419   1.833
38314W        W 1873  44.880  25.035   4.726
38315W        W 1874   8.897  37.355   0.391
38316W        W 1875  23.685  40.325  11.443
38317W        W 1876   6.773   0.405   2.900
38318W        W 1877  17.563  20.762  12.024
38319W        W 1878  16.262  40.975   4.831
38320W        W 1879  43.311  39.001   3.303
38321W        W 1880  44.412  12.640   3.371
38322W        W 1881  39.340  14.184  14.396
38323W        W 1882  20.172  18.062  12.413
38324W        W 1883  20.593  12.837  13.852
38325W        W 1884   9.690  39.459   0.897
38326W        W 1885   6.919  19.130   1.934
38327W        W 1886  39.378  29.582  10.457
38328W        W 1887   7.329  32.442   2.320
38329W        W 1888  30.431  21.674  13.853
38330W        W 1889  26.114   0.944  14.875
38331W        W 1890   6.398  19.064   3.783
38332W        W 1891  17.790  27.107  11.905
38333W        W 1892  38.876  39.953   3.871
38334W        W 1893   1.863  17.198  11.403
38335W        W 1894  23.051  30.488  12.483
38336W        W 1895  28.597   1.826   0.925
38337W        W 1896  20.189   9.853   1.773
38338W        W 1897  33.927  41.950  13.868
38339W        W 1898  24.124  23.187  13.838
38340W        W 1899  18.147  41.801   0.807
38341W        W 1900  22.535  33.518  12.936
38342W        W 1901  12.324  18.195   4.183
38343W        W 1902  34.519   3.713  14.851
38344W        W 1903  30.627   9.698  13.393
38345W        W 1904  35.936  11.815  11.992
38346W        W 1905  42.797  28.653  10.448
38347W        W 1906  26.605   3.258   0.894
38348W        W 1907   3.444   3.455   0.437
38349W        W 1908  17.288  44.794  10.917
38350W        W 1909  32.398  13.227   3.771
38351W        W 1910  41.014  18.713   3.378
38352W        W 1911  19.723  21.756  13.351
38353W        W 1912   6.200  41.805  14.311
38354W        W 1913  16.663  27.633  13.931
38355W        W 1914  22.150   5.698   4.675
38356W        W 1915   8.327  41.845   2.179
38357W        W 1916  17.132  33.131  13.017
38358W        W 1917  22.038  33.066  14.325
38359W        W 1918  43.969  15.261   3.709
38360W        W 1919  23.049   4.832   1.444
38361W        W 1920  18.294  13.134   4.264
38362W        W 1921  16.093   2.846  13.321
38363W        W 1922  35.424  37.456  13.901
38364W        W 1923   1.374  26.523   1.338
38365W        W 1924  34.930  12.245  13.950
38366W        W 1925  24.040  17.578  14.895
38367W        W 1926  20.573  16.072   4.278
38368W        W 1927  42.832  10.275  11.607
38369W        W 1928  30.611  16.156  12.469
38370W        W 1929   4.699  37.069   4.787
38371W        W 1930   6.761  32.084  11.571
38372W        W 1931  39.006  19.692   0.436
38373W        W 1932   4.741  43.504  14.000
38374W        W 1933  21.160  34.417  12.000
38375W        W 1934  11.806   7.822  13.419
38376W        W 1935  29.488  38.445   2.759
38377W        W 1936  12.285  43.862  12.390
38378W        W 1937   7.747  36.385   4.695
38379W        W 1938   7.411  19.717  11.980
38380W        W 1939   0.478  32.627   1.709
38381W        W 1940   3.426   4.277   1.409
38382W        W 1941  14.707  39.978  13.354
38383W        W 1942  36.536  38.985   3.329
38384W        W 1943  31.145  30.631  14.805
38385W        W 1944  32.488  30.511   2.844
38386W        W 1945   0.787  31.119   2.902
38387W        W 1946   6.373  23.089   4.605
38388W        W 1947  38.366  18.125  13.477
38389W        W 1948  27.116  18.198   0.738
38390W        W 1949   9.218  11.265   4.158
38391W        W 1950  17.709  14.114  10.485
38392W        W 1951  30.499  13.655  11.382
38393W        W 1952   3.858  36.451   4.263
38394W        W 1953   9.816  37.424   0.302
38395W        W 1954  32.415  29.934  11.555
38396W        W 1955   0.840  22.721  13.478
38397W        W 1956  32.453   2.306  12.441
38398W        W 1957  12.844  24.511  14.849
38399W        W 1958  23.512  30.164   0.962
38400W        W 1959  25.661  20.246  12.841
38401W        W 1960  19.252  21.621   4.621
38402W        W 1961  32.093  38.435  12.030
38403W        W 1962  30.062  10.670   1.727
38404W        W 1963  43.474  15.776   1.858
38405W        W 1964  17.802  14.273  12.401
38406W        W 1965  39.034  17.618  12.912
38407W        W 1966   9.390  44.400   0.466
38408W        W 1967   5.877   6.772  14.503
38409W        W 1968  40.312  14.287   3.684
38410W        W 1969  40.308  11.839  11.438
38411W        W 1970   1.891  11.680  12.093
38412W        W 1971  28.446  14.259  14.513
38413W        W 1972  29.496  44.359  11.037
38414W        W 1973  30.136   3.263   1.214
38415W        W 1974  44.939  23.585  14.019
38416W        W 1975  25.612   1.764   3.293
38417W        W 1976  21.175   1.482  13.838
38418W        W 1977  17.593  23.158   2.775
38419W        W 1978  38.918   7.339  14.818
38420W        W 1979  11.133  13.690  14.488
38421W        W 1980  20.760  41.502  12.562
38422W        W 1981  36.477  17.784   4.829
38423W        W 1982  44.269  33.380   3.384
38424W        W 1983   0.825   5.339  11.118
38425W        W 1984   6.263  18.553  10.443
38426W        W 1985  36.897  12.828  10.943
38427W        W 1986  12.667   6.768   1.379
38428W        W 1987  33.457   2.891   1.820
38429W        W 1988  41.838  41.041  10.409
38430W        W 1989  29.470  34.991   4.835
38431W        W 1990  37.023  28.991  10.436
38432W        W 1991   8.873  23.032  13.799
38433W        W 1992  12.277  10.765   0.877
38434W        W 1993  24.668   5.835   3.173
38435W        W 1994   6.340  35.590   0.397
38436W        W 1995   1.777  31.566   1.931
38437W        W 1996  27.137   7.788   4.171
38438W        W 1997  17.722  22.601  11.611
38439W        W 1998  27.109  12.285  14.896
38440W        W 1999  17.568  39.461  11.518
38441W        W 2000  22.716  30.525   0.464
38442W        W 2001   0.493  43.302  11.477
38443W        W 2002   9.785  26.625  10.548
38444W        W 2003  13.807  33.075   1.349
38445W        W 2004  43.279  42.350  14.964
38446W        W 2005   6.282   4.740   2.243
38447W        W 2006  16.186   1.957  13.864
38448W        W 2007   5.407  31.634   0.732
38449W        W 2008  34.556  10.206  11.566
38450W        W 2009   1.935  18.671  12.521
38451W        W 2010  25.693  16.801   4.128
38452W        W 2011  38.391  35.086  12.847
38453W        W 2012  19.774   4.754  14.338
38454W        W 2013   9.243   7.289  14.275
38455W        W 2014   8.398  21.050   3.298
38456W        W 2015  24.088  19.268   0.244
38457W        W 2016   3.891  17.188  13.473
38458W        W 2017  14.172  26.655   0.275
38459W        W 2018  29.489  17.158   1.349
38460W        W 2019  34.448  41.915  12.086
38461W        W 2020  21.695  21.542  12.550
38462W        W 2021  35.975   0.856  14.324
38463W        W 2022   6.221   4.801   0.292
38464W        W 2023  40.481  37.054   3.694
38465W        W 2024  10.638  22.526  12.387
38466W        W 2025   3.324  44.882  14.916
38467W        W 2026  32.636  18.209   4.656
38468W        W 2027  17.158  21.558  10.991
38469W        W 2028  16.720  28.126  13.859
38470W        W 2029  24.226  28.992   5.312
38471W        W 2030  28.998  36.413   4.822
38472W        W 2031  36.925  18.788  11.574
38473W        W 2032  40.916   6.358   4.258
38474W        W 2033  26.547  37.966  13.454
38475W        W 2034  38.999  25.133   1.421
38476W        W 2035   5.363  32.590   3.306
38477W        W 2036  35.478  13.734   3.761
38478W        W 2037  31.624   5.303   2.818
38479W        W 2038  33.113   6.768  12.086
38480W        W 2039  44.383  40.853  11.117
38481W        W 2040  25.059  39.815  12.382
38482W        W 2041  21.653  34.056  13.891
38483W        W 2042  24.061  40.414   4.643
38484W        W 2043  25.564  35.596   3.174
38485W        W 2044  39.558   1.851  12.963
38486W        W 2045   7.699  12.616  14.921
38487W        W 2046  25.644  13.680  14.021
38488W        W 2047  13.193  26.685  13.807
38489W        W 2048  10.840   1.855   2.742
38490W        W 2049   6.414  33.419  11.919
38491W        W 2050  22.734   6.347  10.050
38492W        W 2051  17.095  16.743   0.955
38493W        W 2052  18.114  22.210  13.464
38494W        W 2053  31.988  30.942   2.722
38495W        W 2054  21.686  22.216   1.795
38496W        W 2055   5.857  18.132  14.978
38497W        W 2056  38.011   3.787  13.396
38498W        W 2057  10.829  19.174  13.530
38499W        W 2058  40.868   3.783   2.328
38500W        W 2059  19.080  23.040   1.826
38501W        W 2060  16.293  15.697  10.598
38502W        W 2061  33.467  37.444  10.560
38503W        W 2062  41.436  21.123   0.769
38504W        W 2063  12.189   3.918   3.235
38505W        W 2064  39.972  43.995   4.685
38506W        W 2065   1.816  43.793  12.477
38507W        W 2066  37.008   7.348   4.704
38508W        W 2067  17.622  30.058  11.902
38509W        W 2068  28.001   1.899  10.600
38510W        W 2069   9.179  34.120   1.933
38511W        W 2070  31.565  25.520   1.438
38512W        W 2071  22.161   7.224   4.641
38513W        W 2072  11.659  20.167  11.926
38514W        W 2073  16.229  22.631  11.942
38515W        W 2074  10.703  39.011  13.819
38516W        W 2075  36.870  15.629   1.709
38517W        W 2076  16.314  38.931   3.350
38518W        W 2077  38.908   6.185  14.795
38519W        W 2078  16.581  26.109   1.433
38520W        W 2079  36.436  17.194  10.969
38521W        W 2080  28.474  30.489   4.351
38522W        W 2081  34.461   5.737   3.831
38523W        W 2082  33.127  38.340   0.248
38524W        W 2083  13.718  18.560   4.300
38525W        W 2084  29.940  22.539   3.149
38526W        W 2085  36.388  34.484  10.961
38527W        W 2086  19.284  44.998  14.406
38528W        W 2087  20.764  12.194   1.426
38529W        W 2088  10.209  20.706  12.837
38530W        W 2089  35.993  44.790   0.862
38531W        W 2090  42.303  31.901  11.437
38532W        W 2091  38.834  16.741   0.950
38533W        W 2092  10.361   2.402   4.316
38534W        W 2093   7.723   8.797  13.476
38535W        W 2094  30.434  35.478   1.815
38536W        W 2095  10.768  31.505   1.731
38537W        W 2096  39.825  39.385   3.270
38538W        W 2097  14.711  19.774   2.408
38539W        W 2098  38.013  11.334  12.923
38540W        W 2099  21.637  34.523   1.313
38541W        W 2100  15.606  14.630   3.832
38542W        W 2101  21.129  23.535  12.527
38543W        W 2102  21.602  41.815  10.982
38544W        W 2103   3.306  32.412  13.063
38545W        W 2104   1.359   4.776   0.864
38546W        W 2105  37.958  34.037  14.395
38547W        W 2106  25.488  23.069  11.468
38548W        W 2107  15.772  42.347   1.436
38549W        W 2108  27.522  17.790  14.335
38550W        W 2109   3.870  14.717   3.180
38551W        W 2110  19.250   4.365  11.129
38552W        W 2111   0.267  26.095  11.953
38553W        W 2112  12.251   1.400   1.298
38554W        W 2113   1.955  43.008   1.817
38555W        W 2114  44.410   7.254  10.905
38556W        W 2115   0.297  25.490   2.207
38557W        W 2116  23.142  14.767  13.307
38558W        W 2117  23.194  22.705  10.108
38559W        W 2118  30.146   6.884  11.454
38560W        W 2119  28.487  41.904   2.309
38561W        W 2120   2.874  39.878   1.218
38562W        W 2121   6.875  21.698  10.638
38563W        W 2122   1.242  15.683  14.302
38564W        W 2123   5.288   6.909  14.450
38565W        W 2124  13.332  11.828  10.899
38566W        W 2125  23.592  34.416  11.961
38567W        W 2126  30.076  22.637  12.056
38568W        W 2127  11.837  16.629  11.585
38569W        W 2128  24.501  22.207  11.377
38570W        W 2129  35.047   6.216  12.075
38571W        W 2130  14.127  14.299  13.937
38572W        W 2131  28.019  25.176   9.976
38573W        W 2132  26.689  42.354  14.469
38574W        W 2133   0.320   8.253  11.903
38575W        W 2134  26.650  11.788   0.951
38576W        W 2135  12.802  44.870  13.895
38577W        W 2136   8.671  27.165   0.738
38578W        W 2137   3.444  13.809  12.991
38579W        W 2138  40.009  16.313  14.335
38580W        W 2139   6.875  18.126  13.886
38581W        W 2140  17.647  16.673  14.770
38582W        W 2141  36.511  35.896   4.239
38583W        W 2142  14.107  11.718  14.959
38584W        W 2143  17.655  31.076   2.899
38585W        W 2144  19.595  26.147  10.472
38586W        W 2145  10.783  18.083  13.314
38587W        W 2146  30.497  28.468  13.959
38588W        W 2147   3.929  35.890   1.899
38589W        W 2148  13.273  24.034  13.020
38590W        W 2149  16.078  17.221   3.346
38591W        W 2150  10.195   6.722   3.374
38592W        W 2151  33.109   6.185  11.984
38593W        W 2152  15.804  24.631   1.288
38594W        W 2153  29.165   1.478   1.238
38595W        W 2154  29.146  22.197  14.771
38596W        W 2155  13.776  23.537   0.790
38597W        W 2156  15.123  33.525  12.436
38598W        W 2157  30.613  23.626   1.854
38599W        W 2158  34.408  31.058  10.928
38600W        W 2159   9.847   4.704   3.238
38601W        W 2160  19.067   2.387   1.308
38602W        W 2161  29.450  36.455   3.729
38603W        W 2162  43.809  21.581  10.540
38604W        W 2163  27.159  22.008  11.403
38605W        W 2164   7.328   8.674  10.440
38606W        W 2165  15.639  41.439   0.817
38607W        W 2166   3.310  18.690   3.757
38608W        W 2167  32.953  24.552   1.902
38609W        W 2168  26.988   1.391  12.979
38610W        W 2169  38.505  10.752   3.288
38611W        W 2170  38.379  17.596   1.292
38612W        W 2171  38.432  20.599  14.479
38613W        W 2172  21.703   6.307  14.474
38614W        W 2173   4.741  33.945   2.767
38615W        W 2174  31.443  33.386  13.315
38616W        W 2175   6.418  31.922   4.333
38617W        W 2176  12.176  13.845   5.760
38618W        W 2177  11.222  23.132  13.009
38619W        W 2178  10.357  41.380   3.865
38620W        W 2179  10.667  44.295   2.325
38621W        W 2180  35.078  26.631  14.482
38622W        W 2181  34.468  23.036  13.314
38623W        W 2182  25.631  34.951   4.700
38624W        W 2183  43.442   9.799  10.615
38625W        W 2184  22.580   6.883   2.700
38626W        W 2185   4.229  44.960   1.814
38627W        W 2186  29.521   9.164  12.031
38628W        W 2187  20.610   0.752   3.329
38629W        W 2188  35.503  41.341   2.880
38630W        W 2189  39.911   2.328  13.895
38631W        W 2190  10.147   5.803   1.451
38632W        W 2191  34.432  28.454  11.571
38633W        W 2192  10.331  43.764  10.414
38634W        W 2193  25.536  28.985   2.857
38635W        W 2194  13.311   9.817   1.295
38636W        W 2195  16.080  30.931   3.317
38637W        W 2196  16.188  23.535  13.035
38638W        W 2197  22.738  35.050   4.620
38639W        W 2198   9.817  27.959   2.410
38640W        W 2199  19.060  39.827  10.922
38641W        W 2200   3.874  10.236   0.737
38642W        W 2201  44.320  44.886   3.156
38643W        W 2202   4.434   6.220  14.368
38644W        W 2203   0.892  24.033   4.695
38645W        W 2204  24.061  25.217   1.404
38646W        W 2205  25.964   0.467   4.163
38647W        W 2206   9.228  25.587   0.729
38648W        W 2207  30.150  13.804   0.965
38649W        W 2208  14.597  15.169  11.588
38650W        W 2209  27.509   1.349  10.489
38651W        W 2210  15.730   8.172  11.540
38652W        W 2211  27.136  34.440  12.081
38653W        W 2212  17.195  36.096   1.738
38654W        W 2213   2.250  29.000  12.466
38655W        W 2214  13.239  22.229   9.629
38656W        W 2215  28.162  19.685   3.722
38657W        W 2216   1.436   8.853  12.007
38658W        W 2217   2.838   0.929  10.444
38659W        W 2218  32.399  42.965  11.122
38660W        W 2219   1.937  12.212   2.284
38661W        W 2220  10.711  21.049   3.847
38662W        W 2221  15.330  35.080  10.914
38663W        W 2222  21.090  25.711  13.817
38664W        W 2223  19.770  35.569   2.384
38665W        W 2224  28.456   8.818   2.398
38666W        W 2225  24.129  29.630   2.179
38667W        W 2226  43.432   7.749   4.131
38668W        W 2227  32.542  30.490  13.965
38669W        W 2228  22.704   2.322   0.264
38670W        W 2229   6.273   3.357   3.784
38671W        W 2230  33.902   4.425   2.220
38672W        W 2231  17.658   9.229   3.749
38673W        W 2232  35.042  39.407   4.335
38674W        W 2233   2.815  13.203   2.195
38675W        W 2234   0.831  42.423   0.904
38676W        W 2235  29.106   7.181   4.177
38677W        W 2236   2.920  36.026  10.483
38678W        W 2237  41.523  19.276   3.818
38679W        W 2238   5.370  19.615   0.331
38680W        W 2239  26.483  41.005   1.727
38681W        W 2240  11.357  25.598  14.318
38682W        W 2241   4.218  40.445  14.426
38683W        W 2242  24.113  24.078   0.853
38684W        W 2243  13.277   7.406  13.059
38685W        W 2244  43.935  28.001  11.385
38686W        W 2245  18.272  21.105   2.178
38687W        W 2246  38.076  19.562   1.373
38688W        W 2247   0.814  15.822   3.179
38689W        W 2248  35.981   4.439  11.932
38690W        W 2249   8.334  18.566   1.389
38691W        W 2250  36.524  32.119  10.541
38692W        W 2251  21.735  38.531  11.594
38693W        W 2252  11.819  17.169   2.249
38694W        W 2253  34.925  34.470   4.294
38695W        W 2254  19.054  26.068  10.893
38696W        W 2255  38.994  32.037  11.405
38697W        W 2256  15.618  34.087   4.314
38698W        W 2257  34.091   8.249  12.374
38699W        W 2258  10.725   3.416  12.908
38700W        W 2259   9.736   0.838  11.562
38701W        W 2260  17.194  39.027  12.478
38702W        W 2261   6.798  17.721   1.434
38703W        W 2262  21.069   9.842   2.410
38704W        W 2263   7.850  44.882  12.357
38705W        W 2264   8.669  19.219   3.766
38706W        W 2265  32.534  24.720   4.765
38707W        W 2266  42.510  43.365  10.454
38708W        W 2267  36.971  13.840   0.262
38709W        W 2268  30.569   7.300  13.490
38710W        W 2269  32.396  42.410  14.883
38711W        W 2270  24.705  31.475   3.839
38712W        W 2271   3.349  18.675  13.975
38713W        W 2272   2.771  12.295  14.276
38714W        W 2273  41.535  28.053  13.545
38715W        W 2274  11.269  44.283  10.535
38716W        W 2275  32.575  21.523   2.266
38717W        W 2276  13.351   4.702   9.957
38718W        W 2277  28.563   5.873   3.732
38719W        W 2278  15.608   6.736  12.418
38720W        W 2279  43.391  30.074   2.694
38721W        W 2280   9.683  32.999   0.875
38722W        W 2281  38.328  23.731  14.456
38723W        W 2282  23.196  11.744   3.200
38724W        W 2283  15.276  44.396   0.384
38725W        W 2284  24.004  16.731   1.276
38726W        W 2285  35.006  40.387  10.594
38727W        W 2286  44.771  44.315   3.312
38728W        W 2287  42.381  26.587  13.546
38729W        W 2288  37.970  24.124   3.289
38730W        W 2289  25.083  38.958  13.850
38731W        W 2290  34.584  27.054  13.344
38732W        W 2291  15.785  22.094  11.394
38733W        W 2292  33.456  15.093  10.952
38734W        W 2293   7.399  16.691  10.458
38735W        W 2294  39.925   7.707  10.626
38736W        W 2295   7.177  32.567   0.894
38737W        W 2296  35.974  38.859  13.861
38738W        W 2297   9.260  44.825  11.106
38739W        W 2298   3.720  41.043   0.874
38740W        W 2299   6.192  44.432  14.994
38741W        W 2300   0.297   8.823   2.283
38742W        W 2301  34.111  13.335  12.340
38743W        W 2302  21.022   2.765   2.696
38744W        W 2303  10.820  41.945   0.366
38745W        W 2304  38.986  13.676  13.854
38746W        W 2305  12.172  12.779   3.646
38747W        W 2306   8.316  12.780   1.860
38748W        W 2307  31.450  38.546  14.475
38749W        W 2308  35.882  44.767   1.812
38750W        W 2309  14.243  28.581   3.705
38751W        W 2310   4.729  11.205  14.979
38752W        W 2311  32.048  29.482   0.312
38753W        W 2312  27.641   9.827   5.612
38754W        W 2313  18.611  26.667   2.363
38755W        W 2314   9.245  30.121   2.256
38756W        W 2315  17.586   0.894   2.887
38757W        W 2316   8.783  35.563   1.214
38758W        W 2317  12.661  39.927   0.861
38759W        W 2318  30.553  35.569  13.528
38760W        W 2319  22.684   5.823   2.215
38761W        W 2320  25.543  31.108   3.715
38762W        W 2321  31.058  35.585   3.350
38763W        W 2322  20.758  14.331   2.251
38764W        W 2323   5.416  26.177   1.326
38765W        W 2324  14.721  44.311   1.281
38766W        W 2325  36.050   3.386   2.679
38767W        W 2326  30.645   9.682   3.747
38768W        W 2327  10.220  11.765  11.927
38769W        W 2328  37.475  20.527   3.280
38770W        W 2329  19.756  27.569   4.605
38771W        W 2330  16.636   7.394   0.285
38772W        W 2331  31.031   0.429   3.818
38773W        W 2332  42.484  44.310  14.482
38774W        W 2333   0.986  23.495   0.926
38775W        W 2334  17.105  23.226   1.393
38776W        W 2335  30.485  33.526  11.460
38777W        W 2336  32.080  16.569  11.926
38778W        W 2337   1.825  26.497  11.908
38779W        W 2338   6.391  38.991  10.436
38780W        W 2339  33.034   9.382  10.950
38781W        W 2340   4.228  44.756   4.756
38782W        W 2341  15.167  36.863   2.179
38783W        W 2342  29.952  34.995  11.074
38784W        W 2343  37.079   9.811   3.862
38785W        W 2344  30.064  14.756   0.286
38786W        W 2345  11.695  43.895   2.830
38787W        W 2346  33.444   5.306  12.531
38788W        W 2347  35.447  11.182   2.863
38789W        W 2348  37.831   4.248   4.175
38790W        W 2349  15.083  16.693  13.906
38791W        W 2350  29.061  14.313  13.876
38792W        W 2351   9.686   0.277  11.885
38793W        W 2352  43.481   5.205  13.041
38794W        W 2353   5.312  26.067  12.839
38795W        W 2354  21.207   5.824   9.994
38796W        W 2355  30.654  31.104   4.662
38797W        W 2356  19.091   8.830   2.717
38798W        W 2357  24.507  25.670   0.467
38799W        W 2358  31.576  12.811   2.697
38800W        W 2359  38.552  43.402   4.221
38801W        W 2360  12.695  39.974   1.445
38802W        W 2361  42.979  13.234   0.799
38803W        W 2362  26.053  11.640  12.943
38804W        W 2363  13.197  37.512  12.576
38805W        W 2364   0.774  37.838   2.688
38806W        W 2365  24.700   0.407   3.782
38807W        W 2366  35.992   3.932   2.720
38808W        W 2367  41.510  35.080   0.929
38809W        W 2368  12.141  28.617   2.786
38810W        W 2369  35.076  36.549   5.138
38811W        W 2370   9.290   0.949  12.884
38812W        W 2371  12.843  22.620  12.557
38813W        W 2372  25.067   0.398   0.934
38814W        W 2373  25.032  12.338  12.839
38815W        W 2374  27.655  37.526   3.790
38816W        W 2375   5.840  21.133  12.466
38817W        W 2376  25.644  30.089   2.229
38818W        W 2377  10.143  35.440   0.299
38819W        W 2378  37.852  33.551  14.303
38820W        W 2379   0.793  25.001  11.405
38821W        W 2380  33.623  26.206   1.365
38822W        W 2381  39.424  34.065  11.402
38823W        W 2382  28.675  38.890  14.791
38824W        W 2383  34.370  21.677  13.317
38825W        W 2384  38.881  36.471  12.894
38826W        W 2385   5.294  34.518   4.176
38827W        W 2386  24.171  31.910   4.341
38828W        W 2387  22.663  41.475  13.987
38829W        W 2388  39.001   1.387  10.968
38830W        W 2389  26.135  21.660  14.394
38831W        W 2390   4.831   4.348  11.583
38832W        W 2391  22.040  20.767   3.819
38833W        W 2392   6.770  29.597  13.436
38834W        W 2393  39.424  13.732   2.350
38835W        W 2394  12.692  11.256  11.100
38836W        W 2395   3.262  43.509   1.224
38837W        W 2396   4.787  33.041   0.961
38838W        W 2397  26.199  10.688   4.238
38839W        W 2398   8.689   3.220   2.261
38840W        W 2399  37.908  14.218  11.912
38841W        W 2400   4.945  32.978   1.929
38842W        W 2401  35.384  38.851  11.584
38843W        W 2402  19.663  34.535   3.202
38844W        W 2403   0.964  19.276   2.331
38845W        W 2404  32.059   9.373   1.311
38846W        W 2405   9.263  11.861   1.859
38847W        W 2406  26.456  14.206  10.539
38848W        W 2407  10.672  36.500  14.812
38849W        W 2408  13.140  40.971  10.936
38850W        W 2409  26.118  35.572  13.828
38851W        W 2410   7.740   7.793  11.028
38852W        W 2411  34.896  13.804   2.716
38853W        W 2412  40.981  25.083  11.109
38854W        W 2413  32.939  44.952   0.747
38855W        W 2414  14.809  39.502   4.236
38856W        W 2415  25.114  36.853   4.135
38857W        W 2416  28.634  14.171  13.822
38858W        W 2417  43.510  31.488   0.865
38859W        W 2418   0.288  38.933   1.408
38860W        W 2419  13.177  39.349   1.338
38861W        W 2420   0.831   0.971   4.645
38862W        W 2421   9.835  12.850   2.345
38863W        W 2422  36.394  34.059  12.490
38864W        W 2423  12.713   0.417  13.507
38865W        W 2424  26.063  30.161   0.931
38866W        W 2425  38.473  25.112  12.561
38867W        W 2426  41.381  29.428   2.745
38868W        W 2427  10.861  13.260   1.836
38869W        W 2428   9.365   6.302   4.631
38870W        W 2429  12.124  34.530  14.831
38871W        W 2430  18.701   6.200  10.510
38872W        W 2431  41.857  42.999   4.614
38873W        W 2432  27.544   2.385   3.252
38874W        W 2433   0.974   2.912   3.825
38875W        W 2434   9.169  14.754  13.049
38876W        W 2435  37.550  22.737  13.384
38877W        W 2436   4.713   7.201  13.875
38878W        W 2437  30.075  19.239  11.919
38879W        W 2438  41.956   6.189   2.782
38880W        W 2439  30.061  21.680   5.678
38881W        W 2440  37.988  20.068  11.391
38882W        W 2441  23.016  32.941  14.936
38883W        W 2442   9.264  23.185  13.996
38884W        W 2443  23.628  18.236   1.800
38885W        W 2444  41.430  34.404   2.700
38886W        W 2445  16.679  16.318   1.279
38887W        W 2446   2.885  40.903  11.956
38888W        W 2447  10.252   9.229   1.926
38889W        W 2448  31.120  16.662   2.291
38890W        W 2449  31.989   3.428   0.771
38891W        W 2450  17.768  17.763  14.364
38892W        W 2451  35.025   4.316  12.468
38893W        W 2452  37.450  29.616   3.237
38894W        W 2453  14.685  31.069   4.251
38895W        W 2454   8.173  11.286  12.542
38896W        W 2455  14.256  37.413  14.462
38897W        W 2456  23.518  41.497   4.802
38898W        W 2457  33.057  14.202   4.309
38899W        W 2458  44.784   6.362  12.463
38900W        W 2459  11.720  36.379   9.567
38901W        W 2460   2.893  16.812  14.365
38902W        W 2461   9.879   7.343  13.874
38903W        W 2462   0.937   2.728  14.383
38904W        W 2463  12.255   1.867   4.656
38905W        W 2464  37.346   7.366  12.516
38906W        W 2465  19.687  14.687   0.455
38907W        W 2466  29.578  40.028  13.977
38908W        W 2467   1.371  32.625  13.548
38909W        W 2468  12.271  40.937   4.237
38910W        W 2469  42.787  26.055   2.179
38911W        W 2470  29.593  25.140   3.260
38912W        W 2471  11.327  15.247   4.775
38913W        W 2472  25.986   8.746   1.356
38914W        W 2473   5.790  44.281   1.839
38915W        W 2474   1.769  14.243  13.466
38916W        W 2475  29.077  42.907   1.266
38917W        W 2476   0.932  43.282  12.462
38918W        W 2477  16.608  10.217  14.443
38919W        W 2478  22.136  19.145   3.148
38920W        W 2479  30.913  25.200   3.297
38921W        W 2480  43.818   1.743  11.882
38922W        W 2481  35.507  31.431  13.392
38923W        W 2482  16.117  23.048   0.847
38924W        W 2483   9.314  39.505  12.469
38925W        W 2484  43.998  39.032  13.862
38926W        W 2485  43.391  41.346   4.206
38927W        W 2486   9.719  25.153  12.024
38928W        W 2487  32.043  29.542  10.574
38929W        W 2488   0.411   3.404   4.623
38930W        W 2489  31.631  44.457   1.856
38931W        W 2490  27.011   6.792   0.389
38932W        W 2491  22.682  44.955   2.890
38933W        W 2492  11.321  15.198   0.727
38934W        W 2493   3.834   8.227   0.281
38935W        W 2494  14.682  27.940  10.546
38936W        W 2495  23.600  28.952   3.745
38937W        W 2496  44.412  31.640  10.497
38938W        W 2497  27.031  27.520   3.851
38939W        W 2498  24.158   2.862   1.439
38940W        W 2499   7.799   4.741   9.999
38941W        W 2500  28.497  36.071   1.915
38942W        W 2501  41.337  41.943  13.383
38943W        W 2502  18.671  31.641   3.778
38944W        W 2503  34.585  16.785  11.420
38945W        W 2504  22.030  37.554   2.708
38946W        W 2505  17.114   4.706  14.421
38947W        W 2506  31.464  10.818   9.955
38948W        W 2507   5.209  31.058   2.697
38949W        W 2508  39.891  17.695  13.040
38950W        W 2509  32.018  19.612  11.611
38951W        W 2510   9.304  27.499   4.212
38952W        W 2511  12.230  43.294  12.566
38953W        W 2512  30.105  32.530  11.974
38954W        W 2513  39.424  31.561   0.837
38955W        W 2514  42.985  44.771   2.213
38956W        W 2515  14.104  22.074   0.276
38957W        W 2516   6.215  32.589   3.288
38958W        W 2517  19.140   9.249   0.756
38959W        W 2518  19.685  14.634   1.758
38960W        W 2519  22.250  38.530   1.765
38961W        W 2520   1.810  10.314   4.609
38962W        W 2521  21.683  30.415  13.025
38963W        W 2522   1.754  21.050  13.380
38964W        W 2523   8.395  25.214   3.637
38965W        W 2524  42.336  42.018   2.860
38966W        W 2525  13.676   3.327   2.888
38967W        W 2526  36.361  12.241  14.986
38968W        W 2527  14.279  37.369   3.786
38969W        W 2528  44.321   7.286   4.830
38970W        W 2529  13.706  22.649  14.001
38971W        W 2530   8.689  31.058  14.370
38972W        W 2531  30.642  43.884  10.949
38973W        W 2532  35.499  23.200  11.980
38974W        W 2533  18.254  28.512   0.367
38975W        W 2534  37.336  39.924   0.244
38976W        W 2535  23.152  14.327   1.434
38977W        W 2536  37.441  36.481   3.212
38978W        W 2537  29.064  12.335  13.925
38979W        W 2538  30.087   3.266  12.483
38980W        W 2539  29.042  36.955   1.255
38981W        W 2540  31.642  36.968   4.640
38982W        W 2541  13.781  10.380   2.760
38983W        W 2542  24.582  23.032  14.945
38984W        W 2543  28.985  35.878   3.790
38985W        W 2544  41.892   5.358  12.343
38986W        W 2545  43.910  21.021   1.358
38987W        W 2546   4.923  31.900   9.923
38988W        W 2547  36.077  27.538  11.125
38989W        W 2548   4.860  21.131   1.894
38990W        W 2549  37.568  18.558   2.774
38991W        W 2550  15.800  38.423   4.809
38992W        W 2551  11.792  23.708  12.574
38993W        W 2552  14.809   4.423   4.686
38994W        W 2553  42.523  22.088  14.468
38995W        W 2554  32.609   6.736   1.447
38996W        W 2555  27.148  21.169   9.547
38997W        W 2556  42.436  44.857   4.696
38998W        W 2557  36.903  44.454  10.960
38999W        W 2558  40.987  18.253  14.793
39000W        W 2559  37.499  35.386  11.514
39001W        W 2560   1.826  23.514  11.389
39002W        W 2561  23.540   6.267   1.388
39003W        W 2562  33.574  35.072   9.949
39004W        W 2563  16.735  27.680   2.280
39005W        W 2564  37.982   6.389  10.080
39006W        W 2565  43.423  15.140  11.409
39007W        W 2566  15.109  11.663  14.316
39008W        W 2567  12.625   1.401  14.768
39009W        W 2568  22.162  14.110  10.465
39010W        W 2569  16.092  44.869   0.324
39011W        W 2570   2.289  15.723  11.894
39012W        W 2571  22.664  42.001   0.265
39013W        W 2572  40.515   9.770   2.813
39014W        W 2573  22.548  25.586  13.916
39015W        W 2574  38.372  15.085  13.543
39016W        W 2575   9.876  16.209   2.334
39017W        W 2576  21.239  14.192  10.517
39018W        W 2577  12.841  11.754   4.190
39019W        W 2578  27.075  21.613   4.629
39020W        W 2579  32.983  38.418   1.286
39021W        W 2580  25.474  42.302  13.393
39022W        W 2581   5.768  35.567  14.276
39023W        W 2582   9.831  20.175  13.486
39024W        W 2583   5.797  39.369  13.054
39025W        W 2584   6.405  37.354  12.379
39026W        W 2585  28.673  35.485   0.842
39027W        W 2586  31.533  22.124  12.959
39028W        W 2587  17.093   2.853   4.604
39029W        W 2588  20.535  30.148   2.270
39030W        W 2589  12.125  31.036  12.838
39031W        W 2590  24.683   9.154   9.520
39032W        W 2591   6.797  44.292  14.835
39033W        W 2592  24.657  30.039  13.832
39034W        W 2593  37.040  12.761  12.464
39035W        W 2594  10.300  43.484  10.528
39036W        W 2595   8.229  43.341   3.683
39037W        W 2596  23.130  28.596   1.244
39038W        W 2597  22.595   2.835   0.749
39039W        W 2598  13.268  27.662  12.053
39040W        W 2599   7.739   2.883  14.854
39041W        W 2600  31.534  23.087  13.486
39042W        W 2601   4.778  24.221   3.868
39043W        W 2602  44.352   4.391  12.983
39044W        W 2603   9.319   1.771  11.937
39045W        W 2604  29.991  39.040  11.579
39046W        W 2605   9.754  39.022  14.801
39047W        W 2606   3.920  19.709   4.219
39048W        W 2607  42.847  23.705  11.061
39049W        W 2608  30.966  23.191   3.770
39050W        W 2609  42.006  33.451   0.864
39051W        W 2610  17.564  33.541  12.885
39052W        W 2611  41.493  39.961   1.318
39053W        W 2612  42.495  41.820   0.812
39054W        W 2613  23.172  42.972  13.986
39055W        W 2614  38.393  12.219   1.758
39056W        W 2615  28.051  32.617   4.637
39057W        W 2616  25.096  30.973  11.442
39058W        W 2617  31.491  32.057   3.307
39059W        W 2618  26.646  26.111  11.026
39060W        W 2619  38.836  39.329   0.465
39061W        W 2620  43.942  13.198   2.293
39062W        W 2621   6.817   0.748   4.188
39063W        W 2622  28.954  40.345  10.412
39064W        W 2623  32.072  15.145  14.779
39065W        W 2624  39.859   6.904  12.437
39066W        W 2625  22.024  17.213   4.353
39067W        W 2626  21.034   3.369   2.418
39068W        W 2627   1.777  34.370   0.434
39069W        W 2628  18.660  25.698  14.509
39070W        W 2629   3.407  27.987  10.506
39071W        W 2630  32.468   5.284   1.715
39072W        W 2631  18.743  20.158   1.330
39073W        W 2632  19.577  41.908  12.870
39074W        W 2633  44.793  33.930   2.786
39075W        W 2634   5.261  40.025  14.501
39076W        W 2635  26.180  16.611  13.808
39077W        W 2636  32.409  17.283  12.411
39078W        W 2637  19.702   2.914   2.191
39079W        W 2638  29.427  11.174   2.365
39080W        W 2639  17.784  22.720  13.512
39081W        W 2640  20.673  15.788   2.715
39082W        W 2641  10.139  34.978  12.910
39083W        W 2642  44.440   7.173   1.847
39084W        W 2643  12.740   2.243   1.430
39085W        W 2644  37.349  40.354  10.505
39086W        W 2645  21.035  37.866   4.793
39087W        W 2646  38.331   1.857  11.859
39088W        W 2647  19.268  20.114  11.385
39089W        W 2648  32.885   0.396   1.223
39090W        W 2649  37.887   7.357  10.612
39091W        W 2650  12.160  20.577   2.858
39092W        W 2651  27.663  34.948   0.769
39093W        W 2652  11.263  32.550   5.145
39094W        W 2653  18.579  24.631  14.833
39095W        W 2654   9.365   0.964  13.920
39096W        W 2655  20.269   9.220   2.363
39097W        W 2656  16.672   7.878   4.136
39098W        W 2657  10.316   6.338  13.813
39099W        W 2658  10.650  37.504  14.784
39100W        W 2659  24.691   4.281   3.765
39101W        W 2660  21.146  39.890  12.011
39102W        W 2661  24.104  34.485   3.743
39103W        W 2662   8.696  32.034   1.885
39104W        W 2663  28.670   7.176  11.930
39105W        W 2664  28.660  25.088  14.359
39106W        W 2665   1.774  35.891   3.834
39107W        W 2666  39.925  31.935   1.382
39108W        W 2667  36.501  30.509   0.828
39109W        W 2668  38.856  25.543   0.338
39110W        W 2669  29.918  34.102   3.732
39111W        W 2670  41.963  33.991   1.265
39112W        W 2671  18.178  37.945  11.513
39113W        W 2672  27.969  17.689   3.197
39114W        W 2673  12.651  33.002   4.289
39115W        W 2674  26.566   6.909   1.858
39116W        W 2675  44.378   2.324   2.372
39117W        W 2676   8.261   5.418  11.382
39118W        W 2677  32.459   5.709   1.878
39119W        W 2678   3.220  34.880   0.789
39120W        W 2679   0.753   8.758  14.025
39121W        W 2680  13.212  14.734  10.422
39122W        W 2681  40.455  44.340   9.977
39123W        W 2682  21.092  17.114   2.743
39124W        W 2683   5.848   3.352  10.612
39125W        W 2684  39.474  11.785   0.263
39126W        W 2685  37.071  21.692  11.942
39127W        W 2686  16.156  30.974   3.696
39128W        W 2687   6.206  37.950   2.225
39129W        W 2688  37.541  26.081  14.322
39130W        W 2689   0.769  27.579   3.195
39131W        W 2690  35.433  18.687   1.926
39132W        W 2691  24.190   6.296   0.956
39133W        W 2692  38.533  34.371  13.525
39134W        W 2693  40.534   2.453  14.472
39135W        W 2694   5.798  22.572  10.638
39136W        W 2695  32.925  39.916  14.352
39137W        W 2696  22.655   4.831  10.597
39138W        W 2697  20.752  42.405   4.762
39139W        W 2698   3.345  31.575   3.326
39140W        W 2699   4.938  23.495   1.752
39141W        W 2700   5.688  31.117  10.905
39142W        W 2701   6.255  38.502   4.796
39143W        W 2702  34.959  20.063  14.298
39144W        W 2703  20.616  16.642  12.985
39145W        W 2704  11.326   1.759  12.448
39146W        W 2705  30.619  31.907  10.489
39147W        W 2706  44.435  15.689   3.343
39148W        W 2707  37.393  31.083  10.973
39149W        W 2708  37.407   9.320   9.592
39150W        W 2709  16.075   2.296  13.540
39151W        W 2710  19.676  31.566  10.637
39152W        W 2711  24.218  16.188  13.852
39153W        W 2712  40.479  38.983   2.885
39154W        W 2713  38.449  12.198  11.895
39155W        W 2714  13.267  44.366   3.782
39156W        W 2715  16.283  25.147  12.385
39157W        W 2716  17.786   5.356  14.817
39158W        W 2717  36.979  16.307  11.908
39159W        W 2718  19.168   9.207   3.747
39160W        W 2719   3.239   6.286  13.921
39161W        W 2720   3.848  29.491   4.648
39162W        W 2721  22.040   3.430  14.498
39163W        W 2722  15.802  10.383   2.406
39164W        W 2723   4.831  22.105   0.400
39165W        W 2724  43.420  37.459  11.099
39166W        W 2725  39.063  35.906  10.515
39167W        W 2726  24.010  23.070   1.710
39168W        W 2727  34.383  16.172  14.792
39169W        W 2728  27.089  44.392   2.759
39170W        W 2729   2.922   1.345   3.228
39171W        W 2730  11.699  44.799  12.548
39172W        W 2731   9.867  27.590   3.168
39173W        W 2732   4.442  23.678   0.404
39174W        W 2733  40.938   0.919  14.336
39175W        W 2734   3.727   9.858  10.582
39176W        W 2735  12.199  24.129  14.388
39177W        W 2736   4.857  11.132  11.401
39178W        W 2737  25.685  35.511  13.530
39179W        W 2738  40.399  18.205  10.920
39180W        W 2739  37.964  12.284   3.756
39181W        W 2740  12.670   6.249   0.922
39182W        W 2741  20.038  34.551   4.606
39183W        W 2742  28.637  29.478  14.375
39184W        W 2743   9.802  16.647   2.348
39185W        W 2744  22.611   7.187  14.296
39186W        W 2745  36.911  24.534   0.951
39187W        W 2746  37.079  23.656   1.919
39188W        W 2747  37.415  24.541   1.847
39189W        W 2748  36.374  34.477  13.793
39190W        W 2749  18.661   3.412   3.359
39191W        W 2750  21.602   1.376  10.498
39192W        W 2751  41.331  27.130  11.601
39193W        W 2752   0.414   1.846  13.537
39194W        W 2753  44.758  34.052  11.401
39195W        W 2754  44.318  32.393   4.315
39196W        W 2755  10.172  26.209  13.024
39197W        W 2756   3.437  11.275   4.639
39198W        W 2757  13.798   9.218  10.949
39199W        W 2758  38.373  32.128  13.307
39200W        W 2759  33.403  38.392   2.829
39201W        W 2760  13.784  44.431  11.097
39202W        W 2761  20.271  32.967  13.410
39203W        W 2762  25.572  17.651   4.825
39204W        W 2763  38.427  24.152   3.162
39205W        W 2764   2.788  33.884  10.514
39206W        W 2765   4.251  23.134   3.196
39207W        W 2766  23.083  11.756   0.808
39208W        W 2767  31.093  11.868   0.806
39209W        W 2768  32.561  25.081  10.594
39210W        W 2769   6.418  16.118  14.925
39211W        W 2770  27.133  42.782   1.904
39212W        W 2771  31.962   4.922  13.429
39213W        W 2772  14.333   5.795  12.369
39214W        W 2773  13.768  32.515  11.979
39215W        W 2774  44.811  29.520   3.771
39216W        W 2775  19.725  40.534  11.530
39217W        W 2776   5.824  41.389   2.315
39218W        W 2777  28.652  43.515   2.881
39219W        W 2778  11.704  42.461   4.296
39220W        W 2779  26.000  19.565   9.933
39221W        W 2780  38.989  29.949  14.354
39222W        W 2781  26.000   0.349   3.373
39223W        W 2782  26.668   3.868  11.063
39224W        W 2783  32.127  11.798   0.796
39225W        W 2784  30.570  10.306   3.832
39226W        W 2785  33.562  23.548   4.743
39227W        W 2786  25.204  31.989   4.685
39228W        W 2787  22.138   3.322   1.366
39229W        W 2788  10.362  26.002   2.780
39230W        W 2789  43.935  39.975   4.171
39231W        W 2790  24.617  11.138   4.176
39232W        W 2791   4.776   2.312   5.106
39233W        W 2792  30.924  33.891  12.505
39234W        W 2793  14.769  37.026  12.911
39235W        W 2794  14.614  17.794   4.694
39236W        W 2795  19.174   6.196  12.390
39237W        W 2796  41.031  44.318   1.735
39238W        W 2797  18.103  13.332  11.907
39239W        W 2798  27.121  15.220  11.998
39240W        W 2799  12.755  32.004  13.803
39241W        W 2800  39.952  25.089  12.017
39242W        W 2801  30.972   5.264   1.335
39243W        W 2802  38.038  43.276   3.650
39244W        W 2803  26.576  35.486  13.851
39245W        W 2804  29.113   2.915  11.080
39246W        W 2805  26.000  37.432  13.326
39247W        W 2806  14.119  11.752   4.623
39248W        W 2807  15.590  29.628   1.267
39249W        W 2808  14.767   8.229   0.768
39250W        W 2809  40.455  11.209  11.595
39251W        W 2810  18.621  18.760  13.360
39252W        W 2811  42.455  12.818  12.430
39253W        W 2812   0.250  35.498   2.865
39254W        W 2813   6.872  44.342   3.298
39255W        W 2814  41.529  12.718   2.219
39256W        W 2815  44.990  13.737  11.419
39257W        W 2816  11.658  11.285  10.554
39258W        W 2817  18.125  37.396  13.465
39259W        W 2818  14.670   9.363  13.955
39260W        W 2819  24.587  44.908   3.242
39261W        W 2820  20.708  39.869   0.754
39262W        W 2821   9.232  42.509   4.246
39263W        W 2822  36.085  39.852  12.919
39264W        W 2823  18.135  43.414  13.332
39265W        W 2824  11.796  35.391   4.263
39266W        W 2825  13.636  40.010   4.771
39267W        W 2826  14.136  20.128  14.881
39268W        W 2827  28.561  13.119  12.874
39269W        W 2828  44.867  41.797  14.926
39270W        W 2829  15.807  30.117  14.324
39271W        W 2830   3.911  24.129  13.413
39272W        W 2831  36.505  21.094  11.610
39273W        W 2832  35.936   6.364   1.321
39274W        W 2833  28.659  19.213   3.224
39275W        W 2834  13.726   8.733  12.836
39276W        W 2835  14.632  28.545   0.388
39277W        W 2836  44.405  16.761  11.433
39278W        W 2837   7.739  19.152   0.356
39279W        W 2838   8.229  21.512   4.643
39280W        W 2839  21.071  22.619   0.412
39281W        W 2840  39.415   3.381  11.873
39282W        W 2841  24.008  11.794   2.331
39283W        W 2842  38.497  27.941  12.894
39284W        W 2843  11.817  39.051  11.406
39285W        W 2844  15.678  24.098  12.346
39286W        W 2845  17.557   8.176   4.146
39287W        W 2846  20.116  39.339   0.438
39288W        W 2847  17.630  14.262  14.767
39289W        W 2848  41.882  21.544  13.457
39290W        W 2849   0.440  23.210   1.248
39291W        W 2850  36.588  20.210   4.134
39292W        W 2851   0.772  25.070  10.104
39293W        W 2852  43.984  34.560   1.746
39294W        W 2853  26.198  28.658   3.195
39295W        W 2854  40.950  38.912   0.779
39296W        W 2855  36.861  16.705  12.062
39297W        W 2856  23.175  25.967  13.859
39298W        W 2857   8.754  21.520   3.685
39299W        W 2858  11.241   2.345  12.434
39300W        W 2859  37.343   6.890   1.828
39301W        W 2860   7.293   2.872   0.380
39302W        W 2861  21.037   1.818   2.345
39303W        W 2862  33.912  26.147  12.906
39304W        W 2863  10.204  12.191  13.409
39305W        W 2864  22.224  11.179  14.282
39306W        W 2865  17.254  17.232  10.924
39307W        W 2866  22.501  20.106  12.956
39308W        W 2867  28.033  12.853  11.463
39309W        W 2868  36.083  10.866   5.226
39310W        W 2869  18.194  31.533   2.418
39311W        W 2870   4.774  13.839  12.028
39312W        W 2871  40.437  34.601   5.299
39313W        W 2872   8.252  38.825   2.380
39314W        W 2873  25.989   4.843   2.736
39315W        W 2874  40.898   0.762   1.284
39316W        W 2875  26.579   1.753   3.845
39317W        W 2876  24.495   7.847   4.702
39318W        W 2877  31.450  22.596   2.772
39319W        W 2878  26.593   9.181  12.967
39320W        W 2879  33.576  33.927   2.371
39321W        W 2880  30.007  24.153   2.829
39322W        W 2881  29.529  18.730  12.527
39323W        W 2882  29.994  37.930   2.699
39324W        W 2883  34.051  37.965   2.894
39325W        W 2884  31.401  20.565   1.401
39326W        W 2885  29.614   6.720  10.983
39327W        W 2886  38.903  26.032  12.072
39328W        W 2887  22.521   7.704  12.365
39329W        W 2888  42.984  11.333  12.085
39330W        W 2889  21.224  30.925   4.285
39331W        W 2890  17.241  22.112   2.205
39332W        W 2891  23.115   5.852   1.394
39333W        W 2892   2.420  11.748  11.604
39334W        W 2893   4.719   8.198  13.399
39335W        W 2894  25.566   1.483  11.045
39336W        W 2895  22.093  39.459   4.787
39337W        W 2896  42.299  44.431   3.325
39338W        W 2897  28.052  10.220  12.550
39339W        W 2898  13.650  20.225  11.409
39340W        W 2899  15.286   0.436   2.707
39341W        W 2900  19.681  39.009   4.270
39342W        W 2901   8.184  15.238   0.934
39343W        W 2902  23.511   5.299   2.204
39344W        W 2903  44.343  43.780   3.854
39345W        W 2904   5.245  34.481  14.869
39346W        W 2905   5.286  27.566   2.334
39347W        W 2906  43.944  26.614   3.342
39348W        W 2907   3.263  38.451  14.857
39349W        W 2908  12.302  19.537   3.799
39350W        W 2909   8.202  32.893   3.359
39351W        W 2910  44.367  13.688   4.252
39352W        W 2911   0.432  14.328  10.450
39353W        W 2912  40.412  35.596  13.836
39354W        W 2913   2.385  18.590   2.779
39355W        W 2914   0.408  43.962  12.831
39356W        W 2915  17.567  33.503   3.821
39357W        W 2916  19.770  15.776  11.390
39358W        W 2917  35.392   4.871  10.955
39359W        W 2918  13.120   7.707   4.189
39360W        W 2919  22.237  10.802   5.707
39361W        W 2920  34.963  13.134   2.199
39362W        W 2921  21.688  18.241  14.913
39363W        W 2922   5.433  42.795   9.930
39364W        W 2923   5.740  27.050   0.741
39365W        W 2924  32.927  26.154  10.976
39366W        W 2925   9.271  35.506   2.250
39367W        W 2926  44.478  37.367   4.667
39368W        W 2927  23.593   7.342   3.650
39369W        W 2928   5.796  31.017  14.875
39370W        W 2929   8.170  32.569  13.969
39371W        W 2930  13.801  21.020   4.306
39372W        W 2931   1.267  10.760  13.318
39373W        W 2932  13.768  23.063   4.690
39374W        W 2933  22.997  38.561  12.057
39375W        W 2934  14.696  38.520   1.802
39376W        W 2935  10.159   5.872   2.677
39377W        W 2936  39.503   0.278   2.741
39378W        W 2937   6.358   6.891   2.200
39379W        W 2938  44.502  17.217   1.228
39380W        W 2939  33.400  21.177  11.935
39381W        W 2940   3.283  39.868   0.765
39382W        W 2941  34.434  17.249  12.517
39383W        W 2942  18.711  10.236  14.339
39384W        W 2943  22.652  27.501  12.040
39385W        W 2944  39.933  10.210  11.857
39386W        W 2945  12.794  39.040  14.437
39387W        W 2946   7.666   0.799   4.291
39388W        W 2947  17.201  17.745  11.015
39389W        W 2948  19.721   6.835  11.984
39390W        W 2949  42.392  41.395  13.411
39391W        W 2950  11.808   7.380   3.310
39392W        W 2951  21.212  33.382  11.510
39393W        W 2952  44.475  43.494  14.828
39394W        W 2953  38.851  27.187   2.772
39395W        W 2954  16.134   5.712  12.895
39396W        W 2955  41.325   7.823  12.914
39397W        W 2956   5.283  21.045  13.422
39398W        W 2957   8.313  20.541   0.345
39399W        W 2958   7.668  24.193  10.956
39400W        W 2959  39.922  23.674   0.421
39401W        W 2960  23.012  13.168   0.754
39402W        W 2961  37.891  14.187   3.167
39403W        W 2962  12.172  30.080   4.832
39404W        W 2963  21.711  34.966  10.486
39405W        W 2964  23.990  22.593  13.455
39406W        W 2965  31.985   4.279  13.875
39407W        W 2966  18.676   5.257   3.275
39408W        W 2967  34.996   1.298  11.038
39409W        W 2968  28.641  34.019   4.294
39410W        W 2969   7.340   3.286  10.105
39411W        W 2970  41.430  37.413  10.640
39412W        W 2971  10.203  30.656   5.221
39413W        W 2972  29.131   8.754  14.489
39414W        W 2973   8.843   1.862  10.504
39415W        W 2974   7.753  15.161  11.570
39416W        W 2975   2.957  13.711   3.655
39417W        W 2976  19.658  30.943  14.028
39418W        W 2977  30.994   5.736   3.361
39419W        W 2978   2.854   3.750  13.049
39420W        W 2979  20.042  21.085   4.175
39421W        W 2980   6.892  34.065  11.518
39422W        W 2981  21.045  29.155  12.060
39423W        W 2982  40.880   5.803  10.422
39424W        W 2983  14.782  25.028  10.453
39425W        W 2984  42.005  22.229   3.290
39426W        W 2985  13.766   7.719   0.930
39427W        W 2986  22.645  27.473   0.884
39428W        W 2987  15.730  34.878   2.410
39429W        W 2988   3.458   0.296  12.359
39430W        W 2989  21.732  17.561   0.392
39431W        W 2990   1.734  34.928  12.003
39432W        W 2991  17.765  21.189   2.683
39433W        W 2992  20.523   1.937   4.300
39434W        W 2993  13.343  16.715   4.322
39435W        W 2994  26.651   5.211  13.013
39436W        W 2995  22.218  23.997   3.306
39437W        W 2996  35.409  15.131   2.213
39438W        W 2997  31.148  16.667  14.334
39439W        W 2998   5.343   6.809   2.354
39440W        W 2999  40.357   5.288  11.066
39441W        W 3000  10.165  37.898  13.028
39442W        W 3001  30.055  12.783   4.692
39443W        W 3002  19.591  36.074  12.434
39444W        W 3003  10.337  23.528   4.184
39445W        W 3004  31.073  11.773   3.265
39446W        W 3005  17.663  15.752   1.760
39447W        W 3006  43.385   5.806  11.535
39448W        W 3007  10.339  22.534   3.696
39449W        W 3008  26.594   4.237   1.885
39450W        W 3009  24.686   4.338  13.502
39451W        W 3010  35.047  38.436   4.647
39452W        W 3011  28.930  16.126  14.786
39453W        W 3012  30.129  13.303  13.307
39454W        W 3013  42.430  35.377  14.837
39455W        W 3014  35.582  24.703  14.907
39456W        W 3015   7.313  17.713   3.759
39457W        W 3016  20.240  13.718  13.878
39458W        W 3017  12.831  36.099  12.980
39459W        W 3018   7.869  31.098   3.305
39460W        W 3019  23.034  25.670   4.647
39461W        W 3020  13.699  30.567   4.120
39462W        W 3021   0.969  31.008  12.882
39463W        W 3022  26.960  42.958  13.893
39464W        W 3023  44.343  44.904  13.856
39465W        W 3024  10.326  28.612   2.273
39466W        W 3025  27.168  21.659   3.306
39467W        W 3026   0.918  15.270   1.415
39468W        W 3027  23.188  40.819   2.819
39469W        W 3028  23.534  38.527   2.383
39470W        W 3029  35.950  21.563   1.757
39471W        W 3030   9.187  26.500  12.525
39472W        W 3031  38.943  24.169   3.159
39473W        W 3032  23.556  23.081  12.916
39474W        W 3033  31.574  17.274  13.037
39475W        W 3034  10.340   6.686  14.883
39476W        W 3035  26.549  18.291   3.710
39477W        W 3036   9.175  32.998  12.351
39478W        W 3037  44.474  32.007   3.851
39479W        W 3038   9.335  33.913   0.478
39480W        W 3039   3.858  19.637  12.547
39481W        W 3040  41.483  10.639  13.042
39482W        W 3041  28.503  21.581  12.494
39483W        W 3042  38.496  13.627  11.935
39484W        W 3043   8.213  16.669   3.649
39485W        W 3044  11.290  10.840  14.882
39486W        W 3045  19.075  25.006   3.713
39487W        W 3046  16.754  20.552  10.929
39488W        W 3047  32.998  10.357   4.659
39489W        W 3048   2.790  34.537   0.480
39490W        W 3049  42.973  35.424  11.571
39491W        W 3050  11.211  36.933  14.760
39492W        W 3051   6.890  36.922   4.813
39493W        W 3052  14.792   8.879   1.872
39494W        W 3053  14.816   4.210   4.289
39495W        W 3054  29.094  27.484  14.460
39496W        W 3055  21.565  31.957   0.348
39497W        W 3056   0.418  25.207  11.438
39498W        W 3057  34.038  22.623  13.391
39499W        W 3058  24.167  22.545   0.958
39500W        W 3059  17.279  22.571   1.396
39501W        W 3060  35.983  34.550  10.994
39502W        W 3061  12.306  14.590  14.349
39503W        W 3062  24.090  15.169  14.908
39504W        W 3063  13.723  19.619   3.647
39505W        W 3064  10.801  33.029   0.731
39506W        W 3065  19.757  36.469   4.294
39507W        W 3066  34.491  21.756  10.921
39508W        W 3067  41.356  44.345   2.701
39509W        W 3068  10.787  24.622  11.022
39510W        W 3069   5.783  18.588   1.763
39511W        W 3070  34.426  17.280  13.336
39512W        W 3071  24.043  37.851  13.958
39513W        W 3072  21.747  28.038   3.736
39514W        W 3073  17.230  35.976   4.231
39515W        W 3074  44.331  33.057  12.907
39516W        W 3075  13.228  20.192   0.300
39517W        W 3076   3.443  35.541  12.986
39518W        W 3077  23.120  41.793  10.541
39519W        W 3078   8.250  13.231   3.760
39520W        W 3079  25.562  22.190   2.822
39521W        W 3080  21.545  36.092   2.815
39522W        W 3081  32.124  27.599   3.867
39523W        W 3082   3.951  29.968   4.188
39524W        W 3083  14.671  14.286  13.858
39525W        W 3084   6.291  29.546   2.275
39526W        W 3085  32.943  44.922   2.406
39527W        W 3086  27.534  19.170   2.300
39528W        W 3087  22.718  35.927  14.290
39529W        W 3088   3.902  20.154   4.749
39530W        W 3089   9.886   2.302   1.340
39531W        W 3090  30.421   7.312  13.894
39532W        W 3091  11.331  15.805   0.871
39533W        W 3092  14.265  24.711  13.998
39534W        W 3093  14.785  23.010  13.874
39535W        W 3094   8.171  25.550  12.877
39536W        W 3095  26.011  12.127  11.537
39537W        W 3096  15.298  43.883   2.760
39538W        W 3097  27.588  12.252  10.529
39539W        W 3098   2.819  22.202  11.415
39540W        W 3099   8.724  20.224   1.411
39541W        W 3100  32.635  28.028  10.452
39542W        W 3101  44.894   4.875  11.959
39543W        W 3102  19.734  13.713  13.977
39544W        W 3103  18.564  44.475   4.701
39545W        W 3104  35.993  31.487   0.814
39546W        W 3105  40.949  33.034  13.927
39547W        W 3106  35.880  31.012  13.331
39548W        W 3107  19.270  44.796   2.792
39549W        W 3108  37.462  19.641   0.281
39550W        W 3109   5.434  30.639  11.857
39551W        W 3110  41.378  15.187   1.715
39552W        W 3111   4.276  28.640   2.269
39553W        W 3112  22.727  13.709  11.085
39554W        W 3113  39.943  37.053  14.881
39555W        W 3114  14.119  18.092   0.263
39556W        W 3115  32.392  27.623   4.224
39557W        W 3116  44.501   8.676   0.300
39558W        W 3117   8.827  34.397  11.413
39559W        W 3118  27.629  27.146  12.373
39560W        W 3119  15.579  40.482   4.330
39561W        W 3120  37.943  34.477   9.494
39562W        W 3121   2.257  36.394   0.956
39563W        W 3122  22.544  27.111  11.888
39564W        W 3123  29.436   5.193  12.539
39565W        W 3124  37.459   1.845  12.995
39566W        W 3125   7.706  29.475  10.514
39567W        W 3126   0.856  10.774   3.719
39568W        W 3127  30.477  17.274   3.688
39569W        W 3128  42.779  29.161  14.989
39570W        W 3129  33.563  18.576  12.885
39571W        W 3130  28.166  16.125   2.757
39572W        W 3131  13.622  27.105  11.907
39573W        W 3132  42.933  13.249   3.197
39574W        W 3133   6.710  13.735  14.909
39575W        W 3134  22.739  18.213  11.602
39576W        W 3135  34.062   3.370   0.898
39577W        W 3136   8.866  34.584  13.521
39578W        W 3137   7.331   3.733  10.439
39579W        W 3138  34.554  22.190  10.483
39580W        W 3139  40.460   3.778  14.381
39581W        W 3140  14.621  21.559   4.156
39582W        W 3141  37.032  41.467  14.882
39583W        W 3142  40.501  15.695  14.911
39584W        W 3143  23.587  41.523  11.407
39585W        W 3144  13.648  27.982  11.876
39586W        W 3145   4.300  33.019   3.782
39587W        W 3146   0.435  20.193  13.504
39588W        W 3147  10.774   5.336   1.395
39589W        W 3148  21.029  26.157  10.644
39590W        W 3149  40.992  20.545   3.795
39591W        W 3150  23.078  34.605  11.997
39592W        W 3151  18.560  35.071   3.734
39593W        W 3152  40.934   8.892  11.971
39594W        W 3153  43.999  22.549   2.707
39595W        W 3154  23.694   7.393  14.346
39596W        W 3155  40.037  37.367   2.766
39597W        W 3156   7.877  20.569  12.352
39598W        W 3157  33.946  23.125   0.358
39599W        W 3158  12.631  27.633  11.563
39600W        W 3159  14.184  41.293   3.182
39601W        W 3160  27.178  12.121  12.888
39602W        W 3161   5.214  29.502   4.820
39603W        W 3162  27.091   8.665   1.313
39604W        W 3163  34.521  21.051   0.424
39605W        W 3164  28.001  27.003   1.216
39606W        W 3165  42.415  16.254   4.668
39607W        W 3166  44.981   3.905   4.771
39608W        W 3167  10.204  38.919   2.735
39609W        W 3168  38.034  32.917  10.953
39610W        W 3169  15.811  25.018   0.437
39611W        W 3170  22.177  38.049   2.369
39612W        W 3171  22.079  13.616  10.521
39613W        W 3172  15.673  28.008  12.855
39614W        W 3173  35.483   4.227  11.881
39615W        W 3174  32.963   4.915   3.861
39616W        W 3175   7.832  11.809  11.025
39617W        W 3176  27.941   9.874   4.762
39618W        W 3177  18.212  15.581  12.570
39619W        W 3178  25.557  15.635  12.864
39620W        W 3179  22.597  19.058   2.276
39621W        W 3180   0.367  16.718  12.905
39622W        W 3181  34.900   0.923   2.339
39623W        W 3182  38.959  44.002  13.475
39624W        W 3183  41.017   9.262   1.262
39625W        W 3184  12.359  31.035   1.917
39626W        W 3185  21.525  23.556  12.912
39627W        W 3186  12.154   4.324  14.014
39628W        W 3187   1.271  12.243   3.210
39629W        W 3188  25.145  28.132   3.236
39630W        W 3189   8.864  24.713   0.252
39631W        W 3190  32.523  24.126   3.705
39632W        W 3191  30.482   5.929  13.983
39633W        W 3192  23.688  29.073   1.787
39634W        W 3193  16.278   5.831   4.772
39635W        W 3194  22.527  16.762  11.483
39636W        W 3195  11.849  40.053  13.042
39637W        W 3196   3.427  25.560   4.152
39638W        W 3197  28.053  24.520  14.369
39639W        W 3198  41.352  28.539  14.819
39640W        W 3199  43.891  34.065  10.481
39641W        W 3200  17.198  16.116  11.855
39642W        W 3201  19.701   8.237   3.346
39643W        W 3202  20.537  11.797  13.843
39644W        W 3203  28.512   6.360   9.987
39645W        W 3204  31.964   5.198  12.065
39646W        W 3205  29.571  24.590  13.383
39647W        W 3206  14.205  23.502   0.843
39648W        W 3207  16.294  36.071   1.339
39649W        W 3208   4.853  18.578  14.883
39650W        W 3209  29.579  19.779  10.152
39651W        W 3210   6.308  10.688  14.469
39652W        W 3211  15.812  12.765  14.952
39653W        W 3212  22.083  15.232  12.055
39654W        W 3213  15.739  14.251   4.803
39655W        W 3214  34.545  33.909   3.739
39656W        W 3215  41.913   6.689   0.786
39657W        W 3216  37.900  28.680  10.627
39658W        W 3217  36.019  32.407   4.664
39659W        W 3218  16.653   7.837  10.618
39660W        W 3219   3.801  36.927  13.929
39661W        W 3220  17.134  20.748   0.375
39662W        W 3221  38.976  42.445  11.532
39663W        W 3222  18.161   6.752  13.525
39664W        W 3223  30.966  36.859   2.404
39665W        W 3224   5.225  14.117  14.974
39666W        W 3225  34.932  12.791   1.379
39667W        W 3226  34.878  40.476   2.867
39668W        W 3227  10.359  29.510  10.058
39669W        W 3228  24.507  35.989   4.201
39670W        W 3229  15.586  27.946  13.530
39671W        W 3230   2.241  30.107   0.467
39672W        W 3231  33.444  43.918   4.738
39673W        W 3232  13.743  40.461  13.343
39674W        W 3233  26.505  43.936  10.638
39675W        W 3234  41.874   9.647  13.953
39676W        W 3235  41.469  30.134  11.021
39677W        W 3236  10.215  26.690  13.515
39678W        W 3237  22.717  24.181   1.898
39679W        W 3238  33.564   4.902   4.344
39680W        W 3239  29.578  25.548  11.544
39681W        W 3240  19.640  25.035  13.323
39682W        W 3241  33.596   5.809  14.457
39683W        W 3242  17.143   3.396   3.739
39684W        W 3243   0.337  42.460   1.256
39685W        W 3244   3.301  25.988  13.910
39686W        W 3245  12.129  23.154  11.091
39687W        W 3246  20.237  16.249   3.295
39688W        W 3247  29.133  11.361   4.237
39689W        W 3248  25.062  34.406   1.281
39690W        W 3249  34.541   0.913  13.339
39691W        W 3250  23.193   3.314   3.195
39692W        W 3251  38.554  14.633   3.632
39693W        W 3252  28.611  41.828   3.315
39694W        W 3253  12.723  24.676   0.445
39695W        W 3254  30.928  31.002  14.847
39696W        W 3255  19.640  40.983   0.836
39697W        W 3256  40.405  31.007   3.641
39698W        W 3257  28.670  13.821   1.352
39699W        W 3258  12.686   9.788   0.754
39700W        W 3259  11.783   2.960   9.969
39701W        W 3260  18.290  31.976  10.041
39702W        W 3261   5.792  21.068  11.989
39703W        W 3262  29.635  19.132  11.396
39704W        W 3263   0.865  10.191   1.794
39705W        W 3264  10.277  29.015  12.988
39706W        W 3265  43.414  34.593   1.925
39707W        W 3266  28.953  38.050  11.457
39708W        W 3267   4.874  43.349  13.013
39709W        W 3268   6.893  38.039   3.728
39710W        W 3269   6.879  29.040  11.561
39711W        W 3270  35.956  39.543   0.355
39712W        W 3271  37.847  35.402   3.373
39713W        W 3272  41.423   1.313  14.348
39714W        W 3273  31.092  36.053   1.897
39715W        W 3274  20.079  20.740  11.530
39716W        W 3275   1.309  32.549   4.318
39717W        W 3276  28.528  37.526  14.424
39718W        W 3277  12.820  26.700   1.907
39719W        W 3278  41.416  34.561   4.730
39720W        W 3279  18.577  27.017  11.581
39721W        W 3280   6.264  14.612   2.380
39722W        W 3281  42.434  27.096   1.729
39723W        W 3282   3.314   8.825  12.475
39724W        W 3283  41.830  39.918   4.816
39725W        W 3284   6.686  34.426  13.453
39726W        W 3285   2.364  37.909  11.947
39727W        W 3286  33.461  25.176   2.722
39728W        W 3287   1.866  25.690  14.868
39729W        W 3288  39.344  17.693   0.320
39730W        W 3289   5.834  41.343  12.365
39731W        W 3290  27.081  39.336  13.932
39732W        W 3291  22.650  21.588  13.396
39733W        W 3292  28.670  14.182   2.864
39734W        W 3293  33.022  16.592  14.961
39735W        W 3294   9.292  23.173  13.381
39736W        W 3295   5.382  37.363  10.901
39737W        W 3296   4.721  11.329   1.410
39738W        W 3297  42.518   2.254   3.167
39739W        W 3298   4.854  12.646  12.893
39740W        W 3299  19.709   9.826   4.691
39741W        W 3300  30.471  30.009  13.545
39742W        W 3301  21.534  12.256  12.040
39743W        W 3302  11.166  11.725  11.528
39744W        W 3303  33.008   1.903  12.089
39745W        W 3304  18.692  38.833  10.080
39746W        W 3305  15.151  14.284   4.226
39747W        W 3306  13.835   9.196  10.142
39748W        W 3307  20.094  24.216   4.298
39749W        W 3308  26.620  32.954  14.837
39750W        W 3309   1.927  29.110   1.787
39751W        W 3310  12.301   4.899   4.775
39752W        W 3311  24.110  30.035  10.056
39753W        W 3312  13.661  13.760  11.060
39754W        W 3313  27.985  33.484   3.165
39755W        W 3314   2.738  26.162   2.808
39756W        W 3315  14.621   6.364   0.479
39757W        W 3316  20.187  18.780  14.350
39758W        W 3317  31.460  12.330  12.343
39759W        W 3318  11.159  40.864   0.271
39760W        W 3319  37.039  25.527  14.309
39761W        W 3320  26.614  13.646  11.997
39762W        W 3321  40.450  23.241   2.705
39763W        W 3322  15.790  18.237   4.764
39764W        W 3323  32.076  32.490  14.958
39765W        W 3324  35.023  18.105   5.109
39766W        W 3325  15.266   8.691   4.697
39767W        W 3326  42.372  14.735   0.466
39768W        W 3327  27.154  33.913  13.393
39769W        W 3328   7.886   4.764  10.563
39770W        W 3329  18.709  44.360  12.832
39771W        W 3330   2.315  34.557   3.296
39772W        W 3331  23.605  21.690  11.027
39773W        W 3332  13.260  33.553   2.876
39774W        W 3333   3.923  11.764  12.435
39775W        W 3334  22.602   8.257   3.790
39776W        W 3335  21.230   8.781  13.462
39777W        W 3336   3.257   6.805  12.022
39778W        W 3337  11.690  33.122  14.516
39779W        W 3338   3.790  43.833  13.843
39780W        W 3339  26.592  17.081  10.639
39781W        W 3340  20.270  13.682  12.844
39782W        W 3341  17.749  18.134  14.425
39783W        W 3342  41.874  19.267   4.637
39784W        W 3343   4.698  44.262  12.048
39785W        W 3344   2.422  34.920   1.865
39786W        W 3345  26.019  39.856  13.834
39787W        W 3346  36.869  35.032  14.305
39788W        W 3347  26.147   0.312   3.734
39789W        W 3348  14.762   2.391  12.042
39790W        W 3349  22.570  32.458  11.947
39791W        W 3350  43.967  20.096   2.761
39792W        W 3351  30.932  27.094   1.403
39793W        W 3352  10.813  35.456  12.847
39794W        W 3353  12.344  40.932  14.301
39795W        W 3354   9.368  43.918  14.455
39796W        W 3355  40.050  12.718   3.710
39797W        W 3356  22.615  20.760  13.542
39798W        W 3357  26.140   7.861   2.797
39799W        W 3358  29.944   1.293  12.940
39800W        W 3359  30.530   4.944  14.339
39801W        W 3360  34.080   8.175   5.296
39802W        W 3361  27.600  16.710   1.778
39803W        W 3362  37.437  43.439  12.960
39804W        W 3363  40.454  39.957   2.229
39805W        W 3364   1.316  16.791  11.933
39806W        W 3365  27.965  20.042   4.155
39807W        W 3366  25.603  19.092  13.430
39808W        W 3367  36.448  37.923   1.406
39809W        W 3368  15.246  10.720   4.823
39810W        W 3369  36.085  40.874   2.221
39811W        W 3370   4.368  23.010   3.737
39812W        W 3371  33.897  11.163  11.980
39813W        W 3372   0.459  32.132  10.027
39814W        W 3373  34.895  22.563  10.099
39815W        W 3374   2.795  38.357   0.397
39816W        W 3375  10.248  41.944   0.341
39817W        W 3376  41.530  28.175  12.857
39818W        W 3377  13.255  13.255  13.892
39819W        W 3378  24.991  36.922  13.429
39820W        W 3379  12.750  11.853   3.283
39821W        W 3380  27.137  43.814   3.856
39822W        W 3381  19.698  38.394  11.488
39823W        W 3382  26.007  16.593  14.886
39824W        W 3383  12.311  23.609  12.357
39825W        W 3384  25.198  37.339   0.373
39826W        W 3385  13.241  16.616  10.899
39827W        W 3386  10.642  22.234  11.424
39828W        W 3387  32.634  26.676  13.022
39829W        W 3388   8.820  32.079  12.506
39830W        W 3389   1.327   9.784   0.280
39831W        W 3390  16.123  28.597  11.904
39832W        W 3391  44.754  32.964  10.910
39833W        W 3392  21.151  12.677  13.920
39834W        W 3393  42.815   6.791   4.117
39835W        W 3394  26.035  37.875  14.340
39836W        W 3395  11.349   8.857   2.322
39837W        W 3396  38.820   0.844   5.217
39838W        W 3397  28.142  41.930   1.826
39839W        W 3398  30.606  38.422   4.754
39840W        W 3399  41.836  14.186  11.590
39841W        W 3400  14.777  14.098  11.976
39842W        W 3401  22.148  44.475   3.322
39843W        W 3402  39.839  28.060   2.798
39844W        W 3403  36.034   0.455   4.684
39845W        W 3404   8.849  21.732  11.094
39846W        W 3405  12.361  19.073   4.191
39847W        W 3406  35.432   2.249  13.834
39848W        W 3407  14.728   6.377   4.683
39849W        W 3408  10.247  24.483   4.778
39850W        W 3409  31.945   0.846  12.579
39851W        W 3410  18.102   7.310  11.568
39852W        W 3411  10.812  22.092   1.246
39853W        W 3412  23.030  28.672   4.182
39854W        W 3413  35.041  19.756   3.717
39855W        W 3414   9.263  29.962   3.861
39856W        W 3415  13.803   9.193   2.829
39857W        W 3416  25.046   9.358   5.582
39858W        W 3417  22.031   0.756  12.355
39859W        W 3418  26.145  26.533   2.355
39860W        W 3419   6.865  41.960   4.245
39861W        W 3420  37.439  34.957  10.896
39862W        W 3421   6.298  27.644  14.841
39863W        W 3422  30.955  34.386   0.731
39864W        W 3423   2.403  17.598   0.790
39865W        W 3424   6.316  31.543  14.314
39866W        W 3425  23.533  37.366  14.896
39867W        W 3426  18.568  33.972   2.746
39868W        W 3427  14.627  30.154  11.548
39869W        W 3428  33.907  35.434   4.216
39870W        W 3429   0.893  31.995  14.438
39871W        W 3430  40.006  20.602   2.331
39872W        W 3431  35.456  21.081   1.390
39873W        W 3432  33.442  21.244  13.360
39874W        W 3433   8.722  35.044   3.678
39875W        W 3434  23.525   5.859  14.478
39876W        W 3435  12.729  17.064   4.265
39877W        W 3436  43.371  30.629  14.017
39878W        W 3437   1.431  13.350  11.501
39879W        W 3438  12.329   8.865  14.324
39880W        W 3439  39.343  16.207  11.056
39881W        W 3440  37.041  16.223   0.773
39882W        W 3441  33.063   3.885   3.661
39883W        W 3442  10.657  40.858   0.260
39884W        W 3443   0.408  41.306  12.043
39885W        W 3444   3.312   1.453  10.439
39886W        W 3445  32.393  42.472   3.735
39887W        W 3446   9.382   7.181   2.244
39888W        W 3447   0.938  44.263   1.232
39889W        W 3448  25.077  43.312   3.346
39890W        W 3449  23.502  14.816  13.314
39891W        W 3450  13.335  10.381   0.853
39892W        W 3451  39.927  32.562  14.314
39893W        W 3452  29.960  34.474  14.410
39894W        W 3453  16.096  14.214   1.297
39895W        W 3454  40.490  40.010  12.905
39896W        W 3455  40.342  33.981   3.713
39897W        W 3456  35.578  20.127   1.393
39898W        W 3457  25.157   1.272   4.258
39899W        W 3458  43.425   2.914   3.262
39900W        W 3459   4.317  24.514   0.395
39901W        W 3460  16.305   4.206   1.246
39902W        W 3461   0.796  38.027  14.436
39903W        W 3462  19.751  43.970   1.698
39904W        W 3463  34.380  18.226  11.484
39905W        W 3464  38.830  10.356   0.483
39906W        W 3465  16.657  19.612   1.250
39907W        W 3466  37.926  35.511   4.812
39908W        W 3467  38.053   4.914   4.186
39909W        W 3468  34.896  34.932  14.982
39910W        W 3469  17.598  38.866  12.371
39911W        W 3470   4.269  24.660   1.891
39912W        W 3471  43.378   6.323   4.336
39913W        W 3472  13.757  27.604  12.383
39914W        W 3473   4.303  36.522  13.547
39915W        W 3474   6.184   3.761  11.927
39916W        W 3475  20.225   6.365   4.186
39917W        W 3476  32.506   4.355  13.015
39918W        W 3477  32.524   8.210   4.330
39919W        W 3478   6.722   2.417  11.523
39920W        W 3479   9.660   5.914   3.870
39921W        W 3480   2.405  21.552  10.494
39922W        W 3481  35.928  26.017   1.402
39923W        W 3482  15.280   9.822   4.744
39924W        W 3483   5.324  10.752  12.443
39925W        W 3484   2.963   6.898   1.344
39926W        W 3485  36.519  42.803   4.144
39927W        W 3486   5.211  23.125  11.898
39928W        W 3487  15.632  35.527   3.359
39929W        W 3488   8.660  37.459   3.762
39930W        W 3489  36.852  12.165  12.918
39931W        W 3490   0.334  40.455  10.475
39932W        W 3491   5.345   1.837  14.488
39933W        W 3492  38.441  29.009   4.205
39934W        W 3493  34.101  27.195   2.233
39935W        W 3494   6.387  19.238  11.931
39936W        W 3495  32.098  28.078   2.310
39937W        W 3496  36.088  22.040  14.942
39938W        W 3497  34.602  32.971   0.432
39939W        W 3498  32.419  34.887  13.336
39940W        W 3499  24.699  34.496   3.250
39941W        W 3500   5.852  26.065  10.428
39942W        W 3501  14.263  13.641   3.280
39943W        W 3502   1.752  35.992  10.460
39944W        W 3503  41.993   0.477  12.022
39945W        W 3504  34.949  35.561  13.390
39946W        W 3505  18.142  37.529   4.307
39947W        W 3506  39.008  13.338   3.689
39948W        W 3507   9.660   9.153   1.267
39949W        W 3508  30.529  21.262   4.684
39950W        W 3509  25.501   9.278   4.745
39951W        W 3510   8.244  16.755  12.932
39952W        W 3511  31.448  41.939   1.773
39953W        W 3512  43.322  33.129  13.340
39954W        W 3513  11.861  23.568   1.871
39955W        W 3514  20.154  39.338   2.732
39956W        W 3515  19.717  30.964   4.121
39957W        W 3516  23.043  35.369  14.919
39958W        W 3517  22.708  21.080   5.228
39959W        W 3518  10.218  37.517   2.257
39960W        W 3519  26.560  39.065  12.856
39961W        W 3520  25.653  13.733   4.343
39962W        W 3521  21.545  25.496   1.852
39963W        W 3522   5.785   5.435   3.664
39964W        W 3523  14.160  11.183  12.945
39965W        W 3524  22.057  24.592   0.769
39966W        W 3525  43.874  33.581   2.865
39967W        W 3526  13.296  21.216  12.543
39968W        W 3527  14.094  27.087  14.788
39969W        W 3528  23.713  21.093   1.854
39970W        W 3529  26.544  42.919  11.043
39971W        W 3530  22.728  36.869  11.021
39972W        W 3531  12.645  35.489  14.856
39973W        W 3532   0.384   1.456  13.396
39974W        W 3533  23.240   1.483   1.351
39975W        W 3534  23.219  15.107   1.706
39976W        W 3535  32.444  29.010  14.965
39977W        W 3536  40.307  10.654   2.380
39978W        W 3537  35.477  32.043  10.152
39979W        W 3538   2.338  16.625  14.986
39980W        W 3539   6.800  41.800   0.928
39981W        W 3540  28.067   9.290   3.317
39982W        W 3541  28.182  14.685  14.760
39983W        W 3542  16.595  13.240  12.409
39984W        W 3543  14.723   3.750  11.875
39985W        W 3544  38.030  26.674  12.577
39986W        W 3545   2.953  15.122   2.185
39987W        W 3546  27.053  38.932   3.680
39988W        W 3547  25.505   8.693   3.150
39989W        W 3548  38.467  21.596   3.172
39990W        W 3549  12.232  20.608  11.450
39991W        W 3550   4.369  32.117   0.302
39992W        W 3551   9.302  21.207   0.943
39993W        W 3552  19.160  35.959  11.094
39994W        W 3553  32.447  28.468  14.290
39995W        W 3554  18.282  33.564   3.292
39996W        W 3555   8.262  38.845   0.310
39997W        W 3556   6.904  13.688   2.755
39998W        W 3557  31.570  22.541   4.722
39999W        W 3558  31.924  29.097  11.064
40000W        W 3559  14.175  20.037   0.247
40001W        W 3560  13.173  11.136   1.721
40002W        W 3561  41.527  34.598  11.555
40003W        W 3562   1.775  25.534   0.865
40004W        W 3563  27.547  39.888   2.758
40005W        W 3564  19.119  11.693   2.742
40006W        W 3565  25.655  11.658  13.803
40007W        W 3566  11.170  11.823  11.982
40008W        W 3567  20.739  16.635  14.991
40009W        W 3568  34.006   5.892   1.762
40010W        W 3569  27.577  29.440   0.290
40011W        W 3570  33.452  23.163  12.067
40012W        W 3571  43.834  44.906  13.370
40013W        W 3572   8.390  31.471   1.414
40014W        W 3573  14.645  20.557   1.797
40015W        W 3574  24.682  26.645  11.510
40016W        W 3575  44.780   7.714   4.334
40017W        W 3576  25.542  31.035  12.982
40018W        W 3577  33.584  28.540   4.155
40019W        W 3578   1.287  37.877  10.959
40020W        W 3579  32.425   1.318  13.999
40021W        W 3580  30.456  37.572  10.450
40022W        W 3581  36.429   1.337   0.735
40023W        W 3582  14.168   5.390  11.868
40024W        W 3583   3.366  25.107   1.250
40025W        W 3584   6.703  29.084   3.227
40026W        W 3585  32.930   7.736  13.009
40027W        W 3586  39.496  25.530   1.379
40028W        W 3587  15.675  43.790   3.650
40029W        W 3588  35.939  38.980   1.876
40030W        W 3589  38.365  19.739  12.040
40031W        W 3590  11.365  26.987   1.261
40032W        W 3591   0.857   0.847  12.385
40033W        W 3592  21.742  44.933   1.223
40034W        W 3593  23.019  16.125  11.085
40035W        W 3594  34.574  41.828   3.176
40036W        W 3595  10.647  44.881  13.947
40037W        W 3596  18.266  11.687   1.235
40038W        W 3597  14.330  37.025  11.497
40039W        W 3598   4.747  13.345   3.686
40040W        W 3599  10.835  27.639  12.410
40041W        W 3600  33.506   4.859  10.530
40042W        W 3601  44.901  26.693  14.502
40043W        W 3602  18.604  20.226   4.183
40044W        W 3603  29.560  31.504  14.767
40045W        W 3604  36.889  11.304   3.699
40046W        W 3605   1.325  24.515  10.930
40047W        W 3606  29.036  15.634   1.895
40048W        W 3607  33.926  37.858  14.303
40049W        W 3608  41.012  17.671  13.058
40050W        W 3609   1.791  40.829   0.348
40051W        W 3610  39.460  39.468   3.653
40052W        W 3611  44.991  44.924   1.884
40053W        W 3612  35.920  33.474  14.843
40054W        W 3613  40.304  44.877  11.949
40055W        W 3614   5.866  25.006   2.689
40056W        W 3615  35.523  23.555   2.401
40057W        W 3616  37.575   6.893   2.368
40058W        W 3617  30.133   4.375   0.304
40059W        W 3618  35.420   6.813  14.984
40060W        W 3619  40.309  36.023  11.857
40061W        W 3620  13.633  26.701   5.274
40062W        W 3621  28.063   3.333  12.373
40063W        W 3622   1.414  44.937  14.914
40064W        W 3623  35.052  15.086  13.312
40065W        W 3624  11.662   4.393  12.926
40066W        W 3625  42.451  42.812   2.725
40067W        W 3626  26.964   0.808  13.923
40068W        W 3627  39.529  25.472  12.354
40069W        W 3628  10.345  31.020   4.613
40070W        W 3629  22.112  22.679   4.773
40071W        W 3630  42.527  32.083   2.379
40072W        W 3631  16.735  25.482  14.376
40073W        W 3632  41.420  30.921   4.766
40074W        W 3633   4.779  30.651   4.132
40075W        W 3634  10.772  43.395  14.433
40076W        W 3635  17.750   3.275  13.462
40077W        W 3636  24.645  15.226  13.377
40078W        W 3637  13.603  16.133  11.951
40079W        W 3638  41.808   9.354   0.735
40080W        W 3639   3.719  36.385  11.555
40081W        W 3640  19.615  24.519  10.469
40082W        W 3641  35.892  21.581   4.684
40083W        W 3642   3.439   4.897  10.531
40084W        W 3643  44.814  10.296  11.488
40085W        W 3644  23.522  24.096   9.961
40086W        W 3645  22.636  19.617  12.039
40087W        W 3646   6.365  12.816   1.437
40088W        W 3647  36.534  20.668   1.424
40089W        W 3648  44.345   2.381   2.855
40090W        W 3649  35.954  21.182  13.908
40091W        W 3650  29.981   8.795   2.797
40092W        W 3651  32.398  18.248  14.941
40093W        W 3652  18.227  12.856  13.011
40094W        W 3653  41.489  19.176  10.914
40095W        W 3654  14.770  24.996  13.356
40096W        W 3655  39.829   5.912   4.250
40097W        W 3656  23.558  16.155   0.279
40098W        W 3657  10.745   9.701   0.840
40099W        W 3658   5.289  23.589  11.451
40100W        W 3659   0.953  26.970  10.584
40101W        W 3660  36.061  14.310  14.329
40102W        W 3661  36.965   6.899   3.280
40103W        W 3662  13.252  32.515   1.711
40104W        W 3663   4.719   9.228  12.343
40105W        W 3664  13.262  11.863   0.472
40106W        W 3665  16.130   7.179   9.447
40107W        W 3666  21.517  11.646  14.786
40108W        W 3667  38.474  43.380   0.851
40109W        W 3668  36.504   9.362   1.412
40110W        W 3669  25.006   7.803  12.831
40111W        W 3670  21.535  17.145   1.287
40112W        W 3671  22.675  14.332   4.332
40113W        W 3672  14.663  29.582  12.077
40114W        W 3673  14.629  27.579   4.259
40115W        W 3674  11.804  24.222   0.465
40116W        W 3675  17.109  25.161  12.022
40117W        W 3676  13.220  40.405  10.035
40118W        W 3677   6.715  39.934  13.409
40119W        W 3678  12.796  42.524  11.128
40120W        W 3679  29.520  36.926  10.937
40121W        W 3680  43.981  25.070   0.957
40122W        W 3681  23.152   3.253   4.611
40123W        W 3682  37.031  37.917   4.723
40124W        W 3683   4.892  35.412  11.571
40125W        W 3684  26.181  23.558   1.420
40126W        W 3685  10.260  39.975   1.739
40127W        W 3686   4.266  35.862   4.186
40128W        W 3687  32.905   0.371  14.989
40129W        W 3688  37.024  13.832  13.497
40130W        W 3689   7.777  19.058   1.374
40131W        W 3690  28.085  27.488   4.636
40132W        W 3691  36.455  24.695  12.514
40133W        W 3692  28.148  13.677   4.249
40134W        W 3693  22.717   5.377  11.542
40135W        W 3694  41.345  35.104  13.346
40136W        W 3695  32.467  33.392  11.372
40137W        W 3696  37.967  31.557  12.085
40138W        W 3697  35.510   7.417  13.942
40139W        W 3698   0.326  16.303  12.422
40140W        W 3699  44.905  23.001   0.278
40141W        W 3700  10.382   1.354   1.361
40142W        W 3701  35.945  21.191  11.955
40143W        W 3702  10.228  11.192  11.466
40144W        W 3703  40.942  20.693   0.431
40145W        W 3704  29.573  29.003  14.405
40146W        W 3705  15.241   2.921   1.416
40147W        W 3706  15.804  27.685  13.022
40148W        W 3707  11.647  29.532  11.505
40149W        W 3708  22.079  26.457  13.329
40150W        W 3709  36.551  40.966   0.871
40151W        W 3710  33.479  28.470   1.900
40152W        W 3711  19.583  39.034   1.827
40153W        W 3712  39.472  12.834  11.046
40154W        W 3713  12.194   9.715  13.353
40155W        W 3714  11.759  43.339  13.464
40156W        W 3715   1.815  21.107  11.889
40157W        W 3716  41.023  40.423  12.375
40158W        W 3717  32.028   9.829   1.329
40159W        W 3718   7.269  27.626  10.573
40160W        W 3719  39.495   6.236   1.919
40161W        W 3720  17.126  20.243   0.782
40162W        W 3721  22.232  18.713  13.511
40163W        W 3722   0.370  41.488   3.242
40164W        W 3723  11.231   5.196   1.814
40165W        W 3724  40.450  12.733   0.364
40166W        W 3725   7.813  21.204   3.678
40167W        W 3726  22.160  13.837   3.805
40168W        W 3727  12.843  10.738  10.911
40169W        W 3728  43.969  18.247   0.452
40170W        W 3729  24.507   4.328  14.828
40171W        W 3730  29.516  16.650   2.689
40172W        W 3731  29.947  17.667  14.890
40173W        W 3732  42.931  39.414   2.253
40174W        W 3733  25.975  18.258  11.530
40175W        W 3734  28.958   3.385   3.310
40176W        W 3735  29.929  42.781   3.655
40177W        W 3736  35.094  32.544   0.401
40178W        W 3737  43.315  35.527   1.344
40179W        W 3738  28.582  23.583  14.907
40180W        W 3739  14.650   0.329  13.031
40181W        W 3740  12.194  30.658   3.698
40182W        W 3741  20.564  32.075  12.953
40183W        W 3742  20.707  13.742  14.973
40184W        W 3743  30.985  16.799   1.398
40185W        W 3744  42.306  37.854  12.556
40186W        W 3745  12.200  35.050   0.245
40187W        W 3746  43.483  34.561  10.458
40188W        W 3747  40.803   4.412   2.178
40189W        W 3748  30.654  38.399   3.722
40190W        W 3749  32.609  11.867   3.266
40191W        W 3750   0.769   8.702  10.580
40192W        W 3751  20.085   0.984  12.577
40193W        W 3752  25.685   3.312   4.600
40194W        W 3753   7.353  27.990  14.863
40195W        W 3754  12.699  43.481  12.504
40196W        W 3755  27.087  14.164   3.296
40197W        W 3756  37.494  40.469   4.204
40198W        W 3757  27.155  23.493   1.339
40199W        W 3758  28.534  16.072   2.305
40200W        W 3759  22.557  16.775  12.553
40201W        W 3760   9.361  15.190  12.424
40202W        W 3761  15.675  28.578  10.490
40203W        W 3762  36.047  29.560  13.452
40204W        W 3763   9.215  30.626   0.296
40205W        W 3764  22.136  42.936  14.991
40206W        W 3765   7.838  15.252  13.836
40207W        W 3766  36.488   7.709   5.094
40208W        W 3767  24.006  33.017  14.429
40209W        W 3768  42.357  23.171   2.279
40210W        W 3769  39.963  13.607   2.839
40211W        W 3770   8.171  20.526   4.185
40212W        W 3771  15.735   1.374  11.407
40213W        W 3772  21.097  13.184  11.512
40214W        W 3773  44.986  22.522  11.528
40215W        W 3774  17.246  29.542   3.147
40216W        W 3775  20.756   5.217  11.543
40217W        W 3776  30.918  33.449  13.950
40218W        W 3777   0.986  16.209  13.897
40219W        W 3778  31.960  36.491  11.921
40220W        W 3779  10.145  17.766   2.346
40221W        W 3780  18.269   0.838  10.609
40222W        W 3781  24.524  28.511  11.994
40223W        W 3782  43.416  34.028  11.565
40224W        W 3783  43.986  29.624  14.792
40225W        W 3784  24.559  40.304   0.336
40226W        W 3785  33.391  24.032   0.389
40227W        W 3786  13.814  36.054  14.855
40228W        W 3787  15.745  27.472   0.877
40229W        W 3788   3.408  25.051  11.093
40230W        W 3789  30.984   2.242   1.724
40231W        W 3790   7.823  15.705   2.782
40232W        W 3791  40.329  13.121  11.072
40233W        W 3792  24.574  25.549  13.444
40234W        W 3793  13.271  14.799   3.840
40235W        W 3794  30.917   0.787   4.660
40236W        W 3795  35.957  36.409   4.143
40237W        W 3796  32.057  21.102   4.252
40238W        W 3797   0.264  19.680   3.684
40239W        W 3798  19.754  24.699   2.353
40240W        W 3799  14.763   1.276   0.898
40241W        W 3800  13.762  22.629   3.813
40242W        W 3801  13.244  30.604  13.441
40243W        W 3802  16.589  39.446   3.794
40244W        W 3803  12.644  17.735  11.894
40245W        W 3804   9.693  28.057  14.818
40246W        W 3805  21.715  18.603   4.298
40247W        W 3806  30.548  41.398  10.934
40248W        W 3807  19.129  27.090  11.980
40249W        W 3808  35.026   2.321   0.355
40250W        W 3809  27.004  17.665  11.859
40251W        W 3810  29.098  28.504  11.027
40252W        W 3811  14.595  19.745  14.450
40253W        W 3812  10.164  17.249   4.753
40254W        W 3813  44.971   2.355  13.500
40255W        W 3814   1.977   7.708   0.382
40256W        W 3815  42.316   2.341   3.660
40257W        W 3816  40.936  39.063   0.417
40258W        W 3817  42.912  19.536   3.194
40259W        W 3818   3.831  22.250   0.916
40260W        W 3819  34.613   4.307  12.870
40261W        W 3820   2.353  26.080  12.087
40262W        W 3821   3.934  30.488  14.981
40263W        W 3822  12.300   8.322   3.734
40264W        W 3823  27.153   4.927   0.728
40265W        W 3824  12.141  16.268  13.845
40266W        W 3825  37.447   8.386  13.444
40267W        W 3826  26.064  15.109  13.359
40268W        W 3827  10.797  13.284  12.983
40269W        W 3828  13.137  12.278  13.314
40270W        W 3829   9.387  39.853  10.941
40271W        W 3830  41.839  17.635   2.197
40272W        W 3831   3.352  25.582  11.958
40273W        W 3832  17.616   8.181   0.813
40274W        W 3833   9.375  22.630   0.351
40275W        W 3834  41.857  22.704   1.349
40276W        W 3835   9.759  19.733  11.035
40277W        W 3836   2.796   4.394  13.466
40278W        W 3837  30.446  33.412  11.963
40279W        W 3838  32.031  26.700   1.324
40280W        W 3839  42.927  15.087   3.772
40281W        W 3840   5.304  38.879   4.235
40282W        W 3841  11.241  39.537   4.195
40283W        W 3842  35.491  44.408   0.302
40284W        W 3843  18.714  28.451   1.923
40285W        W 3844   9.863  37.846   2.770
40286W        W 3845  24.096  29.631   4.638
40287W        W 3846   6.872   0.921  12.451
40288W        W 3847   0.342  23.231  13.802
40289W        W 3848  10.837  24.095   0.320
40290W        W 3849   2.950  10.809   3.333
40291W        W 3850  32.083  14.338  12.375
40292W        W 3851  11.186  15.255  12.979
40293W        W 3852  23.554   3.745   4.238
40294W        W 3853   1.261  13.612   2.847
40295W        W 3854  38.893   2.864  13.023
40296W        W 3855   9.369   3.849   3.330
40297W        W 3856  42.795  32.002  11.509
40298W        W 3857   3.264  43.852   3.364
40299W        W 3858  40.507  17.659  12.823
40300W        W 3859  24.980  10.662  14.984
40301W        W 3860  14.117  35.966   2.374
40302W        W 3861   0.885  34.958  14.858
40303W        W 3862   4.424  15.593  10.483
40304W        W 3863   5.274  17.620  11.888
40305W        W 3864  21.174  35.950   0.372
40306W        W 3865  18.144  32.103   4.271
40307W        W 3866  10.748  44.259   1.241
40308W        W 3867  30.477  40.544  13.021
40309W        W 3868  28.670  39.450   5.081
40310W        W 3869  39.901  35.432   2.765
40311W        W 3870  30.659   8.340   2.875
40312W        W 3871  30.049   2.803   1.322
40313W        W 3872  12.176  20.628   0.415
40314W        W 3873  23.617  26.206   0.755
40315W        W 3874  44.932  16.707   0.811
40316W        W 3875  33.059  37.363  13.009
40317W        W 3876  26.624  39.974  12.413
40318W        W 3877   3.299  19.578   1.847
40319W        W 3878  10.288  35.555  14.815
40320W        W 3879  29.634   5.427  12.840
40321W        W 3880  36.921  42.921  14.477
40322W        W 3881  20.575  14.238   3.691
40323W        W 3882  26.674  43.386   4.203
40324W        W 3883  33.071  26.463   1.904
40325W        W 3884  23.209  31.506   4.169
40326W        W 3885  36.363  19.669  10.412
40327W        W 3886  10.785  16.180  10.912
40328W        W 3887  43.865  40.871  10.599
40329W        W 3888  43.802  13.223   0.856
40330W        W 3889  38.941  23.188  13.469
40331W        W 3890  34.957  42.857   0.757
40332W        W 3891   7.878   7.409  12.853
40333W        W 3892  14.274   6.225  10.914
40334W        W 3893   2.907  35.441  13.939
40335W        W 3894   2.370  13.781  11.976
40336W        W 3895  30.027  11.735  12.469
40337W        W 3896  17.591  29.558   1.888
40338W        W 3897  23.561  39.894   4.801
40339W        W 3898  37.443  42.809  13.802
40340W        W 3899  20.050  12.673   4.313
40341W        W 3900   2.458   5.228   2.837
40342W        W 3901  11.136   3.265  10.972
40343W        W 3902  38.820  37.989  13.426
40344W        W 3903  11.162  42.795   0.855
40345W        W 3904  36.531  11.228   0.391
40346W        W 3905  33.020  44.836  12.071
40347W        W 3906  35.942  18.063  13.060
40348W        W 3907  15.733   9.206  12.889
40349W        W 3908  31.980   8.827   0.455
40350W        W 3909   1.825  31.500  13.307
40351W        W 3910  40.447  40.345  13.814
40352W        W 3911   1.468  25.097  13.514
40353W        W 3912  27.197  25.974  14.302
40354W        W 3913  27.656  32.025   1.441
40355W        W 3914  10.339   4.914  12.907
40356W        W 3915  37.559  22.168   0.957
40357W        W 3916  20.549  15.727   4.253
40358W        W 3917  43.292   2.340  10.516
40359W        W 3918   1.413  31.009   0.835
40360W        W 3919  42.907  39.828   3.778
40361W        W 3920  42.820  35.540  10.975
40362W        W 3921  18.067  25.666  12.519
40363W        W 3922   7.673  17.727   4.317
40364W        W 3923  36.024  13.638  12.971
40365W        W 3924  17.141  24.022   0.872
40366W        W 3925  29.462  18.697   0.945
40367W        W 3926   9.361  24.057   1.408
40368W        W 3927  14.098   6.810   3.335
40369W        W 3928   0.844  34.471   0.761
40370W        W 3929   0.934  28.953   0.832
40371W        W 3930  21.593  42.408  12.909
40372W        W 3931  23.601  24.179  11.097
40373W        W 3932  30.946  24.975  11.044
40374W        W 3933  12.837  35.085   1.890
40375W        W 3934  37.862   2.441   4.839
40376W        W 3935   6.382  20.050  12.509
40377W        W 3936  39.358  36.414   2.346
40378W        W 3937  15.151  43.294  12.842
40379W        W 3938  17.762  15.114  14.995
40380W        W 3939  17.562  15.310  11.441
40381W        W 3940  22.178  29.971   2.803
40382W        W 3941   6.681  22.744   0.293
40383W        W 3942  38.339  31.565   3.654
40384W        W 3943  38.370  41.925   3.348
40385W        W 3944  39.877  24.496   1.769
40386W        W 3945  10.215  31.977   4.672
40387W        W 3946  40.318  34.925   1.772
40388W        W 3947   2.347  23.093   0.775
40389W        W 3948  19.766  37.878  14.305
40390W        W 3949  17.282  38.850  13.948
40391W        W 3950  27.188   8.372   1.930
40392W        W 3951  42.029  28.045  11.908
40393W        W 3952  14.115  17.143  10.914
40394W        W 3953   9.270   9.373   2.680
40395W        W 3954  14.640  33.096   2.761
40396W        W 3955  33.588  42.978  12.851
40397W        W 3956  10.252  43.966  11.972
40398W        W 3957  15.791  28.651   0.964
40399W        W 3958   3.720   0.878  12.884
40400W        W 3959  26.701  26.479   0.731
40401W        W 3960  18.599  24.088  12.989
40402W        W 3961   6.798   5.717  12.001
40403W        W 3962  14.603  24.179  11.023
40404W        W 3963   6.412   6.906   1.343
40405W        W 3964  23.091  24.047  10.914
40406W        W 3965  19.703   8.200  11.870
40407W        W 3966  14.700  30.622   5.193
40408W        W 3967  10.331  16.803  10.588
40409W        W 3968   6.220  16.208  11.088
40410W        W 3969  32.970  43.333  11.102
40411W        W 3970  13.176   0.279  12.879
40412W        W 3971   6.685  14.163   9.926
40413W        W 3972   4.721  32.920  12.566
40414W        W 3973  44.366  39.394   1.352
40415W        W 3974  15.687  18.623   2.311
40416W        W 3975  25.151   0.261   4.323
40417W        W 3976  35.387  13.709   1.820
40418W        W 3977  28.135  22.211  14.325
40419W        W 3978  13.153   3.426   0.823
40420W        W 3979   7.406  16.232  11.879
40421W        W 3980   7.728   4.896   2.356
40422W        W 3981  14.749  38.960   4.267
40423W        W 3982   8.327  43.295  12.095
40424W        W 3983   8.879  11.333   0.797
40425W        W 3984  44.849   3.746   3.645
40426W        W 3985  13.328  25.599   5.275
40427W        W 3986  21.033  44.972  11.088
40428W        W 3987  20.751  17.232  11.890
40429W        W 3988   0.285  38.065   4.660
40430W        W 3989  39.445   1.857  14.932
40431W        W 3990  26.628  42.015   1.808
40432W        W 3991   8.267   9.871   3.252
40433W        W 3992  38.356  42.405  12.853
40434W        W 3993  35.460  16.176   1.352
40435W        W 3994   1.472  43.992  13.397
40436W        W 3995  36.905   4.775  11.081
40437W        W 3996  26.470   5.408   4.635
40438W        W 3997   3.424  34.611   3.211
40439W        W 3998  43.397  23.117  14.442
40440W        W 3999  10.812  17.712  14.983
40441W        W 4000  36.476  18.555  11.902
40442W        W 4001  22.150  44.498   4.259
40443W        W 4002  28.622   7.217  13.952
40444W        W 4003  42.932  41.495   4.780
40445W        W 4004  15.146   2.353   1.696
40446W        W 4005   9.301  31.439  11.399
40447W        W 4006  40.534  40.990  10.491
40448W        W 4007  29.584  40.901   4.219
40449W        W 4008  43.471  17.691   4.212
40450W        W 4009  22.116  15.193  14.892
40451W        W 4010   8.891  14.112   2.685
40452W        W 4011  41.801  23.518  14.827
40453W        W 4012   1.827  42.877  10.999
40454W        W 4013  22.609  40.909  12.835
40455W        W 4014  37.524  16.158   3.800
40456W        W 4015  18.176  24.704  12.855
40457W        W 4016  13.658   2.816   0.258
40458W        W 4017  38.869  30.121   0.778
40459W        W 4018  22.504  43.410  14.324
40460W        W 4019   9.341  33.387   4.232
40461W        W 4020  15.305   3.743   4.131
40462W        W 4021  30.562  28.961  14.351
40463W        W 4022   0.854  27.145  13.960
40464W        W 4023  18.145  10.194  10.066
40465W        W 4024  24.097  24.614   2.864
40466W        W 4025   8.196   1.949   2.725
40467W        W 4026  28.456  42.291   3.790
40468W        W 4027   0.887   1.837  12.020
40469W        W 4028  24.201  29.543  14.026
40470W        W 4029  32.446   2.932   1.906
40471W        W 4030  14.650   7.368   2.773
40472W        W 4031   0.911   4.302   1.883
40473W        W 4032  26.120  39.905  11.379
40474W        W 4033  40.953   5.820   0.332
40475W        W 4034  18.656   2.744   0.317
40476W        W 4035  34.075  24.006   4.808
40477W        W 4036  30.553  40.021   2.743
40478W        W 4037  22.244  31.539  14.329
40479W        W 4038  25.152  41.849   1.757
40480W        W 4039  37.923  11.785   2.354
40481W        W 4040  39.051   4.329   0.250
40482W        W 4041  37.979  16.093  11.931
40483W        W 4042  37.981   0.409   0.847
40484W        W 4043  21.705  27.042   3.690
40485W        W 4044  31.416   7.840  11.014
40486W        W 4045  22.181  30.609   3.244
40487W        W 4046   7.340   3.764   2.379
40488W        W 4047  34.028  29.094  11.445
40489W        W 4048   6.330   6.228   0.875
40490W        W 4049  11.789   4.718  12.943
40491W        W 4050  13.839   1.304  11.539
40492W        W 4051   3.240  27.945  13.881
40493W        W 4052  19.224  42.405   2.718
40494W        W 4053  37.471  28.065   1.829
40495W        W 4054  19.140  32.953   1.880
40496W        W 4055   2.396  15.297  10.937
40497W        W 4056  11.350   5.231   4.758
40498W        W 4057  17.106   0.297   3.719
40499W        W 4058  15.647  17.628   4.601
40500W        W 4059  15.256  32.909   2.866
40501W        W 4060  33.466  27.025   3.850
40502W        W 4061  33.537  19.064  12.546
40503W        W 4062  19.704  33.016  14.470
40504W        W 4063  24.222  20.737   2.411
40505W        W 4064  26.036  39.546  10.610
40506W        W 4065  27.616   1.960  11.516
40507W        W 4066   5.765  31.531   0.843
40508W        W 4067  43.283  43.352   1.431
40509W        W 4068   2.903  24.078  14.431
40510W        W 4069  34.518   2.314  10.481
40511W        W 4070  18.160  40.531  11.425
40512W        W 4071  40.529  37.891   1.744
40513W        W 4072  10.258   0.324  11.013
40514W        W 4073  15.157  35.023   2.258
40515W        W 4074  27.024  29.633  12.534
40516W        W 4075  36.969  38.918   4.787
40517W        W 4076   4.352   4.332  11.556
40518W        W 4077  26.637   7.700   3.365
40519W        W 4078  22.225  44.449  11.973
40520W        W 4079  30.149  30.031   3.633
40521W        W 4080   5.215  40.344   3.187
40522W        W 4081  19.057  37.494  14.368
40523W        W 4082  12.730  34.114   4.193
40524W        W 4083  13.327  22.686  11.044
40525W        W 4084  40.333   0.904   5.265
40526W        W 4085  13.263  20.568   1.394
40527W        W 4086  12.332  39.939   4.669
40528W        W 4087  36.495  20.556   4.131
40529W        W 4088   9.778   6.305  12.538
40530W        W 4089  23.644  19.043   3.631
40531W        W 4090  42.413  30.509   0.403
40532W        W 4091  28.604  36.857  10.561
40533W        W 4092   9.161  21.056  12.013
40534W        W 4093  13.694  20.031  13.379
40535W        W 4094   1.478  44.944   4.760
40536W        W 4095  44.429  28.457   0.428
40537W        W 4096  38.324  29.924  11.992
40538W        W 4097  21.615   4.829  13.033
40539W        W 4098  32.999  16.213   3.798
40540W        W 4099  35.871  33.397  12.532
40541W        W 4100  13.181  43.357   3.377
40542W        W 4101  11.222  38.009  12.516
40543W        W 4102  30.547  29.597  13.876
40544W        W 4103  26.101  23.602   3.775
40545W        W 4104  31.433  24.986   1.807
40546W        W 4105  43.479  22.115  14.960
40547W        W 4106  35.868  28.027  13.806
40548W        W 4107  12.808  43.444   0.264
40549W        W 4108  24.154  38.076  10.496
40550W        W 4109  29.948  14.743   1.756
40551W        W 4110   9.331   9.684  12.089
40552W        W 4111  43.815  17.166  13.327
40553W        W 4112  13.706   3.346  14.988
40554W        W 4113   6.192  18.783   3.698
40555W        W 4114  30.064  36.400  11.979
40556W        W 4115  24.012  28.118  11.032
40557W        W 4116  28.145   2.720   2.717
40558W        W 4117  26.021  40.954  11.873
40559W        W 4118  38.052   9.336  14.925
40560W        W 4119  36.007  25.598   0.302
40561W        W 4120   3.749  27.595   0.465
40562W        W 4121   5.927   4.778  13.436
40563W        W 4122  20.267  37.422  14.362
40564W        W 4123  30.107  23.581  10.563
40565W        W 4124  22.237  39.499  10.527
40566W        W 4125  32.936  36.070   0.886
40567W        W 4126   2.859  39.543  11.975
40568W        W 4127  35.988  16.808  14.434
40569W        W 4128  27.175  34.427  11.415
40570W        W 4129  24.103  36.893   4.761
40571W        W 4130  24.988  44.763  11.009
40572W        W 4131  23.131   7.739  10.540
40573W        W 4132  13.181  18.195  11.878
40574W        W 4133  18.226  24.031  11.091
40575W        W 4134  11.798  36.879   0.873
40576W        W 4135   4.262  35.464  14.332
40577W        W 4136   1.771  31.589  12.526
40578W        W 4137  39.408  30.967  11.538
40579W        W 4138  15.719  19.565   2.691
40580W        W 4139  10.743   4.773   4.817
40581W        W 4140  12.129  23.120  11.395
40582W        W 4141   7.236  26.600   3.267
40583W        W 4142   0.335  16.198   4.200
40584W        W 4143  22.654   4.843   2.218
40585W        W 4144  34.552   6.882  14.461
40586W        W 4145  23.066  30.459  13.998
40587W        W 4146  26.959   4.902   4.238
40588W        W 4147  37.932  15.195   3.236
40589W        W 4148  12.820  27.591   3.770
40590W        W 4149   6.701  38.420  12.563
40591W        W 4150  20.663  38.059   4.738
40592W        W 4151  27.621  30.595   4.740
40593W        W 4152  18.684  40.344  11.605
40594W        W 4153  31.518  20.162   3.854
40595W        W 4154  18.208  30.012   3.672
40596W        W 4155  40.427  31.932   4.740
40597W        W 4156  21.149  38.399   0.428
40598W        W 4157  19.191   2.225  11.417
40599W        W 4158  12.705  17.103   1.397
40600W        W 4159  41.911  16.646   2.791
40601W        W 4160  34.604  15.279  13.503
40602W        W 4161  24.032  16.670   2.366
40603W        W 4162  14.097  16.743  10.977
40604W        W 4163  14.767  22.093   3.279
40605W        W 4164  43.424  33.099   0.388
40606W        W 4165  37.423   6.787   1.301
40607W        W 4166   2.340  10.353  13.307
40608W        W 4167   2.760  37.428   0.913
40609W        W 4168  12.775  36.410  13.520
40610W        W 4169  22.603  31.022   4.119
40611W        W 4170  29.054  29.038  13.449
40612W        W 4171   2.890  30.501   3.205
40613W        W 4172  27.459  27.584  12.056
40614W        W 4173  34.592  40.943  11.885
40615W        W 4174   1.450  40.961   3.292
40616W        W 4175  36.054   6.811   3.788
40617W        W 4176  12.142  27.174  10.404
40618W        W 4177  40.909  32.101  10.457
40619W        W 4178  18.626  36.591   3.833
40620W        W 4179  35.579   1.379   3.804
40621W        W 4180   1.284  43.316  14.433
40622W        W 4181  23.702  19.165   2.231
40623W        W 4182   4.806  10.868   3.194
40624W        W 4183  43.912   9.380  11.903
40625W        W 4184  44.375  36.493   0.276
40626W        W 4185  26.462   4.293   3.663
40627W        W 4186  29.091   4.821  11.529
40628W        W 4187  39.466  44.822  10.426
40629W        W 4188   5.932  17.068   2.871
40630W        W 4189  16.695   6.385  12.460
40631W        W 4190  28.516  18.755   0.738
40632W        W 4191  35.022  27.631  13.024
40633W        W 4192   6.223  19.702   0.284
40634W        W 4193  21.740   9.294   1.862
40635W        W 4194  40.883  26.550   2.664
40636W        W 4195  13.165  28.962   1.694
40637W        W 4196   2.873  35.865   4.756
40638W        W 4197  12.769  31.436  11.109
40639W        W 4198   7.386   4.352  14.512
40640W        W 4199   5.381  23.092  10.448
40641W        W 4200   5.336  42.844  13.464
40642W        W 4201  25.140  36.398   1.219
40643W        W 4202  10.709  32.059   4.607
40644W        W 4203  34.080  34.073  11.581
40645W        W 4204   5.840  15.321   2.350
40646W        W 4205  37.435  27.181   3.745
40647W        W 4206  24.179  18.245  13.431
40648W        W 4207   1.918  32.538  12.933
40649W        W 4208  40.855  23.534  11.861
40650W        W 4209   9.732  43.921   1.763
40651W        W 4210  15.319  27.606   2.718
40652W        W 4211  29.605  43.296   1.289
40653W        W 4212   4.401   1.276  10.999
40654W        W 4213  25.069  44.951  13.977
40655W        W 4214  11.238  13.634   2.244
40656W        W 4215  32.488  37.946  10.551
40657W        W 4216  16.212  22.672   5.322
40658W        W 4217   6.281  34.466  14.428
40659W        W 4218  13.736   2.263  14.401
40660W        W 4219   8.775  30.626   1.418
40661W        W 4220  23.508  37.430   2.845
40662W        W 4221  13.805  34.485   3.871
40663W        W 4222  10.353  30.451   9.957
40664W        W 4223  12.143  40.020   0.848
40665W        W 4224  26.483  24.700   0.762
40666W        W 4225  40.890  20.171   3.852
40667W        W 4226  18.067  13.656  11.593
40668W        W 4227  19.598  33.554   1.912
40669W        W 4228   0.819  42.449  12.496
40670W        W 4229   5.439  19.669  12.429
40671W        W 4230  33.974  28.455   4.287
40672W        W 4231  44.933   1.775  14.772
40673W        W 4232  43.295   5.693   0.755
40674W        W 4233  26.618  44.926  12.478
40675W        W 4234  26.513   7.362   2.284
40676W        W 4235  12.821  20.561   4.604
40677W        W 4236   7.781  16.715  12.562
40678W        W 4237  10.714   9.209   4.781
40679W        W 4238  44.934  20.694  12.061
40680W        W 4239  31.580  42.822   2.380
40681W        W 4240  21.253  31.616   9.510
40682W        W 4241  30.963  25.648  13.456
40683W        W 4242  28.455  44.430   0.383
40684W        W 4243  39.331  25.583  14.482
40685W        W 4244   7.745   8.807   3.664
40686W        W 4245  14.604  16.803  11.934
40687W        W 4246  20.648   0.746   4.155
40688W        W 4247  11.208  41.956  11.871
40689W        W 4248  23.077  38.999   1.822
40690W        W 4249  12.348  43.852  14.415
40691W        W 4250  38.980  21.753   4.625
40692W        W 4251   8.723  28.987   3.795
40693W        W 4252  19.241  33.466   4.711
40694W        W 4253  12.267  23.043   4.209
40695W        W 4254  25.097  13.219   2.876
40696W        W 4255  30.993  27.644   3.205
40697W        W 4256  27.586  12.126  11.016
40698W        W 4257  37.051  44.757  12.423
40699W        W 4258  38.967  23.178  13.852
40700W        W 4259  35.095  19.285   4.813
40701W        W 4260  33.450  27.101  14.881
40702W        W 4261  38.384  14.261  12.487
40703W        W 4262  38.550  10.256   3.827
40704W        W 4263  20.763   5.378  13.876
40705W        W 4264  12.191  42.781   2.801
40706W        W 4265  13.207   7.900  10.983
40707W        W 4266  22.702  17.209   0.955
40708W        W 4267  32.514  34.942  14.315
40709W        W 4268   8.159  23.181   2.240
40710W        W 4269  11.827  23.221   9.652
40711W        W 4270  29.434  37.854  14.452
40712W        W 4271  38.336  25.618  12.547
40713W        W 4272  26.995  34.018   2.772
40714W        W 4273   0.984   5.376  14.404
40715W        W 4274  37.999  44.424  10.058
40716W        W 4275  38.433  23.573   0.311
40717W        W 4276   9.336   4.778  14.022
40718W        W 4277  42.929   2.889  12.955
40719W        W 4278  32.408  14.211   3.868
40720W        W 4279  21.543   8.770   0.802
40721W        W 4280  28.057  19.571   5.191
40722W        W 4281   6.396  23.683   3.171
40723W        W 4282  19.555  43.870  10.438
40724W        W 4283  34.464  22.708  14.854
40725W        W 4284  29.003  34.874  13.062
40726W        W 4285   3.459  20.641  12.060
40727W        W 4286  29.963  37.418   1.399
40728W        W 4287  14.696   2.239   3.855
40729W        W 4288  11.644  44.899  12.936
40730W        W 4289  33.104  19.635   0.905
40731W        W 4290  20.153  37.905   4.830
40732W        W 4291   4.309  25.502   0.466
40733W        W 4292  18.097  43.278  11.432
40734W        W 4293  17.667  10.766   4.759
40735W        W 4294  42.302  17.170   4.296
40736W        W 4295   9.242  42.992   2.863
40737W        W 4296  22.227  33.489   1.363
40738W        W 4297   4.330  24.676  11.014
40739W        W 4298   8.849  30.912   0.350
40740W        W 4299  41.411  28.624  14.288
40741W        W 4300  23.013  18.128  14.832
40742W        W 4301   7.344   8.205  14.898
40743W        W 4302  24.516  14.184   4.817
40744W        W 4303  22.057  12.175  14.284
40745W        W 4304  22.671  35.093   5.178
40746W        W 4305  32.402  44.833   1.360
40747W        W 4306  38.430   2.905   4.132
40748W        W 4307  41.497  26.019   4.308
40749W        W 4308  41.459  35.902  14.291
40750W        W 4309   4.270   3.812   1.219
40751W        W 4310  15.097  42.973   2.205
40752W        W 4311   1.887  13.210   0.780
40753W        W 4312   3.388  35.365  11.078
40754W        W 4313   6.196  22.713   2.832
40755W        W 4314  37.005  31.958   0.397
40756W        W 4315  38.052  15.762  13.419
40757W        W 4316  26.465   9.866   1.280
40758W        W 4317  17.101  42.383  12.089
40759W        W 4318  38.528  26.658  13.367
40760W        W 4319  34.388  31.978   4.799
40761W        W 4320  14.597  23.997  12.025
40762W        W 4321  38.952  24.558  12.891
40763W        W 4322  16.645  44.974  10.556
40764W        W 4323  36.016  13.118  12.454
40765W        W 4324  13.108  20.534  11.920
40766W        W 4325  15.110  30.424   3.802
40767W        W 4326  35.018  19.065  11.103
40768W        W 4327  29.556  15.116  12.068
40769W        W 4328  36.530  39.552  11.125
40770W        W 4329  32.073  13.349   0.454
40771W        W 4330  15.610   3.375   3.756
40772W        W 4331  18.157   0.836  11.577
40773W        W 4332  37.547  40.938   2.886
40774W        W 4333  30.920   5.901  10.630
40775W        W 4334  43.894   8.774   3.640
40776W        W 4335  23.170   2.804   0.377
40777W        W 4336  39.917   1.363   0.835
40778W        W 4337  29.669  42.398   4.158
40779W        W 4338  13.337  30.651   1.774
40780W        W 4339   9.771   3.447  10.889
40781W        W 4340  35.533  33.475   4.696
40782W        W 4341   4.758  43.815   1.761
40783W        W 4342   3.898  44.770  13.791
40784W        W 4343  11.168  43.873   4.113
40785W        W 4344  18.731  37.036  13.046
40786W        W 4345  43.480  30.600  11.512
40787W        W 4346  37.526  29.142  11.601
40788W        W 4347  20.088  39.052   4.684
40789W        W 4348  29.936  29.599  10.465
40790W        W 4349   9.686  33.905  14.471
40791W        W 4350   9.660  44.932  14.022
40792W        W 4351  17.563  31.129  12.990
40793W        W 4352   3.421  12.620   0.929
40794W        W 4353  18.671  21.066  14.009
40795W        W 4354  26.132  32.431   3.360
40796W        W 4355  11.642  27.546   0.961
40797W        W 4356  40.980  38.883   1.434
40798W        W 4357   5.902   7.684   0.955
40799W        W 4358  39.883  34.575  11.091
40800W        W 4359  19.720  32.513   3.770
40801W        W 4360  28.077  36.457   0.407
40802W        W 4361  28.444  44.868  12.487
40803W        W 4362  39.378   0.811  13.869
40804W        W 4363  20.552  32.923   0.844
40805W        W 4364  34.871  44.979   0.400
40806W        W 4365  22.605  42.514  11.549
40807W        W 4366  11.685  41.412   3.271
40808W        W 4367  35.377  36.091  14.992
40809W        W 4368  27.663   2.304  12.503
40810W        W 4369   7.190  34.476   0.730
40811W        W 4370  25.504  30.165  13.540
40812W        W 4371  34.515   3.236  12.895
40813W        W 4372  30.083  34.449  10.610
40814W        W 4373  21.060  22.735  13.879
40815W        W 4374  22.015   5.790  12.085
40816W        W 4375  37.070  39.554  14.328
40817W        W 4376   5.873   1.813   4.168
40818W        W 4377  18.117   2.850   3.284
40819W        W 4378   2.329  11.214  13.362
40820W        W 4379   6.402  34.086  13.475
40821W        W 4380  42.966  18.103  14.409
40822W        W 4381  20.036  35.452  14.377
40823W        W 4382  28.443  31.477  13.060
40824W        W 4383  35.084  15.653  14.393
40825W        W 4384   3.233  26.671   4.344
40826W        W 4385   4.750   0.390   2.234
40827W        W 4386  38.458  28.524   3.286
40828W        W 4387  10.694  34.084   0.935
40829W        W 4388  39.015  31.502   2.844
40830W        W 4389  11.277  23.565   0.461
40831W        W 4390  24.583  14.277   2.765
40832W        W 4391  32.888  23.505  13.457
40833W        W 4392  40.418  33.473  12.496
40834W        W 4393  16.303  26.042   3.702
40835W        W 4394  11.160  41.792  10.485
40836W        W 4395  13.607  19.673  14.851
40837W        W 4396   4.258  33.404   0.937
40838W        W 4397  43.938  23.635   3.851
40839W        W 4398   8.672   5.359  12.551
40840W        W 4399   0.491   4.911   1.377
40841W        W 4400  31.036  11.175   4.623
40842W        W 4401  11.793  19.158   0.325
40843W        W 4402  36.015   1.407   2.707
40844W        W 4403  16.759  26.046  13.989
40845W        W 4404  10.235  42.430   2.794
40846W        W 4405   9.832  31.486   2.291
40847W        W 4406  35.939  10.801   2.351
40848W        W 4407  21.687  10.382  14.326
40849W        W 4408  35.421  18.189   2.343
40850W        W 4409  44.311  18.587  14.889
40851W        W 4410  28.486  40.826   9.677
40852W        W 4411   9.258  36.927   4.728
40853W        W 4412   4.217  30.573  14.841
40854W        W 4413  21.587  41.522  12.848
40855W        W 4414  36.359  27.062  12.471
40856W        W 4415  30.963   4.937  13.981
40857W        W 4416  24.626  25.203  13.992
40858W        W 4417   7.838  26.613  11.004
40859W        W 4418  36.018  27.999  12.085
40860W        W 4419  31.628  26.647  13.330
40861W        W 4420  28.023  27.060  11.938
40862W        W 4421  13.347  18.087   0.266
40863W        W 4422  42.952   0.378  12.463
40864W        W 4423  24.564  31.568  11.473
40865W        W 4424  17.688  30.105   3.352
40866W        W 4425   0.407  14.201  10.942
40867W        W 4426  42.474   4.931  11.009
40868W        W 4427   2.741  35.972  11.542
40869W        W 4428   8.675  44.489  12.070
40870W        W 4429  41.381  28.575   3.805
40871W        W 4430  36.581  28.484   3.768
40872W        W 4431  17.718  36.016   3.738
40873W        W 4432   8.167  18.712  10.483
40874W        W 4433  21.213  17.080   3.696
40875W        W 4434  25.008  41.013  14.902
40876W        W 4435  26.132  42.910  11.856
40877W        W 4436  11.189  34.515   9.939
40878W        W 4437   8.674  14.283   2.353
40879W        W 4438  32.955   5.751  14.497
40880W        W 4439  31.646  16.157  13.399
40881W        W 4440   1.833  29.491  11.433
40882W        W 4441  30.929  16.146  10.937
40883W        W 4442  25.517  30.642   1.694
40884W        W 4443  42.897  28.181   3.161
40885W        W 4444   7.295   3.370   0.466
40886W        W 4445   3.767  11.197   1.322
40887W        W 4446  41.538   7.258   1.223
40888W        W 4447  14.194  30.432   0.351
40889W        W 4448  24.061  11.857   0.790
40890W        W 4449  14.696  27.965   2.366
40891W        W 4450  16.196  25.085  10.644
40892W        W 4451  23.571   9.253  13.863
40893W        W 4452  40.489   7.245   4.804
40894W        W 4453  30.547  25.084   0.463
40895W        W 4454  42.798  22.597  12.580
40896W        W 4455  16.154  12.726   3.268
40897W        W 4456  31.001   7.760  13.525
40898W        W 4457   3.326  37.845  13.949
40899W        W 4458  19.629  33.964   0.863
40900W        W 4459  29.049  36.017   4.737
40901W        W 4460  40.815  17.229  13.986
40902W        W 4461   9.199  33.102   3.635
40903W        W 4462   7.397  12.302   2.772
40904W        W 4463  14.673  23.597  11.459
40905W        W 4464   4.749  28.997   4.627
40906W        W 4465  23.132  39.854   2.221
40907W        W 4466  43.275   3.299   1.722
40908W        W 4467  12.713  17.114   0.268
40909W        W 4468  27.512   7.824  14.998
40910W        W 4469  35.012  18.741   0.286
40911W        W 4470  17.730   5.763  12.880
40912W        W 4471  24.128  43.506  12.023
40913W        W 4472   7.860  35.884   2.720
40914W        W 4473  20.046   2.774   4.158
40915W        W 4474  35.909  26.524   9.958
40916W        W 4475  30.081   3.330  12.021
40917W        W 4476   8.198   7.700  12.840
40918W        W 4477   9.737  26.676   1.809
40919W        W 4478  20.096  22.237   2.861
40920W        W 4479  11.691   1.971   0.870
40921W        W 4480  43.004  27.613  13.844
40922W        W 4481  17.096  24.694   5.206
40923W        W 4482  27.655   0.861  12.862
40924W        W 4483  20.168  25.066   0.298
40925W        W 4484  23.222   2.264   4.755
40926W        W 4485  41.972  17.229  12.965
40927W        W 4486  22.153  26.481   4.187
40928W        W 4487  21.167   8.801   2.287
40929W        W 4488   5.276  10.312   2.820
40930W        W 4489  33.397  17.585   0.856
40931W        W 4490  18.679   4.802  12.924
40932W        W 4491  28.545  31.421   3.792
40933W        W 4492   0.973  29.584  12.087
40934W        W 4493  44.873  41.986  12.437
40935W        W 4494  19.762  11.201   3.857
40936W        W 4495  32.600  24.126  14.783
40937W        W 4496  44.833  27.629   4.691
40938W        W 4497  11.788   1.769  12.829
40939W        W 4498  36.850   4.731  14.830
40940W        W 4499  27.646  34.455  14.326
40941W        W 4500  44.879   7.402   4.187
40942W        W 4501  38.025  34.416   0.736
40943W        W 4502  20.134  31.107   2.222
40944W        W 4503  38.456  12.771  13.015
40945W        W 4504  17.278  24.602  12.055
40946W        W 4505   4.925  24.212   5.186
40947W        W 4506  18.134  14.802   4.250
40948W        W 4507  12.669  20.760   3.297
40949W        W 4508  37.445  28.657  13.909
40950W        W 4509  18.754  13.771  13.359
40951W        W 4510   1.888  23.134  11.587
40952W        W 4511  15.185   3.276   4.827
40953W        W 4512   6.730  42.003  14.928
40954W        W 4513  37.350  34.567   1.767
40955W        W 4514  32.923   6.352  11.571
40956W        W 4515   4.447  43.938  13.882
40957W        W 4516   9.340  26.977  11.030
40958W        W 4517  42.878  20.058   4.202
40959W        W 4518  18.263  14.156   0.395
40960W        W 4519  36.945  31.995  12.541
40961W        W 4520   0.888   2.764  11.509
40962W        W 4521  25.471  33.416   3.205
40963W        W 4522  14.171   4.722  10.458
40964W        W 4523  40.922  38.466  11.585
40965W        W 4524   2.360  36.850  11.452
40966W        W 4525  24.573  37.981   4.294
40967W        W 4526  30.431  42.775   0.739
40968W        W 4527  17.664  26.034   3.254
40969W        W 4528   0.367  40.418   2.228
40970W        W 4529  39.357  36.052  14.831
40971W        W 4530  15.115  38.506   1.258
40972W        W 4531  39.355  28.448   1.311
40973W        W 4532  35.054  29.060  14.373
40974W        W 4533  36.034  43.794  13.426
40975W        W 4534  26.160  17.783   3.174
40976W        W 4535   7.805  17.590   0.297
40977W        W 4536  36.464  17.172  10.608
40978W        W 4537  43.772  27.003  11.611
40979W        W 4538  31.975  35.400   0.848
40980W        W 4539   3.245  27.463   4.242
40981W        W 4540  31.445  10.348   4.631
40982W        W 4541  41.997   2.886   1.417
40983W        W 4542  16.319   8.814  10.637
40984W        W 4543   1.933  21.152   2.832
40985W        W 4544  42.423  17.733   0.963
40986W        W 4545   3.752   1.473   2.709
40987W        W 4546  14.190  20.646  10.475
40988W        W 4547  26.593  34.015  13.051
40989W        W 4548  37.542  14.242   4.347
40990W        W 4549   1.313  26.101   3.324
40991W        W 4550   8.258  35.047   1.284
40992W        W 4551  24.698  20.683  10.631
40993W        W 4552   7.342  12.762   0.742
40994W        W 4553  22.118  13.791   3.211
40995W        W 4554   8.738  13.654  14.356
40996W        W 4555  20.725   6.223   0.833
40997W        W 4556  22.559   3.783  10.519
40998W        W 4557  19.591  23.062  11.543
40999W        W 4558   7.282  37.071  12.920
41000W        W 4559  41.902   7.237   0.322
41001W        W 4560  19.054  39.537  10.912
41002W        W 4561  21.757   6.857  13.992
41003W        W 4562  36.856  19.099   4.347
41004W        W 4563   8.830  19.239  11.442
41005W        W 4564  32.487   4.867  14.018
41006W        W 4565  15.177  34.909  11.494
41007W        W 4566  21.159   7.178   3.807
41008W        W 4567   0.976  41.421   2.399
41009W        W 4568  25.131   6.858  14.918
41010W        W 4569   1.920   2.280   1.225
41011W        W 4570   6.350  34.077   2.356
41012W        W 4571  16.294   0.461   1.694
41013W        W 4572   7.417  11.189   1.853
41014W        W 4573  35.975   4.763  12.468
41015W        W 4574  23.568  19.675   1.747
41016W        W 4575  36.551   3.711   3.748
41017W        W 4576  37.949   4.305   0.895
41018W        W 4577  10.150  36.888  13.445
41019W        W 4578  33.072  30.515  14.939
41020W        W 4579   2.317  28.528  12.469
41021W        W 4580  39.913   1.775  12.957
41022W        W 4581   4.711  15.239   2.191
41023W        W 4582  10.346  18.057   0.291
41024W        W 4583  36.562  33.626   4.232
41025W        W 4584  11.176  36.510  14.992
41026W        W 4585  10.241  12.637   1.415
41027W        W 4586  38.953   0.474   1.773
41028W        W 4587  16.203  43.313  11.515
41029W        W 4588  11.238   2.402  11.433
41030W        W 4589  15.777  32.619  10.915
41031W        W 4590   3.837  12.166   0.405
41032W        W 4591  23.719  13.242   1.820
41033W        W 4592  27.528  10.173  11.102
41034W        W 4593  15.717   3.380  14.983
41035W        W 4594   4.766  21.567  10.621
41036W        W 4595  34.016   3.925  10.415
41037W        W 4596  29.173  43.326  13.049
41038W        W 4597   2.323  23.048   1.881
41039W        W 4598   5.382   3.736   3.751
41040W        W 4599  42.812  19.134   0.374
41041W        W 4600  40.410  32.088   1.707
41042W        W 4601  41.827  11.853  12.546
41043W        W 4602  27.152   0.329  12.465
41044W        W 4603   1.901  34.029   4.300
41045W        W 4604  15.253  34.108   2.273
41046W        W 4605   0.807  17.155   2.268
41047W        W 4606  35.391  19.201  11.069
41048W        W 4607   7.328  22.024   3.337
41049W        W 4608  44.801  31.139   1.417
41050W        W 4609  32.953  18.251  14.443
41051W        W 4610   2.273  17.300   0.948
41052W        W 4611  30.977  15.172   0.762
41053W        W 4612  35.908  15.697   1.726
41054W        W 4613   5.821  17.169  12.410
41055W        W 4614  31.117   7.243  14.018
41056W        W 4615   8.193  40.509   1.816
41057W        W 4616  31.141  15.730   0.810
41058W        W 4617  12.305  29.017   0.383
41059W        W 4618  22.667   5.248  10.941
41060W        W 4619  34.612  36.355  11.555
41061W        W 4620  25.647  12.128   5.211
41062W        W 4621  24.127  11.140   1.835
41063W        W 4622  16.599  14.704  13.448
41064W        W 4623  14.107   4.797   1.903
41065W        W 4624  21.107  39.331   4.114
41066W        W 4625  31.545  31.063  12.378
41067W        W 4626  22.019  41.895  13.814
41068W        W 4627  29.644   4.781   0.400
41069W        W 4628   5.875  13.659  14.873
41070W        W 4629  18.282  12.270  10.937
41071W        W 4630  23.072  19.715   4.601
41072W        W 4631  24.124  16.196   2.866
41073W        W 4632  26.162   7.822  10.536
41074W        W 4633  36.923   4.934  13.334
41075W        W 4634  22.220   3.937  14.984
41076W        W 4635   9.163  30.007  14.422
41077W        W 4636   7.377  28.502   1.886
41078W        W 4637  28.062   9.822   0.402
41079W        W 4638  37.471   6.284   3.697
41080W        W 4639  25.522  20.602  12.014
41081W        W 4640  25.585  38.899   5.237
41082W        W 4641   2.910  22.692   2.675
41083W        W 4642  22.591   3.847   1.914
41084W        W 4643  14.250  39.052  13.879
41085W        W 4644  25.489  19.171  12.988
41086W        W 4645  40.904  40.958   3.722
41087W        W 4646   9.758   8.689   2.286
41088W        W 4647   6.749  20.197  13.809
41089W        W 4648   2.819  42.822   0.902
41090W        W 4649  12.774   6.405  10.989
41091W        W 4650  39.931  17.559  14.822
41092W        W 4651  32.608   4.787   1.424
41093W        W 4652  42.960  21.214  10.418
41094W        W 4653  36.558  19.099   0.439
41095W        W 4654  19.110  19.666  12.390
41096W        W 4655  20.153  14.101   3.772
41097W        W 4656  30.572  14.212   4.304
41098W        W 4657  26.083  42.785   0.963
41099W        W 4658  25.496  18.148  10.609
41100W        W 4659  34.591   9.192   4.141
41101W        W 4660  13.195  26.486  11.927
41102W        W 4661  13.311  29.953  10.576
41103W        W 4662  12.147  15.757  11.979
41104W        W 4663  24.616  16.178   3.242
41105W        W 4664   7.755   6.406   3.792
41106W        W 4665   9.238  39.995  12.474
41107W        W 4666  26.991  20.133   5.082
41108W        W 4667  39.523   8.751   0.380
41109W        W 4668   5.244   1.475  12.974
41110W        W 4669  24.098  35.002   3.701
41111W        W 4670  20.577   9.176  11.868
41112W        W 4671  24.685  21.715   1.375
41113W        W 4672   5.241  42.425   4.688
41114W        W 4673  35.407   1.908  14.805
41115W        W 4674  37.409  11.182  10.510
41116W        W 4675   8.183  37.496  10.915
41117W        W 4676  41.996  15.652  12.835
41118W        W 4677   9.195  29.021   5.220
41119W        W 4678  36.486  42.316   4.801
41120W        W 4679  44.933  26.480  13.313
41121W        W 4680  31.067  22.543   3.720
41122W        W 4681  19.078  14.134   4.334
41123W        W 4682  12.615   4.293   3.676
41124W        W 4683  30.075  35.890  14.369
41125W        W 4684  44.983  42.811   4.284
41126W        W 4685  34.481  19.739   2.329
41127W        W 4686  24.701   1.882   4.772
41128W        W 4687  38.942  38.559   2.369
41129W        W 4688  43.473  44.331   4.830
41130W        W 4689   4.425  42.437  14.789
41131W        W 4690   5.692   1.932  12.493
41132W        W 4691   3.832   2.425   4.769
41133W        W 4692   2.400  39.496  11.942
41134W        W 4693  23.120  22.547  11.377
41135W        W 4694  20.130   1.302  11.414
41136W        W 4695  10.685  17.104  14.774
41137W        W 4696  17.573   8.184  14.437
41138W        W 4697  26.180  10.733  12.851
41139W        W 4698  43.018  30.111  14.285
41140W        W 4699  35.874  25.503   3.756
41141W        W 4700  28.166  43.984  12.364
41142W        W 4701  13.704  35.856   4.196
41143W        W 4702  37.890  31.575   1.265
41144W        W 4703  14.627   3.453   4.666
41145W        W 4704  28.442  44.956   3.652
41146W        W 4705  32.075   4.793   5.223
41147W        W 4706  30.657  18.289   0.871
41148W        W 4707  18.220   7.691   2.386
41149W        W 4708   8.668  18.716   0.804
41150W        W 4709  11.127   2.926   3.828
41151W        W 4710   9.243   9.678   2.794
41152W        W 4711  37.459  27.123   2.294
41153W        W 4712  38.974   7.839  13.837
41154W        W 4713  13.204  16.283  12.952
41155W        W 4714   8.379  40.535   1.234
41156W        W 4715  36.939  18.172  10.601
41157W        W 4716   5.799  14.213   4.282
41158W        W 4717   2.756  30.139   2.178
41159W        W 4718  31.929  43.470  13.507
41160W        W 4719  23.530  32.974  11.968
41161W        W 4720   8.187  16.072   1.323
41162W        W 4721   7.874  37.935  11.092
41163W        W 4722  41.396  10.293   1.418
41164W        W 4723  23.241  24.648  10.525
41165W        W 4724  32.000   8.789   2.327
41166W        W 4725  28.480  42.974   9.989
41167W        W 4726  37.016  25.206   2.401
41168W        W 4727  28.509   5.432  12.373
41169W        W 4728   0.277  40.489  12.969
41170W        W 4729  32.527  25.094   5.258
41171W        W 4730  29.530   3.895   1.700
41172W        W 4731  25.660  37.407  11.918
41173W        W 4732  32.447  39.809   2.346
41174W        W 4733  37.830   6.419  14.962
41175W        W 4734  12.242  38.023   9.488
41176W        W 4735  32.048   7.747   1.423
41177W        W 4736  19.603  42.003  14.987
41178W        W 4737  17.267   4.215   4.705
41179W        W 4738  27.447  41.872   4.730
41180W        W 4739  29.921  12.135   3.651
41181W        W 4740  20.225  37.522   9.950
41182W        W 4741   0.327   9.838   0.810
41183W        W 4742  35.938  31.418   1.295
41184W        W 4743   0.417  40.834  11.442
41185W        W 4744  21.159  14.099  12.996
41186W        W 4745  31.987  30.152  13.452
41187W        W 4746   4.753  37.830  10.489
41188W        W 4747   3.341  35.487  14.773
41189W        W 4748  16.085  40.032  10.956
41190W        W 4749  21.235   1.254   3.719
41191W        W 4750   4.301  20.043  13.022
41192W        W 4751  18.244  10.328  14.375
41193W        W 4752  35.092  39.885  10.050
41194W        W 4753  14.797   7.203   4.177
41195W        W 4754   9.714   5.760  11.942
41196W        W 4755  29.970  43.450   2.799
41197W        W 4756  21.663  14.711   0.744
41198W        W 4757  22.123  33.992   2.816
41199W        W 4758  44.498   7.198  10.534
41200W        W 4759  35.549  42.494  13.835
41201W        W 4760   6.209  16.259  11.558
41202W        W 4761   9.389  43.461  14.284
41203W        W 4762  44.849  30.651   4.656
41204W        W 4763  18.692   1.760   2.879
41205W        W 4764  12.826   3.343   4.715
41206W        W 4765  11.339  33.413   1.908
41207W        W 4766   0.937   8.391  10.083
41208W        W 4767  26.586  39.919  14.020
41209W        W 4768  43.860   4.327  14.959
41210W        W 4769   1.750  19.711   3.231
41211W        W 4770  23.170  29.492   2.380
41212W        W 4771   3.215   3.913   2.673
41213W        W 4772  16.250  27.981  10.157
41214W        W 4773  38.421  30.457  14.858
41215W        W 4774  42.311  37.910   1.834
41216W        W 4775  13.758  26.654  14.508
41217W        W 4776  38.933  42.339  12.925
41218W        W 4777  43.366  17.730   2.333
41219W        W 4778   4.409  18.577  10.929
41220W        W 4779   7.400  27.532  13.987
41221W        W 4780  18.680  32.526  13.829
41222W        W 4781  13.240   1.809   5.141
41223W        W 4782  14.148  12.289   1.265
41224W        W 4783   5.701  26.111   1.258
41225W        W 4784  44.815  19.261   2.851
41226W        W 4785   4.839  18.648   2.418
41227W        W 4786  37.922  35.050   2.832
41228W        W 4787   8.723  16.697   0.341
41229W        W 4788  17.182  23.166   1.827
41230W        W 4789  38.929  34.422  14.950
41231W        W 4790  23.991   5.698   1.388
41232W        W 4791  21.134  14.689  13.336
41233W        W 4792   7.345  17.672  14.479
41234W        W 4793  35.047  14.655   3.190
41235W        W 4794  12.291  33.930  12.967
41236W        W 4795  38.392  11.623   0.816
41237W        W 4796  41.964  37.885   1.746
41238W        W 4797  42.899  24.021  12.501
41239W        W 4798  43.859   4.798  10.523
41240W        W 4799  32.571  19.642   0.434
41241W        W 4800   6.819  39.866   3.654
41242W        W 4801  26.997   6.804   1.756
41243W        W 4802  40.023  22.087   3.296
41244W        W 4803  17.262  29.116   1.253
41245W        W 4804  35.938  40.527   0.944
41246W        W 4805  28.478  26.964  10.531
41247W        W 4806  27.041  24.689  14.831
41248W        W 4807  42.352  44.484   2.331
41249W        W 4808  12.747  28.649   3.230
41250W        W 4809  26.505  30.016   4.310
41251W        W 4810  27.541  15.253  14.473
41252W        W 4811  40.369  12.665   5.134
41253W        W 4812  22.654  43.920   2.773
41254W        W 4813   3.742  16.769   4.212
41255W        W 4814  26.068   8.836  12.920
41256W        W 4815  30.037  36.512   0.741
41257W        W 4816  18.641   1.404  14.465
41258W        W 4817  24.063  37.987  14.432
41259W        W 4818  40.919  32.119   4.197
41260W        W 4819  27.480  21.667  13.039
41261W        W 4820  12.753  38.544  11.420
41262W        W 4821   4.344   1.259   3.347
41263W        W 4822  28.160  14.266  11.101
41264W        W 4823  10.266   3.219  14.466
41265W        W 4824  29.516  16.302   0.329
41266W        W 4825  10.350  41.885   4.235
41267W        W 4826  26.600  40.966  13.489
41268W        W 4827   4.796  22.527   3.857
41269W        W 4828  38.039   5.689   4.274
41270W        W 4829  23.089  39.523   1.740
41271W        W 4830  32.133  32.037   3.863
41272W        W 4831  14.306  23.219  13.882
41273W        W 4832   6.199  15.756  14.985
41274W        W 4833   3.850   5.381   4.280
41275W        W 4834   3.804  23.588   0.938
41276W        W 4835   8.878   8.295   3.822
41277W        W 4836  44.484  32.986  13.910
41278W        W 4837  39.859  17.067  14.486
41279W        W 4838  31.482  32.075   0.935
41280W        W 4839  37.082  39.956  11.879
41281W        W 4840   9.757  37.977  12.002
41282W        W 4841  25.147  35.865  11.575
41283W        W 4842  42.829  18.579  14.325
41284W        W 4843   5.241  35.424   2.357
41285W        W 4844  16.313  23.692   1.791
41286W        W 4845  23.176  25.972   1.412
41287W        W 4846   2.443  42.009  12.937
41288W        W 4847   5.218  16.617  11.059
41289W        W 4848  41.462  37.946  12.550
41290W        W 4849  36.850   7.320   4.143
41291W        W 4850  18.199   7.398  13.821
41292W        W 4851   6.725  37.578   0.843
41293W        W 4852  32.564  43.439   3.241
41294W        W 4853  41.017  22.698   3.683
41295W        W 4854  16.113  23.222  11.457
41296W        W 4855   7.300  43.363  11.974
41297W        W 4856  10.346  26.023  12.061
41298W        W 4857  31.450  28.091  11.583
41299W        W 4858  29.453  40.451   5.196
41300W        W 4859  21.165   7.840  11.967
41301W        W 4860  33.530  15.708   1.797
41302W        W 4861  32.083  32.063  10.940
41303W        W 4862  26.590  12.323  10.900
41304W        W 4863  30.950  16.260  13.842
41305W        W 4864  10.172   8.718   2.257
41306W        W 4865   6.701  26.665   2.358
41307W        W 4866   5.863  34.429  14.292
41308W        W 4867  35.524   8.363  13.973
41309W        W 4868   4.907  20.169   2.193
41310W        W 4869  41.350  22.578   0.896
41311W        W 4870  27.637  35.419  11.908
41312W        W 4871  12.741  34.936  12.534
41313W        W 4872  34.976  12.181  14.760
41314W        W 4873  28.116   6.268  13.939
41315W        W 4874  12.239  12.146  12.861
41316W        W 4875  28.599   9.780  10.559
41317W        W 4876  14.689  36.393  12.890
41318W        W 4877  41.463   2.780   1.357
41319W        W 4878   8.732  26.651  14.987
41320W        W 4879  21.563   4.237   3.721
41321W        W 4880  25.965   7.892  14.324
41322W        W 4881  40.935  44.479  11.107
41323W        W 4882  26.064  28.149   2.375
41324W        W 4883  18.249  11.648   4.318
41325W        W 4884  37.978  43.434   0.333
41326W        W 4885  15.778  27.998   0.863
41327W        W 4886   8.772   4.884   4.152
41328W        W 4887  37.953  17.771   4.749
41329W        W 4888   0.985   3.725   1.732
41330W        W 4889  26.103  30.642   4.206
41331W        W 4890   1.241   6.796  14.441
41332W        W 4891  29.571  38.533   1.348
41333W        W 4892  13.128   6.368  13.893
41334W        W 4893  43.284  40.873  12.353
41335W        W 4894  19.286   3.410   0.421
41336W        W 4895  36.992  27.593   3.229
41337W        W 4896  15.270  32.511  10.408
41338W        W 4897  39.876  20.117   1.388
41339W        W 4898   8.701  16.752   1.370
41340W        W 4899  25.137   7.708   2.731
41341W        W 4900  28.088  12.213   5.173
41342W        W 4901  38.939  19.106   4.210
41343W        W 4902  14.781  36.499  11.881
41344W        W 4903  22.111  29.131   4.295
41345W        W 4904   1.276  43.967  10.481
41346W        W 4905  43.888  17.682   2.396
41347W        W 4906   7.243  37.441  10.606
41348W        W 4907   4.268  28.577   0.898
41349W        W 4908  42.797  19.751   1.851
41350W        W 4909   3.345  42.839   2.265
41351W        W 4910   9.215  18.741  12.916
41352W        W 4911  30.041  28.098  13.910
41353W        W 4912   8.658  30.028  13.337
41354W        W 4913   0.487   2.336  13.906
41355W        W 4914  16.250   8.330   4.759
41356W        W 4915  41.876   6.740   0.440
41357W        W 4916  44.940   5.727   4.164
41358W        W 4917  12.799  12.823   4.606
41359W        W 4918  39.495  16.721   2.837
41360W        W 4919  14.096  20.101  10.476
41361W        W 4920  36.461   2.281  12.415
41362W        W 4921  28.679  42.448   2.227
41363W        W 4922  11.770  10.742   4.788
41364W        W 4923  41.536   4.782  13.336
41365W        W 4924  27.619  13.844   3.364
41366W        W 4925  27.033  26.011   1.266
41367W        W 4926  21.716   9.264   4.300
41368W        W 4927  22.995   4.243   1.808
41369W        W 4928  16.154  17.662   1.445
41370W        W 4929  19.625  22.694  10.905
41371W        W 4930   9.256  27.610  11.893
41372W        W 4931  40.827   4.373  11.433
41373W        W 4932  35.985  41.910   2.375
41374W        W 4933  15.617  34.937  13.420
41375W        W 4934  34.497  13.309   1.370
41376W        W 4935  41.932  19.059  11.451
41377W        W 4936   9.885  15.089   9.550
41378W        W 4937  22.552  37.875  10.985
41379W        W 4938   1.245   0.973   3.754
41380W        W 4939  17.786   1.291   3.197
41381W        W 4940  16.665  26.044  10.556
41382W        W 4941  18.182  12.188   2.234
41383W        W 4942  16.794  25.687   1.842
41384W        W 4943  40.866   5.832   4.812
41385W        W 4944  35.858  42.378   1.843
41386W        W 4945  43.457  10.753  11.110
41387W        W 4946  11.819  37.490  10.037
41388W        W 4947  19.575  41.292   0.760
41389W        W 4948  42.803  41.939  13.962
41390W        W 4949   2.308  11.637   1.764
41391W        W 4950  40.498  29.652   2.365
41392W        W 4951  23.073  25.037  13.945
41393W        W 4952  36.047  38.461   2.398
41394W        W 4953  30.636  34.060   2.746
41395W        W 4954   6.807   5.400  14.348
41396W        W 4955  21.027  27.527   0.957
41397W        W 4956  14.799  10.151   4.254
41398W        W 4957  31.403  38.525   2.351
41399W        W 4958  14.767  41.810   3.851
41400W        W 4959  32.398  15.782   4.678
41401W        W 4960  12.332  19.718  10.574
41402W        W 4961  19.736  12.201  12.022
41403W        W 4962  22.173   9.849   2.401
41404W        W 4963   1.865  28.672  11.511
41405W        W 4964   6.838  29.637   0.951
41406W        W 4965  32.548  25.588   2.223
41407W        W 4966  14.790  37.472  10.449
41408W        W 4967  18.577  43.296   0.461
41409W        W 4968  31.099  34.866  13.461
41410W        W 4969  30.149   8.373  12.387
41411W        W 4970  28.478  35.979   1.244
41412W        W 4971   6.428   9.328  12.026
41413W        W 4972  42.487  31.938   4.724
41414W        W 4973  15.661   7.369  13.823
41415W        W 4974  19.776  10.307   5.130
41416W        W 4975  10.648  40.052  12.914
41417W        W 4976  21.234  42.889  14.883
41418W        W 4977  15.764  33.500  11.603
41419W        W 4978   0.480  35.540  11.958
41420W        W 4979  23.580  24.062   4.210
41421W        W 4980  21.202   1.776   1.721
41422W        W 4981   4.441  36.963   4.634
41423W        W 4982   0.880  39.016   1.792
41424W        W 4983   6.777  34.054  13.004
41425W        W 4984  30.127  31.009  13.358
41426W        W 4985  19.668   9.732   3.706
41427W        W 4986  31.627  40.837   0.760
41428W        W 4987   1.816   8.330  11.017
41429W        W 4988   3.796  20.558  13.802
41430W        W 4989  20.740  27.097   9.442
41431W        W 4990  14.097  14.629   1.767
41432W        W 4991  40.859   3.313   3.259
41433W        W 4992  39.958  18.174  13.892
41434W        W 4993  41.417  12.262  14.992
41435W        W 4994  16.179   6.734  11.000
41436W        W 4995  37.973  11.844   1.777
41437W        W 4996  17.298  25.160   4.285
41438W        W 4997  38.569  32.081   2.325
41439W        W 4998   2.837  39.822   4.162
41440W        W 4999   3.443  13.786  13.985
41441W        W 5000   5.271  13.320   0.968
41442W        W 5001  12.743  14.683   3.196
41443W        W 5002  37.383  36.045   0.429
41444W        W 5003  25.545  25.658  12.990
41445W        W 5004  44.303  29.589   4.838
41446W        W 5005   4.747  26.649   1.705
41447W        W 5006   4.730  34.471   0.788
41448W        W 5007  44.807  12.611   0.403
41449W        W 5008  33.104  31.403  13.015
41450W        W 5009  40.938  41.426  11.487
41451W        W 5010  17.154  27.047   0.942
41452W        W 5011  10.681  30.648  13.447
41453W        W 5012  13.286  33.942   5.700
41454W        W 5013  41.829  17.589  13.024
41455W        W 5014  16.295  33.061   3.703
41456W        W 5015   3.305  14.319  12.848
41457W        W 5016  20.264  21.606  11.941
41458W        W 5017  31.647  16.270   2.206
41459W        W 5018  42.951  36.994   3.385
41460W        W 5019  11.783  22.127   0.260
41461W        W 5020   6.375  13.647  13.827
41462W        W 5021  17.168  24.103  11.437
41463W        W 5022  18.158  42.354  12.354
41464W        W 5023  22.020   2.844  10.994
41465W        W 5024  19.172  11.786   4.293
41466W        W 5025   8.858  34.951   2.678
41467W        W 5026  28.464  29.439   2.860
41468W        W 5027   3.864   1.841  11.534
41469W        W 5028  21.632   0.885   9.927
41470W        W 5029  28.959  40.480  14.276
41471W        W 5030  40.963  20.228  12.960
41472W        W 5031  31.910   4.364  10.944
41473W        W 5032   2.886  38.054  12.409
41474W        W 5033  41.348  18.558  11.455
41475W        W 5034  34.447  19.105  14.998
41476W        W 5035   4.941  40.941   4.832
41477W        W 5036  25.597   8.736  14.780
41478W        W 5037   5.337  33.538  11.891
41479W        W 5038   0.476  34.978  14.420
41480W        W 5039  10.655  27.608  14.286
41481W        W 5040  35.408  33.975  11.888
41482W        W 5041  28.989  28.061  14.379
41483W        W 5042  40.948   2.887  14.847
41484W        W 5043   5.209   6.291   1.326
41485W        W 5044  22.684  36.442   3.382
41486W        W 5045  22.034  34.948   1.233
41487W        W 5046  18.557  26.649   3.736
41488W        W 5047  15.704   9.853   2.234
41489W        W 5048  33.046   7.175  14.777
41490W        W 5049  19.153   9.784   0.857
41491W        W 5050  11.810  22.520  12.388
41492W        W 5051  41.803   5.778   0.426
41493W        W 5052   6.220  26.985  10.554
41494W        W 5053  11.827  13.784  12.909
41495W        W 5054  10.795  37.542   0.736
41496W        W 5055  27.452  32.541   3.259
41497W        W 5056  34.908  36.918   0.441
41498W        W 5057  43.392  28.601  12.392
41499W        W 5058  15.722  19.718   0.457
41500W        W 5059  37.957  18.156  10.510
41501W        W 5060  27.087  44.440  13.429
41502W        W 5061  33.414  22.216   0.375
41503W        W 5062   6.915  22.635  12.922
41504W        W 5063  26.203  29.518  14.445
41505W        W 5064  13.188  33.489  13.503
41506W        W 5065  24.511   6.853  13.515
41507W        W 5066  27.151  23.033  12.383
41508W        W 5067  28.151   1.788   3.853
41509W        W 5068  21.556  20.196  10.499
41510W        W 5069  43.331  11.339   3.686
41511W        W 5070  38.391  38.907   2.238
41512W        W 5071  36.588  42.981   3.816
41513W        W 5072  35.576  33.392   0.265
41514W        W 5073  42.459  32.451   2.668
41515W        W 5074  12.239  23.736  14.005
41516W        W 5075  43.398   9.258  11.018
41517W        W 5076   9.394  44.313  11.954
41518W        W 5077   8.195  31.957  12.967
41519W        W 5078  11.358  37.424   1.884
41520W        W 5079  35.904  24.711  10.572
41521W        W 5080  38.992  41.937   2.755
41522W        W 5081  13.675  18.234   3.178
41523W        W 5082  32.559  36.451   1.816
41524W        W 5083   2.343  43.772   4.625
41525W        W 5084  41.529   9.705   4.161
41526W        W 5085  12.829  20.700   5.209
41527W        W 5086  10.723  29.554  10.631
41528W        W 5087   9.203   2.368  10.432
41529W        W 5088  26.187   4.275  11.465
41530W        W 5089  17.693  31.935   4.648
41531W        W 5090  16.594   6.723   3.733
41532W        W 5091  10.199  42.871   2.399
41533W        W 5092   1.970  36.893   1.767
41534W        W 5093  24.654  17.207  11.391
41535W        W 5094   4.911   7.891  11.072
41536W        W 5095  31.447  38.399   4.732
41537W        W 5096  16.650  42.311  14.831
41538W        W 5097   5.865  11.838  12.356
41539W        W 5098   6.275  36.939   2.406
41540W        W 5099   4.384   6.824   2.266
41541W        W 5100  28.942  43.382  12.001
41542W        W 5101  10.675  20.723   2.250
41543W        W 5102  28.574  25.533   0.246
41544W        W 5103   8.171  41.367   3.159
41545W        W 5104   8.754  10.307   2.837
41546W        W 5105   1.802  31.970  14.388
41547W        W 5106  16.114  15.245  13.820
41548W        W 5107  12.274  22.195  12.044
41549W        W 5108  44.296  38.419  11.523
41550W        W 5109  35.921   4.930   3.711
41551W        W 5110   7.848   1.752   4.269
41552W        W 5111  29.654  29.999  11.474
41553W        W 5112  28.050  33.928  12.969
41554W        W 5113  36.854  14.320  14.280
41555W        W 5114  28.008   8.846   5.115
41556W        W 5115  12.277  31.149   3.757
41557W        W 5116  34.598   6.321  14.301
41558W        W 5117  13.627  26.978   5.582
41559W        W 5118   3.423  18.113   2.334
41560W        W 5119  33.490   5.385  14.819
41561W        W 5120  15.768  18.577   4.797
41562W        W 5121  44.775  18.790   0.286
41563W        W 5122  34.041  19.196  12.371
41564W        W 5123  20.602  42.904   4.683
41565W        W 5124  22.141  14.133  14.915
41566W        W 5125   2.920  42.319  11.857
41567W        W 5126  20.602  38.518   0.906
41568W        W 5127  36.072  12.680  14.965
41569W        W 5128  28.478  31.977   2.878
41570W        W 5129  14.736  17.260  12.485
41571W        W 5130  20.699   5.350   3.679
41572W        W 5131   8.884  23.658  12.525
41573W        W 5132  13.817  37.999   1.410
41574W        W 5133  15.780  20.700   4.719
41575W        W 5134   6.339  29.633   1.224
41576W        W 5135   7.901   9.212   3.257
41577W        W 5136   6.900  34.533   4.249
41578W        W 5137   1.800   3.913  14.415
41579W        W 5138  24.608  40.855  10.564
41580W        W 5139  27.491  17.737   3.339
41581W        W 5140  21.652  29.660  12.968
41582W        W 5141   5.222  19.651   4.329
41583W        W 5142  20.745   8.289   2.214
41584W        W 5143  16.767  31.940  13.463
41585W        W 5144   0.365  12.613   4.665
41586W        W 5145  33.997  33.884   0.243
41587W        W 5146  35.965  19.670   4.609
41588W        W 5147  43.991  28.580   3.674
41589W        W 5148  33.892  19.672  12.362
41590W        W 5149  21.216  31.946   5.162
41591W        W 5150  33.074  16.117   4.759
41592W        W 5151  15.658  22.620   3.210
41593W        W 5152   1.370  33.454  13.545
41594W        W 5153  34.109  29.983   2.306
41595W        W 5154  40.522  21.546   2.189
41596W        W 5155   2.898  11.317  10.898
41597W        W 5156  37.929   9.212  13.013
41598W        W 5157   3.413  31.498   0.763
41599W        W 5158  42.844  36.407   3.720
41600W        W 5159  33.093  18.570  14.020
41601W        W 5160  15.198  41.852   0.437
41602W        W 5161  30.955  39.992  14.875
41603W        W 5162   9.717  11.369  10.589
41604W        W 5163   7.205  40.339   1.727
41605W        W 5164   0.427   7.805  13.056
41606W        W 5165   1.815  29.926  13.863
41607W        W 5166  37.380   5.914   1.226
41608W        W 5167  34.927  21.203  10.603
41609W        W 5168  12.807  42.364  10.580
41610W        W 5169  34.062  24.556   3.342
41611W        W 5170  10.300  37.902   0.809
41612W        W 5171   6.329  13.685  14.319
41613W        W 5172   4.796  36.897  13.868
41614W        W 5173  29.570  24.670   1.380
41615W        W 5174  13.814  27.570   1.898
41616W        W 5175  22.602  12.655  12.091
41617W        W 5176  35.386   4.228  13.900
41618W        W 5177  42.825  44.986  14.788
41619W        W 5178  22.183  34.606   3.266
41620W        W 5179  18.605  33.956   0.941
41621W        W 5180  25.649   5.874  10.604
41622W        W 5181  25.058   2.852   1.906
41623W        W 5182  21.110  17.223   5.210
41624W        W 5183   3.879  24.488  11.025
41625W        W 5184  34.530  20.711  11.080
41626W        W 5185  26.168  21.588   2.823
41627W        W 5186  17.757  32.630  11.000
41628W        W 5187   9.332  18.643  13.390
41629W        W 5188   4.262  14.174   3.864
41630W        W 5189  43.482  22.607   4.713
41631W        W 5190  35.854  16.580   2.239
41632W        W 5191  37.868  32.073  11.910
41633W        W 5192   0.932  20.213   3.203
41634W        W 5193  23.617  27.450   4.185
41635W        W 5194  40.918  28.447   0.929
41636W        W 5195  18.232  20.143   0.276
41637W        W 5196  35.936  24.005  14.959
41638W        W 5197  26.656  11.626   1.346
41639W        W 5198  39.538   9.667  12.030
41640W        W 5199   8.236  36.895   4.729
41641W        W 5200  18.551  23.620   4.283
41642W        W 5201   4.849  37.535  14.822
41643W        W 5202  28.127  28.040   0.830
41644W        W 5203  34.976  30.497  10.508
41645W        W 5204  43.458  11.665   0.939
41646W        W 5205  25.198  18.750   2.718
41647W        W 5206  26.099   7.775   0.782
41648W        W 5207  17.153  13.777  12.937
41649W        W 5208   7.406  27.019  11.113
41650W        W 5209  22.145  10.381  13.503
41651W        W 5210  28.533  32.977   0.335
41652W        W 5211  18.180  12.715  14.478
41653W        W 5212  25.056  16.082  11.076
41654W        W 5213   0.482  22.010  11.018
41655W        W 5214  42.463  23.056   2.724
41656W        W 5215  42.884  10.201   0.370
41657W        W 5216  13.756  28.668   4.825
41658W        W 5217   8.823  38.458   4.805
41659W        W 5218  26.478  44.007   2.259
41660W        W 5219  18.585  13.197   4.281
41661W        W 5220  12.733  37.498  14.818
41662W        W 5221  23.604   2.302   4.195
41663W        W 5222  10.328  18.788   1.901
41664W        W 5223  25.132  37.846   0.846
41665W        W 5224  44.482  30.594   1.780
41666W        W 5225  27.183  39.038   2.771
41667W        W 5226  33.027  25.705  10.546
41668W        W 5227   0.420  17.698  13.339
41669W        W 5228  18.575  33.982  12.520
41670W        W 5229  35.515   3.368   3.147
41671W        W 5230  29.088  10.273  11.467
41672W        W 5231  12.783  10.155   0.306
41673W        W 5232  15.200   2.320   3.265
41674W        W 5233  25.620  38.973  11.446
41675W        W 5234  14.265  40.983  14.367
41676W        W 5235  19.110  18.693  14.451
41677W        W 5236  17.236  34.884   3.797
41678W        W 5237   0.923  12.780   0.942
41679W        W 5238  12.315  32.455  10.953
41680W        W 5239   3.369   0.956   0.802
41681W        W 5240   3.293  19.756  11.016
41682W        W 5241  21.167  35.570  11.612
41683W        W 5242  14.693  27.589   4.825
41684W        W 5243  28.987  29.488  12.563
41685W        W 5244  32.042  42.418  10.641
41686W        W 5245  24.684  25.022  11.991
41687W        W 5246  26.045  34.486   1.899
41688W        W 5247  25.214   7.241   2.207
41689W        W 5248  43.412  42.796  14.808
41690W        W 5249  15.282  11.818   0.328
41691W        W 5250   4.856   2.902   4.241
41692W        W 5251  27.067   3.869   4.758
41693W        W 5252  39.924  26.115  11.394
41694W        W 5253  43.512  13.132   3.764
41695W        W 5254   8.316  17.106   0.785
41696W        W 5255  25.505  19.564  11.564
41697W        W 5256  21.134   8.673  12.002
41698W        W 5257   7.728   1.965   0.823
41699W        W 5258  14.127  16.088   2.389
41700W        W 5259   1.977   7.808  10.630
41701W        W 5260  24.149  34.899   3.150
41702W        W 5261  36.881  27.672  11.473
41703W        W 5262  20.603  20.754  10.461
41704W        W 5263  21.725  34.103  12.542
41705W        W 5264   6.698   6.204   2.776
41706W        W 5265  29.017  19.200   3.748
41707W        W 5266   2.862   0.457   2.297
41708W        W 5267  20.589  35.931   0.430
41709W        W 5268  13.201  10.225  10.594
41710W        W 5269   5.306  31.916   4.205
41711W        W 5270  33.440  10.735  11.506
41712W        W 5271   9.724  18.166  14.460
41713W        W 5272  39.390  16.193   1.394
41714W        W 5273  29.521  34.518  13.982
41715W        W 5274  32.629  11.263   1.771
41716W        W 5275  21.562  19.714   0.442
41717W        W 5276  10.674  24.481  13.000
41718W        W 5277  35.565   7.896   3.149
41719W        W 5278  20.768  28.658   4.248
41720W        W 5279  33.944  37.353   2.685
41721W        W 5280  23.141   4.435  13.433
41722W        W 5281  26.646  42.974   3.773
41723W        W 5282  23.188  14.754  12.016
41724W        W 5283  33.960  18.288  14.877
41725W        W 5284  38.948  26.673   0.860
41726W        W 5285  39.494   7.732  12.899
41727W        W 5286  32.110  19.713   3.815
41728W        W 5287  39.812  38.405  13.047
41729W        W 5288  16.593  26.001  11.905
41730W        W 5289   0.880  26.109  14.924
41731W        W 5290  22.640  38.331   4.813
41732W        W 5291  16.642  20.763   4.642
41733W        W 5292  21.217  12.259   2.812
41734W        W 5293  40.430  38.499  11.522
41735W        W 5294  38.477  10.730   1.298
41736W        W 5295   3.254  43.357   0.750
41737W        W 5296  11.210  39.858   3.667
41738W        W 5297  31.527  40.803   9.667
41739W        W 5298  41.406  14.124   0.267
41740W        W 5299   4.909  14.123   3.635
41741W        W 5300  44.895   1.944   2.863
41742W        W 5301  29.549   4.243   4.742
41743W        W 5302  12.834  32.010   4.822
41744W        W 5303  40.821   9.322   2.394
41745W        W 5304  22.166   5.366   4.247
41746W        W 5305  17.564  31.457  10.937
41747W        W 5306  18.588  31.939  13.414
41748W        W 5307  24.154  23.627  14.018
41749W        W 5308  16.199  42.865  13.914
41750W        W 5309   4.854  39.339   2.674
41751W        W 5310  17.117  14.630  10.948
41752W        W 5311   9.645   8.353   0.785
41753W        W 5312   4.297   8.285   2.806
41754W        W 5313  31.994   8.881  14.947
41755W        W 5314  33.912  21.110  13.835
41756W        W 5315  38.431  40.462   0.423
41757W        W 5316  16.729   2.393   1.397
41758W        W 5317  43.283  44.358   2.297
41759W        W 5318   0.430   6.323   0.244
41760W        W 5319  12.714  43.011  13.976
41761W        W 5320  41.913   2.315  10.904
41762W        W 5321  13.115   7.834  12.093
41763W        W 5322   1.270  28.062  13.421
41764W        W 5323  12.117  21.256  13.389
41765W        W 5324  44.421  24.706   2.855
41766W        W 5325   0.791  37.862   0.941
41767W        W 5326  32.118  14.729  13.441
41768W        W 5327  34.891  13.176   0.259
41769W        W 5328  16.775  42.013  13.354
41770W        W 5329  15.618  37.521   4.315
41771W        W 5330  42.961  17.197  10.562
41772W        W 5331   8.825   5.207  13.972
41773W        W 5332  15.256  42.313   2.760
41774W        W 5333  33.108  13.255  10.611
41775W        W 5334  29.533  13.604   3.656
41776W        W 5335  12.286  40.849  12.476
41777W        W 5336  38.461  18.169   2.714
41778W        W 5337  36.575  29.984  11.393
41779W        W 5338   8.762   7.876  13.840
41780W        W 5339   7.224  10.340   4.308
41781W        W 5340  24.209  27.120  11.602
41782W        W 5341  44.779   6.685  11.039
41783W        W 5342  39.361   4.818  12.534
41784W        W 5343  10.719  43.862   4.233
41785W        W 5344  43.909   6.752   1.817
41786W        W 5345  22.042   7.251  12.557
41787W        W 5346  37.003  34.072   0.461
41788W        W 5347  20.697  40.944  10.463
41789W        W 5348  38.472  35.091   2.713
41790W        W 5349  35.004  41.499   3.810
41791W        W 5350  23.992  31.473   0.862
41792W        W 5351  28.167  22.083   3.684
41793W        W 5352  23.581  30.490   4.737
41794W        W 5353  34.071  27.511   2.266
41795W        W 5354  30.654  39.542  14.854
41796W        W 5355   4.316  18.598  13.929
41797W        W 5356  33.547  18.204   3.676
41798W        W 5357  12.832  23.720  13.822
41799W        W 5358   6.416  27.585   1.805
41800W        W 5359  20.596  29.037  13.421
41801W        W 5360  28.523  40.821   2.242
41802W        W 5361  15.156   8.285  11.065
41803W        W 5362  16.577  34.425   2.669
41804W        W 5363  13.345  19.639  13.998
41805W        W 5364  40.831  26.145  10.634
41806W        W 5365   4.920  31.006   3.830
41807W        W 5366  13.114  38.853  14.309
41808W        W 5367  43.484   7.681   2.797
41809W        W 5368   8.856  38.854   5.304
41810W        W 5369   0.467   7.383  13.956
41811W        W 5370  24.641  22.143  14.342
41812W        W 5371  21.637   0.299  13.466
41813W        W 5372  37.832   3.293   0.270
41814W        W 5373  35.960  37.528  14.851
41815W        W 5374  21.571  24.550   1.356
41816W        W 5375  30.929  30.419  10.430
41817W        W 5376  44.465  12.661   3.706
41818W        W 5377  26.682  25.552   1.824
41819W        W 5378  23.694   1.288   1.770
41820W        W 5379   8.161  30.985  14.474
41821W        W 5380   4.307  16.800   2.328
41822W        W 5381   7.246  22.737   2.376
41823W        W 5382  17.276   4.752   3.689
41824W        W 5383  23.072  26.522   0.260
41825W        W 5384   1.270  22.222   3.752
41826W        W 5385  25.127  28.579  11.930
41827W        W 5386  15.304   5.258  11.115
41828W        W 5387  37.886  30.152   4.266
41829W        W 5388  21.714  39.897  12.823
41830W        W 5389  17.715  24.139  12.855
41831W        W 5390  14.701  26.967   1.346
41832W        W 5391  38.527  20.614   4.142
41833W        W 5392   7.178  34.569  14.374
41834W        W 5393   0.378  44.763   4.165
41835W        W 5394  15.585   7.895  12.449
41836W        W 5395  12.693  38.839   2.228
41837W        W 5396  34.599  26.127   1.284
41838W        W 5397  29.029   4.281  11.102
41839W        W 5398  39.812   6.698   0.254
41840W        W 5399  27.980  29.153   2.235
41841W        W 5400  33.427   3.389   4.246
41842W        W 5401   6.296  18.556  14.486
41843W        W 5402  13.762  39.881  14.997
41844W        W 5403  10.878  15.606   5.189
41845W        W 5404   1.910  28.010   3.741
41846W        W 5405  44.827  10.374   2.700
41847W        W 5406  21.236  42.897   2.392
41848W        W 5407  42.466  36.459   3.311
41849W        W 5408  17.766  33.081  10.933
41850W        W 5409  30.055   0.908  13.332
41851W        W 5410  41.935  29.925  13.809
41852W        W 5411  14.331  40.523  12.864
41853W        W 5412  26.122  13.330  12.971
41854W        W 5413  35.408  41.000  14.985
41855W        W 5414  23.699  10.803  12.869
41856W        W 5415  19.125   6.702   4.150
41857W        W 5416  41.900  28.942   0.267
41858W        W 5417  31.588  10.872   3.705
41859W        W 5418  14.175   2.261   1.326
41860W        W 5419  42.899  17.212  13.507
41861W        W 5420  38.829  16.174   3.164
41862W        W 5421  28.602  19.148   0.848
41863W        W 5422   9.310  17.802   0.296
41864W        W 5423  40.986  43.490  14.408
41865W        W 5424  20.112  15.679   0.773
41866W        W 5425  18.244  25.136   2.797
41867W        W 5426  31.610   9.364  13.497
41868W        W 5427   0.849  24.493   3.758
41869W        W 5428  43.965   1.391   0.944
41870W        W 5429  44.769  14.292   0.810
41871W        W 5430  23.709  24.126   3.657
41872W        W 5431  42.845  37.497  14.911
41873W        W 5432  43.833  18.681  11.039
41874W        W 5433  16.219   6.406   1.769
41875W        W 5434  18.626   4.326  14.823
41876W        W 5435   9.330  26.977   1.929
41877W        W 5436   6.314  11.254   3.769
41878W        W 5437  26.952  37.346  12.357
41879W        W 5438  43.841  44.784  11.995
41880W        W 5439   0.936  15.797   4.809
41881W        W 5440  13.648  27.010   0.915
41882W        W 5441  29.626  44.881   0.383
41883W        W 5442  20.036   9.876   0.293
41884W        W 5443  24.662  12.815  10.999
41885W        W 5444   8.832   5.257   4.608
41886W        W 5445  32.526   6.422  13.978
41887W        W 5446  40.488  34.096  10.578
41888W        W 5447  22.572  20.742  12.872
41889W        W 5448   0.345  19.681   1.333
41890W        W 5449   8.384  11.856   0.837
41891W        W 5450  30.590  43.811   3.716
41892W        W 5451  11.178  43.409   3.192
41893W        W 5452  36.892  25.060  12.995
41894W        W 5453  12.749  44.430  11.946
41895W        W 5454  41.992  42.347   2.663
41896W        W 5455   4.913  25.182   4.793
41897W        W 5456   9.696   4.862   1.710
41898W        W 5457   7.676  40.430  11.972
41899W        W 5458   2.273   7.396  10.060
41900W        W 5459  21.659   9.845  12.996
41901W        W 5460  36.065  41.926   0.793
41902W        W 5461   7.875   4.786  11.429
41903W        W 5462   6.892  23.177   2.418
41904W        W 5463  41.419  35.083  11.552
41905W        W 5464  26.983  22.622   0.433
41906W        W 5465  29.983   3.818   0.777
41907W        W 5466  11.224  30.476   1.784
41908W        W 5467   1.330  19.603   2.196
41909W        W 5468  19.644  10.667   2.901
41910W        W 5469  21.148   8.247  13.341
41911W        W 5470  25.106  32.051   2.712
41912W        W 5471  25.018   5.687  12.950
41913W        W 5472  39.455   1.871   2.891
41914W        W 5473  26.702  22.011   1.359
41915W        W 5474   8.248  23.991  14.301
41916W        W 5475  29.662  28.440   2.223
41917W        W 5476  17.158  40.901  10.951
41918W        W 5477   9.337  19.250   4.223
41919W        W 5478  19.233  27.048   2.780
41920W        W 5479   0.819  40.833   3.652
41921W        W 5480  20.601  33.913   0.458
41922W        W 5481  35.412  35.964  11.499
41923W        W 5482  29.583   3.386  13.312
41924W        W 5483  28.149  11.737  14.512
41925W        W 5484   2.313  33.516  12.530
41926W        W 5485  43.935  10.713   0.248
41927W        W 5486  18.620  15.751  13.333
41928W        W 5487  42.959  39.938   2.874
41929W        W 5488  12.315  19.657  12.012
41930W        W 5489  11.666   0.785  14.758
41931W        W 5490   1.978  12.709  14.298
41932W        W 5491  19.070  22.037  11.906
41933W        W 5492  14.251  33.385   4.152
41934W        W 5493  11.217  14.650  12.401
41935W        W 5494  41.014  23.630   4.311
41936W        W 5495  44.337   5.282  12.911
41937W        W 5496   8.894  27.541  13.512
41938W        W 5497  40.900  27.690   4.123
41939W        W 5498  14.753  38.849   4.756
41940W        W 5499  12.157   6.786   0.377
41941W        W 5500  21.590  39.529  12.378
41942W        W 5501  17.092  21.235  12.042
41943W        W 5502  10.312  12.128   4.142
41944W        W 5503  39.882  38.911  10.937
41945W        W 5504  23.698   5.416  12.040
41946W        W 5505   2.279   9.881  14.795
41947W        W 5506  16.097  33.385  12.892
41948W        W 5507   0.469  27.467   2.689
41949W        W 5508  39.443  17.126  10.577
41950W        W 5509  24.115  10.819   1.870
41951W        W 5510   0.748  35.063  11.865
41952W        W 5511  23.682  30.163  13.318
41953W        W 5512  36.049  20.539  10.888
41954W        W 5513   2.811  40.986  13.014
41955W        W 5514  35.384   8.683   2.728
41956W        W 5515  10.746   0.759   2.761
41957W        W 5516  18.187  17.666  10.577
41958W        W 5517  21.600   1.251   1.740
41959W        W 5518  39.928  35.856  14.766
41960W        W 5519  32.518  43.783  10.573
41961W        W 5520   3.834  24.625   1.929
41962W        W 5521   3.946  17.578  10.556
41963W        W 5522  11.218  17.695  12.056
41964W        W 5523  23.500  16.570  12.376
41965W        W 5524  37.005  39.914  14.422
41966W        W 5525  41.509  31.443  13.000
41967W        W 5526  17.659  12.262  10.526
41968W        W 5527  35.514  25.197  13.460
41969W        W 5528  43.315  22.586  12.901
41970W        W 5529  14.663  23.037  13.351
41971W        W 5530   2.741  14.777   4.244
41972W        W 5531  27.066  24.669   4.291
41973W        W 5532  15.280  11.853   2.184
41974W        W 5533   4.399   8.345  13.003
41975W        W 5534  18.584   9.267  11.931
41976W        W 5535  24.155  19.158  13.983
41977W        W 5536  11.138   3.439   4.152
41978W        W 5537  11.727   4.215  13.876
41979W        W 5538  14.322  27.525  10.122
41980W        W 5539  24.011  26.494  13.432
41981W        W 5540  24.211  25.530   4.657
41982W        W 5541   2.450  39.442   3.782
41983W        W 5542  36.466  31.951   1.780
41984W        W 5543  26.151  19.060  13.050
41985W        W 5544  40.425  26.457   0.824
41986W        W 5545  24.704   5.324   4.800
41987W        W 5546  15.659  36.993  11.588
41988W        W 5547   7.752  29.926   0.465
41989W        W 5548   8.774  40.532   3.159
41990W        W 5549   8.176  18.173  11.517
41991W        W 5550  38.056  19.752   5.266
41992W        W 5551  20.033  40.438   1.748
41993W        W 5552  23.695  34.586   1.298
41994W        W 5553  20.250  18.576   1.888
41995W        W 5554  32.521  20.768  11.414
41996W        W 5555  13.831  38.410  10.555
41997W        W 5556   5.710  15.635   3.729
41998W        W 5557  16.289  29.005   4.216
41999W        W 5558  11.223  36.993  11.891
42000W        W 5559  22.251  10.347   3.289
42001W        W 5560  23.227  32.439  12.361
42002W        W 5561  25.102  33.921   4.339
42003W        W 5562  34.898   1.865  11.129
42004W        W 5563  15.727   7.893   3.333
42005W        W 5564  36.360  22.100  14.819
42006W        W 5565   8.662  40.895  11.012
42007W        W 5566  41.486  41.857  12.947
42008W        W 5567  21.194  32.996  11.389
42009W        W 5568  20.721  10.378   3.375
42010W        W 5569  11.684  34.060   4.166
42011W        W 5570   9.745   7.401   3.674
42012W        W 5571  25.097  34.977   0.854
42013W        W 5572  37.475   8.371  14.407
42014W        W 5573  25.976  26.127  13.887
42015W        W 5574   0.818  40.546   1.849
42016W        W 5575  11.364  33.543  14.942
42017W        W 5576  35.490  30.595  12.024
42018W        W 5577  25.707  35.076  14.875
42019W        W 5578  28.149  35.512  13.526
42020W        W 5579  39.495   7.347  12.475
42021W        W 5580  35.980  22.029   2.395
42022W        W 5581  33.454  22.188   2.342
42023W        W 5582  10.789   4.416   0.861
42024W        W 5583   9.161   9.229   3.804
42025W        W 5584  11.760  12.239   4.335
42026W        W 5585  22.600   1.850   2.302
42027W        W 5586  39.959  17.766  10.473
42028W        W 5587  29.100   5.873  14.826
42029W        W 5588  12.212  13.165  11.986
42030W        W 5589  24.175  44.463   2.278
42031W        W 5590  31.918  32.940  12.388
42032W        W 5591  25.030   1.322   3.298
42033W        W 5592  20.553   0.354   3.225
42034W        W 5593  28.673  44.779  10.924
42035W        W 5594  42.489   8.899   2.339
42036W        W 5595  41.976  15.259  13.380
42037W        W 5596  10.821  23.145   2.828
42038W        W 5597   0.288  11.806  13.006
42039W        W 5598  34.408  13.299  14.967
42040W        W 5599  19.147  43.454   4.736
42041W        W 5600   2.265   3.356  13.410
42042W        W 5601  40.304  27.447   4.294
42043W        W 5602  15.578  44.339  13.818
42044W        W 5603  38.497   0.334   2.688
42045W        W 5604  32.612  12.184   3.312
42046W        W 5605  11.366   2.732   4.196
42047W        W 5606   4.924  40.883  10.624
42048W        W 5607  39.958  39.905  11.104
42049W        W 5608  36.492   0.374   2.235
42050W        W 5609  18.721  17.075   4.718
42051W        W 5610  20.058  31.029  14.455
42052W        W 5611  21.723  44.361  13.315
42053W        W 5612  29.506  22.670   2.365
42054W        W 5613  21.182   7.326  10.063
42055W        W 5614  37.069  37.552  13.484
42056W        W 5615  13.340  14.281  10.079
42057W        W 5616   2.934  43.476   4.238
42058W        W 5617  15.266  25.548  12.425
42059W        W 5618  38.569  32.017  12.921
42060W        W 5619   9.325   7.226  13.481
42061W        W 5620   7.877  32.923   2.846
42062W        W 5621  38.042  37.861  13.940
42063W        W 5622  22.510   4.849  12.915
42064W        W 5623  30.429  20.701   3.172
42065W        W 5624  20.059   2.275  12.856
42066W        W 5625  36.968  29.445  14.870
42067W        W 5626  22.718  26.008  13.369
42068W        W 5627  27.623  34.080  10.621
42069W        W 5628  36.976  36.465  12.472
42070W        W 5629   9.324  25.471   4.219
42071W        W 5630  10.799  24.719  13.988
42072W        W 5631   0.970  35.451  14.786
42073W        W 5632   2.274  44.306   0.869
42074W        W 5633  37.867  19.724   4.231
42075W        W 5634  19.285  33.006   1.427
42076W        W 5635  17.280  24.026  11.038
42077W        W 5636  35.957   8.685  10.539
42078W        W 5637  19.577  13.656   1.911
42079W        W 5638   8.403   3.772  14.029
42080W        W 5639  29.939  41.899  12.915
42081W        W 5640  25.117  21.240   4.769
42082W        W 5641  25.999  11.703  11.386
42083W        W 5642   0.281  25.631  13.326
42084W        W 5643  10.676   4.287  11.020
42085W        W 5644  25.573  14.774   0.908
42086W        W 5645  12.856  16.708  12.416
42087W        W 5646  42.309  16.709   3.157
42088W        W 5647  33.597  24.657  14.987
42089W        W 5648   7.200  37.540   2.211
42090W        W 5649  32.062  30.029   2.402
42091W        W 5650  18.132  24.050   2.841
42092W        W 5651  17.215  28.050   5.148
42093W        W 5652  41.006   2.332   3.671
42094W        W 5653  31.152   7.344  14.436
42095W        W 5654   7.883  41.922  12.510
42096W        W 5655  33.495  14.789   3.665
42097W        W 5656  35.577  39.545  10.501
42098W        W 5657  31.510  28.023  10.924
42099W        W 5658   2.240  11.800  12.854
42100W        W 5659   6.753  41.897  13.791
42101W        W 5660   0.893  15.286  10.635
42102W        W 5661  24.105  17.743  10.573
42103W        W 5662  25.566  24.573  12.885
42104W        W 5663  17.580  26.137   1.347
42105W        W 5664  21.037  32.112  14.996
42106W        W 5665  21.666  15.735  13.530
42107W        W 5666  44.479  37.029  14.897
42108W        W 5667  26.048  32.132   1.328
42109W        W 5668  30.606  43.897  14.441
42110W        W 5669  24.110  10.690  12.518
42111W        W 5670  32.977  42.847  13.541
42112W        W 5671  38.949   7.692   2.853
42113W        W 5672   9.231  27.047   4.838
42114W        W 5673   8.330   0.253  14.997
42115W        W 5674  36.556  11.208   3.848
42116W        W 5675   5.864  24.520  14.974
42117W        W 5676  21.218  42.917  11.981
42118W        W 5677   6.405  37.521  14.479
42119W        W 5678  40.508  31.596   3.712
42120W        W 5679  17.592   6.682   3.198
42121W        W 5680  33.385  42.024   4.622
42122W        W 5681   6.318  15.673  11.522
42123W        W 5682  39.812   8.840  13.833
42124W        W 5683   5.756  22.217   2.748
42125W        W 5684  27.026   4.889   1.261
42126W        W 5685  20.558  32.053   5.271
42127W        W 5686  11.214  41.915  11.398
42128W        W 5687   6.214   7.789  13.343
42129W        W 5688   1.866  44.884  14.836
42130W        W 5689  44.972   9.738   1.837
42131W        W 5690  33.115   2.325  11.956
42132W        W 5691   6.771   0.305  13.791
42133W        W 5692  21.107  17.195  14.431
42134W        W 5693  25.579  21.727  10.082
42135W        W 5694  20.061  41.832  13.405
42136W        W 5695  28.130  11.345   1.810
42137W        W 5696  42.825  27.121   1.793
42138W        W 5697  28.587  22.609  13.968
42139W        W 5698  40.880  27.037  12.030
42140W        W 5699  15.098  31.639  12.862
42141W        W 5700  39.392   3.409   1.772
42142W        W 5701  25.046  21.077   0.931
42143W        W 5702   9.673  16.651  12.377
42144W        W 5703  39.360   2.819   3.684
42145W        W 5704  33.981   9.755  14.499
42146W        W 5705  29.622  38.332   5.212
42147W        W 5706  18.253  26.546  14.865
42148W        W 5707   4.866   5.902   3.200
42149W        W 5708  11.207  40.502  13.355
42150W        W 5709  23.513  21.713  14.465
42151W        W 5710  19.614  27.129   1.897
42152W        W 5711  31.434  32.937   2.293
42153W        W 5712   2.901  37.058  12.957
42154W        W 5713  24.167  44.315   4.348
42155W        W 5714   9.173   9.268   0.756
42156W        W 5715   0.362  21.124   2.366
42157W        W 5716  41.423  20.595  14.501
42158W        W 5717  35.400   2.459  13.454
42159W        W 5718   8.184   5.806  13.548
42160W        W 5719  27.097  12.327   4.128
42161W        W 5720  15.807   9.812   4.788
42162W        W 5721  11.129   9.210  10.421
42163W        W 5722  40.918  11.313  13.408
42164W        W 5723  18.599  15.780  11.922
42165W        W 5724  43.019  37.971   3.690
42166W        W 5725  26.182   4.741  12.410
42167W        W 5726  26.165  30.991   1.875
42168W        W 5727  43.309  41.913   4.123
42169W        W 5728  38.356  11.786   4.267
42170W        W 5729   5.439  26.549   4.127
42171W        W 5730  17.204   3.934  12.394
42172W        W 5731  27.940   8.253  13.058
42173W        W 5732   1.889  17.155  11.877
42174W        W 5733  23.081  39.525   1.423
42175W        W 5734  37.507  35.860  12.996
42176W        W 5735  15.775   8.270   3.333
42177W        W 5736   2.389   8.355  11.895
42178W        W 5737  25.986  19.552  10.914
42179W        W 5738  12.285  26.119  14.435
42180W        W 5739  19.232   4.333   2.892
42181W        W 5740   5.790  41.398  11.935
42182W        W 5741  41.905  29.656  10.641
42183W        W 5742  22.081   6.343   0.484
42184W        W 5743   0.257  41.955   0.410
42185W        W 5744  23.095  22.531   1.444
42186W        W 5745  30.051  37.386  14.004
42187W        W 5746  19.651  29.074   0.313
42188W        W 5747   8.878  43.780  14.887
42189W        W 5748  28.172  29.140  10.642
42190W        W 5749   4.720  11.802  13.042
42191W        W 5750  18.782  19.632  11.871
42192W        W 5751  24.091   0.396  12.898
42193W        W 5752  38.858  28.547  10.952
42194W        W 5753   6.428   2.396   3.322
42195W        W 5754  25.542  29.039   4.307
42196W        W 5755  17.738  14.331   1.755
42197W        W 5756  16.176  33.472  12.475
42198W        W 5757  39.810   4.944   0.407
42199W        W 5758  27.690  32.001  14.793
42200W        W 5759  27.046  43.806   1.227
42201W        W 5760  12.256   4.248   4.743
42202W        W 5761  42.878  26.659   2.294
42203W        W 5762  28.573  13.295   4.293
42204W        W 5763   5.873  40.438   0.866
42205W        W 5764   1.890  28.061   4.823
42206W        W 5765  17.162  13.198   2.283
42207W        W 5766   5.705  28.577  11.395
42208W        W 5767  31.120  27.046  11.389
42209W        W 5768  43.299  44.300   3.787
42210W        W 5769  38.989   4.268  10.106
42211W        W 5770  43.408  25.107   2.224
42212W        W 5771   8.174  34.093   1.737
42213W        W 5772   3.353  18.277  12.386
42214W        W 5773  25.052  10.353  12.865
42215W        W 5774  32.535  33.955   3.348
42216W        W 5775   3.240  22.218  14.880
42217W        W 5776  39.889  33.605   2.823
42218W        W 5777  18.728  28.017   2.780
42219W        W 5778  30.547  33.421   2.404
42220W        W 5779  44.277  24.691  10.638
42221W        W 5780  36.457  43.279   4.179
42222W        W 5781   9.764  19.101   4.177
42223W        W 5782  44.478  26.509  11.869
42224W        W 5783  20.633  19.098  13.367
42225W        W 5784   0.912  10.824  12.465
42226W        W 5785  28.540  19.658   3.728
42227W        W 5786  13.326  37.028  11.887
42228W        W 5787   4.729  18.644  12.430
42229W        W 5788  30.996  33.971  11.398
42230W        W 5789  35.463  33.619  10.513
42231W        W 5790   5.399   1.288  11.105
42232W        W 5791  21.673  32.910  10.598
42233W        W 5792  17.620  23.121   3.775
42234W        W 5793  34.991  38.996   2.808
42235W        W 5794  16.132   7.901  13.891
42236W        W 5795  14.247  43.001   3.264
42237W        W 5796   9.726  29.659  14.767
42238W        W 5797  38.869  20.590  13.854
42239W        W 5798   8.803  37.562  12.407
42240W        W 5799  10.362  17.304   1.211
42241W        W 5800  38.911  44.790   2.258
42242W        W 5801  31.095   9.306  13.049
42243W        W 5802  24.541  38.504   1.336
42244W        W 5803  30.976  11.752   4.220
42245W        W 5804  23.520  27.578  10.617
42246W        W 5805  30.493  28.145   0.282
42247W        W 5806  34.971  34.570  14.446
42248W        W 5807  35.075  28.570   3.709
42249W        W 5808  14.817  42.934   0.292
42250W        W 5809  11.824  11.709   1.210
42251W        W 5810  44.454  40.312  13.945
42252W        W 5811  17.737  25.713   0.765
42253W        W 5812  33.127  17.258   4.310
42254W        W 5813  44.455  23.713   3.364
42255W        W 5814  30.627  13.194   2.879
42256W        W 5815   6.198  34.396  13.802
42257W        W 5816  39.316  21.567   4.800
42258W        W 5817  18.569  20.169  13.532
42259W        W 5818  34.033  44.983   1.848
42260W        W 5819  41.005  29.936  14.856
42261W        W 5820  23.202   3.330  14.315
42262W        W 5821  14.204  26.986  12.407
42263W        W 5822  35.441  36.543   0.460
42264W        W 5823  11.629   7.909  14.829
42265W        W 5824  16.311  26.619  11.052
42266W        W 5825  31.525  34.933   2.847
42267W        W 5826  36.533  36.967   0.342
42268W        W 5827   5.246   6.795  10.460
42269W        W 5828  43.833  24.017  13.926
42270W        W 5829  37.015  25.010  14.780
42271W        W 5830  27.487  22.706   3.656
42272W        W 5831  27.686  19.192   4.338
42273W        W 5832   1.335  10.728   3.809
42274W        W 5833  32.398  20.747  12.550
42275W        W 5834  18.691  20.255   3.744
42276W        W 5835  17.088  44.983  11.990
42277W        W 5836  43.020  26.611   5.101
42278W        W 5837  21.753  22.206   0.852
42279W        W 5838   3.267  28.929  14.369
42280W        W 5839  25.113  20.252  11.082
42281W        W 5840  34.594  14.623  10.644
42282W        W 5841  34.469  10.713   5.167
42283W        W 5842  10.344  18.604  12.013
42284W        W 5843  31.499  21.577   3.372
42285W        W 5844  37.486  42.972  14.362
42286W        W 5845  44.791  36.876   3.761
42287W        W 5846  34.481   7.370  13.416
42288W        W 5847  32.928  24.981  13.330
42289W        W 5848   5.405  33.048   2.186
42290W        W 5849   0.851  27.999  11.928
42291W        W 5850  32.482  21.623   3.299
42292W        W 5851  35.090  25.064   0.883
42293W        W 5852  19.211  44.452   0.379
42294W        W 5853  35.528  23.645  14.014
42295W        W 5854  10.330  30.616  12.503
42296W        W 5855   2.380  44.488  13.469
42297W        W 5856  33.532  44.475   4.291
42298W        W 5857  23.188  41.978  11.518
42299W        W 5858  28.088  39.960  13.994
42300W        W 5859  27.656  24.478   4.794
42301W        W 5860  29.044   8.371  10.573
42302W        W 5861  42.313  28.071  13.006
42303W        W 5862  31.073  15.681   3.866
42304W        W 5863  40.537   5.814   4.733
42305W        W 5864   6.371   6.350  10.534
42306W        W 5865  22.230  29.532  12.971
42307W        W 5866   5.730  27.480  12.978
42308W        W 5867  42.787  24.101   3.219
42309W        W 5868  29.928  15.300   0.434
42310W        W 5869  35.034  32.028   4.758
42311W        W 5870  41.797  23.734   1.295
42312W        W 5871  11.651  41.352   2.227
42313W        W 5872  10.651   5.712   1.904
42314W        W 5873  42.829  14.151   0.275
42315W        W 5874  31.609  11.652  14.371
42316W        W 5875  33.394  32.984   2.294
42317W        W 5876  42.280  41.301  10.926
42318W        W 5877  22.690   5.786  10.909
42319W        W 5878   0.774  31.474   1.312
42320W        W 5879   9.179   7.338  11.583
42321W        W 5880  41.460  40.979  13.894
42322W        W 5881  12.207  34.438  13.882
42323W        W 5882  30.021  27.564  13.402
42324W        W 5883   7.757  34.019  11.076
42325W        W 5884  30.113   4.939   0.403
42326W        W 5885  24.570  37.488  11.014
42327W        W 5886  35.549  34.030  13.492
42328W        W 5887  32.070  17.150  10.614
42329W        W 5888   3.847   7.773   1.792
42330W        W 5889  19.731  28.956   5.319
42331W        W 5890  25.965  41.443   2.393
42332W        W 5891  15.711  13.111   1.898
42333W        W 5892  15.132  13.252  12.575
42334W        W 5893  44.334  37.467   0.271
42335W        W 5894  40.917  34.027   0.479
42336W        W 5895   6.413  23.107  12.095
42337W        W 5896   9.216   2.892   4.267
42338W        W 5897  14.640  20.755  14.516
42339W        W 5898  15.159   7.406  14.771
42340W        W 5899  37.060  18.053  10.957
42341W        W 5900  41.512   8.817   2.289
42342W        W 5901  18.112   1.358  12.033
42343W        W 5902  12.269  19.116  12.431
42344W        W 5903   6.713  19.145  11.047
42345W        W 5904   2.246   4.862  13.422
42346W        W 5905  43.853  38.558   2.350
42347W        W 5906  37.433  28.959   2.243
42348W        W 5907  25.475  38.515   1.835
42349W        W 5908  28.477  18.059   3.767
42350W        W 5909  14.716   8.859  11.461
42351W        W 5910  40.881  31.104  11.929
42352W        W 5911  26.191  21.524   1.382
42353W        W 5912   4.293  40.054  10.406
42354W        W 5913  42.437   3.428  10.983
42355W        W 5914   8.873   3.864   3.695
42356W        W 5915  22.230  41.425   1.867
42357W        W 5916   9.649  28.575   3.378
42358W        W 5917  11.149  11.194   5.120
42359W        W 5918  39.532  25.554  10.999
42360W        W 5919  32.100  31.910   1.730
42361W        W 5920  33.458  11.135   0.753
42362W        W 5921   0.475  14.097   1.856
42363W        W 5922  18.606  40.013  11.472
42364W        W 5923  40.025  34.549   2.406
42365W        W 5924   5.768  33.426   2.318
42366W        W 5925   1.447  26.517  14.979
42367W        W 5926  30.599  18.260  13.440
42368W        W 5927  29.027  44.262  11.392
42369W        W 5928   9.876   9.315  11.372
42370W        W 5929   5.281   1.430  11.456
42371W        W 5930   1.777  13.336   0.316
42372W        W 5931  19.191   5.814   4.190
42373W        W 5932  19.115   5.741  12.349
42374W        W 5933  22.730  44.977   1.892
42375W        W 5934   0.362  16.147   2.711
42376W        W 5935  21.153  21.104  12.889
42377W        W 5936  25.156  28.448   0.294
42378W        W 5937  12.210  38.859  14.032
42379W        W 5938   3.813  27.669  14.952
42380W        W 5939  40.364  20.248  12.903
42381W        W 5940  44.834  24.176   2.408
42382W        W 5941  23.051  43.383   4.763
42383W        W 5942  26.989  22.158  13.468
42384W        W 5943  26.500  10.367   2.287
42385W        W 5944  35.896   8.395  12.827
42386W        W 5945  41.883  24.494  10.903
42387W        W 5946  14.135   6.679   2.232
42388W        W 5947  13.630  38.940   2.398
42389W        W 5948  18.738   8.258   4.183
42390W        W 5949  14.635  32.574  10.536
42391W        W 5950  37.337   0.299  11.921
42392W        W 5951  18.721  38.019  12.967
42393W        W 5952  24.078  17.726  11.474
42394W        W 5953  26.069  12.346  13.521
42395W        W 5954  34.605   4.730   1.310
42396W        W 5955  24.689  11.808   0.288
42397W        W 5956  38.365   1.929  14.440
42398W        W 5957  10.198   1.299  13.480
42399W        W 5958  40.401  37.991  13.998
42400W        W 5959   8.384  36.074  12.978
42401W        W 5960  22.505  10.319  10.418
42402W        W 5961   3.240  17.157   3.744
42403W        W 5962  20.609  12.848  10.938
42404W        W 5963  26.688  13.196  14.503
42405W        W 5964  35.379  32.119   3.257
42406W        W 5965  35.566  44.853  11.058
42407W        W 5966   2.778  37.973   0.800
42408W        W 5967  12.826  20.557   3.728
42409W        W 5968   6.909  10.302   4.287
42410W        W 5969  10.376  41.466  13.843
42411W        W 5970  34.922  38.847  12.421
42412W        W 5971  44.306  25.131  11.552
42413W        W 5972   9.741  38.562   0.779
42414W        W 5973  26.590  43.900  12.866
42415W        W 5974  20.684  40.346   2.757
42416W        W 5975  30.453  42.323  12.069
42417W        W 5976  21.547  15.144  10.443
42418W        W 5977  42.027  37.438  14.901
42419W        W 5978  27.492  19.629  11.612
42420W        W 5979  18.767  33.420  10.975
42421W        W 5980  33.069  26.611   1.422
42422W        W 5981  26.173  44.813  14.492
42423W        W 5982   8.270   3.287  12.949
42424W        W 5983  28.944  37.889  12.063
42425W        W 5984   9.259  41.480  11.020
42426W        W 5985  12.157  28.607   2.215
42427W        W 5986  19.736  20.745   0.755
42428W        W 5987  43.505  18.267   4.785
42429W        W 5988   8.319   4.718  10.913
42430W        W 5989   4.422  42.880   3.170
42431W        W 5990  44.369  26.464  10.999
42432W        W 5991  28.580  10.835   4.261
42433W        W 5992  36.962  14.333  12.459
42434W        W 5993   1.426  38.877  11.077
42435W        W 5994  13.280  11.811   2.191
42436W        W 5995  21.532  42.456  14.288
42437W        W 5996  37.892   6.835   1.238
42438W        W 5997  14.253  24.584   1.812
42439W        W 5998  37.366   6.278  12.461
42440W        W 5999  32.622  41.995  13.890
42441W        W 6000  27.664  10.671   0.841
42442W        W 6001  27.180   6.365   4.790
42443W        W 6002  16.225   6.705   4.123
42444W        W 6003  16.091  12.237  11.589
42445W        W 6004   3.721   3.882   1.752
42446W        W 6005  41.850  33.077  13.826
42447W        W 6006  22.599  17.087  14.515
42448W        W 6007  40.428  25.131   0.936
42449W        W 6008  10.860  34.459   3.685
42450W        W 6009  26.992  34.486   3.686
42451W        W 6010   0.438  16.748  12.414
42452W        W 6011  12.827   2.281   3.309
42453W        W 6012  10.244   3.398  11.006
42454W        W 6013  15.636  25.568  10.096
42455W        W 6014  34.941  26.987  10.932
42456W        W 6015  39.508  30.514   4.797
42457W        W 6016  21.148  24.054   0.743
42458W        W 6017   4.776  43.918   2.375
42459W        W 6018  13.808  32.135   1.257
42460W        W 6019  31.035   0.469  14.842
42461W        W 6020  14.179   6.702  14.779
42462W        W 6021  35.562  25.007   0.257
42463W        W 6022  27.177   4.217   3.171
42464W        W 6023  31.435  21.040  11.551
42465W        W 6024  24.992  24.653   0.287
42466W        W 6025  23.509  41.821   1.324
42467W        W 6026  22.746  39.878  14.791
42468W        W 6027  35.602   4.910  12.924
42469W        W 6028   4.205  17.739   3.779
42470W        W 6029  40.876  29.142  12.531
42471W        W 6030  15.595  16.101  13.961
42472W        W 6031   1.760  15.639  13.951
42473W        W 6032  20.529  40.488  10.587
42474W        W 6033   8.698  26.498  13.944
42475W        W 6034  29.628  33.509   4.158
42476W        W 6035  40.313   2.346   4.655
42477W        W 6036  35.091  30.468  11.477
42478W        W 6037  26.500   8.382   4.323
42479W        W 6038  29.012  31.463   3.298
42480W        W 6039  30.114  40.440   1.314
42481W        W 6040  30.604  13.790   0.387
42482W        W 6041  33.420  44.971  12.904
42483W        W 6042  22.569  33.068   4.176
42484W        W 6043  39.329  39.460  13.966
42485W        W 6044  33.072  31.522   1.876
42486W        W 6045  30.090  39.833   2.674
42487W        W 6046   8.334  19.233  10.592
42488W        W 6047  12.206  38.004   3.648
42489W        W 6048  19.627  22.106   0.875
42490W        W 6049  23.158   3.809   1.328
42491W        W 6050  41.967  15.755  11.371
42492W        W 6051  35.412  26.536   2.276
42493W        W 6052  30.083  30.087  12.552
42494W        W 6053  12.726  27.613   2.247
42495W        W 6054  24.714   3.359  14.412
42496W        W 6055   4.437   8.877   2.872
42497W        W 6056   6.722  12.210  14.387
42498W        W 6057  34.607  43.769  11.572
42499W        W 6058  44.942  13.332   3.844
42500W        W 6059  10.233   6.794  11.901
42501W        W 6060  15.619  37.394  14.423
42502W        W 6061   3.252  19.757   2.307
42503W        W 6062  18.197  43.818  13.983
42504W        W 6063   4.362   3.786   2.396
42505W        W 6064  13.108  23.151  11.067
42506W        W 6065  42.884  28.019  14.489
42507W        W 6066   8.235  31.628  13.434
42508W        W 6067  32.902  23.511   0.892
42509W        W 6068  23.160  26.692   3.281
42510W        W 6069  35.923  18.549   4.203
42511W        W 6070   1.367   1.858   2.244
42512W        W 6071  10.743  19.197   3.333
42513W        W 6072  14.700  10.837   1.785
42514W        W 6073   1.283  33.520   2.278
42515W        W 6074  31.521  16.193   1.839
42516W        W 6075  34.002   5.289   1.724
42517W        W 6076  43.004  41.538   0.955
42518W        W 6077  12.270  19.256   0.872
42519W        W 6078   1.425   2.892   0.863
42520W        W 6079  31.464  29.495  13.033
42521W        W 6080   2.894   1.373  12.454
42522W        W 6081  12.182  39.843  11.080
42523W        W 6082  44.846  37.874   3.328
42524W        W 6083  17.724   9.176  11.611
42525W        W 6084   8.282  40.865  12.474
42526W        W 6085  24.975  10.655  10.944
42527W        W 6086   9.251   9.802  14.500
42528W        W 6087  43.883  37.851   0.850
42529W        W 6088  23.597  17.665   1.396
42530W        W 6089  24.134   6.825  12.876
42531W        W 6090  12.744  32.115   0.394
42532W        W 6091  10.653  24.055  13.908
42533W        W 6092  16.286   2.242  14.785
42534W        W 6093   7.788   0.841  13.863
42535W        W 6094  30.097  40.499  13.793
42536W        W 6095  13.189  11.173   0.909
42537W        W 6096   5.307   9.188  11.933
42538W        W 6097  18.271  14.797  14.968
42539W        W 6098  14.622  25.142   0.306
42540W        W 6099  19.158  28.115  12.006
42541W        W 6100  28.544  42.833   4.205
42542W        W 6101  25.050  14.649   3.262
42543W        W 6102   2.859  14.333   0.959
42544W        W 6103   8.391  15.813  13.845
42545W        W 6104   8.832   8.221   4.161
42546W        W 6105   9.828  41.470  10.481
42547W        W 6106  34.985  26.205   4.683
42548W        W 6107  31.499  40.412  11.067
42549W        W 6108  10.376   4.703  12.053
42550W        W 6109  36.429  17.564  11.876
42551W        W 6110  11.253  41.386   4.639
42552W        W 6111  14.207  26.202  11.576
42553W        W 6112  37.367   9.662  14.811
42554W        W 6113   7.235   9.207   0.245
42555W        W 6114  33.537  20.229  12.093
42556W        W 6115   0.330  14.783  12.064
42557W        W 6116  40.430  10.838   4.136
42558W        W 6117   2.227  37.060   0.817
42559W        W 6118  22.731  34.430   1.838
42560W        W 6119  27.188  38.006   3.290
42561W        W 6120  22.565   2.797   4.233
42562W        W 6121  40.937   2.297  11.971
42563W        W 6122  42.984   8.823   4.656
42564W        W 6123   6.353  27.105  11.985
42565W        W 6124  25.649  21.548   2.214
42566W        W 6125  30.099  11.629   3.633
42567W        W 6126  34.499  12.850  10.024
42568W        W 6127  12.251  11.658  14.356
42569W        W 6128  42.404  44.350   1.356
42570W        W 6129  24.129  28.493  14.351
42571W        W 6130  39.549  15.177  14.399
42572W        W 6131  29.658  26.005   2.667
42573W        W 6132   5.888  10.199  10.483
42574W        W 6133  15.685  16.201  11.106
42575W        W 6134  13.733  27.143   9.946
42576W        W 6135  27.667  37.539  13.013
42577W        W 6136  26.008  10.875   2.286
42578W        W 6137  31.084  14.131  12.403
42579W        W 6138  14.608  37.854  10.928
42580W        W 6139   1.351  23.087  13.344
42581W        W 6140  42.418  14.215   4.223
42582W        W 6141  19.248  34.994  11.055
42583W        W 6142  34.086   7.735  14.411
42584W        W 6143  12.704  14.690   4.132
42585W        W 6144  33.607  21.099  12.463
42586W        W 6145  29.058  24.598  13.508
42587W        W 6146   4.933   2.310  12.400
42588W        W 6147   9.180   7.901  12.414
42589W        W 6148  34.469  21.216  12.570
42590W        W 6149  32.995   1.462  12.978
42591W        W 6150  43.013  11.734   1.695
42592W        W 6151  32.557  29.090   1.867
42593W        W 6152  40.521  39.826   0.275
42594W        W 6153  25.142   7.199  12.434
42595W        W 6154  25.497  17.571   1.781
42596W        W 6155  39.315  29.922  14.389
42597W        W 6156  23.107  26.620  14.433
42598W        W 6157  25.649   3.782   3.320
42599W        W 6158  13.142  37.488   2.748
42600W        W 6159  12.838   1.794  12.339
42601W        W 6160  12.631  12.784  10.425
42602W        W 6161  23.081   8.662   2.212
42603W        W 6162  16.280  33.983   2.187
42604W        W 6163   8.867   5.263   3.335
42605W        W 6164  42.017  41.803   3.362
42606W        W 6165  20.135  34.004   4.158
42607W        W 6166  31.627  24.480  12.915
42608W        W 6167  39.384  24.137  12.374
42609W        W 6168  44.931  17.725   3.846
42610W        W 6169   7.229   1.373   4.172
42611W        W 6170  43.396  16.164  13.324
42612W        W 6171  13.278  37.453   3.331
42613W        W 6172  14.760  25.709   4.814
42614W        W 6173   9.688  44.289   4.602
42615W        W 6174  34.909  15.637  12.025
42616W        W 6175  19.205  18.589  14.806
42617W        W 6176  16.614  19.677  14.760
42618W        W 6177  25.148  41.877  10.624
42619W        W 6178  18.157  44.919   4.330
42620W        W 6179  30.442  16.630  14.013
42621W        W 6180   6.782  16.773  13.001
42622W        W 6181  27.484  36.490  12.942
42623W        W 6182  30.598  22.621   4.293
42624W        W 6183  35.562   9.680  11.124
42625W        W 6184   8.826   9.316  10.990
42626W        W 6185  26.992  35.075   3.293
42627W        W 6186  11.866   5.777  13.354
42628W        W 6187  37.967  25.024   1.845
42629W        W 6188  15.627   6.919  14.348
42630W        W 6189   4.729  17.684   2.827
42631W        W 6190  15.254  29.560   3.210
42632W        W 6191   9.720  30.079   0.455
42633W        W 6192  14.162  25.524  14.806
42634W        W 6193  28.176  25.579  13.514
42635W        W 6194  39.938  24.616   0.950
42636W        W 6195   4.371  29.659   4.776
42637W        W 6196  20.046  38.341   0.918
42638W        W 6197  38.051  37.452   2.677
42639W        W 6198   0.301   5.892  12.399
42640W        W 6199  22.655   5.743   0.917
42641W        W 6200  40.471  40.051  10.929
42642W        W 6201  18.160  11.350  11.533
42643W        W 6202  21.220  25.009  14.333
42644W        W 6203  13.823  19.780  11.509
42645W        W 6204  28.027  44.418   2.317
42646W        W 6205   4.400   6.712   0.880
42647W        W 6206  28.942   0.329   0.884
42648W        W 6207  36.433  33.999   0.819
42649W        W 6208  31.124  35.519  10.552
42650W        W 6209  20.760  18.217  14.017
42651W        W 6210  32.898  21.611   0.740
42652W        W 6211  23.102  43.884  11.938
42653W        W 6212  22.223  40.840   0.407
42654W        W 6213  36.470  26.171  11.896
42655W        W 6214   7.218  41.455  13.801
42656W        W 6215   9.287  28.058  13.526
42657W        W 6216  15.669   2.350  11.441
42658W        W 6217  11.624   8.405   9.500
42659W        W 6218  20.089  37.484   4.186
42660W        W 6219  12.774   3.235  14.966
42661W        W 6220  15.149   4.739  14.915
42662W        W 6221  28.097  27.592  14.766
42663W        W 6222  44.805  34.406   0.790
42664W        W 6223  18.292  25.057  14.790
42665W        W 6224  30.960  40.428  14.361
42666W        W 6225  11.646  15.767   0.829
42667W        W 6226  10.244  30.654  13.052
42668W        W 6227   0.266  30.106  13.444
42669W        W 6228  18.561  24.055  10.563
42670W        W 6229  36.538  25.711   4.785
42671W        W 6230   2.816   1.878   0.940
42672W        W 6231   3.774   8.671   5.255
42673W        W 6232  17.727  15.263   3.737
42674W        W 6233  23.540   3.935  12.067
42675W        W 6234  31.122  39.943  13.537
42676W        W 6235  25.552  15.782  14.304
42677W        W 6236  33.917  10.706   0.382
42678W        W 6237   0.362   1.974  11.124
42679W        W 6238   9.874  11.302  11.970
42680W        W 6239  42.965  35.053  14.806
42681W        W 6240  26.080  30.097   2.751
42682W        W 6241  20.191  10.302  12.950
42683W        W 6242  33.476   5.838   4.339
42684W        W 6243  37.054  16.150  12.883
42685W        W 6244  12.259   6.195   0.819
42686W        W 6245   1.377  16.811   1.826
42687W        W 6246  37.955  42.527   4.149
42688W        W 6247  39.541  19.142  11.572
42689W        W 6248   4.337  23.500  12.076
42690W        W 6249  35.563  21.589   0.822
42691W        W 6250  16.230  36.901   4.251
42692W        W 6251  29.508  24.672  13.988
42693W        W 6252   5.387   3.898   4.725
42694W        W 6253  36.475  19.166  11.929
42695W        W 6254   4.879  18.742   0.312
42696W        W 6255  13.688   8.679  13.538
42697W        W 6256  20.609  19.244   2.322
42698W        W 6257   9.307  35.006   3.374
42699W        W 6258  11.768   9.733   2.279
42700W        W 6259  11.208  21.096   5.216
42701W        W 6260  35.909   8.851  14.403
42702W        W 6261   2.247   4.912   0.392
42703W        W 6262  17.671  36.847   3.257
42704W        W 6263  18.290  10.785   2.901
42705W        W 6264  17.285  43.930  10.622
42706W        W 6265  38.970  38.430  12.058
42707W        W 6266  27.534  19.627  13.796
42708W        W 6267  37.490  40.330   1.231
42709W        W 6268  33.891   7.314  11.985
42710W        W 6269   3.736   2.720  12.982
42711W        W 6270  28.502  38.045   0.908
42712W        W 6271  14.301  31.920  11.465
42713W        W 6272  31.901   6.919   2.304
42714W        W 6273  44.804  28.593   4.790
42715W        W 6274  29.030  33.607  11.906
42716W        W 6275  21.198  38.431   2.870
42717W        W 6276  43.432  34.615  13.429
42718W        W 6277  26.995   7.177   1.369
42719W        W 6278  37.901   1.337   1.814
42720W        W 6279  17.114  39.469  10.990
42721W        W 6280  43.928  42.367   1.817
42722W        W 6281  22.042   2.737  14.898
42723W        W 6282  43.336  26.993  14.410
42724W        W 6283   6.885   3.285   2.286
42725W        W 6284  31.623  42.349   4.719
42726W        W 6285  44.354  11.275   1.305
42727W        W 6286  22.734  37.844  12.044
42728W        W 6287  19.056   2.845   4.343
42729W        W 6288  15.101  34.095   2.884
42730W        W 6289  29.459   2.442  11.920
42731W        W 6290  34.469  27.142  10.489
42732W        W 6291  28.003  36.571   3.764
42733W        W 6292  27.476  38.037  10.942
42734W        W 6293   7.329  12.747  14.967
42735W        W 6294  37.497  17.777   3.150
42736W        W 6295  34.119   6.841  12.864
42737W        W 6296  32.073  41.523   2.287
42738W        W 6297  15.254  41.410   3.329
42739W        W 6298  14.742  36.079  12.517
42740W        W 6299   5.270  28.562  12.915
42741W        W 6300   4.863  39.959  12.033
42742W        W 6301  11.778  38.335  11.378
42743W        W 6302   0.910  34.028  12.008
42744W        W 6303  37.830   6.231   1.318
42745W        W 6304  20.591  38.826  11.453
42746W        W 6305  25.089  11.238   0.786
42747W        W 6306  43.897  32.584   1.792
42748W        W 6307  25.985   2.828  12.455
42749W        W 6308  42.391   7.413   2.274
42750W        W 6309  26.144  39.995  14.809
42751W        W 6310  29.661  40.818   0.438
42752W        W 6311  13.255  44.889   2.768
42753W        W 6312   8.714  21.708   2.814
42754W        W 6313  10.220  36.431  13.502
42755W        W 6314  34.111  26.987   3.850
42756W        W 6315  26.564  19.575  13.883
42757W        W 6316  20.621  23.040   2.773
42758W        W 6317  29.100  37.432  13.825
42759W        W 6318  23.998  40.831   3.280
42760W        W 6319   1.261  12.677  10.514
42761W        W 6320  17.647   8.326   4.745
42762W        W 6321  42.402   3.215  13.963
42763W        W 6322   0.327   3.387   0.437
42764W        W 6323  19.259  31.045   3.848
42765W        W 6324  21.066  26.003   4.331
42766W        W 6325  21.257   2.793   3.728
42767W        W 6326  15.650  42.981   3.690
42768W        W 6327   6.773   2.935  14.784
42769W        W 6328  40.507  34.022   4.339
42770W        W 6329  13.295  42.793   1.801
42771W        W 6330  15.698  11.329   0.421
42772W        W 6331  30.085  19.766   3.744
42773W        W 6332  28.930  22.070  10.475
42774W        W 6333  37.394  36.580   1.890
42775W        W 6334  11.356  26.670  13.474
42776W        W 6335  31.450  23.217   1.833
42777W        W 6336  14.632   2.946   4.621
42778W        W 6337  13.766  21.127   3.370
42779W        W 6338  27.040  25.642   5.185
42780W        W 6339   1.353   2.722   1.831
42781W        W 6340  25.017  24.191   4.226
42782W        W 6341  18.690  19.707   3.784
42783W        W 6342   3.407  39.485  10.547
42784W        W 6343  25.540   4.403  14.354
42785W        W 6344  42.903   7.889   1.706
42786W        W 6345   3.323  13.153   3.750
42787W        W 6346  41.943   6.357   0.371
42788W        W 6347  23.624   0.267  13.058
42789W        W 6348  36.565   0.848  10.445
42790W        W 6349  21.202  29.586   4.338
42791W        W 6350  42.957  30.944  13.516
42792W        W 6351  26.013  32.536  11.420
42793W        W 6352  27.043  19.633   2.700
42794W        W 6353  38.007  27.561   4.130
42795W        W 6354  19.103  41.438   1.835
42796W        W 6355  39.408  17.763   3.385
42797W        W 6356  43.869  11.353   0.925
42798W        W 6357  31.428  42.320  11.023
42799W        W 6358  38.368  36.447  13.020
42800W        W 6359  20.565  32.421  12.951
42801W        W 6360  36.887  33.061  13.471
42802W        W 6361  10.234   4.888   1.355
42803W        W 6362  31.999  36.541   5.169
42804W        W 6363  22.167  36.031  14.010
42805W        W 6364  40.533  25.984  11.869
42806W        W 6365  18.569  31.086   4.180
42807W        W 6366  33.394   5.331   0.967
42808W        W 6367  29.499  19.059   1.325
42809W        W 6368  11.190   8.265   5.607
42810W        W 6369  19.730   2.839  10.907
42811W        W 6370   6.400  19.241   3.204
42812W        W 6371   3.243  30.981  11.556
42813W        W 6372  40.991  15.737  11.528
42814W        W 6373  43.797  29.131   1.903
42815W        W 6374  40.543  26.692   1.694
42816W        W 6375  30.014  30.476  13.372
42817W        W 6376  36.987   8.868   0.784
42818W        W 6377  14.666  42.366  13.540
42819W        W 6378  32.958  40.494  12.487
42820W        W 6379   8.836  17.303  11.894
42821W        W 6380  34.387  25.158   1.286
42822W        W 6381  31.046  13.194   0.732
42823W        W 6382  30.575  35.030  12.829
42824W        W 6383   5.812  28.477   0.267
42825W        W 6384  18.643  10.636   1.265
42826W        W 6385  11.179  35.431   4.698
42827W        W 6386  22.545  20.681  13.988
42828W        W 6387  19.055  28.501   4.131
42829W        W 6388  29.999  11.198  10.432
42830W        W 6389  39.422  35.960  11.054
42831W        W 6390   8.324  11.718  14.412
42832W        W 6391  37.981  18.272  13.355
42833W        W 6392  19.734  25.007   3.719
42834W        W 6393  17.229  41.873   0.356
42835W        W 6394   9.385  34.099  13.017
42836W        W 6395  24.037   2.870   4.756
42837W        W 6396  16.700  42.440   1.731
42838W        W 6397  32.470  38.559  13.353
42839W        W 6398  19.095  32.055  10.421
42840W        W 6399   6.735  30.539   3.330
42841W        W 6400  43.876   7.743   4.597
42842W        W 6401  33.494  25.022  13.826
42843W        W 6402  33.516  39.015   0.820
42844W        W 6403  27.010  36.004  14.349
42845W        W 6404   9.238   6.813  14.390
42846W        W 6405  15.666  33.510  12.433
42847W        W 6406  13.629   6.303   0.431
42848W        W 6407   0.901   7.216   2.676
42849W        W 6408  17.300  36.982   0.914
42850W        W 6409  17.651  42.334  11.398
42851W        W 6410  37.339  43.908  10.905
42852W        W 6411  44.425  38.538  13.013
42853W        W 6412  17.761  44.262  14.342
42854W        W 6413  29.935  36.061   2.791
42855W        W 6414  12.177  39.943   1.732
42856W        W 6415  16.601   2.935  11.470
42857W        W 6416  42.365  11.281  10.993
42858W        W 6417  27.153  28.047   4.700
42859W        W 6418  34.042  20.186  10.482
42860W        W 6419  10.692  30.163   3.861
42861W        W 6420  19.205  24.499   4.187
42862W        W 6421   3.367  44.325  12.360
42863W        W 6422  42.496  36.033  12.568
42864W        W 6423  39.407  18.571  11.400
42865W        W 6424  16.247  26.695  14.991
42866W        W 6425  34.596  27.514  14.515
42867W        W 6426  40.909   5.785   2.765
42868W        W 6427  28.048  14.744  10.497
42869W        W 6428  38.343  24.108   4.233
42870W        W 6429  38.957  35.387  14.921
42871W        W 6430  24.690  26.207  10.549
42872W        W 6431  39.989  15.602  13.924
42873W        W 6432  44.442  24.052   3.691
42874W        W 6433  24.622   8.791   3.221
42875W        W 6434  32.416   9.156   1.835
42876W        W 6435  41.430   9.855  11.073
42877W        W 6436  31.126  43.340   1.793
42878W        W 6437  10.727  43.346  14.858
42879W        W 6438  19.768  35.602   1.324
42880W        W 6439  40.327  40.034   1.786
42881W        W 6440  19.570  29.620  13.838
42882W        W 6441   9.711  13.322  12.081
42883W        W 6442   0.358  26.638   3.807
42884W        W 6443  39.861  16.231   1.904
42885W        W 6444  38.484  31.102  11.449
42886W        W 6445  37.881  21.705   1.895
42887W        W 6446  11.700   6.402  10.006
42888W        W 6447  31.043  10.700   4.689
42889W        W 6448  28.006   9.764   5.084
42890W        W 6449  18.739  28.594   2.298
42891W        W 6450  32.986  18.154   3.202
42892W        W 6451  20.654   0.826   1.228
42893W        W 6452  14.692  39.862   5.288
42894W        W 6453  43.789  22.606  14.801
42895W        W 6454  15.816  19.223   1.284
42896W        W 6455   8.774  10.277  12.003
42897W        W 6456  17.775  43.416   2.183
42898W        W 6457   2.342  15.276   0.366
42899W        W 6458  38.013  36.078  11.606
42900W        W 6459   8.665  42.006   2.840
42901W        W 6460   2.850  27.010   0.444
42902W        W 6461  10.801   1.307  13.393
42903W        W 6462  41.458  31.510  13.510
42904W        W 6463  17.731  17.757  11.466
42905W        W 6464  10.867  28.464   1.444
42906W        W 6465  15.699  44.431  12.454
42907W        W 6466   4.213  44.817  13.955
42908W        W 6467  27.546   7.276   0.783
42909W        W 6468   0.288   5.375   0.895
42910W        W 6469   1.326  10.757   1.239
42911W        W 6470  27.982  35.076   3.312
42912W        W 6471  19.614  23.123  12.415
42913W        W 6472  33.036  22.057   0.954
42914W        W 6473  44.771  11.296   4.606
42915W        W 6474  40.492  21.114   4.665
42916W        W 6475   1.976  10.835  11.404
42917W        W 6476  30.632  21.614   0.281
42918W        W 6477  37.408  41.027  12.458
42919W        W 6478  21.194  26.512   3.304
42920W        W 6479  21.702  37.345   1.782
42921W        W 6480  26.093  29.468  13.539
42922W        W 6481   8.723   4.268  12.425
42923W        W 6482  27.575   3.854  11.893
42924W        W 6483  21.717  35.985   3.181
42925W        W 6484  43.285   8.287  14.027
42926W        W 6485  19.232  13.161   2.362
42927W        W 6486  28.066  29.481   1.416
42928W        W 6487   2.434   3.724  10.515
42929W        W 6488  26.623  31.974  14.966
42930W        W 6489  27.691  38.337  12.052
42931W        W 6490  35.923  35.456   0.911
42932W        W 6491  28.582  30.439   0.473
42933W        W 6492   3.434  27.667  12.063
42934W        W 6493  27.134   5.439  11.916
42935W        W 6494  28.019  24.060   0.331
42936W        W 6495  34.904  10.755  13.427
42937W        W 6496  25.136  34.584  14.453
42938W        W 6497  44.980  42.362   3.211
42939W        W 6498  13.791  11.621  14.326
42940W        W 6499  30.468  28.973   4.132
42941W        W 6500  20.148  17.715   0.830
42942W        W 6501  43.809   8.670  12.571
42943W        W 6502  31.042  10.269   3.814
42944W        W 6503   4.845  20.227  14.488
42945W        W 6504   1.769  13.666   4.827
42946W        W 6505  25.072  13.123   0.288
42947W        W 6506  41.515  40.322  10.486
42948W        W 6507  23.736  41.438  13.491
42949W        W 6508  41.316  41.828  14.905
42950W        W 6509  10.775  21.755   1.701
42951W        W 6510  16.610  16.590   1.368
42952W        W 6511  33.928  31.497  12.050
42953W        W 6512   2.439  20.245   4.690
42954W        W 6513  14.311  35.905   2.728
42955W        W 6514  40.824  34.118  13.055
42956W        W 6515  28.138  13.195  10.410
42957W        W 6516  13.707  12.330  10.572
42958W        W 6517  23.557   6.401  14.800
42959W        W 6518  11.755  43.801  10.546
42960W        W 6519  24.227  31.440  13.503
42961W        W 6520  13.279   2.865   1.926
42962W        W 6521  16.295  23.539   1.303
42963W        W 6522   3.425  29.497  12.475
42964W        W 6523  28.469   1.912   5.217
42965W        W 6524   5.405  24.720   1.905
42966W        W 6525   2.470  15.140  13.864
42967W        W 6526  29.607   4.830   1.733
42968W        W 6527  34.039  11.281  13.490
42969W        W 6528  44.299  32.988  12.542
42970W        W 6529  42.379  16.217  12.079
42971W        W 6530   7.802  38.891   3.658
42972W        W 6531   4.246   2.941  12.417
42973W        W 6532  18.183  18.220   2.185
42974W        W 6533  18.271   9.272  13.393
42975W        W 6534  10.738  36.018  12.392
42976W        W 6535  12.329  36.059  13.019
42977W        W 6536   7.307   2.316   4.339
42978W        W 6537  14.161  21.123  12.403
42979W        W 6538  38.896  25.978  13.901
42980W        W 6539  30.489  35.528   2.668
42981W        W 6540  27.043   2.284   3.213
42982W        W 6541  42.472  42.025   3.786
42983W        W 6542  21.206  18.639  10.582
42984W        W 6543  40.538   3.227  12.506
42985W        W 6544  29.137  11.319  11.608
42986W        W 6545  26.105   3.431  12.359
42987W        W 6546  13.348  34.873  12.877
42988W        W 6547  36.469   2.942   3.737
42989W        W 6548  15.093  30.438  12.891
42990W        W 6549  16.645  10.309   0.396
42991W        W 6550  24.478  26.123  14.329
42992W        W 6551  20.653  20.102   4.189
42993W        W 6552  40.839   8.684   2.802
42994W        W 6553  29.506  19.761  14.441
42995W        W 6554  31.904  33.015  10.432
42996W        W 6555  19.247   7.235  10.576
42997W        W 6556  26.153   6.897   4.624
42998W        W 6557  26.624  32.132  11.530
42999W        W 6558   5.385  25.475   4.730
43000W        W 6559  14.708  18.590   0.320
43001W        W 6560  35.056  24.532  13.953
43002W        W 6561  31.492  16.795   2.337
43003W        W 6562   5.810  21.678   1.812
43004W        W 6563  13.302  11.692   0.796
43005W        W 6564  12.687   5.759   4.253
43006W        W 6565  36.524   5.328   2.674
43007W        W 6566  32.616  33.451   4.286
43008W        W 6567  14.690  16.269   2.366
43009W        W 6568  34.559  13.677   2.795
43010W        W 6569  12.134  30.009  12.434
43011W        W 6570  12.218  15.149  10.017
43012W        W 6571  15.298   8.852  12.846
43013W        W 6572  30.057  33.891   4.288
43014W        W 6573  34.400  32.395  11.430
43015W        W 6574  32.618  17.267   4.151
43016W        W 6575  39.035  42.815   2.775
43017W        W 6576  24.554   8.224  14.006
43018W        W 6577   7.897  20.689   0.306
43019W        W 6578  40.440  36.881  11.123
43020W        W 6579   0.902  21.140   5.145
43021W        W 6580  14.326  34.593   4.751
43022W        W 6581  21.165  27.986   0.332
43023W        W 6582   6.306  41.385  14.372
43024W        W 6583   8.788  10.305   3.689
43025W        W 6584  22.507  11.669   3.344
43026W        W 6585   6.739  10.650   2.829
43027W        W 6586  27.160   8.374  13.485
43028W        W 6587  25.004  42.852   2.303
43029W        W 6588  33.957  30.471   3.853
43030W        W 6589   8.899  29.172  13.796
43031W        W 6590  36.930  13.248  14.389
43032W        W 6591   7.706  10.697  14.969
43033W        W 6592  30.621   4.899  12.367
43034W        W 6593  12.136  25.040   4.793
43035W        W 6594  34.883   8.361   3.769
43036W        W 6595  38.436   9.199   2.741
43037W        W 6596   2.456  38.895   2.274
43038W        W 6597  23.047   9.668   1.220
43039W        W 6598  19.665  41.490   2.721
43040W        W 6599  23.510  34.028  13.937
43041W        W 6600  37.581   2.805  11.605
43042W        W 6601  12.349   7.365   2.202
43043W        W 6602  34.390  39.016  11.948
43044W        W 6603  32.056  31.420   0.414
43045W        W 6604  28.114  18.160   3.258
43046W        W 6605   4.805  31.032   3.159
43047W        W 6606  13.689  33.130   0.278
43048W        W 6607  21.234  41.495  11.429
43049W        W 6608   0.478   6.718  12.979
43050W        W 6609   1.857  11.834  13.963
43051W        W 6610  10.769  24.533  12.433
43052W        W 6611  21.156  16.632   0.278
43053W        W 6612  18.724  31.125   2.361
43054W        W 6613   0.276   2.811  11.866
43055W        W 6614  32.553  11.844   4.216
43056W        W 6615   5.227  11.647  11.993
43057W        W 6616  29.072  12.301  12.558
43058W        W 6617  15.615  19.054  11.105
43059W        W 6618  27.068  19.159   2.329
43060W        W 6619  17.283   9.396   1.380
43061W        W 6620  34.386  42.483   0.950
43062W        W 6621   8.167  16.706  11.112
43063W        W 6622  34.906   7.282  14.992
43064W        W 6623  17.581  34.515   1.710
43065W        W 6624  12.253  37.518   5.318
43066W        W 6625  23.985  15.611   0.272
43067W        W 6626  23.104  15.188  13.993
43068W        W 6627  25.678  16.754  14.405
43069W        W 6628  26.585  25.585  14.323
43070W        W 6629   3.932  35.597  10.424
43071W        W 6630  30.052  19.537  11.879
43072W        W 6631  10.152  40.879   3.249
43073W        W 6632  43.902  21.050  10.645
43074W        W 6633  37.868  43.944  13.478
43075W        W 6634   0.938  33.067  11.482
43076W        W 6635  18.574  43.983  11.577
43077W        W 6636  32.557  11.213  13.518
43078W        W 6637   3.317  14.827  12.473
43079W        W 6638   5.710  21.207  13.343
43080W        W 6639  16.124  31.088  13.366
43081W        W 6640  30.088  44.804   1.329
43082W        W 6641  22.722   9.882   1.315
43083W        W 6642  24.575  18.711   0.379
43084W        W 6643  16.110  15.639  10.904
43085W        W 6644  43.957  26.628   4.644
43086W        W 6645  25.671  20.703  14.854
43087W        W 6646  37.520  20.261  12.883
43088W        W 6647  14.624   8.856  12.496
43089W        W 6648   0.430  23.732  14.294
43090W        W 6649  42.322  27.141  10.440
43091W        W 6650  12.189  24.147   1.783
43092W        W 6651  34.047  31.050  11.980
43093W        W 6652  13.651  37.855  10.475
43094W        W 6653  24.219  28.031   2.710
43095W        W 6654  27.622   2.371  11.532
43096W        W 6655  25.657  29.579   0.839
43097W        W 6656   5.765  42.452  11.004
43098W        W 6657  34.396  12.641  10.957
43099W        W 6658  30.137  18.287   2.183
43100W        W 6659  38.462   3.336   4.792
43101W        W 6660   3.783  39.809   2.675
43102W        W 6661  36.575  17.726   4.321
43103W        W 6662  23.035  24.603  12.891
43104W        W 6663  25.025  43.410  12.843
43105W        W 6664  19.729  14.672   2.842
43106W        W 6665  15.805   9.751   4.227
43107W        W 6666  10.233  43.513   4.158
43108W        W 6667  25.096   5.403  12.045
43109W        W 6668  30.113   5.691  13.509
43110W        W 6669  25.547  16.105   4.821
43111W        W 6670  44.380  16.788   1.345
43112W        W 6671  31.991  29.086  12.070
43113W        W 6672   7.287  15.288   2.715
43114W        W 6673  43.912  13.182  11.955
43115W        W 6674  25.711  15.160   4.612
43116W        W 6675  34.567   4.241   1.821
43117W        W 6676  12.641   6.193  14.449
43118W        W 6677  19.729  29.062  11.888
43119W        W 6678  40.317  13.263  12.406
43120W        W 6679  15.671  19.104   3.281
43121W        W 6680  14.711  35.414   3.164
43122W        W 6681  34.572  13.633   1.210
43123W        W 6682  28.637  14.759  14.011
43124W        W 6683  10.361  33.399  13.437
43125W        W 6684  11.324  29.055   2.744
43126W        W 6685  25.686  41.503   3.266
43127W        W 6686  43.353  23.490  12.921
43128W        W 6687   7.197  37.488   3.272
43129W        W 6688  26.573  41.533  13.319
43130W        W 6689  21.212  16.619   1.235
43131W        W 6690  14.293  18.658   1.311
43132W        W 6691  41.396  29.605  13.914
43133W        W 6692  38.329  25.586  13.818
43134W        W 6693  12.235  36.393   1.380
43135W        W 6694  33.119  27.010  11.449
43136W        W 6695   6.426   8.757   3.323
43137W        W 6696  38.956   2.388   4.703
43138W        W 6697  20.699  36.391   3.212
43139W        W 6698  40.810  42.809  14.978
43140W        W 6699  35.950   4.943  13.857
43141W        W 6700  26.083  42.430  14.820
43142W        W 6701  36.857   6.824  13.815
43143W        W 6702   1.861  25.110   0.866
43144W        W 6703  41.862  32.485  11.994
43145W        W 6704  19.562  25.015   4.681
43146W        W 6705  24.167   7.213   4.149
43147W        W 6706   6.292  27.015   4.348
43148W        W 6707  43.935   4.334   2.391
43149W        W 6708  40.843  32.996   0.762
43150W        W 6709  31.147  29.025  13.433
43151W        W 6710  43.985  32.949   1.400
43152W        W 6711  19.111  16.301  11.921
43153W        W 6712  25.987   1.977   3.299
43154W        W 6713  23.684   6.807   4.184
43155W        W 6714  30.018  36.523   4.622
43156W        W 6715  42.833  14.639  11.580
43157W        W 6716   3.275   9.724  14.391
43158W        W 6717  37.579  20.229   2.800
43159W        W 6718  19.650  13.662   2.700
43160W        W 6719  30.626  27.664   0.962
43161W        W 6720  38.485  36.897   0.304
43162W        W 6721  10.866  10.297   2.789
43163W        W 6722  37.425   0.272  11.372
43164W        W 6723  17.791  40.932  12.423
43165W        W 6724  33.490  43.018   4.679
43166W        W 6725  35.444   3.419   4.644
43167W        W 6726  20.738  10.340  11.565
43168W        W 6727  16.203  44.324   2.224
43169W        W 6728  38.457  38.066  11.095
43170W        W 6729  31.416  15.223  14.409
43171W        W 6730  14.812  38.848   3.252
43172W        W 6731  42.968   5.760  11.604
43173W        W 6732  21.514   5.711  13.794
43174W        W 6733  21.229  26.964  13.805
43175W        W 6734   1.806  43.379  14.516
43176W        W 6735  22.608  21.716   1.399
43177W        W 6736  44.822   7.742   0.468
43178W        W 6737  16.637  20.268  10.453
43179W        W 6738  19.276   8.814  14.277
43180W        W 6739  27.185  34.093   2.350
43181W        W 6740   7.671  19.575  13.404
43182W        W 6741  25.033  42.993  11.554
43183W        W 6742   6.400  44.300   1.435
43184W        W 6743  15.239  26.954   2.873
43185W        W 6744   6.864  14.244   1.719
43186W        W 6745  43.792   9.737   0.466
43187W        W 6746  30.594  13.167   1.926
43188W        W 6747  29.615  20.044   2.797
43189W        W 6748  15.313  20.215   1.833
43190W        W 6749   9.319   2.447  14.028
43191W        W 6750  40.995  44.396   3.704
43192W        W 6751  20.112  14.803  10.603
43193W        W 6752  44.927  16.805  10.936
43194W        W 6753   6.304  40.988   4.263
43195W        W 6754  24.163  32.509  14.845
43196W        W 6755  20.097  33.468  10.413
43197W        W 6756  10.685  38.458  13.399
43198W        W 6757   1.335  31.911  10.478
43199W        W 6758  42.874   7.379  13.502
43200W        W 6759  21.538   8.404  11.010
43201W        W 6760  24.049  20.673  12.024
43202W        W 6761  38.833  38.847   2.290
43203W        W 6762   6.874  21.260  10.600
43204W        W 6763  42.385   1.794   0.882
43205W        W 6764  42.841  43.830  11.035
43206W        W 6765  26.648  25.200  11.411
43207W        W 6766  35.503  29.920   0.953
43208W        W 6767  15.814  14.748  11.115
43209W        W 6768   4.842  29.068  11.595
43210W        W 6769  16.093  33.551   1.336
43211W        W 6770   5.233  26.089  14.914
43212W        W 6771  33.978  31.548  11.453
43213W        W 6772  31.975  18.600   4.827
43214W        W 6773   6.780  24.997  13.041
43215W        W 6774  24.156  34.005  14.009
43216W        W 6775  33.968  37.987  12.424
43217W        W 6776   1.882  16.088  11.375
43218W        W 6777  31.090  19.283   0.817
43219W        W 6778  10.687  15.686   4.313
43220W        W 6779  13.243  36.088  11.902
43221W        W 6780   2.262  31.544  10.889
43222W        W 6781  18.662  32.135   1.837
43223W        W 6782  16.776  40.361   2.736
43224W        W 6783  15.127   3.257  11.099
43225W        W 6784  11.806   4.340  11.403
43226W        W 6785   5.340  26.998  13.828
43227W        W 6786   1.350  29.940   2.292
43228W        W 6787  23.698  34.988  14.002
43229W        W 6788   5.363  35.094   3.286
43230W        W 6789  32.082  16.583   2.216
43231W        W 6790  40.868  17.098  13.467
43232W        W 6791  13.126  14.669  14.320
43233W        W 6792  44.004  38.913  11.046
43234W        W 6793  15.597  39.983   2.790
43235W        W 6794  28.098  16.628   0.357
43236W        W 6795   9.832   3.241  13.978
43237W        W 6796   5.739   5.348  10.465
43238W        W 6797  17.272  23.506  10.889
43239W        W 6798  23.571  15.238  11.572
43240W        W 6799   7.853  31.425   4.792
43241W        W 6800  38.528  42.323  14.899
43242W        W 6801  11.187   1.375  12.353
43243W        W 6802  44.784  20.719   2.263
43244W        W 6803  28.085   5.813   3.351
43245W        W 6804  35.450  32.591   3.714
43246W        W 6805  35.511  36.478  11.406
43247W        W 6806  29.964   4.861  12.551
43248W        W 6807  38.903   1.280   4.181
43249W        W 6808  32.019  22.244   3.297
43250W        W 6809  30.937   8.775  10.528
43251W        W 6810   5.291  18.708  12.993
43252W        W 6811   0.334  10.815   2.363
43253W        W 6812  17.675  38.501  11.551
43254W        W 6813  25.679  23.199   1.294
43255W        W 6814  36.034   5.335   2.204
43256W        W 6815  33.900  44.338   3.366
43257W        W 6816   3.903  22.188  12.339
43258W        W 6817  18.721  10.834  11.090
43259W        W 6818  16.619  20.726  14.925
43260W        W 6819  35.107  12.213  10.429
43261W        W 6820  11.233  43.863   2.306
43262W        W 6821  30.523  44.386   1.333
43263W        W 6822  15.088  33.408   0.871
43264W        W 6823  27.655  14.137   0.839
43265W        W 6824  30.453   0.813  12.860
43266W        W 6825  26.581  39.896  10.435
43267W        W 6826  17.113  44.864  13.002
43268W        W 6827  42.389  19.570  14.856
43269W        W 6828  42.288  14.825  14.402
43270W        W 6829  17.766  10.727  14.936
43271W        W 6830  14.106  22.013  14.369
43272W        W 6831  22.718   2.867   2.781
43273W        W 6832   4.739  31.505  10.941
43274W        W 6833   5.396  19.713  10.994
43275W        W 6834  14.243  24.560  12.373
43276W        W 6835  15.720   9.214   3.832
43277W        W 6836  33.522   8.203  10.943
43278W        W 6837  44.504   6.326  13.834
43279W        W 6838  16.699  29.014  14.841
43280W        W 6839  18.058  10.799  12.835
43281W        W 6840  14.234  41.365  12.079
43282W        W 6841  12.232  27.068   1.814
43283W        W 6842  14.169   7.279  13.530
43284W        W 6843  12.199  31.952  10.426
43285W        W 6844  33.031  33.959  14.844
43286W        W 6845  13.843  30.491  12.096
43287W        W 6846  16.220  19.191   0.377
43288W        W 6847  27.017  44.987   1.395
43289W        W 6848  18.755   6.822  10.890
43290W        W 6849  28.113  21.163  12.367
43291W        W 6850  41.405  37.055  11.115
43292W        W 6851   2.782  42.503  14.385
43293W        W 6852   0.867  29.458  14.309
43294W        W 6853  43.498  35.095  11.499
43295W        W 6854   3.351  23.212  12.462
43296W        W 6855  35.386  41.481  13.993
43297W        W 6856  40.040   5.886  11.511
43298W        W 6857   0.450   4.710  13.894
43299W        W 6858  26.666  23.141   1.365
43300W        W 6859  12.159  31.406   1.706
43301W        W 6860   0.918  16.589   4.150
43302W        W 6861  27.942  17.762   0.833
43303W        W 6862  28.072  23.717   1.318
43304W        W 6863   7.342  10.291  10.617
43305W        W 6864  20.589  11.288  13.000
43306W        W 6865  23.139  30.922  14.957
43307W        W 6866  20.635  35.507   4.631
43308W        W 6867   2.894  44.418  11.073
43309W        W 6868  32.928  24.992  11.994
43310W        W 6869  31.559  33.514   2.896
43311W        W 6870  29.466   5.873   4.608
43312W        W 6871   6.784  34.614   1.741
43313W        W 6872  27.018   1.263   4.679
43314W        W 6873  17.587  40.859   0.843
43315W        W 6874   9.175  22.126   2.309
43316W        W 6875  42.427  42.869   0.882
43317W        W 6876  21.660   1.420   3.241
43318W        W 6877  26.018  14.234  11.474
43319W        W 6878  34.505  14.778   3.799
43320W        W 6879  35.411  38.951   4.148
43321W        W 6880  21.037   8.331   3.168
43322W        W 6881   3.909   4.262  12.916
43323W        W 6882  32.539  12.690  11.471
43324W        W 6883  10.644  41.339  11.605
43325W        W 6884  35.435  43.783   4.793
43326W        W 6885  36.423  31.055   1.798
43327W        W 6886   8.728  28.164   4.353
43328W        W 6887  32.487  15.164  13.805
43329W        W 6888  15.782  37.023   1.749
43330W        W 6889  34.984   0.974   5.206
43331W        W 6890  34.990  28.111  13.829
43332W        W 6891  37.017  15.618  13.845
43333W        W 6892   8.862  26.649   4.163
43334W        W 6893  35.088  44.415  10.908
43335W        W 6894   2.364  24.539  12.493
43336W        W 6895   8.737  33.560   2.194
43337W        W 6896  33.918   2.820  12.367
43338W        W 6897  30.557  14.640   1.888
43339W        W 6898  27.665  38.436   4.705
43340W        W 6899  11.249   9.389  11.585
43341W        W 6900  28.028   8.813  11.401
43342W        W 6901  42.909  38.984   5.141
43343W        W 6902   9.276  30.111   0.454
43344W        W 6903  17.596  22.146  13.438
43345W        W 6904  19.279   6.752  11.108
43346W        W 6905   9.722  24.694   3.669
43347W        W 6906   5.229  25.106  11.590
43348W        W 6907  19.158  17.609  13.936
43349W        W 6908  25.072   9.232  13.402
43350W        W 6909  44.952  11.637  11.957
43351W        W 6910  10.262  13.834   9.994
43352W        W 6911   6.290  35.930   3.164
43353W        W 6912  44.937  19.104   3.693
43354W        W 6913  35.360  12.689  11.914
43355W        W 6914  33.111  32.586   1.442
43356W        W 6915  39.315  35.502   5.699
43357W        W 6916  24.063  41.296   1.254
43358W        W 6917  39.548  38.011  14.958
43359W        W 6918  42.792  20.119  12.464
43360W        W 6919   2.321  21.125  14.864
43361W        W 6920  29.573   6.785   3.652
43362W        W 6921  12.804  34.116  14.502
43363W        W 6922  41.830   5.852  12.923
43364W        W 6923  30.938  40.004   3.303
43365W        W 6924  26.486  40.908   2.202
43366W        W 6925  30.420  12.169   0.457
43367W        W 6926  37.416  10.772  10.062
43368W        W 6927  24.160  21.142   5.211
43369W        W 6928  15.154  28.004  12.356
43370W        W 6929   7.256  36.961  12.476
43371W        W 6930  12.836  42.937   3.168
43372W        W 6931  29.161   1.238  13.866
43373W        W 6932  38.325  44.338  13.514
43374W        W 6933  42.030  29.617   1.900
43375W        W 6934  41.500  42.962  10.611
43376W        W 6935  25.092  31.463  13.009
43377W        W 6936  20.048  30.127  11.884
43378W        W 6937  40.455  10.745   1.302
43379W        W 6938  11.759   9.779  12.841
43380W        W 6939  23.147  44.865  13.420
43381W        W 6940  40.840  22.646  11.860
43382W        W 6941  34.511  34.962  11.522
43383W        W 6942   8.259  15.201  14.855
43384W        W 6943  34.547  28.592  12.858
43385W        W 6944  44.263  37.553  14.848
43386W        W 6945  25.612  21.565  12.487
43387W        W 6946   1.762  35.436   3.848
43388W        W 6947  31.994  28.466   4.296
43389W        W 6948  39.357  15.664  12.839
43390W        W 6949   8.189  10.689  14.895
43391W        W 6950   3.247  25.064  12.403
43392W        W 6951  37.959   4.390   1.932
43393W        W 6952  18.092  17.116   0.378
43394W        W 6953  10.214  32.520   0.904
43395W        W 6954   5.687   5.891   3.761
43396W        W 6955   4.895   6.781  11.408
43397W        W 6956  42.999  31.146  12.866
43398W        W 6957  25.675  17.090   4.233
43399W        W 6958  18.063  42.412  11.376
43400W        W 6959  32.089  29.994   0.279
43401W        W 6960  13.196  27.010   3.763
43402W        W 6961  31.073  12.810   5.104
43403W        W 6962   6.887  27.122  13.436
43404W        W 6963   2.289   2.754   1.404
43405W        W 6964  26.142  29.550   4.764
43406W        W 6965  30.495  44.833   4.159
43407W        W 6966  27.665   4.432   4.259
43408W        W 6967  15.092  19.625  12.355
43409W        W 6968  16.281   0.427  11.873
43410W        W 6969  20.092  14.257   1.406
43411W        W 6970  41.462  29.493   4.162
43412W        W 6971  31.458   8.707   3.167
43413W        W 6972   5.807  29.957   1.780
43414W        W 6973  11.824   0.924   2.662
43415W        W 6974  15.771  26.172   0.271
43416W        W 6975  14.651   0.398   1.748
43417W        W 6976  14.809  15.726  10.609
43418W        W 6977  42.820  44.917  11.093
43419W        W 6978  41.789  34.393  13.036
43420W        W 6979  44.381  10.159   0.928
43421W        W 6980   8.177  19.182   4.348
43422W        W 6981  36.877   3.830  11.036
43423W        W 6982   3.321  37.564   3.366
43424W        W 6983  41.886  39.361  13.421
43425W        W 6984  44.279  28.962   2.882
43426W        W 6985  30.108  36.950   1.801
43427W        W 6986   7.348  17.739   4.698
43428W        W 6987  44.458  26.089  12.846
43429W        W 6988  15.103  35.385  14.373
43430W        W 6989  13.799   2.321  13.051
43431W        W 6990   4.283  29.656   4.283
43432W        W 6991   6.912  17.180  14.006
43433W        W 6992  44.283  17.626  13.499
43434W        W 6993  38.402  32.466  13.428
43435W        W 6994  27.468   2.239   3.757
43436W        W 6995  29.527  42.870  13.389
43437W        W 6996  16.608  35.589  14.767
43438W        W 6997  31.019  39.905   0.282
43439W        W 6998  14.166  11.221  13.894
43440W        W 6999  27.152  27.478  11.944
43441W        W 7000  22.013  38.929   0.416
43442W        W 7001  27.602  13.677  10.985
43443W        W 7002  39.402  16.140   3.682
43444W        W 7003  37.560  17.272  13.850
43445W        W 7004   4.720   6.804   4.176
43446W        W 7005   1.794   4.887   3.239
43447W        W 7006  10.273   9.328   1.339
43448W        W 7007  23.600  37.431  10.608
43449W        W 7008  36.020  11.368   1.717
43450W        W 7009   7.362  40.844  12.449
43451W        W 7010  43.856  23.226   3.293
43452W        W 7011  15.120  44.477  12.842
43453W        W 7012  41.374  42.418  13.952
43454W        W 7013   6.295  22.538   1.755
43455W        W 7014  43.431  26.143   2.785
43456W        W 7015  40.949   1.894  11.929
43457W        W 7016   7.214  34.982   2.887
43458W        W 7017  27.948  29.597  12.446
43459W        W 7018  37.039  44.915  14.835
43460W        W 7019  33.117   2.821   0.261
43461W        W 7020  15.600  35.415  14.503
43462W        W 7021  44.332   8.689  11.441
43463W        W 7022   1.751  43.428   0.967
43464W        W 7023  23.203  42.804  10.470
43465W        W 7024  22.053  18.634   0.283
43466W        W 7025  17.589  41.866   4.211
43467W        W 7026  40.853  41.497  12.049
43468W        W 7027  21.730  40.372   0.404
43469W        W 7028  27.951   4.295  13.036
43470W        W 7029  17.225  10.835  12.824
43471W        W 7030  20.144   7.836   4.714
43472W        W 7031   2.773   1.392  11.125
43473W        W 7032  30.496  13.844  12.010
43474W        W 7033  42.849  10.853   1.825
43475W        W 7034  29.938  21.045  10.160
43476W        W 7035  38.871  42.011   1.788
43477W        W 7036  35.525  37.925   3.847
43478W        W 7037   1.311  24.027   0.956
43479W        W 7038  38.859   2.768   4.250
43480W        W 7039  30.642  30.984   2.857
43481W        W 7040  13.121  19.194   2.759
43482W        W 7041  30.966  11.178   0.455
43483W        W 7042   6.869  31.088  12.496
43484W        W 7043  14.304  29.638  13.997
43485W        W 7044  26.184  19.632  12.439
43486W        W 7045  42.980  34.013  14.899
43487W        W 7046  38.388  33.124   0.956
43488W        W 7047  33.436  14.145  12.511
43489W        W 7048   1.937  34.492   2.680
43490W        W 7049  31.607  37.963   0.398
43491W        W 7050  37.982  37.027   1.896
43492W        W 7051  23.021  27.089  14.485
43493W        W 7052  27.643  29.640  11.499
43494W        W 7053  29.561  24.176   4.228
43495W        W 7054  14.227   9.697  13.383
43496W        W 7055   5.777   0.373   3.172
43497W        W 7056  15.791  21.589   4.216
43498W        W 7057  32.138  41.885   4.761
43499W        W 7058  36.959  19.758   3.319
43500W        W 7059  40.893  12.229  14.976
43501W        W 7060  14.287  42.494   4.736
43502W        W 7061  43.352  26.459  14.021
43503W        W 7062  24.222   2.866  10.531
43504W        W 7063  39.855  34.078   2.665
43505W        W 7064  33.607  44.948   0.867
43506W        W 7065  37.394  36.472   1.338
43507W        W 7066   6.879  12.183  11.481
43508W        W 7067  18.142  19.654  10.932
43509W        W 7068  20.568   1.286   4.794
43510W        W 7069  15.327   1.253   2.341
43511W        W 7070  29.974  37.345   0.419
43512W        W 7071  33.892   2.734   2.198
43513W        W 7072  13.337  34.907   0.364
43514W        W 7073  39.874  31.452   2.296
43515W        W 7074  42.013  40.038   2.690
43516W        W 7075  41.034  41.849   0.470
43517W        W 7076  33.467  30.984  12.964
43518W        W 7077  31.053  38.947  10.998
43519W        W 7078  32.637  37.917  11.419
43520W        W 7079   2.860  34.544   2.688
43521W        W 7080  40.909  38.347  12.992
43522W        W 7081  43.405  33.880  13.060
43523W        W 7082  34.613  15.802   4.276
43524W        W 7083  22.682  35.596   2.845
43525W        W 7084  34.966  26.463  10.497
43526W        W 7085   3.788  42.948  13.932
43527W        W 7086  10.231  27.133   4.229
43528W        W 7087  39.997  23.136   1.398
43529W        W 7088  15.243  36.968   4.216
43530W        W 7089  21.654  44.820  11.393
43531W        W 7090  14.715  14.695   1.694
43532W        W 7091  25.058   9.187   2.404
43533W        W 7092  29.502  43.850  11.048
43534W        W 7093  19.710   6.914   1.902
43535W        W 7094  33.113  11.823  14.927
43536W        W 7095  10.685  40.019   2.757
43537W        W 7096  17.205   7.410  11.974
43538W        W 7097  28.518  19.633   1.716
43539W        W 7098   3.380  44.817  10.587
43540W        W 7099   6.367  26.631  11.922
43541W        W 7100  13.722  41.894  13.894
43542W        W 7101  23.167  22.143  11.539
43543W        W 7102  24.082  33.094  14.982
43544W        W 7103  17.275  32.900  13.839
43545W        W 7104  43.005  10.673   2.280
43546W        W 7105  16.136  30.463   2.329
43547W        W 7106   9.161  21.108  12.906
43548W        W 7107   1.277  33.884   4.236
43549W        W 7108  10.854  17.719  12.517
43550W        W 7109  24.504   4.215  14.379
43551W        W 7110  35.468  31.912   1.252
43552W        W 7111  22.054  10.874   5.083
43553W        W 7112  11.723  40.317   4.719
43554W        W 7113  42.351  42.497   2.179
43555W        W 7114   2.376  10.657   1.340
43556W        W 7115  31.037   4.318  13.433
43557W        W 7116  27.480  39.526  13.521
43558W        W 7117  12.335  38.450  12.419
43559W        W 7118  21.547  15.130  13.961
43560W        W 7119  14.816  19.083   0.767
43561W        W 7120   8.299   2.291  13.798
43562W        W 7121  43.406  43.433  11.960
43563W        W 7122   4.846  25.125  10.510
43564W        W 7123  17.141  19.146   1.877
43565W        W 7124   8.336   3.915  11.861
43566W        W 7125  27.123  16.117   4.233
43567W        W 7126   2.732  14.730   4.801
43568W        W 7127   0.409  29.572   0.252
43569W        W 7128  22.677  39.909  14.484
43570W        W 7129   2.455  35.416   4.684
43571W        W 7130   6.359  17.097   0.462
43572W        W 7131  19.575  31.407   3.186
43573W        W 7132  17.127  40.385   3.840
43574W        W 7133  24.082  17.117  11.575
43575W        W 7134  42.007  32.613   4.750
43576W        W 7135  26.596  15.219  14.448
43577W        W 7136  35.593  32.021   0.425
43578W        W 7137  35.576   7.835  10.431
43579W        W 7138  33.508  32.027  12.576
43580W        W 7139  43.975   9.649  14.505
43581W        W 7140  24.100  19.536  10.578
43582W        W 7141  17.745  30.559   1.256
43583W        W 7142  10.655   3.838   3.280
43584W        W 7143  35.515  34.393   3.794
43585W        W 7144  37.024   3.735   3.378
43586W        W 7145   6.846  36.415   2.710
43587W        W 7146   9.675  12.716  12.878
43588W        W 7147  25.064   2.796  12.059
43589W        W 7148  23.176  29.504   2.706
43590W        W 7149   9.335   9.358  14.311
43591W        W 7150  17.085   3.821  14.475
43592W        W 7151   8.797  25.962   3.357
43593W        W 7152  12.852  36.361  12.035
43594W        W 7153  33.529  32.991  14.372
43595W        W 7154  33.434  15.594   0.263
43596W        W 7155  31.465   6.840   4.689
43597W        W 7156  39.877   5.780   4.804
43598W        W 7157  12.839  37.862  14.910
43599W        W 7158  11.864  24.533  10.955
43600W        W 7159   8.872   4.393  12.863
43601W        W 7160   4.254  38.559   1.916
43602W        W 7161  17.120  17.748  14.439
43603W        W 7162  43.423  10.768   0.931
43604W        W 7163  25.050  21.669  11.912
43605W        W 7164  30.072  44.282  14.401
43606W        W 7165  27.994  19.250   3.209
43607W        W 7166  16.665  41.523   1.225
43608W        W 7167  14.654   7.736  11.452
43609W        W 7168  10.382   1.732  13.443
43610W        W 7169  24.635  19.061  11.018
43611W        W 7170  22.651  25.049   0.260
43612W        W 7171  20.029  10.318   1.834
43613W        W 7172  19.170  12.251   0.467
43614W        W 7173  30.956   0.876  14.870
43615W        W 7174  32.128   8.184   2.181
43616W        W 7175  13.209  43.493   0.433
43617W        W 7176  37.576  31.935  10.119
43618W        W 7177  20.631  16.745  11.543
43619W        W 7178  18.781  43.859   1.907
43620W        W 7179  36.534  13.637  13.397
43621W        W 7180  35.386  18.216   0.959
43622W        W 7181  33.418  33.519   0.256
43623W        W 7182  41.420  32.009   1.695
43624W        W 7183  25.174  27.170  11.070
43625W        W 7184  36.956  17.794   4.217
43626W        W 7185  29.046  18.179  11.465
43627W        W 7186  40.924  37.359  12.464
43628W        W 7187  33.389  34.065   3.757
43629W        W 7188   0.776  44.868  13.841
43630W        W 7189  13.157   4.882  10.576
43631W        W 7190   4.722  31.025  13.485
43632W        W 7191  37.455  16.154   1.905
43633W        W 7192  30.540  32.585  10.424
43634W        W 7193  42.977  31.041   4.329
43635W        W 7194   2.327   2.443   4.204
43636W        W 7195  14.216  25.689  13.808
43637W        W 7196  42.996   0.492  13.014
43638W        W 7197  40.542   5.924  10.990
43639W        W 7198   4.726  36.534   2.821
43640W        W 7199   5.342   4.288  14.870
43641W        W 7200  41.318  39.024   3.293
43642W        W 7201  42.430  42.999   1.224
43643W        W 7202  33.902  32.071   2.898
43644W        W 7203   4.402   3.766   0.802
43645W        W 7204   6.305  40.871  12.044
43646W        W 7205   2.786  25.973   0.327
43647W        W 7206   7.307  29.147  14.815
43648W        W 7207  18.600  32.621   1.217
43649W        W 7208  33.009  28.930   1.731
43650W        W 7209  34.517  29.920   1.815
43651W        W 7210  25.066  39.863   2.827
43652W        W 7211  20.251  24.506   2.865
43653W        W 7212  37.890  31.493   3.849
43654W        W 7213   0.779  27.979  12.544
43655W        W 7214  36.586  15.666   5.317
43656W        W 7215  14.108  33.594   4.716
43657W        W 7216  15.192   0.850  11.424
43658W        W 7217  21.255  34.557  11.037
43659W        W 7218  14.831  39.455  12.521
43660W        W 7219  13.705  32.094   3.359
43661W        W 7220   8.210  38.034   0.729
43662W        W 7221  14.744  15.791  14.940
43663W        W 7222  23.104  34.894   0.405
43664W        W 7223  14.618  14.211   2.755
43665W        W 7224  29.467  35.878   2.346
43666W        W 7225   8.855  39.453   4.725
43667W        W 7226   2.283   3.833   2.301
43668W        W 7227  29.598  38.463   0.482
43669W        W 7228   6.184  22.191   1.713
43670W        W 7229  26.478  10.666   2.679
43671W        W 7230  23.107  30.477  12.857
43672W        W 7231  11.174  27.165   0.462
43673W        W 7232   6.326  21.570  13.535
43674W        W 7233  35.038  15.293  14.921
43675W        W 7234  14.202  25.048  10.944
43676W        W 7235  43.305  16.200   4.303
43677W        W 7236  25.981  35.370   1.276
43678W        W 7237  41.841  31.931   0.290
43679W        W 7238  23.617  21.729  10.638
43680W        W 7239   4.757  22.712  14.276
43681W        W 7240  31.456   2.723   4.250
43682W        W 7241   4.739   9.336   4.751
43683W        W 7242   9.272  30.571  12.471
43684W        W 7243  25.543  30.578  11.444
43685W        W 7244  14.724  19.109   1.817
43686W        W 7245   7.815  36.514   0.415
43687W        W 7246   8.830   2.389  13.815
43688W        W 7247  12.849  34.392   1.727
43689W        W 7248   0.379  10.177  14.367
43690W        W 7249  12.189  40.896  11.522
43691W        W 7250  24.649  12.790  12.551
43692W        W 7251  13.647   4.304   0.961
43693W        W 7252   8.304  37.421   4.679
43694W        W 7253  12.298   3.882  14.303
43695W        W 7254  41.828  22.579  13.456
43696W        W 7255  19.555  16.625   3.264
43697W        W 7256  40.493   6.835  10.496
43698W        W 7257  33.554  33.589   1.421
43699W        W 7258   5.830  27.611   3.356
43700W        W 7259  10.863  10.356   0.773
43701W        W 7260  26.138  20.110  14.983
43702W        W 7261  26.588   6.815  14.366
43703W        W 7262  43.000  41.293  13.855
43704W        W 7263  44.306  23.694   0.342
43705W        W 7264  16.615   6.253   0.815
43706W        W 7265   1.863  36.567   5.162
43707W        W 7266   1.808   2.846   3.364
43708W        W 7267  37.538  44.877   2.318
43709W        W 7268  11.184  22.721  11.505
43710W        W 7269  34.117  25.006   2.310
43711W        W 7270  16.614  22.018  12.353
43712W        W 7271   4.283   0.256  13.866
43713W        W 7272  12.116  16.114   4.778
43714W        W 7273  33.458  40.006   0.361
43715W        W 7274  19.632  18.580   2.682
43716W        W 7275  43.948  26.479   1.334
43717W        W 7276  44.962  42.937  12.536
43718W        W 7277  40.452  26.571   3.257
43719W        W 7278  14.339  35.871   0.923
43720W        W 7279   1.318  42.516  11.415
43721W        W 7280   6.683  28.572   3.822
43722W        W 7281  44.998  20.233  13.925
43723W        W 7282  20.637   6.401  13.403
43724W        W 7283  41.365  18.576  10.548
43725W        W 7284  30.986   7.344   4.766
43726W        W 7285  37.923   1.269  12.515
43727W        W 7286  27.941   6.359  12.436
43728W        W 7287  25.697  31.542  12.473
43729W        W 7288  26.529  20.631   4.819
43730W        W 7289  37.061   9.176  10.430
43731W        W 7290  11.622  19.094  12.567
43732W        W 7291   2.727   9.856   3.823
43733W        W 7292  17.079   7.725   2.785
43734W        W 7293  24.487  28.088  13.987
43735W        W 7294  26.603  18.222   2.806
43736W        W 7295  15.188  31.460   3.265
43737W        W 7296  27.980  19.759   2.818
43738W        W 7297  43.021   7.356   0.404
43739W        W 7298  16.097  19.707   3.204
43740W        W 7299   9.858   5.426  13.063
43741W        W 7300  39.494  12.642   3.260
43742W        W 7301  23.069  33.595   4.139
43743W        W 7302  34.933  44.398  13.492
43744W        W 7303  35.877  35.560   1.856
43745W        W 7304   1.796  16.710   2.289
43746W        W 7305  14.266   7.329   0.453
43747W        W 7306  26.545  44.870  13.438
43748W        W 7307  36.446  29.163   1.768
43749W        W 7308  33.486  38.526   3.772
43750W        W 7309  42.961  41.382  13.471
43751W        W 7310  18.770  37.956   3.806
43752W        W 7311  12.116  23.101  11.977
43753W        W 7312  24.153   0.289  13.924
43754W        W 7313  31.973  15.211   0.374
43755W        W 7314  26.480   4.916   2.259
43756W        W 7315  39.434   4.212   2.710
43757W        W 7316  12.753  23.131  12.955
43758W        W 7317  11.169   0.350  11.871
43759W        W 7318   4.312  35.884   0.286
43760W        W 7319  39.808   8.850   3.671
43761W        W 7320  27.495  28.929  13.424
43762W        W 7321  34.955  33.946   4.709
43763W        W 7322  13.765  43.466  14.848
43764W        W 7323  17.288   6.854  10.147
43765W        W 7324  41.441   2.915   0.251
43766W        W 7325  33.067  23.642  12.840
43767W        W 7326  24.488  23.651   0.937
43768W        W 7327  11.768  36.504   1.932
43769W        W 7328  38.522   9.180  11.991
43770W        W 7329  40.390   4.328   3.808
43771W        W 7330  12.131   8.696   0.475
43772W        W 7331  16.661  38.049   0.438
43773W        W 7332  20.222  12.143  13.896
43774W        W 7333   3.244  37.005  11.499
43775W        W 7334   6.839  12.209   0.924
43776W        W 7335  23.572   7.731  10.474
43777W        W 7336  40.902  20.762  14.979
43778W        W 7337  10.159  14.144   0.244
43779W        W 7338  20.274   1.827   3.225
43780W        W 7339  39.380  30.575  10.909
43781W        W 7340  14.708  24.206   3.280
43782W        W 7341   1.366  26.595   0.453
43783W        W 7342  16.616  18.170  13.902
43784W        W 7343  35.473   2.955  14.479
43785W        W 7344  22.164  26.072   3.169
43786W        W 7345  37.484   1.356   2.286
43787W        W 7346  32.081   6.782   4.783
43788W        W 7347   0.473  34.988   2.202
43789W        W 7348  23.169  31.923   2.382
43790W        W 7349  18.113  29.168  12.379
43791W        W 7350  24.031   1.969   0.849
43792W        W 7351  20.654   6.762   1.277
43793W        W 7352   9.309  20.166   1.364
43794W        W 7353  15.164   6.202   4.790
43795W        W 7354   4.821  20.590  14.502
43796W        W 7355   3.371   1.949   4.663
43797W        W 7356  31.008  26.091  11.472
43798W        W 7357  31.553  19.544   4.691
43799W        W 7358  32.911  21.568   1.216
43800W        W 7359  20.603  28.023  14.495
43801W        W 7360  22.518  14.165   4.784
43802W        W 7361  44.804  15.700   9.966
43803W        W 7362  20.119   0.487  14.992
43804W        W 7363  34.537  25.020   4.604
43805W        W 7364  29.516  19.100   4.123
43806W        W 7365   5.813  12.747  14.868
43807W        W 7366  41.462  37.963  13.907
43808W        W 7367  10.673   4.837   2.305
43809W        W 7368   2.395  33.387   1.441
43810W        W 7369  27.528  30.631  14.362
43811W        W 7370  39.926  41.023  11.071
43812W        W 7371  13.616  20.132  12.501
43813W        W 7372   8.240  36.533  10.606
43814W        W 7373  14.679  43.850   3.340
43815W        W 7374   7.216  21.611  10.539
43816W        W 7375   9.705  16.107   9.992
43817W        W 7376   2.720  17.177  14.447
43818W        W 7377  38.064  39.461  13.330
43819W        W 7378   2.918  42.016   3.233
43820W        W 7379  30.920  43.909   2.846
43821W        W 7380  20.702  13.706   1.293
43822W        W 7381   2.815  18.224  11.891
43823W        W 7382  11.630  16.608   4.242
43824W        W 7383  36.495  20.168  13.506
43825W        W 7384  32.449  31.072  11.031
43826W        W 7385   2.920  15.802   0.847
43827W        W 7386  25.668   5.283   2.766
43828W        W 7387  44.790   5.752   0.733
43829W        W 7388  10.201  33.416  11.891
43830W        W 7389  10.300  23.015  13.466
43831W        W 7390  23.583   0.306  12.051
43832W        W 7391   0.484  19.266   1.311
43833W        W 7392  25.666  40.934  11.586
43834W        W 7393  13.688  36.009   5.125
43835W        W 7394  40.366  13.262   2.262
43836W        W 7395  25.479  28.501  11.498
43837W        W 7396   8.355  12.236  11.049
43838W        W 7397  40.867  32.979  13.464
43839W        W 7398  31.406   1.265  14.797
43840W        W 7399  23.039  14.125   3.279
43841W        W 7400   6.773  34.882  11.938
43842W        W 7401   1.849  13.156  14.978
43843W        W 7402  40.876  40.810  11.391
43844W        W 7403   1.927  37.495   0.934
43845W        W 7404   5.373  10.238  12.448
43846W        W 7405  23.649  37.570   1.716
43847W        W 7406  14.224  34.084  12.559
43848W        W 7407   6.314  13.752   4.167
43849W        W 7408  33.426  30.096  11.479
43850W        W 7409  14.711   3.859  11.002
43851W        W 7410   5.740  31.619  12.385
43852W        W 7411  44.440  40.305   5.265
43853W        W 7412  38.010  11.697   0.819
43854W        W 7413   3.295   3.710  14.934
43855W        W 7414  14.334  15.612  10.570
43856W        W 7415  11.660  13.676   4.227
43857W        W 7416  21.572  35.591  10.454
43858W        W 7417  44.001  26.544  11.554
43859W        W 7418  12.632   1.894   2.178
43860W        W 7419  39.359   8.168  14.805
43861W        W 7420  38.969  27.663   1.923
43862W        W 7421  33.926  33.552  10.519
43863W        W 7422  14.187  27.969   2.708
43864W        W 7423  43.987  23.135  13.818
43865W        W 7424  29.920  19.135  11.461
43866W        W 7425   3.307  30.034   4.646
43867W        W 7426   7.887  23.195   1.730
43868W        W 7427  23.145  29.074  14.854
43869W        W 7428  19.267   9.809   2.226
43870W        W 7429  29.123  31.034   0.837
43871W        W 7430   8.838  17.771  14.970
43872W        W 7431   5.253  12.677  11.873
43873W        W 7432  29.466  23.506  10.566
43874W        W 7433  26.033  40.893   1.889
43875W        W 7434  34.586  43.953   3.305
43876W        W 7435  15.645  20.731  14.412
43877W        W 7436  39.970  34.598   0.399
43878W        W 7437  15.150  39.850  12.962
43879W        W 7438   2.783   3.724  13.482
43880W        W 7439  41.359  34.580  14.440
43881W        W 7440  29.162  29.928   3.371
43882W        W 7441   7.743  34.935  12.386
43883W        W 7442   4.747   6.876   1.813
43884W        W 7443   4.831  33.902   2.299
43885W        W 7444  33.511  39.538   2.286
43886W        W 7445   9.392  11.753  14.457
43887W        W 7446  36.456   3.857   0.732
43888W        W 7447  22.191  36.430  10.580
43889W        W 7448  35.007  17.115   3.763
43890W        W 7449  43.347  23.121  10.999
43891W        W 7450   2.757  36.355  13.502
43892W        W 7451  35.503  17.745   1.816
43893W        W 7452   9.153   1.939   4.825
43894W        W 7453   8.749  41.962  12.456
43895W        W 7454   8.184  37.366   0.475
43896W        W 7455  39.535  44.324   1.331
43897W        W 7456   4.274  40.922   3.259
43898W        W 7457  12.648  38.966   4.770
43899W        W 7458  44.812  42.851  12.941
43900W        W 7459  41.530  26.613   3.853
43901W        W 7460  22.132   6.428   4.704
43902W        W 7461  41.035  23.178   3.243
43903W        W 7462  41.341  10.777  10.422
43904W        W 7463  10.197  19.658   4.304
43905W        W 7464   4.774  44.303  10.955
43906W        W 7465  26.055   0.784   0.741
43907W        W 7466   1.394  28.490   4.304
43908W        W 7467  19.702  31.977  12.571
43909W        W 7468  14.791  37.371   2.729
43910W        W 7469   4.253  18.722  13.329
43911W        W 7470  30.040  31.082   4.120
43912W        W 7471  21.086  14.226   9.977
43913W        W 7472   9.202  19.263  10.947
43914W        W 7473  32.903   6.222  14.871
43915W        W 7474   9.283  42.436  10.604
43916W        W 7475  33.416  44.393  12.878
43917W        W 7476  14.624  28.451   1.814
43918W        W 7477  33.587   2.268   3.723
43919W        W 7478   1.370   6.722  12.993
43920W        W 7479  21.249  43.841   0.848
43921W        W 7480  12.658  27.671  14.973
43922W        W 7481  26.564   3.864   0.323
43923W        W 7482  10.749  26.676   1.924
43924W        W 7483  41.534   9.378  13.430
43925W        W 7484   1.244  38.459  12.368
43926W        W 7485  20.107  22.509  10.513
43927W        W 7486  11.326  20.096  10.917
43928W        W 7487   2.309  29.041   2.706
43929W        W 7488  43.864  19.119   3.198
43930W        W 7489  38.014  24.981  12.466
43931W        W 7490   8.310   5.439  12.916
43932W        W 7491  44.960  36.461   3.302
43933W        W 7492  40.427   3.811  12.484
43934W        W 7493  43.775  22.240   0.349
43935W        W 7494  20.221  43.848  11.116
43936W        W 7495  23.099  33.059  13.373
43937W        W 7496  33.904  22.048   3.706
43938W        W 7497  26.624   7.171   4.765
43939W        W 7498  42.888  33.548   3.798
43940W        W 7499  32.456  28.569   4.780
43941W        W 7500  39.986   5.337  14.337
43942W        W 7501  36.872  30.968   3.233
43943W        W 7502  22.048  33.413   5.244
43944W        W 7503  26.971  30.123   3.239
43945W        W 7504  30.104   9.840   1.263
43946W        W 7505  12.853  24.085  12.982
43947W        W 7506   3.303   0.387   0.791
43948W        W 7507   1.835  29.501   2.313
43949W        W 7508  35.899   8.231  14.781
43950W        W 7509  28.166  24.196   1.220
43951W        W 7510   1.811  15.220  10.477
43952W        W 7511  17.089   9.225   4.192
43953W        W 7512   6.218   3.888   3.266
43954W        W 7513   9.681  44.405   2.664
43955W        W 7514  33.985  36.884   3.655
43956W        W 7515  42.807  33.484   0.295
43957W        W 7516  25.638  24.178  13.825
43958W        W 7517  15.120  26.679  13.372
43959W        W 7518   9.276   1.285  12.035
43960W        W 7519  32.106   0.493   4.632
43961W        W 7520   1.756  22.128   4.206
43962W        W 7521  13.749   7.330  10.953
43963W        W 7522  17.107  39.941  12.574
43964W        W 7523   2.959  21.046  13.980
43965W        W 7524   3.942   2.422   1.708
43966W        W 7525  12.732  22.136  12.541
43967W        W 7526  14.120  42.282   2.388
43968W        W 7527   4.213   0.416  11.950
43969W        W 7528  29.572  14.704  11.968
43970W        W 7529  20.638  39.823  14.986
43971W        W 7530  31.041   7.363   0.374
43972W        W 7531  10.874  27.020  13.320
43973W        W 7532  18.287   0.771   1.843
43974W        W 7533   0.761  16.228  10.626
43975W        W 7534   4.254  16.687  12.572
43976W        W 7535  10.283  33.986   1.854
43977W        W 7536  28.591  36.348   3.275
43978W        W 7537  10.731  15.609   2.249
43979W        W 7538  44.763  11.753   0.437
43980W        W 7539  19.616   9.383  10.566
43981W        W 7540  38.451  23.713   0.935
43982W        W 7541  22.501  14.630  12.920
43983W        W 7542  34.515   3.879  10.945
43984W        W 7543  41.944  23.663  10.984
43985W        W 7544   1.971  13.730  14.348
43986W        W 7545  28.038  30.617  13.924
43987W        W 7546  28.483  25.071  10.888
43988W        W 7547  32.975   8.290   1.723
43989W        W 7548  43.278  41.919   3.753
43990W        W 7549  13.789  18.559   2.894
43991W        W 7550   2.746  24.544   0.932
43992W        W 7551  17.591  11.636  12.506
43993W        W 7552  33.979  10.188   0.327
43994W        W 7553  10.742  15.214   3.843
43995W        W 7554   6.209  12.619   9.995
43996W        W 7555  16.136  38.929  10.488
43997W        W 7556  38.935   6.852  14.919
43998W        W 7557  10.255  18.089  13.315
43999W        W 7558  35.862  24.172  11.959
44000W        W 7559  44.492   4.212  10.063
44001W        W 7560   4.238  16.227   1.434
44002W        W 7561  31.624  24.106   2.855
44003W        W 7562  42.874  36.405  13.919
44004W        W 7563  10.769   6.234  11.118
44005W        W 7564   2.338  32.399   2.825
44006W        W 7565  37.910  32.113   3.651
44007W        W 7566  18.077  36.573   3.705
44008W        W 7567  21.614  13.652   3.281
44009W        W 7568  37.065   6.678  12.065
44010W        W 7569  10.839  10.803  14.410
44011W        W 7570   6.190  44.400   9.972
44012W        W 7571  41.396   5.918   3.790
44013W        W 7572  11.339  38.993  12.027
44014W        W 7573  29.563   7.402  10.511
44015W        W 7574  30.159  15.101  10.529
44016W        W 7575  42.777  27.635   3.353
44017W        W 7576  43.933  25.642   2.193
44018W        W 7577  13.187  27.548  12.345
44019W        W 7578   6.776  43.964  11.514
44020W        W 7579  44.803  41.383  13.898
44021W        W 7580  18.770  37.346   9.922
44022W        W 7581  33.535   0.835   2.295
44023W        W 7582   1.856  35.384   2.752
44024W        W 7583  29.489  39.485   0.335
44025W        W 7584  36.092  34.426   1.801
44026W        W 7585  41.911  33.382  12.560
44027W        W 7586  15.309  37.970  10.992
44028W        W 7587  40.977  28.634   0.451
44029W        W 7588  37.972  39.854   1.416
44030W        W 7589   9.180  33.522  12.421
44031W        W 7590  30.606   6.212  10.918
44032W        W 7591  19.243  18.115   2.692
44033W        W 7592   4.940  17.757  11.903
44034W        W 7593   4.870  42.369   2.884
44035W        W 7594  27.481  13.639   0.451
44036W        W 7595  25.022   8.336  10.456
44037W        W 7596   6.365  16.804  14.455
44038W        W 7597  39.889   1.956   0.823
44039W        W 7598  26.665   1.452  12.053
44040W        W 7599  38.830  44.815   4.303
44041W        W 7600  16.608  25.094  11.902
44042W        W 7601  44.981  44.957   1.279
44043W        W 7602  23.180  20.254  12.925
44044W        W 7603  18.281   8.178  13.391
44045W        W 7604  34.535  42.802   3.334
44046W        W 7605  35.983  20.189  12.041
44047W        W 7606  32.630   5.811   3.832
44048W        W 7607  23.205  43.317   0.965
44049W        W 7608  30.086  27.627   3.147
44050W        W 7609   6.292  41.924  14.861
44051W        W 7610  16.797  19.663   2.756
44052W        W 7611   0.761  20.745   0.454
44053W        W 7612  40.041  22.663   3.737
44054W        W 7613  36.015   5.751   3.222
44055W        W 7614  40.377  36.980  14.990
44056W        W 7615   5.355  16.275   1.785
44057W        W 7616  16.176  19.172  11.518
44058W        W 7617  36.966  17.263  13.870
44059W        W 7618  19.674  11.253  12.833
44060W        W 7619  10.290  44.872   1.838
44061W        W 7620  10.213  34.550  13.403
44062W        W 7621  13.832  33.403  12.860
44063W        W 7622  14.227   8.201  14.009
44064W        W 7623  24.703  19.239  12.909
44065W        W 7624   1.394   6.874   1.882
44066W        W 7625  33.922  31.058  10.406
44067W        W 7626  17.584  25.693   4.336
44068W        W 7627  27.477  41.507  10.407
44069W        W 7628  44.866  33.624  14.869
44070W        W 7629   8.773   3.756  12.467
44071W        W 7630  41.354  14.644  14.944
44072W        W 7631  15.620  21.077   3.335
44073W        W 7632  38.840   9.373   0.473
44074W        W 7633  25.980  36.948   3.844
44075W        W 7634  42.363  21.102   1.840
44076W        W 7635   9.257  35.594  11.920
44077W        W 7636  29.995  29.034   0.395
44078W        W 7637  25.205  20.245   1.863
44079W        W 7638  32.508  11.137  12.031
44080W        W 7639  38.549  37.041  11.519
44081W        W 7640  40.943  35.082   3.368
44082W        W 7641   7.198  24.684  10.613
44083W        W 7642   9.173   7.704   1.821
44084W        W 7643   0.305   9.320  13.340
44085W        W 7644   8.271  10.715   1.305
44086W        W 7645   4.228  39.981   2.714
44087W        W 7646  44.456  11.151   4.764
44088W        W 7647  16.203  20.751   0.472
44089W        W 7648  42.302  15.121  12.926
44090W        W 7649   2.275  25.215  11.591
44091W        W 7650  32.042   6.691  10.622
44092W        W 7651   5.317  12.148  12.410
44093W        W 7652   6.311   1.822  12.497
44094W        W 7653   6.901   2.321   3.284
44095W        W 7654  36.433  17.633  12.373
44096W        W 7655  21.022  36.944   0.408
44097W        W 7656  34.460  15.133   4.256
44098W        W 7657   2.245  20.585   0.905
44099W        W 7658  17.567  22.233  11.562
44100W        W 7659  11.271  13.638  12.861
44101W        W 7660  24.177   7.816   2.373
44102W        W 7661  37.850  18.742  12.482
44103W        W 7662   0.827  10.183   1.324
44104W        W 7663  23.641  32.636   2.394
44105W        W 7664  15.659   0.840  12.459
44106W        W 7665  11.315  33.909   1.909
44107W        W 7666  19.045   1.323   0.963
44108W        W 7667  37.428   8.752  12.970
44109W        W 7668  11.240  16.570  13.381
44110W        W 7669  38.891  39.418   1.228
44111W        W 7670  26.542  38.887   4.628
44112W        W 7671  31.073  28.176  14.906
44113W        W 7672  36.458   6.289   3.676
44114W        W 7673   9.324  31.595  13.437
44115W        W 7674  40.519  29.950  10.898
44116W        W 7675  25.194  34.473  10.474
44117W        W 7676   4.912   6.262   0.888
44118W        W 7677  14.703  43.826  13.495
44119W        W 7678   5.245  20.660  11.571
44120W        W 7679  37.511  14.224  13.522
44121W        W 7680  37.039   7.187  10.517
44122W        W 7681  24.551   3.339   3.659
44123W        W 7682  42.788   3.932  12.875
44124W        W 7683  39.005   7.876  11.471
44125W        W 7684  36.930   9.649   0.860
44126W        W 7685  39.480  32.946   1.887
44127W        W 7686   5.378  28.069  10.414
44128W        W 7687  19.626  11.793   1.219
44129W        W 7688  31.045  29.476   0.331
44130W        W 7689   0.792  27.620   1.712
44131W        W 7690  27.548  10.258   0.731
44132W        W 7691  23.530  43.779  11.523
44133W        W 7692  35.880  25.986  14.895
44134W        W 7693  34.902  25.010   3.179
44135W        W 7694  39.971  36.557   0.263
44136W        W 7695  19.768  38.483   0.735
44137W        W 7696  21.026  43.849   4.249
44138W        W 7697  30.152   8.242  10.603
44139W        W 7698  23.022   7.797   0.862
44140W        W 7699  36.591  10.275   4.118
44141W        W 7700   6.840  34.568  11.603
44142W        W 7701  12.294  11.734  12.350
44143W        W 7702  30.044  37.453  11.582
44144W        W 7703  17.692  40.472   2.292
44145W        W 7704  14.806  30.063   0.950
44146W        W 7705   7.869   5.305  12.412
44147W        W 7706  29.939  13.683   1.360
44148W        W 7707  35.980  30.446  10.530
44149W        W 7708  11.837  43.956   3.871
44150W        W 7709  35.488   6.898   1.765
44151W        W 7710   8.260  37.565  12.087
44152W        W 7711  13.247  28.131  14.842
44153W        W 7712  33.097  40.848  10.933
44154W        W 7713   8.344  36.098   0.820
44155W        W 7714  29.534   8.875  13.861
44156W        W 7715  23.592  38.336   2.834
44157W        W 7716  28.605   7.810  13.465
44158W        W 7717  25.106  22.724   0.796
44159W        W 7718  29.606  22.517  13.477
44160W        W 7719  33.979  23.227  14.485
44161W        W 7720  25.673  20.651  10.543
44162W        W 7721  26.538  27.450   1.839
44163W        W 7722  12.818  20.763  10.933
44164W        W 7723   2.278  17.097   4.703
44165W        W 7724   3.378   7.270   4.261
44166W        W 7725  35.110   0.312  11.403
44167W        W 7726  20.661  18.100   1.916
44168W        W 7727   2.724  40.892  13.321
44169W        W 7728  42.863  15.215   1.796
44170W        W 7729   6.317  39.471   4.652
44171W        W 7730  22.052  24.042   2.361
44172W        W 7731  34.042   7.835   5.098
44173W        W 7732   0.926   9.657  12.922
44174W        W 7733  28.488  18.739   4.687
44175W        W 7734  21.734   4.206  13.473
44176W        W 7735  17.586  37.010  10.405
44177W        W 7736  39.928  15.580   4.665
44178W        W 7737  20.608  42.332   4.153
44179W        W 7738  21.054   3.282   4.189
44180W        W 7739  28.657  14.259   1.919
44181W        W 7740  35.570  15.302  11.005
44182W        W 7741  19.587  26.548   3.241
44183W        W 7742  15.140  44.884   2.717
44184W        W 7743  11.323  11.218  14.286
44185W        W 7744  37.013  29.954   3.658
44186W        W 7745  38.425  23.558  13.342
44187W        W 7746  33.548   0.818  14.485
44188W        W 7747  21.532  15.193   4.759
44189W        W 7748  24.190  42.448  14.944
44190W        W 7749  30.620  34.424  11.891
44191W        W 7750  28.608   0.423   3.353
44192W        W 7751  11.243   9.155  13.926
44193W        W 7752  11.664  15.662   0.364
44194W        W 7753  34.378  33.503  10.958
44195W        W 7754  19.747   3.378   3.733
44196W        W 7755   6.335   6.394  13.508
44197W        W 7756  40.894   9.656  14.476
44198W        W 7757  22.583  25.508   1.407
44199W        W 7758  40.823  38.905  10.984
44200W        W 7759  22.050  17.734   0.841
44201W        W 7760   1.411  17.301   4.746
44202W        W 7761  34.963   1.818   4.136
44203W        W 7762  21.185  44.500  12.555
44204W        W 7763  13.811  19.276  11.089
44205W        W 7764  36.016  18.124   0.364
44206W        W 7765   8.773  29.599   0.245
44207W        W 7766  17.171  10.636   0.934
44208W        W 7767   7.344  27.044   4.137
44209W        W 7768  11.228  30.915   4.759
44210W        W 7769  43.806  42.798  12.853
44211W        W 7770  26.008  42.523   1.728
44212W        W 7771  44.849  12.220   4.139
44213W        W 7772  13.757  42.886  13.000
44214W        W 7773  31.082  26.156  12.091
44215W        W 7774  20.727   9.269  14.482
44216W        W 7775   5.818   3.269   0.464
44217W        W 7776   7.372  29.949   3.358
44218W        W 7777  26.020  37.923   4.637
44219W        W 7778  36.897  41.901   4.191
44220W        W 7779  29.666  10.857  14.488
44221W        W 7780   1.805   3.244  14.381
44222W        W 7781  27.682  25.122   1.724
44223W        W 7782  26.972   6.825  13.036
44224W        W 7783   4.314  14.231  13.841
44225W        W 7784  39.489  10.792   1.306
44226W        W 7785   2.811  16.706   1.815
44227W        W 7786  28.572  43.790   4.718
44228W        W 7787  11.738  13.718  11.927
44229W        W 7788  21.553  25.564  13.019
44230W        W 7789  15.085  26.038  14.017
44231W        W 7790   6.266  16.631  11.855
44232W        W 7791  29.027  23.714   2.348
44233W        W 7792  26.123   0.418   2.232
44234W        W 7793  39.880  42.480  12.970
44235W        W 7794  14.182   6.812  13.336
44236W        W 7795   3.424  36.572  14.375
44237W        W 7796  37.035  31.460  10.095
44238W        W 7797  11.314   9.362   5.170
44239W        W 7798   8.346   8.804  11.980
44240W        W 7799  43.448  30.655   0.922
44241W        W 7800  10.749  32.575  13.014
44242W        W 7801  16.092   2.296  14.340
44243W        W 7802   1.276  33.039  14.854
44244W        W 7803  27.070   0.944   2.218
44245W        W 7804  32.890  29.473  13.930
44246W        W 7805   5.364   1.438   2.689
44247W        W 7806  31.481  37.437  10.406
44248W        W 7807  13.278  40.410   4.349
44249W        W 7808  20.129   9.256   0.389
44250W        W 7809  27.543   2.400  10.441
44251W        W 7810  34.896   2.324   4.785
44252W        W 7811   4.216  25.179  14.941
44253W        W 7812  37.516  16.247  12.040
44254W        W 7813   8.209  22.120   1.391
44255W        W 7814  17.688  24.212  13.981
44256W        W 7815   3.282   7.675  10.913
44257W        W 7816  36.544  25.561   2.869
44258W        W 7817  21.138  30.638  10.437
44259W        W 7818  27.989  37.868   3.360
44260W        W 7819   4.741  37.405   9.922
44261W        W 7820  17.621  35.484   2.786
44262W        W 7821  32.532  29.010   1.287
44263W        W 7822   9.323   4.294   2.674
44264W        W 7823   7.871  16.608  14.859
44265W        W 7824  40.879  21.615   1.705
44266W        W 7825  15.818   4.215   4.286
44267W        W 7826  30.994  16.725  13.535
44268W        W 7827  39.918   0.810  13.888
44269W        W 7828  36.357  26.990   3.630
44270W        W 7829  29.604  28.552   0.865
44271W        W 7830  32.538  43.376   2.727
44272W        W 7831  21.155   8.666   1.431
44273W        W 7832   4.860  38.013  13.364
44274W        W 7833  39.423   4.335   3.630
44275W        W 7834  35.466  28.434   4.150
44276W        W 7835   2.797  35.403  12.033
44277W        W 7836  38.517  43.280   0.427
44278W        W 7837  16.683  19.274   4.214
44279W        W 7838  15.160  10.307   1.846
44280W        W 7839  11.332   2.784   0.882
44281W        W 7840   4.830  15.593   0.305
44282W        W 7841  33.518  18.758   3.230
44283W        W 7842  10.655  38.492   3.870
44284W        W 7843  32.923  38.048  14.363
44285W        W 7844  35.539   3.777   1.272
44286W        W 7845  37.848   6.289  10.409
44287W        W 7846  23.545  30.442  12.988
44288W        W 7847   4.374  26.183   3.312
44289W        W 7848  31.127  36.889   4.698
44290W        W 7849   8.403  11.280   0.424
44291W        W 7850  35.547  40.328  10.473
44292W        W 7851  21.758  44.444   0.289
44293W        W 7852  20.181  29.035   3.289
44294W        W 7853  44.001  27.165   0.387
44295W        W 7854   3.442  38.830  13.454
44296W        W 7855   2.782   8.689   3.269
44297W        W 7856  44.282  30.088  12.355
44298W        W 7857  35.403  32.963  12.838
44299W        W 7858  16.785  37.426  14.461
44300W        W 7859  27.118  44.953  13.519
44301W        W 7860  18.630  15.809  14.380
44302W        W 7861  11.825  25.611   1.275
44303W        W 7862  40.529  18.645  10.540
44304W        W 7863  14.657  37.565  11.027
44305W        W 7864  18.583   0.429  13.926
44306W        W 7865  12.158   2.956   2.740
44307W        W 7866  40.416  43.375  13.892
44308W        W 7867  21.067  36.419  12.426
44309W        W 7868  30.039  15.187   1.796
44310W        W 7869  34.009  18.733   0.324
44311W        W 7870  32.078  29.941  11.863
44312W        W 7871   8.336  25.079  14.315
44313W        W 7872  36.557  30.128  13.447
44314W        W 7873  38.040  37.948   2.900
44315W        W 7874   1.299  19.069  14.505
44316W        W 7875  25.083  39.951   0.442
44317W        W 7876  17.672  10.843   0.726
44318W        W 7877  25.119  32.505  12.864
44319W        W 7878  44.288  31.474  11.085
44320W        W 7879  13.638  26.627   0.273
44321W        W 7880   0.916   0.357   3.686
44322W        W 7881   3.219   9.222   3.245
44323W        W 7882  40.848  17.177   2.274
44324W        W 7883  30.638  30.604  10.556
44325W        W 7884  44.847  26.004   4.243
44326W        W 7885  31.938  42.470   5.320
44327W        W 7886  30.602  11.670  12.029
44328W        W 7887  19.714  32.513  12.021
44329W        W 7888  38.980   6.247   1.806
44330W        W 7889   7.242  27.960   3.828
44331W        W 7890  28.552   3.385   1.349
44332W        W 7891  36.861  35.521   3.757
44333W        W 7892  39.022  24.686  11.005
44334W        W 7893  28.139  16.672  12.378
44335W        W 7894  42.312  31.609  12.872
44336W        W 7895  32.566  34.385   1.893
44337W        W 7896  23.199  27.195  13.547
44338W        W 7897  33.052  12.347  11.390
44339W        W 7898  11.357  24.040   2.754
44340W        W 7899  14.232  34.593   1.341
44341W        W 7900  16.773  40.411   4.333
44342W        W 7901  35.519  34.508  14.782
44343W        W 7902  17.674  20.704  11.504
44344W        W 7903  35.572  43.856  14.429
44345W        W 7904   5.711  14.629   4.325
44346W        W 7905   6.339  18.642  14.932
44347W        W 7906  16.622  39.478   4.659
44348W        W 7907   1.905  39.420   1.401
44349W        W 7908  17.061  10.635  10.499
44350W        W 7909   0.810  26.014   2.837
44351W        W 7910  22.585  32.025   1.928
44352W        W 7911  21.079   6.393   4.727
44353W        W 7912   4.222  22.611   3.636
44354W        W 7913  20.186  37.888   2.319
44355W        W 7914   7.910  40.926  10.513
44356W        W 7915   9.312  37.868   0.944
44357W        W 7916  32.111   4.346  13.416
44358W        W 7917  10.715  25.678  13.460
44359W        W 7918   1.313  37.003   2.830
44360W        W 7919  12.166  23.702  13.352
44361W        W 7920  38.877  32.137   2.806
44362W        W 7921   6.339  36.542  10.971
44363W        W 7922   5.299   7.871  12.017
44364W        W 7923  42.511   9.818   1.221
44365W        W 7924   2.955  43.442   3.740
44366W        W 7925  41.398  11.223   0.392
44367W        W 7926   3.906  38.017  12.031
44368W        W 7927  16.251  19.594  12.373
44369W        W 7928   1.319   3.741  11.434
44370W        W 7929  40.887  27.556  10.964
44371W        W 7930   5.372  33.477  14.960
44372W        W 7931  13.636  25.968   1.877
44373W        W 7932  17.301  19.533   3.700
44374W        W 7933  42.945  21.256  10.914
44375W        W 7934  36.467  36.562   0.765
44376W        W 7935  25.534   9.362  11.612
44377W        W 7936   5.744  36.559  10.449
44378W        W 7937  41.451   6.196  14.962
44379W        W 7938   1.254  24.002  13.327
44380W        W 7939  21.521  34.592  11.905
44381W        W 7940  40.973  36.041   1.310
44382W        W 7941   8.713  25.653  12.961
44383W        W 7942  30.448  29.547  12.980
44384W        W 7943  31.564  40.962  10.947
44385W        W 7944  29.466   6.789   4.274
44386W        W 7945  30.150   9.834   3.713
44387W        W 7946   2.901  32.502   3.643
44388W        W 7947   6.778   6.901  12.340
44389W        W 7948  25.984  24.142  14.306
44390W        W 7949  36.370  20.064   3.268
44391W        W 7950  26.122  30.009   4.174
44392W        W 7951   8.775  36.976   4.237
44393W        W 7952  39.544  15.739  11.592
44394W        W 7953   5.416   4.239   3.371
44395W        W 7954  26.021   6.315   0.448
44396W        W 7955  23.670  14.662  14.390
44397W        W 7956  17.744  15.588   1.348
44398W        W 7957  42.015  44.990   1.859
44399W        W 7958  22.588  37.955   2.337
44400W        W 7959   5.892  41.325  13.390
44401W        W 7960  41.320  31.922   0.282
44402W        W 7961  20.211   3.363   2.242
44403W        W 7962  23.612  14.597  12.532
44404W        W 7963  12.729  26.042   3.254
44405W        W 7964  33.905  36.879  10.545
44406W        W 7965  31.072   9.843  10.426
44407W        W 7966  24.702  27.941   3.726
44408W        W 7967  40.847  43.418   1.298
44409W        W 7968  17.651  31.018   1.406
44410W        W 7969  14.235   3.359  12.359
44411W        W 7970  26.486  40.540   4.834
44412W        W 7971  34.554  32.103  10.935
44413W        W 7972   2.864   6.395   1.274
44414W        W 7973  25.191  13.665   4.675
44415W        W 7974  19.568  24.661   3.354
44416W        W 7975  20.208  15.623   4.789
44417W        W 7976  41.508  30.921   4.212
44418W        W 7977  37.359   1.303  14.409
44419W        W 7978   8.331   4.313   2.358
44420W        W 7979   8.894  24.708   1.295
44421W        W 7980  21.103  44.001   3.216
44422W        W 7981   6.328  34.064  12.028
44423W        W 7982  19.087  17.128   3.182
44424W        W 7983  13.211  28.022   0.277
44425W        W 7984  43.965  14.231  12.468
44426W        W 7985   9.219  29.106  12.360
44427W        W 7986  33.011  19.738   1.854
44428W        W 7987  43.456  39.973  14.386
44429W        W 7988  33.577  40.391   0.251
44430W        W 7989   5.347   3.220   0.939
44431W        W 7990  43.868  11.728  14.895
44432W        W 7991   2.728  27.031  10.536
44433W        W 7992  42.824   5.858  11.104
44434W        W 7993  34.431   5.737  14.020
44435W        W 7994  43.347  31.506  12.560
44436W        W 7995  37.954  18.270   2.684
44437W        W 7996  32.128  42.981  10.588
44438W        W 7997  26.141  33.030  12.831
44439W        W 7998   0.853  42.382   4.803
44440W        W 7999  43.850  27.502  12.551
44441W        W 8000   8.726  25.970   3.831
44442W        W 8001   2.764  28.667   0.906
44443W        W 8002   1.930  27.025   0.829
44444W        W 8003  17.755  25.529  11.564
44445W        W 8004  43.400  34.103   1.258
44446W        W 8005   3.911   8.240  12.541
44447W        W 8006  15.326   5.284  14.762
44448W        W 8007  26.097  13.125   4.690
44449W        W 8008  23.489  42.399  11.920
44450W        W 8009  24.100  19.284  11.907
44451W        W 8010   8.866  38.859   4.163
44452W        W 8011  42.521  12.308  13.431
44453W        W 8012  31.039  36.448  10.947
44454W        W 8013   9.868   1.311  13.999
44455W        W 8014  42.781   0.434  14.783
44456W        W 8015   7.324  23.124  11.557
44457W        W 8016   9.194  18.227   1.898
44458W        W 8017  32.065  34.497   3.154
44459W        W 8018   5.852  43.892  10.459
44460W        W 8019  32.607   0.402   1.260
44461W        W 8020  32.454  18.272  14.504
44462W        W 8021  37.511   4.902  12.897
44463W        W 8022  44.384  13.830  14.386
44464W        W 8023  37.024   4.264   4.291
44465W        W 8024  25.522  42.310  12.529
44466W        W 8025  26.201  13.793   0.303
44467W        W 8026  13.205   9.388  12.439
44468W        W 8027  31.409  13.213   3.323
44469W        W 8028  20.639  10.873   1.224
44470W        W 8029  38.422  10.725   0.857
44471W        W 8030  26.611  26.564   4.353
44472W        W 8031   7.900  44.971   3.680
44473W        W 8032   9.863  16.206   0.310
44474W        W 8033   5.838   4.231  13.830
44475W        W 8034  36.096   8.382  11.936
44476W        W 8035  42.874  19.047   4.298
44477W        W 8036  18.661  12.159  11.390
44478W        W 8037  19.238  26.041  12.536
44479W        W 8038  12.180  13.277   5.651
44480W        W 8039   1.849  20.267  12.535
44481W        W 8040   9.257   9.384   2.389
44482W        W 8041   8.395  43.804  14.874
44483W        W 8042   5.355  39.015  13.467
44484W        W 8043  14.726   5.850  10.154
44485W        W 8044   2.781  42.896   3.327
44486W        W 8045  26.992  10.726  11.589
44487W        W 8046  18.079  10.164  11.534
44488W        W 8047   6.224  21.600   2.757
44489W        W 8048  27.037  26.951  13.909
44490W        W 8049  40.315  20.037   4.249
44491W        W 8050  39.547  13.803   3.316
44492W        W 8051  28.538  42.942  13.843
44493W        W 8052   7.702  25.094   4.133
44494W        W 8053   0.351  38.431   2.418
44495W        W 8054  18.712  37.048  10.492
44496W        W 8055  27.971  21.074   0.357
44497W        W 8056  31.922  40.806   4.733
44498W        W 8057  11.821  19.589  13.408
44499W        W 8058   7.864   2.904   2.686
44500W        W 8059  27.995  24.167  12.870
44501W        W 8060   4.210  28.657  14.981
44502W        W 8061  40.378  21.635   4.314
44503W        W 8062  13.675  18.737   3.173
44504W        W 8063  24.042  23.187  14.982
44505W        W 8064  33.926  20.674  11.944
44506W        W 8065  29.031  40.959  14.410
44507W        W 8066  29.002  36.569   0.832
44508W        W 8067  26.554  38.915   2.693
44509W        W 8068  27.951  41.935   2.748
44510W        W 8069  27.466  42.877   5.296
44511W        W 8070  29.147  41.854   1.716
44512W        W 8071  22.093  11.657   4.283
44513W        W 8072  14.097  43.457   2.323
44514W        W 8073  30.070  13.762  12.393
44515W        W 8074  28.150  10.361   1.901
44516W        W 8075   9.307  35.577  12.365
44517W        W 8076  25.613  44.987   3.368
44518W        W 8077   8.270  19.593   3.344
44519W        W 8078   9.333  21.054  14.840
44520W        W 8079  20.060  42.820   0.932
44521W        W 8080  37.383  23.532  12.353
44522W        W 8081  16.647   4.349   4.176
44523W        W 8082  32.887  37.490  12.038
44524W        W 8083  30.644  41.360   3.677
44525W        W 8084  13.719  13.120  13.791
44526W        W 8085  39.019   3.216  12.416
44527W        W 8086  15.210  12.855   2.804
44528W        W 8087  19.684  32.943   4.313
44529W        W 8088   4.768  12.241   3.179
44530W        W 8089  25.594  23.695  10.512
44531W        W 8090  22.057  10.157  10.509
44532W        W 8091   7.273  24.565  12.531
44533W        W 8092  20.686  28.113  13.875
44534W        W 8093  35.979  42.474  14.871
44535W        W 8094  31.975  18.154  14.410
44536W        W 8095  38.977  32.122   1.778
44537W        W 8096  41.530  24.592  12.842
44538W        W 8097   3.245   5.697  11.967
44539W        W 8098  13.113  44.375  14.336
44540W        W 8099  28.003   3.836  12.088
44541W        W 8100  10.289  17.642   1.767
44542W        W 8101  43.890   0.464  10.461
44543W        W 8102  12.802  39.369   4.675
44544W        W 8103  33.996   0.878  11.509
44545W        W 8104  29.628  37.058  14.287
44546W        W 8105   2.304  33.938  12.876
44547W        W 8106  19.271  26.501   3.322
44548W        W 8107  10.159  38.452   4.118
44549W        W 8108  43.480  12.257   4.733
44550W        W 8109  14.705  13.801  13.918
44551W        W 8110  35.499  28.679   4.789
44552W        W 8111   5.370  41.326  14.803
44553W        W 8112  24.516  23.214  13.948
44554W        W 8113  21.113  32.117   4.780
44555W        W 8114  40.825  28.992   0.933
44556W        W 8115  38.040  44.786   4.718
44557W        W 8116  23.555   6.230  12.378
44558W        W 8117  36.464  17.128   3.313
44559W        W 8118  27.984  22.013  14.908
44560W        W 8119   3.955  23.080   1.851
44561W        W 8120  37.538   6.251  11.386
44562W        W 8121   7.397   0.488   1.232
44563W        W 8122  10.656  24.592   0.793
44564W        W 8123  22.574  37.934  13.450
44565W        W 8124  26.108  36.860   1.383
44566W        W 8125   8.658  16.798   1.894
44567W        W 8126   4.350   0.769  14.833
44568W        W 8127  44.465  19.561   3.829
44569W        W 8128   0.344   9.736  13.400
44570W        W 8129   3.348  22.675  11.121
44571W        W 8130  31.087  41.876   0.480
44572W        W 8131   2.805  23.510   0.820
44573W        W 8132  18.628  17.638  13.341
44574W        W 8133  13.629   0.892   3.180
44575W        W 8134  28.484   5.871  11.378
44576W        W 8135  43.299  19.749  10.444
44577W        W 8136  42.361  38.061   0.286
44578W        W 8137  33.917  13.838  14.384
44579W        W 8138  29.491   5.932   3.191
44580W        W 8139  40.348  23.093   4.698
44581W        W 8140  21.744   3.764   1.290
44582W        W 8141  17.131  15.776  11.505
44583W        W 8142  25.192  10.148  12.497
44584W        W 8143  19.574   2.773  10.522
44585W        W 8144   2.725  35.109   2.745
44586W        W 8145   2.944  37.449  14.351
44587W        W 8146  24.041  36.081   0.454
44588W        W 8147  15.310   5.767  11.051
44589W        W 8148  34.886  31.409  12.854
44590W        W 8149   6.827  34.929  12.959
44591W        W 8150  44.259  10.174  14.514
44592W        W 8151   7.709  15.644   4.223
44593W        W 8152   0.952  15.810   2.823
44594W        W 8153  44.896  10.152   4.620
44595W        W 8154  11.653  32.099  14.872
44596W        W 8155  26.605  29.564  14.276
44597W        W 8156  16.682  43.988  13.468
44598W        W 8157  28.031  15.321  10.108
44599W        W 8158  34.905  11.278   3.160
44600W        W 8159  34.006  18.057  14.474
44601W        W 8160  36.008   7.788  12.945
44602W        W 8161  42.950   7.211   4.137
44603W        W 8162  30.071  12.815   2.236
44604W        W 8163  25.062  31.962   1.837
44605W        W 8164  31.974  36.978   9.460
44606W        W 8165  38.961   1.882  11.603
44607W        W 8166  36.922   9.227  10.053
44608W        W 8167  19.608  29.984  11.924
44609W        W 8168  15.276  10.867   4.289
44610W        W 8169  43.364  14.161   1.214
44611W        W 8170   2.877   1.280  13.371
44612W        W 8171   4.448   5.814   0.368
44613W        W 8172  33.025   6.864   4.609
44614W        W 8173  37.575  28.960   4.175
44615W        W 8174  17.590   8.801  11.932
44616W        W 8175  16.192  36.490   4.798
44617W        W 8176   6.782  10.176   1.309
44618W        W 8177   0.840  27.077   3.796
44619W        W 8178  36.926  17.730  11.375
44620W        W 8179  44.936  26.565  13.001
44621W        W 8180  28.485  17.675  12.558
44622W        W 8181  28.991  27.672   2.255
44623W        W 8182   7.748  11.688   5.113
44624W        W 8183   6.247  21.184   3.210
44625W        W 8184  29.934  27.945   4.738
44626W        W 8185  19.162   3.824   0.360
44627W        W 8186  22.731  12.143  11.398
44628W        W 8187  20.724  23.072  14.462
44629W        W 8188  22.653  23.727  14.986
44630W        W 8189   4.266   2.250  12.923
44631W        W 8190  31.147  13.826  11.103
44632W        W 8191  29.970  34.889  13.008
44633W        W 8192  19.049  31.953   1.775
44634W        W 8193   0.805   9.229   0.764
44635W        W 8194   2.298  30.607   9.997
44636W        W 8195  28.161  36.098   3.179
44637W        W 8196   0.850  41.857  12.932
44638W        W 8197  31.609  17.592  11.873
44639W        W 8198  40.863  12.634  14.297
44640W        W 8199   9.734  24.985  13.357
44641W        W 8200  33.436  41.297  11.064
44642W        W 8201  31.930  38.451  14.867
44643W        W 8202   1.267  17.714   4.153
44644W        W 8203  21.598  30.644   0.877
44645W        W 8204  24.697  24.980   3.720
44646W        W 8205   4.742   7.732  12.444
44647W        W 8206  32.020  37.547  14.354
44648W        W 8207  37.840  16.211  14.490
44649W        W 8208  44.319   0.485  11.396
44650W        W 8209  44.286  29.176   3.812
44651W        W 8210  44.850   7.372  13.933
44652W        W 8211  19.269  24.022  13.490
44653W        W 8212  12.614  10.362  13.935
44654W        W 8213  29.984  25.178  14.311
44655W        W 8214   2.942  39.974   4.678
44656W        W 8215   1.341  17.665   3.304
44657W        W 8216  37.504  38.963  13.978
44658W        W 8217  11.685  35.859   1.298
44659W        W 8218  11.696  32.513  10.440
44660W        W 8219  14.199  37.520  10.991
44661W        W 8220  24.615  35.522  14.939
44662W        W 8221  42.455   7.263  14.799
44663W        W 8222  28.122  27.511  13.314
44664W        W 8223  18.148   1.322  11.547
44665W        W 8224   8.315  22.546  12.848
44666W        W 8225  23.690  41.353   1.446
44667W        W 8226  19.769  21.560  11.459
44668W        W 8227  38.547  24.010  10.569
44669W        W 8228  34.505   0.434   3.869
44670W        W 8229  33.893  44.956  11.903
44671W        W 8230  35.534   8.167  11.033
44672W        W 8231  21.025  41.437  10.445
44673W        W 8232  24.163  42.361   4.806
44674W        W 8233  10.680  33.900  13.401
44675W        W 8234  17.218   1.393  10.443
44676W        W 8235  12.798  15.164   1.336
44677W        W 8236  40.050  33.932   0.727
44678W        W 8237   0.327  16.252   4.697
44679W        W 8238  34.504  40.978  12.481
44680W        W 8239  13.341   1.737   2.254
44681W        W 8240   2.921   0.867  12.531
44682W        W 8241  43.902  33.430  12.376
44683W        W 8242   5.354  28.541   4.828
44684W        W 8243  32.033  36.995  12.360
44685W        W 8244  43.336  15.177   1.344
44686W        W 8245  27.184  33.980  13.006
44687W        W 8246  32.119  31.454  10.911
44688W        W 8247  34.584  19.161  11.524
44689W        W 8248  31.481   1.948   1.909
44690W        W 8249  14.790  30.538   2.326
44691W        W 8250  14.686   2.840  13.396
44692W        W 8251  12.228  37.862   0.417
44693W        W 8252  44.356  29.025  12.385
44694W        W 8253  43.480  11.146  13.437
44695W        W 8254  30.153  32.087  11.120
44696W        W 8255  28.050  26.960  14.421
44697W        W 8256  17.755   4.288  12.038
44698W        W 8257   6.379  38.879  13.364
44699W        W 8258  16.290  35.963   3.261
44700W        W 8259  15.196  43.441   3.247
44701W        W 8260  32.896  20.056   3.744
44702W        W 8261  32.452  10.204  12.964
44703W        W 8262   5.346  26.574  14.396
44704W        W 8263  20.625  36.918   0.804
44705W        W 8264  37.424   7.354  14.327
44706W        W 8265  35.075  33.926  13.855
44707W        W 8266  37.472  27.125  14.863
44708W        W 8267  22.186  21.246  14.909
44709W        W 8268  24.006  32.534  13.818
44710W        W 8269  32.611  38.488   0.424
44711W        W 8270  37.451  22.087   1.855
44712W        W 8271  39.538  15.230  13.491
44713W        W 8272  11.250   5.877   0.463
44714W        W 8273  28.612  34.078  14.327
44715W        W 8274   1.806   5.334   0.766
44716W        W 8275  18.231  44.398  13.872
44717W        W 8276   0.746  28.041   4.639
44718W        W 8277  23.570  10.683  14.301
44719W        W 8278  24.224  38.538   2.688
44720W        W 8279   2.350  44.466  14.332
44721W        W 8280  44.387  21.201   4.653
44722W        W 8281   6.413  30.528  10.636
44723W        W 8282  13.803  23.709   5.227
44724W        W 8283  19.625  34.573  10.578
44725W        W 8284  14.221  27.490  14.856
44726W        W 8285  27.636   9.345   0.355
44727W        W 8286  25.537   4.238   4.304
44728W        W 8287  43.806  32.108  10.440
44729W        W 8288   1.301   1.326  13.062
44730W        W 8289  23.157   7.290   4.305
44731W        W 8290  41.811   9.711   1.860
44732W        W 8291   5.692   7.857   4.769
44733W        W 8292   8.875  16.285  12.564
44734W        W 8293   9.834   2.896   0.353
44735W        W 8294  18.161  19.168   1.289
44736W        W 8295   3.377  24.017   4.133
44737W        W 8296  30.424  21.641   1.218
44738W        W 8297   9.678  34.553   1.237
44739W        W 8298  40.393  10.676  12.358
44740W        W 8299  24.723  36.040  14.929
44741W        W 8300  27.180  16.188   3.308
44742W        W 8301  32.989  15.819   1.725
44743W        W 8302   8.299  42.292  12.503
44744W        W 8303   2.410  26.671  14.347
44745W        W 8304  16.220  20.217  13.510
44746W        W 8305   8.661  33.597  13.049
44747W        W 8306   3.218  26.531  14.021
44748W        W 8307   6.189  31.071  13.390
44749W        W 8308  15.640  26.151  13.870
44750W        W 8309  40.960  34.524  14.775
44751W        W 8310   7.315  28.015   4.633
44752W        W 8311  43.296  17.593  13.434
44753W        W 8312  39.439  18.554  12.461
44754W        W 8313   8.306  22.093   4.229
44755W        W 8314  41.351  30.624  12.937
44756W        W 8315  28.177  17.097  10.501
44757W        W 8316  16.783  26.673  10.455
44758W        W 8317   9.822  38.055  11.585
44759W        W 8318   0.921  23.688   4.336
44760W        W 8319  30.522  28.545   1.729
44761W        W 8320  30.117   4.759  14.516
44762W        W 8321  23.729   7.276  13.959
44763W        W 8322  34.102  27.488  12.840
44764W        W 8323  36.914  43.808  13.811
44765W        W 8324  22.580  22.029   1.392
44766W        W 8325  26.493  41.820  13.409
44767W        W 8326   7.782   1.335  14.922
44768W        W 8327  24.518  35.948   0.424
44769W        W 8328  26.679   1.269   1.820
44770W        W 8329  17.646   1.257   4.738
44771W        W 8330  42.491  36.883  14.002
44772W        W 8331   5.226   4.280  12.985
44773W        W 8332  22.179  11.796   0.773
44774W        W 8333   3.803  39.023   1.822
44775W        W 8334  13.297  37.546   4.218
44776W        W 8335  31.481  11.867   4.734
44777W        W 8336  20.554   7.335   3.788
44778W        W 8337   7.298  25.194   3.235
44779W        W 8338  38.360  26.956   1.319
44780W        W 8339  11.661   5.925  14.450
44781W        W 8340  31.936  26.659   4.232
44782W        W 8341  31.951  30.425  11.032
44783W        W 8342  35.531  14.630  11.451
44784W        W 8343  18.577  21.744  10.943
44785W        W 8344  32.420  38.432   2.875
44786W        W 8345  23.499  24.025   0.925
44787W        W 8346  33.383   2.771   3.751
44788W        W 8347  13.813  24.680   4.814
44789W        W 8348   9.160  20.264   0.296
44790W        W 8349  27.496  24.222  14.812
44791W        W 8350  15.738  19.765  14.844
44792W        W 8351  17.304  42.958   4.157
44793W        W 8352  39.873  27.053   2.882
44794W        W 8353  29.632  39.502   4.139
44795W        W 8354  15.705  17.293   0.319
44796W        W 8355  20.208   6.405   0.246
44797W        W 8356  36.417  14.160  14.783
44798W        W 8357  20.675  14.094  11.487
44799W        W 8358  23.533   6.313   3.664
44800W        W 8359   3.737  33.522  12.436
44801W        W 8360  41.805  14.589   0.393
44802W        W 8361  25.637  21.149   2.350
44803W        W 8362  21.123   8.305   0.296
44804W        W 8363  22.740  36.071   2.197
44805W        W 8364  10.299  31.424  11.951
44806W        W 8365   0.842  13.289   0.956
44807W        W 8366  38.467  35.047   5.760
44808W        W 8367  19.653  30.137   3.239
44809W        W 8368   3.233  42.824  13.959
44810W        W 8369  10.827  12.735  13.027
44811W        W 8370  20.735   2.377   4.340
44812W        W 8371  28.637  29.528  13.913
44813W        W 8372  34.952   3.312  14.296
44814W        W 8373   6.734   7.745  14.324
44815W        W 8374  42.357  29.486   0.386
44816W        W 8375  31.536  41.925  11.433
44817W        W 8376  14.706  27.691  11.429
44818W        W 8377  13.652  24.062   4.655
44819W        W 8378  38.906   1.938   4.118
44820W        W 8379   6.198  38.885  12.445
44821W        W 8380   3.906   6.340   1.781
44822W        W 8381  11.697   8.663  12.062
44823W        W 8382   6.277  33.495   3.186
44824W        W 8383  33.553   7.673   3.825
44825W        W 8384  30.148  40.926  14.400
44826W        W 8385  31.116  37.877   5.303
44827W        W 8386   5.321  13.225  14.322
44828W        W 8387  16.190  11.263   1.291
44829W        W 8388  11.699   7.215   9.990
44830W        W 8389   7.759  28.595   2.750
44831W        W 8390  26.618  41.787  12.976
44832W        W 8391  16.589  10.780   0.462
44833W        W 8392  31.482  10.145   0.443
44834W        W 8393  40.489   7.302   2.811
44835W        W 8394   6.292  33.002  14.895
44836W        W 8395  22.628   3.797  11.593
44837W        W 8396  16.804   1.396   3.687
44838W        W 8397  32.123  25.994   3.357
44839W        W 8398  22.511  27.562  11.401
44840W        W 8399  19.270  20.553   2.224
44841W        W 8400   2.895   9.391  12.352
44842W        W 8401  33.907  42.297  11.390
44843W        W 8402   4.266   0.862  10.623
44844W        W 8403  22.522  40.001   5.144
44845W        W 8404   3.340  24.653   1.870
44846W        W 8405  35.489  15.160  12.553
44847W        W 8406  37.857  18.662  10.990
44848W        W 8407  11.765  12.212   1.240
44849W        W 8408  17.663  37.074  13.993
44850W        W 8409  23.148  10.822  13.060
44851W        W 8410  30.633  24.085   1.234
44852W        W 8411  31.957  14.164   4.697
44853W        W 8412  26.101  33.606  11.014
44854W        W 8413  26.497   3.801   2.363
44855W        W 8414  25.709  18.253  11.488
44856W        W 8415  22.741  28.057   3.337
44857W        W 8416  27.536  12.674   4.821
44858W        W 8417  27.101  24.070   5.257
44859W        W 8418  31.535  42.024  13.469
44860W        W 8419  35.021  21.692  14.459
44861W        W 8420  24.987  38.026  12.404
44862W        W 8421  18.708  39.419  12.997
44863W        W 8422  15.177   2.795  12.896
44864W        W 8423  27.583   4.915   3.221
44865W        W 8424  44.340  27.177  14.862
44866W        W 8425  24.059  24.092   4.690
44867W        W 8426  10.183  44.391   2.384
44868W        W 8427  11.369  23.623  13.421
44869W        W 8428  29.640  35.566  10.967
44870W        W 8429  30.451  28.439   0.906
44871W        W 8430  23.719  43.878   0.246
44872W        W 8431  38.447  32.505  13.810
44873W        W 8432  15.312  25.149  13.322
44874W        W 8433  31.520  37.546   4.625
44875W        W 8434  18.134  22.221   3.262
44876W        W 8435  39.858  34.059   5.320
44877W        W 8436  33.941  25.034  13.545
44878W        W 8437  36.915  38.068   4.309
44879W        W 8438  19.143  14.222  10.599
44880W        W 8439  33.950  24.230   3.814
44881W        W 8440  32.002  24.049  11.492
44882W        W 8441  11.373  14.275  12.949
44883W        W 8442  23.020  38.480   1.377
44884W        W 8443  20.179  34.588   1.318
44885W        W 8444  42.305   5.725   0.470
44886W        W 8445   9.176   8.874   5.148
44887W        W 8446  37.938  27.658   2.237
44888W        W 8447   1.808  25.138   2.749
44889W        W 8448  36.028  30.486   1.920
44890W        W 8449  22.083  11.369  13.966
44891W        W 8450  43.456  11.669   1.891
44892W        W 8451  16.668   4.808   1.373
44893W        W 8452   5.872  14.737  11.129
44894W        W 8453  28.159  19.698   3.310
44895W        W 8454  35.032  22.721  11.054
44896W        W 8455  17.615  28.985   4.290
44897W        W 8456  10.643  35.000   1.346
44898W        W 8457  29.139  29.548   3.169
44899W        W 8458  42.355   0.385   3.384
44900W        W 8459  26.997   6.248  11.449
44901W        W 8460  42.503   3.236  11.549
44902W        W 8461  20.044   6.405  13.834
44903W        W 8462  42.380  41.973   2.374
44904W        W 8463  31.618   2.730   3.649
44905W        W 8464  38.950  41.976   3.299
44906W        W 8465   5.897  34.991   4.163
44907W        W 8466  23.022  18.284  11.123
44908W        W 8467  34.371  40.414   4.726
44909W        W 8468  37.363  24.171  12.853
44910W        W 8469  33.591  38.998   1.694
44911W        W 8470  43.961  30.072  14.377
44912W        W 8471  10.213  15.308   5.710
44913W        W 8472  42.501   8.833   4.119
44914W        W 8473   7.175  40.024  14.397
44915W        W 8474  38.040  18.657   2.336
44916W        W 8475  36.401  37.000   3.218
44917W        W 8476  30.947   7.405   2.687
44918W        W 8477  42.912  33.439  14.911
44919W        W 8478   2.793  42.939  11.438
44920W        W 8479  34.963  25.026  14.014
44921W        W 8480  42.431  17.655   1.742
44922W        W 8481   9.712  42.824  10.981
44923W        W 8482  22.079  11.711  10.557
44924W        W 8483  20.698  30.938   2.255
44925W        W 8484  13.674  37.054  13.021
44926W        W 8485  17.602  23.697  11.514
44927W        W 8486  26.605  33.464  11.378
44928W        W 8487   6.897   4.879  12.563
44929W        W 8488   6.406  38.826   4.316
44930W        W 8489   5.693  35.068   3.164
44931W        W 8490   6.413  35.507  10.906
44932W        W 8491  20.630  44.376   2.299
44933W        W 8492  28.475  15.104   4.172
44934W        W 8493  21.018  41.447   4.834
44935W        W 8494  26.104  28.628   0.794
44936W        W 8495   8.883   5.785   3.709
44937W        W 8496  24.047  32.506   2.276
44938W        W 8497   7.771  22.560  11.555
44939W        W 8498  35.429  42.282   2.769
44940W        W 8499  26.025  15.265  10.521
44941W        W 8500   4.215  19.681   2.369
44942W        W 8501   9.667  11.708   1.794
44943W        W 8502  18.193  34.573   1.904
44944W        W 8503  38.033   9.361   9.962
44945W        W 8504  17.648  31.959   3.746
44946W        W 8505  17.172  43.950   1.724
44947W        W 8506  19.733  11.335   4.612
44948W        W 8507  32.997  41.388   2.825
44949W        W 8508  36.019  41.854   2.875
44950W        W 8509  25.660  13.237  13.361
44951W        W 8510  43.879  10.823  14.361
44952W        W 8511   3.729   3.745  11.948
44953W        W 8512  26.979  28.128   2.705
44954W        W 8513  42.373   8.721   2.725
44955W        W 8514  36.017  20.720  12.483
44956W        W 8515  31.058  16.173  12.477
44957W        W 8516  43.269  24.065   2.363
44958W        W 8517  10.347  14.223   2.896
44959W        W 8518   5.244   4.327  13.998
44960W        W 8519  35.098  33.935  14.873
44961W        W 8520  17.152   2.254   4.700
44962W        W 8521  44.853   7.691  13.414
44963W        W 8522   4.762  40.322  10.133
44964W        W 8523   5.838  23.706   0.946
44965W        W 8524   3.849   7.273   0.257
44966W        W 8525  22.144   9.349   0.290
44967W        W 8526  11.244  30.458  14.015
44968W        W 8527  33.418  41.421   4.142
44969W        W 8528  40.940  14.686  11.567
44970W        W 8529  28.655   1.877  11.520
44971W        W 8530  31.990   6.804   2.874
44972W        W 8531  25.204  33.388  12.423
44973W        W 8532  42.888  43.996   4.825
44974W        W 8533  38.867  13.833   3.786
44975W        W 8534  10.813  19.745   3.828
44976W        W 8535  21.184   5.825  14.859
44977W        W 8536  31.546  39.406   2.339
44978W        W 8537  29.094  24.005   3.835
44979W        W 8538  18.270   5.710  11.008
44980W        W 8539  16.630  16.300  13.444
44981W        W 8540  26.067  19.613   2.666
44982W        W 8541  31.068  11.240   1.343
44983W        W 8542   2.278  32.054   2.808
44984W        W 8543  22.065  36.479   2.710
44985W        W 8544  33.981   3.870  14.294
44986W        W 8545   4.249  11.225  11.948
44987W        W 8546   7.836  14.732  12.543
44988W        W 8547   1.826  40.899  12.482
44989W        W 8548  12.269  18.260   2.307
44990W        W 8549  25.974  27.628   1.813
44991W        W 8550  23.133  18.617  12.454
44992W        W 8551  38.064  15.750   1.751
44993W        W 8552  33.437  29.456   2.781
44994W        W 8553  30.946  38.559  13.483
44995W        W 8554  28.604  29.113   4.243
44996W        W 8555  15.267  10.860   0.749
44997W        W 8556  14.619  41.416  12.832
44998W        W 8557  44.301  30.609   2.203
44999W        W 8558   9.821  17.176  12.048
45000W        W 8559  21.064   4.763   2.799
45001W        W 8560  12.226  30.023   1.364
45002W        W 8561  38.838   9.714  12.913
45003W        W 8562  14.207  26.981   3.288
45004W        W 8563  28.596  33.961  11.123
45005W        W 8564  17.588  27.501  11.518
45006W        W 8565  43.913   5.356   1.256
45007W        W 8566  31.612  28.566   4.608
45008W        W 8567  27.080  40.433   0.866
45009W        W 8568  37.907  38.983   4.751
45010W        W 8569  35.399  18.286  13.896
45011W        W 8570  18.765  30.537   3.661
45012W        W 8571  29.952  34.420  12.086
45013W        W 8572   0.327  27.122   0.881
45014W        W 8573  27.660  39.843  14.840
45015W        W 8574  12.131  19.281  14.383
45016W        W 8575  10.671  39.388   4.272
45017W        W 8576  26.208  11.775  11.114
45018W        W 8577   7.340  44.959   2.250
45019W        W 8578  31.510  36.000  13.878
45020W        W 8579  40.932  25.214  13.984
45021W        W 8580  11.846  17.607   2.337
45022W        W 8581   8.876  30.594  13.414
45023W        W 8582  40.906   5.378   0.247
45024W        W 8583  10.282  30.022  12.074
45025W        W 8584  25.099  18.707  11.433
45026W        W 8585  41.799  23.644   3.756
45027W        W 8586  44.406  28.075   4.352
45028W        W 8587   6.824  39.029   1.428
45029W        W 8588  35.061  40.801  13.928
45030W        W 8589  29.001  32.126   4.267
45031W        W 8590  12.116  28.971  14.477
45032W        W 8591   7.294   7.857  11.522
45033W        W 8592   1.927  37.971  12.546
45034W        W 8593  23.645  33.553   0.847
45035W        W 8594  23.714  32.431  14.370
45036W        W 8595  41.795   4.303  14.435
45037W        W 8596  42.517  28.036  11.998
45038W        W 8597  20.620  26.086  14.838
45039W        W 8598  29.623   0.417   2.360
45040W        W 8599  22.019  38.844  14.890
45041W        W 8600   4.301   9.836   0.372
45042W        W 8601  22.213   3.843   1.320
45043W        W 8602  18.770  38.904   2.267
45044W        W 8603  23.997  41.532  11.066
45045W        W 8604  26.047  19.585   4.702
45046W        W 8605   7.720  40.862  12.457
45047W        W 8606  35.076  30.050   0.812
45048W        W 8607  44.313   9.261  13.807
45049W        W 8608  43.999  28.008   0.284
45050W        W 8609  43.823  36.943   2.204
45051W        W 8610   4.360   8.254   3.282
45052W        W 8611  27.050  42.836  10.912
45053W        W 8612   0.351  39.831  10.972
45054W        W 8613  29.920  44.959   4.666
45055W        W 8614  33.626  11.755   0.767
45056W        W 8615  34.044   5.825  11.411
45057W        W 8616  17.780  33.489   4.154
45058W        W 8617   5.238  37.005  14.014
45059W        W 8618  24.617  16.705   3.230
45060W        W 8619  14.628  25.581   2.828
45061W        W 8620   3.800   6.302  11.445
45062W        W 8621   6.342   8.698   4.269
45063W        W 8622  27.446  28.599   3.239
45064W        W 8623   7.247  25.653  13.981
45065W        W 8624  44.477  18.115   3.643
45066W        W 8625  41.787  29.646  12.510
45067W        W 8626  22.134  43.783   2.851
45068W        W 8627  15.692  41.425  11.473
45069W        W 8628   3.821  20.271  12.057
45070W        W 8629  31.513  11.632  13.496
45071W        W 8630  40.863   1.839  12.900
45072W        W 8631  36.975  40.915   0.741
45073W        W 8632  16.653  30.158   1.858
45074W        W 8633  10.153   0.331  11.448
45075W        W 8634  11.728  13.252  14.467
45076W        W 8635  19.254  43.986  13.373
45077W        W 8636  20.577   3.757  10.643
45078W        W 8637   3.214  15.722  14.322
45079W        W 8638  37.960  40.534   3.221
45080W        W 8639  35.016   6.252   0.929
45081W        W 8640   9.166  36.381  13.313
45082W        W 8641   0.827  41.354   0.893
45083W        W 8642  28.106  38.045  14.995
45084W        W 8643  37.011  31.439  13.942
45085W        W 8644  29.454   1.287  10.626
45086W        W 8645  38.886  28.127   0.313
45087W        W 8646  36.522  44.426   0.442
45088W        W 8647   4.910  30.919   2.183
45089W        W 8648  22.746  18.584   2.178
45090W        W 8649  39.532  28.560  13.983
45091W        W 8650  12.811  16.162  13.406
45092W        W 8651  36.947  17.170   2.216
45093W        W 8652  43.889  28.113  10.457
45094W        W 8653  19.169  39.029  14.478
45095W        W 8654  38.534  10.152  14.806
45096W        W 8655  22.696  32.120   2.887
45097W        W 8656  12.328   4.328   2.336
45098W        W 8657  11.807   0.948   4.640
45099W        W 8658  37.923  15.194   0.910
45100W        W 8659   3.356  28.109  12.466
45101W        W 8660  11.810   2.249  14.405
45102W        W 8661  30.026  14.756  11.083
45103W        W 8662  24.715  44.276  13.980
45104W        W 8663  18.115  42.327   0.855
45105W        W 8664  33.620  36.885   0.445
45106W        W 8665  18.604  28.507   2.847
45107W        W 8666  16.218  33.121   3.362
45108W        W 8667   5.793  36.373   4.821
45109W        W 8668  16.107  33.060   2.693
45110W        W 8669  24.488  15.218   3.385
45111W        W 8670  23.619  15.177  13.533
45112W        W 8671  10.703  17.161   3.156
45113W        W 8672  27.172  44.881   1.722
45114W        W 8673  31.556  30.150   1.839
45115W        W 8674  18.250  43.901   0.244
45116W        W 8675  31.142  42.883   4.305
45117W        W 8676   3.944   3.859   3.686
45118W        W 8677  43.303  16.589  14.382
45119W        W 8678  16.100   0.983  11.543
45120W        W 8679  22.647  38.890   4.197
45121W        W 8680  31.605   2.807  10.582
45122W        W 8681  29.091  27.545  12.915
45123W        W 8682   2.307  37.473  10.900
45124W        W 8683  31.122   1.745   3.725
45125W        W 8684   2.394   3.215  12.515
45126W        W 8685  34.943   4.909   2.768
45127W        W 8686  44.266  13.343   1.734
45128W        W 8687  40.394  41.437  12.997
45129W        W 8688  31.941  31.472  10.540
45130W        W 8689  13.653   5.920  14.801
45131W        W 8690  38.001  21.073  12.834
45132W        W 8691  40.852  15.785  10.965
45133W        W 8692  25.608   9.777  11.578
45134W        W 8693  20.072   8.328  13.876
45135W        W 8694   1.969  27.144   1.430
45136W        W 8695  32.532  26.176  10.946
45137W        W 8696  30.947  39.342   0.913
45138W        W 8697  24.546   9.684  12.341
45139W        W 8698  29.933  39.024  14.461
45140W        W 8699  38.405  13.677   1.262
45141W        W 8700  23.224   1.307   4.154
45142W        W 8701  22.684   9.680  11.593
45143W        W 8702   2.310   8.768  13.821
45144W        W 8703   3.747  15.615  12.462
45145W        W 8704  30.452  35.960   4.674
45146W        W 8705  19.177  23.672  12.352
45147W        W 8706  41.387  15.614   0.761
45148W        W 8707  37.469  28.572  11.128
45149W        W 8708  33.506  23.201  14.394
45150W        W 8709  21.206  32.129   2.224
45151W        W 8710   4.795  18.690  11.536
45152W        W 8711  18.718  31.976   0.273
45153W        W 8712  30.034  25.646   2.712
45154W        W 8713   2.840   2.275  13.488
45155W        W 8714  43.404  21.171  14.902
45156W        W 8715  37.338  31.994   5.264
45157W        W 8716  30.921  31.453   0.380
45158W        W 8717  17.307  18.181  14.372
45159W        W 8718  31.455  16.793   1.361
45160W        W 8719  39.935  41.893   0.785
45161W        W 8720   6.281   8.225  11.868
45162W        W 8721   7.216   4.802  10.431
45163W        W 8722   5.817  11.746   4.834
45164W        W 8723  10.737  15.721  13.320
45165W        W 8724  37.468  20.220  13.512
45166W        W 8725  22.701  18.665   2.892
45167W        W 8726  18.294  14.298   4.838
45168W        W 8727   3.740   7.850  10.917
45169W        W 8728   1.322  17.204  12.885
45170W        W 8729  33.419  33.935  10.529
45171W        W 8730  31.138  26.471  10.410
45172W        W 8731  19.692  44.383   4.173
45173W        W 8732  34.036   1.286   4.230
45174W        W 8733  25.661   0.304   1.733
45175W        W 8734   8.379  26.180   0.948
45176W        W 8735  14.819   6.710   0.936
45177W        W 8736   8.678  43.021   2.305
45178W        W 8737   6.323  15.209   2.272
45179W        W 8738  38.505  25.547   1.234
45180W        W 8739   0.471  17.704  12.972
45181W        W 8740   2.722  24.225   1.833
45182W        W 8741  22.075  12.243  11.508
45183W        W 8742   2.956  35.476  12.955
45184W        W 8743  35.865  43.306   4.738
45185W        W 8744  14.623  21.068   0.304
45186W        W 8745  20.663  26.604  13.414
45187W        W 8746  25.688  43.386   4.837
45188W        W 8747  38.475  25.980  14.404
45189W        W 8748  43.842  19.545   1.401
45190W        W 8749  16.201  22.045   1.360
45191W        W 8750   5.708  38.935   1.311
45192W        W 8751  23.702  32.448  10.567
45193W        W 8752   0.428  25.530   2.683
45194W        W 8753  11.705  27.033  13.824
45195W        W 8754  30.468  22.513   4.828
45196W        W 8755  41.319  13.236   0.323
45197W        W 8756  26.992  10.849  14.440
45198W        W 8757  32.075  38.462  13.852
45199W        W 8758  34.435   1.935  14.441
45200W        W 8759  23.164  20.182  14.885
45201W        W 8760  40.937  15.676   2.375
45202W        W 8761  24.602  42.822   3.179
45203W        W 8762  32.030   2.434   2.853
45204W        W 8763  36.394  26.130   3.760
45205W        W 8764  20.268  30.643  14.920
45206W        W 8765   5.917  15.150  12.068
45207W        W 8766  43.332  30.534   5.191
45208W        W 8767  21.628   7.826   0.886
45209W        W 8768  26.078  22.139  14.387
45210W        W 8769  27.993   4.768   3.809
45211W        W 8770  11.790  25.130  13.436
45212W        W 8771  13.630  40.496   1.832
45213W        W 8772  33.994   4.443  11.094
45214W        W 8773  17.756  43.474   3.199
45215W        W 8774  44.888  41.799   4.178
45216W        W 8775  28.081  31.033   2.740
45217W        W 8776  27.999  21.103   2.356
45218W        W 8777   9.702  44.310  10.972
45219W        W 8778  12.120  12.788  13.841
45220W        W 8779  43.892  37.553   3.339
45221W        W 8780   5.349  12.226  12.033
45222W        W 8781  42.359  15.659  10.569
45223W        W 8782  44.802   0.338  10.624
45224W        W 8783  39.418  16.739   1.375
45225W        W 8784  30.961   6.767   1.238
45226W        W 8785  40.927  31.109  13.335
45227W        W 8786  31.902  26.461  11.379
45228W        W 8787  12.648  41.801   1.803
45229W        W 8788  29.954  24.002   3.184
45230W        W 8789   3.827   6.354   1.368
45231W        W 8790  33.594  42.870  11.553
45232W        W 8791  17.214  17.799   3.154
45233W        W 8792  22.701  24.606  13.507
45234W        W 8793  10.166  20.104  11.534
45235W        W 8794   2.791  28.051  14.967
45236W        W 8795   7.797  22.108  13.956
45237W        W 8796   4.244   5.278   4.327
45238W        W 8797  11.693  14.666   5.175
45239W        W 8798  32.948  16.657  11.508
45240W        W 8799  37.859  37.839   3.169
45241W        W 8800  28.618   6.287   4.632
45242W        W 8801  39.465   1.291  13.434
45243W        W 8802   0.264  29.544   4.736
45244W        W 8803  40.974  16.778  12.469
45245W        W 8804  38.408  10.149   0.444
45246W        W 8805   6.692  21.541   2.338
45247W        W 8806  28.555  21.611  11.042
45248W        W 8807  32.441  12.672   5.203
45249W        W 8808  39.413   6.279  13.311
45250W        W 8809  21.163   5.249  14.308
45251W        W 8810  18.105  25.078  12.519
45252W        W 8811  38.498   9.866  10.408
45253W        W 8812  10.736  22.118  14.024
45254W        W 8813   9.209  23.717  14.788
45255W        W 8814   6.182  34.480   3.778
45256W        W 8815  13.663  28.966  10.645
45257W        W 8816  20.056  41.462  14.983
45258W        W 8817   3.916  41.010   2.887
45259W        W 8818  29.538  38.378  11.579
45260W        W 8819  14.590  28.989   5.197
45261W        W 8820   6.342  43.956   2.890
45262W        W 8821  26.542  19.715   1.270
45263W        W 8822  19.236  28.108   5.778
45264W        W 8823  24.584  37.872  13.412
45265W        W 8824   0.851  40.322   4.752
45266W        W 8825  35.510  16.700   1.828
45267W        W 8826  23.209  40.878   3.650
45268W        W 8827  17.654  28.171  13.817
45269W        W 8828   6.890  16.661  13.942
45270W        W 8829  16.768   6.270   1.319
45271W        W 8830  21.561   3.769  13.011
45272W        W 8831  21.638  26.456  10.941
45273W        W 8832  15.211  35.502  14.840
45274W        W 8833  26.483  10.805   1.226
45275W        W 8834   3.318  36.002  11.540
45276W        W 8835  32.602  32.426   2.235
45277W        W 8836   0.252  13.219   0.728
45278W        W 8837   8.284  14.150   0.924
45279W        W 8838  16.796  21.222   3.771
45280W        W 8839   1.915  31.565  13.984
45281W        W 8840  18.137  27.447   2.896
45282W        W 8841  15.761  27.618  11.876
45283W        W 8842  19.280  37.998  13.834
45284W        W 8843   8.161  25.672   4.803
45285W        W 8844   1.930   0.369  12.849
45286W        W 8845  12.224  33.437   4.189
45287W        W 8846  44.760  38.890   4.835
45288W        W 8847  22.635  38.399   2.806
45289W        W 8848  30.444  19.216   1.696
45290W        W 8849  38.396  14.790  10.467
45291W        W 8850   4.853  43.952  11.399
45292W        W 8851  36.353  28.116  13.361
45293W        W 8852   2.451  41.885  11.380
45294W        W 8853  33.116   3.337   4.716
45295W        W 8854   9.813  10.200   2.218
45296W        W 8855  40.952  23.575  11.029
45297W        W 8856  38.026  32.539  10.499
45298W        W 8857  24.549  33.424  12.518
45299W        W 8858  14.819  30.616   3.324
45300W        W 8859  34.975  13.146  10.419
45301W        W 8860  44.313  14.165   1.797
45302W        W 8861  33.553  43.513   2.272
45303W        W 8862  44.466  18.071   4.766
45304W        W 8863  25.185   8.680  10.576
45305W        W 8864  32.566   2.945   4.706
45306W        W 8865  10.861  38.931  12.552
45307W        W 8866  22.618  24.140  14.011
45308W        W 8867  38.468  16.307  11.034
45309W        W 8868  38.377  29.089  13.372
45310W        W 8869   1.871  18.722  11.589
45311W        W 8870  31.986  41.836  13.901
45312W        W 8871  31.465  25.522   4.259
45313W        W 8872  25.965  37.946   0.892
45314W        W 8873   6.206   0.318  11.942
45315W        W 8874  38.443  16.172   2.365
45316W        W 8875  39.382  30.591  14.902
45317W        W 8876  13.738  32.411   0.807
45318W        W 8877  30.952   2.833   0.398
45319W        W 8878   8.656  17.190   0.904
45320W        W 8879  31.932  10.678   0.776
45321W        W 8880  12.318  44.296   0.366
45322W        W 8881  42.910  20.213  11.585
45323W        W 8882  36.027  44.453   1.241
45324W        W 8883  21.209  36.090  12.573
45325W        W 8884  29.060  35.567  11.393
45326W        W 8885  24.163   5.732   2.198
45327W        W 8886  19.120  39.031   4.261
45328W        W 8887   7.374  22.664  12.962
45329W        W 8888  25.012  39.501  10.596
45330W        W 8889  23.170   1.846  12.391
45331W        W 8890  25.058  44.891  12.077
45332W        W 8891  13.201   8.242   0.371
45333W        W 8892  28.980  37.057   2.402
45334W        W 8893  17.105  24.637   3.743
45335W        W 8894  39.976  18.247   3.700
45336W        W 8895   5.835  15.113  10.980
45337W        W 8896  21.580  22.213  13.439
45338W        W 8897  33.611  43.505  13.856
45339W        W 8898  36.426  25.183  10.639
45340W        W 8899  44.995  31.956   4.235
45341W        W 8900  18.089   4.309   2.393
45342W        W 8901  12.799   2.281   2.364
45343W        W 8902  20.114   2.808  13.428
45344W        W 8903  20.097   0.295  12.569
45345W        W 8904  34.942  13.326  13.842
45346W        W 8905  41.915  33.060  12.870
45347W        W 8906  17.773   7.903   2.271
45348W        W 8907   8.357   1.971  10.612
45349W        W 8908  15.159  23.110  10.481
45350W        W 8909  42.441  31.414   0.434
45351W        W 8910   1.974  12.324   3.270
45352W        W 8911   2.382  13.696   0.250
45353W        W 8912   9.379  14.160  13.540
45354W        W 8913  31.408  23.708  13.925
45355W        W 8914   1.969  39.376   2.301
45356W        W 8915  29.039  27.608   0.438
45357W        W 8916   0.833  18.703  11.394
45358W        W 8917  14.128  28.087   5.254
45359W        W 8918  21.216  12.773   1.433
45360W        W 8919   5.311  26.538   2.300
45361W        W 8920  34.568   7.806   2.688
45362W        W 8921  19.543  39.832  13.907
45363W        W 8922  28.949  38.486  12.862
45364W        W 8923  28.177  19.547   4.304
45365W        W 8924  15.088  10.304   0.892
45366W        W 8925  26.193  14.242  12.005
45367W        W 8926  21.089  42.821  12.440
45368W        W 8927   0.834  17.283   1.323
45369W        W 8928   7.305   2.385  12.542
45370W        W 8929  44.379  24.060   4.788
45371W        W 8930  12.196  40.015  13.547
45372W        W 8931  36.070  15.662   4.706
45373W        W 8932  34.879  36.014  10.022
45374W        W 8933  19.268  11.800   0.782
45375W        W 8934  26.967  21.020  10.479
45376W        W 8935  31.465   5.298  13.006
45377W        W 8936  44.461  27.119   4.801
45378W        W 8937  27.088  34.012  12.418
45379W        W 8938  15.267  26.526   4.768
45380W        W 8939   0.754  10.731  11.376
45381W        W 8940   2.772   1.422  14.384
45382W        W 8941   0.816  13.741   1.826
45383W        W 8942  21.025  12.184   3.337
45384W        W 8943  32.551  16.153   3.811
45385W        W 8944  32.614  17.278  10.592
45386W        W 8945  30.020  37.059  14.887
45387W        W 8946  32.570  29.566  10.480
45388W        W 8947   0.388   8.810  10.041
45389W        W 8948   0.960  15.299   4.806
45390W        W 8949   4.828  44.854  14.774
45391W        W 8950  27.966  34.058   1.784
45392W        W 8951  39.320  13.310  12.839
45393W        W 8952  34.472   8.853   1.446
45394W        W 8953  42.420  37.063   2.700
45395W        W 8954  16.716   5.217   3.719
45396W        W 8955  13.743  22.026  10.107
45397W        W 8956  39.344  31.529  14.008
45398W        W 8957  23.663  20.650  12.858
45399W        W 8958   5.890   6.264   0.395
45400W        W 8959  33.446  25.968   3.682
45401W        W 8960  39.482  37.384   1.333
45402W        W 8961  26.480   8.876  10.586
45403W        W 8962   9.829  27.998  12.495
45404W        W 8963  28.936  39.851  11.385
45405W        W 8964   5.410   9.830  11.892
45406W        W 8965  41.483  37.865  11.097
45407W        W 8966  23.605  28.539   2.711
45408W        W 8967  28.439  26.657   2.278
45409W        W 8968  16.573  35.990  11.379
45410W        W 8969  43.308  15.319   2.846
45411W        W 8970  17.685   0.253  11.504
45412W        W 8971  11.223  10.312  11.863
45413W        W 8972  31.453  25.538   2.777
45414W        W 8973   4.898  10.335   4.312
45415W        W 8974  22.139  31.150   1.911
45416W        W 8975  10.341   2.809   3.148
45417W        W 8976  35.907  38.837  13.528
45418W        W 8977  36.568  29.495   0.741
45419W        W 8978  27.135  33.063   4.780
45420W        W 8979  19.112   6.727   0.384
45421W        W 8980   9.872  40.042   3.687
45422W        W 8981   7.394  40.443  10.579
45423W        W 8982   0.323  22.111  11.436
45424W        W 8983   8.685  22.633   3.190
45425W        W 8984  14.130  23.500  13.399
45426W        W 8985  17.160  25.680   3.190
45427W        W 8986  34.589  10.191   2.368
45428W        W 8987  37.043   4.923  14.458
45429W        W 8988   7.184  27.081  13.410
45430W        W 8989   9.218  38.365  14.893
45431W        W 8990  44.785  37.372  11.018
45432W        W 8991   6.421  40.937   3.242
45433W        W 8992  26.152  24.228  12.437
45434W        W 8993   5.193  44.266  13.365
45435W        W 8994   3.321  24.613  12.463
45436W        W 8995  42.356  16.158   2.673
45437W        W 8996  17.747   3.730   4.170
45438W        W 8997  36.393  34.918   2.733
45439W        W 8998  18.595   5.252  14.504
45440W        W 8999  39.817  10.269  11.403
45441W        W 9000  14.709  43.316   0.456
45442W        W 9001   3.779  23.571  12.930
45443W        W 9002   1.976  13.618   1.765
45444W        W 9003  13.622  23.020  10.525
45445W        W 9004  43.453  11.243  12.553
45446W        W 9005  25.135  37.925   0.249
45447W        W 9006  23.209   3.826   3.347
45448W        W 9007  39.908  12.731   1.721
45449W        W 9008  15.622  27.119  14.849
45450W        W 9009  27.996  13.625   0.482
45451W        W 9010  31.607  29.022  12.568
45452W        W 9011  26.629  16.643   0.456
45453W        W 9012  40.050  22.198   0.920
45454W        W 9013  39.027  14.700  14.001
45455W        W 9014  34.486  17.712  13.310
45456W        W 9015  25.199  17.713  13.907
45457W        W 9016  25.547  10.632   2.194
45458W        W 9017  33.049  34.905  13.535
45459W        W 9018  40.479   5.874  10.521
45460W        W 9019  43.912  11.840  14.489
45461W        W 9020  22.026  28.047   1.905
45462W        W 9021  17.605   2.828   0.354
45463W        W 9022  33.402  39.469  10.918
45464W        W 9023  44.496  10.341   5.126
45465W        W 9024  35.978  17.262  14.910
45466W        W 9025  37.872   8.884  13.793
45467W        W 9026   5.813  25.521  14.844
45468W        W 9027  39.057  21.038   1.886
45469W        W 9028  20.131  33.530   0.439
45470W        W 9029  39.455  32.547  12.827
45471W        W 9030  44.875  36.050   2.318
45472W        W 9031  23.985  26.199  14.938
45473W        W 9032  31.569  38.857  11.416
45474W        W 9033  26.067  25.085  10.585
45475W        W 9034  41.865   4.414   3.819
45476W        W 9035   4.223  19.143  12.993
45477W        W 9036  16.232  30.445  11.088
45478W        W 9037  34.398  20.244  14.481
45479W        W 9038  15.680  42.895  12.987
45480W        W 9039   7.205  17.556  10.509
45481W        W 9040  26.641  36.570   1.403
45482W        W 9041  33.537  26.667   3.189
45483W        W 9042   2.454  41.006  11.044
45484W        W 9043  18.600  25.089  12.017
45485W        W 9044  22.071  18.748  12.444
45486W        W 9045  35.424  40.353  12.043
45487W        W 9046  36.861  35.058  13.533
45488W        W 9047  38.554   4.391   0.269
45489W        W 9048  12.779  19.717   1.795
45490W        W 9049   3.367   5.924  13.791
45491W        W 9050  31.911  20.125   2.883
45492W        W 9051  41.358  19.771  14.381
45493W        W 9052   0.284  25.062  14.340
45494W        W 9053  34.578   2.312   0.775
45495W        W 9054  13.285  18.755  11.577
45496W        W 9055  20.146   1.305  12.479
45497W        W 9056  36.913  43.515   2.417
45498W        W 9057   5.932  29.588  14.018
45499W        W 9058  34.425   1.779   4.164
45500W        W 9059  16.631  39.961  12.377
45501W        W 9060  16.623  10.789   3.658
45502W        W 9061  20.560  44.484   1.707
45503W        W 9062  12.172  22.523   1.810
45504W        W 9063   0.368  15.227   0.316
45505W        W 9064   8.672  29.634  14.436
45506W        W 9065   8.767  30.477  11.529
45507W        W 9066  28.442  42.835   1.740
45508W        W 9067  44.328   0.898  10.510
45509W        W 9068  33.582  37.431   1.817
45510W        W 9069  10.249  13.231   0.823
45511W        W 9070  41.968  14.736   4.732
45512W        W 9071   5.212  37.975  10.923
45513W        W 9072   0.457  34.946   4.834
45514W        W 9073  44.370  15.255  10.969
45515W        W 9074  36.991  29.958  12.421
45516W        W 9075  32.901  14.780   2.895
45517W        W 9076  42.838  33.112  11.018
45518W        W 9077  31.962  36.857  12.036
45519W        W 9078  24.514  36.503  10.464
45520W        W 9079  20.215  26.556   0.817
45521W        W 9080  28.560   6.363   0.949
45522W        W 9081  22.648  26.499   4.182
45523W        W 9082  32.065  28.551  13.885
45524W        W 9083   4.297  28.069  12.993
45525W        W 9084  17.150  34.976  14.352
45526W        W 9085  40.006  12.722   0.409
45527W        W 9086  24.505  32.509  13.926
45528W        W 9087  21.235   9.179   5.129
45529W        W 9088  20.693  44.998   3.361
45530W        W 9089  18.262  43.778   3.726
45531W        W 9090  10.283  38.450  10.058
45532W        W 9091  17.233   2.775   3.244
45533W        W 9092  17.718  21.700   0.874
45534W        W 9093   3.735  26.614  13.988
45535W        W 9094  28.531  30.485  11.450
45536W        W 9095  39.027  36.367   2.370
45537W        W 9096   9.250  22.097  11.026
45538W        W 9097  13.707   2.843   0.795
45539W        W 9098  19.591  25.038   4.231
45540W        W 9099   3.404   3.355  10.974
45541W        W 9100  39.515  30.427  12.849
45542W        W 9101   7.775  43.976   3.281
45543W        W 9102   6.779   5.698   1.753
45544W        W 9103  24.615   6.741   2.288
45545W        W 9104  19.569  28.540   2.211
45546W        W 9105  40.481  10.333   3.857
45547W        W 9106   6.685   1.431   3.343
45548W        W 9107  15.271  22.129   3.768
45549W        W 9108  12.739   0.770  10.548
45550W        W 9109  14.789  26.967   3.833
45551W        W 9110  22.629  11.630   2.805
45552W        W 9111  30.516  11.694  12.952
45553W        W 9112   5.828  35.384   2.198
45554W        W 9113  15.733  15.673  10.957
45555W        W 9114  33.435  16.714   2.869
45556W        W 9115   2.433  24.040   2.793
45557W        W 9116  12.709  30.922   2.881
45558W        W 9117  28.586  13.773  13.798
45559W        W 9118  13.341   9.363   4.135
45560W        W 9119  44.503  35.998  13.376
45561W        W 9120  40.040  31.913  11.012
45562W        W 9121  11.679  20.129   2.405
45563W        W 9122  17.752   5.742  13.497
45564W        W 9123  12.753  26.996   1.444
45565W        W 9124  19.210  23.154  10.438
45566W        W 9125   0.834  14.679   1.341
45567W        W 9126  39.557   9.812   1.302
45568W        W 9127  34.572  35.082  12.964
45569W        W 9128  29.155  11.712  12.093
45570W        W 9129  42.513  18.784   3.306
45571W        W 9130  27.076  13.757   1.820
45572W        W 9131  30.943  13.240   1.244
45573W        W 9132  10.702  11.268   2.218
45574W        W 9133  39.063  32.432   3.383
45575W        W 9134  15.723  40.364   0.290
45576W        W 9135  33.447   8.276   0.821
45577W        W 9136  32.033   7.326   2.387
45578W        W 9137  14.328  39.553   4.607
45579W        W 9138  39.826  32.100   2.686
45580W        W 9139   4.936  15.799   1.841
45581W        W 9140  40.052  19.096   0.920
45582W        W 9141  29.115   4.896  10.522
45583W        W 9142  16.221  40.427  11.548
45584W        W 9143  24.505  21.529  13.418
45585W        W 9144  21.249  23.176  13.922
45586W        W 9145  31.080  25.126  12.453
45587W        W 9146  32.447   3.720  11.126
45588W        W 9147  39.961  43.482   0.918
45589W        W 9148  19.656   4.801   3.746
45590W        W 9149  38.901  44.421  13.811
45591W        W 9150  26.031  20.564   4.344
45592W        W 9151  41.004  41.039   4.785
45593W        W 9152   8.288  38.880  13.881
45594W        W 9153  32.116  26.506   3.731
45595W        W 9154   5.305   9.259   4.790
45596W        W 9155  41.986  15.786   3.762
45597W        W 9156  30.911   3.956  12.382
45598W        W 9157  42.318   2.848   0.810
45599W        W 9158   1.745  40.003  13.491
45600W        W 9159   3.905   7.758   0.410
45601W        W 9160  20.702  10.164   2.894
45602W        W 9161  20.198   4.816  13.326
45603W        W 9162  37.463  23.498   4.609
45604W        W 9163  40.814   8.665   1.253
45605W        W 9164  27.509   2.857   1.313
45606W        W 9165  33.533  20.558  10.463
45607W        W 9166  41.018  31.072  14.827
45608W        W 9167  30.125  40.545   3.860
45609W        W 9168  39.392   0.978   3.674
45610W        W 9169  43.404  34.888   0.878
45611W        W 9170  22.688  41.922  13.347
45612W        W 9171   9.205  35.555  14.792
45613W        W 9172  16.131   1.789   1.328
45614W        W 9173   3.423  36.970   3.861
45615W        W 9174  19.157  21.125   4.621
45616W        W 9175  35.888   2.946  14.351
45617W        W 9176  28.020  25.978  11.044
45618W        W 9177   3.844  26.185  11.939
45619W        W 9178   5.746   6.225   1.784
45620W        W 9179  29.951  29.104   4.659
45621W        W 9180  10.271  27.089   4.748
45622W        W 9181  22.655   2.842   1.935
45623W        W 9182  23.493  40.388   2.693
45624W        W 9183  33.904  37.343  12.471
45625W        W 9184  37.578  31.952  10.893
45626W        W 9185  44.936  28.619   1.273
45627W        W 9186   6.262  32.039   1.390
45628W        W 9187  23.218  32.455   0.754
45629W        W 9188  14.134   2.829  11.379
45630W        W 9189  24.604  14.674   3.672
45631W        W 9190  30.520  10.799   3.643
45632W        W 9191  21.139  34.572   4.723
45633W        W 9192  38.503  44.894   2.816
45634W        W 9193  25.512  11.766  14.834
45635W        W 9194  20.702  31.450   2.384
45636W        W 9195  40.916  13.302   3.796
45637W        W 9196  41.436  34.887   2.684
45638W        W 9197   6.239   2.881  10.576
45639W        W 9198  41.499  40.922   3.757
45640W        W 9199   3.220  12.695   1.866
45641W        W 9200   4.710  14.206   4.735
45642W        W 9201  19.284  31.050  13.494
45643W        W 9202  25.025  35.944   4.611
45644W        W 9203   9.835  37.494   2.885
45645W        W 9204  14.779  26.673  13.917
45646W        W 9205  13.680  42.778   3.361
45647W        W 9206  11.689  13.311   0.265
45648W        W 9207  44.380  31.124   4.830
45649W        W 9208  16.186  23.115   2.848
45650W        W 9209   9.323  40.859   1.924
45651W        W 9210  33.514  28.603   3.357
45652W        W 9211   0.752  27.453  11.497
45653W        W 9212  44.261  41.373   1.743
45654W        W 9213  29.919  22.644   2.867
45655W        W 9214  20.082  22.503  10.024
45656W        W 9215  23.577  32.000  11.581
45657W        W 9216  20.243  42.000  10.633
45658W        W 9217   0.923   0.446  10.064
45659W        W 9218  24.677  42.964   4.179
45660W        W 9219  23.728  10.148   3.155
45661W        W 9220  14.692   8.877   3.705
45662W        W 9221  21.044  11.315  14.409
45663W        W 9222  43.839  14.828   0.935
45664W        W 9223  26.200  22.150   1.712
45665W        W 9224  34.570  13.328   2.701
45666W        W 9225   1.851   8.256   4.606
45667W        W 9226  20.066  40.928  12.371
45668W        W 9227   8.353  37.511   2.309
45669W        W 9228   5.737   2.390   4.754
45670W        W 9229  28.186   2.376   2.666
45671W        W 9230  36.530  21.562  10.521
45672W        W 9231  26.461  25.012   0.252
45673W        W 9232   8.398  28.464  10.440
45674W        W 9233  27.687   3.426  12.954
45675W        W 9234  38.499   6.820  14.379
45676W        W 9235  26.970   1.969   2.729
45677W        W 9236  38.446  36.914   4.196
45678W        W 9237  12.238  12.626   0.849
45679W        W 9238  32.403  11.184   2.885
45680W        W 9239  14.775  30.622   1.375
45681W        W 9240  42.917  32.970   0.264
45682W        W 9241  19.240  20.253  13.988
45683W        W 9242  32.136  36.536  14.378
45684W        W 9243  23.133  18.738  13.467
45685W        W 9244  41.011  39.006  13.947
45686W        W 9245  38.489  20.601   3.794
45687W        W 9246  13.662  34.011  14.841
45688W        W 9247  13.725   6.763  14.312
45689W        W 9248   3.420  13.105  14.442
45690W        W 9249  33.532  17.799  12.449
45691W        W 9250  27.619  32.117  14.439
45692W        W 9251  37.361  20.248  14.892
45693W        W 9252  27.045  37.020  13.341
45694W        W 9253   4.842  19.691   1.830
45695W        W 9254  31.121  24.219   2.375
45696W        W 9255   3.713  12.243  11.978
45697W        W 9256   3.316  29.536  12.049
45698W        W 9257  24.683  25.643   2.690
45699W        W 9258  21.070  30.572   4.281
45700W        W 9259   6.405  28.085   4.598
45701W        W 9260  43.855  30.474  11.878
45702W        W 9261  12.749  24.089  12.497
45703W        W 9262  33.018  27.976  11.576
45704W        W 9263   8.765  28.476  13.489
45705W        W 9264  15.596  15.689   0.762
45706W        W 9265   4.319  33.033   4.678
45707W        W 9266  34.062  41.895  11.009
45708W        W 9267  24.496  35.903  10.429
45709W        W 9268  37.499  11.654  11.495
45710W        W 9269  41.481   1.823   0.290
45711W        W 9270   8.857  26.162   0.873
45712W        W 9271  42.849  26.199  14.016
45713W        W 9272  33.623  12.842  13.344
45714W        W 9273  13.288  17.678  11.932
45715W        W 9274   5.887  21.263   0.312
45716W        W 9275  41.977  12.823   0.412
45717W        W 9276  19.225   6.728   0.864
45718W        W 9277   5.870  33.070  12.529
45719W        W 9278  40.811   8.679  11.453
45720W        W 9279  24.038   0.756   0.343
45721W        W 9280  14.621  29.161   0.925
45722W        W 9281  13.293  21.573  11.434
45723W        W 9282  17.670  43.844  14.021
45724W        W 9283  36.869   9.769   9.512
45725W        W 9284  18.086  30.030   2.388
45726W        W 9285   1.277  17.108   3.357
45727W        W 9286  15.632  11.865   0.457
45728W        W 9287   7.326   8.659   0.964
45729W        W 9288  23.580  25.543  13.934
45730W        W 9289  17.785   2.759   0.839
45731W        W 9290   1.928  30.461   0.830
45732W        W 9291  27.058  39.387  14.819
45733W        W 9292   2.282  17.736   4.771
45734W        W 9293  37.944  41.327   0.822
45735W        W 9294   7.841  38.067  13.867
45736W        W 9295  17.693  33.617   1.249
45737W        W 9296  29.642  38.938   0.413
45738W        W 9297  20.197  21.512   2.306
45739W        W 9298  36.068   4.359   0.788
45740W        W 9299  20.204  14.613   2.370
45741W        W 9300  25.494  32.112   4.756
45742W        W 9301  32.024   2.967   2.335
45743W        W 9302   3.799  29.947   3.853
45744W        W 9303  39.867  28.465  13.986
45745W        W 9304  27.157   8.337  12.482
45746W        W 9305  41.919   3.416  14.928
45747W        W 9306  25.518  26.149  12.982
45748W        W 9307  10.204  30.145  13.049
45749W        W 9308  39.809  33.990   3.296
45750W        W 9309   5.420  17.111  12.055
45751W        W 9310  22.615  17.075  14.927
45752W        W 9311  42.353  42.521   3.271
45753W        W 9312  38.991  40.917   2.261
45754W        W 9313  11.187  15.217   1.390
45755W        W 9314  40.028  30.078   3.272
45756W        W 9315  14.222  20.651   4.336
45757W        W 9316  43.434  37.952   3.209
45758W        W 9317  13.141  19.102   2.186
45759W        W 9318  13.712  10.260   1.889
45760W        W 9319  23.206  11.624   1.418
45761W        W 9320  37.399  16.773  12.558
45762W        W 9321  30.916  20.264   0.385
45763W        W 9322   7.906  13.114  12.406
45764W        W 9323  35.590  23.500  14.860
45765W        W 9324  19.550  19.673   2.853
45766W        W 9325   3.815  11.341  13.339
45767W        W 9326  24.986   7.858   0.810
45768W        W 9327   0.745  24.675  12.899
45769W        W 9328  18.581  23.684   4.652
45770W        W 9329  43.432  36.444   3.841
45771W        W 9330  17.634  35.857   2.220
45772W        W 9331   3.773  13.612  14.811
45773W        W 9332  41.432  38.506  13.963
45774W        W 9333  23.533   0.436  13.317
45775W        W 9334  42.913  32.620  14.381
45776W        W 9335  23.214  10.665   0.432
45777W        W 9336  11.750  17.604  11.941
45778W        W 9337  22.227   4.885  13.911
45779W        W 9338   8.308   4.390   3.696
45780W        W 9339  35.108  30.024  10.588
45781W        W 9340   8.807  28.659   1.268
45782W        W 9341  34.881  25.123   2.250
45783W        W 9342  13.291  13.259   3.258
45784W        W 9343   6.267   2.256   4.661
45785W        W 9344  34.971  23.661   2.294
45786W        W 9345   1.835  44.301  12.838
45787W        W 9346  44.996  11.287  14.916
45788W        W 9347   2.962  20.098   1.850
45789W        W 9348  36.871  29.537  14.502
45790W        W 9349  11.330  26.083   0.425
45791W        W 9350  16.165  24.221   1.373
45792W        W 9351  42.438   1.890  14.012
45793W        W 9352  26.692  16.263   1.339
45794W        W 9353  37.917  31.048  14.824
45795W        W 9354   1.276  36.956  12.377
45796W        W 9355  17.242  16.696  13.406
45797W        W 9356  26.101  28.606   1.753
45798W        W 9357   6.890  43.284  10.442
45799W        W 9358  39.506  25.185  11.042
45800W        W 9359  14.299  38.345   1.336
45801W        W 9360  42.469  44.785  12.503
45802W        W 9361  41.888  43.000   5.170
45803W        W 9362   0.795   3.426  10.619
45804W        W 9363  22.694  18.209  11.045
45805W        W 9364  11.634   3.844   2.418
45806W        W 9365   1.267  10.708   4.746
45807W        W 9366   6.686   6.376  11.467
45808W        W 9367  25.019  34.098  13.339
45809W        W 9368  14.231  32.091  14.817
45810W        W 9369   4.788  13.608  11.525
45811W        W 9370  43.966   3.798  11.044
45812W        W 9371  39.375  24.225   3.677
45813W        W 9372  11.358  32.973   0.915
45814W        W 9373  11.632  17.150  11.965
45815W        W 9374  36.863   6.189  13.460
45816W        W 9375  20.567  14.755  14.779
45817W        W 9376  34.108  18.647  14.007
45818W        W 9377  42.527  44.865  14.869
45819W        W 9378  38.844  41.490  10.016
45820W        W 9379  37.485  36.046   2.701
45821W        W 9380  28.171  33.457  10.021
45822W        W 9381  12.719  21.156  10.945
45823W        W 9382  32.595   6.760  14.930
45824W        W 9383  10.301  20.545   0.823
45825W        W 9384  10.370  13.646   1.796
45826W        W 9385  26.588   2.761   1.784
45827W        W 9386  32.470  36.944   1.231
45828W        W 9387  29.483  37.011   0.931
45829W        W 9388   0.463  25.528  12.849
45830W        W 9389   1.850  23.030  14.465
45831W        W 9390  15.684   4.927   2.271
45832W        W 9391  29.590  17.230  10.461
45833W        W 9392  24.530  39.814  12.914
45834W        W 9393  18.661  16.712  12.573
45835W        W 9394  10.287  28.673   3.637
45836W        W 9395  27.581  35.983  13.030
45837W        W 9396  24.571  32.564   3.855
45838W        W 9397   7.732  17.262  13.924
45839W        W 9398   6.296  39.374   1.825
45840W        W 9399  16.161  28.131  14.278
45841W        W 9400   9.875  36.902  12.002
45842W        W 9401  14.258  25.472   9.654
45843W        W 9402   8.854  17.773   1.836
45844W        W 9403  32.983  43.959   1.860
45845W        W 9404  34.515   4.430   0.771
45846W        W 9405   5.314  31.610   1.215
45847W        W 9406  13.826  13.136   2.888
45848W        W 9407  12.162  15.309  11.491
45849W        W 9408  23.004  28.178  14.935
45850W        W 9409  18.064  16.134   2.713
45851W        W 9410  20.707  14.255   0.894
45852W        W 9411  36.087  13.631  11.557
45853W        W 9412  32.507  31.613   1.447
45854W        W 9413  23.509  25.127   4.301
45855W        W 9414  31.643  37.398  10.076
45856W        W 9415  10.266  14.638   5.761
45857W        W 9416   7.378   6.690  12.934
45858W        W 9417  30.542  16.261  10.524
45859W        W 9418   8.267  10.337  11.989
45860W        W 9419  38.435  25.097  13.328
45861W        W 9420  12.301   8.402   2.664
45862W        W 9421  35.594  17.089  11.418
45863W        W 9422   1.422   7.326   2.798
45864W        W 9423  12.755  42.416   4.201
45865W        W 9424  13.351  30.996   3.241
45866W        W 9425  13.317   3.255  10.465
45867W        W 9426  42.982  16.666   0.478
45868W        W 9427  38.016  19.583   0.780
45869W        W 9428   3.928  19.196   2.747
45870W        W 9429  42.948   9.150  13.486
45871W        W 9430   7.712   8.193   4.697
45872W        W 9431  29.149   5.311  10.962
45873W        W 9432  44.312   2.809  12.869
45874W        W 9433  39.011  21.119   9.979
45875W        W 9434  44.786   4.448   1.380
45876W        W 9435  42.007  23.189   4.755
45877W        W 9436   2.854  38.486   3.741
45878W        W 9437  11.149  35.395   0.294
45879W        W 9438   4.407  15.303   0.804
45880W        W 9439   1.392  23.698  12.500
45881W        W 9440   9.806   9.184   0.319
45882W        W 9441  20.728  34.876   3.673
45883W        W 9442  40.049  28.992  10.609
45884W        W 9443  28.140  42.833  12.460
45885W        W 9444  38.984  31.047   2.815
45886W        W 9445  41.521  43.371   2.403
45887W        W 9446  24.183  17.118  14.886
45888W        W 9447  20.523  27.678   4.644
45889W        W 9448  25.653  23.606  14.327
45890W        W 9449  40.012  41.424   4.627
45891W        W 9450  19.739   0.357  13.959
45892W        W 9451  44.375  37.880  12.094
45893W        W 9452   1.456  16.254  14.434
45894W        W 9453   0.486   6.803  12.360
45895W        W 9454  15.595  43.946  12.995
45896W        W 9455  18.119  26.195   0.434
45897W        W 9456   5.725  28.008  13.339
45898W        W 9457  15.144  26.543   0.291
45899W        W 9458  16.747  40.332   0.739
45900W        W 9459  12.694   7.801   0.902
45901W        W 9460   4.322  17.600  13.905
45902W        W 9461  38.909   3.261   4.195
45903W        W 9462  38.377  30.529  14.505
45904W        W 9463   9.311  28.634   0.748
45905W        W 9464  18.184   3.837   3.712
45906W        W 9465   4.359  26.587  11.019
45907W        W 9466  37.996  28.995  10.549
45908W        W 9467  38.945   4.708   1.894
45909W        W 9468   9.859  27.082   4.726
45910W        W 9469  10.866  24.706   3.155
45911W        W 9470  11.828  32.947  14.971
45912W        W 9471  36.013  18.580   0.462
45913W        W 9472  40.396   4.399  14.875
45914W        W 9473  43.328   4.763   0.452
45915W        W 9474  17.686  22.644   2.665
45916W        W 9475  28.523  26.088  14.278
45917W        W 9476  42.368  14.728  10.984
45918W        W 9477   0.944  19.744  13.975
45919W        W 9478  11.849   7.410  12.543
45920W        W 9479  23.133  13.718   0.361
45921W        W 9480  16.194  11.853  14.960
45922W        W 9481  13.734  14.311  14.764
45923W        W 9482  39.960   9.213  11.903
45924W        W 9483  20.176  22.519  14.870
45925W        W 9484  20.207  33.440  12.532
45926W        W 9485  31.927  15.169  11.507
45927W        W 9486   9.161  26.508   1.828
45928W        W 9487  27.502   4.764   3.810
45929W        W 9488  16.665  26.978  14.499
45930W        W 9489  23.669  29.063  14.857
45931W        W 9490  11.660  38.345  14.423
45932W        W 9491  19.668  29.003   4.354
45933W        W 9492   0.846   5.757  11.472
45934W        W 9493  17.679  41.020  13.041
45935W        W 9494   9.325  41.348  12.968
45936W        W 9495   6.881  21.064   0.285
45937W        W 9496   1.276   0.763   1.786
45938W        W 9497  22.588  24.494   3.682
45939W        W 9498  23.162  25.115   2.389
45940W        W 9499  30.566   1.338  12.829
45941W        W 9500  27.603  13.302   2.284
45942W        W 9501  11.786  12.144   2.313
45943W        W 9502   3.244   1.300   3.797
45944W        W 9503  17.280   1.808   1.292
45945W        W 9504   9.852  12.746   1.313
45946W        W 9505  28.044  18.639   4.294
45947W        W 9506   1.736   5.261   3.795
45948W        W 9507  28.495  30.137   0.331
45949W        W 9508   4.740  25.051   5.161
45950W        W 9509  29.587   5.205  14.442
45951W        W 9510   4.781   9.689  14.931
45952W        W 9511  26.635  36.952   1.758
45953W        W 9512   1.397  18.052   1.247
45954W        W 9513  40.359   0.299  13.518
45955W        W 9514  35.374  43.304   2.268
45956W        W 9515  19.242   2.463  12.567
45957W        W 9516  30.436   9.189   2.380
45958W        W 9517  23.179  32.021   4.165
45959W        W 9518  32.432  26.030   4.819
45960W        W 9519  25.553  28.118  10.422
45961W        W 9520  21.125  30.085   3.744
45962W        W 9521   7.822   7.828  10.509
45963W        W 9522  21.081  28.009  10.613
45964W        W 9523  21.137  28.524   1.803
45965W        W 9524  31.500   7.794   1.361
45966W        W 9525   0.369   4.285  14.367
45967W        W 9526  37.835   5.235  14.993
45968W        W 9527  38.511  24.521   4.765
45969W        W 9528  17.186  11.773   3.659
45970W        W 9529  18.648  12.198   1.417
45971W        W 9530  20.722  32.022   3.675
45972W        W 9531   4.757  34.109   0.336
45973W        W 9532  13.309  39.410  12.918
45974W        W 9533  20.593  14.721   3.740
45975W        W 9534  22.550  35.491   1.262
45976W        W 9535  30.484  20.760   3.633
45977W        W 9536  16.650   2.392   2.379
45978W        W 9537   5.193  16.737  11.886
45979W        W 9538  33.087  25.054   4.610
45980W        W 9539   9.174  36.497  14.516
45981W        W 9540  11.330  31.073   0.885
45982W        W 9541  31.519  13.684  13.802
45983W        W 9542   2.822  24.196  10.445
45984W        W 9543  28.930  22.017   1.431
45985W        W 9544   0.771  37.068  10.489
45986W        W 9545  40.518  28.489   1.425
45987W        W 9546  10.173  26.517  14.863
45988W        W 9547   5.427  30.115   1.719
45989W        W 9548  16.134  31.583   0.392
45990W        W 9549  22.733  19.687   1.914
45991W        W 9550  33.960   0.830   4.800
45992W        W 9551   5.439  21.624  14.857
45993W        W 9552  14.103  14.605   1.407
45994W        W 9553   7.815  44.774   3.164
45995W        W 9554  18.194  16.782  11.475
45996W        W 9555  38.468  26.569   3.180
45997W        W 9556   1.369   5.413   0.317
45998W        W 9557  11.832  41.886   1.299
45999W        W 9558  29.472  23.069  14.316
46000W        W 9559  24.181  20.096   3.712
46001W        W 9560  31.453  36.978  13.382
46002W        W 9561   7.690  35.509   0.836
46003W        W 9562  28.116  13.829  13.513
46004W        W 9563  26.564   7.705   4.276
46005W        W 9564  24.539  16.719  14.808
46006W        W 9565  21.175  28.631  12.843
46007W        W 9566  20.687  14.266  14.875
46008W        W 9567  33.892  31.081   3.838
46009W        W 9568  28.659  26.702  12.395
46010W        W 9569  36.573   8.275  11.883
46011W        W 9570  37.371   7.677  11.999
46012W        W 9571  38.431  37.837  11.932
46013W        W 9572  26.993  31.905  14.336
46014W        W 9573  27.034   5.803  14.772
46015W        W 9574  17.293   8.191   1.839
46016W        W 9575  17.172  23.588  13.315
46017W        W 9576  40.379  17.127   1.346
46018W        W 9577  30.614  39.029   3.222
46019W        W 9578  11.261   1.256  12.974
46020W        W 9579  19.716  27.050  13.018
46021W        W 9580  13.684  36.086   1.273
46022W        W 9581  22.510  16.086  10.961
46023W        W 9582  11.637  32.121   4.343
46024W        W 9583  17.272   4.433  13.372
46025W        W 9584  15.691  32.581  10.609
46026W        W 9585  16.760  12.736  11.476
46027W        W 9586   2.301  33.484  10.539
46028W        W 9587  26.043   4.383   1.398
46029W        W 9588  20.605  10.360  14.470
46030W        W 9589  26.132  20.602  14.421
46031W        W 9590  36.398  44.414  12.917
46032W        W 9591  19.268  42.954   0.305
46033W        W 9592  10.223  12.804  14.991
46034W        W 9593  33.625  32.065   1.280
46035W        W 9594  26.052  21.186  14.998
46036W        W 9595  15.597  42.011  13.383
46037W        W 9596  34.556  43.878   0.735
46038W        W 9597  40.496  37.567   0.958
46039W        W 9598  27.521  31.033   4.812
46040W        W 9599  37.045  17.168   3.330
46041W        W 9600  38.855  16.097   1.269
46042W        W 9601   2.465   4.740  10.960
46043W        W 9602  26.163   9.710   4.656
46044W        W 9603  37.997  25.505  14.369
46045W        W 9604  22.623  33.446  11.455
46046W        W 9605   2.232  24.205  13.862
46047W        W 9606  28.537   9.799   1.716
46048W        W 9607  28.091   9.248  11.383
46049W        W 9608   0.248  17.264   2.798
46050W        W 9609   1.790  28.487   4.291
46051W        W 9610  28.949   4.790   0.856
46052W        W 9611  25.549  20.750   0.363
46053W        W 9612  16.684  27.090  11.065
46054W        W 9613  13.159  36.424   1.766
46055W        W 9614  30.550  43.872   3.322
46056W        W 9615  16.253  19.053   4.352
46057W        W 9616  29.950   4.888  14.814
46058W        W 9617  15.238  22.250  13.334
46059W        W 9618  41.325  38.847  10.550
46060W        W 9619  20.568   6.237   3.700
46061W        W 9620  14.308  31.597  14.448
46062W        W 9621  42.882  17.568   4.635
46063W        W 9622  37.365   8.852   5.236
46064W        W 9623  31.624  20.535  10.587
46065W        W 9624  10.879   5.821   2.873
46066W        W 9625  38.518  33.984  12.556
46067W        W 9626  20.202   8.880   0.953
46068W        W 9627  41.397   3.823   1.268
46069W        W 9628   0.292  36.961   4.184
46070W        W 9629   5.840   5.268  14.850
46071W        W 9630   4.438  14.215   2.340
46072W        W 9631  22.094  14.274   2.377
46073W        W 9632   8.304  15.323   4.323
46074W        W 9633  22.654  16.129   1.216
46075W        W 9634  43.836  37.862   4.339
46076W        W 9635  31.052  30.503   3.214
46077W        W 9636   2.942  19.747  11.489
46078W        W 9637  44.776   6.897   1.355
46079W        W 9638  35.475   1.464   4.187
46080W        W 9639  22.622  21.198   0.256
46081W        W 9640  40.873   9.746   2.247
46082W        W 9641  36.923   1.765   0.276
46083W        W 9642  35.539  43.433   3.723
46084W        W 9643  28.108  33.899   3.167
46085W        W 9644  36.850  26.551  13.032
46086W        W 9645  39.001  24.496  12.381
46087W        W 9646  25.019  23.552  14.378
46088W        W 9647  34.035  26.667   3.348
46089W        W 9648  28.077  40.019  12.954
46090W        W 9649  39.347  37.483  14.997
46091W        W 9650   5.843   2.289  12.550
46092W        W 9651  32.544  20.244   3.264
46093W        W 9652  26.052  11.835  11.858
46094W        W 9653  15.680  27.041   1.812
46095W        W 9654  42.902   5.205  14.992
46096W        W 9655   5.907   8.767  13.868
46097W        W 9656   2.364  13.161   0.351
46098W        W 9657   9.175  36.453   4.221
46099W        W 9658  35.517  13.787  14.812
46100W        W 9659  19.672  11.837  13.458
46101W        W 9660  35.549  15.663   0.330
46102W        W 9661  33.907  11.225  11.497
46103W        W 9662  31.468  16.771   0.873
46104W        W 9663  10.141  20.150  14.972
46105W        W 9664   4.873  13.617   2.847
46106W        W 9665  38.377  11.857  14.883
46107W        W 9666  17.223  10.275   5.231
46108W        W 9667  16.692  15.626   2.722
46109W        W 9668   7.303   3.461   4.225
46110W        W 9669  40.352  28.185   0.853
46111W        W 9670  41.465   8.827  10.973
46112W        W 9671  16.782  13.825   0.915
46113W        W 9672  40.328  43.490   0.396
46114W        W 9673   4.317   7.268  13.415
46115W        W 9674  42.309  33.978   0.314
46116W        W 9675  39.425  40.310   2.806
46117W        W 9676  41.465  18.778  14.378
46118W        W 9677  24.099   4.762   3.221
46119W        W 9678  23.016   1.332  12.430
46120W        W 9679  31.988   0.415  11.504
46121W        W 9680  38.839  42.841   4.800
46122W        W 9681  26.003   8.237   1.267
46123W        W 9682  24.491  27.579   3.786
46124W        W 9683  33.536  34.564  12.059
46125W        W 9684  29.569  25.537   1.900
46126W        W 9685  13.657   4.833  14.888
46127W        W 9686  17.298   3.799   3.731
46128W        W 9687  29.938  22.168   4.819
46129W        W 9688  11.248  22.129   4.753
46130W        W 9689  29.132  23.547  11.101
46131W        W 9690   6.195  34.043   1.748
46132W        W 9691   6.885  13.239   2.897
46133W        W 9692   5.355   9.855  13.436
46134W        W 9693  36.473  24.633  10.955
46135W        W 9694  17.116  11.266  10.939
46136W        W 9695  24.069  12.124  10.507
46137W        W 9696   6.250   6.305   3.729
46138W        W 9697   6.198  28.983   4.187
46139W        W 9698   5.856  28.501  12.023
46140W        W 9699  37.067  37.365  12.058
46141W        W 9700   1.318  33.907  10.988
46142W        W 9701   3.882   1.378   4.708
46143W        W 9702  43.832  23.131   1.255
46144W        W 9703  13.138  24.671  12.995
46145W        W 9704  44.846  11.140   1.268
46146W        W 9705  20.698  37.346   4.836
46147W        W 9706  18.744   1.481   1.853
46148W        W 9707  41.847  25.049  11.574
46149W        W 9708  26.512   9.718  11.935
46150W        W 9709  35.483   1.806  11.933
46151W        W 9710  29.065  35.418  13.488
46152W        W 9711   2.886   6.821  10.987
46153W        W 9712  13.341   3.352   3.226
46154W        W 9713  22.554  19.553   4.152
46155W        W 9714  30.615   7.910   0.734
46156W        W 9715  27.601  36.086   3.635
46157W        W 9716  43.838  31.079   2.326
46158W        W 9717  38.952   1.483  13.900
46159W        W 9718  34.500  40.336   1.450
46160W        W 9719  32.395   2.913  14.491
46161W        W 9720  30.475  34.537   3.337
46162W        W 9721  39.370  16.731  14.959
46163W        W 9722  30.534  15.152  11.113
46164W        W 9723   7.354  44.416  10.510
46165W        W 9724   9.342  24.649  14.831
46166W        W 9725  28.557   3.834   4.129
46167W        W 9726  38.919  13.236   1.331
46168W        W 9727  16.667  37.571  10.124
46169W        W 9728  23.130  16.778  12.525
46170W        W 9729  16.578  10.337  12.501
46171W        W 9730   7.685  33.012  11.075
46172W        W 9731   7.699  34.886  13.497
46173W        W 9732   4.870   1.455   3.709
46174W        W 9733  43.279  18.612  13.007
46175W        W 9734  27.518   7.341   1.298
46176W        W 9735  31.594  41.517   0.287
46177W        W 9736  22.019  33.424   4.800
46178W        W 9737  14.772  35.477   0.772
46179W        W 9738  23.532  37.050   0.828
46180W        W 9739  28.648  22.655   2.265
46181W        W 9740  29.553  44.761  14.999
46182W        W 9741  18.662  34.392   2.874
46183W        W 9742  33.470  13.610  11.940
46184W        W 9743  30.986  25.558   0.804
46185W        W 9744  40.967  34.033  13.507
46186W        W 9745  11.170   6.251   0.822
46187W        W 9746   7.280  42.014  10.531
46188W        W 9747  36.351  29.628   5.173
46189W        W 9748   6.306  36.956   3.367
46190W        W 9749   8.264   2.784   4.305
46191W        W 9750  37.357  30.126   0.755
46192W        W 9751   2.752  37.878  11.476
46193W        W 9752  25.184   5.307  14.335
46194W        W 9753  36.851  42.408  11.604
46195W        W 9754  19.705  28.562   0.351
46196W        W 9755   3.916  34.457  14.436
46197W        W 9756  28.607  30.510  12.554
46198W        W 9757  33.077  17.602   2.750
46199W        W 9758  26.568  41.012   0.269
46200W        W 9759  29.651  35.997  12.091
46201W        W 9760  21.658  24.718  14.369
46202W        W 9761  15.181   7.683  14.841
46203W        W 9762  39.814  16.262   4.678
46204W        W 9763  13.300  40.493  11.430
46205W        W 9764  35.081  39.958  10.514
46206W        W 9765   2.378  27.462  11.566
46207W        W 9766  22.522  36.969   4.241
46208W        W 9767  38.867   0.291   3.638
46209W        W 9768  29.612  17.262   0.930
46210W        W 9769  26.039  22.598   1.378
46211W        W 9770  24.993  41.944  12.457
46212W        W 9771  36.374  29.955   1.810
46213W        W 9772  17.651  34.471  13.526
46214W        W 9773  30.412   3.784  13.901
46215W        W 9774  37.395  27.026  13.048
46216W        W 9775   8.327  40.005   3.798
46217W        W 9776  14.765  27.646   1.796
46218W        W 9777  16.245  37.073   0.444
46219W        W 9778   4.853  41.976  11.052
46220W        W 9779  36.952  10.755   5.200
46221W        W 9780  31.925   3.334  11.898
46222W        W 9781  37.912   4.340   3.721
46223W        W 9782  27.106  36.392   0.733
46224W        W 9783   7.863   0.830  14.382
46225W        W 9784  32.989  14.772  10.644
46226W        W 9785  16.644  24.979  10.907
46227W        W 9786   2.236  37.524  14.840
46228W        W 9787  22.999  33.444   0.814
46229W        W 9788  36.471  42.999   5.260
46230W        W 9789  15.581  24.658   3.791
46231W        W 9790  25.630   8.173  14.423
46232W        W 9791  19.648   6.736  10.454
46233W        W 9792  23.025   1.323  14.765
46234W        W 9793  16.573  18.712  10.557
46235W        W 9794  13.833  12.294   3.248
46236W        W 9795  36.063  23.698  13.915
46237W        W 9796   4.391  29.468  14.445
46238W        W 9797  41.969  17.719   1.701
46239W        W 9798  18.114  19.096  10.484
46240W        W 9799   5.309  39.515  13.900
46241W        W 9800  33.425   2.237  13.476
46242W        W 9801  37.557  44.784   0.962
46243W        W 9802  24.589  17.135  13.876
46244W        W 9803  20.530  27.087   0.392
46245W        W 9804  34.406   2.914  13.950
46246W        W 9805  37.469   5.222  12.946
46247W        W 9806   7.762  39.832  10.510
46248W        W 9807  25.072  12.774   0.921
46249W        W 9808  21.080   9.834  12.089
46250W        W 9809  42.507   7.764   2.776
46251W        W 9810  18.755  26.491  14.473
46252W        W 9811  39.521   2.776  14.806
46253W        W 9812  20.566  22.181  12.934
46254W        W 9813  26.578   8.766   4.205
46255W        W 9814  38.855  11.851  14.372
46256W        W 9815  25.008   4.401  14.432
46257W        W 9816  23.566  10.179  13.018
46258W        W 9817  29.487  43.502   2.805
46259W        W 9818  23.678  11.226  10.889
46260W        W 9819  25.012  39.006  14.781
46261W        W 9820   6.327  30.134   4.832
46262W        W 9821  38.889  20.043   0.778
46263W        W 9822  41.294  31.434   3.864
46264W        W 9823  18.704  17.074   0.808
46265W        W 9824  18.219  34.915   3.278
46266W        W 9825  17.251  10.166  11.563
46267W        W 9826  43.828  20.712  13.397
46268W        W 9827   7.381  32.980   3.335
46269W        W 9828   5.712  18.159   0.909
46270W        W 9829  29.583   3.302  10.484
46271W        W 9830  37.024   5.907  11.611
46272W        W 9831  28.612  27.090  14.458
46273W        W 9832  42.460  31.643  13.320
46274W        W 9833   8.683   2.857   0.250
46275W        W 9834  16.741  28.177  10.903
46276W        W 9835  40.871   4.316   4.275
46277W        W 9836  27.558  23.727  11.516
46278W        W 9837   2.379  10.869   0.387
46279W        W 9838  41.010  18.083  10.502
46280W        W 9839  42.029  32.601  10.635
46281W        W 9840  26.002  21.707   3.242
46282W        W 9841   6.700  24.998   2.747
46283W        W 9842  34.083  21.088  10.429
46284W        W 9843   3.728  23.674   1.793
46285W        W 9844  44.333  14.216  10.094
46286W        W 9845   8.370  15.727  14.789
46287W        W 9846  32.397  36.991   4.764
46288W        W 9847  39.362  21.241  12.445
46289W        W 9848  15.728  31.909  12.567
46290W        W 9849  43.374  10.763  12.385
46291W        W 9850  22.732  15.133  11.384
46292W        W 9851  13.162  13.647   2.383
46293W        W 9852  31.112  11.306   2.830
46294W        W 9853   4.313  12.175  10.471
46295W        W 9854   3.355   7.399  13.009
46296W        W 9855  11.824  41.293   4.153
46297W        W 9856  15.601  15.281  11.126
46298W        W 9857   5.925   3.943  12.448
46299W        W 9858  42.454   9.374  11.031
46300W        W 9859   8.766  35.956  14.023
46301W        W 9860  28.515  36.591  11.382
46302W        W 9861  41.855   6.708  13.030
46303W        W 9862  33.899  33.422  14.370
46304W        W 9863  26.031  37.045  14.282
46305W        W 9864  26.638  34.866  10.894
46306W        W 9865  36.013  27.503   0.344
46307W        W 9866   5.771   3.897  12.852
46308W        W 9867  24.069  27.527  13.000
46309W        W 9868  20.185   5.359  11.913
46310W        W 9869  22.622  28.942   4.195
46311W        W 9870  27.453  25.209  11.460
46312W        W 9871  10.745  19.558   4.634
46313W        W 9872  34.921  31.047   2.763
46314W        W 9873  20.572  32.941  12.073
46315W        W 9874  38.548  12.615   0.353
46316W        W 9875  24.184  32.906  10.628
46317W        W 9876  25.092  25.005  10.405
46318W        W 9877  38.975  31.127  13.798
46319W        W 9878  25.139  43.323   2.687
46320W        W 9879  26.561   1.245   0.424
46321W        W 9880   7.188   8.214  13.387
46322W        W 9881  21.512  13.283  10.577
46323W        W 9882  19.581  15.768  12.351
46324W        W 9883  38.418   7.190   2.250
46325W        W 9884  31.011  19.229   1.759
46326W        W 9885  27.594  35.532  12.900
46327W        W 9886  16.269   8.854  10.005
46328W        W 9887  18.273  36.359  14.292
46329W        W 9888  41.492  25.018   0.276
46330W        W 9889  13.739   6.355  10.550
46331W        W 9890  15.084  10.331  10.150
46332W        W 9891   2.740  11.159  14.319
46333W        W 9892  14.143  12.135   0.367
46334W        W 9893  21.618  42.285   0.477
46335W        W 9894  26.513  15.209  12.055
46336W        W 9895  13.299  43.292  12.356
46337W        W 9896  34.074  42.365   3.153
46338W        W 9897  38.443   5.742   1.864
46339W        W 9898  22.606  16.727   4.139
46340W        W 9899  33.404  30.445  12.841
46341W        W 9900  34.476  30.581  11.042
46342W        W 9901   3.896  25.181  10.615
46343W        W 9902  44.500   8.301   3.216
46344W        W 9903  33.102  37.004  12.069
46345W        W 9904  36.417   1.407  13.313
46346W        W 9905  34.095  12.847   2.792
46347W        W 9906  33.883  43.965  14.842
46348W        W 9907  36.888   3.417  12.557
46349W        W 9908  12.252  34.578   0.889
46350W        W 9909  35.017  38.841  10.506
46351W        W 9910  40.880  10.733   4.223
46352W        W 9911  33.097  16.652   0.313
46353W        W 9912  21.239  38.058  14.345
46354W        W 9913  11.366  28.654  12.038
46355W        W 9914  19.775  18.788  11.413
46356W        W 9915   5.759  40.853  11.557
46357W        W 9916  24.204   0.458  11.082
46358W        W 9917   7.731   0.893  13.458
46359W        W 9918   7.834  29.962   1.338
46360W        W 9919  23.156  35.364   3.183
46361W        W 9920   9.875  34.591  11.861
46362W        W 9921  15.217  17.129   3.714
46363W        W 9922  11.365  26.154   1.752
46364W        W 9923  25.074  40.358   0.259
46365W        W 9924  10.352   6.314   5.219
46366W        W 9925  31.631  13.785   0.406
46367W        W 9926  15.141  14.294   2.403
46368W        W 9927   7.270  27.148  13.813
46369W        W 9928  16.686  31.069   0.355
46370W        W 9929  37.509  23.726  13.309
46371W        W 9930  30.155   4.877   4.225
46372W        W 9931  28.515  13.167   3.868
46373W        W 9932  21.259  10.220  13.923
46374W        W 9933   4.904  38.894  10.897
46375W        W 9934   9.651   4.718   1.334
46376W        W 9935   5.853  11.210   4.264
46377W        W 9936  38.043  32.123   0.457
46378W        W 9937  43.769  26.565  13.521
46379W        W 9938  26.496  32.579   0.936
46380W        W 9939  33.007  44.768   1.934
46381W        W 9940  20.603  30.606   3.671
46382W        W 9941  28.460  39.987   2.326
46383W        W 9942  41.942  26.181  14.785
46384W        W 9943  41.310  37.432   2.801
46385W        W 9944   2.427  28.672   0.757
46386W        W 9945  18.545  29.072   5.317
46387W        W 9946  43.490  37.568  10.010
46388W        W 9947   6.243  40.517   2.271
46389W        W 9948  34.983  16.091  11.112
46390W        W 9949  38.930  30.609   3.256
46391W        W 9950  37.837  30.446  13.314
46392W        W 9951   0.891  26.652   5.279
46393W        W 9952   5.401   4.292  12.373
46394W        W 9953   7.811  22.197  11.457
46395W        W 9954   0.334  10.640   3.262
46396W        W 9955  24.684  34.418   2.746
46397W        W 9956   8.741  10.725  13.441
46398W        W 9957  34.610  27.125   0.866
46399W        W 9958   3.913  31.615  14.856
46400W        W 9959  40.463   6.253   1.245
46401W        W 9960  43.797  44.942   1.869
46402W        W 9961  44.897   4.773  11.594
46403W        W 9962  38.839  25.560   0.954
46404W        W 9963  28.665  19.538  13.063
46405W        W 9964   2.950  44.940   4.175
46406W        W 9965  15.806   9.805  12.418
46407W        W 9966  17.700  37.009   1.254
46408W        W 9967  17.660  19.542   2.828
46409W        W 9968  31.553  15.689  14.329
46410W        W 9969  19.076  41.352   4.761
46411W        W 9970  25.997   4.834   0.337
46412W        W 9971  12.679  43.952   1.875
46413W        W 9972  24.073  42.987  10.449
46414W        W 9973  33.084   1.923   2.341
46415W        W 9974  35.381  31.556  13.961
46416W        W 9975   5.360  40.326  12.087
46417W        W 9976  29.534  27.456  12.908
46418W        W 9977  38.485  27.595   2.802
46419W        W 9978  20.593  42.523  11.474
46420W        W 9979  16.771  34.946  12.510
46421W        W 9980  31.647   8.390   1.752
46422W        W 9981  22.072  24.706  14.762
46423W        W 9982  32.935  14.797   4.319
46424W        W 9983   6.917  14.617  10.083
46425W        W 9984  36.577  36.095   3.294
46426W        W 9985  37.068  30.971  11.513
46427W        W 9986   6.794  20.690   4.223
46428W        W 9987  29.618  32.628   3.783
46429W        W 9988   1.271  31.143  12.823
46430W        W 9989  16.170  25.487  14.389
46431W        W 9990  35.383  10.633   2.204
46432W        W 9991  16.626  25.022  13.824
46433W        W 9992  33.972  16.308  10.425
46434W        W 9993   0.437  20.056  11.599
46435W        W 9994  19.595  28.090   1.411
46436W        W 9995  42.362   1.335   2.670
46437W        W 9996  42.391  19.187   2.341
46438W        W 9997  31.034  27.620  14.022
46439W        W 9998  16.205  31.617  11.101
46440W        W 9999   3.359  32.498  11.045
46441W        W10000  24.700   7.690  11.553
46442W        W10001  37.523  26.158  12.372
46443W        W10002  13.767  21.544  11.590
46444W        W10003  23.525   2.247   2.740
46445W        W10004  28.499   2.889   3.842
46446W        W10005   1.409  22.742   3.365
46447W        W10006  19.736  14.094   0.272
46448W        W10007  35.869  39.911  12.512
46449W        W10008  44.412  42.885   0.335
46450W        W10009  14.817  23.497   4.270
46451W        W10010  30.020   3.838  12.373
46452W        W10011   6.194  24.044   0.376
46453W        W10012  10.226   7.396  14.316
46454W        W10013  19.070   6.808   1.354
46455W        W10014  10.754  34.389  11.043
46456W        W10015   8.853  39.393   2.214
46457W        W10016  11.320  40.436   1.904
46458W        W10017  37.023  31.632  14.977
46459W        W10018  21.717   8.694  13.401
46460W        W10019  30.551   1.408   2.801
46461W        W10020   5.298  12.290   3.780
46462W        W10021  25.640  35.973   9.955
46463W        W10022  12.311  38.486  10.575
46464W        W10023  33.081  10.738   5.298
46465W        W10024  31.048  24.172  10.012
46466W        W10025  10.293  10.744  12.866
46467W        W10026  16.619   6.918   3.298
46468W        W10027  27.659  37.568  13.525
46469W        W10028  31.953  11.818  12.432
46470W        W10029   7.792   4.847   2.796
46471W        W10030  25.625  28.567   3.836
46472W        W10031  15.154  37.892   1.246
46473W        W10032  14.240  31.426  12.041
46474W        W10033   5.260  20.093   4.783
46475W        W10034   1.805  42.031   1.282
46476W        W10035  26.513  12.694  14.813
46477W        W10036  42.496   6.748  12.996
46478W        W10037   9.785  24.672   2.821
46479W        W10038  35.866  28.013   1.256
46480W        W10039  36.056  35.052  13.855
46481W        W10040   5.386  36.379   2.836
46482W        W10041  38.441  37.413  11.883
46483W        W10042   4.251  21.028  11.048
46484W        W10043  21.581   9.225  13.464
46485W        W10044   6.269   0.362  11.588
46486W        W10045  21.188  27.549   1.898
46487W        W10046  32.131  43.838   4.320
46488W        W10047   9.201  30.912  10.985
46489W        W10048   3.724  44.376   2.279
46490W        W10049   5.300  36.038   3.303
46491W        W10050  25.497  31.941  14.859
46492W        W10051  27.000  18.161  11.963
46493W        W10052  40.445  25.527   2.354
46494W        W10053  32.468   1.744  12.852
46495W        W10054  11.659  31.129   3.353
46496W        W10055   9.278  14.819  14.462
46497W        W10056   2.821  18.669  13.448
46498W        W10057  40.422  39.508  13.013
46499W        W10058  19.179   4.427   4.199
46500W        W10059  22.591  41.372   3.353
46501W        W10060  31.557  15.148   3.205
46502W        W10061  34.533  38.367   5.318
46503W        W10062  42.318   3.392   2.247
46504W        W10063  23.237  27.656  13.420
46505W        W10064   8.277   2.351   4.314
46506W        W10065  13.226  42.471   4.213
46507W        W10066   9.188   0.466  13.547
46508W        W10067  19.548   6.737  13.308
46509W        W10068  34.585  36.469  14.371
46510W        W10069  17.571  31.030   4.632
46511W        W10070  19.128  43.470  14.953
46512W        W10071  14.828  34.087  12.951
46513W        W10072  33.510  19.666  14.821
46514W        W10073  25.643  34.913   3.218
46515W        W10074  34.433   2.757  10.505
46516W        W10075   6.249   9.783  11.920
46517W        W10076  25.555  11.808  11.880
46518W        W10077  44.764  20.195  14.810
46519W        W10078  22.182  40.958   2.778
46520W        W10079  25.614  29.504  10.980
46521W        W10080   4.701  13.829   4.274
46522W        W10081  30.618   8.263  11.942
46523W        W10082   4.837  18.122  13.993
46524W        W10083  29.985  43.367  11.040
46525W        W10084  31.026  22.189  13.804
46526W        W10085  34.434  11.133  12.526
46527W        W10086  23.229  10.192   0.291
46528W        W10087  41.910  20.142   3.183
46529W        W10088  32.438   5.726   2.274
46530W        W10089  13.308  24.169  11.438
46531W        W10090  30.450  11.742   2.752
46532W        W10091  23.504   1.391  12.441
46533W        W10092   2.453   3.889  11.942
46534W        W10093   0.896  38.413  11.995
46535W        W10094  32.509   3.829  11.528
46536W        W10095  31.075  25.560   1.366
46537W        W10096  12.818   2.808  13.531
46538W        W10097  10.838  18.290  12.376
46539W        W10098  13.663   7.274   4.273
46540W        W10099   7.901  17.257   1.212
46541W        W10100  44.414  21.260  14.417
46542W        W10101  13.296  24.990   0.388
46543W        W10102  39.837  21.516  14.425
46544W        W10103   3.365  43.884  13.439
46545W        W10104  18.092  27.581   1.220
46546W        W10105  26.500  38.453  11.080
46547W        W10106   4.431  14.334  13.024
46548W        W10107  38.073  30.520  14.904
46549W        W10108  30.533  34.492  10.522
46550W        W10109  14.737  21.022   2.821
46551W        W10110  24.178  17.087   1.924
46552W        W10111  12.772   1.931  13.369
46553W        W10112  30.486  31.406  11.874
46554W        W10113  43.915   2.229   0.824
46555W        W10114  13.791  39.977  13.018
46556W        W10115  12.760   4.932  14.487
46557W        W10116  33.017  30.588   2.228
46558W        W10117  40.874  29.622   0.339
46559W        W10118  24.190  34.025  10.928
46560W        W10119  17.608   7.266  11.047
46561W        W10120  27.607  44.331  12.077
46562W        W10121  19.722  35.989  11.600
46563W        W10122   7.182  16.811  12.446
46564W        W10123  27.057  32.535  12.957
46565W        W10124  13.282  20.733   2.201
46566W        W10125  39.415   5.798   0.813
46567W        W10126  12.286  38.069  12.001
46568W        W10127  27.448  28.015  11.855
46569W        W10128  20.666  11.840   2.368
46570W        W10129  20.715  18.748   4.225
46571W        W10130  16.255  21.205   5.166
46572W        W10131  20.209  30.955   0.247
46573W        W10132   5.918  26.543  10.942
46574W        W10133  30.013  22.147   0.850
46575W        W10134  37.367  40.525   4.699
46576W        W10135  33.542  15.605  11.588
46577W        W10136  24.116  37.913   1.380
46578W        W10137  34.476  22.592   4.216
46579W        W10138  15.670  26.978  10.431
46580W        W10139  37.506   0.317  14.340
46581W        W10140  31.580  30.515   3.695
46582W        W10141  17.568  23.502  10.908
46583W        W10142  10.805  30.495   3.701
46584W        W10143  31.945  26.537  14.937
46585W        W10144  26.072  27.174  11.982
46586W        W10145  32.933   9.226  14.432
46587W        W10146  41.806  11.313   1.823
46588W        W10147   3.718  38.935  13.830
46589W        W10148  35.515  27.006  14.797
46590W        W10149  30.028  41.434   0.438
46591W        W10150   4.722  39.974   4.711
46592W        W10151  10.287  29.081   0.814
46593W        W10152  41.825  10.837   2.791
46594W        W10153  38.419  21.514   1.929
46595W        W10154   0.331  25.477  11.093
46596W        W10155  12.268   2.291  12.351
46597W        W10156  41.304  30.988   2.795
46598W        W10157  39.919  27.640  12.527
46599W        W10158  42.793  44.769   1.227
46600W        W10159  31.559  43.328   0.967
46601W        W10160  32.025  32.533   3.366
46602W        W10161  10.753  26.190  12.527
46603W        W10162   9.268  35.532   9.991
46604W        W10163   8.853  20.696  14.022
46605W        W10164  39.899  15.207   2.693
46606W        W10165  33.534   6.798  11.982
46607W        W10166  37.366  10.791   5.295
46608W        W10167   0.831  35.604  14.457
46609W        W10168  17.685   7.802  13.459
46610W        W10169   2.284  37.368   3.777
46611W        W10170  31.544  35.368  10.423
46612W        W10171   5.412  24.529  11.429
46613W        W10172  27.032  25.602   2.666
46614W        W10173  20.242  42.880   1.374
46615W        W10174  27.523  21.039  12.521
46616W        W10175   0.309  35.981  11.932
46617W        W10176   8.714   2.906  10.468
46618W        W10177   9.868  37.540  10.635
46619W        W10178   1.393   3.308   4.617
46620W        W10179  17.648  20.195   1.896
46621W        W10180  14.711  29.457  10.587
46622W        W10181  23.047  42.989   4.791
46623W        W10182  31.900  42.477  11.446
46624W        W10183  39.053  23.719  10.540
46625W        W10184  27.065  35.964  10.587
46626W        W10185  29.629  14.189  14.425
46627W        W10186   3.821   6.328  14.820
46628W        W10187  28.981   1.297   4.352
46629W        W10188  21.516  25.219  10.098
46630W        W10189   3.281   1.400   4.163
46631W        W10190  31.638  42.419  11.381
46632W        W10191  44.831   5.727  13.329
46633W        W10192   1.847  22.662  12.876
46634W        W10193  33.473   4.315   1.252
46635W        W10194  41.865  24.660   4.271
46636W        W10195  16.790  42.839   5.242
46637W        W10196   1.876  36.868   3.172
46638W        W10197  13.608  23.732  12.038
46639W        W10198  16.600   9.169   3.722
46640W        W10199  37.979   0.914   1.389
46641W        W10200  11.142   6.216  12.864
46642W        W10201  35.574   6.199  11.003
46643W        W10202  27.662  19.150  12.553
46644W        W10203  22.692  11.734   1.229
46645W        W10204  22.678  35.462  13.476
46646W        W10205  34.075  32.105   4.120
46647W        W10206   3.331  22.698   3.332
46648W        W10207  26.650  30.485  12.007
46649W        W10208   2.282  22.686  10.109
46650W        W10209  20.542  36.012  11.575
46651W        W10210  32.592  32.922  12.060
46652W        W10211  12.633  25.087   2.325
46653W        W10212   5.873  39.393   2.687
46654W        W10213   0.950  13.710   1.310
46655W        W10214  22.701   1.283   3.787
46656W        W10215   2.794   4.880  12.409
46657W        W10216   8.831  40.004  14.897
46658W        W10217  41.861  10.806   1.359
46659W        W10218   5.690  20.221   0.741
46660W        W10219   4.779   1.472  13.912
46661W        W10220  38.051  13.627   1.283
46662W        W10221   9.793   5.385  11.873
46663W        W10222  25.697  12.249  11.862
46664W        W10223  25.134   7.195  12.969
46665W        W10224  15.242  12.643   0.293
46666W        W10225  13.246  38.432  14.874
46667W        W10226  14.670  13.228  10.435
46668W        W10227  27.451   3.314  12.548
46669W        W10228  41.897   5.774   4.813
46670W        W10229   8.743  42.366   0.760
46671W        W10230  16.625  44.415  11.968
46672W        W10231  38.873  43.329  14.350
46673W        W10232  31.517  41.886   3.201
46674W        W10233  33.604  38.886  13.409
46675W        W10234  20.736   4.850  11.461
46676W        W10235  10.789  12.798   0.871
46677W        W10236  38.452  42.925   1.696
46678W        W10237  32.583  27.650   3.769
46679W        W10238  22.220  26.105  11.431
46680W        W10239  12.665  30.127  12.878
46681W        W10240  10.702  42.984   2.763
46682W        W10241  39.435  40.814   1.390
46683W        W10242   9.311  41.400  11.943
46684W        W10243  40.539  17.727   1.910
46685W        W10244  34.882  13.342  11.529
46686W        W10245  12.797  24.178   2.340
46687W        W10246  18.164  10.810   4.717
46688W        W10247  33.045   1.929  12.869
46689W        W10248  31.566  32.895   4.788
46690W        W10249  21.642   0.248   1.774
46691W        W10250  38.505   2.871  12.522
46692W        W10251  28.016   5.355  14.985
46693W        W10252  30.006  42.521  14.361
46694W        W10253  17.634  41.951  11.058
46695W        W10254  17.716  41.971   2.395
46696W        W10255   5.344   9.172  14.951
46697W        W10256  18.066  16.152   1.778
46698W        W10257  33.581  32.936   4.822
46699W        W10258  10.687   6.243   4.652
46700W        W10259  21.716  27.645   3.375
46701W        W10260  33.414  40.429   4.296
46702W        W10261  10.244  38.068   2.237
46703W        W10262  42.286   2.810   4.775
46704W        W10263   2.249  20.057  10.634
46705W        W10264  40.382  16.595  13.365
46706W        W10265  36.377  42.876  14.387
46707W        W10266  11.239   9.274   0.265
46708W        W10267  36.507  34.527  12.077
46709W        W10268  38.826  41.295   2.844
46710W        W10269  13.148  37.923   4.339
46711W        W10270  21.673  20.131   1.445
46712W        W10271  43.451   1.828   3.381
46713W        W10272   1.480  43.828   4.822
46714W        W10273   9.651   3.741   1.420
46715W        W10274  28.935  19.678   0.785
46716W        W10275  23.132  19.197   3.348
46717W        W10276   8.691  19.245  14.953
46718W        W10277  12.177  34.963  13.002
46719W        W10278  12.151  13.651   2.408
46720W        W10279  13.792  33.952   2.867
46721W        W10280  38.976  12.121  12.840
46722W        W10281   6.699  11.692   0.333
46723W        W10282   0.288  29.104   1.322
46724W        W10283  42.300   3.913   0.456
46725W        W10284   8.750  12.128   3.224
46726W        W10285  34.566   7.719   0.388
46727W        W10286  29.120   9.738   1.707
46728W        W10287  15.677  41.799  10.908
46729W        W10288   9.275  33.983   4.251
46730W        W10289   6.216  31.590   1.255
46731W        W10290  17.201   3.711  13.358
46732W        W10291   1.801  28.965   4.335
46733W        W10292   4.841  23.119   2.725
46734W        W10293  28.520   1.900   0.270
46735W        W10294  21.176  15.095  12.046
46736W        W10295  13.771  27.021   3.738
46737W        W10296  18.737  16.678   1.442
46738W        W10297   9.214  43.887   0.967
46739W        W10298  12.141  32.095   1.332
46740W        W10299   3.801  19.047  13.976
46741W        W10300  13.336  43.968   0.936
46742W        W10301  44.870  18.058   3.754
46743W        W10302  35.063  37.871   0.257
46744W        W10303  18.580  26.515   4.272
46745W        W10304  18.221  14.299  11.427
46746W        W10305  19.129  44.281  13.920
46747W        W10306  13.107  33.454   3.377
46748W        W10307   8.703   9.309   0.482
46749W        W10308  14.147  10.227   1.818
46750W        W10309   5.423  17.077   1.695
46751W        W10310  43.429  12.800  14.426
46752W        W10311  34.434  39.051  13.960
46753W        W10312  26.481  26.034   1.431
46754W        W10313  35.055   9.270  14.761
46755W        W10314  21.660   2.852   3.256
46756W        W10315   0.336  38.332   1.451
46757W        W10316  42.776  17.180  13.805
46758W        W10317   8.732  42.415   3.245
46759W        W10318  30.107  23.228   5.183
46760W        W10319   1.775  23.144  10.573
46761W        W10320   5.376  24.124   2.872
46762W        W10321  41.521   1.246   3.671
46763W        W10322  44.385  20.158  14.386
46764W        W10323  11.254  26.489   3.790
46765W        W10324   6.255  25.091  13.959
46766W        W10325   2.873  14.133   0.397
46767W        W10326  31.507  40.970  12.825
46768W        W10327   3.800  21.754  12.864
46769W        W10328  25.561   6.842  13.344
46770W        W10329  11.272   8.162  14.879
46771W        W10330  31.994  44.303   4.154
46772W        W10331  44.358  21.033  13.538
46773W        W10332  27.529  37.519   0.434
46774W        W10333  29.174  14.229   4.805
46775W        W10334  33.921  40.310  13.054
46776W        W10335  39.843  14.205   4.807
46777W        W10336  30.923  21.051   3.326
46778W        W10337   1.788   4.206  12.053
46779W        W10338   4.270  26.619  13.449
46780W        W10339  29.618   8.833   5.283
46781W        W10340  34.911  22.036  12.392
46782W        W10341  31.062   3.877   0.956
46783W        W10342   7.348  40.309   5.193
46784W        W10343  17.675  42.520   2.876
46785W        W10344   5.403  36.469   0.929
46786W        W10345  34.369  43.346   0.923
46787W        W10346  16.781  18.215  11.987
46788W        W10347  36.990  41.496   1.708
46789W        W10348   0.882   0.796  12.952
46790W        W10349  32.918  24.075   3.753
46791W        W10350  38.512  12.709  10.466
46792W        W10351  41.426  23.134  14.942
46793W        W10352  14.647   9.648  13.311
46794W        W10353   0.304  29.588   4.292
46795W        W10354  32.606  23.727  14.877
46796W        W10355  11.693  23.494  12.873
46797W        W10356  29.165  38.853  11.560
46798W        W10357  42.434  13.720  10.935
46799W        W10358  24.622   5.842   0.460
46800W        W10359  34.382  31.515   3.843
46801W        W10360  23.206  20.769   1.846
46802W        W10361  38.069   0.408  14.771
46803W        W10362  43.364  20.726  14.870
46804W        W10363  34.867  35.414   4.203
46805W        W10364  32.431  35.384   4.622
46806W        W10365  21.653  23.104  13.308
46807W        W10366  36.974  30.521  13.434
46808W        W10367   9.247   1.326   0.846
46809W        W10368  11.255  22.149   5.110
46810W        W10369   3.310  22.191   0.484
46811W        W10370   4.766   8.680  12.940
46812W        W10371  35.989  42.903  11.407
46813W        W10372  19.110  10.323   2.341
46814W        W10373  16.142  38.532   2.240
46815W        W10374  30.435  20.080  14.447
46816W        W10375  44.785   7.405   2.691
46817W        W10376  27.659  23.665   1.257
46818W        W10377  29.575  33.560   0.256
46819W        W10378  12.307  25.981   4.120
46820W        W10379  10.205  43.834  11.072
46821W        W10380  21.714   3.304  13.043
46822W        W10381  36.943  35.412  10.588
46823W        W10382  16.187  30.091   1.806
46824W        W10383  39.441  33.115  13.351
46825W        W10384  39.808  27.948  12.893
46826W        W10385  20.766  17.145   3.708
46827W        W10386  34.047  22.049  12.848
46828W        W10387  43.786   8.340   0.820
46829W        W10388  23.639  21.022   1.272
46830W        W10389  24.030  27.494  14.017
46831W        W10390  42.363  18.236   1.828
46832W        W10391  27.617  14.149   0.330
46833W        W10392   6.253  21.182  14.408
46834W        W10393  22.593  13.656   2.759
46835W        W10394  11.184  10.352  13.837
46836W        W10395  23.646  28.965   2.309
46837W        W10396   9.807   2.822   2.328
46838W        W10397  33.965  37.961   4.681
46839W        W10398  32.048  18.259   1.755
46840W        W10399  24.707  32.416  11.928
46841W        W10400  32.972  15.762  12.828
46842W        W10401  17.124  31.916  12.092
46843W        W10402  42.515   9.697   3.329
46844W        W10403  15.245  15.243  10.913
46845W        W10404  11.785  40.370  11.114
46846W        W10405  38.043  39.494  12.961
46847W        W10406  21.607  33.464  13.956
46848W        W10407  13.608   8.760   2.297
46849W        W10408  34.065   6.737  14.376
46850W        W10409  28.679  35.382  11.602
46851W        W10410   4.428   0.971   3.656
46852W        W10411  16.135  44.771  10.528
46853W        W10412  36.459  15.787   1.352
46854W        W10413   6.722   2.781   3.678
46855W        W10414  39.406  35.366  10.459
46856W        W10415  23.136  28.640  14.351
46857W        W10416  43.342  23.993   3.351
46858W        W10417  15.582   6.785  12.964
46859W        W10418   7.265  19.620   2.257
46860W        W10419  12.766  42.018  13.941
46861W        W10420  26.631  15.809  11.435
46862W        W10421  24.973  12.689   4.294
46863W        W10422  20.680   3.257   4.641
46864W        W10423  25.693  23.632   0.290
46865W        W10424  39.999  34.912   3.646
46866W        W10425  44.491  38.454   1.225
46867W        W10426  13.636   5.804   0.394
46868W        W10427   3.797  43.360  13.801
46869W        W10428  33.966  37.054   3.243
46870W        W10429  42.023  17.079  12.473
46871W        W10430  12.211  25.219   3.790
46872W        W10431   6.771  28.968  14.331
46873W        W10432   1.817   4.337  12.427
46874W        W10433   1.797  29.945  13.460
46875W        W10434  17.093  19.074  13.307
46876W        W10435   9.262  30.067   2.750
46877W        W10436  10.671  40.875   3.814
46878W        W10437  34.921  41.432   0.315
46879W        W10438   5.927  12.311  14.012
46880W        W10439  28.999  41.320  10.063
46881W        W10440   9.149  16.757   2.335
46882W        W10441  36.517  41.346  11.095
46883W        W10442   4.384  12.699   1.769
46884W        W10443  39.939  35.554   4.678
46885W        W10444  41.932   2.376   1.839
46886W        W10445  21.170  10.183  13.409
46887W        W10446  23.169  36.418   1.308
46888W        W10447  25.698  38.060   3.250
46889W        W10448   9.842  15.164  10.492
46890W        W10449  42.448  19.244  12.043
46891W        W10450  11.333  32.893   3.640
46892W        W10451  44.283   2.439  12.087
46893W        W10452  39.510  38.001   0.855
46894W        W10453  19.605   7.744   0.807
46895W        W10454  22.170  41.980   2.332
46896W        W10455  32.540  37.938   4.805
46897W        W10456  23.665   4.449   2.191
46898W        W10457   8.859   3.216  10.499
46899W        W10458  24.117   5.692   3.289
46900W        W10459   5.246  21.533  11.475
46901W        W10460  11.771  17.211  11.463
46902W        W10461  25.654  17.279  10.637
46903W        W10462  18.637  42.927  12.555
46904W        W10463   4.851  19.231   4.784
46905W        W10464  11.236  14.320   0.785
46906W        W10465  24.531  36.406   3.730
46907W        W10466  34.412   1.342   0.266
46908W        W10467  25.091  41.871  12.886
46909W        W10468  14.636  39.499   3.644
46910W        W10469  13.170  12.854   5.154
46911W        W10470  27.990   6.809   1.830
46912W        W10471  12.731  38.930  13.865
46913W        W10472  12.734  34.070   9.978
46914W        W10473  17.694  28.014  10.498
46915W        W10474  17.704  11.667   2.382
46916W        W10475  23.020  42.434  11.400
46917W        W10476  28.462  34.107   0.282
46918W        W10477   8.398  38.920   3.341
46919W        W10478  24.096  27.484   1.276
46920W        W10479  26.093  38.020  11.480
46921W        W10480  16.139   4.761  10.404
46922W        W10481  30.077  24.725   4.726
46923W        W10482  28.674  23.151   3.344
46924W        W10483  13.301  30.038  11.025
46925W        W10484  41.384  19.765   4.212
46926W        W10485  29.029  29.970  14.850
46927W        W10486  27.555  19.172  14.777
46928W        W10487  17.720  16.598   3.770
46929W        W10488  13.809   1.401  13.821
46930W        W10489  36.456  14.794  13.308
46931W        W10490  32.124  34.980  14.306
46932W        W10491  33.403  31.965  11.062
46933W        W10492  12.637   9.241  12.353
46934W        W10493   4.325   6.841  13.532
46935W        W10494   9.646  35.417   2.831
46936W        W10495  14.746  11.856   4.609
46937W        W10496  26.064   0.311  11.969
46938W        W10497  17.086  14.669   3.175
46939W        W10498   4.444  32.994  12.981
46940W        W10499  44.990  40.408   0.343
46941W        W10500   0.855  31.603  13.354
46942W        W10501  11.675  31.100  12.573
46943W        W10502  24.615  35.060  14.977
46944W        W10503   4.772  35.084  13.853
46945W        W10504   5.915  21.514   4.625
46946W        W10505  30.158   8.215   1.262
46947W        W10506   6.268  44.995   0.933
46948W        W10507  20.767  32.138   3.148
46949W        W10508   8.272  42.301   2.324
46950W        W10509  16.199  15.749   0.350
46951W        W10510   1.784   6.767   3.708
46952W        W10511  42.401  34.960  10.971
46953W        W10512   5.893   5.790  14.967
46954W        W10513  27.539  37.348   1.700
46955W        W10514  33.997  34.897  11.963
46956W        W10515  25.091   5.320   1.897
46957W        W10516  43.484  14.124  10.896
46958W        W10517  16.684   7.732   2.357
46959W        W10518  32.393   0.406  14.499
46960W        W10519  31.614  39.337  12.904
46961W        W10520  40.392  33.510   0.425
46962W        W10521  39.028  12.725  12.826
46963W        W10522   0.966  44.478   4.302
46964W        W10523   9.726  18.274  10.950
46965W        W10524  32.567  20.748  12.040
46966W        W10525  29.044  39.430   0.852
46967W        W10526  35.943  36.410   4.790
46968W        W10527  19.158   4.717  12.895
46969W        W10528  20.529   1.272   2.416
46970W        W10529  41.788  39.045   5.245
46971W        W10530  39.444  30.929  13.810
46972W        W10531  15.301  29.444   1.878
46973W        W10532  36.462  38.971  14.995
46974W        W10533  42.324  21.072  12.545
46975W        W10534  43.777  15.723  11.569
46976W        W10535  21.646   6.277   3.830
46977W        W10536  32.627  16.798  13.024
46978W        W10537  36.928  37.840   1.914
46979W        W10538   9.888  40.431  11.959
46980W        W10539  39.034   8.236   2.858
46981W        W10540   0.780   6.897   1.390
46982W        W10541  27.131  32.036   0.760
46983W        W10542  16.083  24.516  14.417
46984W        W10543  21.127   3.319  10.631
46985W        W10544  11.194   0.311   3.192
46986W        W10545  44.000   4.795   2.219
46987W        W10546  36.933  38.534   1.372
46988W        W10547  31.928  29.135  14.978
46989W        W10548  10.374  10.790  10.461
46990W        W10549  20.167  12.191   0.910
46991W        W10550  44.807   5.220   0.477
46992W        W10551  36.957   9.655  11.378
46993W        W10552  11.229  38.850  13.545
46994W        W10553  31.093  18.185   2.808
46995W        W10554  32.082  33.059  13.391
46996W        W10555  13.704   5.425  11.880
46997W        W10556  14.770  43.372   4.237
46998W        W10557  20.074  11.281  12.977
46999W        W10558   5.435  21.562   2.774
47000W        W10559   4.318  31.523   2.191
47001W        W10560  20.741  22.569   2.849
47002W        W10561  28.001  15.667  12.857
47003W        W10562  32.142  37.346  10.017
47004W        W10563  15.770  37.914  14.863
47005W        W10564  21.034   7.901  13.400
47006W        W10565   4.382   9.176  12.411
47007W        W10566  17.063   1.391  12.526
47008W        W10567  44.326  13.207   2.731
47009W        W10568  21.094  21.255   4.711
47010W        W10569   5.762  25.594   3.667
47011W        W10570  27.561  37.890  12.477
47012W        W10571  16.277  33.379   2.675
47013W        W10572  30.046  33.589  10.581
47014W        W10573  24.712   2.440  11.875
47015W        W10574  12.759  37.844   2.217
47016W        W10575  20.700  26.186  12.891
47017W        W10576  16.603  16.742  10.469
47018W        W10577  25.121  31.134  14.859
47019W        W10578  35.440  34.990   1.407
47020W        W10579  11.698  36.040  12.015
47021W        W10580   1.740   6.245   0.774
47022W        W10581   4.741  33.099  13.801
47023W        W10582  31.612  28.548   1.385
47024W        W10583  27.681  35.943   1.394
47025W        W10584  10.355  11.314   2.804
47026W        W10585  11.825  25.588  14.466
47027W        W10586  12.199  33.460  10.462
47028W        W10587  43.005  24.989   2.870
47029W        W10588  16.646  32.971   4.203
47030W        W10589  12.356  17.692  13.853
47031W        W10590  11.768  31.974   0.262
47032W        W10591  38.491  20.615   2.190
47033W        W10592  28.108  23.522  12.096
47034W        W10593  31.542  34.494   2.844
47035W        W10594   7.679  42.965  10.041
47036W        W10595  14.692   7.283  12.370
47037W        W10596  36.011  11.181  11.464
47038W        W10597  13.711  36.860   0.963
47039W        W10598  21.511   8.333   4.129
47040W        W10599   6.242   2.942  11.473
47041W        W10600  39.409  14.340  10.961
47042W        W10601  42.882  13.212   5.144
47043W        W10602  43.937  43.282  14.358
47044W        W10603  14.800  11.242   4.225
47045W        W10604  42.489  32.565  13.945
47046W        W10605   4.291  15.693   1.376
47047W        W10606   8.360  38.340  14.501
47048W        W10607  16.181  23.196  14.947
47049W        W10608  21.026  13.221   2.228
47050W        W10609  38.388  31.943  14.313
47051W        W10610  22.115   8.829  10.613
47052W        W10611   4.794  12.675   3.369
47053W        W10612  31.969  42.361   4.728
47054W        W10613  33.410  24.596  13.483
47055W        W10614   4.891  40.799   2.691
47056W        W10615  11.216  43.393  14.993
47057W        W10616   8.680   5.309  11.399
47058W        W10617  28.580  11.145   3.280
47059W        W10618  17.306  38.351   3.382
47060W        W10619   6.284  44.006   4.243
47061W        W10620  23.058  12.270  13.440
47062W        W10621  19.087  10.302  13.510
47063W        W10622  23.185  35.964   4.751
47064W        W10623   4.827   0.290  14.327
47065W        W10624   9.727  17.061  13.361
47066W        W10625  39.905  25.000   3.234
47067W        W10626  13.739  39.402  10.541
47068W        W10627  43.943   3.355  12.501
47069W        W10628  38.465  15.641  10.424
47070W        W10629  17.709  12.655  10.982
47071W        W10630   3.397  37.863   0.365
47072W        W10631  30.594  27.978   2.300
47073W        W10632   1.447  36.886   1.379
47074W        W10633  13.168   2.321  13.474
47075W        W10634   8.171  26.664   1.370
47076W        W10635  29.491  31.922   4.652
47077W        W10636  35.476  19.750  13.384
47078W        W10637  27.547  16.658  14.386
47079W        W10638   9.192  29.006   4.207
47080W        W10639   0.287  13.132  13.345
47081W        W10640  28.003  22.171  11.880
47082W        W10641  31.648  29.427  11.911
47083W        W10642  32.481  44.004  11.540
47084W        W10643   2.227  30.531   3.177
47085W        W10644  14.709  25.624   0.360
47086W        W10645   3.793   3.841   1.301
47087W        W10646   4.729   2.739  11.427
47088W        W10647  42.311  36.947   3.792
47089W        W10648  37.910  32.983   1.875
47090W        W10649   4.851  20.583  11.090
47091W        W10650   2.295  20.677  12.928
47092W        W10651   0.928  12.296   1.398
47093W        W10652  19.127  27.130  13.802
47094W        W10653  35.944   2.259   4.291
47095W        W10654  32.970   9.347   1.876
47096W        W10655  18.246  14.826  10.624
47097W        W10656  34.482  40.921  10.918
47098W        W10657   6.723   1.395  11.124
47099W        W10658  28.031  26.644  12.901
47100W        W10659  18.706  34.588  13.475
47101W        W10660  10.141  12.298  14.785
47102W        W10661  30.450   9.306  13.801
47103W        W10662  43.908  28.490   0.396
47104W        W10663  20.238  15.637  12.479
47105W        W10664  31.644   0.274  13.804
47106W        W10665  28.161  38.457  10.618
47107W        W10666  35.948  29.009   0.316
47108W        W10667  32.535  39.543  14.839
47109W        W10668  12.803  24.705  11.932
47110W        W10669   8.380  28.581  14.366
47111W        W10670   8.373  13.123  12.089
47112W        W10671  18.680  10.879   0.391
47113W        W10672  16.293  43.340   4.268
47114W        W10673  41.442  42.517   0.766
47115W        W10674  40.810  11.684   2.693
47116W        W10675  38.868  30.945  12.361
47117W        W10676  17.718  39.432   0.312
47118W        W10677  13.647   9.877   2.186
47119W        W10678  15.186   5.408  12.892
47120W        W10679  40.460  24.714   0.844
47121W        W10680  36.406   6.842   4.743
47122W        W10681  23.050  16.693  12.916
47123W        W10682  38.895  15.097   3.854
47124W        W10683  38.056  27.649  13.339
47125W        W10684   5.337  17.747  11.483
47126W        W10685   2.733  18.102  13.392
47127W        W10686  12.226   1.292  14.850
47128W        W10687   8.654   6.794  13.330
47129W        W10688  24.599   5.236  13.876
47130W        W10689  21.554   5.743   0.264
47131W        W10690  21.729  10.846  14.381
47132W        W10691   7.674   0.842   1.773
47133W        W10692   5.258   4.715   4.606
47134W        W10693  29.506  12.312  12.424
47135W        W10694  21.037  13.343   0.945
47136W        W10695  19.248  19.053  13.807
47137W        W10696  42.494   8.259   2.387
47138W        W10697  10.263  31.100  13.542
47139W        W10698  35.075  11.128   0.832
47140W        W10699  34.563  36.501   4.715
47141W        W10700  22.586  25.018   0.899
47142W        W10701  16.137  16.217   2.857
47143W        W10702   3.952   8.869  11.942
47144W        W10703  16.281  29.621   1.352
47145W        W10704   9.357  37.851  14.511
47146W        W10705  32.032  17.635   4.340
47147W        W10706  19.573  42.910   0.891
47148W        W10707  10.340  11.138  11.945
47149W        W10708  36.869  10.857  11.431
47150W        W10709  35.528  26.086  10.449
47151W        W10710  23.995  27.185   3.196
47152W        W10711   1.352  34.988   3.290
47153W        W10712  15.325   6.824  12.955
47154W        W10713  30.990  24.016   3.855
47155W        W10714  34.966  24.010   4.653
47156W        W10715   7.415  20.659  14.856
47157W        W10716   5.833  34.602  13.857
47158W        W10717  40.500  10.376  11.987
47159W        W10718  41.398  19.633   2.864
47160W        W10719  11.318  31.980   4.707
47161W        W10720  13.688  35.866  12.455
47162W        W10721   7.236  11.144   1.295
47163W        W10722   8.895  12.343  14.012
47164W        W10723   0.321  19.539  14.774
47165W        W10724  13.663  33.588  12.445
47166W        W10725  18.592  26.675   9.945
47167W        W10726  28.558   4.823   0.420
47168W        W10727  30.966  42.002  12.548
47169W        W10728  41.837   5.908  11.545
47170W        W10729   4.268  30.971   1.389
47171W        W10730  24.538  10.200   3.211
47172W        W10731  14.330   3.437   2.224
47173W        W10732  23.496  12.272   2.681
47174W        W10733  40.019  16.570   4.267
47175W        W10734  43.855  21.252   0.913
47176W        W10735   9.195   8.663   4.725
47177W        W10736  23.718  35.425  14.935
47178W        W10737  12.218   3.438  12.988
47179W        W10738  34.418  17.092  14.403
47180W        W10739  10.820  17.268  11.387
47181W        W10740  38.496  44.330  10.896
47182W        W10741  37.915  38.431  13.418
47183W        W10742  24.082  26.049  14.369
47184W        W10743   7.826  43.841  10.534
47185W        W10744   5.825  41.910   2.401
47186W        W10745  26.155   9.788   2.817
47187W        W10746  18.138  26.590   0.852
47188W        W10747  21.263  12.155   4.221
47189W        W10748   0.809   3.832  11.086
47190W        W10749   5.789   1.328  13.931
47191W        W10750  42.834  23.642   1.833
47192W        W10751  26.997   4.933  14.415
47193W        W10752  24.140   8.701  13.967
47194W        W10753  27.494  42.440  14.780
47195W        W10754  21.223  25.117   0.777
47196W        W10755  44.903   2.782  11.373
47197W        W10756  26.089   9.236  14.972
47198W        W10757  28.152  12.655   1.702
47199W        W10758  32.073  16.085   2.856
47200W        W10759   6.387  39.831   4.121
47201W        W10760  29.023  42.806   0.784
47202W        W10761  43.807  17.147  12.832
47203W        W10762  24.039  25.191  12.860
47204W        W10763  20.563   3.393  10.580
47205W        W10764  28.167  34.401   2.815
47206W        W10765  30.922  15.288   3.278
47207W        W10766  30.928  18.119  11.895
47208W        W10767  34.997  22.121  10.608
47209W        W10768  14.735  41.843  10.498
47210W        W10769  28.965   1.325   3.687
47211W        W10770  44.838  21.561  13.804
47212W        W10771   0.948   1.416   2.747
47213W        W10772   8.287  29.554   2.845
47214W        W10773  41.927   7.744  10.961
47215W        W10774  10.634  18.769  11.548
47216W        W10775  20.688  37.340  11.537
47217W        W10776   4.281  10.214  13.013
47218W        W10777  29.119   7.721  14.826
47219W        W10778  33.515   5.321  10.513
47220W        W10779  35.445   5.309   3.673
47221W        W10780   3.916  41.396   4.174
47222W        W10781  20.152  13.322   3.838
47223W        W10782  22.053   3.718  10.455
47224W        W10783  30.543  10.651   4.242
47225W        W10784  29.078  43.925   4.763
47226W        W10785   1.779   5.783  12.876
47227W        W10786  38.529  40.397  12.577
47228W        W10787   1.924   1.743  10.958
47229W        W10788  13.681  20.596   3.758
47230W        W10789  40.043  22.506   0.460
47231W        W10790  25.101   0.943   4.657
47232W        W10791   9.875  36.990  13.390
47233W        W10792   6.268   5.254  10.923
47234W        W10793   7.322  27.151   2.288
47235W        W10794  30.424   2.892  12.384
47236W        W10795  13.817  13.204  11.429
47237W        W10796  36.044  14.301   3.735
47238W        W10797   1.884  14.725  10.528
47239W        W10798   4.918  38.069   2.766
47240W        W10799  44.360  25.991  10.993
47241W        W10800   2.905  15.645   4.777
47242W        W10801  24.138   1.319  12.532
47243W        W10802  10.804   9.217  10.571
47244W        W10803  42.435   6.193   4.269
47245W        W10804   6.355   0.938  11.857
47246W        W10805  26.499  33.572   1.900
47247W        W10806  15.672  32.103  13.814
47248W        W10807   5.338  17.631   0.821
47249W        W10808  31.067  43.405   0.819
47250W        W10809   4.358  20.199   3.331
47251W        W10810  31.128  21.127  12.083
47252W        W10811   7.376  26.170   0.413
47253W        W10812  23.025   7.260  10.552
47254W        W10813  26.556  42.428  11.545
47255W        W10814  12.178  14.636  10.966
47256W        W10815  24.542  20.166   4.818
47257W        W10816  23.228  13.205   9.954
47258W        W10817   5.786  13.715   1.921
47259W        W10818   7.389  11.711   3.229
47260W        W10819  19.137  34.531   3.328
47261W        W10820  30.431  26.983  14.295
47262W        W10821   7.809  13.654  14.837
47263W        W10822  32.127  44.450   3.698
47264W        W10823   5.304  40.316  12.364
47265W        W10824  30.971  15.716  10.004
47266W        W10825  15.176  16.740   2.721
47267W        W10826  28.436  17.699   3.290
47268W        W10827  24.047  42.017   0.919
47269W        W10828  26.193  40.870   0.929
47270W        W10829  37.355  13.794   2.301
47271W        W10830  36.934  41.978  11.377
47272W        W10831  10.158  20.752  14.921
47273W        W10832  26.576  12.301   4.203
47274W        W10833   6.690  16.214  13.877
47275W        W10834  26.561  22.129   0.923
47276W        W10835  29.450  44.425   3.309
47277W        W10836  44.406  15.819   4.764
47278W        W10837  27.010  12.853  10.464
47279W        W10838  34.395   1.748   3.830
47280W        W10839  43.431  14.267   3.750
47281W        W10840  44.385  14.121   4.776
47282W        W10841  25.983  23.713  13.517
47283W        W10842  24.004   0.425  12.554
47284W        W10843  39.494  36.418   1.347
47285W        W10844   8.705  24.001   4.196
47286W        W10845   5.366  19.044  14.900
47287W        W10846  17.658  25.973   2.891
47288W        W10847  38.541  16.681   0.767
47289W        W10848  24.209  36.050  12.436
47290W        W10849  34.402  21.226  10.625
47291W        W10850  25.050   9.327  14.376
47292W        W10851  12.175  21.030   4.233
47293W        W10852  14.238  30.043   0.444
47294W        W10853  20.621  16.133   4.807
47295W        W10854  22.037  31.073   1.231
47296W        W10855  39.393  41.816   4.665
47297W        W10856  16.182   6.221  12.365
47298W        W10857  37.444   8.697  10.075
47299W        W10858   2.404  27.020  12.352
47300W        W10859  33.515  33.909   0.726
47301W        W10860  16.262  32.590   4.599
47302W        W10861  24.109  36.088   2.897
47303W        W10862  40.483  17.614   2.273
47304W        W10863   3.225  17.770  13.013
47305W        W10864  39.470   8.256  12.073
47306W        W10865   3.733  27.122  13.378
47307W        W10866   0.794  43.484   0.942
47308W        W10867  25.010   9.874   0.893
47309W        W10868  26.692   2.388   1.772
47310W        W10869  13.631  34.374  12.569
47311W        W10870  33.125  12.300  10.577
47312W        W10871  14.697  37.417   3.790
47313W        W10872  29.030  19.629  10.965
47314W        W10873  33.451  42.829   3.310
47315W        W10874   2.951  26.462   2.369
47316W        W10875  34.007  38.426   2.814
47317W        W10876  37.548  38.989  13.337
47318W        W10877  20.534  34.438   4.207
47319W        W10878  33.393  21.583  11.860
47320W        W10879  25.992  29.503  11.573
47321W        W10880  38.950  39.386   1.758
47322W        W10881  40.504  20.548   2.371
47323W        W10882   0.463  15.294  13.017
47324W        W10883  44.385  23.554  14.878
47325W        W10884  25.634  19.089   1.264
47326W        W10885   1.976  44.482   0.881
47327W        W10886   4.260   1.402   4.706
47328W        W10887  34.406  28.639  14.973
47329W        W10888   9.841  19.604   0.750
47330W        W10889  21.263  18.185  12.852
47331W        W10890  20.686  36.898  11.083
47332W        W10891  10.775   2.956   1.365
47333W        W10892  37.894   3.355  14.482
47334W        W10893  18.654   7.844  12.014
47335W        W10894   3.844  26.013  14.366
47336W        W10895  34.921  22.088   4.631
47337W        W10896  12.836   1.285  12.025
47338W        W10897  35.028   0.382  12.482
47339W        W10898  23.008  38.835  12.897
47340W        W10899  33.567  19.605   5.163
47341W        W10900  21.221  23.123  10.949
47342W        W10901  16.240   2.748   3.271
47343W        W10902   6.417  41.449  13.023
47344W        W10903  34.964  44.446  10.627
47345W        W10904   7.674  23.634   1.852
47346W        W10905  12.241  33.992  13.348
47347W        W10906  41.878  43.868   3.763
47348W        W10907  19.115  31.464   5.143
47349W        W10908  41.926   1.836  11.407
47350W        W10909  42.872  32.599   2.733
47351W        W10910  36.967  12.218   1.751
47352W        W10911  34.941  11.180  10.463
47353W        W10912  12.216  20.691  10.998
47354W        W10913   5.822  15.739  13.529
47355W        W10914  20.045  18.099  11.985
47356W        W10915  44.402   5.399   4.275
47357W        W10916  35.086  15.169  11.943
47358W        W10917   0.745  26.109  12.925
47359W        W10918  16.148  39.882   2.731
47360W        W10919  22.528  42.031   1.712
47361W        W10920   2.790   9.326  14.281
47362W        W10921   8.185  28.953   3.261
47363W        W10922  23.698   4.386   3.666
47364W        W10923  30.108  44.924  14.901
47365W        W10924  42.018  22.090  12.561
47366W        W10925  40.418  31.101  14.777
47367W        W10926  42.839  39.540  12.453
47368W        W10927  16.222  41.813  13.813
47369W        W10928  10.709  27.984   4.195
47370W        W10929  36.446  37.563   0.277
47371W        W10930  39.553  19.757   1.211
47372W        W10931  14.759   2.255  13.913
47373W        W10932  33.989  43.983  12.079
47374W        W10933  36.550  43.452  10.554
47375W        W10934  33.503  11.817  11.418
47376W        W10935  38.926  14.223  14.889
47377W        W10936   7.188   1.383   3.254
47378W        W10937  26.514  31.533  13.370
47379W        W10938  24.004  31.075  10.534
47380W        W10939  38.517  36.893   0.790
47381W        W10940  23.060  19.155   3.739
47382W        W10941  25.506  34.064   0.934
47383W        W10942   8.729  16.253  12.834
47384W        W10943  41.325   1.854  10.501
47385W        W10944  38.553  33.463   0.296
47386W        W10945   5.405  34.916  13.944
47387W        W10946  41.295  13.699   4.135
47388W        W10947  41.832   1.819  13.544
47389W        W10948  12.792  33.468  10.621
47390W        W10949   9.773  13.347  10.435
47391W        W10950   6.681  16.315   3.343
47392W        W10951  31.595  35.068  13.459
47393W        W10952  21.019  17.659  11.964
47394W        W10953  13.193  13.726  11.373
47395W        W10954  11.259  21.199  10.033
47396W        W10955  16.217  26.514  11.387
47397W        W10956  11.259  23.189   3.785
47398W        W10957  32.112  28.567   3.222
47399W        W10958  30.600   5.333   2.817
47400W        W10959  31.023  28.496   0.271
47401W        W10960   6.677   3.714   2.681
47402W        W10961  21.582  39.423  11.970
47403W        W10962  39.844  43.319  13.376
47404W        W10963  33.956  33.092  11.595
47405W        W10964  32.921  33.008   3.294
47406W        W10965  39.940  35.868  14.406
47407W        W10966  38.376  19.229  11.891
47408W        W10967  26.171  34.542   0.823
47409W        W10968   5.712   0.894   0.475
47410W        W10969  29.034  42.824   2.229
47411W        W10970  29.459  32.107   0.374
47412W        W10971  14.116   9.767  10.003
47413W        W10972  35.020  35.104  11.077
47414W        W10973  14.141   2.376  13.542
47415W        W10974  14.682   7.819  11.978
47416W        W10975   5.199  26.005   0.408
47417W        W10976  39.429  27.556  11.985
47418W        W10977  42.784   6.400   4.808
47419W        W10978  20.166  25.657   1.833
47420W        W10979  24.177  35.478   3.335
47421W        W10980  17.750  26.687   0.339
47422W        W10981  36.858  29.174   1.776
47423W        W10982   7.849  37.410  10.055
47424W        W10983  10.670  17.561   1.250
47425W        W10984  26.620  38.958   1.746
47426W        W10985  32.578  33.122   2.258
47427W        W10986   4.902   0.445  13.542
47428W        W10987  20.533  22.211   1.262
47429W        W10988  35.928   3.781   0.774
47430W        W10989   6.241   0.259  14.410
47431W        W10990  23.197  43.356   3.238
47432W        W10991  15.712  37.867   3.694
47433W        W10992  21.623  42.384  12.483
47434W        W10993   8.733  38.989  10.594
47435W        W10994   1.429   3.234   2.245
47436W        W10995  40.878  41.390   1.769
47437W        W10996  28.675  38.012   4.765
47438W        W10997  39.892  14.129   1.794
47439W        W10998  39.474  38.851  14.904
47440W        W10999  38.369  40.946   0.313
47441W        W11000   4.417  28.457   3.711
47442W        W11001  43.021  14.654  12.073
47443W        W11002  11.838  30.541  13.797
47444W        W11003   5.783   5.797  10.446
47445W        W11004  44.883  14.714  10.483
47446W        W11005  31.452   2.297  11.008
47447W        W11006  23.643  35.093  11.595
47448W        W11007  43.396  28.172   4.637
47449W        W11008   2.441  31.141  13.933
47450W        W11009  17.569   2.732  14.493
47451W        W11010  11.818  29.163   2.731
47452W        W11011  29.065  22.728  13.444
47453W        W11012  17.148  26.036   4.156
47454W        W11013  24.223  11.800  11.898
47455W        W11014   8.160   7.308  11.925
47456W        W11015  27.077  16.797  14.290
47457W        W11016  26.050   6.202   1.395
47458W        W11017   4.828  24.724   2.332
47459W        W11018  37.021  42.525  10.609
47460W        W11019  20.573  41.848   0.419
47461W        W11020  26.958   5.429  14.782
47462W        W11021  10.840  13.141   0.915
47463W        W11022  15.184  37.387   4.113
47464W        W11023  29.491  22.046  12.534
47465W        W11024  36.535  36.492   2.253
47466W        W11025  17.240  42.314   2.703
47467W        W11026  44.473  38.831  12.425
47468W        W11027  27.673  29.498   4.190
47469W        W11028  17.238  15.581  12.429
47470W        W11029  39.913  28.092  11.091
47471W        W11030   4.783  38.983   1.263
47472W        W11031  16.766  35.369   3.266
47473W        W11032  39.551  28.474   1.719
47474W        W11033  12.129  44.264  13.917
47475W        W11034  42.522  33.030   0.377
47476W        W11035  20.702  43.333  13.321
47477W        W11036  12.804  35.085  11.087
47478W        W11037  37.871  24.607   4.201
47479W        W11038   4.928  31.920   1.278
47480W        W11039  30.425  35.965   1.920
47481W        W11040  32.057   0.297  14.780
47482W        W11041  23.080   8.761  11.122
47483W        W11042  11.338   5.414   0.254
47484W        W11043  42.817  33.471  13.437
47485W        W11044   8.840  18.276  11.950
47486W        W11045   0.468  41.328  14.842
47487W        W11046   0.918  12.137  10.449
47488W        W11047  37.377  32.914   0.319
47489W        W11048   2.269  41.937  12.436
47490W        W11049  39.835  44.900  11.946
47491W        W11050  42.840   5.437   1.293
47492W        W11051  13.196  10.374  11.442
47493W        W11052  20.180  44.362   0.906
47494W        W11053   5.312  38.530   0.289
47495W        W11054  38.059  18.118  14.942
47496W        W11055  25.174   1.964  10.108
47497W        W11056   6.270  42.301   3.830
47498W        W11057   8.691  20.554   1.911
47499W        W11058  26.673  40.492   0.781
47500W        W11059  21.055  12.766  11.506
47501W        W11060  37.500  41.994   1.251
47502W        W11061  13.699  13.811   3.218
47503W        W11062  27.525  17.758  11.884
47504W        W11063  44.337  22.683   1.402
47505W        W11064  13.831  12.145  11.420
47506W        W11065  19.718  13.846   4.315
47507W        W11066  19.240  33.492   1.776
47508W        W11067  27.457  24.528  11.548
47509W        W11068  16.773  21.031   2.296
47510W        W11069  15.100  38.019   2.296
47511W        W11070   5.302  43.884   0.761
47512W        W11071   1.746  21.133   3.858
47513W        W11072  28.137   3.333   4.141
47514W        W11073  26.594  21.617   3.273
47515W        W11074  14.600  31.019   1.279
47516W        W11075   2.266   6.865  14.873
47517W        W11076  37.830   3.440   5.312
47518W        W11077   8.320   0.849  13.376
47519W        W11078   7.878  35.920  10.936
47520W        W11079   1.467  27.958   3.236
47521W        W11080  33.098  33.924  11.462
47522W        W11081  23.021  27.088   1.853
47523W        W11082  41.958  19.127   2.845
47524W        W11083  18.050  42.321   1.213
47525W        W11084  43.495  13.335   3.166
47526W        W11085  25.005  12.631   9.597
47527W        W11086  19.655  13.204  12.563
47528W        W11087  38.886  31.006  11.984
47529W        W11088  35.512  40.400  14.987
47530W        W11089  44.911  30.050   4.292
47531W        W11090  37.388  30.462  13.882
47532W        W11091  30.138  27.036  13.954
47533W        W11092   2.943  35.397  14.298
47534W        W11093  14.680  41.396  11.531
47535W        W11094   6.387  16.102   0.847
47536W        W11095  33.544  20.084  12.954
47537W        W11096  16.590  41.852   3.252
47538W        W11097  36.861   8.676  14.323
47539W        W11098   6.328  14.830  11.525
47540W        W11099  30.595   5.404  14.441
47541W        W11100  18.201  20.556   0.952
47542W        W11101  43.817   0.936  10.542
47543W        W11102  24.612  22.201   4.232
47544W        W11103   9.181   0.742  11.602
47545W        W11104  21.108  41.425   0.945
47546W        W11105  25.124  19.284   1.328
47547W        W11106  16.121  10.212  13.825
47548W        W11107  26.620   0.869  10.628
47549W        W11108   8.346  21.574  10.895
47550W        W11109  13.318  44.312  13.370
47551W        W11110  38.006  26.106   4.648
47552W        W11111  20.177  11.199   4.818
47553W        W11112   3.353  11.770   4.172
47554W        W11113   3.303  16.755   9.942
47555W        W11114  21.681  13.692  12.906
47556W        W11115  29.634  15.204  11.052
47557W        W11116  43.995   2.930  14.494
47558W        W11117  22.518  11.660  11.972
47559W        W11118  40.338   2.281   0.444
47560W        W11119  19.561   3.242   0.812
47561W        W11120  44.966  36.474   0.766
47562W        W11121   8.242   4.313  13.313
47563W        W11122  21.174  11.360  10.410
47564W        W11123  43.802  36.524  13.040
47565W        W11124  42.951  36.477   4.184
47566W        W11125  38.042   8.816   1.723
47567W        W11126  30.486   2.727   0.293
47568W        W11127  25.166   6.294  14.343
47569W        W11128   2.453  17.753  11.885
47570W        W11129  15.662  26.504   3.830
47571W        W11130  10.680   7.332   0.313
47572W        W11131   0.775  20.654  13.974
47573W        W11132   6.768  17.721  14.026
47574W        W11133  35.911   7.235  14.859
47575W        W11134  32.929   3.371  12.843
47576W        W11135  13.694  37.873   2.206
47577W        W11136   4.702  37.971  13.030
47578W        W11137  16.591  26.558   2.722
47579W        W11138  33.434  20.761   1.409
47580W        W11139   5.874  20.652   4.682
47581W        W11140  20.562  44.781   2.683
47582W        W11141  32.894  19.137   2.329
47583W        W11142  41.340  42.855   4.351
47584W        W11143  41.434  34.961   4.809
47585W        W11144  43.345  33.082   2.409
47586W        W11145  35.893  17.694  12.895
47587W        W11146  30.629  18.129   1.797
47588W        W11147   7.297  38.012  13.451
47589W        W11148  16.569  32.602  13.385
47590W        W11149   8.836  19.716   1.804
47591W        W11150   5.370   6.914  11.901
47592W        W11151  29.062  42.346   2.830
47593W        W11152  37.907  43.302  10.434
47594W        W11153   4.239  11.368   3.286
47595W        W11154  33.963   1.779  10.895
47596W        W11155  17.570  28.470   2.391
47597W        W11156  40.037  36.973   4.235
47598W        W11157  14.815  14.628   1.405
47599W        W11158  25.488  43.898   3.671
47600W        W11159  13.813  32.606   0.386
47601W        W11160   2.894  27.999  11.923
47602W        W11161  27.598  18.258   3.166
47603W        W11162   1.740  35.459  12.916
47604W        W11163  44.802  15.677  11.509
47605W        W11164  11.137  35.862  11.903
47606W        W11165  34.078  38.477   4.749
47607W        W11166  42.961  27.188   4.743
47608W        W11167  38.327  10.661  14.829
47609W        W11168   7.207  13.288  10.070
47610W        W11169  36.589  27.139   0.280
47611W        W11170  16.083   8.267  10.412
47612W        W11171  18.594  34.873   1.773
47613W        W11172  26.137  31.619  13.959
47614W        W11173  30.457  43.936  12.996
47615W        W11174  39.361  35.534  12.901
47616W        W11175  36.950  44.395   1.425
47617W        W11176  38.894  35.892  14.870
47618W        W11177  33.550  20.543   3.717
47619W        W11178   1.750   1.880  14.937
47620W        W11179  41.996  42.800   2.788
47621W        W11180  26.584  23.088   0.794
47622W        W11181  30.550  43.325   1.289
47623W        W11182  31.545  42.447   4.252
47624W        W11183  40.922  28.605  11.103
47625W        W11184  37.407  22.090   2.320
47626W        W11185  40.926   4.349   2.682
47627W        W11186   1.311  20.201   1.243
47628W        W11187   0.489   2.859  14.904
47629W        W11188  44.904  33.124  14.841
47630W        W11189  10.213  36.554  14.803
47631W        W11190   6.786  14.614   4.256
47632W        W11191  24.029  36.043   5.170
47633W        W11192  16.152  44.424  14.902
47634W        W11193   2.777  13.212   0.338
47635W        W11194  15.126  11.828   3.778
47636W        W11195   8.213  37.047   2.214
47637W        W11196  29.538   5.310  12.057
47638W        W11197   6.315  28.459  12.533
47639W        W11198  31.522  22.208   2.880
47640W        W11199  27.983  26.051  12.908
47641W        W11200  36.990   4.323  14.966
47642W        W11201  11.357  14.717  13.906
47643W        W11202   0.261  16.608   1.760
47644W        W11203  10.744  21.058   0.820
47645W        W11204  22.087  25.552  11.996
47646W        W11205   3.408  13.802  10.536
47647W        W11206  27.533  26.197   1.403
47648W        W11207  23.554  15.709  14.928
47649W        W11208  29.109   5.298  11.399
47650W        W11209   2.400  14.102   0.428
47651W        W11210  35.570  40.549   3.666
47652W        W11211  30.100  14.158  14.366
47653W        W11212  35.954  23.065   3.178
47654W        W11213  21.136  33.587  14.402
47655W        W11214  38.021   5.918   4.642
47656W        W11215  29.578  33.894   0.338
47657W        W11216  26.701  20.148   2.187
47658W        W11217  43.420  30.571  12.502
47659W        W11218   5.309  18.715  11.891
47660W        W11219  28.577  40.041   1.696
47661W        W11220  44.290   9.367   2.198
47662W        W11221  35.905  43.952   3.219
47663W        W11222  30.545  10.160   2.412
47664W        W11223  31.023  23.512   0.832
47665W        W11224  27.965  39.489  14.950
47666W        W11225  37.934   3.804   3.163
47667W        W11226  39.400  34.884  12.967
47668W        W11227  42.376  27.137   3.330
47669W        W11228  29.592  38.833  13.927
47670W        W11229  42.982  21.158  11.465
47671W        W11230  30.602  42.285   1.729
47672W        W11231  13.627  27.054   1.430
47673W        W11232  25.494  11.856   0.412
47674W        W11233  11.768  35.423  12.853
47675W        W11234  15.135  17.090  11.525
47676W        W11235  19.625  18.181  13.544
47677W        W11236  20.219   3.842   3.205
47678W        W11237  24.619  19.712   2.250
47679W        W11238  34.993  34.096   5.757
47680W        W11239  39.540   5.691   2.848
47681W        W11240  38.841  34.477   0.314
47682W        W11241  14.285  14.189  14.327
47683W        W11242   7.339  29.087   3.687
47684W        W11243  36.070  43.505  12.384
47685W        W11244   5.412  28.092   2.809
47686W        W11245   1.248  11.663   0.856
47687W        W11246  11.837  43.996   1.779
47688W        W11247  21.602  26.075   1.855
47689W        W11248  35.527   4.221   4.132
47690W        W11249   1.808  32.136   4.325
47691W        W11250  42.910  13.286  14.005
47692W        W11251  41.317  18.058   3.867
47693W        W11252  22.243  37.399  11.464
47694W        W11253  39.931  15.108   0.793
47695W        W11254   4.747  30.913   1.831
47696W        W11255  43.451   3.418  10.580
47697W        W11256  25.659   9.822   4.174
47698W        W11257  11.167   8.296  14.435
47699W        W11258  35.983  16.732   3.802
47700W        W11259   3.860  18.564   1.786
47701W        W11260  41.359  32.527   0.267
47702W        W11261  16.160  34.438  11.377
47703W        W11262   4.314  22.124  12.996
47704W        W11263  37.926   1.464  12.095
47705W        W11264  33.093   5.692   0.332
47706W        W11265  12.228  11.710   2.815
47707W        W11266   1.334  33.880   2.276
47708W        W11267   4.265  42.451  10.552
47709W        W11268  43.316  39.890   4.805
47710W        W11269  11.307  22.503  10.075
47711W        W11270   7.286  22.050   2.759
47712W        W11271   8.251  32.430   0.762
47713W        W11272  27.105  28.673  13.505
47714W        W11273  21.239  25.547   1.372
47715W        W11274  41.027  30.089   2.364
47716W        W11275   9.175  28.048  10.126
47717W        W11276  17.222  31.925   0.417
47718W        W11277  10.369  40.414   4.688
47719W        W11278  30.963  34.910   1.900
47720W        W11279   2.833  29.934  14.475
47721W        W11280  32.969  30.627   4.210
47722W        W11281  43.325  37.523   1.841
47723W        W11282  10.804  38.904   0.291
47724W        W11283   8.743   7.852   4.663
47725W        W11284  27.036  17.221  12.430
47726W        W11285   4.898  18.085  11.977
47727W        W11286  32.951  10.219   3.347
47728W        W11287  35.967  44.474  13.533
47729W        W11288   3.334   0.364   4.342
47730W        W11289  38.015  19.076   3.270
47731W        W11290  27.961   0.370   4.777
47732W        W11291  26.702   4.729  11.532
47733W        W11292  37.555  41.322   1.835
47734W        W11293  23.060  38.942   2.350
47735W        W11294  14.771  26.019  11.885
47736W        W11295  41.538  23.697   0.967
47737W        W11296   3.867  11.780   4.351
47738W        W11297   7.673   6.865  12.016
47739W        W11298  17.608  21.029  14.027
47740W        W11299  27.589   3.820   0.463
47741W        W11300   8.830  20.221  11.065
47742W        W11301  33.894  14.657  14.436
47743W        W11302   4.395   4.828  12.016
47744W        W11303  43.790  36.522   2.269
47745W        W11304  35.472  23.181   4.135
47746W        W11305   1.384   9.364   1.326
47747W        W11306  17.174  36.941  11.013
47748W        W11307  21.699  31.141   2.412
47749W        W11308  15.667   0.326  10.467
47750W        W11309  39.466   8.391   2.817
47751W        W11310   2.893  27.969   2.319
47752W        W11311   7.416  14.291  14.359
47753W        W11312   2.879  13.291   3.378
47754W        W11313   0.953  37.472   4.635
47755W        W11314  38.331  37.949   1.246
47756W        W11315   8.312  18.780   2.244
47757W        W11316  39.884  18.118   1.747
47758W        W11317  27.184  22.548  11.910
47759W        W11318  11.763  38.352  12.855
47760W        W11319   6.407  42.886  10.073
47761W        W11320  30.092  37.442  12.893
47762W        W11321  19.769  21.157  10.887
47763W        W11322  27.462   8.886   3.341
47764W        W11323  22.577  31.954   0.805
47765W        W11324   5.334  27.530  12.071
47766W        W11325  36.434  19.134   3.365
47767W        W11326   8.326   9.332   3.848
47768W        W11327  29.101  30.949   1.801
47769W        W11328  14.115   8.399  11.931
47770W        W11329  38.496  30.927  14.782
47771W        W11330   0.337   3.275   2.243
47772W        W11331   0.313  27.651  10.948
47773W        W11332   3.802  14.781   2.228
47774W        W11333  30.522  34.485   4.813
47775W        W11334   5.870  26.675   0.757
47776W        W11335   9.705   7.676  11.984
47777W        W11336   7.190  23.720  14.769
47778W        W11337  30.950   6.888   1.826
47779W        W11338  39.895  24.599   3.690
47780W        W11339  34.923  26.955   2.857
47781W        W11340  39.326   3.244   2.747
47782W        W11341  11.643  15.221   1.364
47783W        W11342  16.300  32.959  12.359
47784W        W11343  41.504   9.705  12.579
47785W        W11344  39.958   6.819  12.890
47786W        W11345   3.822  21.130   1.732
47787W        W11346  13.351  31.606  13.497
47788W        W11347  11.285  12.264   4.261
47789W        W11348   4.318  26.458   1.340
47790W        W11349  39.542  44.968  13.348
47791W        W11350  41.424   6.226   1.733
47792W        W11351  17.647  11.784  14.283
47793W        W11352   0.867  14.317   0.838
47794W        W11353  36.418  28.558  11.417
47795W        W11354  25.188  12.707   1.766
47796W        W11355  20.633  39.891  13.456
47797W        W11356  29.979  39.852  11.423
47798W        W11357  11.281  27.601  12.937
47799W        W11358  22.171   4.847  11.979
47800W        W11359  21.147  11.686  10.961
47801W        W11360   3.365  44.309  13.939
47802W        W11361   9.152  22.591   2.702
47803W        W11362  32.992  18.088   4.743
47804W        W11363   9.722  16.627   3.251
47805W        W11364  12.732  17.716   3.201
47806W        W11365  17.748  38.854   2.398
47807W        W11366   3.793   2.428  10.981
47808W        W11367  10.849  36.063   4.760
47809W        W11368  41.850  39.483  11.587
47810W        W11369  26.606   8.252   2.385
47811W        W11370  30.915  11.633  14.875
47812W        W11371   2.799  40.956   2.803
47813W        W11372   4.379  32.529  13.867
47814W        W11373   6.291  40.963  13.334
47815W        W11374  40.035  37.897  12.857
47816W        W11375  16.660  31.451   0.354
47817W        W11376  10.206  41.033  10.906
47818W        W11377  27.136  34.966   2.745
47819W        W11378  38.911  42.786   4.166
47820W        W11379  10.183  16.246   5.189
47821W        W11380  18.193  24.030  11.978
47822W        W11381   0.484   3.287  11.029
47823W        W11382  38.496  33.065   2.863
47824W        W11383  39.366  44.371  13.379
47825W        W11384  12.132   3.353   1.929
47826W        W11385   1.937  39.340   4.330
47827W        W11386  29.470  35.948   5.315
47828W        W11387  37.977  35.430  12.081
47829W        W11388  33.496  43.865  12.556
47830W        W11389  40.874  28.042  10.499
47831W        W11390   1.748  12.613   4.250
47832W        W11391  23.181  43.860  10.918
47833W        W11392  12.150   5.259  11.941
47834W        W11393  41.507   8.800   1.416
47835W        W11394  29.498  11.839  14.861
47836W        W11395  13.349   1.392   2.285
47837W        W11396  27.125  34.457   2.718
47838W        W11397  36.436   1.852   4.199
47839W        W11398  21.100  20.070   3.732
47840W        W11399   7.848  23.708  13.845
47841W        W11400  38.873  39.855  10.550
47842W        W11401  31.058   1.898   2.869
47843W        W11402   9.825  39.412  14.911
47844W        W11403  42.343  15.164   0.382
47845W        W11404  41.019  13.150   2.195
47846W        W11405  10.835  20.728   1.922
47847W        W11406  36.509  31.148  10.998
47848W        W11407  42.311  19.540   2.337
47849W        W11408  15.139  39.854   3.729
47850W        W11409  10.198  28.530   4.821
47851W        W11410  26.006  16.224   4.617
47852W        W11411  34.949  34.878   2.673
47853W        W11412  31.027   9.204  13.869
47854W        W11413  34.961  33.591   5.087
47855W        W11414  39.494   0.868  13.374
47856W        W11415  35.103   1.814   2.902
47857W        W11416  31.455  21.640   3.696
47858W        W11417   9.705  35.030   3.161
47859W        W11418  19.678  24.604   0.770
47860W        W11419   1.388  13.111   3.323
47861W        W11420   0.914  33.387  11.560
47862W        W11421  19.210  39.477   1.879
47863W        W11422  42.914  22.554   2.707
47864W        W11423  12.333  21.226   4.599
47865W        W11424  44.455   5.208  12.522
47866W        W11425  36.947  15.103  10.535
47867W        W11426  15.623  15.241  12.475
47868W        W11427  28.494  37.582  13.795
47869W        W11428  16.573  30.530  10.596
47870W        W11429   4.744  31.448   2.775
47871W        W11430   7.743  40.368  14.913
47872W        W11431  24.120   4.725  10.955
47873W        W11432   0.853  42.297   1.351
47874W        W11433  33.888  10.753  14.025
47875W        W11434   3.308  44.351   4.158
47876W        W11435  41.024  17.289  14.285
47877W        W11436   1.294  11.857  14.348
47878W        W11437  26.655  41.942   3.346
47879W        W11438  38.062  25.194  10.611
47880W        W11439   1.264  18.212   2.379
47881W        W11440   6.208   0.904   4.186
47882W        W11441  18.060  16.103  11.386
47883W        W11442  34.960  25.974   3.288
47884W        W11443  37.389  27.023  14.351
47885W        W11444  17.619  33.503  10.593
47886W        W11445  20.546  12.356   4.328
47887W        W11446  39.012  10.300  12.842
47888W        W11447  33.418  33.585  14.840
47889W        W11448  18.132  24.171  14.881
47890W        W11449  43.840  13.302   0.384
47891W        W11450  21.595  42.781   2.727
47892W        W11451  41.968  42.914   1.820
47893W        W11452  21.554  29.501   2.836
47894W        W11453   3.724  16.314   1.804
47895W        W11454   2.442   2.840   3.218
47896W        W11455   6.326  25.171   1.310
47897W        W11456  42.942  21.635   4.351
47898W        W11457  21.051   1.457  12.847
47899W        W11458   1.448  10.352  10.485
47900W        W11459  42.451  32.637   2.419
47901W        W11460  21.561  38.893  12.949
47902W        W11461  42.452  28.557  14.817
47903W        W11462   1.385  27.063  13.983
47904W        W11463  39.874  44.347  13.469
47905W        W11464  39.932  34.955  12.926
47906W        W11465  24.725  36.984  10.611
47907W        W11466  17.714   4.288   0.271
47908W        W11467  18.681   2.930  12.578
47909W        W11468  27.667  35.991   1.763
47910W        W11469  36.550  34.029  13.045
47911W        W11470  27.578  32.441   2.337
47912W        W11471  36.061  27.599   3.854
47913W        W11472  43.442   7.762   1.881
47914W        W11473   5.204  12.766  13.314
47915W        W11474  15.162  35.093   0.456
47916W        W11475  28.146  31.129  14.298
47917W        W11476  31.128   6.224   1.371
47918W        W11477   9.792  17.285   0.383
47919W        W11478   1.407  30.998  10.460
47920W        W11479  18.593  13.140   4.831
47921W        W11480   4.839  26.053   2.333
47922W        W11481   6.193  17.279   4.705
47923W        W11482   8.884  27.530  12.382
47924W        W11483  22.581  21.549   1.887
47925W        W11484  40.919  14.200  11.064
47926W        W11485  37.380  35.455  14.848
47927W        W11486  28.168  34.945   0.924
47928W        W11487  20.163  14.147  14.380
47929W        W11488   6.749  15.267  13.392
47930W        W11489  36.418  12.795   2.404
47931W        W11490  14.809  33.109  10.457
47932W        W11491   5.334  37.485   1.699
47933W        W11492  12.818   3.880  12.427
47934W        W11493  14.135  24.981   5.721
47935W        W11494  15.732  10.845  12.026
47936W        W11495  10.755  42.422   0.351
47937W        W11496  38.959  18.620   3.188
47938W        W11497   6.817  15.639   3.294
47939W        W11498  40.957  26.576   4.735
47940W        W11499  25.471  32.980   4.728
47941W        W11500   7.259   6.203   4.629
47942W        W11501  16.176  42.009   1.842
47943W        W11502   9.242   1.308   1.776
47944W        W11503  33.900  28.116   1.813
47945W        W11504  38.892  18.052  13.829
47946W        W11505  30.503   6.183  14.976
47947W        W11506   1.477  21.514  13.508
47948W        W11507   6.299  38.036  10.994
47949W        W11508  40.928  41.953  12.016
47950W        W11509   6.235  31.563   2.768
47951W        W11510  33.528  19.244   3.668
47952W        W11511   4.705  25.676  10.578
47953W        W11512  43.441  19.735  11.438
47954W        W11513   4.839  23.152   2.415
47955W        W11514   8.840  44.291   3.661
47956W        W11515  19.669  19.663  10.541
47957W        W11516  13.315  23.105   1.440
47958W        W11517   4.413   0.334   4.221
47959W        W11518  24.103   4.437  10.888
47960W        W11519  32.395   5.904  11.019
47961W        W11520  13.689   4.899  11.381
47962W        W11521  29.924   4.398  14.484
47963W        W11522  39.892   0.351   0.403
47964W        W11523  41.367  44.782  12.020
47965W        W11524  25.542   3.320   1.412
47966W        W11525   0.960  35.470  11.109
47967W        W11526   0.806  19.281  14.944
47968W        W11527   7.233  35.508  10.512
47969W        W11528  30.044  39.501  12.424
47970W        W11529  36.570  29.461   1.760
47971W        W11530  39.347  30.429  11.500
47972W        W11531  14.791  15.308   4.620
47973W        W11532  30.941  34.480  13.389
47974W        W11533  39.952  37.514  13.359
47975W        W11534  25.556  26.080   3.295
47976W        W11535  35.408  40.985   0.786
47977W        W11536  13.610  35.864   3.282
47978W        W11537  35.526   9.833  13.900
47979W        W11538  39.335  33.111   4.265
47980W        W11539  16.300  10.750   0.829
47981W        W11540  23.990  40.414   3.636
47982W        W11541  35.437  30.456   0.276
47983W        W11542   7.388  37.046  13.984
47984W        W11543   9.330   7.678  10.938
47985W        W11544  30.417  41.381   1.397
47986W        W11545   5.363   2.341  13.967
47987W        W11546  29.578  41.479   0.961
47988W        W11547  10.164   6.805  12.400
47989W        W11548   5.817  30.059  13.442
47990W        W11549   9.676  44.437  14.908
47991W        W11550  27.952  29.458   4.742
47992W        W11551  19.759   9.284   4.611
47993W        W11552  11.357  34.395   1.418
47994W        W11553  44.291  38.535  14.330
47995W        W11554  25.471   9.669   9.940
47996W        W11555  25.501  13.830  12.091
47997W        W11556  18.213  27.186   1.356
47998W        W11557  23.992  41.872  13.910
47999W        W11558  27.654   9.195  14.976
48000W        W11559   5.900   7.331  11.928
48001W        W11560  17.633  34.061   4.669
48002W        W11561  31.090  10.170   1.818
48003W        W11562  22.200  14.697   3.843
48004W        W11563  27.591  20.546   0.414
48005W        W11564  32.606  26.072  14.321
48006W        W11565  17.158  27.037   2.826
48007W        W11566   7.731  41.906   4.837
48008W        W11567  24.133  19.172  11.078
48009W        W11568   2.318  35.021  13.496
48010W        W11569  25.038  37.889  13.465
48011W        W11570  38.992  13.132  13.320
48012W        W11571  41.374  33.976  10.989
48013W        W11572   1.795  11.179   4.218
48014W        W11573   4.294   7.339  12.873
48015W        W11574   9.390   3.861  14.909
48016W        W11575  10.262  13.307  14.412
48017W        W11576   7.738  29.445  13.868
48018W        W11577  38.545  36.911   2.187
48019W        W11578  17.679  11.740   1.932
48020W        W11579  31.075  27.491  10.547
48021W        W11580  33.456  39.338  14.428
48022W        W11581  23.108  24.510   3.341
48023W        W11582  14.591  15.258   2.777
48024W        W11583  12.636  26.005   4.124
48025W        W11584   1.379  43.867  11.570
48026W        W11585  29.987  22.717  14.960
48027W        W11586  26.163   0.750  13.039
48028W        W11587   5.869  16.746   1.446
48029W        W11588  14.748   1.275  13.521
48030W        W11589  13.710  28.100   1.428
48031W        W11590  38.325   0.326   3.765
48032W        W11591   7.679   2.805   0.358
48033W        W11592   5.858  13.699   2.214
48034W        W11593  35.503  30.653  10.624
48035W        W11594  11.131  15.248  14.386
48036W        W11595  25.569  38.944  10.962
48037W        W11596  27.092  14.830  12.070
48038W        W11597  27.019  16.813  10.910
48039W        W11598   1.787   4.879  10.501
48040W        W11599  11.169  22.112  12.448
48041W        W11600  37.504  10.259  12.078
48042W        W11601  23.705  18.613  13.837
48043W        W11602   3.810  24.119  10.917
48044W        W11603   0.885  36.399  12.442
48045W        W11604  12.639  13.815  11.481
48046W        W11605  22.603  31.983  12.546
48047W        W11606  27.548  11.160   0.294
48048W        W11607  40.539  11.164   0.799
48049W        W11608   7.903   4.734  12.343
48050W        W11609   9.702  34.548  12.928
48051W        W11610  13.735  25.167   2.902
48052W        W11611  25.065  27.688  14.457
48053W        W11612  15.711  24.499   4.834
48054W        W11613   6.229  43.871  13.983
48055W        W11614  10.814   6.357   2.754
48056W        W11615  42.505   2.329   0.309
48057W        W11616  22.064   0.313  12.511
48058W        W11617  20.266  33.925   0.364
48059W        W11618  22.171  32.059   4.624
48060W        W11619  27.475  39.371   3.658
48061W        W11620  19.153  37.551  11.557
48062W        W11621  22.235  33.959  12.081
48063W        W11622  24.039   8.268   4.205
48064W        W11623   6.306  35.393  13.814
48065W        W11624  35.083   3.461   0.791
48066W        W11625  43.386  22.108  11.384
48067W        W11626  13.652  41.355   4.818
48068W        W11627  40.807  14.101  12.865
48069W        W11628  37.478  25.527   4.178
48070W        W11629  32.141  11.274  12.862
48071W        W11630  10.283  29.640   2.284
48072W        W11631   3.331   4.236   2.798
48073W        W11632  12.620   6.366  13.329
48074W        W11633  17.765  44.432  12.976
48075W        W11634  20.527  11.147  12.032
48076W        W11635  26.514  38.993   2.374
48077W        W11636  40.488   6.197   1.850
48078W        W11637  44.922  20.589   3.223
48079W        W11638  18.722  44.780   4.696
48080W        W11639  40.975  17.565  11.536
48081W        W11640  19.653  26.959  12.561
48082W        W11641  29.025  41.538  11.548
48083W        W11642  40.410  25.024   1.385
48084W        W11643  17.248  16.709  12.056
48085W        W11644  20.634   5.705  11.573
48086W        W11645   4.827  11.203   0.402
48087W        W11646  41.489  30.431  11.081
48088W        W11647   2.307  31.063   4.643
48089W        W11648  26.135   4.920  14.854
48090W        W11649   1.367  14.330   1.795
48091W        W11650   3.448  41.895   2.881
48092W        W11651  10.171   5.274  12.005
48093W        W11652  44.373  34.050  12.870
48094W        W11653  36.090  25.596   1.303
48095W        W11654  15.290  33.442   1.438
48096W        W11655  22.613  22.555   1.886
48097W        W11656  11.767  22.572  13.907
48098W        W11657  34.440   6.888  11.547
48099W        W11658  39.355   4.844  14.467
48100W        W11659   5.793  23.183   4.706
48101W        W11660  37.938  17.610   0.412
48102W        W11661   3.710  32.536   3.156
48103W        W11662  32.110  41.976  11.068
48104W        W11663  17.137  20.666   0.946
48105W        W11664  32.395  10.724   0.312
48106W        W11665  42.314   2.324   4.217
48107W        W11666  17.790  16.682  12.924
48108W        W11667  18.134   9.698  13.313
48109W        W11668  22.682  16.179   2.233
48110W        W11669   6.833  44.474  13.909
48111W        W11670  17.563  35.017  13.390
48112W        W11671   4.702   0.415   4.744
48113W        W11672  19.571  29.136   3.229
48114W        W11673  27.587  28.500   4.261
48115W        W11674  13.169  27.047  11.859
48116W        W11675  15.160   7.847   1.332
48117W        W11676  35.066  24.489   3.299
48118W        W11677  21.573  17.236  10.475
48119W        W11678   1.440  20.155   1.807
48120W        W11679  44.917  27.608  12.961
48121W        W11680  14.171  28.663  11.979
48122W        W11681  23.205  30.587  11.904
48123W        W11682  21.527  27.028   2.204
48124W        W11683  41.336  40.520   3.855
48125W        W11684   9.246  20.269   2.827
48126W        W11685   7.417  21.728   2.291
48127W        W11686  33.606  17.263   2.780
48128W        W11687  30.417  16.290   4.273
48129W        W11688  32.406   6.300   4.153
48130W        W11689   7.376  42.869  10.505
48131W        W11690  33.457  15.299   1.857
48132W        W11691  21.539   6.873   0.325
48133W        W11692  33.126  26.202  10.536
48134W        W11693  11.837   2.795   0.358
48135W        W11694  16.664  11.853   4.189
48136W        W11695   7.698   1.811  12.426
48137W        W11696  23.654  10.144   1.755
48138W        W11697  20.268  39.865  14.955
48139W        W11698   8.851   5.275  14.376
48140W        W11699  17.107   8.665   4.180
48141W        W11700  12.229  42.942  12.360
48142W        W11701  24.134  36.492   1.335
48143W        W11702   9.773   4.258  14.489
48144W        W11703  26.984  43.294  11.443
48145W        W11704  34.006  40.818   3.827
48146W        W11705   3.384  39.481   3.343
48147W        W11706  15.701  26.518  13.061
48148W        W11707   1.968  24.621  13.412
48149W        W11708   3.246   2.820  13.490
48150W        W11709  19.041  29.100  11.128
48151W        W11710  25.516  20.031   3.842
48152W        W11711  44.964  20.191   4.771
48153W        W11712  33.969  23.653   0.950
48154W        W11713   0.872  41.880  11.966
48155W        W11714  39.909   6.754   1.378
48156W        W11715  17.651  34.925   4.232
48157W        W11716   9.323  31.980  12.580
48158W        W11717  24.586   3.298   0.763
48159W        W11718  44.757  13.715  12.902
48160W        W11719  34.427  40.357   0.948
48161W        W11720  19.671  21.250   0.738
48162W        W11721   6.354   6.327  14.408
48163W        W11722  35.597   1.244   2.226
48164W        W11723   5.861  28.553  12.498
48165W        W11724  42.966   5.832  13.463
48166W        W11725  42.030  26.673  12.912
48167W        W11726  19.194   9.759   1.854
48168W        W11727  44.813  29.522   0.287
48169W        W11728  35.995  17.597  11.878
48170W        W11729   2.386  34.977  14.828
48171W        W11730   6.268  39.918  12.450
48172W        W11731   0.976  31.100  11.374
48173W        W11732  26.509  22.069  11.565
48174W        W11733  29.162  24.679  12.418
48175W        W11734  23.639  27.536   3.261
48176W        W11735  13.692  35.420   4.278
48177W        W11736  38.501  16.136   2.674
48178W        W11737   7.362  17.686  14.958
48179W        W11738   7.227  44.858   0.787
48180W        W11739  37.981  42.010   3.650
48181W        W11740  35.376  39.059   0.308
48182W        W11741  35.881  16.764   1.748
48183W        W11742  26.077  28.079  14.786
48184W        W11743  34.395   4.835   3.682
48185W        W11744  37.870  28.043   9.976
48186W        W11745  20.763  39.470   3.844
48187W        W11746  18.286  30.986   1.241
48188W        W11747   7.262   1.751   0.244
48189W        W11748   1.944  37.362  12.025
48190W        W11749  32.622   6.198   2.692
48191W        W11750  41.504  10.671  14.884
48192W        W11751  11.266  31.543  13.498
48193W        W11752  37.382  26.178   2.789
48194W        W11753   0.362  11.675   2.231
48195W        W11754   0.871  26.633   2.866
48196W        W11755  19.241  28.518  10.015
48197W        W11756  11.229  20.754   4.750
48198W        W11757  13.126  39.990   1.694
48199W        W11758   6.696  43.363  14.912
48200W        W11759   7.309  19.106  12.400
48201W        W11760  41.331   3.344   3.830
48202W        W11761   5.877  34.453   0.439
48203W        W11762  36.850  13.178  13.544
48204W        W11763   5.196  28.020   3.154
48205W        W11764   4.357   9.658   1.342
48206W        W11765  28.494   4.852   2.182
48207W        W11766  44.779  28.561  10.922
48208W        W11767  23.595  30.155  11.873
48209W        W11768  18.647   2.275  12.077
48210W        W11769   0.250  23.047   2.352
48211W        W11770  14.177  39.039  12.015
48212W        W11771  26.588   1.799  10.099
48213W        W11772   0.830  34.982   2.216
48214W        W11773  25.031  22.582  14.835
48215W        W11774  28.104  44.479  12.456
48216W        W11775  18.283  16.566   3.177
48217W        W11776  16.103   5.288   1.695
48218W        W11777  35.521  37.018   4.628
48219W        W11778  20.228  34.406   3.654
48220W        W11779   6.720  38.877   3.236
48221W        W11780  14.640  12.652   4.194
48222W        W11781  36.958  33.962  12.406
48223W        W11782  43.501  11.866   1.413
48224W        W11783  40.949   6.395   4.669
48225W        W11784  34.572   6.716  12.380
48226W        W11785   1.776  25.113  14.989
48227W        W11786  20.540  34.894   4.352
48228W        W11787  32.392  23.555   1.822
48229W        W11788   2.396  41.429  12.012
48230W        W11789  11.345  30.049   1.273
48231W        W11790  11.370  13.138   3.666
48232W        W11791  28.622  43.274  13.389
48233W        W11792  31.047   5.340  14.997
48234W        W11793  40.316   0.300   1.255
48235W        W11794   4.392   1.237  11.894
48236W        W11795  15.294  34.472  12.997
48237W        W11796  13.781  44.482   3.251
48238W        W11797   2.250  22.155  10.993
48239W        W11798  40.903   9.775   4.727
48240W        W11799  22.067  12.277   1.726
48241W        W11800  42.805   5.766  10.464
48242W        W11801  23.494  43.001  11.436
48243W        W11802  26.661   2.808   3.713
48244W        W11803  33.993  39.018   1.930
48245W        W11804  28.972  33.625  12.542
48246W        W11805   8.360  17.107   3.304
48247W        W11806  29.024   6.804  14.966
48248W        W11807  20.050   0.405   4.659
48249W        W11808  43.969  31.987   4.151
48250W        W11809  10.313  42.996  13.841
48251W        W11810   6.717  15.244  11.489
48252W        W11811  22.548  41.877  12.381
48253W        W11812  17.761  36.583   4.120
48254W        W11813  29.539  43.947   1.348
48255W        W11814  14.115  19.257   2.888
48256W        W11815  28.485  10.224  13.888
48257W        W11816  25.048  14.329  10.437
48258W        W11817  22.577  12.242  13.036
48259W        W11818  25.149  24.137   2.281
48260W        W11819  37.882  42.401   4.827
48261W        W11820  39.827  28.613   3.672
48262W        W11821  10.857  23.130  13.891
48263W        W11822  20.615   0.404   4.636
48264W        W11823  25.165   6.411  11.012
48265W        W11824  25.507  25.594  13.334
48266W        W11825  12.825  12.180  12.480
48267W        W11826  25.609  11.638   0.755
48268W        W11827  15.710  43.455  11.905
48269W        W11828  26.087  11.641   2.880
48270W        W11829  12.195  30.581  10.567
48271W        W11830  29.591  10.713   2.878
48272W        W11831   9.327  25.154  14.357
48273W        W11832   9.815  36.858  14.904
48274W        W11833   4.809  26.135   3.746
48275W        W11834  35.574   1.436  11.474
48276W        W11835  24.133  42.397   3.171
48277W        W11836  32.590  20.547  14.827
48278W        W11837  35.986  16.787  14.002
48279W        W11838  39.994  19.741   1.396
48280W        W11839  42.391   5.215   1.774
48281W        W11840  27.482  43.390  14.315
48282W        W11841  28.580  42.839  14.803
48283W        W11842  14.723   4.243   2.397
48284W        W11843  33.417   9.338   1.276
48285W        W11844  21.127  19.269  14.031
48286W        W11845  30.521  20.700   2.695
48287W        W11846   2.266  27.516   1.258
48288W        W11847  10.222  41.506   4.127
48289W        W11848  22.538  23.537  13.812
48290W        W11849  26.041  36.000   0.367
48291W        W11850  31.119  29.158   5.083
48292W        W11851  34.935   0.759  14.792
48293W        W11852  23.088  35.461  12.023
48294W        W11853  34.898  34.432   9.935
48295W        W11854  37.008  31.125   2.415
48296W        W11855   3.369  24.173   3.653
48297W        W11856  42.833  18.253   1.708
48298W        W11857  44.773  36.532   2.732
48299W        W11858  38.890  14.641   2.719
48300W        W11859  31.405   9.861  14.516
48301W        W11860  37.430  36.034  11.554
48302W        W11861   7.389  31.002   2.801
48303W        W11862   7.718  24.148   2.706
48304W        W11863  21.037  36.005   5.146
48305W        W11864  35.578  13.323  11.090
48306W        W11865  13.249  30.553   5.165
48307W        W11866  37.421  34.903   5.733
48308W        W11867  21.650   7.299   1.708
48309W        W11868  22.700  24.110   2.756
48310W        W11869  16.666   5.846  11.428
48311W        W11870  16.799  29.113   1.851
48312W        W11871  17.700  37.517  11.858
48313W        W11872  23.547   4.893  14.878
48314W        W11873  44.821  25.707  12.398
48315W        W11874  28.136  22.023   1.402
48316W        W11875  17.719  27.526   1.216
48317W        W11876  28.501  10.231   3.311
48318W        W11877  15.129  12.279   4.308
48319W        W11878  10.821  30.919  14.817
48320W        W11879  22.612  19.088   3.746
48321W        W11880  28.544  22.672   1.280
48322W        W11881  42.393  44.800  11.111
48323W        W11882  24.636  24.187   1.740
48324W        W11883  15.101  14.217  14.358
48325W        W11884  21.051  34.095   2.280
48326W        W11885  31.961  31.000  11.441
48327W        W11886  25.065  14.707   4.826
48328W        W11887  36.508  34.043   4.338
48329W        W11888  31.934   8.248   3.837
48330W        W11889  16.673   1.739  11.017
48331W        W11890  28.664  42.500   0.275
48332W        W11891   3.259  30.601  13.003
48333W        W11892  15.196  20.554   3.166
48334W        W11893   7.699   8.171   2.695
48335W        W11894  10.867  12.152   3.835
48336W        W11895  39.014  24.975  14.427
48337W        W11896   6.268   4.402  12.895
48338W        W11897   0.466   6.290   3.754
48339W        W11898  26.627  39.906   4.780
48340W        W11899  37.463  36.854  12.027
48341W        W11900  19.758  19.060  14.760
48342W        W11901   1.792  27.166  13.813
48343W        W11902  43.768  15.596  11.976
48344W        W11903  17.160  33.926  11.556
48345W        W11904  43.515  20.559   3.300
48346W        W11905  15.711   5.730  10.149
48347W        W11906  36.536  26.125  10.906
48348W        W11907   6.903  37.878   2.675
48349W        W11908   6.902  32.495  12.892
48350W        W11909  23.597  24.567  14.016
48351W        W11910  12.811  18.269   3.298
48352W        W11911  43.012  11.661  10.526
48353W        W11912  39.028   2.810  13.877
48354W        W11913  20.548  19.754  11.103
48355W        W11914  15.156  40.051  10.930
48356W        W11915  42.845  25.590   4.129
48357W        W11916  34.554   0.435   1.362
48358W        W11917   7.825   7.690  14.485
48359W        W11918  25.578  15.660   9.941
48360W        W11919  39.553   1.259  12.848
48361W        W11920  19.609  24.139   5.218
48362W        W11921  26.655  27.072  12.949
48363W        W11922  37.955  43.976  14.993
48364W        W11923   7.811  36.892   4.175
48365W        W11924  39.035  38.931  12.498
48366W        W11925  19.183   1.332   0.331
48367W        W11926  16.177   1.753  11.893
48368W        W11927  16.240  31.568  12.038
48369W        W11928   4.790   9.672   2.299
48370W        W11929  39.826  29.426  10.631
48371W        W11930  10.297  25.547   2.190
48372W        W11931  35.980  27.553  13.922
48373W        W11932  40.862  20.212  11.434
48374W        W11933  29.588  16.179   2.675
48375W        W11934   7.413   8.371   3.852
48376W        W11935  23.055   6.855   0.474
48377W        W11936  29.129   3.768   2.858
48378W        W11937  37.467  44.497  13.809
48379W        W11938  17.212  31.012   0.462
48380W        W11939  34.949  15.260   4.731
48381W        W11940   1.773  11.282   1.289
48382W        W11941  22.201  30.447  13.001
48383W        W11942  31.641   9.184  12.968
48384W        W11943  44.770  18.551  12.081
48385W        W11944  15.710  33.399  10.971
48386W        W11945  37.455  41.796  11.856
48387W        W11946  15.189  39.984  13.374
48388W        W11947  26.592  43.455   3.734
48389W        W11948  42.313  15.176   4.828
48390W        W11949   9.261  19.623   4.625
48391W        W11950  43.490   5.427  15.000
48392W        W11951  36.930  16.213  14.980
48393W        W11952   5.857  27.002  13.432
48394W        W11953  43.455  16.735  12.833
48395W        W11954  32.486  35.044  12.007
48396W        W11955   6.722  41.837  12.846
48397W        W11956   3.360  13.627   3.362
48398W        W11957  18.115  20.041  13.877
48399W        W11958  11.168   0.967  10.519
48400W        W11959  28.572  13.148   1.273
48401W        W11960  17.690  40.876   1.246
48402W        W11961  31.445   1.868   3.695
48403W        W11962  35.852  21.639  14.987
48404W        W11963  16.721  26.992  11.995
48405W        W11964  24.051  29.161   3.812
48406W        W11965  19.184  24.221  14.808
48407W        W11966  11.859  25.139   1.350
48408W        W11967  19.080   1.256   1.342
48409W        W11968  14.656  13.132  12.395
48410W        W11969  36.877  43.811   1.222
48411W        W11970  27.037  43.957  13.315
48412W        W11971  27.488  26.562  12.015
48413W        W11972  25.211  10.675   1.893
48414W        W11973  41.898  10.302  10.134
48415W        W11974  44.908  14.186   0.320
48416W        W11975   3.355  42.340  10.457
48417W        W11976   9.848  23.688  12.369
48418W        W11977   2.823  26.521   2.854
48419W        W11978  23.075   9.373  11.005
48420W        W11979  41.893  18.291  10.101
48421W        W11980   6.402  28.660   0.810
48422W        W11981  33.574  38.399   4.672
48423W        W11982  28.996  39.810  10.920
48424W        W11983  32.957  10.254  14.425
48425W        W11984  32.546   3.762  12.535
48426W        W11985  21.179  24.658   4.784
48427W        W11986  11.298  37.871  13.971
48428W        W11987  37.492   7.764  10.549
48429W        W11988  43.294  27.498   2.259
48430W        W11989  39.056  24.679   0.871
48431W        W11990  13.216  33.075   4.215
48432W        W11991  17.598  10.706  10.612
48433W        W11992  35.552  20.580  13.323
48434W        W11993  18.756  13.834  12.381
48435W        W11994  38.077  22.134  12.486
48436W        W11995  22.239  22.631  12.080
48437W        W11996   4.385  40.444   0.469
48438W        W11997  29.016  27.185  13.936
48439W        W11998  12.625  15.779   2.372
48440W        W11999  13.724  15.203   1.407
48441W        W12000  17.207   8.851  11.051
48442W        W12001  39.997  43.846   4.318
48443W        W12002  21.148   2.244   2.752
48444W        W12003   0.414  43.804  13.992
48445W        W12004   0.265   6.885  14.823
48446W        W12005  19.092  26.603  11.560
48447W        W12006  41.040  43.832  13.506
48448W        W12007  11.346  40.868   3.778
48449W        W12008  22.213  24.172   4.700
48450W        W12009  28.503   0.397   1.830
48451W        W12010  27.607  33.585   1.819
48452W        W12011  25.529  25.656   3.723
48453W        W12012  25.708  41.983  11.531
48454W        W12013  39.005  38.927  13.006
48455W        W12014  10.242   5.747   3.298
48456W        W12015  14.338  43.281   0.806
48457W        W12016  24.146   2.341   1.430
48458W        W12017  35.468  39.462   2.233
48459W        W12018  21.728  31.631   1.840
48460W        W12019  33.933  30.438   4.352
48461W        W12020  32.925  27.596   1.705
48462W        W12021   7.305  11.225  12.470
48463W        W12022  20.112  23.718  13.315
48464W        W12023  33.111   5.807  10.558
48465W        W12024   0.931  28.568   0.792
48466W        W12025  25.656   4.799   1.871
48467W        W12026   3.816  44.497  11.462
48468W        W12027  34.454  29.060   3.746
48469W        W12028  15.687  27.110  13.975
48470W        W12029  32.626  31.448   4.822
48471W        W12030   5.300  18.630   1.870
48472W        W12031  11.351  37.964   9.488
48473W        W12032  38.018   2.942  14.284
48474W        W12033  29.492  24.042  12.471
48475W        W12034   3.737   1.800  14.331
48476W        W12035   9.228  40.439  12.067
48477W        W12036  13.280  34.586  14.006
48478W        W12037  33.087  11.171   3.736
48479W        W12038   8.691  22.689   3.690
48480W        W12039  11.352  24.597  12.848
48481W        W12040  44.949  12.200  13.471
48482W        W12041  35.544  24.053   2.862
48483W        W12042  32.905   3.803   2.349
48484W        W12043   7.734   6.407   0.251
48485W        W12044  40.308  39.887   0.967
48486W        W12045   7.817  14.654   1.280
48487W        W12046  41.302  14.289   1.902
48488W        W12047   2.935  16.143  12.871
48489W        W12048  30.067  17.295  13.385
48490W        W12049  26.097  31.541   0.286
48491W        W12050  14.667  24.991   3.869
48492W        W12051  12.201   7.398  12.883
48493W        W12052  28.670  43.404  11.128
48494W        W12053  11.680  18.087   4.672
48495W        W12054  12.779  24.150  14.400
48496W        W12055  16.189   4.425   2.235
48497W        W12056  35.575   6.795  11.425
48498W        W12057  17.683  18.182   2.310
48499W        W12058  27.667   2.283   2.832
48500W        W12059  34.877  28.164   1.855
48501W        W12060   7.744  38.557   3.820
48502W        W12061  27.018  19.135  12.356
48503W        W12062  40.807  35.932  14.796
48504W        W12063  36.841  10.317   5.274
48505W        W12064  30.914  13.124   1.840
48506W        W12065  25.580  40.412   4.166
48507W        W12066  14.163   7.731  12.511
48508W        W12067   1.384  11.352   0.786
48509W        W12068  15.705  32.107  14.433
48510W        W12069  42.314  20.568  13.895
48511W        W12070  40.889   0.278   3.286
48512W        W12071  29.079  43.938  12.935
48513W        W12072  19.220  41.494   0.824
48514W        W12073  15.275   2.419   3.789
48515W        W12074  31.515  19.599  10.909
48516W        W12075  31.066  31.115   1.907
48517W        W12076   1.381  20.743   0.853
48518W        W12077  17.262  25.100   4.640
48519W        W12078  20.146   7.409  12.990
48520W        W12079  27.595  17.169  11.855
48521W        W12080  17.274  26.482   3.245
48522W        W12081  15.710  24.057  11.398
48523W        W12082   4.715  19.282   0.287
48524W        W12083  44.303  28.528  13.820
48525W        W12084  37.372  34.514  13.373
48526W        W12085  40.529   6.834  10.902
48527W        W12086  11.192  24.184   3.380
48528W        W12087  39.380  31.073   4.311
48529W        W12088  32.995   7.302   4.131
48530W        W12089   0.837  11.805   2.225
48531W        W12090   8.827  12.707   3.780
48532W        W12091  11.732  39.902   4.344
48533W        W12092  30.441  30.597   3.365
48534W        W12093  26.090  31.065   2.410
48535W        W12094  37.339  38.556   1.313
48536W        W12095   2.903   6.289  12.567
48537W        W12096  17.128  16.666   3.189
48538W        W12097  16.233  33.555  13.395
48539W        W12098  30.517  39.907   3.304
48540W        W12099  38.901   5.398  10.062
48541W        W12100  22.107   3.351   2.383
48542W        W12101  37.352  16.663   1.263
48543W        W12102   8.865  17.149  14.888
48544W        W12103   6.773  14.327   0.941
48545W        W12104  19.149  30.986  14.373
48546W        W12105  30.014  12.641  11.005
48547W        W12106  30.953  21.580  12.356
48548W        W12107  14.100   6.407   0.459
48549W        W12108  16.178  15.197  14.476
48550W        W12109  13.106  10.326  10.998
48551W        W12110   7.245   9.365   1.251
48552W        W12111  11.363  23.058  12.054
48553W        W12112  35.367  22.733  10.544
48554W        W12113  32.903  39.866   4.314
48555W        W12114  37.845  27.041  11.026
48556W        W12115   7.667  18.247  13.481
48557W        W12116  35.958  24.044  11.475
48558W        W12117  34.549  27.640  12.091
48559W        W12118   7.702  26.542   0.744
48560W        W12119  42.333   7.344   4.181
48561W        W12120  41.493  25.471  12.046
48562W        W12121  29.002  10.737  11.897
48563W        W12122  14.779  22.716  14.017
48564W        W12123  12.136  28.180   3.795
48565W        W12124   7.880   9.880  12.978
48566W        W12125  30.950  15.788   1.767
48567W        W12126   5.231  20.076   1.742
48568W        W12127  21.235  11.742  13.402
48569W        W12128  43.329  31.102  12.846
48570W        W12129  15.263  14.726   3.850
48571W        W12130   8.375   5.264  13.382
48572W        W12131  29.924  19.134   2.820
48573W        W12132   7.318  42.853   3.687
48574W        W12133  42.843  37.044   3.632
48575W        W12134   2.872  18.789  14.778
48576W        W12135  41.867   7.675  10.545
48577W        W12136   0.824  36.463   0.794
48578W        W12137  28.995  38.849   3.340
48579W        W12138   9.284   8.196  13.414
48580W        W12139  18.547  43.397   1.907
48581W        W12140  21.197  28.514   2.876
48582W        W12141  34.917  18.286  11.877
48583W        W12142   1.372  14.107   1.405
48584W        W12143  16.235   3.248   0.398
48585W        W12144   5.761   9.660  11.880
48586W        W12145  31.112   7.359   4.325
48587W        W12146   1.341  40.515   1.233
48588W        W12147   8.328  37.338   2.738
48589W        W12148  12.229  20.238  11.957
48590W        W12149  18.217   2.873   2.280
48591W        W12150  14.127  32.524  11.392
48592W        W12151  14.287  29.146   1.217
48593W        W12152   3.859  29.986  10.924
48594W        W12153  13.329   2.861   0.756
48595W        W12154  17.225   2.286  14.281
48596W        W12155  41.455  41.989  11.554
48597W        W12156  10.230   1.962   4.258
48598W        W12157  11.855  28.464   3.654
48599W        W12158   1.331  20.756  11.889
48600W        W12159  20.155  19.275   3.865
48601W        W12160  12.241  28.978  13.960
48602W        W12161  27.650  33.462  13.539
48603W        W12162   4.723   6.270   3.686
48604W        W12163  37.051  22.599  13.413
48605W        W12164  11.370  11.245  13.431
48606W        W12165   1.247  33.610  10.639
48607W        W12166  15.658   6.277  11.047
48608W        W12167  23.620  37.393   2.199
48609W        W12168  33.555  43.421   2.778
48610W        W12169   3.216   8.683   3.351
48611W        W12170  27.500  26.487  12.342
48612W        W12171  22.658   7.748  14.431
48613W        W12172  19.270  11.783   4.783
48614W        W12173  21.673  20.699   3.775
48615W        W12174  21.570  32.560   2.696
48616W        W12175  39.534  27.160   4.818
48617W        W12176  25.690  20.170   0.829
48618W        W12177   6.309  28.588   1.255
48619W        W12178  37.548   5.831  10.495
48620W        W12179   5.830  43.946   1.432
48621W        W12180  33.545  36.517  10.563
48622W        W12181  18.290  26.572  14.425
48623W        W12182  33.064  36.960   0.260
48624W        W12183  25.469  26.517  13.900
48625W        W12184  44.933  11.863  14.431
48626W        W12185  39.973   5.265   2.205
48627W        W12186  21.557  23.507  13.814
48628W        W12187  31.909   9.843   1.722
48629W        W12188  20.568  38.467  12.351
48630W        W12189  26.600  43.910   0.836
48631W        W12190   8.171  24.635  12.823
48632W        W12191  20.240  28.131   2.875
48633W        W12192   7.329  26.503   0.740
48634W        W12193  18.293  44.308  12.433
48635W        W12194   9.756  26.505   4.278
48636W        W12195  40.356  35.541   1.359
48637W        W12196  40.338   8.824  13.835
48638W        W12197  17.292  10.143   3.768
48639W        W12198   8.690  36.441  13.311
48640W        W12199  41.427   0.905  11.485
48641W        W12200  28.974  39.427  11.572
48642W        W12201  43.404   0.405  11.079
48643W        W12202  19.744  28.012  13.445
48644W        W12203   6.792  36.947   2.260
48645W        W12204  13.171  19.283  12.570
48646W        W12205  43.973  31.490   4.645
48647W        W12206  27.071  21.742   0.897
48648W        W12207  15.197  30.984   1.216
48649W        W12208   3.229  40.002   1.744
48650W        W12209  25.683  25.101  12.838
48651W        W12210   1.463  18.704   4.822
48652W        W12211  19.533  32.986   2.207
48653W        W12212  10.806  38.909   1.735
48654W        W12213  13.115  11.315  12.422
48655W        W12214  27.576  16.096  13.393
48656W        W12215  37.573  39.053  11.585
48657W        W12216  40.993   7.695   3.148
48658W        W12217   2.765   0.409  13.997
48659W        W12218  44.868  30.000  10.438
48660W        W12219  28.654  10.729  11.912
48661W        W12220  12.804  33.015   1.915
48662W        W12221  27.109  32.541  10.533
48663W        W12222  36.484   5.420  10.499
48664W        W12223  35.520  43.782  10.961
48665W        W12224  28.509   4.882  11.416
48666W        W12225  19.576  14.616   0.834
48667W        W12226  14.283  17.126   4.629
48668W        W12227  41.812  42.469  10.523
48669W        W12228  44.924  10.149  12.470
48670W        W12229  33.444  13.610   3.705
48671W        W12230  18.722   9.229   0.379
48672W        W12231  12.243  41.892  11.582
48673W        W12232   7.233  44.296   3.653
48674W        W12233  42.371  23.001  13.516
48675W        W12234  35.519  19.563  11.542
48676W        W12235   3.446  42.466  14.294
48677W        W12236   3.924  29.043  10.480
48678W        W12237  41.032   2.854   1.838
48679W        W12238  36.991  36.418   1.241
48680W        W12239   8.255   9.241   1.860
48681W        W12240  10.232  25.112   3.355
48682W        W12241  35.547   5.759  11.418
48683W        W12242  22.529   0.985   4.208
48684W        W12243  15.197  19.179  11.597
48685W        W12244  41.300  37.942  12.891
48686W        W12245  16.749  17.104  14.415
48687W        W12246  37.080  14.718   3.228
48688W        W12247  27.188   6.905  14.410
48689W        W12248   3.224  23.096  13.893
48690W        W12249  36.366  33.912  13.932
48691W        W12250  28.505  28.021  13.522
48692W        W12251  17.600   6.778  11.504
48693W        W12252  20.593  33.443   3.713
48694W        W12253   2.405   2.773   3.820
48695W        W12254   3.864  32.500   1.847
48696W        W12255   8.878  32.451   1.428
48697W        W12256  27.489   6.703   2.212
48698W        W12257  39.334   3.810   4.147
48699W        W12258  29.643  39.339   9.579
48700W        W12259  32.924  36.868  14.005
48701W        W12260  16.218  24.198   4.121
48702W        W12261   2.363  22.509   0.439
48703W        W12262  17.674  33.516   0.482
48704W        W12263  23.200  12.851   9.982
48705W        W12264   3.262   4.245   2.317
48706W        W12265  37.356  20.040   3.240
48707W        W12266  10.250  35.430  11.495
48708W        W12267   4.279  42.394   0.357
48709W        W12268  40.514   5.753   0.416
48710W        W12269  28.450  35.477  14.337
48711W        W12270  37.499  29.942  10.470
48712W        W12271   8.746  29.170  11.588
48713W        W12272  24.066   7.235  10.492
48714W        W12273  37.996  34.488  13.463
48715W        W12274  37.031   0.954   0.901
48716W        W12275  43.304  39.375  13.509
48717W        W12276  27.536  14.794  13.385
48718W        W12277  38.372  31.482  12.831
48719W        W12278  10.219  24.544  14.985
48720W        W12279  27.526  43.987   1.767
48721W        W12280   2.318   7.857   1.919
48722W        W12281  12.257  39.557   0.878
48723W        W12282  20.587  31.085  13.450
48724W        W12283   4.305  38.498  10.487
48725W        W12284  26.066   7.790   3.774
48726W        W12285  42.435   1.474   0.364
48727W        W12286  15.651  30.150  11.411
48728W        W12287  21.749  31.609  11.535
48729W        W12288  26.054  15.237  14.463
48730W        W12289  27.525  27.678   3.161
48731W        W12290  29.044   1.433   0.409
48732W        W12291  24.658   9.228  12.355
48733W        W12292  38.933  38.050   2.819
48734W        W12293  16.567   5.305  13.437
48735W        W12294  41.002   7.811   1.278
48736W        W12295  16.732  20.723   1.841
48737W        W12296   8.659  13.808  12.534
48738W        W12297  10.794   2.392  13.874
48739W        W12298   8.383  11.853   0.363
48740W        W12299  14.607   4.312   1.896
48741W        W12300  10.818  38.509   2.848
48742W        W12301  32.449  11.661  13.004
48743W        W12302  38.927  32.394  14.847
48744W        W12303  19.158  11.186   1.775
48745W        W12304   5.341  33.441  10.439
48746W        W12305  39.995   3.260  13.882
48747W        W12306  29.039   3.253  13.519
48748W        W12307  21.105  28.494   3.858
48749W        W12308  19.122  12.356   1.711
48750W        W12309   8.683  36.068  11.577
48751W        W12310  30.106  37.069  12.915
48752W        W12311  16.258  19.071  10.406
48753W        W12312  28.478   3.457  14.374
48754W        W12313  40.513  37.893   2.214
48755W        W12314  26.098  11.215   2.662
48756W        W12315  22.202  18.566  11.002
48757W        W12316   8.197  14.201  12.542
48758W        W12317   4.728  40.976  12.838
48759W        W12318  41.927  37.384  10.083
48760W        W12319  23.061  21.566   1.769
48761W        W12320   2.267  39.363   0.462
48762W        W12321   0.786  23.159  10.993
48763W        W12322  19.273  25.110  14.841
48764W        W12323   3.941   0.823  11.946
48765W        W12324  12.238  37.963   2.229
48766W        W12325  24.710  40.996  13.464
48767W        W12326  27.663  11.202  14.370
48768W        W12327  13.105  28.029  13.897
48769W        W12328  14.821   9.755  10.413
48770W        W12329  31.088  12.302   0.956
48771W        W12330  40.802  15.250  11.951
48772W        W12331  24.146   9.271   0.959
48773W        W12332  25.046  33.439   3.316
48774W        W12333  21.557   3.923   4.206
48775W        W12334  17.237  37.025  11.869
48776W        W12335   6.399  10.727   4.736
48777W        W12336  41.357  43.965  13.518
48778W        W12337  29.950  32.140   1.801
48779W        W12338   9.700  29.452   2.381
48780W        W12339   9.749  42.396  11.880
48781W        W12340  36.953  20.214   0.807
48782W        W12341  10.289  16.786  14.364
48783W        W12342  27.605  28.074  14.363
48784W        W12343  32.488  29.454   4.176
48785W        W12344  31.511  18.241   0.316
48786W        W12345  17.629   5.426   2.270
48787W        W12346  10.877  26.073   4.147
48788W        W12347  31.486  21.078  14.002
48789W        W12348  19.092  38.426  10.462
48790W        W12349  15.088  43.451  13.485
48791W        W12350  26.467  35.924   3.651
48792W        W12351  10.216  35.945  10.935
48793W        W12352  44.756  38.073  14.354
48794W        W12353  11.806  10.700  13.798
48795W        W12354  21.188  10.291   2.362
48796W        W12355  17.625  39.832   3.201
48797W        W12356  32.136  12.162  10.982
48798W        W12357  21.141   7.350   1.435
48799W        W12358   0.964  36.349  11.956
48800W        W12359  32.956  43.411  11.589
48801W        W12360   3.386   4.785   1.350
48802W        W12361   4.746  33.578  12.064
48803W        W12362   6.765  12.639  14.355
48804W        W12363  41.970  12.772   3.763
48805W        W12364  18.741   0.973  11.996
48806W        W12365   1.344  44.366  11.064
48807W        W12366  28.052   3.307   2.671
48808W        W12367  33.878   4.408   1.243
48809W        W12368  44.995  40.499   1.418
48810W        W12369   7.823  32.017   0.368
48811W        W12370  44.366  22.722  13.988
48812W        W12371  36.859  44.764   1.761
48813W        W12372  17.728  30.445  12.036
48814W        W12373  16.250  37.913   0.454
48815W        W12374  35.526  30.098  14.274
48816W        W12375  39.904  24.095   3.235
48817W        W12376  21.095  35.506   4.803
48818W        W12377  24.033  16.180   1.932
48819W        W12378  20.621  34.503   1.841
48820W        W12379  39.479   6.419  14.284
48821W        W12380  34.957  37.520  12.022
48822W        W12381  39.056   6.720  12.543
48823W        W12382  27.446   8.668   1.443
48824W        W12383  10.202  12.817  11.877
48825W        W12384  27.038  18.155   2.383
48826W        W12385  18.172  10.704  11.889
48827W        W12386  34.053  18.582   3.852
48828W        W12387  17.219  15.671   4.637
48829W        W12388   3.342  26.547  10.562
48830W        W12389  42.922   1.320   2.330
48831W        W12390   7.854  20.151   3.818
48832W        W12391  18.758   9.805   3.854
48833W        W12392   6.402   1.423  14.406
48834W        W12393  36.889   1.862  11.047
48835W        W12394  28.544  33.110   4.839
48836W        W12395  10.261  10.855   2.311
48837W        W12396  38.541   5.905   3.851
48838W        W12397  25.159  38.832   1.700
48839W        W12398  19.705   6.731  14.431
48840W        W12399  44.430   1.926  11.385
48841W        W12400   9.357  29.016   3.717
48842W        W12401  29.607  41.316  11.467
48843W        W12402  21.162  32.063   0.893
48844W        W12403  26.680   9.798   4.141
48845W        W12404   0.429  17.061   4.785
48846W        W12405  36.466  27.023   1.933
48847W        W12406  14.116  32.918   3.716
48848W        W12407  34.471  11.823   4.260
48849W        W12408   2.884  12.786  12.909
48850W        W12409   4.747  38.478   2.759
48851W        W12410  21.263  34.612   0.949
48852W        W12411  38.840  34.495   0.850
48853W        W12412  13.228  21.229   4.297
48854W        W12413  22.738   3.339  14.286
48855W        W12414  28.972  38.425   2.364
48856W        W12415  15.119  25.014   1.393
48857W        W12416   4.810   2.925   3.290
48858W        W12417   8.660  29.150  10.978
48859W        W12418  26.025   1.347   4.234
48860W        W12419   8.689  42.008  11.022
48861W        W12420   5.303   8.172   3.191
48862W        W12421  36.429  30.954   3.715
48863W        W12422  43.813   9.224  13.849
48864W        W12423  34.606  13.259  12.548
48865W        W12424  13.149   5.871   3.180
48866W        W12425  44.872  19.737  13.794
48867W        W12426  21.665   8.172   3.814
48868W        W12427  31.471  17.139   4.170
48869W        W12428  20.619  21.137   3.679
48870W        W12429  20.241  15.666   0.445
48871W        W12430  37.511  39.428  10.567
48872W        W12431  32.490  16.645   2.394
48873W        W12432  25.523  16.159  13.959
48874W        W12433  20.682  21.530   0.383
48875W        W12434  20.266  17.630   4.783
48876W        W12435  31.100  19.144  11.373
48877W        W12436  19.259  36.029   1.840
48878W        W12437  11.628  42.987  12.929
48879W        W12438  13.139  43.417  13.978
48880W        W12439  44.330  32.452   5.170
48881W        W12440  32.981   3.338  13.988
48882W        W12441   8.218  27.945   2.695
48883W        W12442  21.187  20.119  12.874
48884W        W12443   5.862  36.877  14.921
48885W        W12444  13.116  29.589  11.032
48886W        W12445  35.859  33.965  12.562
48887W        W12446  11.222  31.491   1.431
48888W        W12447  20.226  20.198  12.506
48889W        W12448  39.982  30.937  13.447
48890W        W12449  20.592  23.596  12.571
48891W        W12450  36.021  43.281  13.896
48892W        W12451  15.100  15.254  12.477
48893W        W12452   0.356  39.441  13.331
48894W        W12453  32.549  17.658   3.200
48895W        W12454  13.634   5.894  13.544
48896W        W12455   9.838   0.379  11.089
48897W        W12456  39.002  39.374  12.937
48898W        W12457  25.632  44.806  12.920
48899W        W12458  38.337   9.254   3.719
48900W        W12459   0.988   9.653   2.325
48901W        W12460  21.160  23.647  14.805
48902W        W12461  18.681  40.883   3.689
48903W        W12462  35.511  28.626  11.459
48904W        W12463  22.590  16.735   3.290
48905W        W12464  18.622   3.711  12.521
48906W        W12465  11.836   7.191   1.356
48907W        W12466  11.250  34.561  13.446
48908W        W12467  25.471  29.079   3.704
48909W        W12468   2.243  18.068   4.294
48910W        W12469  13.107  32.975   4.831
48911W        W12470  18.732  15.799  10.573
48912W        W12471  21.541  28.561   1.289
48913W        W12472  30.602   0.481   4.765
48914W        W12473   8.168  43.290   3.289
48915W        W12474  19.737   6.376  12.578
48916W        W12475  40.936  28.481  14.304
48917W        W12476   7.812  16.120   0.855
48918W        W12477   3.712  39.028  13.019
48919W        W12478   9.389  19.572  11.505
48920W        W12479   8.789   4.291  13.511
48921W        W12480  29.617   8.681   0.356
48922W        W12481  13.114  21.191  13.450
48923W        W12482  37.830  37.342   1.341
48924W        W12483  19.572  34.027   4.751
48925W        W12484   0.913   0.449  10.900
48926W        W12485  17.669  25.486   3.851
48927W        W12486  21.155  17.591   1.928
48928W        W12487  32.497  31.087  12.891
48929W        W12488  11.811  36.390   2.828
48930W        W12489  35.450  40.401  13.473
48931W        W12490  32.964  41.811  14.898
48932W        W12491  33.971  11.270   1.322
48933W        W12492   6.907   3.405   3.722
48934W        W12493  32.969  27.170   4.303
48935W        W12494  38.018  23.589   2.355
48936W        W12495  20.736  17.718   4.716
48937W        W12496   0.878  41.477  14.876
48938W        W12497  40.849  20.703   3.346
48939W        W12498  32.615  18.627  14.766
48940W        W12499  42.420   3.831  10.606
48941W        W12500  39.919  23.634   0.803
48942W        W12501  22.104   5.832  13.502
48943W        W12502  15.610  39.433  11.074
48944W        W12503  10.718  20.185   1.897
48945W        W12504  21.043   7.775   2.239
48946W        W12505  17.562   2.801  12.970
48947W        W12506   3.905  36.052  13.944
48948W        W12507  32.391   6.801  10.539
48949W        W12508  35.936   7.742   2.273
48950W        W12509   5.267  32.091   2.672
48951W        W12510  18.676  30.081   0.316
48952W        W12511  24.575  12.834  13.855
48953W        W12512  25.992  12.743  13.424
48954W        W12513   8.692   0.426   3.755
48955W        W12514  31.497  40.436   2.308
48956W        W12515   8.771  18.665   4.257
48957W        W12516  16.087  22.694  12.905
48958W        W12517  24.088  36.382   4.270
48959W        W12518  26.127  27.989  12.532
48960W        W12519  15.236  37.356   1.369
48961W        W12520  40.308  29.000  11.515
48962W        W12521  44.445  23.541  13.359
48963W        W12522  19.125  21.734  14.465
48964W        W12523  15.734   1.976   0.869
48965W        W12524   3.459  25.681  12.969
48966W        W12525  40.854  39.989   2.744
48967W        W12526  36.407  42.978  10.142
48968W        W12527   6.420  36.932  12.485
48969W        W12528  38.451   7.303   3.644
48970W        W12529  42.439   7.325   0.451
48971W        W12530  38.986   0.834   4.826
48972W        W12531  42.819   9.306   2.843
48973W        W12532  22.250  41.820  13.415
48974W        W12533  15.679   8.215   0.416
48975W        W12534  28.468  42.884   3.704
48976W        W12535  25.615   5.269   3.154
48977W        W12536  42.971  12.190  12.457
48978W        W12537  13.648  12.783  13.408
48979W        W12538  39.888   3.950   2.746
48980W        W12539   1.447  14.637  10.612
48981W        W12540   5.307   4.780  13.419
48982W        W12541  11.294  33.937  11.063
48983W        W12542  31.418   7.302   2.186
48984W        W12543  19.235  32.945   0.454
48985W        W12544  11.275  40.440   0.830
48986W        W12545   4.940   1.340  13.043
48987W        W12546  43.413  29.158  12.847
48988W        W12547  25.077   3.415   1.771
48989W        W12548   5.741  44.792   2.672
48990W        W12549  13.640  25.709   2.307
48991W        W12550  14.653   7.179  14.022
48992W        W12551  23.175  30.416   2.673
48993W        W12552  17.715  15.098  12.558
48994W        W12553  10.876  42.831  14.762
48995W        W12554  37.557  19.089   3.329
48996W        W12555  28.041  11.187  10.509
48997W        W12556  40.803  25.217   3.368
48998W        W12557  40.488  21.094   0.470
48999W        W12558  43.811  19.685  10.480
49000W        W12559  27.059  14.828  10.466
49001W        W12560   3.341  23.200   1.721
49002W        W12561  10.852  43.935   1.717
49003W        W12562  16.253  20.174   2.870
49004W        W12563   6.343  16.740   1.884
49005W        W12564   3.417   7.904   2.899
49006W        W12565  37.397   0.419   2.235
49007W        W12566  29.556  35.101  11.406
49008W        W12567  41.990  15.657   3.211
49009W        W12568  18.296  20.166  11.427
49010W        W12569  18.572  26.076  12.921
49011W        W12570   9.152  13.671  11.045
49012W        W12571   4.811   1.792  11.604
49013W        W12572  16.236  33.879   1.786
49014W        W12573   6.834  42.491  12.076
49015W        W12574  15.582  24.519  12.898
49016W        W12575  29.543  22.597   4.319
49017W        W12576  26.636  17.162  13.536
49018W        W12577  33.946   2.369   1.267
49019W        W12578   2.865   6.425   3.782
49020W        W12579   3.215  40.328  13.868
49021W        W12580   5.701  15.165  13.417
49022W        W12581   1.439  23.662   3.867
49023W        W12582  27.608  40.802   4.677
49024W        W12583  17.758  23.645  14.019
49025W        W12584  32.520  14.609   1.738
49026W        W12585  33.580   0.811  12.994
49027W        W12586   6.367  17.140   2.865
49028W        W12587  34.111  16.598   3.709
49029W        W12588  41.793  28.576  10.405
49030W        W12589  43.488  16.725   1.273
49031W        W12590  10.294  22.625   0.956
49032W        W12591  20.685   8.367  12.837
49033W        W12592  13.307   2.773  12.847
49034W        W12593  43.347  21.232   4.332
49035W        W12594  42.872  24.618   3.775
49036W        W12595  14.831  30.551   0.832
49037W        W12596   8.165  32.468   1.763
49038W        W12597   1.856  34.898  10.619
49039W        W12598  13.842  36.433   4.620
49040W        W12599   4.715  22.173  11.484
49041W        W12600   3.848  18.143  12.487
49042W        W12601   8.875  22.631  11.558
49043W        W12602   4.367  32.079   3.198
49044W        W12603  33.538  44.280  13.444
49045W        W12604  23.710  31.408  12.894
49046W        W12605   0.457  21.235   3.236
49047W        W12606  34.492   1.754  13.459
49048W        W12607   6.681  23.699  11.877
49049W        W12608  39.327  40.863   1.720
49050W        W12609   0.794  34.921   2.900
49051W        W12610  32.940  36.848   1.923
49052W        W12611  16.635  11.764   2.792
49053W        W12612  19.280  43.006  14.929
49054W        W12613  26.047  28.674  12.562
49055W        W12614  13.786  44.786   4.258
49056W        W12615  12.632  39.024  11.553
49057W        W12616  40.439  41.807  13.459
49058W        W12617  20.730  27.147  10.959
49059W        W12618  42.866   2.740  10.481
49060W        W12619  28.450  15.270  13.429
49061W        W12620  44.935  14.291  14.887
49062W        W12621  11.686  43.476  10.000
49063W        W12622  44.490   4.838   4.639
49064W        W12623  19.619  11.863  11.560
49065W        W12624  20.210  34.378  13.324
49066W        W12625  42.374  31.151  10.581
49067W        W12626  29.581  25.626  10.944
49068W        W12627  18.763  25.709   1.727
49069W        W12628  23.099  22.611   3.263
49070W        W12629  29.074  29.471  12.855
49071W        W12630  33.577  17.238  11.492
49072W        W12631  16.224   2.428  13.834
49073W        W12632  37.859  25.067  11.495
49074W        W12633  11.232   2.935   4.743
49075W        W12634  35.027  41.895  11.927
49076W        W12635   9.777  12.770   0.869
49077W        W12636  39.441   4.731  13.964
49078W        W12637   1.919  19.236   4.217
49079W        W12638  26.160  43.450   0.304
49080W        W12639   4.937  35.982   2.240
49081W        W12640   6.246  14.108   1.447
49082W        W12641  31.010  16.102  14.834
49083W        W12642  40.902  25.511   3.176
49084W        W12643  17.690  17.645  10.604
49085W        W12644  32.601  25.576  11.414
49086W        W12645  35.049  25.153  12.435
49087W        W12646  17.071  41.518  10.544
49088W        W12647  14.739  28.950   4.604
49089W        W12648  35.061  12.627  14.025
49090W        W12649  22.217   8.756   1.451
49091W        W12650  37.362  36.407  13.796
49092W        W12651  16.187  21.717  14.841
49093W        W12652  34.404  18.099   3.646
49094W        W12653   7.722  22.693  11.903
49095W        W12654  11.172   2.892  10.942
49096W        W12655  21.672   9.245  11.107
49097W        W12656  36.501  22.531   2.762
49098W        W12657  25.161  10.151   0.389
49099W        W12658  39.345   5.737   4.637
49100W        W12659  37.581  38.541   0.338
49101W        W12660  35.460  28.594   0.849
49102W        W12661  40.888  17.704   1.370
49103W        W12662  19.583  12.801  14.405
49104W        W12663  44.363  30.460   5.261
49105W        W12664   5.722  26.050   3.259
49106W        W12665  15.212  32.992  11.055
49107W        W12666  21.128  19.682  13.502
49108W        W12667  11.761  22.041   3.799
49109W        W12668  25.589  40.406  13.960
49110W        W12669  44.280  40.364   2.255
49111W        W12670  42.523  22.187   0.453
49112W        W12671  17.072  30.094   1.393
49113W        W12672   4.918   2.890   1.399
49114W        W12673  23.061  10.673  11.084
49115W        W12674  44.298  38.850  13.515
49116W        W12675  26.604  35.564  11.417
49117W        W12676  34.381   3.897   3.380
49118W        W12677   6.242  11.836   5.158
49119W        W12678  40.455  28.509  11.444
49120W        W12679  27.615  44.435   0.825
49121W        W12680  18.578  30.514  10.555
49122W        W12681   3.770  16.151  13.797
49123W        W12682  16.153  41.022   3.683
49124W        W12683  15.722  10.763   4.767
49125W        W12684  38.374  29.438  12.396
49126W        W12685  14.285  16.580   4.309
49127W        W12686  36.429   6.409   9.922
49128W        W12687  26.023   1.861   0.415
49129W        W12688  32.410  37.031   2.291
49130W        W12689  12.787   1.754   1.435
49131W        W12690   1.885  14.775   1.694
49132W        W12691  20.133  44.379  10.511
49133W        W12692  44.880  16.772   3.856
49134W        W12693  25.701  25.089  14.978
49135W        W12694  12.692  28.028   4.286
49136W        W12695   6.317  38.470  11.021
49137W        W12696   7.870   5.393   0.877
49138W        W12697  32.418  18.296  12.042
49139W        W12698  39.421   7.857   1.915
49140W        W12699  12.716  31.525  10.637
49141W        W12700  34.585   6.807   4.702
49142W        W12701  20.523  27.690   0.863
49143W        W12702  39.384   3.771   2.661
49144W        W12703  30.558  40.396   1.724
49145W        W12704  13.221  26.665   1.729
49146W        W12705   3.839  31.564  11.860
49147W        W12706  33.963  14.210  11.448
49148W        W12707   7.311  37.927  12.003
49149W        W12708  34.916  11.188  12.850
49150W        W12709  17.586   3.323   4.226
49151W        W12710  36.429  13.127   4.313
49152W        W12711   4.872  32.416   1.283
49153W        W12712  44.798  10.160  10.899
49154W        W12713  15.634  42.314  12.351
49155W        W12714   8.216  24.225   1.247
49156W        W12715  21.538  11.691  10.145
49157W        W12716   3.851  43.269   0.897
49158W        W12717  33.931  29.139   0.396
49159W        W12718  42.932  18.120   0.377
49160W        W12719   0.828  40.951  13.387
49161W        W12720   3.264  38.929   3.333
49162W        W12721   6.428   1.805   3.384
49163W        W12722  18.597  41.842   0.816
49164W        W12723  14.312   1.844   1.722
49165W        W12724  17.297  40.321   4.783
49166W        W12725  21.115  30.481   9.598
49167W        W12726   6.304  12.346  10.990
49168W        W12727  28.050  22.678   0.243
49169W        W12728   9.166  10.288   5.169
49170W        W12729  43.962  23.200  12.067
49171W        W12730  36.930   2.809   3.196
49172W        W12731   4.316  30.533   1.340
49173W        W12732  41.479  12.178  11.874
49174W        W12733  29.523   3.833   1.254
49175W        W12734  21.729  11.223  13.865
49176W        W12735  29.948  11.844   4.155
49177W        W12736   3.831  32.469  10.946
49178W        W12737  24.019  40.885   2.667
49179W        W12738  13.279   9.850   0.735
49180W        W12739  27.987  10.378   4.718
49181W        W12740  40.526  28.596   3.751
49182W        W12741   5.247  42.852  11.095
49183W        W12742  32.489  10.770   1.792
49184W        W12743  23.020  16.673  14.497
49185W        W12744  44.874   7.336  12.580
49186W        W12745  12.139  15.596  14.963
49187W        W12746  42.835  20.537  14.981
49188W        W12747  39.387   2.285  10.923
49189W        W12748  26.633  16.603   3.382
49190W        W12749   0.425  39.494   3.845
49191W        W12750  44.335  33.607   1.278
49192W        W12751  30.949  11.248  13.435
49193W        W12752  14.109   9.330   0.465
49194W        W12753  21.717  28.978   0.922
49195W        W12754   5.829  14.712  12.891
49196W        W12755  14.169   8.269   1.319
49197W        W12756  44.408   2.298  13.867
49198W        W12757   7.204  20.232  12.036
49199W        W12758   8.701   0.303   4.813
49200W        W12759  17.726  12.806   2.825
49201W        W12760  36.409  34.417  10.405
49202W        W12761  24.550  44.925  11.930
49203W        W12762  31.011  21.723  14.851
49204W        W12763  12.784  35.433   3.638
49205W        W12764  36.943  19.567   2.828
49206W        W12765  26.564   9.869  10.941
49207W        W12766  12.758  13.272  12.547
49208W        W12767  38.356  13.292  10.537
49209W        W12768  34.051   7.296  10.619
49210W        W12769   8.779  29.164  12.383
49211W        W12770  15.204  35.570   0.469
49212W        W12771  10.775  18.674  10.534
49213W        W12772  44.465  14.799  10.967
49214W        W12773   9.699  11.154  11.554
49215W        W12774   3.418  44.852  12.990
49216W        W12775   4.892  39.361  12.063
49217W        W12776  31.505  18.198  11.544
49218W        W12777  21.749  27.147   4.699
49219W        W12778  27.029   2.725  11.506
49220W        W12779  32.111  38.842  13.421
49221W        W12780  37.940  42.013   2.247
49222W        W12781  39.993  28.038   3.773
49223W        W12782  41.788  39.875  11.428
49224W        W12783   6.389  30.632   1.404
49225W        W12784  14.791   1.760   3.657
49226W        W12785  28.526  35.056   2.234
49227W        W12786   8.251  35.041  14.354
49228W        W12787  24.480  33.885   1.291
49229W        W12788  29.065  41.314  12.385
49230W        W12789  14.325   3.954  11.385
49231W        W12790   9.887  36.590  13.342
49232W        W12791  41.993  29.591   3.336
49233W        W12792  42.997  12.237   3.731
49234W        W12793  15.761  12.838  14.307
49235W        W12794  16.228  42.352   1.740
49236W        W12795  28.657  39.486  12.965
49237W        W12796  42.824  39.511  13.876
49238W        W12797  28.989  39.819   4.168
49239W        W12798  11.804  16.666  13.381
49240W        W12799  26.035  43.483   1.229
49241W        W12800  30.998  20.671  11.402
49242W        W12801   8.781   2.370   2.735
49243W        W12802   5.862  19.611   4.612
49244W        W12803  15.209   4.880  12.521
49245W        W12804  33.063  14.786  11.506
49246W        W12805  39.006  27.653   4.669
49247W        W12806  22.017  25.047   2.878
49248W        W12807  25.618   2.453  14.384
49249W        W12808  18.709  42.943   2.206
49250W        W12809  21.581  35.469  12.515
49251W        W12810  21.532  23.704   4.281
49252W        W12811  20.248  21.547  10.574
49253W        W12812  31.574  44.369  13.455
49254W        W12813  44.316   6.718   4.168
49255W        W12814  25.558   0.774  11.863
49256W        W12815  42.451  42.822   0.318
49257W        W12816  16.688  35.536   0.729
49258W        W12817   1.822   9.287  11.963
49259W        W12818  38.352  34.117   1.758
49260W        W12819  17.095  39.318   0.294
49261W        W12820  38.538  31.575  14.958
49262W        W12821  25.631  32.916  12.374
49263W        W12822  10.745  40.490   2.786
49264W        W12823  38.077   8.841  13.390
49265W        W12824  26.090   1.336   3.757
49266W        W12825  11.279   6.902   2.324
49267W        W12826   4.371  39.016   2.180
49268W        W12827  40.363   0.811   0.308
49269W        W12828   4.801   1.956  12.509
49270W        W12829  29.550  27.187   4.216
49271W        W12830  31.465  10.823   3.215
49272W        W12831   0.811  24.663   2.676
49273W        W12832  28.106   8.314   1.370
49274W        W12833  14.607  35.412   9.960
49275W        W12834  12.119  14.216   0.789
49276W        W12835   2.863  24.048  12.059
49277W        W12836  32.392  44.840  13.446
49278W        W12837  28.537  40.317   1.301
49279W        W12838   4.355  13.315  14.422
49280W        W12839  16.256   4.392  10.993
49281W        W12840   7.369   8.346  10.589
49282W        W12841  44.292  12.121  12.560
49283W        W12842  10.742  43.483  13.793
49284W        W12843  44.288  35.090  14.027
49285W        W12844  37.504  37.537  10.983
49286W        W12845  14.190  35.428  12.566
49287W        W12846   0.323  41.981  13.462
49288W        W12847  28.595  35.602  10.589
49289W        W12848  27.470  31.497  14.505
49290W        W12849  34.535  37.543  12.558
49291W        W12850  26.537  15.264  14.807
49292W        W12851  38.843   6.752  11.411
49293W        W12852   1.353  34.971  13.493
49294W        W12853  43.021   4.266   1.319
49295W        W12854  27.674  19.557  10.414
49296W        W12855  22.737   8.698  14.448
49297W        W12856   7.808  21.589  14.308
49298W        W12857  15.136  18.701   1.935
49299W        W12858  40.456  13.265   1.919
49300W        W12859  39.467  15.199  12.543
49301W        W12860  33.931  20.607  13.934
49302W        W12861  12.139   6.879  10.404
49303W        W12862  37.884  29.586   2.258
49304W        W12863  24.500  19.238  11.601
49305W        W12864   0.276   8.206  12.451
49306W        W12865   9.386   5.728  14.855
49307W        W12866  39.357  41.930  11.478
49308W        W12867  29.437  41.352  14.367
49309W        W12868  17.074  35.556  11.885
49310W        W12869  20.759   1.945   2.327
49311W        W12870  39.979  13.120   1.382
49312W        W12871  31.496   5.212  10.566
49313W        W12872  39.410  41.336  13.925
49314W        W12873   8.829  17.138   1.799
49315W        W12874  34.051  16.113  14.465
49316W        W12875  10.250   4.329  11.894
49317W        W12876  44.353  39.475  11.557
49318W        W12877  43.965  14.635   0.281
49319W        W12878  27.462  40.326  13.035
49320W        W12879  35.423   6.862  13.910
49321W        W12880  10.858  16.173  13.486
49322W        W12881  29.921   0.449   4.605
49323W        W12882  38.439  35.486   1.369
49324W        W12883   6.750   3.462   2.806
49325W        W12884  42.841  10.718  10.941
49326W        W12885  40.917  13.155  10.564
49327W        W12886  29.110  10.237   1.883
49328W        W12887  41.360  36.556  13.794
49329W        W12888  30.957   4.443  14.793
49330W        W12889  21.107  11.622  12.531
49331W        W12890  23.069  37.010  11.127
49332W        W12891  39.012   3.356  12.002
49333W        W12892  16.219   8.220   2.786
49334W        W12893  38.858  17.239   5.235
49335W        W12894  24.102  11.843  13.995
49336W        W12895  20.609  15.139   0.814
49337W        W12896   7.268  21.097   0.295
49338W        W12897  38.445  43.972   1.428
49339W        W12898   9.804  29.985   4.742
49340W        W12899  28.525  39.868  13.434
49341W        W12900  32.597  16.605   3.251
49342W        W12901  10.257   4.913  12.578
49343W        W12902  39.502  16.313  13.346
49344W        W12903  16.301  23.141  13.843
49345W        W12904  40.938   2.929  11.378
49346W        W12905  23.727   7.342  12.048
49347W        W12906  43.473  14.816   2.720
49348W        W12907  21.169  40.357  11.455
49349W        W12908   7.775  31.925  13.972
49350W        W12909  30.497  36.001   2.350
49351W        W12910   0.423   6.248   4.828
49352W        W12911   3.740  37.916   4.736
49353W        W12912  26.010  43.830   1.424
49354W        W12913  20.048   2.417   1.402
49355W        W12914  28.131  27.969  14.878
49356W        W12915  16.706  12.656   4.618
49357W        W12916  22.693  38.019   4.268
49358W        W12917  33.090  41.848   4.236
49359W        W12918  34.095  39.336   1.257
49360W        W12919  24.484  10.707  12.540
49361W        W12920  23.061  22.702   3.710
49362W        W12921  22.093  13.699  12.930
49363W        W12922  21.224  40.369  12.959
49364W        W12923   2.911  37.339   2.839
49365W        W12924   7.728  11.786   0.921
49366W        W12925  11.294  13.809  11.120
49367W        W12926   7.665   2.419  14.427
49368W        W12927  34.595  44.328  10.988
49369W        W12928  39.345  28.544  10.627
49370W        W12929  42.495   4.727   1.293
49371W        W12930  10.343  44.346  11.123
49372W        W12931  37.859  40.921  11.895
49373W        W12932  40.807  16.284   0.323
49374W        W12933  22.680   0.966   2.825
49375W        W12934  23.123  38.379   4.809
49376W        W12935  28.586  28.972   2.752
49377W        W12936  23.088  12.757   2.365
49378W        W12937  18.070  31.068  14.447
49379W        W12938  14.302   9.649  12.528
49380W        W12939  14.626  34.493   4.239
49381W        W12940  36.886  31.612  12.059
49382W        W12941  38.509  22.715   0.277
49383W        W12942  16.161  36.984  14.827
49384W        W12943   4.931  15.199  14.004
49385W        W12944  26.992  42.001  14.452
49386W        W12945  23.514  25.524   2.267
49387W        W12946  27.194   7.907   2.895
49388W        W12947  25.661  26.983  11.502
49389W        W12948  31.959  40.332  11.085
49390W        W12949  34.118  24.150  14.327
49391W        W12950   0.871  20.231  12.541
49392W        W12951  37.342  39.383  13.998
49393W        W12952  14.131   0.972   0.793
49394W        W12953  19.250  19.670   0.865
49395W        W12954   5.929   7.771  14.974
49396W        W12955  16.289  21.194  10.533
49397W        W12956   9.243  24.642  12.487
49398W        W12957  21.150  38.994  14.802
49399W        W12958  14.281   6.187   1.901
49400W        W12959  31.137  37.550  13.343
49401W        W12960  28.085  21.753  12.914
49402W        W12961  21.033  35.981  14.968
49403W        W12962  35.870  31.468  13.491
49404W        W12963  37.466  39.432  13.408
49405W        W12964   2.957  39.985  12.430
49406W        W12965  11.355   7.282   3.845
49407W        W12966  38.385  33.086  13.844
49408W        W12967   0.438  28.444  13.020
49409W        W12968  18.147  35.405  11.112
49410W        W12969  15.087  28.681  10.481
49411W        W12970   4.733   2.264  14.450
49412W        W12971  37.498  11.252   3.756
49413W        W12972  39.885  36.475  12.456
49414W        W12973  12.299  10.730   1.439
49415W        W12974  15.176  32.029   1.358
49416W        W12975  21.574  38.464   3.293
49417W        W12976  34.099  39.406   2.360
49418W        W12977  31.449  28.014  12.521
49419W        W12978  21.726  12.805   1.695
49420W        W12979  37.994  41.034   4.170
49421W        W12980  16.306  42.995  11.106
49422W        W12981  28.072  10.143   2.731
49423W        W12982  10.237  37.015  12.910
49424W        W12983   8.189  20.678   2.680
49425W        W12984   3.858   2.940   0.742
49426W        W12985  21.122  21.756   3.236
49427W        W12986   2.903  20.589  12.390
49428W        W12987   7.415  38.965   4.617
49429W        W12988  37.563  12.720  13.004
49430W        W12989  16.710  12.284   2.369
49431W        W12990   7.698  43.304   1.243
49432W        W12991  37.930  33.429   2.398
49433W        W12992  42.375  12.128  11.578
49434W        W12993  25.010  41.815  13.493
49435W        W12994  14.094   6.385   2.802
49436W        W12995  25.714  22.558  13.334
49437W        W12996  32.059  25.634   1.379
49438W        W12997  20.767  20.746  13.386
49439W        W12998  42.805  18.179  14.872
49440W        W12999  11.722  28.606   1.249
49441W        W13000  32.431  20.235  12.342
49442W        W13001  44.435  27.669   0.894
49443W        W13002  33.020  18.628  10.904
49444W        W13003  11.750  11.859  14.802
49445W        W13004  37.406   4.849  11.923
49446W        W13005  19.677  24.170  10.517
49447W        W13006  38.891  23.072   1.801
49448W        W13007  32.515  38.425  11.408
49449W        W13008  34.447   1.886  10.464
49450W        W13009  39.875  42.012   4.228
49451W        W13010  36.078  42.810   3.668
49452W        W13011  11.815  15.327  13.057
49453W        W13012  14.754  30.151   4.317
49454W        W13013  24.482  32.531   0.446
49455W        W13014  23.667   7.877  13.894
49456W        W13015  10.262  30.487  10.632
49457W        W13016  11.353  18.553   4.274
49458W        W13017  44.998  16.271  13.999
49459W        W13018  19.742  32.063  10.933
49460W        W13019  16.178   3.318   3.225
49461W        W13020  16.596  30.095  12.977
49462W        W13021   9.149  32.081   2.195
49463W        W13022   9.245   4.255  12.839
49464W        W13023  27.114  41.380   4.177
49465W        W13024  25.541  17.759   2.317
49466W        W13025  10.785  42.814   3.326
49467W        W13026   6.253  28.495   3.636
49468W        W13027  15.307  25.120  11.609
49469W        W13028  13.277  22.683   3.705
49470W        W13029  16.740  30.530   4.137
49471W        W13030  29.548   3.872  14.831
49472W        W13031   5.780  28.099  14.434
49473W        W13032  12.212  22.616   1.224
49474W        W13033   2.419  22.698   1.912
49475W        W13034  23.630  38.047   1.769
49476W        W13035   1.455  34.369   0.394
49477W        W13036  44.804  30.644   1.824
49478W        W13037  33.013  21.145  14.932
49479W        W13038   9.846  14.141   2.720
49480W        W13039  15.304  16.644  11.011
49481W        W13040  15.201   7.812  13.821
49482W        W13041  20.160  34.573  10.950
49483W        W13042  29.426  30.472  10.479
49484W        W13043  12.723   3.901  10.427
49485W        W13044  36.842  40.430  12.042
49486W        W13045  10.244  39.986  12.036
49487W        W13046  37.372  34.097   2.809
49488W        W13047  17.164  11.801   2.805
49489W        W13048  20.224  16.113   4.673
49490W        W13049  43.890  21.218   3.739
49491W        W13050  44.004   6.822  13.487
49492W        W13051  39.936   5.912   3.722
49493W        W13052  37.374  24.019   1.776
49494W        W13053  43.811  35.372  13.473
49495W        W13054  10.865   3.389   0.266
49496W        W13055   4.793  24.999  12.040
49497W        W13056  21.188  19.722   3.206
49498W        W13057  37.966  35.889  10.912
49499W        W13058  25.541  11.215  11.410
49500W        W13059  24.094  21.531   4.734
49501W        W13060   3.712  15.591   9.946
49502W        W13061  13.681  32.119  14.383
49503W        W13062  23.590  18.244   0.457
49504W        W13063  22.109  21.598   4.130
49505W        W13064   2.459  21.029  12.017
49506W        W13065  15.593  31.901  13.535
49507W        W13066  13.163  40.367   0.751
49508W        W13067  41.926  19.192  12.874
49509W        W13068  22.158  36.966  10.475
49510W        W13069  44.809   2.385   2.353
49511W        W13070   3.859  44.917   4.215
49512W        W13071  39.537  42.796   0.378
49513W        W13072  24.081  37.573   2.809
49514W        W13073  21.568  37.885  11.939
49515W        W13074  22.132  39.039  12.378
49516W        W13075   0.936  10.712  12.050
49517W        W13076  37.582  22.510   4.659
49518W        W13077  12.662  40.335   3.372
49519W        W13078   2.748  27.065  10.984
49520W        W13079  36.406  12.851  13.059
49521W        W13080  20.032   7.341  13.823
49522W        W13081   4.795   8.875   4.201
49523W        W13082  22.706  43.279  14.973
49524W        W13083  17.712  20.673  12.552
49525W        W13084  17.172  31.043  13.536
49526W        W13085   9.704  41.003   0.897
49527W        W13086  14.202  38.363   2.209
49528W        W13087  15.230  40.946  12.070
49529W        W13088  32.589  30.500  14.967
49530W        W13089  18.634  41.941   0.471
49531W        W13090  27.580  11.210  11.914
49532W        W13091   4.838  21.652  14.319
49533W        W13092  44.802  43.452   3.215
49534W        W13093  34.609  15.319   2.876
49535W        W13094  31.080  31.586   4.248
49536W        W13095  39.353  27.453   3.657
49537W        W13096   3.342   0.277   2.835
49538W        W13097   8.749   0.973  14.410
49539W        W13098  15.742   0.783  14.338
49540W        W13099  41.954  18.213   4.269
49541W        W13100  29.160  38.333   3.789
49542W        W13101   0.265   4.449   1.236
49543W        W13102  41.903  41.378  13.791
49544W        W13103   7.192  13.735   3.723
49545W        W13104   9.706  43.406   0.398
49546W        W13105   6.774  19.040  12.002
49547W        W13106  22.074   9.724  13.911
49548W        W13107   8.293  34.918   2.760
49549W        W13108   9.691   7.757   1.804
49550W        W13109  39.531  39.992  12.924
49551W        W13110  24.071  33.405  10.557
49552W        W13111   8.175   2.726  13.537
49553W        W13112   1.444  15.307  10.630
49554W        W13113   2.242  10.167  14.947
49555W        W13114   9.236   8.246   2.680
49556W        W13115  10.650  27.465  13.371
49557W        W13116  13.783  25.205  10.062
49558W        W13117  24.140  35.903   4.783
49559W        W13118  28.610  36.454   4.132
49560W        W13119  23.491  40.923   1.243
49561W        W13120  27.142  10.797  14.829
49562W        W13121  20.575  42.338  12.342
49563W        W13122  24.511  32.532  14.765
49564W        W13123  32.558  18.659   2.896
49565W        W13124  20.551  33.468  10.008
49566W        W13125  34.092  32.488   3.233
49567W        W13126  18.587  12.845  14.997
49568W        W13127   8.162   3.791   2.405
49569W        W13128  24.160  44.834  11.517
49570W        W13129  39.973  43.284  12.078
49571W        W13130   8.688   1.330  14.791
49572W        W13131  22.194  34.035   4.249
49573W        W13132  17.122  44.446   5.231
49574W        W13133  22.715   3.216  10.129
49575W        W13134   0.494  40.506  13.409
49576W        W13135   3.769  44.807  14.848
49577W        W13136   5.757  42.417  10.453
49578W        W13137   3.253   5.831   4.721
49579W        W13138  40.990   3.821   4.258
49580W        W13139  24.483  33.017   4.819
49581W        W13140   8.223  33.598  12.881
49582W        W13141  19.642  40.486  14.318
49583W        W13142  43.425  32.042  11.599
49584W        W13143  26.476  34.902  13.984
49585W        W13144  31.969  13.628  10.476
49586W        W13145  23.597   5.888   0.896
49587W        W13146  42.476   5.812  11.402
49588W        W13147  40.999  12.718   2.786
49589W        W13148  39.344  11.293   1.427
49590W        W13149  10.781  38.434  10.491
49591W        W13150   5.809  37.435  11.037
49592W        W13151  43.285   7.789  13.472
49593W        W13152  21.655  10.162   4.299
49594W        W13153  11.733   8.694  10.994
49595W        W13154  19.204   1.424   1.718
49596W        W13155  44.791  20.728   2.685
49597W        W13156  35.400  44.473   2.662
49598W        W13157  25.087  11.344  11.018
49599W        W13158  15.158  36.841  10.980
49600W        W13159  13.677  33.565   1.385
49601W        W13160  38.836   9.197   2.222
49602W        W13161  28.984  38.059  12.954
49603W        W13162  18.105  18.678   3.770
49604W        W13163  17.202   9.310  10.531
49605W        W13164  14.183  30.980  10.978
49606W        W13165   0.339   0.353  14.918
49607W        W13166   7.257  22.640   1.778
49608W        W13167  28.162   4.305   4.708
49609W        W13168  13.301  32.944  13.499
49610W        W13169  24.135  43.776  11.109
49611W        W13170  33.561  18.175  14.996
49612W        W13171  44.753  31.504   2.729
49613W        W13172  33.022   9.752  11.016
49614W        W13173  41.955   1.357  14.372
49615W        W13174   2.833  23.043  14.894
49616W        W13175   3.918  40.429   0.366
49617W        W13176   5.803   6.370  10.610
49618W        W13177  25.057  43.417   2.238
49619W        W13178  33.453  31.470  11.101
49620W        W13179  15.229  32.967   0.945
49621W        W13180  32.056  19.536  14.969
49622W        W13181   3.251  27.519   1.847
49623W        W13182  17.581   4.722   0.759
49624W        W13183  25.693   8.790   2.204
49625W        W13184  36.846  44.342   1.884
49626W        W13185  20.621  41.306  13.951
49627W        W13186  13.313   8.324  13.968
49628W        W13187   3.230  13.254   1.895
49629W        W13188  43.360  19.690   2.316
49630W        W13189   5.432   6.221   0.873
49631W        W13190  28.515  19.093   1.416
49632W        W13191  22.660  12.741  12.831
49633W        W13192  38.401  36.539  11.511
49634W        W13193  26.036   9.823  10.044
49635W        W13194  30.994  33.446  11.584
49636W        W13195  36.062   4.310   1.912
49637W        W13196  33.600   0.405   1.912
49638W        W13197  12.312  42.019   0.314
49639W        W13198  42.899  37.850  12.511
49640W        W13199   5.878  16.686   1.747
49641W        W13200  30.925  43.980   0.842
49642W        W13201  39.390  23.169  11.486
49643W        W13202  21.026   4.872   3.801
49644W        W13203  43.422   4.840  11.064
49645W        W13204   9.337   6.792  13.335
49646W        W13205  35.999   2.945  10.414
49647W        W13206  34.006   3.397   3.387
49648W        W13207  43.399  31.076   4.310
49649W        W13208  23.048  17.585   2.210
49650W        W13209  17.699  22.181   2.665
49651W        W13210  20.222  10.648   0.895
49652W        W13211  36.870  13.685   1.412
49653W        W13212   8.373  21.175   0.287
49654W        W13213  30.055  25.081   3.808
49655W        W13214  12.770  15.243  10.137
49656W        W13215  12.832   2.469   0.411
49657W        W13216  23.162  37.413  11.539
49658W        W13217   2.949  34.899   2.320
49659W        W13218  40.814  32.105  14.410
49660W        W13219  39.521  21.729   4.138
49661W        W13220  32.489  33.939  11.866
49662W        W13221  26.074  17.793   2.874
49663W        W13222  39.946   5.842  12.869
49664W        W13223   0.482  22.509  14.432
49665W        W13224  14.114  35.002   2.221
49666W        W13225  43.319   1.873  13.980
49667W        W13226   6.736  28.144   0.417
49668W        W13227  16.187  18.589   4.175
49669W        W13228  21.729  41.983   0.319
49670W        W13229  41.522  13.209  14.435
49671W        W13230  44.862  40.950  10.492
49672W        W13231  33.890  43.019   0.409
49673W        W13232  22.137  39.377  12.396
49674W        W13233  37.456   5.438   0.930
49675W        W13234  13.352   8.861   5.159
49676W        W13235  11.702  10.294   1.808
49677W        W13236   8.749  35.576   0.751
49678W        W13237  40.356  44.460   1.296
49679W        W13238  13.648  11.254   4.354
49680W        W13239  34.900  20.647  14.364
49681W        W13240   8.281  29.070   1.803
49682W        W13241  20.138  25.601  14.969
49683W        W13242  29.977  16.606   2.219
49684W        W13243   4.875  32.575   3.659
49685W        W13244   8.274  24.706   3.241
49686W        W13245  14.202  14.648  12.441
49687W        W13246  34.101   9.850   0.284
49688W        W13247  33.878  12.798   2.332
49689W        W13248  43.910  22.069  14.298
49690W        W13249   1.928  41.356   2.309
49691W        W13250  34.110  18.186   0.824
49692W        W13251  12.631  43.360   4.194
49693W        W13252  39.041  21.587   4.297
49694W        W13253   3.905  16.579  14.929
49695W        W13254   5.341   5.435   0.302
49696W        W13255   4.893   0.927  10.889
49697W        W13256   3.860   1.357  13.513
49698W        W13257  41.379   2.418  14.782
49699W        W13258   1.818  41.996   2.183
49700W        W13259  38.989  19.041   3.766
49701W        W13260  13.686  40.980  13.870
49702W        W13261  42.867   2.262  14.980
49703W        W13262  40.383   0.348   4.662
49704W        W13263   0.436  43.470  12.522
49705W        W13264   2.350   1.919  13.924
49706W        W13265  10.870   3.413  11.457
49707W        W13266   1.959  40.821   4.728
49708W        W13267  15.622  10.722  10.458
49709W        W13268   5.332  44.464  14.298
49710W        W13269  27.513   5.362   2.390
49711W        W13270  12.259   8.264  11.400
49712W        W13271  22.735  34.523   1.415
49713W        W13272   0.448  39.359   1.751
49714W        W13273  18.663  29.049   3.309
49715W        W13274  35.523   0.466   4.597
49716W        W13275  24.665  21.068   1.717
49717W        W13276  29.012   7.704  10.967
49718W        W13277  15.130   5.394  12.396
49719W        W13278  42.436  30.145  12.554
49720W        W13279  33.485  17.593  10.150
49721W        W13280  40.350  38.418   2.217
49722W        W13281  43.468  28.451  12.091
49723W        W13282  16.237  19.217   2.820
49724W        W13283  42.011  36.416   3.316
49725W        W13284  17.796   9.281   0.839
49726W        W13285  24.087  33.109   0.468
49727W        W13286  29.015  16.694  13.023
49728W        W13287   2.830  44.474  12.844
49729W        W13288  14.128   4.297   0.319
49730W        W13289   6.886  36.412   0.869
49731W        W13290   2.379  38.970  13.482
49732W        W13291  30.137  22.708  10.958
49733W        W13292  15.270  35.975  11.986
49734W        W13293   3.764  16.784   1.301
49735W        W13294  17.290  34.939  12.427
49736W        W13295  39.395  13.198   2.883
49737W        W13296  23.232  41.443   0.421
49738W        W13297  30.926  16.666   3.806
49739W        W13298  29.502   4.929  13.483
49740W        W13299  26.158  15.579  12.471
49741W        W13300  32.133  18.085  13.832
49742W        W13301  29.062  28.048  11.504
49743W        W13302  38.447   9.840   0.932
49744W        W13303  38.570  39.345  10.956
49745W        W13304  43.966  32.068  14.511
49746W        W13305   9.859  36.959  14.346
49747W        W13306   0.429  41.474   4.207
49748W        W13307  24.683  15.817  13.975
49749W        W13308  31.912   9.232  14.765
49750W        W13309  23.006  22.118  14.299
49751W        W13310  10.278  13.745   0.343
49752W        W13311  11.162   6.278  10.637
49753W        W13312  25.030   0.383   1.783
49754W        W13313  24.160  44.758  14.985
49755W        W13314  37.395  31.635   3.786
49756W        W13315  44.825   4.898  12.353
49757W        W13316  34.033  42.498   0.862
49758W        W13317  29.021  34.084  11.565
49759W        W13318  43.791  28.056   3.375
49760W        W13319  19.575  35.473   3.691
49761W        W13320  15.745  43.801   4.666
49762W        W13321  29.062  18.749  11.481
49763W        W13322   6.256  31.089   4.631
49764W        W13323   1.775   9.235  11.116
49765W        W13324  14.305  26.472  14.315
49766W        W13325   6.875   7.723  11.020
49767W        W13326  10.759   8.846  14.359
49768W        W13327  18.183  25.593   4.790
49769W        W13328   1.435   8.818   2.843
49770W        W13329  32.519   2.750  11.590
49771W        W13330  11.246  26.070   4.283
49772W        W13331  42.872   4.939   3.789
49773W        W13332  11.825   4.771   1.243
49774W        W13333  27.673  16.232   0.876
49775W        W13334  32.505  24.063   4.793
49776W        W13335  41.999  36.089  12.089
49777W        W13336  22.031  11.628   2.244
49778W        W13337  32.482  10.193   2.860
49779W        W13338  35.390  13.155   2.395
49780W        W13339   9.156   9.701   4.137
49781W        W13340  26.106  13.249  11.611
49782W        W13341  36.069  26.539   0.259
49783W        W13342  25.477   8.271   0.389
49784W        W13343  23.592   1.789   0.962
49785W        W13344  11.630  30.142   0.381
49786W        W13345  30.597  37.940   2.876
49787W        W13346  37.407  18.101  14.809
49788W        W13347  43.479  25.571   1.822
49789W        W13348  15.220  27.672  10.455
49790W        W13349  14.108   9.368   5.667
49791W        W13350  34.041   1.384  11.529
49792W        W13351  15.810   2.744   1.381
49793W        W13352  30.074  11.756   1.694
49794W        W13353  36.988  41.493   4.731
49795W        W13354   5.228  33.393   4.680
49796W        W13355   6.883   8.260  11.592
49797W        W13356   3.744   4.323  10.459
49798W        W13357  24.166  23.661   3.821
49799W        W13358  16.811  25.710  14.013
49800W        W13359   6.330  42.424   0.850
49801W        W13360  44.995  41.830  13.998
49802W        W13361   6.310  44.824   1.831
49803W        W13362   0.805  25.548   3.301
49804W        W13363  15.760  18.682   5.176
49805W        W13364  32.596  36.004  12.527
49806W        W13365  14.790  13.307   2.816
49807W        W13366  22.011  22.094  11.902
49808W        W13367  44.883  10.678   2.400
49809W        W13368   9.842  24.495   4.254
49810W        W13369  33.489   3.320   2.716
49811W        W13370  39.384  26.150   3.288
49812W        W13371  33.589  35.929  12.485
49813W        W13372  16.293   1.273  14.371
49814W        W13373  27.990   6.372   4.330
49815W        W13374  34.980  16.204  14.842
49816W        W13375   8.204  26.592  11.867
49817W        W13376  24.189   4.743  13.828
49818W        W13377  37.831  40.349  13.980
49819W        W13378   2.430  31.110   4.322
49820W        W13379  37.506   4.879  13.984
49821W        W13380  38.988   7.851  10.138
49822W        W13381  34.081  14.770  10.452
49823W        W13382   0.964   4.302  12.459
49824W        W13383  35.031  25.571  13.315
49825W        W13384  19.170  20.748   3.253
49826W        W13385  12.153   2.812  11.933
49827W        W13386  15.736  31.433   2.837
49828W        W13387  23.649  22.560   2.378
49829W        W13388  25.063  34.120   0.909
49830W        W13389  25.209   1.904   0.784
49831W        W13390   1.960  19.186   1.423
49832W        W13391  15.780   8.321  14.906
49833W        W13392  14.819  17.257   4.819
49834W        W13393  41.928  10.143   4.303
49835W        W13394  11.707  29.160   2.354
49836W        W13395  15.271   7.754  10.958
49837W        W13396   1.288  44.890  13.540
49838W        W13397  43.426  16.150   0.347
49839W        W13398  31.533  13.766  13.533
49840W        W13399   0.859  20.556   3.341
49841W        W13400   1.341   6.846  13.506
49842W        W13401  15.688  39.817  12.969
49843W        W13402  31.961  15.805  12.572
49844W        W13403  26.189   2.326   4.343
49845W        W13404  31.134   2.430  14.920
49846W        W13405   0.347  42.461   1.853
49847W        W13406   0.974   1.766  11.604
49848W        W13407  42.922  12.719   3.220
49849W        W13408   2.468  27.042  13.481
49850W        W13409  42.984  28.595   1.377
49851W        W13410  24.724  40.311  11.608
49852W        W13411   4.279  19.087   0.931
49853W        W13412  38.390  19.216  14.815
49854W        W13413  39.007  31.514   0.345
49855W        W13414  27.049   0.894   0.283
49856W        W13415  26.491  42.878   4.664
49857W        W13416  44.339   6.258   3.760
49858W        W13417  32.126  26.127   1.413
49859W        W13418  31.466   8.327   0.746
49860W        W13419  26.060  10.140  12.922
49861W        W13420  23.021  25.065  14.319
49862W        W13421  27.499  16.591  13.956
49863W        W13422  24.085  18.604   2.665
49864W        W13423  33.907  40.889  10.040
49865W        W13424  10.733   8.849  12.078
49866W        W13425  35.855  17.151   3.659
49867W        W13426  39.553  24.579   2.417
49868W        W13427   6.305  40.799   2.869
49869W        W13428   7.281   4.722  12.007
49870W        W13429  32.534   4.334   1.334
49871W        W13430   6.886  37.338   4.759
49872W        W13431  10.835  42.795   0.726
49873W        W13432  28.452   8.695  11.874
49874W        W13433  33.895   0.815   0.442
49875W        W13434  41.886  10.153   2.190
49876W        W13435  41.450  25.708   3.381
49877W        W13436  32.005  35.902   4.782
49878W        W13437  21.164  39.884   3.837
49879W        W13438  11.317  21.218  12.063
49880W        W13439   3.233  44.758   0.753
49881W        W13440  12.795  32.981  13.367
49882W        W13441  14.694  24.058   2.244
49883W        W13442  30.064  42.320  13.498
49884W        W13443   3.403  31.566  11.863
49885W        W13444  41.956  10.193  11.001
49886W        W13445   3.846  14.123   4.315
49887W        W13446  35.481  23.717  13.054
49888W        W13447  35.476  12.730   4.781
49889W        W13448  12.163  18.739  10.984
49890W        W13449  25.525  38.562  13.423
49891W        W13450  32.582   4.853  13.059
49892W        W13451  16.283  42.448   3.182
49893W        W13452  29.006  30.635   1.387
49894W        W13453  24.716  41.810   0.761
49895W        W13454   8.180  40.432  14.292
49896W        W13455  18.110  34.499  12.391
49897W        W13456  39.057  27.135  10.144
49898W        W13457  44.496  18.661   2.674
49899W        W13458  24.185  33.066  11.390
49900W        W13459  24.117   2.328  13.818
49901W        W13460  10.355  28.984   2.375
49902W        W13461   7.378   8.364   4.342
49903W        W13462  24.623   1.889  14.761
49904W        W13463   8.876  40.922   4.260
49905W        W13464  31.481   1.865  14.503
49906W        W13465  40.045  25.188  14.856
49907W        W13466   8.258  12.120   1.351
49908W        W13467  26.542  38.065  12.511
49909W        W13468  14.779  26.696   5.117
49910W        W13469   4.813  18.715   1.227
49911W        W13470  22.561   2.893   4.697
49912W        W13471  33.124  11.348  14.414
49913W        W13472  38.930   8.218   5.132
49914W        W13473  41.472  22.069   0.914
49915W        W13474  42.316  23.090   3.703
49916W        W13475  35.599   8.329  11.547
49917W        W13476  18.596  10.858  10.579
49918W        W13477  23.715  20.648  11.587
49919W        W13478  42.023  28.668  11.916
49920W        W13479  31.052   3.286  13.451
49921W        W13480   0.900  44.792   4.679
49922W        W13481   5.327  25.116   3.307
49923W        W13482  35.450  18.096  13.359
49924W        W13483  32.568  39.458  10.935
49925W        W13484  29.128  32.635   4.141
49926W        W13485  17.201  13.821  14.022
49927W        W13486  16.744   0.374   4.811
49928W        W13487  44.395  17.766   0.300
49929W        W13488  34.926  24.094   3.767
49930W        W13489  26.567   8.330   4.668
49931W        W13490  12.259  35.466  13.976
49932W        W13491  27.522   2.745   3.256
49933W        W13492  14.103   2.815   3.240
49934W        W13493  28.503  25.693   1.803
49935W        W13494  12.717  37.495  14.328
49936W        W13495  22.606  13.147  10.017
49937W        W13496   4.767  23.574  14.415
49938W        W13497  12.741   2.793   1.411
49939W        W13498  21.042  13.603   4.330
49940W        W13499  25.962  38.912   0.483
49941W        W13500  34.608  10.812  12.516
49942W        W13501   0.475  33.016  14.491
49943W        W13502  13.204  16.118   2.747
49944W        W13503  43.870   1.405  11.550
49945W        W13504   3.808   1.367  12.008
49946W        W13505  16.085   5.717   0.343
49947W        W13506   5.822  25.504   1.353
49948W        W13507  42.296  16.739  12.842
49949W        W13508  10.794  12.281  13.884
49950W        W13509  28.949  41.822  10.160
49951W        W13510  41.434  16.086   2.870
49952W        W13511  34.917  34.974   1.769
49953W        W13512  16.167   1.291  13.852
49954W        W13513   0.852   2.826  12.984
49955W        W13514   4.238  35.515  12.887
49956W        W13515  27.196   2.808   3.174
49957W        W13516  26.646  44.888  10.913
49958W        W13517  16.123  44.951  14.341
49959W        W13518  28.543   7.177   1.246
49960W        W13519  27.114  12.649  14.978
49961W        W13520  33.488   0.327  13.792
49962W        W13521  13.836  36.080  11.456
49963W        W13522  25.522   3.919  12.829
49964W        W13523   5.375  19.122   4.825
49965W        W13524  30.927  26.482   0.389
49966W        W13525   9.292  26.657   4.250
49967W        W13526  25.208  37.988   1.697
49968W        W13527  35.442   6.321  10.619
49969W        W13528  40.451   9.256  14.763
49970W        W13529  14.158  20.036   2.179
49971W        W13530  38.353  17.781   2.259
49972W        W13531  30.438   9.151   3.850
49973W        W13532  42.789  31.064  11.092
49974W        W13533  17.251  42.919  13.408
49975W        W13534   4.769  11.219   2.379
49976W        W13535  14.788  27.175  13.948
49977W        W13536  30.601  40.907  12.539
49978W        W13537  12.302  37.499   1.811
49979W        W13538  24.530   6.313  13.333
49980W        W13539   6.817  22.251  13.471
49981W        W13540  16.582  32.491   1.813
49982W        W13541  19.589  31.029  12.419
49983W        W13542  12.341  10.682  14.333
49984W        W13543  12.250  15.680   2.791
49985W        W13544   3.301  16.752   4.750
49986W        W13545  22.052   3.361   0.851
49987W        W13546  43.867  35.511   0.313
49988W        W13547  22.663  13.824   4.787
49989W        W13548   2.328   7.359  11.001
49990W        W13549   9.337  40.337   2.222
49991W        W13550   5.279  20.718   2.729
49992W        W13551  18.706   1.831  12.976
49993W        W13552  18.156  31.564   0.753
49994W        W13553  31.996  19.256  13.950
49995W        W13554  30.930  33.967  14.768
49996W        W13555  24.121  34.385   1.777
49997W        W13556  29.558  15.133   2.209
49998W        W13557  22.181  10.845  11.444
49999W        W13558  23.094  17.110  10.976
50000W        W13559  15.087  30.129  10.615
50001W        W13560  34.590  17.061   1.816
50002W        W13561  11.309  24.555   0.808
50003W        W13562   3.911  10.318  11.931
50004W        W13563   8.755  26.122  12.355
50005W        W13564  36.402  42.321   2.409
50006W        W13565  19.218  36.891  12.080
50007W        W13566  12.804   8.387   3.215
50008W        W13567  20.638  13.711  13.026
50009W        W13568  35.381  10.266   2.691
50010W        W13569  44.439   9.767   0.760
50011W        W13570  14.267   1.395  14.470
50012W        W13571   6.759   5.706  14.902
50013W        W13572  16.571  43.290  14.442
50014W        W13573   7.343  10.785   0.354
50015W        W13574   7.257  33.558   4.327
50016W        W13575  26.649  33.967   3.189
50017W        W13576  26.997  11.744  11.069
50018W        W13577  39.444  14.138  14.973
50019W        W13578  33.924  25.087   1.844
50020W        W13579  33.552  37.560  13.455
50021W        W13580  38.368  10.348   4.599
50022W        W13581  42.932  38.536   0.354
50023W        W13582  38.990  24.557  11.462
50024W        W13583  25.522   6.194   2.694
50025W        W13584  24.087  25.494   0.393
50026W        W13585  35.422  21.119  13.854
50027W        W13586   8.770  27.085   1.349
50028W        W13587  37.891  16.812  13.005
50029W        W13588  37.082  33.956  13.546
50030W        W13589  31.104   4.365  14.371
50031W        W13590  31.120   8.669   4.804
50032W        W13591  13.742   5.229  14.405
50033W        W13592  38.858  11.687   2.693
50034W        W13593  10.705  14.234  11.860
50035W        W13594  43.314  33.964  12.536
50036W        W13595  27.660  18.288  11.389
50037W        W13596  25.190  21.050   3.712
50038W        W13597  37.443  28.628  14.491
50039W        W13598   5.927  13.250  13.425
50040W        W13599  38.026   3.788   1.885
50041W        W13600  41.381  27.686  12.073
50042W        W13601  14.834  35.955  13.307
50043W        W13602  25.200  24.690   2.727
50044W        W13603  29.966   8.764  10.529
50045W        W13604  10.817  22.250  10.894
50046W        W13605  24.597  36.392   1.406
50047W        W13606  42.955  36.397   1.818
50048W        W13607   5.245   8.893  10.994
50049W        W13608  19.620  35.957  10.988
50050W        W13609  32.455  18.777   3.243
50051W        W13610   5.258  43.488  11.930
50052W        W13611  30.942  44.965  14.791
50053W        W13612  40.475  21.215   1.227
50054W        W13613  10.342  44.402   0.245
50055W        W13614  44.269  18.271  11.500
50056W        W13615  21.598  14.739  12.506
50057W        W13616  14.305   5.230   3.266
50058W        W13617  32.958   5.264   4.769
50059W        W13618  19.552   5.210   4.311
50060W        W13619  16.252  25.591   3.744
50061W        W13620  41.791  18.232  13.892
50062W        W13621  18.221  16.790  12.989
50063W        W13622   4.707  38.355   1.434
50064W        W13623  29.048  40.000  13.016
50065W        W13624  38.550  16.770  13.975
50066W        W13625  32.968  28.017   4.220
50067W        W13626  38.378  26.679   2.804
50068W        W13627  18.275  28.490  14.887
50069W        W13628  35.881   5.219   0.762
50070W        W13629  31.426  20.222   4.784
50071W        W13630  17.568  35.548   3.817
50072W        W13631  15.143  32.910   4.340
50073W        W13632  15.599  23.166  14.982
50074W        W13633  32.900  15.231   3.785
50075W        W13634  32.121   1.798   4.154
50076W        W13635  24.619  12.840  10.122
50077W        W13636  41.491  14.157  12.020
50078W        W13637  38.406  44.432  13.968
50079W        W13638  31.101  21.713   0.461
50080W        W13639  20.114  33.070   0.758
50081W        W13640   5.243  32.054  11.123
50082W        W13641  24.063  39.435  11.023
50083W        W13642  20.589   8.174  10.889
50084W        W13643  31.032  34.523  11.487
50085W        W13644   4.280  25.034  13.530
50086W        W13645  21.058  23.497  11.046
50087W        W13646  29.591  35.385   2.350
50088W        W13647  21.666  39.322  10.630
50089W        W13648  18.102  19.606  11.607
50090W        W13649   4.356  36.004  10.416
50091W        W13650  26.089  16.686  12.527
50092W        W13651  26.669  39.317   2.414
50093W        W13652  29.020  29.983   0.785
50094W        W13653  29.567  35.514  11.424
50095W        W13654  32.552  22.696   4.685
50096W        W13655  38.977  28.939   3.704
50097W        W13656  44.262  36.992  10.910
50098W        W13657  16.709   0.981  10.532
50099W        W13658  37.505  13.697  11.874
50100W        W13659  20.596  17.727  10.543
50101W        W13660  42.973   1.340   4.817
50102W        W13661  11.757  11.631   2.215
50103W        W13662   1.828   8.229   1.226
50104W        W13663  34.880   6.826   2.730
50105W        W13664  11.732   6.272  10.912
50106W        W13665  44.845  31.958   1.911
50107W        W13666  39.403  16.719   1.771
50108W        W13667  27.171  27.044   2.893
50109W        W13668  21.756  17.127  10.138
50110W        W13669  24.533  13.316  12.943
50111W        W13670   3.342  31.041   4.248
50112W        W13671  42.923  27.004  11.375
50113W        W13672   3.405  31.963   3.744
50114W        W13673  35.516  12.275  11.513
50115W        W13674   2.938  40.337  10.916
50116W        W13675  35.095  15.604  10.448
50117W        W13676  36.370   2.922  12.339
50118W        W13677  24.725  14.133   2.203
50119W        W13678  26.553  16.095  13.842
50120W        W13679  25.505  41.459   5.287
50121W        W13680  38.048   0.771  12.986
50122W        W13681  24.006  23.539  12.497
50123W        W13682  18.776   3.436   5.198
50124W        W13683  39.432  15.082   4.793
50125W        W13684  23.677  38.346   4.247
50126W        W13685   7.197   3.889  14.436
50127W        W13686  21.624   9.269   4.620
50128W        W13687  38.044  32.924   2.318
50129W        W13688  31.620  13.195  14.424
50130W        W13689   0.846  22.025   4.737
50131W        W13690  16.260  39.056  13.378
50132W        W13691  15.643  16.716  14.373
50133W        W13692  44.318   8.375   0.264
50134W        W13693  26.191  15.790   1.212
50135W        W13694   3.750  42.362   0.338
50136W        W13695  12.243  27.649  13.489
50137W        W13696  34.060   1.265  10.940
50138W        W13697  20.029  11.756  13.956
50139W        W13698  40.333  38.867  11.932
50140W        W13699   0.453  38.424  13.794
50141W        W13700  44.967  35.002  12.436
50142W        W13701  32.135  19.098   1.778
50143W        W13702  11.293  43.405   2.902
50144W        W13703  39.030  32.137  12.458
50145W        W13704  41.445  39.975  12.563
50146W        W13705  11.352  21.746   4.616
50147W        W13706  29.981  15.607  13.488
50148W        W13707   4.701  14.108   1.383
50149W        W13708  42.932  36.567  12.968
50150W        W13709  25.202  11.828  14.971
50151W        W13710  40.518  42.944   1.828
50152W        W13711  33.511  10.856   2.347
50153W        W13712  23.009  10.820  12.424
50154W        W13713  43.272  33.121   0.824
50155W        W13714  20.606  32.419   4.163
50156W        W13715  22.597   2.894  11.428
50157W        W13716   8.723  29.036  14.841
50158W        W13717  17.183  27.555   4.170
50159W        W13718   9.191  38.418   2.777
50160W        W13719   7.385  31.557  11.581
50161W        W13720  23.654  37.082   1.822
50162W        W13721  35.568  33.392  13.533
50163W        W13722  36.980  18.676   1.368
50164W        W13723  44.376   9.808   4.226
50165W        W13724  37.896   0.782   0.316
50166W        W13725   0.773  18.773   5.253
50167W        W13726   5.913  10.690   3.861
50168W        W13727  22.621   2.286   3.380
50169W        W13728  28.936  32.572  14.856
50170W        W13729  33.509   9.648  11.545
50171W        W13730   7.406  12.228  11.500
50172W        W13731   2.230  30.162  13.937
50173W        W13732   3.442  33.122   0.437
50174W        W13733  35.091   1.294  12.941
50175W        W13734  21.588   7.815  10.469
50176W        W13735  14.654   9.735   1.395
50177W        W13736  11.300  38.901   4.331
50178W        W13737   6.896  10.231  13.490
50179W        W13738  10.839  14.610   5.275
50180W        W13739  32.895  12.124   2.690
50181W        W13740  29.479   3.921  13.914
50182W        W13741   1.762   5.275  12.352
50183W        W13742  12.828   9.747   4.607
50184W        W13743  16.098  15.276   1.919
50185W        W13744  28.650  29.486   0.248
50186W        W13745  44.294  39.860  10.933
50187W        W13746  39.386   5.228  11.529
50188W        W13747  22.548  11.237   4.254
50189W        W13748  38.382  40.885   1.875
50190W        W13749  35.417  34.019  11.389
50191W        W13750  18.593  11.739  14.814
50192W        W13751  14.290   3.850  13.975
50193W        W13752  31.474  11.757   1.832
50194W        W13753  35.868   1.248   4.348
50195W        W13754  39.495  31.063   2.280
50196W        W13755  38.413  32.505  11.572
50197W        W13756  22.583   0.366   3.273
50198W        W13757   8.308  28.471   4.699
50199W        W13758  20.257  34.432  10.439
50200W        W13759   8.689  35.025   0.939
50201W        W13760  12.322  27.594   1.439
50202W        W13761   4.364  19.694   1.301
50203W        W13762   7.281  38.495   0.412
50204W        W13763  41.305  37.408   3.280
50205W        W13764  11.133   3.424  10.513
50206W        W13765  25.030  29.509   4.652
50207W        W13766  34.098  30.941   4.311
50208W        W13767   9.286  10.673   4.765
50209W        W13768  25.187  30.160  11.495
50210W        W13769  37.836  29.071  12.968
50211W        W13770  43.771  29.987   1.247
50212W        W13771   9.386  37.371   3.194
50213W        W13772   8.293   7.284  13.827
50214W        W13773  40.355  15.785   3.181
50215W        W13774  23.679  20.662   4.624
50216W        W13775   4.914  24.725   1.763
50217W        W13776  36.966  43.360   3.146
50218W        W13777   7.263  15.123  13.817
50219W        W13778   6.373  40.492  10.962
50220W        W13779  44.795  34.104   3.849
50221W        W13780  32.604  32.399   1.790
50222W        W13781  18.651  28.177   1.730
50223W        W13782  17.575   0.357  10.939
50224W        W13783  39.419  31.077   2.734
50225W        W13784  15.788  29.506   4.159
50226W        W13785  33.417  34.950   3.757
50227W        W13786  19.539   9.767   0.871
50228W        W13787  11.662   7.175  13.415
50229W        W13788   0.974  21.020  10.147
50230W        W13789  29.096  24.021  13.893
50231W        W13790  21.133   4.781   4.338
50232W        W13791   6.867  19.230   4.689
50233W        W13792  44.267  25.492   3.186
50234W        W13793  41.452  33.997  14.314
50235W        W13794  33.513   0.793  13.915
50236W        W13795   4.755  23.155   4.173
50237W        W13796  43.834  37.849  14.318
50238W        W13797  43.492  18.636  13.832
50239W        W13798  21.664   5.338   4.283
50240W        W13799  19.597  33.879   4.268
50241W        W13800  35.979  13.193  11.108
50242W        W13801  37.524  41.465  10.077
50243W        W13802  18.204  13.660  10.551
50244W        W13803  12.185  17.260  12.385
50245W        W13804  32.964  20.544   2.337
50246W        W13805  34.885  28.544  14.802
50247W        W13806  35.401   1.933   2.871
50248W        W13807  23.089  28.545   5.255
50249W        W13808  42.012   5.387   4.250
50250W        W13809  21.096  14.115   2.284
50251W        W13810  41.361  32.100  10.574
50252W        W13811  28.569  36.402  14.851
50253W        W13812   0.409  34.420  13.801
50254W        W13813  33.075  42.804  14.821
50255W        W13814  23.604  36.031  14.375
50256W        W13815  40.873  42.009  14.024
50257W        W13816  32.895   4.921   2.398
50258W        W13817  25.510  21.074   1.448
50259W        W13818  38.032   7.209   1.918
50260W        W13819  27.589  38.473   3.842
50261W        W13820   4.838  17.595  12.557
50262W        W13821   2.866  37.518  12.866
50263W        W13822  18.627  16.616  10.636
50264W        W13823  23.539  11.666   1.212
50265W        W13824  44.868  26.995  12.056
50266W        W13825  18.145  12.778  13.442
50267W        W13826   2.832  35.920  11.914
50268W        W13827   6.284  40.443   4.337
50269W        W13828  22.745  31.493   0.810
50270W        W13829  40.514  43.978  13.411
50271W        W13830  37.562  12.269   1.864
50272W        W13831  27.532  20.622  13.444
50273W        W13832  30.054  39.037  13.798
50274W        W13833  34.468  33.552   3.281
50275W        W13834   1.926  11.130   3.784
50276W        W13835  33.498   4.767   3.350
50277W        W13836  18.133  33.552  11.605
50278W        W13837  41.489  38.037   2.792
50279W        W13838  44.856  37.028  10.981
50280W        W13839   7.294   2.729  14.405
50281W        W13840  38.884  24.659   2.715
50282W        W13841  18.060  16.169   0.889
50283W        W13842   6.394   3.405  12.012
50284W        W13843   7.866   0.947   3.376
50285W        W13844  15.749  31.437  13.485
50286W        W13845  21.583  21.038  13.470
50287W        W13846  27.596  40.923   3.318
50288W        W13847  31.530  28.660   1.781
50289W        W13848  32.591  41.013  10.069
50290W        W13849  22.226  15.129  13.979
50291W        W13850  33.087  10.257  12.403
50292W        W13851   6.915  32.963   1.219
50293W        W13852  23.517  15.600   4.300
50294W        W13853   4.736   1.281  14.414
50295W        W13854  29.929   7.756   2.347
50296W        W13855  18.636   1.767  10.529
50297W        W13856  18.583  33.465   5.272
50298W        W13857  25.023  39.839   0.813
50299W        W13858  34.428  42.492  13.432
50300W        W13859  19.565  34.551   3.829
50301W        W13860  38.503  16.272  12.967
50302W        W13861  25.570   6.839  14.309
50303W        W13862  24.197  23.616  14.927
50304W        W13863   0.776   3.278  13.947
50305W        W13864  10.782   2.852   0.883
50306W        W13865   5.326  35.858  13.821
50307W        W13866  44.369   2.939   4.809
50308W        W13867  37.421  31.627  12.345
50309W        W13868   1.925   8.168  11.446
50310W        W13869  17.200   9.729   0.266
50311W        W13870  13.184  37.993   0.348
50312W        W13871   8.213  11.184  11.095
50313W        W13872  19.775   1.857   4.837
50314W        W13873  32.499  25.105   2.247
50315W        W13874  40.363   8.879   1.241
50316W        W13875  14.594  12.743  11.879
50317W        W13876  37.064   4.863   3.813
50318W        W13877  17.714  23.728  12.077
50319W        W13878  37.372  17.256   3.772
50320W        W13879  23.987   4.290  14.848
50321W        W13880  14.184  13.831  10.483
50322W        W13881  30.493  32.060  12.532
50323W        W13882  15.102  36.409  12.882
50324W        W13883  38.427  34.911  14.844
50325W        W13884   3.805  26.626  10.905
50326W        W13885  11.789   2.927   2.836
50327W        W13886   8.738  32.565   1.907
50328W        W13887  10.285   1.816   0.451
50329W        W13888  16.749  18.610  14.998
50330W        W13889  35.509  26.952   2.236
50331W        W13890  13.615   8.210  14.976
50332W        W13891   9.157  32.078   0.794
50333W        W13892  28.965  32.132   0.459
50334W        W13893  20.710  16.251  14.368
50335W        W13894  22.641  34.440   3.383
50336W        W13895  34.089  27.151   2.819
50337W        W13896  33.879  42.348  12.383
50338W        W13897  22.203   3.378  11.607
50339W        W13898  27.182  23.035   0.733
50340W        W13899   0.489  10.783   2.726
50341W        W13900  25.536  39.463  14.859
50342W        W13901  31.031  30.459   3.633
50343W        W13902  39.367  22.608   4.243
50344W        W13903  24.133  23.497  10.432
50345W        W13904   2.315  37.881   0.816
50346W        W13905  21.736  18.067   3.206
50347W        W13906  19.680  43.827   2.361
50348W        W13907  29.169  14.673  10.908
50349W        W13908   1.879  33.089  12.509
50350W        W13909   7.859  28.578  12.923
50351W        W13910  27.568  14.635   1.288
50352W        W13911  36.867  32.522   0.329
50353W        W13912  44.472  20.747  11.994
50354W        W13913   4.887  14.125   2.294
50355W        W13914   2.873  33.455   3.367
50356W        W13915  18.097  16.223  11.918
50357W        W13916  35.438  32.930   1.281
50358W        W13917  12.856  31.930   3.322
50359W        W13918  37.897   3.928  12.090
50360W        W13919  22.252  40.377  10.575
50361W        W13920   9.233   1.844   0.347
50362W        W13921  31.406  37.393   2.389
50363W        W13922  10.795  40.541  11.587
50364W        W13923  19.274  35.982   4.304
50365W        W13924  33.946  36.002  13.903
50366W        W13925  27.475  27.638  14.001
50367W        W13926  11.209   6.734   1.911
50368W        W13927  33.451  22.101   0.824
50369W        W13928  21.048   1.411  10.442
50370W        W13929  36.091  33.980  14.320
50371W        W13930  44.291  28.187   1.329
50372W        W13931  14.336  29.008  14.377
50373W        W13932  16.264  29.991   0.320
50374W        W13933  23.514  39.871  13.487
50375W        W13934  13.654  20.758   4.666
50376W        W13935  34.102  17.159  10.584
50377W        W13936  17.722  39.004  11.517
50378W        W13937  40.845  41.850  14.395
50379W        W13938  19.774  16.187  14.899
50380W        W13939  39.864  13.311  12.444
50381W        W13940  14.301  39.897  12.054
50382W        W13941  34.510  34.910   2.725
50383W        W13942  31.025   0.930   2.796
50384W        W13943  15.266  28.112   3.796
50385W        W13944  23.215  23.527  12.889
50386W        W13945  16.567  19.653   1.896
50387W        W13946   0.424  27.062   1.710
50388W        W13947  37.521  44.347   2.666
50389W        W13948  28.620  21.140   4.114
50390W        W13949  10.665  30.421  11.055
50391W        W13950  18.200   4.236   0.860
50392W        W13951  25.688  15.779  10.507
50393W        W13952  44.502  40.909   3.296
50394W        W13953  41.915  36.094  10.065
50395W        W13954  23.058   9.183   3.349
50396W        W13955  30.433  42.352  11.386
50397W        W13956  29.947  18.737   4.799
50398W        W13957   0.797   3.444   4.688
50399W        W13958  42.526  18.058   0.849
50400W        W13959  31.520  15.305   1.868
50401W        W13960  44.934  31.078  11.960
50402W        W13961   9.749  40.488  10.427
50403W        W13962   0.779  43.275  11.120
50404W        W13963   9.773  29.492   1.890
50405W        W13964   7.364   7.311  12.499
50406W        W13965  10.843  40.803  12.476
50407W        W13966  18.648  26.115   3.722
50408W        W13967  16.793  31.065   4.793
50409W        W13968  27.118  19.071  10.616
50410W        W13969  39.922  34.586   4.805
50411W        W13970  44.814   8.311  10.959
50412W        W13971   2.420  22.177  12.041
50413W        W13972  40.845  36.886   1.281
50414W        W13973  35.452  41.485   0.274
50415W        W13974   2.324  11.837  13.332
50416W        W13975  26.202   5.403  10.604
50417W        W13976  33.528  44.933  11.484
50418W        W13977  36.544  22.576   4.172
50419W        W13978  33.457  29.919  13.969
50420W        W13979   6.710  41.487   3.341
50421W        W13980  13.763  27.031   1.876
50422W        W13981  10.704  29.042   1.744
50423W        W13982  34.545   8.403   3.744
50424W        W13983  28.595  13.675  12.443
50425W        W13984  19.161   1.398  13.464
50426W        W13985  11.818  43.945   2.193
50427W        W13986  11.329  17.681  11.463
50428W        W13987  12.338  43.503  10.958
50429W        W13988  32.470  42.415   0.252
50430W        W13989  13.167   2.737   2.389
50431W        W13990   8.818  23.675   3.778
50432W        W13991   9.858  26.581   0.842
50433W        W13992  34.061  22.743  12.863
50434W        W13993  13.759  30.536   2.706
50435W        W13994  42.998   3.419   0.387
50436W        W13995  33.942  13.207  13.503
50437W        W13996  12.284  29.462   3.289
50438W        W13997  14.638  18.639  10.444
50439W        W13998   0.329  23.025  12.487
50440W        W13999   3.320  43.454  11.982
50441W        W14000   2.255  12.180   2.312
50442W        W14001  21.181  41.823   3.296
50443W        W14002  23.097  28.017   4.319
50444W        W14003   6.415  29.436  10.049
50445W        W14004   6.361   9.656  14.894
50446W        W14005  29.501  19.541  13.349
50447W        W14006  30.110  26.114  12.959
50448W        W14007  11.298   4.770  11.402
50449W        W14008  40.471  13.145  14.301
50450W        W14009   8.768   6.228   1.303
50451W        W14010  18.288  27.622   1.881
50452W        W14011  21.218  14.228   0.933
50453W        W14012  39.435   8.376   1.310
50454W        W14013  10.818  39.320   2.405
50455W        W14014   4.338  13.268   0.845
50456W        W14015   1.466  12.744  14.985
50457W        W14016  22.725  22.013  13.052
50458W        W14017  41.986  22.122  12.824
50459W        W14018  27.019  36.019  14.870
50460W        W14019  33.624  11.827  12.573
50461W        W14020  34.116   1.459  13.404
50462W        W14021   4.253  41.928  11.964
50463W        W14022  11.725  23.582   2.228
50464W        W14023  36.539  11.705  14.799
50465W        W14024   5.768   7.828   2.377
50466W        W14025  16.087  34.930   1.805
50467W        W14026  19.655   0.798   3.700
50468W        W14027  34.568  22.698   1.396
50469W        W14028  30.617  21.250  14.897
50470W        W14029  17.664   4.884  12.973
50471W        W14030  18.737  33.021  13.354
50472W        W14031  23.010   0.928  12.921
50473W        W14032  34.059  33.131   2.244
50474W        W14033   3.399   6.707   1.817
50475W        W14034  38.951  17.689  14.333
50476W        W14035   6.272  18.561  11.937
50477W        W14036  34.588  24.501   3.217
50478W        W14037  35.086  24.688  12.966
50479W        W14038   2.921  42.457  14.921
50480W        W14039  25.977  25.613  14.300
50481W        W14040  35.512   5.858   4.260
50482W        W14041   5.705   7.211   0.823
50483W        W14042  21.019  13.224  14.824
50484W        W14043  16.732  29.545   2.283
50485W        W14044  36.403   8.897  14.484
50486W        W14045  34.077  34.486   2.409
50487W        W14046  21.258  26.602  10.408
50488W        W14047  40.031  29.970   0.396
50489W        W14048   0.466   8.401  13.444
50490W        W14049  40.328  42.911  14.832
50491W        W14050  21.124  42.315   4.668
50492W        W14051  44.840  26.531   1.405
50493W        W14052  28.656  44.456  12.942
50494W        W14053   1.900  26.197   1.220
50495W        W14054  10.175  38.452   1.340
50496W        W14055  44.890  15.804  11.961
50497W        W14056  33.949  30.524  12.925
50498W        W14057  22.125  23.072   2.282
50499W        W14058  16.568  16.263   3.664
50500W        W14059  32.964   8.706   3.331
50501W        W14060  18.719  35.940  13.536
50502W        W14061   3.426  43.504   3.236
50503W        W14062  40.530  27.580   0.854
50504W        W14063  10.825   9.216   2.696
50505W        W14064  38.464  30.567   4.825
50506W        W14065   0.889  30.502   4.325
50507W        W14066  21.697  23.658   4.696
50508W        W14067  40.798  35.590  14.390
50509W        W14068  12.785  37.001   2.238
50510W        W14069  31.918  30.981  11.976
50511W        W14070  27.097  41.487  10.547
50512W        W14071  41.340  25.583  12.356
50513W        W14072   3.223  25.523   1.309
50514W        W14073   8.178  13.843  11.112
50515W        W14074  33.048  17.287  13.545
50516W        W14075   3.893  28.076   3.864
50517W        W14076   5.225  31.600   4.638
50518W        W14077  15.244  37.550  11.436
50519W        W14078  40.853   4.771   3.679
50520W        W14079  44.760  25.180   0.253
50521W        W14080  41.015  21.104   1.230
50522W        W14081  19.585  27.505   3.236
50523W        W14082  23.490  42.902   2.223
50524W        W14083  43.010  20.592  12.866
50525W        W14084  30.458  32.991   2.324
50526W        W14085  19.653  40.421  12.379
50527W        W14086  40.840  20.704   4.697
50528W        W14087   6.233  18.280   0.758
50529W        W14088   5.857  41.800  13.456
50530W        W14089  19.612  24.117   0.276
50531W        W14090   5.835  24.200  11.420
50532W        W14091  24.613  28.183  11.106
50533W        W14092  15.648   3.254  14.312
50534W        W14093  42.286   0.956  12.087
50535W        W14094  18.678   7.853  11.471
50536W        W14095  13.628  29.603   3.287
50537W        W14096   1.286   9.868   1.713
50538W        W14097  19.207  31.935   1.278
50539W        W14098  28.512  21.172  10.522
50540W        W14099  10.791  17.149   2.713
50541W        W14100  11.351  11.237  12.937
50542W        W14101   1.350  10.813  11.864
50543W        W14102  18.642   0.813   2.680
50544W        W14103   1.909   3.744  14.792
50545W        W14104  23.517   8.776   3.352
50546W        W14105   8.381  18.095  13.352
50547W        W14106   6.746   8.738  10.490
50548W        W14107   6.390   9.237   1.762
50549W        W14108  14.696  37.356   1.888
50550W        W14109  29.919  42.523  14.854
50551W        W14110  19.043  32.477  13.957
50552W        W14111  43.924  41.328   2.713
50553W        W14112  11.178  32.995  11.452
50554W        W14113   9.721  43.301   1.821
50555W        W14114  24.598  12.727  14.981
50556W        W14115   1.845   1.870   1.893
50557W        W14116  19.128  25.132   0.281
50558W        W14117  41.409  10.299   2.226
50559W        W14118  37.355  31.123   1.728
50560W        W14119  30.982  11.312  12.919
50561W        W14120  41.393  23.607  10.517
50562W        W14121   0.980  13.303  11.086
50563W        W14122  11.363  23.009   0.418
50564W        W14123  20.587  36.442   1.762
50565W        W14124  37.923  44.393  12.447
50566W        W14125  31.989  23.123  14.430
50567W        W14126  22.674  44.830  12.836
50568W        W14127   6.895  35.024   1.411
50569W        W14128  40.035  33.395  10.578
50570W        W14129  16.773  34.995  12.894
50571W        W14130  11.686  18.194   9.937
50572W        W14131  34.975  26.680  12.372
50573W        W14132   9.199   3.294  13.883
50574W        W14133  17.642   8.237   1.238
50575W        W14134  34.953  41.010  14.427
50576W        W14135   0.368   5.202  13.316
50577W        W14136  28.584  26.613  11.076
50578W        W14137  38.969  41.380   1.741
50579W        W14138  39.496  35.530  11.904
50580W        W14139  40.491   7.834  14.379
50581W        W14140  23.524  21.140   0.360
50582W        W14141  11.217  44.999  13.980
50583W        W14142  27.682  12.159   1.308
50584W        W14143   1.250  37.839   0.445
50585W        W14144  15.807  33.933   2.193
50586W        W14145   7.842  11.197  13.013
50587W        W14146   9.174  33.100  10.475
50588W        W14147   9.876  13.688   1.919
50589W        W14148   6.742  32.103   2.860
50590W        W14149   4.315  38.896   3.317
50591W        W14150  33.567  21.626   0.249
50592W        W14151  26.191  32.935  11.424
50593W        W14152  26.050   4.871   2.344
50594W        W14153  12.646  27.952   3.788
50595W        W14154  36.485  31.507  12.896
50596W        W14155  28.036  18.689  12.855
50597W        W14156  10.843  33.499   3.674
50598W        W14157   8.884   8.657  10.985
50599W        W14158  23.052  41.914   1.790
50600W        W14159   3.266   7.332  11.914
50601W        W14160  38.570  22.684  12.489
50602W        W14161  22.611  36.553   1.721
50603W        W14162  38.350  39.367   4.742
50604W        W14163  38.462  18.222  11.458
50605W        W14164  36.516   5.316   1.716
50606W        W14165   5.232  29.501   0.380
50607W        W14166  28.146  41.976  13.873
50608W        W14167  14.299  36.430   3.338
50609W        W14168   3.310   6.840   4.742
50610W        W14169  16.298   3.898   4.336
50611W        W14170  40.875  23.680   1.834
50612W        W14171  13.309  14.634  13.044
50613W        W14172  23.679   9.740  11.075
50614W        W14173  10.368  13.147  12.989
50615W        W14174  41.310  28.061   0.437
50616W        W14175  25.978  30.030  10.428
50617W        W14176  28.059  19.768  11.867
50618W        W14177   5.837  23.989   3.211
50619W        W14178  18.706   2.811   1.924
50620W        W14179  39.496  38.490  12.037
50621W        W14180  34.562   0.258   4.351
50622W        W14181  24.536   0.445   4.712
50623W        W14182  13.699  23.060  11.496
50624W        W14183  32.136  15.328   4.614
50625W        W14184   5.849  43.379   4.723
50626W        W14185  17.629  11.651   1.401
50627W        W14186  44.479  20.088   2.777
50628W        W14187  38.905  32.992   0.890
50629W        W14188  16.225  40.537   4.614
50630W        W14189  32.039  37.412   1.213
50631W        W14190  41.533  37.417   4.700
50632W        W14191   6.721  20.141   4.287
50633W        W14192  30.955   8.780  13.489
50634W        W14193  34.941  43.958  12.570
50635W        W14194  26.030  22.568   0.295
50636W        W14195   0.981  40.419   5.318
50637W        W14196  27.079   2.854   3.649
50638W        W14197  34.958  30.063   1.826
50639W        W14198   7.259  24.166  12.019
50640W        W14199   9.766  11.319   2.788
50641W        W14200  36.075   7.384  11.088
50642W        W14201  38.911   8.712  11.947
50643W        W14202  29.507   0.392   1.318
50644W        W14203  17.661  42.862   3.350
50645W        W14204  30.612  24.648   1.711
50646W        W14205  28.531   7.771   2.353
50647W        W14206  44.993  11.844  13.335
50648W        W14207  13.293   7.358  12.037
50649W        W14208  17.628  30.565   0.857
50650W        W14209   9.836   7.320   2.283
50651W        W14210   2.344  37.007   2.353
50652W        W14211  25.129  37.479  13.976
50653W        W14212  43.340  10.776  13.400
50654W        W14213  36.397  17.782  10.494
50655W        W14214   9.274  10.274   1.811
50656W        W14215   6.732  26.531  13.523
50657W        W14216  24.011  12.303   0.769
50658W        W14217  40.431  33.946   1.892
50659W        W14218  10.658   8.379   1.317
50660W        W14219  40.028  11.809  12.389
50661W        W14220  19.182  13.811   3.375
50662W        W14221   2.852  18.576   0.740
50663W        W14222  35.082  13.641  12.057
50664W        W14223   0.468   4.213   0.311
50665W        W14224  19.748  15.175  13.421
50666W        W14225   0.918   7.173  14.396
50667W        W14226  27.105  10.332   1.380
50668W        W14227  37.525   5.801   3.777
50669W        W14228  20.193  26.508  14.391
50670W        W14229  24.603   1.887  10.563
50671W        W14230   4.899  41.801  12.059
50672W        W14231  21.098  17.710  14.443
50673W        W14232  43.965  12.225   2.835
50674W        W14233  16.174  25.039   1.366
50675W        W14234   2.818  13.607  13.850
50676W        W14235  26.646   6.239   0.801
50677W        W14236  22.226  23.505   3.759
50678W        W14237  42.505  32.451  10.608
50679W        W14238  25.179  23.216  14.967
50680W        W14239   9.785  31.022  14.959
50681W        W14240  37.985  22.231  14.412
50682W        W14241  34.864  21.103   1.839
50683W        W14242  43.388  17.220   3.334
50684W        W14243  16.644  37.578  13.483
50685W        W14244  27.547  24.156   0.357
50686W        W14245   6.375  40.326  10.432
50687W        W14246  36.457  44.338  13.802
50688W        W14247  39.976  10.768  12.994
50689W        W14248  33.384  40.505  10.037
50690W        W14249  24.535  18.618   2.778
50691W        W14250   9.314  44.948   2.274
50692W        W14251   2.274  12.129   0.928
50693W        W14252  23.049  42.028   0.347
50694W        W14253  22.687  28.623   9.971
50695W        W14254  38.916  19.079  12.955
50696W        W14255   8.250  24.191  12.470
50697W        W14256  35.567  31.421   4.350
50698W        W14257  35.520  22.554   4.742
50699W        W14258   3.735  22.201  14.505
50700W        W14259  12.310  18.581  10.467
50701W        W14260  41.908  23.142  13.462
50702W        W14261  16.645  42.006  10.996
50703W        W14262   3.746  44.005  10.528
50704W        W14263   2.433  38.550   2.381
50705W        W14264  35.080  26.659   0.836
50706W        W14265  16.726  43.286   2.767
50707W        W14266  10.383   3.415  13.335
50708W        W14267  28.152  11.686   0.463
50709W        W14268  18.742  27.156   4.282
50710W        W14269  27.490  38.968  11.421
50711W        W14270  37.348  34.417   5.106
50712W        W14271   6.303  39.904  11.574
50713W        W14272  21.208  37.889  12.006
50714W        W14273   3.370  38.404   0.920
50715W        W14274   5.712   5.821   4.749
50716W        W14275  43.459  26.604  14.457
50717W        W14276  11.149   3.418   4.831
50718W        W14277   2.885  32.947  13.851
50719W        W14278  38.859  25.618  14.897
50720W        W14279  14.639  15.605  10.959
50721W        W14280  10.766  32.564   5.720
50722W        W14281  20.054   7.372   2.853
50723W        W14282  29.504   6.836   0.248
50724W        W14283  33.025  25.207   2.718
50725W        W14284  23.622  44.502  14.867
50726W        W14285  33.541  23.530  13.833
50727W        W14286  34.384  40.009  14.308
50728W        W14287   8.266  21.730  12.013
50729W        W14288  18.286  41.906   1.861
50730W        W14289  30.558  25.045  12.953
50731W        W14290  13.152  13.748  13.373
50732W        W14291  41.985   7.790   5.212
50733W        W14292  34.894  23.119  11.115
50734W        W14293   3.848  30.938   2.319
50735W        W14294  35.070  11.160  12.425
50736W        W14295   5.759  14.339   3.763
50737W        W14296  27.584  10.819   3.797
50738W        W14297  11.682   4.816   3.812
50739W        W14298  14.241  24.672   0.935
50740W        W14299  42.418  14.779  11.599
50741W        W14300  15.583  39.985  10.405
50742W        W14301  24.542  31.089  13.467
50743W        W14302  43.357   0.821   0.480
50744W        W14303   7.284   5.404   4.656
50745W        W14304   3.846  39.932  14.381
50746W        W14305  24.661  44.776  11.546
50747W        W14306  37.405  17.794   0.832
50748W        W14307  41.836  16.801   1.900
50749W        W14308  11.139  14.613   2.362
50750W        W14309  24.134  13.168   2.822
50751W        W14310  37.427  23.182  14.835
50752W        W14311  29.076  23.712   0.378
50753W        W14312   8.811  23.091   2.705
50754W        W14313  19.720  12.667   2.810
50755W        W14314  38.055  21.022  12.064
50756W        W14315   2.330  12.818  14.903
50757W        W14316  11.693  42.290  10.979
50758W        W14317   7.407  20.655   4.817
50759W        W14318  12.680  41.027  10.562
50760W        W14319  43.475  23.994   4.614
50761W        W14320  10.851  34.081   0.340
50762W        W14321  17.754  21.701  11.568
50763W        W14322   1.742  40.823  10.485
50764W        W14323  38.941  33.042  11.106
50765W        W14324  15.791   4.723   1.875
50766W        W14325   6.783  15.283  13.991
50767W        W14326  42.490  26.695  12.933
50768W        W14327  12.235  28.098  10.466
50769W        W14328  43.434  31.583   4.712
50770W        W14329  29.445   8.692   2.400
50771W        W14330  41.882  24.718   4.613
50772W        W14331   9.359  44.461  12.441
50773W        W14332   3.867  34.924  14.759
50774W        W14333  29.432  22.738   2.762
50775W        W14334  16.214  15.266  11.062
50776W        W14335  25.115   9.165  11.029
50777W        W14336   4.427   6.909   1.885
50778W        W14337   4.882  34.033   4.345
50779W        W14338   8.284  35.531  11.932
50780W        W14339  35.971  40.370   4.147
50781W        W14340  10.722  32.050  11.964
50782W        W14341  18.652   7.411   1.763
50783W        W14342  18.053  40.052   0.779
50784W        W14343   5.336  16.622   1.753
50785W        W14344  37.419  22.075   1.379
50786W        W14345  11.761  35.593  13.924
50787W        W14346  22.662  30.529  13.043
50788W        W14347  43.373   3.730  12.440
50789W        W14348  40.410  24.091   0.289
50790W        W14349  30.520   9.855   4.769
50791W        W14350  11.240  43.416  13.839
50792W        W14351  25.174  43.887   3.754
50793W        W14352   1.251  23.635  11.946
50794W        W14353  31.039  43.915   1.406
50795W        W14354  41.796   1.978  12.442
50796W        W14355  16.141  43.315  11.000
50797W        W14356  11.304  19.216  14.921
50798W        W14357  30.927  24.706  14.904
50799W        W14358  17.080  19.122  11.433
50800W        W14359  24.713  43.500   2.329
50801W        W14360  12.200  37.425  11.477
50802W        W14361  23.675  11.214   0.307
50803W        W14362  28.164  29.132  12.877
50804W        W14363  41.021  19.641   3.854
50805W        W14364  30.161  36.413  11.409
50806W        W14365  13.625  30.956  14.825
50807W        W14366  15.109   4.208  13.050
50808W        W14367  44.800  22.694  10.118
50809W        W14368  27.585  15.307  11.567
50810W        W14369   5.278  44.485  13.064
50811W        W14370  22.629   2.362  12.926
50812W        W14371   4.875  21.235  13.899
50813W        W14372  36.457  19.536   1.379
50814W        W14373   3.828  29.524   1.875
50815W        W14374   0.318  36.503  10.427
50816W        W14375  11.728  16.296   0.286
50817W        W14376  27.130   2.357   2.697
50818W        W14377  30.156  28.450   2.758
50819W        W14378   9.290  14.817  13.811
50820W        W14379   7.692  21.568   2.662
50821W        W14380  12.670  31.435  11.987
50822W        W14381  38.552  14.786   4.293
50823W        W14382  19.206  26.503   0.942
50824W        W14383  23.127  11.829   2.777
50825W        W14384   8.200  10.696   2.771
50826W        W14385  21.624   4.257   2.830
50827W        W14386   4.889  14.796  14.953
50828W        W14387   7.377   8.681   1.918
50829W        W14388  14.126  10.153   0.444
50830W        W14389  32.628  10.184  14.492
50831W        W14390  18.769  21.176  14.442
50832W        W14391  39.836  30.415   3.299
50833W        W14392  11.259  25.651   3.722
50834W        W14393  10.836   6.823   4.221
50835W        W14394  17.266  33.387  13.328
50836W        W14395  42.460  17.734  10.476
50837W        W14396  42.285   8.669   3.300
50838W        W14397  24.101  26.183   1.386
50839W        W14398  35.457  29.075   4.178
50840W        W14399   2.348  32.604   0.435
50841W        W14400   9.673  27.995   4.240
50842W        W14401   8.321  20.582  11.113
50843W        W14402   3.926  11.337  11.078
50844W        W14403  16.173  38.356  13.353
50845W        W14404  36.472  19.217  10.432
50846W        W14405  12.831   7.669   2.351
50847W        W14406  13.231  43.304  13.368
50848W        W14407   0.784   7.311   1.764
50849W        W14408  38.351  34.919  13.795
50850W        W14409  12.636  39.886   3.357
50851W        W14410  25.510  12.319  12.493
50852W        W14411   7.878  35.009   1.925
50853W        W14412  31.522   1.840  13.376
50854W        W14413  30.926   6.820  11.373
50855W        W14414  26.073  23.126   3.789
50856W        W14415  33.561  15.813   9.980
50857W        W14416  40.833  12.170   0.893
50858W        W14417  13.703  20.225   2.418
50859W        W14418   2.448  15.085  10.585
50860W        W14419  22.011  39.808   1.399
50861W        W14420   3.754   9.797  13.894
50862W        W14421  27.151  35.958   0.313
50863W        W14422   2.471  19.128  13.845
50864W        W14423  20.559  31.618  14.840
50865W        W14424   8.323  43.362  13.316
50866W        W14425  22.036  38.831  14.306
50867W        W14426   3.339  13.667  12.519
50868W        W14427  25.572  41.805  13.532
50869W        W14428  10.713  32.540  10.058
50870W        W14429  38.517  30.052   5.191
50871W        W14430  24.134   7.687   4.805
50872W        W14431   6.290   0.312   2.878
50873W        W14432  26.120   4.896  14.387
50874W        W14433   0.249  10.232  14.978
50875W        W14434  41.854  20.663  11.098
50876W        W14435   4.237  14.146  14.416
50877W        W14436  42.781  25.493  12.038
50878W        W14437  20.768  30.040   1.784
50879W        W14438  40.324  39.371   2.262
50880W        W14439  28.028  15.656   3.822
50881W        W14440  10.704  25.113   4.179
50882W        W14441  39.926   4.840  10.913
50883W        W14442  30.022  31.136  12.481
50884W        W14443  23.115  14.302  14.375
50885W        W14444  15.787  40.519   2.222
50886W        W14445  34.589   3.807   3.745
50887W        W14446  32.487   0.288  13.342
50888W        W14447  13.282   4.886   0.911
50889W        W14448  26.997  32.407  12.569
50890W        W14449  21.211  38.438   1.346
50891W        W14450  13.309  26.551  12.850
50892W        W14451  31.122  44.269   0.881
50893W        W14452  40.436  12.326   0.897
50894W        W14453  30.501  21.180   3.814
50895W        W14454  13.213  25.531   0.426
50896W        W14455  29.431   9.153   0.332
50897W        W14456  23.635  30.090  14.769
50898W        W14457   0.340  28.970  13.364
50899W        W14458   3.807  28.091  14.281
50900W        W14459  23.063  23.020   1.834
50901W        W14460   0.321  34.046  12.905
50902W        W14461  42.854  29.977   2.719
50903W        W14462   5.762  31.074   0.847
50904W        W14463  14.773  20.732   5.171
50905W        W14464  23.684  16.202  10.979
50906W        W14465   3.263  32.599  10.592
50907W        W14466  12.689  27.019  11.554
50908W        W14467  40.883  13.783   3.827
50909W        W14468   8.740  23.646   1.925
50910W        W14469  29.129  16.132  13.862
50911W        W14470  29.995   2.812  14.359
50912W        W14471  17.182  17.166  10.604
50913W        W14472  30.498  32.954  12.548
50914W        W14473  10.775   3.908   1.724
50915W        W14474  27.195  28.949  12.525
50916W        W14475   9.304   0.257   2.747
50917W        W14476  27.013  13.822  13.405
50918W        W14477   4.833  25.172  14.359
50919W        W14478  40.509   5.784   2.316
50920W        W14479  24.519  24.506   9.471
50921W        W14480  42.336  13.661   2.845
50922W        W14481  10.648   9.171   3.658
50923W        W14482  13.669  38.529   2.227
50924W        W14483  34.044  27.557  14.944
50925W        W14484   4.289  33.466  13.852
50926W        W14485  13.272  38.420   0.877
50927W        W14486  19.268   8.888  11.963
50928W        W14487  11.170  42.909  14.828
50929W        W14488   7.680  40.028   3.813
50930W        W14489  10.829   6.798   2.306
50931W        W14490  40.430   3.956  12.078
50932W        W14491  15.765  40.826  14.473
50933W        W14492   2.949  27.593  13.438
50934W        W14493  31.128   9.777  13.908
50935W        W14494   3.313  39.402  14.285
50936W        W14495   8.281   7.770  12.391
50937W        W14496  40.031  32.103  12.424
50938W        W14497  17.679  33.443  11.557
50939W        W14498   3.321  36.346  13.330
50940W        W14499  28.059  23.154   0.318
50941W        W14500  17.616  29.167  13.400
50942W        W14501  16.152   4.777  12.465
50943W        W14502  11.730   0.381  14.497
50944W        W14503   2.309  33.460  13.314
50945W        W14504  41.888  15.706   9.991
50946W        W14505  15.822  44.769   4.278
50947W        W14506  11.135  15.606   2.406
50948W        W14507  12.169  24.056   9.468
50949W        W14508  29.138  10.350  12.420
50950W        W14509  30.548   3.832   2.723
50951W        W14510  18.126  35.511  13.942
50952W        W14511  24.697  17.603  11.025
50953W        W14512  38.031  23.085  11.558
50954W        W14513  33.036   4.229   0.793
50955W        W14514  17.698  43.414   0.382
50956W        W14515  40.878  11.774   0.915
50957W        W14516  24.694  32.440   0.786
50958W        W14517  13.612   4.869   2.295
50959W        W14518  26.012   4.904  10.578
50960W        W14519  30.479  30.129  11.989
50961W        W14520  21.619  33.968  13.003
50962W        W14521  13.753  22.574  14.794
50963W        W14522  24.677   9.354   0.483
50964W        W14523  40.371  23.178   3.255
50965W        W14524  20.574  26.965   5.802
50966W        W14525  30.483  11.202   1.346
50967W        W14526  10.138  26.531   1.439
50968W        W14527  44.827  17.152   0.739
50969W        W14528  40.430   8.715  13.361
50970W        W14529  43.451  33.929  13.335
50971W        W14530  16.317   9.309   3.181
50972W        W14531  33.567  31.642   1.807
50973W        W14532  41.036  41.372   2.248
50974W        W14533  23.113   8.800   0.813
50975W        W14534   1.412  19.169  11.984
50976W        W14535  42.946  22.668   4.834
50977W        W14536  23.175  19.688   3.655
50978W        W14537  10.874  13.222   3.259
50979W        W14538  17.780  13.599  13.531
50980W        W14539   3.728  18.085   5.114
50981W        W14540   0.277   0.795  10.451
50982W        W14541   5.932  34.022   4.612
50983W        W14542  11.158   2.876  11.947
50984W        W14543  14.321   5.333  10.476
50985W        W14544  10.357  11.795   4.647
50986W        W14545   0.846  39.811  11.561
50987W        W14546  11.820  44.973  14.340
50988W        W14547  39.345   6.831  14.023
50989W        W14548  11.144  12.305  12.454
50990W        W14549  40.989  19.590   5.232
50991W        W14550  19.126  23.660   4.160
50992W        W14551  12.299   3.413  12.487
50993W        W14552   6.187  29.491  13.976
50994W        W14553   9.813  14.208  12.886
50995W        W14554  29.574   7.799   2.376
50996W        W14555   2.375  13.786   1.830
50997W        W14556  21.636  41.300  11.080
50998W        W14557   4.826  22.603   4.343
50999W        W14558   2.279  13.134   0.920
51000W        W14559  14.621  35.575   4.280
51001W        W14560  20.747  27.647   0.294
51002W        W14561  27.594  19.131   4.643
51003W        W14562  40.526  10.372   2.698
51004W        W14563  39.503  26.658   3.658
51005W        W14564   8.258  26.101   1.302
51006W        W14565  33.579   4.422   4.264
51007W        W14566   5.368   8.381   1.287
51008W        W14567  26.544   9.754  12.498
51009W        W14568  25.068  17.227   2.791
51010W        W14569  43.501  18.603   2.248
51011W        W14570  37.896  43.440   2.781
51012W        W14571  27.083  22.184   2.264
51013W        W14572   9.289  31.497   0.955
51014W        W14573   9.774  42.364  13.843
51015W        W14574  43.311  37.552   0.423
51016W        W14575   5.434  12.778  12.861
51017W        W14576  26.122  18.274  12.974
51018W        W14577  44.374   6.861   2.678
51019W        W14578  32.558  18.136  13.041
51020W        W14579  26.664  33.495  12.457
51021W        W14580  11.753  30.512   4.215
51022W        W14581  34.903  38.030  10.985
51023W        W14582  11.703  35.978   2.665
51024W        W14583  38.907  19.580  11.064
51025W        W14584  39.530  29.620  12.978
51026W        W14585  29.569  12.159  14.364
51027W        W14586   0.934  23.191   0.755
51028W        W14587  43.975  10.297   2.184
51029W        W14588  35.464  40.800  10.605
51030W        W14589  11.312  33.916  13.514
51031W        W14590  12.270  33.007  13.528
51032W        W14591   2.875  14.137  14.774
51033W        W14592   4.350   3.853  10.584
51034W        W14593  29.147  30.991   2.269
51035W        W14594   7.252   6.385  12.065
51036W        W14595  29.557   4.308  14.953
51037W        W14596  37.458  41.897  12.823
51038W        W14597  11.706  18.575   3.235
51039W        W14598  39.455  31.615  10.538
51040W        W14599  27.547  32.422  14.494
51041W        W14600  42.353  34.421   2.663
51042W        W14601   8.707  12.299   0.913
51043W        W14602  25.555  23.215  12.413
51044W        W14603  22.686  34.473  13.354
51045W        W14604   9.195  36.376   3.209
51046W        W14605  41.440   3.359  12.851
51047W        W14606  38.471  43.803  11.456
51048W        W14607  43.903  36.986  11.102
51049W        W14608   3.452   8.814  14.289
51050W        W14609   2.938   2.868   4.128
51051W        W14610   4.777  25.212  11.466
51052W        W14611  16.222  32.411  13.860
51053W        W14612  23.018   4.800  12.513
51054W        W14613  44.847  29.089   0.291
51055W        W14614  39.535  26.664   5.312
51056W        W14615  24.567   7.822  11.122
51057W        W14616  22.730  24.719   4.675
51058W        W14617  44.835  30.509   0.835
51059W        W14618  30.941  39.396   3.692
51060W        W14619  11.646  35.583  14.827
51061W        W14620  21.208  28.100   4.645
51062W        W14621  36.994   2.842  11.551
51063W        W14622   2.390  42.354   1.837
51064W        W14623  14.655   2.820  14.793
51065W        W14624  12.612  21.532   3.156
51066W        W14625  12.243   4.825  12.971
51067W        W14626  25.178   3.336   2.817
51068W        W14627  22.622   1.838  14.824
51069W        W14628  11.264  15.192  14.912
51070W        W14629  40.990  39.984   1.794
51071W        W14630  19.046  18.558   4.253
51072W        W14631   7.405  40.009  12.523
51073W        W14632  44.999  24.204   4.254
51074W        W14633  40.537  17.666   4.184
51075W        W14634  20.594  40.811   3.238
51076W        W14635   5.276  11.129   2.289
51077W        W14636  40.393  32.954  14.920
51078W        W14637  41.884  40.924  12.991
51079W        W14638  11.167  38.495   3.313
51080W        W14639   8.405   5.766  10.614
51081W        W14640  16.801   4.732   0.318
51082W        W14641  27.128  19.236   1.843
51083W        W14642  27.183  24.522  13.931
51084W        W14643  43.820  14.305  14.496
51085W        W14644  31.423   8.882  13.543
51086W        W14645  10.789   3.406  13.358
51087W        W14646  14.679   9.783  13.944
51088W        W14647  13.770  25.177   2.329
51089W        W14648  24.483  39.842   3.197
51090W        W14649  41.422  16.155   1.926
51091W        W14650  25.212  12.154   5.244
51092W        W14651  15.597   2.965   0.406
51093W        W14652  36.446  17.271  13.509
51094W        W14653  21.599  12.748   3.226
51095W        W14654  35.979  13.604   4.712
51096W        W14655  18.670  39.058  12.528
51097W        W14656   6.387  30.567  13.320
51098W        W14657  38.559  17.272  13.849
51099W        W14658   9.755  32.889   0.264
51100W        W14659  33.417  18.211   1.778
51101W        W14660  22.522  36.456  14.321
51102W        W14661  21.151  16.292   2.853
51103W        W14662   9.698   0.823  12.053
51104W        W14663  37.835  20.064  11.994
51105W        W14664  10.872  16.087  12.840
51106W        W14665  31.115   1.761  11.857
51107W        W14666  20.653  26.577   4.196
51108W        W14667   1.282  31.648   0.911
51109W        W14668  32.132  35.964  12.086
51110W        W14669  12.288  13.630   3.696
51111W        W14670  13.261  27.163   2.850
51112W        W14671   1.346  32.014  11.519
51113W        W14672  14.763   3.223   3.813
51114W        W14673   7.293   6.841  14.972
51115W        W14674  21.716  16.750   3.152
51116W        W14675   4.247  30.935   4.738
51117W        W14676  36.491  33.902   2.283
51118W        W14677  21.079   0.853   4.753
51119W        W14678  28.112   5.918   0.805
51120W        W14679  24.550  10.259   1.400
51121W        W14680   7.192  34.547  13.870
51122W        W14681  11.332   7.859   9.929
51123W        W14682  14.299   1.390   3.275
51124W        W14683  26.484  31.502   4.654
51125W        W14684   4.884  42.512   4.158
51126W        W14685  37.421  37.945   0.906
51127W        W14686  14.832  29.073  14.945
51128W        W14687  31.904  38.930  13.864
51129W        W14688  28.013  24.094  14.356
51130W        W14689  23.040  36.077   1.397
51131W        W14690  34.492   5.692   2.757
51132W        W14691   3.302  44.401  11.469
51133W        W14692   9.272  19.201   0.309
51134W        W14693  12.340  26.118  13.925
51135W        W14694   1.347  24.067  12.982
51136W        W14695  29.979  30.432  14.996
51137W        W14696  38.484   8.305   3.688
51138W        W14697  41.853  26.026   2.690
51139W        W14698  16.291  28.092   1.378
51140W        W14699  34.452  30.546  10.440
51141W        W14700  38.820  29.516   3.759
51142W        W14701  15.320  42.340  12.919
51143W        W14702  33.584  38.843  11.073
51144W        W14703  41.315  31.481  11.082
51145W        W14704  22.051   6.203  14.500
51146W        W14705  20.529  16.687   1.825
51147W        W14706   4.326  37.426   1.243
51148W        W14707  15.263  36.071   2.305
51149W        W14708  16.306  12.186  13.836
51150W        W14709   2.460  41.401   3.216
51151W        W14710  13.690  16.157  14.945
51152W        W14711  24.597  38.379   1.756
51153W        W14712  28.548  26.098  13.428
51154W        W14713  28.484  13.683   3.259
51155W        W14714  19.042  34.074   3.839
51156W        W14715  28.140  21.744  12.571
51157W        W14716  39.919   4.379   0.727
51158W        W14717  16.113  24.058   4.736
51159W        W14718  32.578  40.418  11.943
51160W        W14719  22.515  16.589  10.409
51161W        W14720  11.730  30.634  10.119
51162W        W14721  33.077   5.828   1.296
51163W        W14722   9.810  30.639   0.433
51164W        W14723  14.821  43.507  12.339
51165W        W14724   5.386   4.447   2.812
51166W        W14725  12.262  25.151   0.793
51167W        W14726  25.213  13.162  13.020
51168W        W14727  40.005  14.656   1.900
51169W        W14728  39.485  22.664   2.886
51170W        W14729  36.981   5.314  11.372
51171W        W14730  41.325  27.089  13.318
51172W        W14731  25.072  29.451   4.173
51173W        W14732  15.151   6.758  12.079
51174W        W14733  43.333  18.238  11.017
51175W        W14734  35.953  27.480  14.916
51176W        W14735  12.699   9.226   2.866
51177W        W14736  28.030   9.349   1.792
51178W        W14737  32.462  33.382   2.189
51179W        W14738  44.821  40.309  13.511
51180W        W14739  40.955  11.816   0.456
51181W        W14740  20.717  40.380   0.383
51182W        W14741  41.806  14.679  10.892
51183W        W14742  25.471  39.983   4.722
51184W        W14743  39.469   2.808  13.821
51185W        W14744  16.300  22.512  10.894
51186W        W14745  28.656  20.545   4.203
51187W        W14746   2.869  42.386  13.512
51188W        W14747  13.243  11.726   4.687
51189W        W14748  14.125  17.729  10.503
51190W        W14749  22.673  32.887  11.860
51191W        W14750  11.182  25.494   3.321
51192W        W14751  36.409  16.652  11.394
51193W        W14752  14.139  44.331  11.567
51194W        W14753  11.673   8.655   1.298
51195W        W14754   5.799  21.031   4.178
51196W        W14755  26.480   0.762   3.360
51197W        W14756   2.931  31.033   0.368
51198W        W14757  24.118  23.721   5.091
51199W        W14758   5.348  39.965  10.537
51200W        W14759  27.663   6.920   2.898
51201W        W14760  37.015   1.880   4.784
51202W        W14761  28.981   9.218  10.494
51203W        W14762  31.568  21.578  12.066
51204W        W14763  14.811  33.390  11.393
51205W        W14764  16.273  11.158   3.672
51206W        W14765  27.556  37.518   2.694
51207W        W14766  12.197   5.787   4.695
51208W        W14767  15.146   7.249   1.801
51209W        W14768  44.441   5.811  13.042
51210W        W14769   0.900  11.224   2.178
51211W        W14770  29.656   5.874   3.646
51212W        W14771  25.998  22.140   0.313
51213W        W14772   6.851  29.667   2.692
51214W        W14773  16.779  31.644  12.375
51215W        W14774   1.316  43.446   3.871
51216W        W14775  37.547   6.213  14.874
51217W        W14776  41.900  16.109  12.903
51218W        W14777  33.119  32.558  13.993
51219W        W14778  40.327   8.795   1.858
51220W        W14779  30.436  42.919   0.245
51221W        W14780  38.488   8.670  12.379
51222W        W14781  32.503  44.274  13.969
51223W        W14782  27.061  26.656  11.877
51224W        W14783  22.745  32.548  11.436
51225W        W14784  36.891   7.824  10.424
51226W        W14785   8.863  26.686   5.157
51227W        W14786  36.400  29.927  12.356
51228W        W14787  20.243  17.604   3.869
51229W        W14788   7.194   0.780  14.453
51230W        W14789  15.251  16.212  12.828
51231W        W14790  40.430  11.737   3.677
51232W        W14791   6.210  27.085   0.465
51233W        W14792   0.970  24.069  13.483
51234W        W14793  20.070   2.350  10.446
51235W        W14794   8.337   0.328   1.711
51236W        W14795  30.106  12.319  12.009
51237W        W14796  12.345  12.268   5.203
51238W        W14797  33.983   8.179  10.116
51239W        W14798  12.832  44.788  12.021
51240W        W14799  23.111  11.622  14.477
51241W        W14800  37.350  34.865   2.683
51242W        W14801   1.342  18.215   4.234
51243W        W14802  24.205  42.909  13.907
51244W        W14803  22.060   4.283   3.754
51245W        W14804  25.475   6.860   2.180
51246W        W14805   1.272  41.997  13.366
51247W        W14806  29.087  30.596   0.819
51248W        W14807  17.249  12.836  10.552
51249W        W14808  14.279  16.688   3.330
51250W        W14809  10.816  20.738   0.386
51251W        W14810  24.001  22.124   0.778
51252W        W14811  40.315   1.426  11.056
51253W        W14812  36.088  20.269  10.430
51254W        W14813  10.716  32.534  13.796
51255W        W14814  15.679  12.745  11.891
51256W        W14815  24.019  39.884  12.842
51257W        W14816   5.845   3.893  11.608
51258W        W14817  17.267  41.477  12.379
51259W        W14818   1.475  24.177  11.933
51260W        W14819  11.245   5.783   4.641
51261W        W14820  28.592  33.946  12.035
51262W        W14821  13.220  34.031   9.986
51263W        W14822   9.849  38.467  12.925
51264W        W14823   0.312  14.754   0.812
51265W        W14824  35.483  43.766   0.902
51266W        W14825  17.273  31.612   0.266
51267W        W14826  29.067  13.762   1.319
51268W        W14827   1.386  28.147  11.071
51269W        W14828  10.687   6.715   4.727
51270W        W14829   6.363  37.488  10.454
51271W        W14830  28.651  26.546   0.415
51272W        W14831   7.248  40.046   4.324
51273W        W14832  38.046  39.419  11.405
51274W        W14833  35.581  19.264  11.862
51275W        W14834  43.499   3.395  13.470
51276W        W14835   0.923  38.898  11.022
51277W        W14836  34.969   4.864   0.382
51278W        W14837  10.704  34.028  14.021
51279W        W14838  34.940  34.411  13.514
51280W        W14839  27.190  28.081  12.900
51281W        W14840   0.822  19.159  14.275
51282W        W14841   7.211   7.244  14.979
51283W        W14842  19.062  21.046   2.330
51284W        W14843  18.612  34.471   4.730
51285W        W14844  12.282  15.799  12.513
51286W        W14845  10.641  37.976   2.786
51287W        W14846  26.501  14.177  12.923
51288W        W14847  19.274  36.873   3.862
51289W        W14848  34.534   5.915   0.268
51290W        W14849  32.098   2.915  11.996
51291W        W14850  35.418  38.404  11.521
51292W        W14851  44.342  11.157  14.425
51293W        W14852  43.872  42.981  13.813
51294W        W14853  28.057   9.804  10.502
51295W        W14854  41.417  18.671  11.944
51296W        W14855  31.451  43.979   1.900
51297W        W14856  42.876  13.182  10.536
51298W        W14857  23.563  17.795   4.707
51299W        W14858   0.826  44.316   0.832
51300W        W14859  33.412  22.570   2.676
51301W        W14860   8.682  35.002   5.182
51302W        W14861  18.596   0.340   4.725
51303W        W14862  43.780  37.370  14.439
51304W        W14863  34.921   8.821  14.909
51305W        W14864  18.573  10.338   2.287
51306W        W14865  27.133  12.844   1.217
51307W        W14866   4.326  17.263   3.209
51308W        W14867  29.534  13.132   0.253
51309W        W14868  21.093  12.650  11.932
51310W        W14869  41.859  32.586   2.736
51311W        W14870  29.448  36.965  11.427
51312W        W14871   5.333  18.144  13.799
51313W        W14872  11.277  43.419   2.223
51314W        W14873  41.516  29.934   2.378
51315W        W14874  24.224   1.868   2.821
51316W        W14875  44.323  11.180   4.182
51317W        W14876  13.650  21.676  11.127
51318W        W14877  43.967  29.442  14.276
51319W        W14878   4.858   5.919  12.344
51320W        W14879   4.765   8.681   4.813
51321W        W14880  16.158   7.892  13.372
51322W        W14881  20.201   4.749   1.757
51323W        W14882  20.692  40.861  12.511
51324W        W14883  23.508  43.872   2.684
51325W        W14884  21.549  36.349  11.010
51326W        W14885  24.049  17.191   4.750
51327W        W14886  15.615  12.197   4.655
51328W        W14887  29.468   4.298   1.424
51329W        W14888  15.310  39.492  12.979
51330W        W14889  38.532  35.550  12.363
51331W        W14890   4.245   6.303  11.596
51332W        W14891  20.097   8.228  12.062
51333W        W14892   4.269  20.201   0.762
51334W        W14893   2.314  39.454   2.692
51335W        W14894   6.893  41.421   1.907
51336W        W14895  30.092   4.259   4.348
51337W        W14896  25.508  12.257   4.303
51338W        W14897   3.339  40.022   2.384
51339W        W14898  18.744   1.339   2.339
51340W        W14899  27.529  17.147  14.461
51341W        W14900  15.201   1.811   4.139
51342W        W14901  35.023  22.507   1.210
51343W        W14902   7.908   6.751  14.925
51344W        W14903  30.926  12.307   4.126
51345W        W14904  20.059  42.461  10.498
51346W        W14905  30.965   6.804  12.374
51347W        W14906   9.749  16.585  10.527
51348W        W14907  32.565   9.704   0.889
51349W        W14908  39.457   9.302  13.425
51350W        W14909  10.859  37.959   4.247
51351W        W14910  44.491  44.345  13.040
51352W        W14911  43.816  44.303  14.478
51353W        W14912  28.124  18.675   9.938
51354W        W14913   4.427  15.647  13.039
51355W        W14914  14.714  34.402   2.211
51356W        W14915  41.874   0.428  12.379
51357W        W14916  37.965  34.452   4.717
51358W        W14917  13.652  43.311   0.400
51359W        W14918  30.042  14.621   1.375
51360W        W14919  37.065   7.396  12.840
51361W        W14920   4.788  26.002  11.976
51362W        W14921   5.333  36.008   0.407
51363W        W14922  16.603  36.978   4.314
51364W        W14923   9.724   1.353  10.971
51365W        W14924  32.909  21.733   4.697
51366W        W14925  22.702  31.580  11.499
51367W        W14926  30.578  18.229  10.909
51368W        W14927  34.934   8.351   1.821
51369W        W14928  17.073  32.396   4.288
51370W        W14929  40.004  18.702   1.836
51371W        W14930   4.861  35.451   2.791
51372W        W14931  15.104  44.795  14.003
51373W        W14932  38.365  42.416   2.189
51374W        W14933  18.256  24.175  14.326
51375W        W14934  40.904  27.571   3.770
51376W        W14935  38.868  29.005  12.415
51377W        W14936   2.412   0.748  11.557
51378W        W14937  10.668  21.656   4.206
51379W        W14938  16.610  20.649  10.419
51380W        W14939  10.143  36.505   3.317
51381W        W14940  23.240   2.362  14.969
51382W        W14941  42.949   4.310  12.394
51383W        W14942  14.699   2.310   0.291
51384W        W14943  29.474  43.418  11.545
51385W        W14944  10.799  29.567  11.988
51386W        W14945  40.548  16.614  14.489
51387W        W14946  40.370   7.367  10.437
51388W        W14947  33.476  26.525   3.682
51389W        W14948  32.588   6.340   1.387
51390W        W14949  20.158  29.631  12.826
51391W        W14950   9.804  40.977  11.409
51392W        W14951   3.316  21.221  12.848
51393W        W14952  41.951  37.390  11.058
51394W        W14953  26.027  26.189   2.739
51395W        W14954  21.045   5.323   3.774
51396W        W14955  28.469  20.049   1.226
51397W        W14956  12.314   4.740  14.874
51398W        W14957   7.286  23.601   3.306
51399W        W14958  18.629  25.574   4.237
51400W        W14959  29.568  42.981   1.258
51401W        W14960  40.459   8.214  10.455
51402W        W14961  28.664  12.816  13.368
51403W        W14962  27.181  12.798  13.542
51404W        W14963  33.550   6.756   2.708
51405W        W14964  27.025  20.158  11.515
51406W        W14965  14.696   5.837   1.337
51407W        W14966  12.678  33.005  12.382
51408W        W14967  20.748  26.155  10.516
51409W        W14968  18.732  13.310   2.270
51410W        W14969   0.354  23.045  14.930
51411W        W14970  30.077  11.233   2.783
51412W        W14971   8.791   8.868  11.490
51413W        W14972  40.312  34.386   2.183
51414W        W14973  18.744   9.308  11.595
51415W        W14974   4.708  27.473   2.714
51416W        W14975  17.233  34.591   4.191
51417W        W14976  38.517  27.603  13.880
51418W        W14977  31.632   5.778  13.825
51419W        W14978  31.968  10.161   4.795
51420W        W14979  32.001  40.492   5.643
51421W        W14980  28.157  12.610   0.419
51422W        W14981   0.287  10.316   3.743
51423W        W14982  12.618  25.509   3.760
51424W        W14983  30.919  28.500  12.902
51425W        W14984   2.271  14.785   4.823
51426W        W14985   1.836  29.963   3.260
51427W        W14986  31.918  20.732  12.844
51428W        W14987  23.005  21.720  13.465
51429W        W14988  32.066  24.654  13.435
51430W        W14989   2.390  23.989  11.862
51431W        W14990   7.400  25.673   2.411
51432W        W14991  13.638  16.206   4.285
51433W        W14992   8.692  25.014   4.143
51434W        W14993  14.642  13.819  13.467
51435W        W14994  29.535  36.070   3.857
51436W        W14995  41.324   3.778  14.897
51437W        W14996   6.829   9.394  13.548
51438W        W14997  34.120   6.393  14.436
51439W        W14998  42.978  26.193  12.831
51440W        W14999   9.186  42.522   2.723
51441W        W15000  21.234   1.924   9.946
51442W        W15001   7.765  40.305   3.206
51443W        W15002   1.793  10.855   4.657
51444W        W15003   7.232  36.494  14.326
51445W        W15004  18.676  37.953  11.601
51446W        W15005  22.210  41.790  10.417
51447W        W15006  36.959  41.042  14.784
51448W        W15007   6.323  16.173   3.328
51449W        W15008   3.221  11.664   4.726
51450W        W15009  30.486  39.888  14.956
51451W        W15010  16.793  38.937  12.096
51452W        W15011   9.722  18.563   4.343
51453W        W15012  38.936  17.275   4.600
51454W        W15013  12.251  18.683  14.818
51455W        W15014  24.109  36.941  11.483
51456W        W15015  34.009  16.265  10.935
51457W        W15016   8.180  18.682   3.359
51458W        W15017  24.707  37.868  10.441
51459W        W15018  31.095  40.044   2.193
51460W        W15019  25.130  24.981   2.716
51461W        W15020  22.038  39.942  13.986
51462W        W15021  43.919  32.942   0.254
51463W        W15022   8.190  41.972  12.487
51464W        W15023  19.627  14.621   4.256
51465W        W15024   4.309  32.927  13.870
51466W        W15025  29.487  14.621  14.512
51467W        W15026  30.480  13.161  14.787
51468W        W15027  43.493  21.172  11.967
51469W        W15028  18.652   5.815  11.449
51470W        W15029  42.296   6.187   1.708
51471W        W15030  33.110  21.201   0.280
51472W        W15031  30.083  37.516   4.266
51473W        W15032  11.270  27.088  13.869
51474W        W15033   8.289  41.875   4.644
51475W        W15034  43.827  42.009  11.940
51476W        W15035  19.678  13.303  14.771
51477W        W15036  16.572  12.643   0.816
51478W        W15037  37.896  43.881   0.801
51479W        W15038  25.118   9.672  11.461
51480W        W15039   7.282  35.507  14.320
51481W        W15040  38.002  10.701  12.006
51482W        W15041  27.063  11.822  12.369
51483W        W15042   2.756  32.075   4.142
51484W        W15043   4.899  37.883   4.214
51485W        W15044  38.043  31.125   0.362
51486W        W15045  37.401  27.647   0.926
51487W        W15046  21.127  10.641   4.675
51488W        W15047   6.236  30.031   0.945
51489W        W15048  41.520  28.141  11.946
51490W        W15049  15.823  43.304   0.885
51491W        W15050  38.409  21.532  11.538
51492W        W15051  31.919  42.907  13.472
51493W        W15052  44.444  39.520   3.287
51494W        W15053  13.327  27.640   1.395
51495W        W15054  12.325  41.445   0.435
51496W        W15055  29.172  37.953   4.720
51497W        W15056  42.008  20.219  11.940
51498W        W15057  44.955  20.639  11.402
51499W        W15058  37.837  32.392   0.299
51500W        W15059   5.218  35.437  14.453
51501W        W15060   9.299   0.287   3.261
51502W        W15061  27.989  27.023   2.768
51503W        W15062  17.081  37.472  13.477
51504W        W15063   7.705  14.772   2.390
51505W        W15064   1.320  11.260   3.350
51506W        W15065  15.228   2.364   0.309
51507W        W15066   8.272  12.632   2.258
51508W        W15067   3.259  39.059  14.392
51509W        W15068  38.864  10.685   3.644
51510W        W15069   9.240  17.789   4.705
51511W        W15070  25.653  38.912   4.198
51512W        W15071  27.653  25.521  14.891
51513W        W15072  24.204  37.939  11.923
51514W        W15073   8.392  32.402   0.408
51515W        W15074  37.425  29.662  11.993
51516W        W15075  36.077  30.019  14.024
51517W        W15076   2.934  38.410  12.036
51518W        W15077   2.327  20.592   3.287
51519W        W15078  14.176   1.310  13.043
51520W        W15079  40.492  12.836  12.980
51521W        W15080  37.917  40.312  12.051
51522W        W15081  16.758  13.249   1.340
51523W        W15082   7.825  16.772  10.447
51524W        W15083  21.171  43.494   1.380
51525W        W15084  17.223  27.180  13.832
51526W        W15085   1.404  37.392   1.783
51527W        W15086  14.207  38.074   1.339
51528W        W15087  28.946  44.943  14.493
51529W        W15088  35.999  36.571  14.005
51530W        W15089  10.875  27.561   0.308
51531W        W15090   9.331  34.027  10.947
51532W        W15091  26.972  16.595   4.164
51533W        W15092  15.597   5.422  14.908
51534W        W15093   0.902  21.568   3.829
51535W        W15094  27.520  42.777   0.455
51536W        W15095   2.758  40.321  11.472
51537W        W15096  19.226  30.594  12.427
51538W        W15097  40.441   8.308   3.762
51539W        W15098  30.066  44.464  13.969
51540W        W15099  43.859  41.038   2.798
51541W        W15100  29.150  10.708   1.281
51542W        W15101  30.591  22.678  11.509
51543W        W15102  43.298  18.673  13.441
51544W        W15103   1.834  38.338   1.230
51545W        W15104  11.695   3.393  11.029
51546W        W15105  35.404  38.856   1.317
51547W        W15106  12.661  11.723   1.814
51548W        W15107   2.464  17.181  14.344
51549W        W15108  11.230   0.794  12.836
51550W        W15109   7.201  13.165   9.661
51551W        W15110   3.712  27.640   2.682
51552W        W15111  30.653   1.309  13.420
51553W        W15112  26.199   0.369  14.435
51554W        W15113  20.169  11.648   1.250
51555W        W15114  12.348  21.658  12.548
51556W        W15115  29.433   0.973  13.937
51557W        W15116   4.883  34.443  13.505
51558W        W15117  21.202  32.920   3.362
51559W        W15118   5.194  26.647  10.615
51560W        W15119  15.652  31.978   0.773
51561W        W15120  13.787  35.515   3.361
51562W        W15121   4.896  18.669   1.845
51563W        W15122  27.632  33.087  13.334
51564W        W15123  24.555  12.690   4.736
51565W        W15124   5.398  14.731   2.303
51566W        W15125  33.505  17.245  12.535
51567W        W15126  32.125   7.416   2.673
51568W        W15127   1.975   6.777   0.781
51569W        W15128  15.668   3.950   2.729
51570W        W15129  34.464  36.975   2.182
51571W        W15130  34.456   3.409   1.360
51572W        W15131  21.559  35.030  14.924
51573W        W15132   8.754  19.228   0.787
51574W        W15133  40.417  38.997   4.739
51575W        W15134  10.869   5.244   0.410
51576W        W15135   2.890  32.990  10.977
51577W        W15136  33.616   4.216   2.873
51578W        W15137  11.718  40.049   0.931
51579W        W15138   0.888  19.076   1.823
51580W        W15139  40.442  17.637  11.002
51581W        W15140  17.800  26.614  13.477
51582W        W15141  34.437  30.070  11.561
51583W        W15142  38.007  22.703  11.524
51584W        W15143  14.184   2.770  14.349
51585W        W15144  27.627  25.632   1.776
51586W        W15145  25.522   1.774   4.638
51587W        W15146   1.840   1.324  11.870
51588W        W15147  28.034  26.510  11.989
51589W        W15148   1.432  36.028  12.495
51590W        W15149  17.718  42.396   1.876
51591W        W15150  32.930  15.118   4.129
51592W        W15151  20.250  15.122   4.665
51593W        W15152  21.133  33.570   3.199
51594W        W15153  44.336  27.131  13.940
51595W        W15154  27.143  10.207   0.298
51596W        W15155  12.173  22.509  14.315
51597W        W15156  38.416  44.389   0.310
51598W        W15157  19.200  12.118  13.953
51599W        W15158  19.716  44.784  11.488
51600W        W15159  24.157   8.319  10.501
51601W        W15160  19.068  13.153   0.319
51602W        W15161  30.544  11.138  14.833
51603W        W15162   5.358  22.726  14.942
51604W        W15163  37.546  10.813  10.947
51605W        W15164  15.220   3.936  13.007
51606W        W15165   2.858  11.863  14.936
51607W        W15166  33.534  41.988  14.766
51608W        W15167  42.395  25.055   0.333
51609W        W15168  35.103  13.305  14.800
51610W        W15169  44.476   5.733   2.288
51611W        W15170  44.898  25.125  13.015
51612W        W15171  23.001   4.928   2.289
51613W        W15172   1.466  15.279   2.250
51614W        W15173  16.809  33.481  13.462
51615W        W15174   7.726  29.453   0.338
51616W        W15175  32.579  10.836  14.327
51617W        W15176   5.404  16.158   3.364
51618W        W15177  29.551   8.711   4.646
51619W        W15178  30.085  38.542   3.221
51620W        W15179   5.228  21.238  12.457
51621W        W15180  16.619   1.346  12.086
51622W        W15181  34.465  44.429  12.376
51623W        W15182  38.071  16.633   3.230
51624W        W15183  39.948  16.169   4.332
51625W        W15184  22.150  42.011  12.887
51626W        W15185  14.323  43.949  12.828
51627W        W15186   1.910  12.639  14.828
51628W        W15187  17.301  43.912   3.298
51629W        W15188  35.105   6.803   9.972
51630W        W15189  37.943   6.755  10.494
51631W        W15190  22.682  17.139  12.386
51632W        W15191  20.680  26.166   0.947
51633W        W15192  19.090  14.151   3.647
51634W        W15193   4.334  31.100  14.949
51635W        W15194   5.778   5.862  14.362
51636W        W15195  19.065  22.161   1.436
51637W        W15196  32.456  17.598   0.727
51638W        W15197  39.478   0.335   4.633
51639W        W15198  13.730  14.265   0.292
51640W        W15199  17.198  32.513  13.053
51641W        W15200  44.447  40.035  12.482
51642W        W15201  25.138   7.666  14.358
51643W        W15202   6.824  35.987  14.027
51644W        W15203  30.581  31.548   3.171
51645W        W15204  32.512  34.444  11.482
51646W        W15205   4.222  42.500   2.280
51647W        W15206  40.861   4.449  10.496
51648W        W15207  23.491  38.957  12.921
51649W        W15208  18.188  24.054  12.561
51650W        W15209   1.308  30.493  13.791
51651W        W15210  28.474  10.714  13.867
51652W        W15211  33.468  16.573  12.396
51653W        W15212  44.862  11.757   0.951
51654W        W15213   2.285   7.389  14.846
51655W        W15214  28.056  15.222   2.332
51656W        W15215  17.060  27.976  14.366
51657W        W15216  44.808   6.746   2.883
51658W        W15217  31.626  41.503   4.670
51659W        W15218  13.753  19.279  13.020
51660W        W15219  16.296   4.288  12.354
51661W        W15220  29.667  15.772  13.545
51662W        W15221  21.753  16.110   0.362
51663W        W15222  39.822  34.966  13.468
51664W        W15223  37.963   1.760  13.350
51665W        W15224  19.055  13.184  11.965
51666W        W15225   9.804   8.720   4.169
51667W        W15226  10.141  22.552  14.796
51668W        W15227  17.254  23.661   2.703
51669W        W15228  14.702  36.090   2.358
51670W        W15229   0.252   8.794   2.787
51671W        W15230   9.323  32.125  10.153
51672W        W15231  11.271   9.355   3.739
51673W        W15232  20.661  23.146  12.356
51674W        W15233  44.280  15.226  12.974
51675W        W15234  15.638  19.227   1.764
51676W        W15235   8.386  12.743  13.350
51677W        W15236   6.804   4.263   2.695
51678W        W15237  37.894  42.853   0.790
51679W        W15238  36.936   7.369  10.888
51680W        W15239  28.938  38.523  12.027
51681W        W15240  15.238   1.834   2.882
51682W        W15241  25.104   7.216   0.783
51683W        W15242  43.013  30.609   0.394
51684W        W15243  34.040  24.015   1.882
51685W        W15244  11.318  39.893  11.527
51686W        W15245   2.922  14.663   2.226
51687W        W15246  17.254  21.533  12.362
51688W        W15247  27.090  14.709  13.017
51689W        W15248  19.755   9.826   0.384
51690W        W15249  35.577  37.918  13.818
51691W        W15250  40.841  38.006  11.973
51692W        W15251  33.411  41.993   5.584
51693W        W15252  16.144  28.934  12.919
51694W        W15253  44.763   7.219   1.395
51695W        W15254  20.643  16.592  13.409
51696W        W15255  42.933   3.240   0.937
51697W        W15256  18.130  33.877   4.235
51698W        W15257  22.128  28.523   4.600
51699W        W15258  10.643  12.175  14.814
51700W        W15259  22.012  25.092  14.844
51701W        W15260  30.044   1.351  12.021
51702W        W15261  25.075  19.152  14.279
51703W        W15262   7.368   4.800   2.746
51704W        W15263   4.746  11.327  11.992
51705W        W15264  11.193  44.855   0.860
51706W        W15265  18.626  21.668   3.225
51707W        W15266  40.371  19.660  14.296
51708W        W15267  32.892  40.529   3.753
51709W        W15268   4.259  17.229  14.964
51710W        W15269  18.187   6.259  10.432
51711W        W15270   3.387  31.561   2.896
51712W        W15271  30.036   0.982   1.826
51713W        W15272   7.175  44.399  14.381
51714W        W15273  31.136  27.478   4.155
51715W        W15274  20.640   1.808   3.224
51716W        W15275  21.165  41.852  11.099
51717W        W15276  34.545  40.447  14.342
51718W        W15277  32.019  11.143   2.815
51719W        W15278  20.670   3.435  12.074
51720W        W15279  24.624  39.471  14.791
51721W        W15280  17.188  17.787  13.824
51722W        W15281  29.101  39.904  13.928
51723W        W15282  39.983  20.133   3.834
51724W        W15283   6.317  19.566  12.899
51725W        W15284   7.318  35.460  14.778
51726W        W15285   0.389  34.016   1.791
51727W        W15286  13.170  16.222   0.905
51728W        W15287  24.619  39.331  11.083
51729W        W15288  11.695   5.250   4.194
51730W        W15289  39.936  32.548  12.391
51731W        W15290  27.074  37.525  13.928
51732W        W15291  40.938   9.156   0.406
51733W        W15292   5.704  42.877  13.850
51734W        W15293  21.263  27.073  14.782
51735W        W15294   7.239   6.838   2.892
51736W        W15295   1.778  42.952   3.797
51737W        W15296  44.281  21.546  14.500
51738W        W15297  44.010   3.721   2.306
51739W        W15298  22.072  30.078  12.542
51740W        W15299   9.688  43.285  14.818
51741W        W15300  20.104  36.942  13.865
51742W        W15301  32.028  42.010  11.415
51743W        W15302  29.461  21.224  12.978
51744W        W15303  38.914  16.738  14.959
51745W        W15304   7.677  33.097   3.732
51746W        W15305  25.699  23.558  12.066
51747W        W15306  20.713   3.721  12.917
51748W        W15307  20.544   2.878   4.184
51749W        W15308   9.247  24.997  12.854
51750W        W15309  24.057  23.111  11.472
51751W        W15310  23.625  40.530  13.979
51752W        W15311  28.633  13.799  12.976
51753W        W15312  23.565  25.133  14.899
51754W        W15313  12.138  38.331  11.990
51755W        W15314   8.831  40.942   3.701
51756W        W15315  25.970  10.770  12.391
51757W        W15316  15.121  13.255   2.834
51758W        W15317  43.415  13.106   4.757
51759W        W15318  37.376  26.159  12.878
51760W        W15319  36.448  27.493   4.199
51761W        W15320   8.258  35.395   0.386
51762W        W15321  37.382  44.002  11.874
51763W        W15322  26.650  20.132  13.031
51764W        W15323  18.721  25.079  13.851
51765W        W15324  24.680  17.709  12.472
51766W        W15325  43.893   1.803   1.709
51767W        W15326  24.586   8.746  10.518
51768W        W15327  32.557  19.579  13.801
51769W        W15328  39.044  23.695  12.012
51770W        W15329  33.412  15.168  13.490
51771W        W15330  14.667   5.757   4.149
51772W        W15331  26.986   9.384  10.606
51773W        W15332  42.838  34.015   0.415
51774W        W15333  26.683  25.470   0.392
51775W        W15334  27.497  11.643  12.874
51776W        W15335  18.733  41.466  10.429
51777W        W15336  36.860   0.821   3.386
51778W        W15337  15.262  25.565  11.584
51779W        W15338  11.649  21.110  11.064
51780W        W15339  16.171   3.803   0.951
51781W        W15340   5.236  42.367   1.829
51782W        W15341  22.158  38.854   4.261
51783W        W15342  29.580  40.477  13.993
51784W        W15343  41.870   7.193   1.347
51785W        W15344   7.908  23.211  12.561
51786W        W15345   5.349   3.389   3.865
51787W        W15346  13.312  15.579   1.423
51788W        W15347  40.847   0.817   3.339
51789W        W15348  29.616  30.121   0.371
51790W        W15349  30.973  30.932   4.224
51791W        W15350  11.155  21.225  12.366
51792W        W15351  42.870  20.218  14.001
51793W        W15352  39.032  37.863   0.418
51794W        W15353   1.365  31.912   4.296
51795W        W15354   8.161   4.747   4.796
51796W        W15355  43.932  35.368   4.770
51797W        W15356  33.103  25.159   1.756
51798W        W15357   1.807   5.232  12.073
51799W        W15358  15.646  25.683  14.403
51800W        W15359  12.622  23.607  12.956
51801W        W15360  39.837  11.359   2.757
51802W        W15361  40.875  18.789  12.455
51803W        W15362  13.183   5.293   0.966
51804W        W15363  12.263  44.366   4.143
51805W        W15364   7.412  24.180   1.849
51806W        W15365   2.826  13.239   4.780
51807W        W15366  11.694   6.791  11.544
51808W        W15367  14.337  23.233   1.283
51809W        W15368  17.116  43.500   2.805
51810W        W15369  38.945   4.826   3.357
51811W        W15370  25.105  15.261  13.486
51812W        W15371  31.009  42.941  12.982
51813W        W15372  20.551  17.235  12.352
51814W        W15373   3.812   5.376  11.441
51815W        W15374   2.927  23.239   1.778
51816W        W15375  28.125  18.772  10.462
51817W        W15376  42.832   6.194  14.930
51818W        W15377  42.833  34.530  13.542
51819W        W15378   2.444   8.715  14.867
51820W        W15379  38.847  33.475  14.853
51821W        W15380  28.037  32.551  10.576
51822W        W15381  14.765  40.398  14.369
51823W        W15382  37.384  27.964  10.437
51824W        W15383  19.779  19.708  12.054
51825W        W15384  27.966  36.562  10.628
51826W        W15385  37.372   2.730  14.439
51827W        W15386  20.523  20.110   3.383
51828W        W15387  12.361  29.165  12.830
51829W        W15388   5.887  44.432  14.863
51830W        W15389   6.405  16.676   2.328
51831W        W15390   7.202  12.803  10.128
51832W        W15391  42.982  10.735   3.690
51833W        W15392  39.510  39.830  10.492
51834W        W15393   8.817  24.121   4.831
51835W        W15394  20.111  27.006  14.308
51836W        W15395  29.106  16.576  12.390
51837W        W15396   2.418  16.114   0.286
51838W        W15397  24.062   7.208  14.987
51839W        W15398  14.647   0.884   1.871
51840W        W15399  35.483  24.708   3.871
51841W        W15400   2.384  15.708  10.156
51842W        W15401  38.010   1.871  10.103
51843W        W15402  20.552  13.644   0.442
51844W        W15403   1.735  36.073  11.576
51845W        W15404   6.708  35.991   1.815
51846W        W15405  29.065  37.568  14.822
51847W        W15406  32.001  18.074  10.948
51848W        W15407  13.275   9.204  14.317
51849W        W15408  19.718  40.520   2.720
51850W        W15409  40.826  17.079   1.733
51851W        W15410  22.559  25.176  10.911
51852W        W15411  37.830  22.672   4.185
51853W        W15412  29.084  14.765   0.374
51854W        W15413  29.923  29.509   2.235
51855W        W15414   5.418  28.440   1.217
51856W        W15415   3.937   7.392   3.689
51857W        W15416  37.416  40.406  12.436
51858W        W15417   5.387  29.465  12.914
51859W        W15418  40.921  18.159   3.253
51860W        W15419  22.141  28.614   1.436
51861W        W15420  22.611  42.991   3.194
51862W        W15421   7.308   7.224   0.831
51863W        W15422  15.315  42.385   4.789
51864W        W15423   2.739  43.991   4.669
51865W        W15424   9.292  11.819   4.147
51866W        W15425  32.062  15.305   2.362
51867W        W15426  31.420  10.340   1.333
51868W        W15427  17.257  16.290   1.369
51869W        W15428   1.766  18.149  12.465
51870W        W15429   5.701  22.242  12.510
51871W        W15430  17.683  18.689   2.372
51872W        W15431  32.404  33.382  10.482
51873W        W15432  42.901   0.747   2.376
51874W        W15433  35.987  41.317   4.284
51875W        W15434  21.750  24.667  12.893
51876W        W15435  10.344  19.039   4.149
51877W        W15436  13.802  20.150  11.896
51878W        W15437  30.429  42.020   0.859
51879W        W15438  22.587  18.643  14.402
51880W        W15439  28.446  19.220  12.971
51881W        W15440  36.076  20.210   4.636
51882W        W15441   2.751   6.185  11.959
51883W        W15442  27.119  19.552   1.425
51884W        W15443   9.659  31.485  13.013
51885W        W15444  44.924  29.139  13.536
51886W        W15445  21.666  24.144  14.025
51887W        W15446  26.568  30.522   1.216
51888W        W15447   0.946  36.057  13.908
51889W        W15448  13.296  29.548  14.317
51890W        W15449   6.772  44.805  14.813
51891W        W15450  34.018  29.467   2.253
51892W        W15451   5.276  41.812  13.927
51893W        W15452  16.182   6.870  10.047
51894W        W15453   0.831  22.564  11.856
51895W        W15454  24.054  37.374   1.364
51896W        W15455  10.216  10.661  13.508
51897W        W15456  29.514  20.116  11.382
51898W        W15457  32.003  36.023   2.320
51899W        W15458   5.290  25.470  11.947
51900W        W15459  43.809  32.998   0.953
51901W        W15460   6.269  37.536   3.231
51902W        W15461   3.817  37.971  13.463
51903W        W15462  14.147  44.480  10.578
51904W        W15463  25.644  12.677   4.643
51905W        W15464  22.571   5.377   3.707
51906W        W15465   3.721  17.717  14.766
51907W        W15466   0.439  20.145  13.858
51908W        W15467  32.118  12.660   1.860
51909W        W15468  26.151  22.165  13.825
51910W        W15469  22.218  26.484  10.058
51911W        W15470  38.957  35.602  12.516
51912W        W15471   9.212  10.832  12.540
51913W        W15472  18.654  29.514  11.905
51914W        W15473  35.980  38.411  13.957
51915W        W15474  17.301   6.751   5.186
51916W        W15475  29.482  32.549  11.466
51917W        W15476  10.335  42.006   2.289
51918W        W15477  18.701   1.807   2.402
51919W        W15478  41.010  11.801  11.013
51920W        W15479  16.107   9.386  13.041
51921W        W15480   1.733   9.832   2.842
51922W        W15481  29.547  38.835   3.735
51923W        W15482  38.934  11.857  12.865
51924W        W15483  33.957   9.263  11.080
51925W        W15484  27.994  41.808  11.416
51926W        W15485   7.712   7.230  12.350
51927W        W15486  21.140  14.794   4.235
51928W        W15487  15.304  16.245  13.540
51929W        W15488  25.669  13.769  12.861
51930W        W15489  44.792  25.079   2.733
51931W        W15490  33.117  37.337  10.948
51932W        W15491  28.939  16.156   2.210
51933W        W15492  35.498  27.078  14.009
51934W        W15493  22.018  11.855  13.309
51935W        W15494  39.449  24.545  14.928
51936W        W15495   8.305  43.901   4.146
51937W        W15496  36.883   3.713  12.573
51938W        W15497  14.805  22.197   2.766
51939W        W15498  36.478  24.553  14.878
51940W        W15499  33.875  44.988  13.049
51941W        W15500  32.894  42.393   0.421
51942W        W15501  38.872   9.791   1.445
51943W        W15502  27.105  32.576   2.690
51944W        W15503  19.113  24.154  12.574
51945W        W15504  10.192  28.644   3.242
51946W        W15505  14.733  21.087  12.543
51947W        W15506  24.702  26.147  12.544
51948W        W15507  26.657   1.745   2.345
51949W        W15508  27.480  17.562   0.829
51950W        W15509  18.787   2.940   3.313
51951W        W15510  33.404  35.510  13.817
51952W        W15511  18.618  34.995   4.725
51953W        W15512   5.742  33.390  12.915
51954W        W15513  10.814  40.802  10.419
51955W        W15514  18.560   3.381   2.321
51956W        W15515  16.243  25.126  11.985
51957W        W15516  30.577   4.743   2.888
51958W        W15517  15.774   6.218   3.295
51959W        W15518  23.205  41.842   4.204
51960W        W15519  33.947  20.672  10.497
51961W        W15520  22.508  19.756   2.771
51962W        W15521  41.362  21.021  12.012
51963W        W15522  18.279  28.621  12.018
51964W        W15523  12.146  10.632   3.773
51965W        W15524  41.838  42.502   3.831
51966W        W15525  27.512  43.944  12.994
51967W        W15526  35.900  33.083   2.731
51968W        W15527   7.215  35.013  12.362
51969W        W15528  13.669   3.870   0.344
51970W        W15529  23.606  10.808   2.829
51971W        W15530   9.172  18.687   1.881
51972W        W15531  43.895  22.673  13.396
51973W        W15532  35.598  10.874   5.303
51974W        W15533   5.331  11.149   3.754
51975W        W15534  29.440  34.424  10.637
51976W        W15535   4.221  39.522  10.901
51977W        W15536  23.651   6.341   2.894
51978W        W15537  16.192  26.125   2.398
51979W        W15538  13.714   2.766   2.182
51980W        W15539  37.851   1.376  14.895
51981W        W15540  14.228  23.213   3.656
51982W        W15541  35.072  25.618   3.349
51983W        W15542  18.587  23.546  10.463
51984W        W15543  22.626  29.980   2.703
51985W        W15544  11.843  13.144  12.575
51986W        W15545  35.939  22.037  11.057
51987W        W15546   0.794  34.368   0.351
51988W        W15547   9.223  35.576   4.268
51989W        W15548  10.814  41.323   1.253
51990W        W15549   1.425  33.077   0.462
51991W        W15550  40.463   7.349  14.397
51992W        W15551  37.401  25.182   3.328
51993W        W15552  39.350  21.597   2.719
51994W        W15553  26.659  19.564  12.942
51995W        W15554  25.129  43.324  13.834
51996W        W15555  42.410  22.658  11.991
51997W        W15556   7.675  19.060   4.826
51998W        W15557  35.079  29.995   2.883
51999W        W15558  43.288  23.670  13.311
52000W        W15559  35.447  32.579   1.448
52001W        W15560  34.959  27.985   3.827
52002W        W15561   6.392  39.412  13.345
52003W        W15562  35.549  44.757   2.781
52004W        W15563   2.912   0.475  10.540
52005W        W15564  33.959  37.551   3.789
52006W        W15565  22.617  34.025   3.243
52007W        W15566   8.778  33.947   2.269
52008W        W15567  20.538  29.426   0.243
52009W        W15568   3.868   9.301  11.033
52010W        W15569  25.041  38.045   3.198
52011W        W15570   4.707  16.193   1.744
52012W        W15571  44.805  37.516  11.600
52013W        W15572  12.282   7.758   1.786
52014W        W15573   1.913  28.052   4.308
52015W        W15574  39.811  26.474  11.871
52016W        W15575  16.764  34.482  10.910
52017W        W15576  42.996  26.548   1.401
52018W        W15577  15.095   8.713   0.364
52019W        W15578  21.570  40.490  14.992
52020W        W15579  19.561   9.874   4.326
52021W        W15580  33.131  42.301  12.570
52022W        W15581   8.283   8.854   0.885
52023W        W15582  11.630   7.836  12.993
52024W        W15583  36.535   9.755  13.319
52025W        W15584  39.474  25.993  13.010
52026W        W15585  15.188  23.602   0.366
52027W        W15586  14.269  21.589   1.372
52028W        W15587  43.915  29.948  12.401
52029W        W15588  39.809   7.368  13.402
52030W        W15589  14.671  15.321  14.288
52031W        W15590  41.500  26.492   3.192
52032W        W15591   7.867  28.071   0.457
52033W        W15592  16.730  18.295  11.465
52034W        W15593  21.189   6.317   4.130
52035W        W15594   3.917  11.365  13.851
52036W        W15595  40.811  16.202   3.800
52037W        W15596  27.009  39.400  12.512
52038W        W15597  12.804  41.372  12.441
52039W        W15598  23.998  44.768   3.681
52040W        W15599  42.815   7.385   2.204
52041W        W15600  33.610   1.283   4.612
52042W        W15601  16.762  41.443   2.330
52043W        W15602  36.846   7.681   1.446
52044W        W15603  35.076  11.324   9.619
52045W        W15604   3.253  11.809  10.462
52046W        W15605  27.108  29.020  11.044
52047W        W15606  22.222  11.265   2.836
52048W        W15607  18.196  30.939   5.716
52049W        W15608  33.424   4.851   0.467
52050W        W15609  42.362  39.324  12.488
52051W        W15610  38.495   7.758   2.742
52052W        W15611  14.641  22.616   2.192
52053W        W15612  42.915  44.768   0.293
52054W        W15613  34.986  12.218  10.927
52055W        W15614  43.384   5.792   1.697
52056W        W15615  40.460  13.758   2.867
52057W        W15616  10.793   5.846  14.972
52058W        W15617  32.059  14.626  12.573
52059W        W15618  37.896   9.167  10.420
52060W        W15619  36.538  41.822  14.329
52061W        W15620   7.700  42.463   2.419
52062W        W15621  35.386  30.443   1.236
52063W        W15622  23.715  17.094  11.554
52064W        W15623  11.311  32.425   4.793
52065W        W15624  34.946   5.932   2.276
52066W        W15625  38.451  40.884   1.315
52067W        W15626  13.143   7.401  13.861
52068W        W15627  43.344  10.742  10.543
52069W        W15628  35.086  16.183  13.391
52070W        W15629  13.736  15.677   4.815
52071W        W15630  12.792   5.246  10.518
52072W        W15631  28.629  32.060  11.441
52073W        W15632   2.344  17.192   1.710
52074W        W15633  28.064  23.635   3.724
52075W        W15634  21.523  16.085  10.561
52076W        W15635  33.420  29.174  13.058
52077W        W15636  35.449   6.815   3.279
52078W        W15637  19.235   7.257  11.403
52079W        W15638  20.735   8.723   1.341
52080W        W15639  14.263  39.423  10.890
52081W        W15640  32.580  21.231  11.547
52082W        W15641  22.205   3.895  13.923
52083W        W15642  31.044  28.575  13.491
52084W        W15643   4.736  16.692   1.860
52085W        W15644   0.914  24.483   3.353
52086W        W15645   7.784  24.639  11.498
52087W        W15646  38.522  18.638  14.983
52088W        W15647   4.208  18.694  12.997
52089W        W15648   8.879   8.707   4.715
52090W        W15649  40.466  11.846  13.890
52091W        W15650  36.592  19.155  10.957
52092W        W15651  10.797  30.413  12.373
52093W        W15652  10.866  27.119  14.015
52094W        W15653  17.091  30.531   4.795
52095W        W15654  19.255  35.884   0.311
52096W        W15655  17.244  38.435   2.722
52097W        W15656  38.385  38.454  13.904
52098W        W15657  26.474  21.528  14.457
52099W        W15658  44.958  28.159  11.536
52100W        W15659  27.669  41.858  14.823
52101W        W15660  10.245  15.297  13.353
52102W        W15661  44.332  21.202   3.708
52103W        W15662   4.893  43.387   1.329
52104W        W15663   4.414  20.122  10.613
52105W        W15664  14.700   3.355  13.401
52106W        W15665  21.743   4.901   2.713
52107W        W15666  36.083  33.124  13.808
52108W        W15667  16.079  31.502   1.736
52109W        W15668   9.793  32.506   0.325
52110W        W15669   4.448  16.686   3.788
52111W        W15670   2.320  23.066  12.047
52112W        W15671  34.554   2.906  12.836
52113W        W15672  18.231  39.955  14.461
52114W        W15673  28.560  23.148  11.599
52115W        W15674  42.935   2.443  12.559
52116W        W15675  38.918  26.188   2.314
52117W        W15676  17.750  34.883   4.669
52118W        W15677  13.665  37.485   2.721
52119W        W15678  34.458  43.379   0.394
52120W        W15679  27.995   0.786   5.234
52121W        W15680   9.384   2.334   3.761
52122W        W15681  14.689  32.415  12.529
52123W        W15682   5.362  18.265  11.460
52124W        W15683  32.535   3.461   1.875
52125W        W15684  27.673  10.831  12.034
52126W        W15685  43.427  42.432   0.868
52127W        W15686  41.331  36.473  14.785
52128W        W15687   9.646  33.924   0.345
52129W        W15688  40.312  17.240   4.687
52130W        W15689  33.565  35.979   3.825
52131W        W15690  40.353  18.791   1.306
52132W        W15691   8.876  38.826  11.960
52133W        W15692  17.700  36.062   3.263
52134W        W15693  23.990  25.677  11.089
52135W        W15694  20.173  12.166   4.126
52136W        W15695  29.072  17.785   1.387
52137W        W15696  24.074  36.432  10.487
52138W        W15697   3.275   6.679  12.401
52139W        W15698  29.130  16.575  10.481
52140W        W15699   5.888  25.146  13.461
52141W        W15700  30.560  20.138   3.239
52142W        W15701  44.857  28.482   2.192
52143W        W15702  42.388  20.626  14.853
52144W        W15703  24.125  15.605   0.842
52145W        W15704  22.249  19.115   2.716
52146W        W15705   9.674  30.156  14.514
52147W        W15706  26.113  13.743   2.307
52148W        W15707   1.764  27.133  14.402
52149W        W15708  10.202   6.841   5.201
52150W        W15709  44.357   2.336  11.578
52151W        W15710  11.366  27.139   2.244
52152W        W15711  16.570  21.550  10.565
52153W        W15712  29.987  21.548   1.856
52154W        W15713  38.932  15.259  12.426
52155W        W15714  38.872   9.855  14.420
52156W        W15715   9.684  34.470  10.939
52157W        W15716  27.672   8.274  14.856
52158W        W15717   2.859   7.797  14.799
52159W        W15718  31.496   3.868  13.819
52160W        W15719  35.593  18.050   0.287
52161W        W15720  25.649  35.496   4.626
52162W        W15721   1.847  39.496  12.904
52163W        W15722  14.094  38.457  12.991
52164W        W15723  15.789   6.374  11.607
52165W        W15724  32.607  34.929   1.702
52166W        W15725  24.716  13.829  14.882
52167W        W15726  12.272  13.340   3.828
52168W        W15727  34.576  14.712   1.913
52169W        W15728  23.638  12.259  12.492
52170W        W15729  40.461  10.634  11.075
52171W        W15730  18.057   9.380  13.043
52172W        W15731   5.701  20.541  12.389
52173W        W15732  36.388  33.462   1.827
52174W        W15733  13.201   6.297   3.187
52175W        W15734  12.706  10.301   1.258
52176W        W15735  28.104  17.765  14.859
52177W        W15736  18.052  16.756  13.843
52178W        W15737  40.012  13.757  11.440
52179W        W15738   0.806  12.622   3.714
52180W        W15739  40.364  11.647  11.887
52181W        W15740  31.630   9.796  12.866
52182W        W15741  11.270  30.453   2.363
52183W        W15742   5.933   8.686   3.828
52184W        W15743  39.436  42.390  11.558
52185W        W15744  28.447   1.866  10.427
52186W        W15745  20.685  29.160  14.938
52187W        W15746   3.291  40.500   4.669
52188W        W15747  32.895   5.322  14.841
52189W        W15748   9.868  32.090   4.769
52190W        W15749  14.168   2.957   0.736
52191W        W15750  34.955  25.214  14.384
52192W        W15751   5.804   5.695  11.446
52193W        W15752  25.502   7.844   4.164
52194W        W15753  41.378  34.465   3.863
52195W        W15754   9.760  24.500  11.937
52196W        W15755   7.172  44.325  11.412
52197W        W15756  12.336  30.958   4.163
52198W        W15757  16.764  38.365  13.051
52199W        W15758  40.384  28.576  13.971
52200W        W15759  34.525  21.706  10.423
52201W        W15760  38.947  27.683  13.931
52202W        W15761  44.492  43.351  13.320
52203W        W15762   4.365  40.475  10.595
52204W        W15763  17.664   3.925  10.424
52205W        W15764  12.231   5.816   0.254
52206W        W15765   4.936  40.458   0.929
52207W        W15766  32.474  30.573   4.787
52208W        W15767  31.098  17.707   1.405
52209W        W15768  41.959  22.693   0.362
52210W        W15769  12.648  31.009   3.167
52211W        W15770  38.450  14.166  13.369
52212W        W15771  41.864  22.023   9.953
52213W        W15772  37.570  20.214   4.325
52214W        W15773   5.719   0.306   1.710
52215W        W15774   8.819   2.771   1.430
52216W        W15775  21.238   3.276  13.486
52217W        W15776  41.876   0.829  12.004
52218W        W15777  36.098  16.090  13.912
52219W        W15778  44.968  27.019  13.034
52220W        W15779  19.171  15.622   3.284
52221W        W15780  29.463  28.077   4.756
52222W        W15781   4.286  38.568  14.498
52223W        W15782  36.364  23.613  14.326
52224W        W15783  38.821  37.872   0.908
52225W        W15784   8.402  33.442  11.925
52226W        W15785  16.709  33.583   3.330
52227W        W15786   9.319  42.804   1.249
52228W        W15787  16.739  21.181   1.790
52229W        W15788  28.475  40.942  10.563
52230W        W15789  22.580  28.644   0.940
52231W        W15790  23.227  33.118   4.245
52232W        W15791  35.591  12.355  12.961
52233W        W15792  30.962  41.967   1.885
52234W        W15793  14.194  19.568  12.931
52235W        W15794  13.288   4.841  14.487
52236W        W15795  23.159  14.764  13.800
52237W        W15796   0.464  30.554   1.228
52238W        W15797  37.854  18.051   9.983
52239W        W15798  10.800  22.228  14.963
52240W        W15799  42.819  34.550  13.924
52241W        W15800  38.467   6.365   2.867
52242W        W15801   9.868  34.961  13.908
52243W        W15802  34.991  10.813   1.364
52244W        W15803  30.489   8.208   3.855
52245W        W15804  10.841  21.259  10.549
52246W        W15805  21.246  18.692   5.132
52247W        W15806   4.213   3.839  13.878
52248W        W15807  23.209  33.591   2.688
52249W        W15808   5.848   0.370   0.750
52250W        W15809   2.780  42.910   2.348
52251W        W15810  43.499   2.910   1.781
52252W        W15811  10.380  22.039  10.544
52253W        W15812  20.710  11.666  13.310
52254W        W15813   3.247   7.354   3.312
52255W        W15814   3.788   7.681  12.837
52256W        W15815  38.909   0.267  14.883
52257W        W15816  13.252  27.034  13.534
52258W        W15817  31.119   5.925   0.391
52259W        W15818  34.017  32.604   4.616
52260W        W15819  25.531  34.550   3.261
52261W        W15820  28.639  39.881  11.440
52262W        W15821  11.231   6.913   2.817
52263W        W15822  42.786   1.947  14.505
52264W        W15823   3.862  28.563  10.603
52265W        W15824   3.380  41.801  12.577
52266W        W15825  35.461   5.833   2.766
52267W        W15826  27.978  17.178   2.747
52268W        W15827  29.058  30.414  14.849
52269W        W15828  20.682  44.795  14.384
52270W        W15829  19.762  37.889   4.703
52271W        W15830  10.749   2.409  12.884
52272W        W15831  24.205  40.419  11.977
52273W        W15832  33.394   4.757   1.868
52274W        W15833   7.706  29.015  11.024
52275W        W15834   2.434   0.350  11.401
52276W        W15835  35.602  35.453  14.362
52277W        W15836   7.839  19.200   3.198
52278W        W15837  21.048   6.185   1.731
52279W        W15838  19.667  17.691   3.266
52280W        W15839  27.624  20.732   3.639
52281W        W15840   8.287  23.013  14.011
52282W        W15841  17.744   6.256   4.129
52283W        W15842  37.983  12.762  12.471
52284W        W15843  18.550  35.891   5.265
52285W        W15844  38.478  33.616  11.122
52286W        W15845  15.614  23.501   3.284
52287W        W15846  22.080  19.217  13.509
52288W        W15847  26.024   9.206  12.069
52289W        W15848  35.507  12.169  13.540
52290W        W15849  43.375  21.112   0.423
52291W        W15850   1.237  36.372   3.757
52292W        W15851  44.809  17.800  12.840
52293W        W15852   7.890  33.999   0.319
52294W        W15853  29.168   7.199  10.487
52295W        W15854  22.007  25.612  13.029
52296W        W15855   7.395  10.216   1.277
52297W        W15856  28.588  41.411  13.888
52298W        W15857  14.671  36.534   4.600
52299W        W15858   9.820  27.999  11.560
52300W        W15859   3.414  36.958   1.830
52301W        W15860   4.782  15.647   2.716
52302W        W15861  37.399  22.232  11.050
52303W        W15862  44.804   2.943  14.495
52304W        W15863  38.858  37.397  13.792
52305W        W15864  20.755  30.087   3.822
52306W        W15865  18.777   8.848   2.322
52307W        W15866  25.618  27.637  13.834
52308W        W15867   4.838   0.934   1.380
52309W        W15868  31.029  29.502  13.953
52310W        W15869   8.681   5.769  13.503
52311W        W15870  23.613  29.044  14.365
52312W        W15871   1.478  36.404  13.415
52313W        W15872  11.679  40.543  13.023
52314W        W15873  43.318  21.209   9.965
52315W        W15874  36.511  41.436  10.001
52316W        W15875  11.805   9.670   4.624
52317W        W15876   2.358   2.246  10.527
52318W        W15877  13.619  26.088  11.610
52319W        W15878   8.341  43.832  13.890
52320W        W15879  37.885  36.088  12.856
52321W        W15880  37.522  30.930  14.432
52322W        W15881  17.067   1.406   1.810
52323W        W15882  22.693  44.902   4.154
52324W        W15883  36.093  22.651   3.780
52325W        W15884   1.927  33.973  14.359
52326W        W15885  19.748  34.451   2.247
52327W        W15886   0.389  24.487  11.112
52328W        W15887  22.595  30.477   2.223
52329W        W15888  35.476  12.160  14.968
52330W        W15889  19.149  17.609   2.189
52331W        W15890  41.824  36.406  11.573
52332W        W15891  25.653  32.431   4.746
52333W        W15892  28.060  20.620  10.511
52334W        W15893  44.336  35.975  11.011
52335W        W15894  14.767   0.793   0.359
52336W        W15895  11.371  21.555   3.287
52337W        W15896   0.430   7.217   1.365
52338W        W15897  16.139  15.625  12.564
52339W        W15898   0.489  21.634   0.442
52340W        W15899  27.013  36.939   2.821
52341W        W15900  38.546  18.581   4.181
52342W        W15901   1.413  44.410  13.351
52343W        W15902  27.522  18.561  11.518
52344W        W15903   5.864  39.942   2.403
52345W        W15904   5.419  36.355  12.535
52346W        W15905  28.475  16.604  13.912
52347W        W15906  22.593  40.982   2.754
52348W        W15907   4.231  22.054   0.450
52349W        W15908  13.816  33.430  12.065
52350W        W15909  18.767  29.611   3.652
52351W        W15910   6.779  34.090  11.995
52352W        W15911  38.903  42.783   5.239
52353W        W15912  39.960  32.446   5.744
52354W        W15913  16.186  26.493   4.205
52355W        W15914  44.384  33.954  11.066
52356W        W15915  29.554  30.499  14.284
52357W        W15916   7.396  25.200  12.382
52358W        W15917  42.876  43.982  11.888
52359W        W15918   1.743  36.871  14.808
52360W        W15919  34.956  43.416   3.196
52361W        W15920  37.509  43.408  14.805
52362W        W15921  21.152  28.004  12.042
52363W        W15922  29.462   2.457  10.406
52364W        W15923   0.374  23.991  14.919
52365W        W15924  36.945  40.826   4.804
52366W        W15925   2.890  30.104   3.697
52367W        W15926  28.983  11.207   0.371
52368W        W15927  12.783  44.006  12.967
52369W        W15928   2.433  41.954  10.494
52370W        W15929  17.571  36.962  13.512
52371W        W15930  16.181  38.945   1.309
52372W        W15931  38.950  20.052  14.397
52373W        W15932  15.275   6.347  13.887
52374W        W15933  22.703  16.144   4.218
52375W        W15934  33.383  25.155  14.773
52376W        W15935  35.969  33.556   2.216
52377W        W15936  36.548  34.507   0.269
52378W        W15937   0.892  18.268   3.149
52379W        W15938   5.203  14.209   4.782
52380W        W15939  24.660   5.897  12.894
52381W        W15940  13.325  23.068  12.435
52382W        W15941   0.484   4.781  12.439
52383W        W15942  27.667   1.316  13.034
52384W        W15943  31.614   0.322  13.401
52385W        W15944  18.611  32.939   2.313
52386W        W15945  27.119  41.014  13.804
52387W        W15946  32.413  31.132  12.454
52388W        W15947  15.656  37.394  10.433
52389W        W15948  21.080  40.494  10.995
52390W        W15949  25.612  42.906  12.529
52391W        W15950   0.792  39.015  12.042
52392W        W15951   4.894  17.233   1.351
52393W        W15952   1.914  36.505  11.439
52394W        W15953  10.726  16.143   2.758
52395W        W15954  21.238  16.316   3.192
52396W        W15955   5.778  14.738  13.360
52397W        W15956   0.379  44.951   4.678
52398W        W15957  40.806  22.051  10.645
52399W        W15958   2.879   4.361  11.590
52400W        W15959  10.841  28.969   1.371
52401W        W15960   0.373  17.595  14.957
52402W        W15961   2.966  33.943   2.790
52403W        W15962  20.553   5.210   2.722
52404W        W15963  18.639  12.624  10.482
52405W        W15964  36.996  38.504  13.512
52406W        W15965  19.634   1.365   4.794
52407W        W15966  38.390  29.098   2.737
52408W        W15967  30.019  32.566  11.023
52409W        W15968  26.520  17.627   2.696
52410W        W15969  16.177  43.335   0.368
52411W        W15970  27.529   5.433   1.730
52412W        W15971  22.593  21.195   2.333
52413W        W15972  39.545   8.779   3.705
52414W        W15973  29.133   2.793   3.274
52415W        W15974  17.122  14.176   0.828
52416W        W15975   6.893  37.466   4.326
52417W        W15976  37.879  36.428   3.757
52418W        W15977  14.831  18.777   1.241
52419W        W15978  11.639   4.232   3.753
52420W        W15979  41.531  36.025   2.828
52421W        W15980  16.273  39.925   4.719
52422W        W15981  33.420  23.583   0.754
52423W        W15982  31.151  36.501  11.860
52424W        W15983  42.509  26.606  11.047
52425W        W15984   9.656  24.215   4.740
52426W        W15985  37.878  27.030  12.487
52427W        W15986  13.694  17.307   2.805
52428W        W15987   5.434  39.042   2.689
52429W        W15988  12.659  21.702  11.380
52430W        W15989  35.076  38.073   2.678
52431W        W15990   9.260  35.415  13.965
52432W        W15991  26.573  29.026   3.803
52433W        W15992  18.171  34.887  11.434
52434W        W15993  29.144  23.988  10.973
52435W        W15994  29.664  12.787  13.809
52436W        W15995  23.566  44.784   0.963
52437W        W15996  12.144  28.467  12.863
52438W        W15997  42.310   5.331   0.879
52439W        W15998   2.471  33.114  10.642
52440W        W15999   9.303  38.418  12.416
52441W        W16000  15.105  12.760  11.106
52442W        W16001   8.216  25.006  13.422
52443W        W16002  20.553  12.154  12.870
52444W        W16003  19.736   2.922  11.981
52445W        W16004   9.207  41.490   2.185
52446W        W16005   6.190  40.821   1.784
52447W        W16006  29.997  41.523   1.917
52448W        W16007  33.455  38.567  11.939
52449W        W16008   8.859  19.606  13.959
52450W        W16009   3.799  17.227  12.352
52451W        W16010  13.767  15.613   1.880
52452W        W16011  20.053  19.044  12.570
52453W        W16012   3.776  10.306  10.141
52454W        W16013  35.950  17.681  13.888
52455W        W16014   2.298  27.087  12.994
52456W        W16015   4.261  27.059   4.735
52457W        W16016  11.720  11.161   4.336
52458W        W16017  21.529  27.475   2.177
52459W        W16018  29.620  11.198   0.351
52460W        W16019  33.065   7.172   0.440
52461W        W16020  11.140  30.597   0.865
52462W        W16021  14.329  43.312   2.679
52463W        W16022  28.435   2.914  11.098
52464W        W16023  31.930  16.776   1.851
52465W        W16024  43.933  36.560  11.480
52466W        W16025  18.650  37.449  11.033
52467W        W16026  22.140  31.491  11.862
52468W        W16027  43.984  30.620  11.470
52469W        W16028  18.260   5.806  13.858
52470W        W16029   9.337  23.493   4.223
52471W        W16030  33.491  41.993   9.628
52472W        W16031  21.683   2.343  10.970
52473W        W16032   9.793  38.541  13.514
52474W        W16033  24.083  14.143  12.968
52475W        W16034  15.600  12.752  13.482
52476W        W16035  43.799  44.990   4.681
52477W        W16036  22.513  17.106   0.350
52478W        W16037  32.502  32.116   4.630
52479W        W16038   7.802  36.038  12.827
52480W        W16039  24.028  21.641   0.392
52481W        W16040  10.293   5.252   4.283
52482W        W16041   4.285  26.562  12.440
52483W        W16042  41.321  27.103  11.101
52484W        W16043  38.977   6.351  13.409
52485W        W16044  33.560  26.571  10.938
52486W        W16045  23.730  19.262  13.024
52487W        W16046  23.107  24.550   1.854
52488W        W16047  15.091  36.939   0.757
52489W        W16048  21.152   8.836  14.336
52490W        W16049   7.670  18.237  14.908
52491W        W16050  25.127  14.764  13.358
52492W        W16051   0.485  43.467   3.262
52493W        W16052  27.596  31.486  11.901
52494W        W16053   4.785  34.099  13.997
52495W        W16054  36.413  35.987   3.648
52496W        W16055  24.556  41.438   3.188
52497W        W16056   8.758  40.397  10.931
52498W        W16057  36.868  42.492  14.323
52499W        W16058  27.027  31.445   1.766
52500W        W16059  29.523  10.250  14.920
52501W        W16060  28.142  18.066   4.228
52502W        W16061  36.025  27.550  12.833
52503W        W16062   0.805  21.036  13.003
52504W        W16063  30.501  11.670   0.427
52505W        W16064   4.389  14.730   4.725
52506W        W16065   1.737  30.606  13.339
52507W        W16066  15.770   3.797  13.380
52508W        W16067  27.502   8.740   2.734
52509W        W16068   5.208  36.965  14.490
52510W        W16069  22.539  32.938   5.117
52511W        W16070  25.123  41.865   3.229
52512W        W16071  11.769  40.831  11.024
52513W        W16072  26.026  28.170  11.911
52514W        W16073   3.847  21.565  12.010
52515W        W16074   9.735  19.222  11.055
52516W        W16075   6.854   8.875   4.352
52517W        W16076  34.055  13.602  12.077
52518W        W16077  32.623  13.769   1.790
52519W        W16078  25.561  17.146   2.407
52520W        W16079  37.908  38.334  13.810
52521W        W16080  33.613  20.715  12.921
52522W        W16081  43.349  32.513   1.396
52523W        W16082  25.630  16.673   1.226
52524W        W16083  35.017  16.567   2.887
52525W        W16084   2.949  42.854  13.417
52526W        W16085  17.066  23.996  14.028
52527W        W16086  15.645  41.039   2.334
52528W        W16087  11.681  19.147   9.964
52529W        W16088  36.374  42.497   0.475
52530W        W16089  27.972  14.724   4.658
52531W        W16090  21.127  22.139  14.404
52532W        W16091   5.772  20.066  10.561
52533W        W16092  43.978  20.569  11.505
52534W        W16093  34.427  30.117   4.646
52535W        W16094   9.650  25.187  14.813
52536W        W16095  42.308  35.867   2.192
52537W        W16096  32.554  14.774   0.454
52538W        W16097  20.645  41.354   3.229
52539W        W16098   7.378  21.258   0.862
52540W        W16099   9.224  21.242   4.756
52541W        W16100   0.921  18.094   0.967
52542W        W16101  27.613  21.209   3.775
52543W        W16102  28.074  26.677   3.360
52544W        W16103  20.550  20.088  13.332
52545W        W16104   0.363  12.241  12.542
52546W        W16105  31.445  14.182  13.873
52547W        W16106  10.686  32.961  11.524
52548W        W16107  31.091  12.281   2.298
52549W        W16108  26.077  37.894   3.801
52550W        W16109  26.122  27.624  10.434
52551W        W16110  40.978  34.438  10.480
52552W        W16111  19.089  13.147   1.837
52553W        W16112   2.962   7.317   3.260
52554W        W16113  22.647  19.048   4.132
52555W        W16114   2.400  38.466  14.324
52556W        W16115  32.140  19.752   0.423
52557W        W16116  41.866  19.110  14.004
52558W        W16117  40.033  24.080   2.415
52559W        W16118  35.509   5.826   3.350
52560W        W16119  32.968   2.823   4.128
52561W        W16120  33.085  14.704   0.398
52562W        W16121  18.114   9.741   3.146
52563W        W16122  28.625  20.637  13.804
52564W        W16123  15.195   6.815  13.428
52565W        W16124  17.784  11.782   4.215
52566W        W16125  23.627  35.462   4.630
52567W        W16126   7.820   6.825   4.791
52568W        W16127  35.537   3.346  13.480
52569W        W16128  25.695  24.162   3.670
52570W        W16129  20.621  28.536   2.869
52571W        W16130  32.107  10.864  12.561
52572W        W16131  31.494   0.929   3.656
52573W        W16132   1.372  24.512   1.306
52574W        W16133  13.728  10.836  12.076
52575W        W16134  20.655  19.677  11.499
52576W        W16135  16.136  22.728   0.453
52577W        W16136   6.693  23.103  10.458
52578W        W16137  20.260  21.577  11.408
52579W        W16138   6.799  22.220   2.731
52580W        W16139  34.011  27.546   0.882
52581W        W16140  15.156   6.917   1.321
52582W        W16141  34.597  38.023   1.305
52583W        W16142   7.890  37.351   2.364
52584W        W16143  17.633  35.045   0.832
52585W        W16144  13.620  32.024  13.838
52586W        W16145   0.417  30.112  10.531
52587W        W16146   3.934  37.062  13.308
52588W        W16147  34.932  36.382   4.316
52589W        W16148  25.568  41.467  14.028
52590W        W16149  39.057  16.623   3.290
52591W        W16150  10.765   1.731   4.813
52592W        W16151  14.208  23.214  14.396
52593W        W16152  25.006  15.164  13.810
52594W        W16153  36.547  30.433  10.068
52595W        W16154  20.048  23.538   3.248
52596W        W16155  35.425   1.809  11.399
52597W        W16156   3.789   8.812  10.436
52598W        W16157  26.565  20.045  11.586
52599W        W16158  39.319  20.592   1.799
52600W        W16159  44.341  25.075  14.325
52601W        W16160  32.977  22.140   1.863
52602W        W16161  31.481   3.268   1.340
52603W        W16162  24.618  32.602   1.784
52604W        W16163  29.530   8.326  12.978
52605W        W16164   3.802  41.831   1.827
52606W        W16165  29.634  19.618  12.899
52607W        W16166  28.652  43.008  12.078
52608W        W16167  36.409  24.108   3.372
52609W        W16168  34.590  40.861   2.247
52610W        W16169  11.147  20.258  14.343
52611W        W16170  44.266  37.881  13.537
52612W        W16171  40.951  11.272   3.276
52613W        W16172  16.579  18.659   1.339
52614W        W16173  10.848  40.834  10.948
52615W        W16174  10.720  17.068   0.242
52616W        W16175  43.478  41.837   2.721
52617W        W16176  22.741  43.891  14.481
52618W        W16177  10.295   1.454   2.724
52619W        W16178   1.732   4.288   1.862
52620W        W16179   3.429   2.952   1.402
52621W        W16180   3.771   7.414  13.953
52622W        W16181  38.506   6.717  10.423
52623W        W16182  44.857  23.694   0.803
52624W        W16183  20.649  19.596   0.309
52625W        W16184   1.964  44.311  11.022
52626W        W16185  31.089  22.998  13.449
52627W        W16186  26.532  23.216   4.261
52628W        W16187   7.885  31.985  14.883
52629W        W16188  25.114  23.645  11.032
52630W        W16189   6.908  40.468   3.175
52631W        W16190  41.853  37.882   4.159
52632W        W16191   2.821   7.760   2.313
52633W        W16192  36.416   0.942   4.702
52634W        W16193  29.162  34.591   1.882
52635W        W16194  14.205   9.353   0.860
52636W        W16195  43.822  35.942  14.987
52637W        W16196  37.581   7.909  12.366
52638W        W16197  39.322  30.493  13.424
52639W        W16198  41.836   3.430   0.807
52640W        W16199  29.997  15.762   3.763
52641W        W16200  19.208   6.424  11.553
52642W        W16201  10.302  21.551   0.352
52643W        W16202  14.146  31.647   3.206
52644W        W16203   6.275  32.926  12.552
52645W        W16204  29.492  33.400   2.747
52646W        W16205  19.697  29.625  14.798
52647W        W16206  36.043  36.516  14.396
52648W        W16207   0.935  39.385   2.188
52649W        W16208   9.675  20.712  12.451
52650W        W16209  18.715  35.853  10.582
52651W        W16210  14.102  18.772  13.396
52652W        W16211  18.169  21.635  12.069
52653W        W16212  11.229  37.974   5.801
52654W        W16213  24.169  16.778  11.553
52655W        W16214  25.600   6.890  14.781
52656W        W16215  39.411   6.715   3.674
52657W        W16216  11.663  40.441  14.449
52658W        W16217  30.149  20.760  11.456
52659W        W16218  34.919  44.820   2.201
52660W        W16219  20.754  35.486  10.467
52661W        W16220  21.700  39.976   3.822
52662W        W16221  44.809  42.473  14.387
52663W        W16222  36.412   2.798   4.236
52664W        W16223  41.338  44.364   4.598
52665W        W16224  42.460  37.373  14.392
52666W        W16225  34.944   8.697  13.916
52667W        W16226  39.853  42.510  10.552
52668W        W16227  42.356   0.968   0.418
52669W        W16228  11.731  27.582   1.323
52670W        W16229  41.041   8.208  10.517
52671W        W16230  28.942  35.082   0.916
52672W        W16231  39.550  23.143  14.776
52673W        W16232  43.872  25.017   4.264
52674W        W16233  19.200  35.961   3.646
52675W        W16234  37.078  16.185   1.254
52676W        W16235  25.596  34.498  12.882
52677W        W16236  37.383  10.842   2.853
52678W        W16237  25.713  11.349   2.365
52679W        W16238   6.921  41.000   3.716
52680W        W16239   9.746  33.565  12.865
52681W        W16240  15.277  10.655   3.816
52682W        W16241  29.490   1.760   4.774
52683W        W16242  23.543  23.532   1.831
52684W        W16243   4.898  39.336  13.834
52685W        W16244  29.446  31.570   4.214
52686W        W16245  36.083  14.630   0.418
52687W        W16246  25.068  41.446  13.932
52688W        W16247  19.119  18.749   1.434
52689W        W16248  41.347  26.566   2.699
52690W        W16249  41.029  28.173  11.512
52691W        W16250  19.236  24.018   4.744
52692W        W16251  15.603  38.464   0.908
52693W        W16252  18.245  15.295   3.644
52694W        W16253  19.565   8.247   1.269
52695W        W16254  14.628  30.522  12.993
52696W        W16255  33.068  30.037   4.140
52697W        W16256   3.424   2.437  14.007
52698W        W16257  18.696  15.091   0.284
52699W        W16258  21.215  21.576  11.866
52700W        W16259   7.337  28.452  11.397
52701W        W16260  30.535   0.758  10.966
52702W        W16261  35.887  20.252   1.869
52703W        W16262  12.640  17.798  14.402
52704W        W16263  38.487   0.465   0.796
52705W        W16264  39.956   6.853  12.075
52706W        W16265  18.203   3.337   1.390
52707W        W16266   0.267  13.739  11.036
52708W        W16267  29.089  36.859  12.440
52709W        W16268   4.355  36.016   4.641
52710W        W16269   6.401   3.219  14.357
52711W        W16270  34.453  35.915   4.307
52712W        W16271  34.544  29.148  10.404
52713W        W16272   7.184  15.586  11.567
52714W        W16273  18.126   6.805  14.795
52715W        W16274  43.933  12.687   0.288
52716W        W16275  17.255  19.708   5.231
52717W        W16276  14.686  10.750  10.075
52718W        W16277  39.842  42.454   3.751
52719W        W16278  21.567  33.432  12.057
52720W        W16279   7.815  13.641   4.689
52721W        W16280  44.852  39.916   4.293
52722W        W16281  10.858   8.333   4.186
52723W        W16282  29.603  32.942   1.322
52724W        W16283  24.055  35.434  11.863
52725W        W16284  21.260  39.361  14.761
52726W        W16285  35.888  21.742  11.005
52727W        W16286   0.380  33.038  11.958
52728W        W16287  10.733  16.299   5.284
52729W        W16288  22.092   1.755   1.407
52730W        W16289  41.502  44.358   2.219
52731W        W16290  12.206  16.692   0.414
52732W        W16291  30.471  14.642  11.976
52733W        W16292   8.317  10.761   4.814
52734W        W16293   9.833  38.413  10.410
52735W        W16294  41.304  23.573  14.897
52736W        W16295  18.699  42.903   2.727
52737W        W16296  35.950  26.122  11.459
52738W        W16297  30.135  43.302  13.508
52739W        W16298  29.470  29.561  14.801
52740W        W16299  12.623   5.355   2.354
52741W        W16300  18.638  34.914  13.970
52742W        W16301  15.139  28.541   2.674
52743W        W16302  24.530  14.598   0.258
52744W        W16303  19.589  38.063   2.780
52745W        W16304   0.969  12.613  14.278
52746W        W16305  35.863  36.000  10.495
52747W        W16306   6.211   4.369   1.753
52748W        W16307   3.289  22.087  12.394
52749W        W16308  34.528  35.427  12.994
52750W        W16309   9.313  30.065  11.406
52751W        W16310  27.126  22.573   1.271
52752W        W16311   7.793  16.659   1.736
52753W        W16312  18.253  38.044   2.356
52754W        W16313  30.540  24.655   1.388
52755W        W16314  19.080  39.367   4.353
52756W        W16315  16.629   4.912  11.438
52757W        W16316  37.541   0.923  12.835
52758W        W16317  18.627  36.019  14.921
52759W        W16318   6.717  29.943   1.430
52760W        W16319  34.882  19.666  14.884
52761W        W16320  42.465  21.663  12.867
52762W        W16321  17.237  21.199  13.809
52763W        W16322  31.435  40.316   5.759
52764W        W16323   4.750   2.836   1.867
52765W        W16324  14.733   3.241  12.419
52766W        W16325  11.212   1.772   3.155
52767W        W16326  17.158  44.448   1.707
52768W        W16327  24.629  19.779   4.350
52769W        W16328   3.282  20.636   0.314
52770W        W16329  12.188  26.494   4.723
52771W        W16330  10.311  12.217   2.768
52772W        W16331  20.685   1.896  12.845
52773W        W16332  10.648  19.697  10.415
52774W        W16333   4.316  22.996  13.942
52775W        W16334   7.215  35.916  14.863
52776W        W16335  35.534  30.444  11.582
52777W        W16336  42.446  11.353   2.873
52778W        W16337  34.983  28.640  12.991
52779W        W16338   7.183  20.744  13.061
52780W        W16339  24.982  24.194  11.412
52781W        W16340  32.886   4.938  13.459
52782W        W16341  42.347   3.327   4.227
52783W        W16342   0.462  22.123   0.337
52784W        W16343  30.575  18.238  11.595
52785W        W16344  30.055  26.680  12.521
52786W        W16345   6.290   4.441  13.414
52787W        W16346  31.045  35.541  14.797
52788W        W16347  33.025  34.952   4.350
52789W        W16348  30.991  18.660   3.677
52790W        W16349  41.007  18.781  14.480
52791W        W16350  11.829  28.990   0.367
52792W        W16351  21.631  23.988  13.384
52793W        W16352  34.990   8.333   4.275
52794W        W16353   6.735  34.094   1.725
52795W        W16354  30.448  17.639  13.496
52796W        W16355  41.946  33.505   0.481
52797W        W16356  40.413  27.638  13.968
52798W        W16357  13.782  32.419  12.532
52799W        W16358  20.600  16.203   0.865
52800W        W16359  11.850  28.624   0.282
52801W        W16360  12.636  33.923  11.965
52802W        W16361   9.884  27.618   0.908
52803W        W16362  34.458  23.994   2.801
52804W        W16363  17.744   3.906   2.762
52805W        W16364  43.926  32.947  11.982
52806W        W16365   9.764  33.978   4.287
52807W        W16366   3.416  20.584   2.266
52808W        W16367  33.553   1.279  11.929
52809W        W16368  42.975  32.626  10.577
52810W        W16369  29.587  27.506   0.785
52811W        W16370  20.171  27.016   2.190
52812W        W16371  18.615  36.452   1.929
52813W        W16372  22.158  11.363   1.822
52814W        W16373  13.732  10.308   3.791
52815W        W16374  25.024  13.778  11.400
52816W        W16375  22.155  34.533   1.374
52817W        W16376  23.995  33.981  14.460
52818W        W16377  39.354  29.150  13.050
52819W        W16378  25.035  25.624   4.774
52820W        W16379  12.688  35.914  14.474
52821W        W16380   0.407  10.253  12.502
52822W        W16381  17.268  11.632  11.599
52823W        W16382  43.321  31.511  14.926
52824W        W16383  40.504   1.905   5.161
52825W        W16384  19.577  40.396   0.790
52826W        W16385  17.265  23.641   0.941
52827W        W16386  27.497  38.460  13.381
52828W        W16387  41.463  44.483   0.887
52829W        W16388  12.797  26.013  10.938
52830W        W16389  30.425  37.340  10.122
52831W        W16390  16.759  11.136   4.132
52832W        W16391  17.609  21.668   1.870
52833W        W16392   7.229  10.310   2.206
52834W        W16393  14.803  14.196  13.544
52835W        W16394  31.004  28.127   0.296
52836W        W16395  33.586  21.095   4.671
52837W        W16396  30.061  14.158  13.461
52838W        W16397  16.810   5.243  12.398
52839W        W16398  44.380  36.022  12.546
52840W        W16399   7.744   1.966   2.247
52841W        W16400   9.176  20.196  10.639
52842W        W16401  25.006  17.165   2.254
52843W        W16402  26.644  30.443   4.718
52844W        W16403  38.941  24.194  12.465
52845W        W16404   2.456   8.892   3.267
52846W        W16405   3.279  19.708  13.972
52847W        W16406  39.452   7.671   1.287
52848W        W16407  27.458  38.919   3.296
52849W        W16408   6.807  19.596  14.317
52850W        W16409   6.211  33.533   3.683
52851W        W16410   0.820  23.212   3.681
52852W        W16411  12.155   9.830   1.719
52853W        W16412  16.703   5.857   1.851
52854W        W16413  28.145  10.708  11.940
52855W        W16414  35.499  41.520  12.435
52856W        W16415   9.319  38.505  11.558
52857W        W16416   1.847  41.490   3.803
52858W        W16417  42.492   8.238   3.743
52859W        W16418   7.242  43.947  12.461
52860W        W16419  44.285  15.695  10.526
52861W        W16420   1.271  25.988   1.779
52862W        W16421  30.102  11.338   3.694
52863W        W16422  26.583  23.163   2.768
52864W        W16423  31.987  23.713  14.900
52865W        W16424  16.283   0.918   1.213
52866W        W16425  21.021  18.706  14.865
52867W        W16426  16.119   7.879  10.111
52868W        W16427  19.688  39.471   4.172
52869W        W16428  37.506  42.852   9.926
52870W        W16429   8.168   4.430  12.042
52871W        W16430  35.026  41.867   0.903
52872W        W16431   7.398  41.452  10.554
52873W        W16432  13.172  22.695   3.356
52874W        W16433  28.155  26.593   1.250
52875W        W16434  32.512  16.750   1.713
52876W        W16435  36.559   6.244  14.923
52877W        W16436  12.196  11.347  10.984
52878W        W16437  17.294  14.257   2.267
52879W        W16438  42.019  14.656   2.354
52880W        W16439  36.088   9.165   2.221
52881W        W16440  17.180  40.381   4.333
52882W        W16441  41.523  39.034   4.625
52883W        W16442   5.261  29.960  13.880
52884W        W16443  27.678  12.739  12.981
52885W        W16444  29.083   8.712   4.193
52886W        W16445   8.351  14.670  12.416
52887W        W16446  20.617  16.789   2.364
52888W        W16447  10.147   5.877   0.370
52889W        W16448  13.297  15.226   0.398
52890W        W16449  10.248   3.236  14.811
52891W        W16450   4.735   2.866   0.291
52892W        W16451  16.724  42.470   4.680
52893W        W16452  24.996  39.447   0.395
52894W        W16453   1.290  36.377  12.411
52895W        W16454  30.051  12.348  14.318
52896W        W16455  12.187  13.711  12.557
52897W        W16456  25.476  36.061  10.626
52898W        W16457  12.840  31.544  14.498
52899W        W16458   8.825  33.482   1.265
52900W        W16459  26.137  16.737  13.545
52901W        W16460  38.960  44.801   1.857
52902W        W16461  26.592  23.523  10.139
52903W        W16462  22.536  17.250  10.891
52904W        W16463   1.438  12.173  10.509
52905W        W16464  25.604  17.654   0.757
52906W        W16465  41.325  37.984  13.540
52907W        W16466   0.284  35.967  14.991
52908W        W16467  19.138  39.449   0.281
52909W        W16468  27.555   4.357  12.546
52910W        W16469   2.905   0.412  14.940
52911W        W16470  37.566  31.588   3.286
52912W        W16471  44.754   4.920   2.760
52913W        W16472  32.120  43.291   2.285
52914W        W16473  15.102  34.963   2.758
52915W        W16474  39.830  16.688  13.459
52916W        W16475  39.370  12.120   1.436
52917W        W16476  12.715  14.145  12.056
52918W        W16477  42.992   1.832  11.907
52919W        W16478  35.411   0.302   3.709
52920W        W16479  40.442  27.469   0.468
52921W        W16480  13.816   6.711   5.119
52922W        W16481   8.750   4.231   1.845
52923W        W16482   4.710  30.466   9.926
52924W        W16483   0.922  11.260   1.930
52925W        W16484  27.577  42.907  13.385
52926W        W16485   9.756   7.842   0.927
52927W        W16486  15.669  18.250  11.911
52928W        W16487  25.091   5.776  10.405
52929W        W16488  31.433  36.882  12.951
52930W        W16489  29.963  38.545   2.389
52931W        W16490  34.912  30.599   4.190
52932W        W16491   1.439  15.762  10.563
52933W        W16492  17.292  25.621   1.878
52934W        W16493  30.641  16.730   1.324
52935W        W16494  42.928  28.064   0.931
52936W        W16495  19.264  29.011  14.417
52937W        W16496  23.053  17.238  11.403
52938W        W16497  18.643  33.535   1.365
52939W        W16498  14.329  27.503   1.231
52940W        W16499  11.786  41.445   3.846
52941W        W16500  30.508   8.262  13.847
52942W        W16501   1.432  33.518   3.150
52943W        W16502  42.932  29.528   3.215
52944W        W16503  40.395  40.387   0.326
52945W        W16504  34.464  18.172   4.813
52946W        W16505  18.195  13.290  10.589
52947W        W16506  16.094  27.653  13.447
52948W        W16507  17.748  40.485   4.242
52949W        W16508  18.775  42.821   0.798
52950W        W16509  40.830   7.294   0.288
52951W        W16510   9.801  42.009  12.416
52952W        W16511  12.720  26.983  14.928
52953W        W16512  16.133  24.125  12.355
52954W        W16513  31.625  37.556   1.325
52955W        W16514  33.039   0.961  10.417
52956W        W16515  33.532   8.689   2.855
52957W        W16516  33.499   9.716   1.438
52958W        W16517  25.674  31.921   1.261
52959W        W16518  26.048  19.176   3.636
52960W        W16519  23.734  12.154  12.959
52961W        W16520  13.131  40.054  12.972
52962W        W16521  43.014  36.959   2.803
52963W        W16522   2.405   2.728  14.808
52964W        W16523  39.356   1.849   4.232
52965W        W16524   8.167  13.705   3.208
52966W        W16525  36.898  18.285   0.334
52967W        W16526  17.195  16.621   0.396
52968W        W16527  29.646  44.806  12.951
52969W        W16528  39.911  12.780  11.541
52970W        W16529  10.287  10.231  13.345
52971W        W16530  27.069  36.354   4.642
52972W        W16531  32.432   1.906   0.759
52973W        W16532   1.783  14.125  12.063
52974W        W16533  13.111  43.923   2.311
52975W        W16534   6.708   8.842   1.344
52976W        W16535   7.180  23.567   1.364
52977W        W16536  34.394  16.176  13.390
52978W        W16537   1.804   5.715   2.190
52979W        W16538  16.767   8.892  13.965
52980W        W16539   6.732  21.703   3.846
52981W        W16540  35.560  18.277  14.913
52982W        W16541   7.751  40.923   3.357
52983W        W16542  36.421  43.896  14.869
52984W        W16543  44.333  21.612  13.455
52985W        W16544   9.703  25.622  10.591
52986W        W16545  13.765  15.317  13.366
52987W        W16546  36.584  32.129   4.208
52988W        W16547  14.285  18.050   4.191
52989W        W16548  19.754  10.201   3.366
52990W        W16549   3.804  29.642  11.609
52991W        W16550  28.670  42.394   0.944
52992W        W16551   7.296  21.199  10.421
52993W        W16552  18.146  14.305  14.401
52994W        W16553  39.946   0.489  10.920
52995W        W16554  18.060  42.889   4.201
52996W        W16555  14.741  29.585  13.483
52997W        W16556  18.691   0.315   1.451
52998W        W16557  32.012  21.201   0.399
52999W        W16558  27.488   9.275   0.731
53000W        W16559  18.771  12.841   3.267
53001W        W16560  22.155  19.671   0.367
53002W        W16561  21.549  17.579   1.699
53003W        W16562  31.086  19.062  12.825
53004W        W16563  17.744  21.588   0.332
53005W        W16564  25.656  12.730   1.914
53006W        W16565   2.365  13.128  11.081
53007W        W16566  27.014  20.088   1.910
53008W        W16567  42.803   4.896  11.917
53009W        W16568  30.926  29.936   3.804
53010W        W16569  21.052  43.938   0.377
53011W        W16570  19.579   2.760  14.435
53012W        W16571  23.040  10.252   9.540
53013W        W16572  14.193  30.575  13.506
53014W        W16573  37.549  13.296   5.209
53015W        W16574  16.737  19.085   0.788
53016W        W16575  29.571   2.749   4.149
53017W        W16576  25.019  39.409   1.244
53018W        W16577  12.687  27.971  11.073
53019W        W16578  27.554  39.025  13.353
53020W        W16579  42.327  40.851   4.818
53021W        W16580  24.169  25.525   4.354
53022W        W16581  17.785  19.718  14.789
53023W        W16582  17.770  41.894  13.334
53024W        W16583  38.453  18.587  13.392
53025W        W16584  17.693  31.485  12.446
53026W        W16585  26.193  31.033  10.605
53027W        W16586   0.429   0.270   1.916
53028W        W16587  39.435   8.718  13.931
53029W        W16588  28.010  28.180  12.480
53030W        W16589  12.850   7.681  14.985
53031W        W16590  44.904  30.111   0.871
53032W        W16591  42.452   6.697  10.590
53033W        W16592  43.962   5.721   4.609
53034W        W16593  19.258  27.111   1.272
53035W        W16594  36.908  17.232   0.907
53036W        W16595  41.351   4.246  12.849
53037W        W16596  12.197  28.617   4.233
53038W        W16597  39.529  14.706   2.404
53039W        W16598  41.468  10.293   4.190
53040W        W16599  39.356   6.869  13.528
53041W        W16600  32.621  26.096  12.018
53042W        W16601   7.245   0.754  14.931
53043W        W16602  35.402  17.660  14.898
53044W        W16603  22.058  16.151   3.638
53045W        W16604  15.243   7.784  11.899
53046W        W16605   6.407  22.557   3.295
53047W        W16606  27.191   8.694   4.228
53048W        W16607  15.265  16.090  11.898
53049W        W16608   3.426  37.489   1.230
53050W        W16609   9.305  11.330  13.998
53051W        W16610  40.960  33.874   0.879
53052W        W16611  23.726  22.185   0.902
53053W        W16612  20.749  24.635   0.876
53054W        W16613  13.213  32.081  12.983
53055W        W16614   7.292  19.128   1.914
53056W        W16615  20.738  16.190  13.319
53057W        W16616  35.549  19.612   3.309
53058W        W16617  30.601  15.171  10.552
53059W        W16618  22.185  18.087  14.775
53060W        W16619  35.918  31.573  14.032
53061W        W16620  12.752  11.310  14.981
53062W        W16621   5.358   8.827  14.300
53063W        W16622  33.533  44.268  14.975
53064W        W16623  23.522  28.650  14.975
53065W        W16624  44.766  11.183  10.437
53066W        W16625   1.912  10.177   5.144
53067W        W16626  39.558  41.463  14.427
53068W        W16627  32.993  27.514  11.101
53069W        W16628   9.224   4.427   0.378
53070W        W16629  44.317  14.831   1.865
53071W        W16630   4.308  26.039   1.213
53072W        W16631  26.034  16.617  11.871
53073W        W16632  32.598  32.588  12.941
53074W        W16633  41.811   6.396   1.782
53075W        W16634   2.850   8.401   0.890
53076W        W16635  26.603  32.576   5.210
53077W        W16636  17.125  30.592   1.242
53078W        W16637  39.382  44.457   1.763
53079W        W16638  11.323  26.558  11.557
53080W        W16639  21.122  26.137  12.555
53081W        W16640   9.289  11.373   9.626
53082W        W16641  32.413  19.214   0.808
53083W        W16642   0.790  36.994   4.633
53084W        W16643  27.591  14.724   0.342
53085W        W16644  42.810   7.777   0.353
53086W        W16645  18.696  36.936  13.504
53087W        W16646  26.508  23.997  14.285
53088W        W16647  19.694  16.617  11.494
53089W        W16648  22.633  26.089   9.920
53090W        W16649  37.364  43.982   2.300
53091W        W16650  36.996  37.047  11.504
53092W        W16651  11.221  25.637  11.096
53093W        W16652  15.297  38.492  12.453
53094W        W16653  29.559   5.750  11.004
53095W        W16654  40.026  20.203   2.191
53096W        W16655  34.993  41.401   3.200
53097W        W16656  39.908  32.508   4.242
53098W        W16657   0.361  10.860  13.823
53099W        W16658  20.035   5.752  14.904
53100W        W16659   7.678  22.580  14.902
53101W        W16660   6.700  14.751   1.437
53102W        W16661  19.164  31.489   3.177
53103W        W16662  44.763   0.882  14.894
53104W        W16663  18.145  34.061   1.915
53105W        W16664  34.551  42.962   2.736
53106W        W16665  40.468  28.637  14.972
53107W        W16666  42.879  43.826  12.496
53108W        W16667  42.020  23.216   1.311
53109W        W16668  40.930  21.018  12.026
53110W        W16669  32.418  26.611  12.379
53111W        W16670  27.153  36.563  14.489
53112W        W16671  34.553  12.833  13.962
53113W        W16672  20.263  29.449   2.711
53114W        W16673   2.393   5.313   1.717
53115W        W16674  17.736  11.365   0.746
53116W        W16675  10.657  18.549   3.284
53117W        W16676  36.421  13.300  14.002
53118W        W16677  29.587  31.965  14.381
53119W        W16678  34.541  33.521   3.829
53120W        W16679  37.030  38.516   4.774
53121W        W16680   3.314  36.851  13.941
53122W        W16681  27.082   8.385  11.879
53123W        W16682  44.301  37.896  13.949
53124W        W16683  23.130  11.278   0.814
53125W        W16684  23.089  22.007   2.674
53126W        W16685  15.692  41.000  12.574
53127W        W16686   1.368  23.666   3.264
53128W        W16687  25.099  26.102  12.450
53129W        W16688  23.131  11.237  13.821
53130W        W16689  29.056  31.001  13.009
53131W        W16690  18.588  31.925  14.009
53132W        W16691  36.459   7.905  11.869
53133W        W16692  37.522  41.879  13.811
53134W        W16693   3.914  42.343  13.411
53135W        W16694  31.914   8.817   5.196
53136W        W16695  22.099  17.580   3.279
53137W        W16696  43.449  18.753  10.484
53138W        W16697  13.701  37.085   3.835
53139W        W16698  33.384  10.736   2.883
53140W        W16699  29.074  17.575   1.827
53141W        W16700  12.266  29.003  11.003
53142W        W16701  33.516  20.045   2.717
53143W        W16702  40.312  25.628   3.288
53144W        W16703  28.487   4.426  13.342
53145W        W16704  40.388  19.117  13.322
53146W        W16705  25.679  33.105   3.784
53147W        W16706  41.448  25.707  11.417
53148W        W16707   7.255  17.163  13.800
53149W        W16708   1.752   7.355   4.623
53150W        W16709  21.151   0.393  10.953
53151W        W16710  33.436   6.335  11.873
53152W        W16711  12.758  24.226   3.681
53153W        W16712  20.582  43.908  13.884
53154W        W16713  40.953  18.062  13.844
53155W        W16714  24.042  20.619   3.765
53156W        W16715  17.240  14.309   4.654
53157W        W16716  28.474  44.958   2.863
53158W        W16717  36.067  13.252   4.812
53159W        W16718  25.062  41.852   4.685
53160W        W16719  20.609   8.369  12.451
53161W        W16720  16.807  20.237   3.372
53162W        W16721  14.602  14.799   2.209
53163W        W16722  23.617  33.599  10.946
53164W        W16723   5.813  11.708  10.976
53165W        W16724  18.609  37.571   1.246
53166W        W16725  20.649  44.352  11.017
53167W        W16726  35.358   8.717  13.004
53168W        W16727   4.924  18.625   3.682
53169W        W16728   2.334  25.057  10.503
53170W        W16729   7.828  42.876   5.109
53171W        W16730  10.841  24.020   1.238
53172W        W16731  40.884  26.515  10.445
53173W        W16732  27.507   3.420   0.849
53174W        W16733   4.434  39.060   0.283
53175W        W16734  35.061  18.712   3.365
53176W        W16735  27.002  37.479   0.758
53177W        W16736  15.660   3.758  12.039
53178W        W16737   5.890  10.153   3.634
53179W        W16738   8.340   8.207   2.345
53180W        W16739  33.594  31.635  14.771
53181W        W16740  31.024  24.612   1.390
53182W        W16741  13.805  34.964   1.861
53183W        W16742  25.654   1.364   0.321
53184W        W16743  26.669  26.156   2.901
53185W        W16744  38.855  16.659   2.752
53186W        W16745  18.673  15.799  10.971
53187W        W16746  37.995  18.772  14.406
53188W        W16747  22.129   2.353  12.855
53189W        W16748  20.128  22.151   0.386
53190W        W16749  34.981  26.571   2.341
53191W        W16750   6.739  13.131   3.255
53192W        W16751  39.824  20.085   1.850
53193W        W16752   1.240  12.248  13.805
53194W        W16753  13.765   1.945  12.892
53195W        W16754  40.503  16.663   0.921
53196W        W16755  10.174  22.700  10.484
53197W        W16756   3.368  30.147  10.569
53198W        W16757   9.668   3.222   0.825
53199W        W16758  22.743  32.444   5.177
53200W        W16759  11.668  32.545  12.936
53201W        W16760  14.606  36.071   3.832
53202W        W16761  39.977  23.101  10.895
53203W        W16762  24.072   6.868   4.179
53204W        W16763   1.814  10.361   3.313
53205W        W16764  44.348  35.594  13.953
53206W        W16765  28.467  28.447  13.354
53207W        W16766   9.242  39.389   1.704
53208W        W16767  21.694   4.748  14.322
53209W        W16768  25.671  31.550  14.277
53210W        W16769  13.811   0.918  14.417
53211W        W16770  10.701  28.159  12.921
53212W        W16771   8.769  43.013   4.669
53213W        W16772  25.148  29.160  11.485
53214W        W16773  40.870  31.411  12.968
53215W        W16774  32.509   9.673   2.207
53216W        W16775  39.911  36.846  12.515
53217W        W16776  38.878  43.341  11.975
53218W        W16777   3.834  18.605  13.057
53219W        W16778   9.839  22.086  10.943
53220W        W16779  27.105  19.627   2.242
53221W        W16780  42.019  20.041  11.382
53222W        W16781  41.516  33.572   4.668
53223W        W16782  43.452  31.116  11.924
53224W        W16783   5.439   3.290  10.446
53225W        W16784   0.824  16.318  11.377
53226W        W16785  32.135  37.872   0.899
53227W        W16786  17.779  31.540   0.775
53228W        W16787  16.135  10.859  13.393
53229W        W16788  42.503  14.191   0.875
53230W        W16789  15.298   8.678  12.351
53231W        W16790   2.468  29.105  14.760
53232W        W16791  27.617  22.736  14.951
53233W        W16792  11.676  20.086   3.699
53234W        W16793  34.462  18.714  13.052
53235W        W16794  36.944  27.059   4.162
53236W        W16795  10.871   7.289   1.747
53237W        W16796  30.124   9.764   2.292
53238W        W16797   2.290   7.808  11.065
53239W        W16798  37.977   5.703   0.755
53240W        W16799  11.347   2.430   1.316
53241W        W16800  22.234   0.828   2.846
53242W        W16801  41.335   9.208   3.849
53243W        W16802   5.376  10.707   0.793
53244W        W16803   1.876  12.756  10.914
53245W        W16804   9.244  21.658  10.455
53246W        W16805  22.135  31.902   2.308
53247W        W16806  26.973  33.556   4.350
53248W        W16807   8.180  36.958  13.019
53249W        W16808  12.143  43.866   1.254
53250W        W16809   4.320   8.769   1.364
53251W        W16810   4.887  31.126  12.518
53252W        W16811  15.582   4.431   1.334
53253W        W16812  14.668  33.590  11.922
53254W        W16813  27.566  31.515   4.325
53255W        W16814   0.465   1.796  14.964
53256W        W16815   4.287   4.870  11.441
53257W        W16816   1.430  11.220  13.961
53258W        W16817  23.635  25.541   2.678
53259W        W16818  14.245   6.228   4.811
53260W        W16819  42.873  14.725  13.822
53261W        W16820  20.248  17.739  11.012
53262W        W16821  26.160  19.216   0.386
53263W        W16822  18.750  34.499  14.798
53264W        W16823   3.318   4.850  11.893
53265W        W16824  23.985  33.020  12.561
53266W        W16825  17.149  21.747   4.203
53267W        W16826  34.878  40.379  12.994
53268W        W16827  17.184  15.797   1.734
53269W        W16828   7.202  16.307   3.742
53270W        W16829   1.438  24.639  13.799
53271W        W16830   8.313  12.270   1.875
53272W        W16831  29.577  33.882   2.850
53273W        W16832  22.117  35.865   0.932
53274W        W16833   7.687  18.749  13.918
53275W        W16834  22.152  15.216   3.153
53276W        W16835  28.469  10.743   2.785
53277W        W16836  34.484  34.436  14.293
53278W        W16837  23.030  24.621   1.244
53279W        W16838  32.978  27.526  11.530
53280W        W16839  33.498   9.195  13.884
53281W        W16840  22.080  25.993  10.919
53282W        W16841  26.581  28.123   3.193
53283W        W16842   6.278  13.783  12.895
53284W        W16843  17.672  34.601   4.266
53285W        W16844  35.878  14.160  13.814
53286W        W16845   0.427  31.631   0.442
53287W        W16846  41.413   1.402   3.169
53288W        W16847  18.697  26.547   2.820
53289W        W16848   0.750  11.848  10.502
53290W        W16849  36.005  43.009  12.574
53291W        W16850   1.739  10.198  11.500
53292W        W16851   9.708   0.433  10.554
53293W        W16852   0.348  19.212   2.763
53294W        W16853  42.011   7.911   2.736
53295W        W16854  15.270   0.358  13.908
53296W        W16855  15.154  22.097   4.288
53297W        W16856  20.551  12.362  14.809
53298W        W16857  23.000  32.616   3.381
53299W        W16858   9.332  30.037   1.855
53300W        W16859  36.975   5.212   0.326
53301W        W16860  18.588  33.443   0.960
53302W        W16861  16.074  10.812   3.207
53303W        W16862   2.243  35.916  10.514
53304W        W16863  15.281  41.905  12.036
53305W        W16864  22.162  26.582  13.937
53306W        W16865  21.090  35.409  11.962
53307W        W16866  11.625  23.164   9.974
53308W        W16867  10.873  34.899  14.474
53309W        W16868   5.813  43.991   2.807
53310W        W16869  29.558   3.251   1.223
53311W        W16870  37.025  27.063  14.781
53312W        W16871  24.541  28.148  12.947
53313W        W16872  20.234  14.169  10.129
53314W        W16873   3.431  32.508  14.809
53315W        W16874   8.817   5.735   4.766
53316W        W16875  13.651  22.615   4.610
53317W        W16876  13.815   5.752   4.294
53318W        W16877  14.101  27.661   2.374
53319W        W16878  27.591  14.152   3.210
53320W        W16879  18.255  36.846  12.058
53321W        W16880  14.593  10.694   9.478
53322W        W16881  38.921  16.103   2.279
53323W        W16882  21.708  12.621  12.446
53324W        W16883  24.112  26.461   0.296
53325W        W16884   5.276  32.585   2.245
53326W        W16885  33.932  27.575  13.386
53327W        W16886  10.846   7.810  13.895
53328W        W16887  32.414  44.455  11.539
53329W        W16888   2.740  34.529  12.555
53330W        W16889   6.697  43.918  10.498
53331W        W16890  26.068  17.709   2.236
53332W        W16891   7.690   3.857   0.738
53333W        W16892  15.745   7.213  11.498
53334W        W16893  34.926  18.660   1.834
53335W        W16894  26.020   6.322  11.858
53336W        W16895  22.541   9.264  11.928
53337W        W16896  25.545  32.533  12.529
53338W        W16897  38.350  35.996  12.528
53339W        W16898  12.205  11.255  14.358
53340W        W16899  31.462  22.115  10.955
53341W        W16900  27.468  14.220  11.954
53342W        W16901  24.034  18.678  13.347
53343W        W16902   0.425  43.869  13.458
53344W        W16903  17.194   2.432  13.399
53345W        W16904   8.751  35.881   0.962
53346W        W16905  27.525  14.235  14.832
53347W        W16906  31.121  31.462  11.887
53348W        W16907  43.853   0.252  11.561
53349W        W16908  22.724  18.715  11.548
53350W        W16909  20.114  39.440   0.751
53351W        W16910  29.988  24.029  13.475
53352W        W16911  19.188  32.912  14.939
53353W        W16912  20.613  21.159  11.512
53354W        W16913   4.835  27.979   0.926
53355W        W16914   9.807  23.637  10.571
53356W        W16915  38.019  42.789   3.668
53357W        W16916  11.300  39.046  10.984
53358W        W16917  35.558  36.873   1.294
53359W        W16918  42.511  44.442  11.443
53360W        W16919  36.945   8.743  13.383
53361W        W16920  34.480  42.932  12.444
53362W        W16921  32.055  14.686   5.206
53363W        W16922  38.443  18.270  10.514
53364W        W16923  42.885  22.566   1.286
53365W        W16924  42.368   7.667  14.475
53366W        W16925  32.518  44.281   3.712
53367W        W16926  40.378  10.259  14.393
53368W        W16927  37.400   5.784   2.731
53369W        W16928  32.032   8.246  13.064
53370W        W16929  23.562  12.234  14.854
53371W        W16930  43.459   5.350  12.397
53372W        W16931   5.271   8.260  14.965
53373W        W16932   9.281  28.068   1.422
53374W        W16933  43.486  14.227   0.809
53375W        W16934  36.996  42.425  14.969
53376W        W16935  28.135  30.653   1.334
53377W        W16936  10.665  10.826   1.322
53378W        W16937  20.610  24.973   4.672
53379W        W16938   0.850   1.893  10.972
53380W        W16939  21.252  22.137  13.047
53381W        W16940  32.604  33.556   1.231
53382W        W16941  29.565  37.978  10.433
53383W        W16942  25.569  17.788  14.812
53384W        W16943  39.345  18.671  13.928
53385W        W16944  27.685  14.683  12.416
53386W        W16945  19.080  31.459  13.919
53387W        W16946  10.191  22.246   4.189
53388W        W16947  33.984  37.978   9.928
53389W        W16948   8.742  30.432   4.143
53390W        W16949  32.094  39.971   1.857
53391W        W16950  10.328  15.128   9.578
53392W        W16951   4.393  15.648   2.865
53393W        W16952  40.049  16.580   3.796
53394W        W16953  42.310  39.940   2.390
53395W        W16954  36.577  19.588  13.437
53396W        W16955  12.771  14.736   5.574
53397W        W16956   3.808  33.433  14.472
53398W        W16957  14.601  20.544   2.840
53399W        W16958  43.979  10.731   1.788
53400W        W16959  23.598  20.041  11.601
53401W        W16960  32.423  29.973  10.589
53402W        W16961  23.042   9.775   3.240
53403W        W16962  42.960  16.796  10.905
53404W        W16963  34.607  22.048   1.932
53405W        W16964  24.118   5.291   1.426
53406W        W16965  39.882  17.294   4.803
53407W        W16966  12.618   5.336  13.447
53408W        W16967  42.334   1.384   3.702
53409W        W16968  36.849  12.648  11.605
53410W        W16969  14.331  31.486   1.213
53411W        W16970  29.027  31.474  13.971
53412W        W16971  27.494  33.396   2.346
53413W        W16972   3.821  15.163   2.863
53414W        W16973  34.573  15.686  14.311
53415W        W16974   2.834  44.820  11.970
53416W        W16975  24.630  42.282   4.773
53417W        W16976  29.488  16.257  12.914
53418W        W16977   7.353  23.706  11.389
53419W        W16978   3.289  43.510  13.341
53420W        W16979  38.964  17.257  11.583
53421W        W16980  22.609  29.017  12.364
53422W        W16981  36.046  14.194   4.698
53423W        W16982  10.233   3.372   2.895
53424W        W16983  30.039  23.607  13.931
53425W        W16984  27.568  40.830  10.445
53426W        W16985  26.065  27.172   1.822
53427W        W16986   8.827  42.895   5.236
53428W        W16987  32.913  40.921   0.786
53429W        W16988  13.286  27.625  11.063
53430W        W16989   8.700  10.719   2.276
53431W        W16990  41.497  30.022   1.734
53432W        W16991  44.821   8.724   4.133
53433W        W16992  41.034  23.146   4.746
53434W        W16993  41.804  27.655   0.729
53435W        W16994  40.815  32.059   2.699
53436W        W16995  40.038  19.701  10.547
53437W        W16996   9.822  33.472   9.934
53438W        W16997  21.214  29.613   1.220
53439W        W16998   3.354  30.001   1.384
53440W        W16999   1.447  16.164   2.695
53441W        W17000  12.765  33.990   1.251
53442W        W17001  26.672  24.177   4.747
53443W        W17002  20.073  11.811  11.106
53444W        W17003  33.992   6.894  10.041
53445W        W17004  36.910  43.473   1.928
53446W        W17005  14.777  19.055   2.364
53447W        W17006  10.663  29.622  13.444
53448W        W17007  20.186  23.613  11.434
53449W        W17008  17.147  33.548  14.348
53450W        W17009   7.693  25.578  11.397
53451W        W17010  32.507   8.726   2.830
53452W        W17011  34.054  36.448  14.814
53453W        W17012   1.385  39.971  10.567
53454W        W17013   4.308  10.695   1.758
53455W        W17014  11.760  24.055  12.526
53456W        W17015   2.774  44.854  10.947
53457W        W17016  27.083  22.536  11.023
53458W        W17017  35.536  26.675  13.986
53459W        W17018  43.440  30.158  14.416
53460W        W17019  33.915   1.323  10.555
53461W        W17020  27.460  32.954   3.743
53462W        W17021  22.690  26.088   4.754
53463W        W17022   9.354  28.655  11.942
53464W        W17023  12.686  43.329   3.158
53465W        W17024   0.274   0.931  14.435
53466W        W17025  21.618  20.531   2.262
53467W        W17026  17.110  24.137  14.443
53468W        W17027  44.467  19.222  11.051
53469W        W17028  18.545   1.399   0.873
53470W        W17029  25.610  38.860   2.846
53471W        W17030  20.619   8.866  12.987
53472W        W17031  36.370  36.572  10.433
53473W        W17032  33.118   6.223   4.667
53474W        W17033  13.831  30.150   0.351
53475W        W17034  20.580  15.722   1.930
53476W        W17035  14.806  27.991   0.957
53477W        W17036  40.886   2.827  14.325
53478W        W17037  30.492  21.063   1.879
53479W        W17038   9.871  25.714  12.007
53480W        W17039  39.990   3.358   2.194
53481W        W17040  13.201  44.886  10.462
53482W        W17041  29.494   4.246  10.442
53483W        W17042   6.864   3.941   1.389
53484W        W17043   3.924  10.767   0.355
53485W        W17044   6.334  32.460  11.588
53486W        W17045  25.204   0.952   4.272
53487W        W17046  41.959  39.499   2.387
53488W        W17047  26.062  34.493  10.951
53489W        W17048   7.196  21.592  12.050
53490W        W17049  40.860  15.316  10.908
53491W        W17050   1.894  13.208  14.008
53492W        W17051  13.746  33.896   3.234
53493W        W17052   6.217   9.852  10.944
53494W        W17053  21.048  22.075  12.012
53495W        W17054  37.412  37.939   4.347
53496W        W17055  21.185  44.307   0.922
53497W        W17056  16.096   8.866  14.020
53498W        W17057  33.486   7.716   0.771
53499W        W17058  35.081  35.008   3.870
53500W        W17059  20.561   8.771   3.804
53501W        W17060   2.830   0.284   3.377
53502W        W17061  41.017  30.984  10.942
53503W        W17062  12.322   8.367   9.929
53504W        W17063  14.778   1.283   0.368
53505W        W17064   4.253   6.360   0.907
53506W        W17065  35.462  41.522  11.939
53507W        W17066  35.460   0.790  14.900
53508W        W17067  16.704  13.789  11.964
53509W        W17068   0.419  24.484   4.159
53510W        W17069  19.612  34.045  13.353
53511W        W17070  27.558   1.906  12.511
53512W        W17071   0.425   3.846  13.465
53513W        W17072   0.856  35.952  12.998
53514W        W17073   5.874  13.733  14.024
53515W        W17074  26.000  18.556   4.193
53516W        W17075  36.897  35.410  11.606
53517W        W17076   7.339  33.461   3.860
53518W        W17077   0.745   6.272   4.202
53519W        W17078   1.265  26.592  13.951
53520W        W17079  37.482  33.111  14.781
53521W        W17080  17.295  20.570  11.430
53522W        W17081  10.733  34.521  13.866
53523W        W17082  14.655   9.298   0.462
53524W        W17083  13.715  42.418  14.484
53525W        W17084   7.876  25.622   2.846
53526W        W17085  31.510  42.013   2.370
53527W        W17086  10.648   4.224  12.887
53528W        W17087  10.814  31.930  13.333
53529W        W17088  12.244  34.427  11.554
53530W        W17089  20.106  39.871  10.602
53531W        W17090  30.985  41.997   5.766
53532W        W17091  43.971   8.861   0.452
53533W        W17092  44.803   0.833   4.316
53534W        W17093  39.556  12.796   1.389
53535W        W17094  14.166   1.837   2.253
53536W        W17095  43.886   2.309  14.291
53537W        W17096  15.190   7.732   3.272
53538W        W17097  20.603  12.611  14.514
53539W        W17098  19.240   0.277   2.337
53540W        W17099  36.002  42.929   0.928
53541W        W17100   6.894   1.769  13.465
53542W        W17101  30.067   6.803   2.272
53543W        W17102  38.489   8.778   3.837
53544W        W17103   1.337  11.350  12.424
53545W        W17104   3.761  28.178  10.015
53546W        W17105   2.302  19.116  10.954
53547W        W17106   4.218   4.885  12.407
53548W        W17107  24.122  11.151  14.777
53549W        W17108  42.472  15.149   3.319
53550W        W17109  17.156  39.959  12.917
53551W        W17110   7.767  20.659  13.497
53552W        W17111  41.332  10.233   9.968
53553W        W17112  20.061  24.206   3.638
53554W        W17113  17.182  34.615  14.298
53555W        W17114  30.654   6.912  12.368
53556W        W17115   8.204  10.803   3.174
53557W        W17116  43.018  19.534   0.923
53558W        W17117  19.690   0.861  13.932
53559W        W17118  20.708   7.220  14.485
53560W        W17119  25.035  31.460  10.544
53561W        W17120  21.152  24.488   0.951
53562W        W17121  21.154  33.910  12.518
53563W        W17122  34.448  40.350  14.888
53564W        W17123  10.793   7.290   3.274
53565W        W17124  26.971  33.427   3.203
53566W        W17125  32.998   8.803  10.890
53567W        W17126  20.029  22.619  11.123
53568W        W17127  34.981  18.545   4.824
53569W        W17128  35.418  23.161   1.745
53570W        W17129  38.830   8.201  12.038
53571W        W17130  33.028  34.067   1.225
53572W        W17131  18.287  14.202   1.696
53573W        W17132  17.736  15.642   4.701
53574W        W17133  30.128  26.202  13.389
53575W        W17134   8.212   4.931   0.466
53576W        W17135  31.938  40.004   0.414
53577W        W17136   0.293   8.720   3.799
53578W        W17137  14.759  21.728   3.830
53579W        W17138   3.416  21.232  14.423
53580W        W17139  20.751  35.417   1.307
53581W        W17140  40.865  29.445   4.749
53582W        W17141  34.432  22.073   0.855
53583W        W17142  41.023   8.177   3.170
53584W        W17143  43.275  29.433   4.695
53585W        W17144  41.936  41.936  14.310
53586W        W17145   0.753  19.203   1.426
53587W        W17146  20.172   4.295  12.877
53588W        W17147  15.590  38.402   2.785
53589W        W17148  38.074  24.039   4.271
53590W        W17149  14.131  21.633  13.801
53591W        W17150  39.872   9.807   4.654
53592W        W17151   4.821   7.238   2.243
53593W        W17152  10.197  28.623  12.970
53594W        W17153  11.193  22.522   2.886
53595W        W17154   7.868  33.897   4.613
53596W        W17155  13.160  38.339  11.448
53597W        W17156   7.184  12.792  12.438
53598W        W17157  23.219  32.478   2.377
53599W        W17158  36.038  20.159  11.108
53600W        W17159  42.891  15.631  12.837
53601W        W17160  34.532   1.313  13.457
53602W        W17161  32.598   9.663  13.890
53603W        W17162  42.307   3.330   0.851
53604W        W17163  21.601   8.193   4.665
53605W        W17164   4.910  26.174  11.576
53606W        W17165  41.894  33.102   2.780
53607W        W17166  19.730  29.448  10.934
53608W        W17167  41.900   1.418   2.295
53609W        W17168  27.035  20.612   2.214
53610W        W17169   0.884  21.653   0.928
53611W        W17170  41.027  39.936  11.026
53612W        W17171   6.386  19.643   3.631
53613W        W17172   7.747   1.447  12.917
53614W        W17173  20.582  15.305   2.399
53615W        W17174  32.107   1.960   0.806
53616W        W17175  30.566   2.876  11.908
53617W        W17176  38.474  41.938  14.939
53618W        W17177   6.852   6.770  14.480
53619W        W17178  21.088  23.608  13.954
53620W        W17179  36.461   1.377   4.330
53621W        W17180  43.440  40.363   4.760
53622W        W17181  16.772  32.104   1.282
53623W        W17182   0.890  25.123  14.468
53624W        W17183   3.344  28.514   1.251
53625W        W17184  12.258  19.236   1.798
53626W        W17185  20.120  38.820  12.846
53627W        W17186   0.753  10.356  12.879
53628W        W17187   8.847  14.738   4.287
53629W        W17188   2.452  33.005  12.825
53630W        W17189   7.711  30.655  12.093
53631W        W17190  27.078  38.891  13.545
53632W        W17191  35.457  12.172  14.284
53633W        W17192  29.504   2.463  11.480
53634W        W17193   3.431  35.939  11.860
53635W        W17194  33.916   6.814  12.079
53636W        W17195  15.771   5.834   4.793
53637W        W17196   1.359  27.120   2.868
53638W        W17197  29.154  34.904   4.257
53639W        W17198  33.389  14.715  13.330
53640W        W17199  17.086  28.990   5.319
53641W        W17200  18.179  23.017   1.819
53642W        W17201   1.789  13.268   1.214
53643W        W17202  18.675  41.016   2.861
53644W        W17203  40.524  37.576  12.348
53645W        W17204  40.926  35.583  13.419
53646W        W17205   8.825   5.294   3.741
53647W        W17206  26.114  27.020   0.737
53648W        W17207  31.462  26.194  10.904
53649W        W17208  14.258  28.539   0.298
53650W        W17209  40.010  15.656   2.293
53651W        W17210  32.632  31.506   1.930
53652W        W17211   0.935  16.693  11.862
53653W        W17212  16.177  26.503   3.677
53654W        W17213   2.933  23.017  12.533
53655W        W17214  16.752  28.545  11.385
53656W        W17215  29.103  24.117  14.847
53657W        W17216  28.680  23.633   2.411
53658W        W17217  34.472  36.542  12.439
53659W        W17218  11.682  28.986  12.469
53660W        W17219  38.499  33.562  12.845
53661W        W17220   1.940  16.611   0.928
53662W        W17221   2.423   1.868   1.273
53663W        W17222  21.073  19.715   4.647
53664W        W17223  24.179  26.618   4.754
53665W        W17224  24.186  31.615  10.123
53666W        W17225  11.281  30.976  13.852
53667W        W17226  10.788  13.835   2.697
53668W        W17227  14.252  40.031   1.717
53669W        W17228   5.267  33.105   0.262
53670W        W17229   2.433  41.383   4.701
53671W        W17230  44.998   1.430  12.528
53672W        W17231  12.646  14.668   9.578
53673W        W17232  16.776   7.368  13.881
53674W        W17233  39.908   3.844   0.379
53675W        W17234  12.336   8.789  13.459
53676W        W17235  10.379  27.503  10.482
53677W        W17236  34.964  22.695  14.275
53678W        W17237   6.187  20.593   2.664
53679W        W17238  30.493  15.773  13.349
53680W        W17239  33.608  43.393  14.832
53681W        W17240   5.352  23.686   1.781
53682W        W17241  28.104  37.847   1.277
53683W        W17242  41.868  15.199  11.933
53684W        W17243  37.995  25.500  12.957
53685W        W17244  30.041  24.197  11.560
53686W        W17245  32.590  12.358   1.755
53687W        W17246  14.317  35.386  10.612
53688W        W17247   1.754  35.898   4.754
53689W        W17248  42.494   2.762  10.542
53690W        W17249   0.967   3.402  11.931
53691W        W17250  31.497  27.558  13.021
53692W        W17251  25.144  40.531  10.586
53693W        W17252  34.910  42.482  11.557
53694W        W17253  12.362   8.883  11.893
53695W        W17254  29.552  26.601  14.863
53696W        W17255  29.450  21.592   3.843
53697W        W17256  12.328  23.050   5.155
53698W        W17257  35.558  10.282   3.307
53699W        W17258  18.674  19.088  14.467
53700W        W17259  44.430  34.044  14.428
53701W        W17260  18.158  32.127  13.532
53702W        W17261  10.781  29.609  11.576
53703W        W17262  25.005  40.863   4.680
53704W        W17263   7.766  14.276   4.677
53705W        W17264  38.515  19.106   4.608
53706W        W17265  21.699  32.427  12.999
53707W        W17266  19.142   5.769  14.898
53708W        W17267  40.461  29.965   3.688
53709W        W17268  19.140  24.024  10.930
53710W        W17269   0.472   0.858   4.664
53711W        W17270  21.239  34.009  11.022
53712W        W17271   9.249  36.074  11.595
53713W        W17272   6.818  30.962  12.888
53714W        W17273  42.966  23.131   3.838
53715W        W17274   0.353  41.977   1.768
53716W        W17275  40.318  23.098  11.481
53717W        W17276  29.541  40.051   2.817
53718W        W17277  41.313  42.964   1.785
53719W        W17278  26.482   5.347   0.866
53720W        W17279  10.352  27.026   3.281
53721W        W17280  17.162  29.634  11.506
53722W        W17281  10.300  10.282  11.458
53723W        W17282  16.630  20.633   0.954
53724W        W17283  39.935   2.957   4.174
53725W        W17284  39.848  44.783  13.313
53726W        W17285   1.272  36.505   2.187
53727W        W17286   5.817  36.967   3.276
53728W        W17287  13.195  17.739  14.957
53729W        W17288   1.460  44.996  11.393
53730W        W17289   2.953  16.161  11.381
53731W        W17290  44.263  31.433  11.530
53732W        W17291   4.794   7.201   9.929
53733W        W17292  16.281  33.395   4.633
53734W        W17293  23.580  18.079  14.762
53735W        W17294  43.876  22.701  13.909
53736W        W17295  22.693  15.777   3.362
53737W        W17296  35.565  42.399   4.354
53738W        W17297  26.664  18.062  11.887
53739W        W17298  38.827  27.506  10.414
53740W        W17299  36.896  19.277   1.451
53741W        W17300   3.808  25.149   1.877
53742W        W17301   5.723  13.712   0.420
53743W        W17302  27.635  18.645   0.766
53744W        W17303  39.949  20.209   2.794
53745W        W17304  21.592  44.889   3.742
53746W        W17305  30.429  10.730   2.318
53747W        W17306  32.952  35.034   2.215
53748W        W17307  24.515  15.240  12.481
53749W        W17308  18.189  24.992   4.124
53750W        W17309  30.483  15.108  12.519
53751W        W17310  32.924   2.882  14.309
53752W        W17311  25.111  10.869  11.554
53753W        W17312  19.106   0.279  12.828
53754W        W17313  16.243  16.177  14.980
53755W        W17314   0.769   1.977   5.267
53756W        W17315  37.408  41.006  11.040
53757W        W17316   5.216  39.412  14.425
53758W        W17317  37.402  15.648  13.826
53759W        W17318  21.054  41.467  12.522
53760W        W17319   5.728  37.371  13.852
53761W        W17320  42.788   4.248  13.873
53762W        W17321  44.954  32.448   0.769
53763W        W17322  14.808  40.882  13.859
53764W        W17323   0.830  43.802   4.235
53765W        W17324  16.122  44.430   4.653
53766W        W17325  44.499  30.969  11.899
53767W        W17326  17.721  35.451  11.001
53768W        W17327   7.704   4.424  14.453
53769W        W17328  32.025   1.420  13.958
53770W        W17329  24.205  24.071   2.729
53771W        W17330  29.930  23.564  14.395
53772W        W17331  32.476  29.608   1.753
53773W        W17332  13.296   2.720  11.599
53774W        W17333  18.285  17.203  12.043
53775W        W17334  37.342  37.497  10.102
53776W        W17335  19.182  24.008  13.853
53777W        W17336   4.279  20.077  10.957
53778W        W17337  35.008  24.166  14.844
53779W        W17338  28.064  27.464   1.783
53780W        W17339  34.488  33.950  13.841
53781W        W17340  42.422  40.489  11.054
53782W        W17341   2.267  26.140  12.373
53783W        W17342  24.155  13.138  13.473
53784W        W17343  23.605  16.245   0.726
53785W        W17344  16.724  11.174   1.315
53786W        W17345  18.738   7.886   4.318
53787W        W17346   4.929  24.553   1.422
53788W        W17347  15.226  25.512   4.272
53789W        W17348  41.921  38.011  11.966
53790W        W17349  20.765   9.762  12.385
53791W        W17350  41.431   2.805  13.357
53792W        W17351   6.304  33.510  13.962
53793W        W17352  19.163  38.002   2.767
53794W        W17353  20.146  35.049   3.365
53795W        W17354  26.493  33.933   4.144
53796W        W17355  30.427  25.676  13.352
53797W        W17356  43.827  12.351  11.929
53798W        W17357   7.726   7.201   3.696
53799W        W17358  24.657   5.731  11.416
53800W        W17359   3.953  12.654   0.420
53801W        W17360   3.895   8.716  13.867
53802W        W17361  42.917  33.046  10.468
53803W        W17362   6.706  23.524   1.786
53804W        W17363  21.080  11.368  10.952
53805W        W17364  17.733  44.475   0.243
53806W        W17365  25.110  15.227  12.094
53807W        W17366  19.245  42.418   4.731
53808W        W17367  11.196  34.481   4.227
53809W        W17368  25.039  33.534   5.191
53810W        W17369  34.046  36.527   0.373
53811W        W17370  29.069  40.431  11.954
53812W        W17371  27.573   0.743   4.782
53813W        W17372  14.243  43.391   1.261
53814W        W17373  13.269  31.595   4.217
53815W        W17374  39.951   9.736  14.439
53816W        W17375   8.691  19.735  14.913
53817W        W17376  22.511   0.970  11.951
53818W        W17377  36.398  26.469  10.971
53819W        W17378   7.839  40.349  10.939
53820W        W17379  29.533  20.748   4.331
53821W        W17380  24.188   4.881   4.292
53822W        W17381   4.267  36.038   1.446
53823W        W17382   0.779  24.484   1.325
53824W        W17383  17.637  15.749   0.339
53825W        W17384  20.146  10.287   2.761
53826W        W17385  42.830  28.016   0.435
53827W        W17386  19.673  37.557  13.323
53828W        W17387  25.494   5.773   4.658
53829W        W17388  19.639   2.449  11.912
53830W        W17389  12.262  12.255   0.807
53831W        W17390  25.980  25.583  14.833
53832W        W17391  35.034   2.873   1.237
53833W        W17392  28.939  17.578   4.181
53834W        W17393   8.817  44.336   4.170
53835W        W17394  22.071  12.690  11.581
53836W        W17395   2.784  12.301  14.916
53837W        W17396   1.346  39.442   0.881
53838W        W17397  34.914  11.233  13.482
53839W        W17398  43.329  32.100   3.730
53840W        W17399  24.054   9.269   5.310
53841W        W17400  13.644  21.661   4.751
53842W        W17401  29.536  19.275  12.914
53843W        W17402  29.054  35.482  10.553
53844W        W17403  10.647  36.589  13.536
53845W        W17404  19.700   7.210   3.387
53846W        W17405  44.998  21.220   1.406
53847W        W17406  13.222  29.480   0.368
53848W        W17407  17.679  43.907   4.156
53849W        W17408  31.565  28.579   3.285
53850W        W17409  43.388  16.657  13.846
53851W        W17410  29.429  13.832   4.613
53852W        W17411  12.788  37.011  12.972
53853W        W17412   8.860  42.355   0.262
53854W        W17413  42.464  25.638  12.991
53855W        W17414  35.028  16.273  11.494
53856W        W17415  44.273  39.954  14.477
53857W        W17416  25.042  31.619   3.368
53858W        W17417  34.563  36.965   1.406
53859W        W17418   6.829  31.429  13.498
53860W        W17419  12.333  31.953  14.288
53861W        W17420  22.159  27.566   4.147
53862W        W17421   9.767   2.749   1.788
53863W        W17422  12.153  24.147   1.260
53864W        W17423  41.998  39.046  13.362
53865W        W17424  15.632   4.869   4.684
53866W        W17425  12.340  42.522   1.743
53867W        W17426  29.498  34.027  11.100
53868W        W17427  25.122  17.269  10.413
53869W        W17428  31.437  31.614   1.907
53870W        W17429   2.450  21.079   1.346
53871W        W17430  11.833  36.080   5.766
53872W        W17431   1.966  17.782  12.445
53873W        W17432  35.030  23.549   4.831
53874W        W17433  32.601  19.269   1.809
53875W        W17434  12.804  31.076  13.469
53876W        W17435  33.564  22.058  14.876
53877W        W17436  31.901  25.696   3.247
53878W        W17437  15.765   7.728   3.861
53879W        W17438   2.762  36.084   4.162
53880W        W17439  40.927  12.196  10.451
53881W        W17440  30.071  36.540   0.299
53882W        W17441  10.261  13.253   4.161
53883W        W17442   7.865  41.423   0.929
53884W        W17443  17.299  14.767  11.928
53885W        W17444   4.273  14.251   4.314
53886W        W17445  23.567  30.456  11.463
53887W        W17446   4.816  42.332  12.846
53888W        W17447  33.985  26.558   1.294
53889W        W17448  10.304  16.180  12.528
53890W        W17449  30.480  17.109  12.930
53891W        W17450  40.486  16.261   0.822
53892W        W17451  31.086  26.062   4.340
53893W        W17452  15.253  17.084  13.846
53894W        W17453  28.670  23.223   3.802
53895W        W17454  34.902  28.642  10.584
53896W        W17455  19.573   4.707   0.901
53897W        W17456  21.119  23.593   3.737
53898W        W17457  14.781  33.443  12.889
53899W        W17458  14.212   1.790  14.383
53900W        W17459   5.870  19.595   3.171
53901W        W17460  38.396  37.041  13.900
53902W        W17461  22.583  44.454  14.413
53903W        W17462  38.827  28.954   4.238
53904W        W17463  15.167  32.934   1.836
53905W        W17464  44.266  16.798   4.614
53906W        W17465   3.804  26.540  12.891
53907W        W17466  26.647  24.099  11.903
53908W        W17467   4.915   8.836   1.876
53909W        W17468  10.298   6.793   0.799
53910W        W17469  41.877  13.107  12.885
53911W        W17470  33.529  39.888   3.748
53912W        W17471  33.451  25.134  11.536
53913W        W17472  25.712  34.103   4.117
53914W        W17473  35.595  29.498   2.280
53915W        W17474  20.555  20.143   1.316
53916W        W17475  24.091  37.369   3.332
53917W        W17476  40.817  43.486  13.951
53918W        W17477  19.576   5.740   4.746
53919W        W17478   5.318  41.005   3.351
53920W        W17479  21.702  21.067  10.029
53921W        W17480   8.759  23.019  12.388
53922W        W17481   3.414  32.485   1.405
53923W        W17482   5.893   5.307  10.925
53924W        W17483  20.524  42.967   4.331
53925W        W17484  10.700  38.530  14.490
53926W        W17485  42.854  35.928   0.296
53927W        W17486  23.219   7.312  12.837
53928W        W17487  14.096  37.081  14.461
53929W        W17488  39.992  38.360   2.718
53930W        W17489  12.753  39.835   1.850
53931W        W17490  40.464  34.450   1.703
53932W        W17491   0.298   8.176   0.354
53933W        W17492  42.442  11.160   1.845
53934W        W17493  23.135  10.838   2.721
53935W        W17494  30.544  30.564   3.708
53936W        W17495  33.970  21.582   4.792
53937W        W17496  20.575  28.065  12.091
53938W        W17497   4.822  22.080  12.029
53939W        W17498  42.335  17.575   2.867
53940W        W17499  27.139  38.823  10.406
53941W        W17500  42.506  28.668   0.745
53942W        W17501  28.944  10.382  11.026
53943W        W17502  35.909  12.643  12.368
53944W        W17503  24.665  25.036  14.479
53945W        W17504  10.271  34.502  11.386
53946W        W17505   6.264  28.037  13.851
53947W        W17506   7.683  21.545  10.489
53948W        W17507  30.143  18.551  13.485
53949W        W17508  18.637  30.010   2.662
53950W        W17509  20.599  12.153   1.742
53951W        W17510   8.853  28.025  12.049
53952W        W17511  17.573  29.538  11.461
53953W        W17512  16.619  35.974   0.826
53954W        W17513   1.340  35.384   0.273
53955W        W17514  10.199  10.878  13.844
53956W        W17515  19.153  30.134  14.285
53957W        W17516  38.479  18.066  12.439
53958W        W17517   1.976  16.630   3.682
53959W        W17518  23.556  11.819   4.740
53960W        W17519  39.349  20.600   0.306
53961W        W17520   4.320  12.247  10.922
53962W        W17521  43.764   2.926   3.749
53963W        W17522  21.034  42.026   4.134
53964W        W17523   3.784  25.690  10.506
53965W        W17524  41.945  26.457   2.275
53966W        W17525  14.797  28.670   1.285
53967W        W17526   9.805  15.099   5.726
53968W        W17527  15.316  41.533  10.582
53969W        W17528  36.507  24.095  11.125
53970W        W17529   5.406   7.224  11.036
53971W        W17530  38.449  30.003  13.327
53972W        W17531  12.207  24.192  12.454
53973W        W17532   0.398  18.248   3.860
53974W        W17533  44.933   6.264   0.361
53975W        W17534  18.594  23.495   1.423
53976W        W17535   6.250  36.496   4.614
53977W        W17536  29.542  41.015   1.374
53978W        W17537  34.606   0.366  14.451
53979W        W17538   8.399   5.829   0.325
53980W        W17539  16.241  32.519   0.420
53981W        W17540   5.765   9.186  10.415
53982W        W17541  13.320   9.801   4.329
53983W        W17542  16.167  20.596  14.513
53984W        W17543  43.327  39.871   0.309
53985W        W17544   4.855  15.108   1.334
53986W        W17545  27.574  41.397   4.729
53987W        W17546  24.977  15.631  10.547
53988W        W17547  42.513  30.551  14.331
53989W        W17548  44.434   7.209  12.343
53990W        W17549   1.860   9.201   2.788
53991W        W17550   2.749  39.328  10.453
53992W        W17551  38.915   5.233  14.032
53993W        W17552   0.955  10.379   0.929
53994W        W17553  37.935  43.275   1.907
53995W        W17554  33.565  42.966   2.185
53996W        W17555  33.385  30.942  14.928
53997W        W17556  19.087  13.809  12.496
53998W        W17557   2.301  21.718  11.504
53999W        W17558  44.487  28.448  13.347
54000W        W17559  38.351  35.450   2.327
54001W        W17560  31.046  41.307  12.564
54002W        W17561  27.486  14.742  13.978
54003W        W17562  29.660  38.921  11.515
54004W        W17563  42.309   6.185   1.210
54005W        W17564  31.632  44.371   3.640
54006W        W17565   8.258   0.877   0.416
54007W        W17566  30.574  44.379   1.873
54008W        W17567   6.309  38.562  14.976
54009W        W17568  43.768  30.644   0.323
54010W        W17569  35.095  35.523   2.186
54011W        W17570  21.073  41.390  13.510
54012W        W17571  25.635  35.502  11.593
54013W        W17572  17.652   9.232   2.341
54014W        W17573  30.644   2.901  12.937
54015W        W17574  28.587  19.055  13.331
54016W        W17575  33.952   8.278  10.542
54017W        W17576   8.881  42.335  10.554
54018W        W17577   0.902  23.045  12.364
54019W        W17578  23.611  31.899   3.202
54020W        W17579   5.933  35.923  12.500
54021W        W17580  44.876   1.814  12.083
54022W        W17581   8.342  32.933  10.954
54023W        W17582  16.301   3.330  11.382
54024W        W17583  30.047  32.631   1.750
54025W        W17584  31.968   0.894   1.899
54026W        W17585  30.037   4.220   2.715
54027W        W17586  37.492  39.534  11.882
54028W        W17587  35.986   7.285  11.379
54029W        W17588  28.663  11.786  13.922
54030W        W17589  15.180  13.188  10.561
54031W        W17590  36.443  17.144  13.948
54032W        W17591   2.729  33.029   3.321
54033W        W17592  17.631  33.453  10.037
54034W        W17593  19.672  36.016  13.981
54035W        W17594  17.172   6.187  13.014
54036W        W17595  41.009  41.347  12.462
54037W        W17596   3.769  35.490  13.834
54038W        W17597  24.511  40.517  14.972
54039W        W17598   2.439   4.405   2.290
54040W        W17599  38.344  36.468   5.587
54041W        W17600  14.277  16.750   2.355
54042W        W17601  31.030  36.024  14.778
54043W        W17602   7.255  44.980  14.374
54044W        W17603  14.114   3.336   3.371
54045W        W17604  34.985   9.856  10.436
54046W        W17605  22.199  25.546  11.017
54047W        W17606  31.493  10.240   2.413
54048W        W17607   8.691  13.786   0.475
54049W        W17608  24.071  15.647   4.697
54050W        W17609  32.538  11.156  13.830
54051W        W17610   9.324  32.560   4.170
54052W        W17611  16.811  30.654  12.945
54053W        W17612  28.636   6.704  11.377
54054W        W17613  21.242  10.198  10.420
54055W        W17614  35.547  39.345   1.869
54056W        W17615  38.054  26.562  11.984
54057W        W17616  44.297   3.367  14.477
54058W        W17617  18.145  44.850  14.312
54059W        W17618  38.050  42.876   4.168
54060W        W17619  17.601  17.235   2.831
54061W        W17620   2.376   2.944  13.829
54062W        W17621  37.507  15.245   9.988
54063W        W17622  38.982  31.943   0.376
54064W        W17623  42.814  13.662   1.452
54065W        W17624  19.551  21.686   4.624
54066W        W17625  24.697  29.930   4.238
54067W        W17626   1.841   9.237  11.495
54068W        W17627  29.131  14.197   1.859
54069W        W17628  16.224  38.862   0.307
54070W        W17629  13.725  20.121  14.848
54071W        W17630   5.433  35.061   1.715
54072W        W17631  31.601  26.192  11.457
54073W        W17632   5.398   1.802  11.053
54074W        W17633  10.210   3.895  13.390
54075W        W17634  24.119  22.124  10.075
54076W        W17635   8.295  42.976  14.340
54077W        W17636   9.765  26.111  11.376
54078W        W17637  39.020  22.092  11.041
54079W        W17638   0.789  12.629   1.846
54080W        W17639  32.008   1.914  14.995
54081W        W17640  19.126  11.344  11.118
54082W        W17641  23.502  38.402  14.959
54083W        W17642  18.785  17.684  12.405
54084W        W17643  19.158  15.794  14.462
54085W        W17644  32.896  13.745   4.259
54086W        W17645  29.140  43.286  11.576
54087W        W17646  43.856  18.160  12.907
54088W        W17647  42.470  41.391   4.139
54089W        W17648  31.419   3.864   2.197
54090W        W17649  44.890  26.173   2.285
54091W        W17650  19.679  27.160   3.246
54092W        W17651  32.013  13.141  13.444
54093W        W17652  11.792  15.735  11.902
54094W        W17653  37.567  32.558  13.009
54095W        W17654  30.928  26.571   4.716
54096W        W17655  32.557  36.553   4.187
54097W        W17656  32.421  33.600  10.994
54098W        W17657   5.340  10.231   3.838
54099W        W17658   1.367  29.983  13.466
54100W        W17659   0.450  10.803  10.626
54101W        W17660  18.596  29.448  12.472
54102W        W17661  19.083  42.292  10.983
54103W        W17662  41.528  39.037   3.842
54104W        W17663  31.979  39.380   2.764
54105W        W17664  44.840  35.512   0.820
54106W        W17665  28.032  16.145  13.027
54107W        W17666  32.910  14.251   3.821
54108W        W17667  44.864   8.251   3.745
54109W        W17668  44.395  21.562   0.875
54110W        W17669  10.782  39.473  11.451
54111W        W17670  33.126  19.611   2.400
54112W        W17671  11.792  34.508   1.388
54113W        W17672  42.778  33.390   0.906
54114W        W17673  27.148  30.109   0.271
54115W        W17674  21.579  40.519  10.155
54116W        W17675  25.636  32.048   4.213
54117W        W17676   8.742  20.139  14.295
54118W        W17677  22.562  34.000  14.856
54119W        W17678  35.858  20.097  13.414
54120W        W17679  35.986  10.263   4.162
54121W        W17680  31.423  10.245   4.333
54122W        W17681  35.573  22.709  14.860
54123W        W17682  29.987  12.687  12.522
54124W        W17683   3.903  25.182   4.794
54125W        W17684  31.591   7.682   4.259
54126W        W17685  12.227  38.509   1.432
54127W        W17686  18.287  20.036  10.523
54128W        W17687  27.631  43.773  11.108
54129W        W17688   1.335  29.502   2.348
54130W        W17689  30.558  26.132   0.334
54131W        W17690   5.204  14.733   0.401
54132W        W17691  35.459   2.412   2.275
54133W        W17692  16.574  18.647  13.953
54134W        W17693   4.239  35.891  10.923
54135W        W17694   9.195   8.168   2.305
54136W        W17695  17.113  37.841   4.236
54137W        W17696   1.474  29.169  12.430
54138W        W17697   9.385  39.895   1.409
54139W        W17698  21.106  13.116  13.799
54140W        W17699  39.336  24.686  14.465
54141W        W17700  10.239  31.114  12.020
54142W        W17701   4.416   0.841   1.925
54143W        W17702  37.569   8.395   1.331
54144W        W17703  26.625  20.124  12.495
54145W        W17704  33.469  17.597  14.022
54146W        W17705  33.395  38.911   4.727
54147W        W17706  16.632  32.898   0.931
54148W        W17707  26.636  21.215   9.494
54149W        W17708   2.837  16.212   1.420
54150W        W17709  44.259   9.885   1.278
54151W        W17710  26.607  18.170   2.371
54152W        W17711  11.658  43.924  14.474
54153W        W17712  39.976  24.229  13.481
54154W        W17713  39.519  20.062  11.899
54155W        W17714  29.476   0.384   9.926
54156W        W17715  43.997  32.998   1.826
54157W        W17716  29.561  29.557   2.335
54158W        W17717  24.146  40.993  13.521
54159W        W17718  36.516  32.013   3.203
54160W        W17719  21.745   6.298   0.804
54161W        W17720   0.765  39.899   1.370
54162W        W17721  41.044  28.978   2.818
54163W        W17722  31.942  33.616  13.497
54164W        W17723  12.286   7.688   0.440
54165W        W17724  19.709  32.577   1.256
54166W        W17725  20.121   0.842   4.706
54167W        W17726  27.004  38.496  11.086
54168W        W17727  19.066  37.064   4.754
54169W        W17728  30.604  16.307  14.407
54170W        W17729  26.592  30.540  13.338
54171W        W17730   2.786  15.680   2.705
54172W        W17731  22.218  12.214  12.445
54173W        W17732  14.682  28.152   0.482
54174W        W17733   1.737  30.466  12.548
54175W        W17734   8.339  37.520   1.361
54176W        W17735  19.112   5.798  11.474
54177W        W17736   2.230  36.547   3.738
54178W        W17737  15.639  15.814   2.304
54179W        W17738   6.710   9.815   1.876
54180W        W17739  21.191  11.142   2.340
54181W        W17740  28.960  18.072  14.834
54182W        W17741  22.703  39.935  13.322
54183W        W17742  31.941   5.855   4.292
54184W        W17743   0.872  31.038   1.746
54185W        W17744  16.101   8.721   1.426
54186W        W17745  37.026  40.444  11.531
54187W        W17746  36.922  14.762   3.717
54188W        W17747  22.533  42.527   1.413
54189W        W17748  44.360  16.571   0.383
54190W        W17749   1.956  41.835  12.999
54191W        W17750  25.670  25.656  14.387
54192W        W17751  21.518  33.013  13.392
54193W        W17752  27.983   6.863  13.821
54194W        W17753  31.914  22.024  14.378
54195W        W17754  16.676   6.419  13.993
54196W        W17755  10.327   7.261   1.340
54197W        W17756  14.198  44.398  12.369
54198W        W17757  39.824  38.552   4.163
54199W        W17758  37.365  19.176   0.941
54200W        W17759  13.169  21.674   2.730
54201W        W17760  33.879  38.851   0.364
54202W        W17761  44.343  26.079   4.152
54203W        W17762  41.528  26.621   0.308
54204W        W17763  40.373  30.051  12.414
54205W        W17764  24.561  41.310  10.994
54206W        W17765  10.220  15.754   0.280
54207W        W17766  35.445  20.664   0.295
54208W        W17767  22.017  32.033   3.373
54209W        W17768  31.110   1.368   4.741
54210W        W17769  33.011   5.742   0.815
54211W        W17770  41.034  35.406   1.906
54212W        W17771   0.393   4.773  13.062
54213W        W17772  24.704  44.494   4.167
54214W        W17773  25.609  28.008   0.375
54215W        W17774   3.930  17.670  12.881
54216W        W17775   7.718   3.904  12.461
54217W        W17776  42.951  42.995   2.808
54218W        W17777   4.862  37.536  13.332
54219W        W17778  14.329  14.212   4.187
54220W        W17779  31.439  23.599   0.375
54221W        W17780  29.613  44.957  14.424
54222W        W17781  16.645  31.507  13.887
54223W        W17782  39.882  28.149   1.317
54224W        W17783  18.257  18.780   2.845
54225W        W17784  28.474  39.891   3.226
54226W        W17785  10.804  28.498  11.946
54227W        W17786  16.233  12.691  10.607
54228W        W17787  15.699  27.577   5.301
54229W        W17788   3.286  18.606  13.036
54230W        W17789   3.255  32.520  13.369
54231W        W17790  37.364   9.656   3.319
54232W        W17791  32.897  17.684   4.316
54233W        W17792   3.937  38.533  11.401
54234W        W17793   9.302  19.750   0.370
54235W        W17794   9.352   4.710   1.315
54236W        W17795  40.988  17.255   4.138
54237W        W17796   9.790   5.804   4.713
54238W        W17797  13.209   2.959   3.159
54239W        W17798  16.089  26.990  13.314
54240W        W17799   1.871  23.689   0.323
54241W        W17800  15.214  17.664   2.754
54242W        W17801  10.817   8.320   0.271
54243W        W17802  23.565  44.841   1.278
54244W        W17803  28.678  23.552   9.966
54245W        W17804  11.636  22.247  13.042
54246W        W17805  24.019  34.414   0.906
54247W        W17806  38.840  28.657  13.831
54248W        W17807  18.109  24.186   4.718
54249W        W17808  12.682  23.194   4.344
54250W        W17809   1.300  16.243  12.428
54251W        W17810  13.212   5.343   4.690
54252W        W17811  44.371  40.824  14.821
54253W        W17812  15.650  26.121  13.319
54254W        W17813  37.925   8.267  13.905
54255W        W17814  30.552  32.924  10.517
54256W        W17815  11.344  10.834  10.465
54257W        W17816  33.094  18.159  11.467
54258W        W17817  13.313  18.705   4.624
54259W        W17818  31.019  33.419   1.260
54260W        W17819  40.408  15.244   0.441
54261W        W17820  13.626  41.901   3.707
54262W        W17821  17.167  13.621  10.112
54263W        W17822  10.317  44.480  14.028
54264W        W17823   2.857  34.541  10.981
54265W        W17824  26.015  33.569   1.391
54266W        W17825  15.196  19.749   0.861
54267W        W17826   2.870  25.147  13.018
54268W        W17827  33.405  32.930   0.448
54269W        W17828   8.705  39.491  13.439
54270W        W17829  19.141  10.726  13.021
54271W        W17830  25.588  10.793  13.828
54272W        W17831  30.931  29.619   1.334
54273W        W17832  30.524  13.601  12.955
54274W        W17833  19.131  30.011   1.442
54275W        W17834  17.617  40.530   3.857
54276W        W17835  38.502  42.368  11.991
54277W        W17836  43.422   0.478   3.770
54278W        W17837   5.819  25.977  14.828
54279W        W17838  39.522  15.200  14.984
54280W        W17839  37.472  38.007  10.972
54281W        W17840   0.275  24.637   3.203
54282W        W17841  17.225   2.436   1.817
54283W        W17842  16.801  10.849   0.768
54284W        W17843  18.066  23.063  13.869
54285W        W17844  17.104  41.820   0.732
54286W        W17845  38.881  23.110   0.800
54287W        W17846  43.924  27.653   3.349
54288W        W17847  35.944  23.570  13.372
54289W        W17848  31.122  41.817   3.792
54290W        W17849  31.605   7.391   4.253
54291W        W17850  27.051   4.352  10.912
54292W        W17851   2.922  40.490  12.368
54293W        W17852   3.224  23.718   4.810
54294W        W17853   7.900  26.510   3.865
54295W        W17854   0.342  13.177  11.048
54296W        W17855  15.747  17.178   1.753
54297W        W17856   2.438  25.963   3.661
54298W        W17857   6.318  22.238  10.490
54299W        W17858   7.265  29.491   3.226
54300W        W17859   2.458  26.974   2.758
54301W        W17860  28.653  40.030   3.826
54302W        W17861  25.557  21.166   0.265
54303W        W17862  36.423  43.475  10.903
54304W        W17863  16.293   8.223  13.407
54305W        W17864  20.203  13.286  13.352
54306W        W17865   4.894  44.457   1.705
54307W        W17866  22.601  13.343  10.635
54308W        W17867   7.218  32.926   3.770
54309W        W17868  10.812   1.734  14.498
54310W        W17869  36.012  37.575   0.480
54311W        W17870  42.848  14.733  12.570
54312W        W17871  11.760  43.340   3.187
54313W        W17872  31.423  23.586   4.750
54314W        W17873   6.404  23.723  11.879
54315W        W17874  16.584   8.801  12.001
54316W        W17875  20.749  24.031  14.314
54317W        W17876  37.347   8.371  10.518
54318W        W17877  11.133   4.313  11.967
54319W        W17878  17.116  25.014  13.374
54320W        W17879  36.584  39.463  14.839
54321W        W17880  38.834  19.176   5.083
54322W        W17881  33.983  35.561   0.765
54323W        W17882   2.237  26.638  11.494
54324W        W17883  24.531  29.624   4.252
54325W        W17884  22.236  44.882   4.280
54326W        W17885  25.481  19.139  13.879
54327W        W17886  29.484   1.266   1.867
54328W        W17887  36.545   7.777  12.893
54329W        W17888  31.550   8.196   3.188
54330W        W17889  25.025  41.925   3.809
54331W        W17890   4.873   2.837  11.030
54332W        W17891  16.087  37.892  14.462
54333W        W17892  12.617  19.753  11.409
54334W        W17893   1.972  17.557  13.528
54335W        W17894  39.519  16.621  11.498
54336W        W17895  22.192  10.337  12.385
54337W        W17896  34.593  43.850  12.348
54338W        W17897   4.865   7.179   1.844
54339W        W17898  41.916   7.316   1.785
54340W        W17899  43.423  34.912   0.297
54341W        W17900  39.024  31.056   3.859
54342W        W17901  16.629   5.903  14.897
54343W        W17902  41.393  24.548   2.787
54344W        W17903  42.988   1.421   4.279
54345W        W17904  14.274  24.603  14.834
54346W        W17905  18.147  33.509   2.708
54347W        W17906  40.835  27.637  12.848
54348W        W17907   7.314  19.753   1.374
54349W        W17908  18.649  34.043  11.019
54350W        W17909   4.939  21.669  11.424
54351W        W17910  12.292  43.314   4.205
54352W        W17911   4.774   6.872   2.724
54353W        W17912  32.914  13.351  10.969
54354W        W17913  41.924  34.988   1.742
54355W        W17914  39.869  34.460   0.843
54356W        W17915  41.914   8.792  11.496
54357W        W17916  26.567  26.153   4.604
54358W        W17917   7.383  23.126   2.689
54359W        W17918  42.843   4.868   4.148
54360W        W17919  22.102   0.359   4.141
54361W        W17920  28.055  24.634   4.661
54362W        W17921  19.084  32.074  11.523
54363W        W17922  30.106  13.616  13.863
54364W        W17923   4.258   2.797   2.351
54365W        W17924  40.394  31.429  13.427
54366W        W17925  26.651  25.613  14.836
54367W        W17926  39.064  24.205  13.544
54368W        W17927  44.269  39.365  13.992
54369W        W17928  33.591  36.370   2.833
54370W        W17929  42.892  19.737  13.988
54371W        W17930   3.905  28.626  11.950
54372W        W17931  13.135  30.946  14.921
54373W        W17932   9.737  41.375  11.876
54374W        W17933  21.580   4.776  10.559
54375W        W17934  17.765  37.038   4.125
54376W        W17935   8.205  43.786  10.415
54377W        W17936   3.732  20.572   1.866
54378W        W17937  31.612  12.334  11.442
54379W        W17938  34.042  41.354   2.681
54380W        W17939  13.611  43.927   4.219
54381W        W17940   2.779  30.034  11.052
54382W        W17941  34.564  12.116   3.165
54383W        W17942  36.437  38.854  13.858
54384W        W17943   4.871  15.290  14.851
54385W        W17944  29.937   1.483   0.393
54386W        W17945  40.382   5.410  13.028
54387W        W17946  14.204   1.238  13.452
54388W        W17947  15.588  18.707  14.789
54389W        W17948  38.458  41.963  11.389
54390W        W17949   1.832  29.922   4.641
54391W        W17950  16.200  41.326   4.203
54392W        W17951  16.616  35.880   4.143
54393W        W17952  11.271   9.858   4.284
54394W        W17953  18.656  25.990  11.472
54395W        W17954   9.377   4.253  14.831
54396W        W17955   1.937   5.329   1.447
54397W        W17956   1.285  41.903  11.053
54398W        W17957  21.250  43.020   1.727
54399W        W17958  22.089   5.763  14.881
54400W        W17959   7.268   6.348   1.270
54401W        W17960  40.969  29.598  11.503
54402W        W17961   6.247  32.401  12.544
54403W        W17962  30.162  40.827   5.098
54404W        W17963  39.969  41.850   4.685
54405W        W17964  21.571  13.739   3.869
54406W        W17965   7.232  13.127  11.392
54407W        W17966  38.941  38.845   3.760
54408W        W17967  29.495  38.925   3.153
54409W        W17968   0.848  20.711  10.517
54410W        W17969  35.074   6.787   3.693
54411W        W17970  32.560  15.600  14.294
54412W        W17971   0.494  11.755   1.801
54413W        W17972   5.376  10.191   0.428
54414W        W17973  38.365  15.234   3.811
54415W        W17974   8.342  28.464   0.770
54416W        W17975  36.488  13.771   1.373
54417W        W17976  29.588   7.264  11.039
54418W        W17977   8.336   1.362  13.547
54419W        W17978  29.539  16.674  13.541
54420W        W17979  37.411  43.896   4.822
54421W        W17980  30.614  26.522  11.880
54422W        W17981  12.138  13.727   0.798
54423W        W17982  12.207  10.138  10.537
54424W        W17983  29.007  35.911  14.434
54425W        W17984  35.905  41.829  13.529
54426W        W17985  37.336  34.870  12.840
54427W        W17986  21.632  35.004  12.457
54428W        W17987   4.916  42.461  11.870
54429W        W17988  14.698  17.622  10.566
54430W        W17989  23.206  38.457   1.783
54431W        W17990  31.016   3.833  12.930
54432W        W17991  26.636  30.023  10.404
54433W        W17992   8.658   2.437  10.592
54434W        W17993  23.132   5.930   3.684
54435W        W17994  43.313  37.025  10.995
54436W        W17995   0.332  41.417  12.848
54437W        W17996  24.707  13.729   3.377
54438W        W17997  39.830  43.811   3.694
54439W        W17998  24.495  36.005  13.890
54440W        W17999  40.034  24.206   1.214
54441W        W18000  36.938  36.476  11.389
54442W        W18001  28.071   7.773  12.476
54443W        W18002  33.126  44.479   0.384
54444W        W18003  16.713   6.818   1.224
54445W        W18004  32.514  38.902   1.297
54446W        W18005  42.974   5.801  13.917
54447W        W18006  36.855  29.506   1.361
54448W        W18007  24.720  26.126   1.741
54449W        W18008  18.082   5.301   0.892
54450W        W18009  13.839  13.816  12.827
54451W        W18010  16.093  12.794   0.800
54452W        W18011  20.082  18.632  14.822
54453W        W18012   6.858  25.564   4.161
54454W        W18013  12.245   6.906   3.224
54455W        W18014  32.432  25.601  14.453
54456W        W18015  15.211  13.276   4.154
54457W        W18016  20.670   8.809  13.911
54458W        W18017  28.961  16.584  13.441
54459W        W18018  29.583  37.528   1.309
54460W        W18019  15.263  18.641  13.461
54461W        W18020  16.700   6.339  11.028
54462W        W18021  40.839   1.249  10.520
54463W        W18022  30.447  29.007   1.794
54464W        W18023  44.388  28.587  12.833
54465W        W18024  20.226  38.395  13.016
54466W        W18025  15.246  21.120  11.551
54467W        W18026   1.745  31.909   3.196
54468W        W18027  22.244  32.449  13.492
54469W        W18028  10.768  19.750  11.503
54470W        W18029   9.788  44.982  11.868
54471W        W18030  22.737  28.542  12.543
54472W        W18031  43.914   8.693   2.770
54473W        W18032   1.367  35.988   4.708
54474W        W18033   6.821  12.818   1.219
54475W        W18034  31.633  28.123   3.643
54476W        W18035  24.126  19.220   1.304
54477W        W18036  24.712  10.735   1.220
54478W        W18037  29.129  13.326   3.636
54479W        W18038   1.731   5.901  13.522
54480W        W18039  40.453   9.249  11.523
54481W        W18040  43.973  24.651  13.430
54482W        W18041  17.568  41.956   1.920
54483W        W18042   3.368  15.788  11.054
54484W        W18043   4.722  42.016  14.959
54485W        W18044  44.861  20.597   4.607
54486W        W18045  41.836  33.108   4.160
54487W        W18046  22.548  39.423  14.773
54488W        W18047  13.189  42.988  12.863
54489W        W18048  42.342  42.467  13.956
54490W        W18049  19.772  22.011   1.361
54491W        W18050  23.637  27.519   1.870
54492W        W18051  28.072  32.483  13.975
54493W        W18052   6.890  28.986   3.740
54494W        W18053  33.088  40.905  12.983
54495W        W18054   6.714  26.116   0.291
54496W        W18055  44.356  26.509   1.350
54497W        W18056   2.411  32.461  13.330
54498W        W18057  11.318  10.334   2.312
54499W        W18058  37.553  12.852   0.395
54500W        W18059  36.524  40.414  14.799
54501W        W18060   4.721  19.547   2.692
54502W        W18061   4.328  10.641  11.030
54503W        W18062  16.274   0.896   0.926
54504W        W18063  11.690  30.035   0.951
54505W        W18064  20.616  16.090  12.901
54506W        W18065  28.984   1.733   0.866
54507W        W18066  23.625   7.895   2.738
54508W        W18067  31.641  31.925   4.353
54509W        W18068  24.128  31.485  14.975
54510W        W18069   5.756  18.584  10.609
54511W        W18070  26.973  21.556   2.345
54512W        W18071  44.799  28.118   3.295
54513W        W18072  26.001   1.751   4.688
54514W        W18073  23.206  17.253   2.372
54515W        W18074  36.029  14.807  13.949
54516W        W18075  43.462  30.462  14.365
54517W        W18076  42.787  38.375   4.117
54518W        W18077   3.424   9.710   4.821
54519W        W18078  10.329  25.648   3.379
54520W        W18079  32.114  26.997   0.423
54521W        W18080  21.075  16.791  14.417
54522W        W18081  20.163   0.383   2.418
54523W        W18082  10.227  16.177   1.734
54524W        W18083   1.880  16.291  14.900
54525W        W18084  18.726   7.219   2.362
54526W        W18085  37.505   1.306   2.896
54527W        W18086  41.847  34.472  10.997
54528W        W18087   1.291  14.808   3.224
54529W        W18088  24.051  13.605   1.751
54530W        W18089  14.589  27.027   4.162
54531W        W18090  28.018  35.858  12.863
54532W        W18091   3.892  14.705   0.950
54533W        W18092  23.112  18.739  13.836
54534W        W18093  40.381  26.959   0.288
54535W        W18094  13.259  24.083  14.413
54536W        W18095   0.330  15.328   4.136
54537W        W18096  35.098  38.526   0.322
54538W        W18097   8.307  31.993  14.019
54539W        W18098  42.896  24.999  14.431
54540W        W18099  25.160  38.339  14.361
54541W        W18100  28.441  18.073   1.720
54542W        W18101  40.494  40.533  12.062
54543W        W18102   2.749   5.829  11.378
54544W        W18103  40.897  19.100   4.662
54545W        W18104  26.635  42.939  12.939
54546W        W18105  12.282  36.900  11.119
54547W        W18106  12.710   5.729  12.018
54548W        W18107  18.720  21.153  14.832
54549W        W18108  15.291  30.153   2.392
54550W        W18109  43.423  29.101   2.799
54551W        W18110  11.227  36.384  14.326
54552W        W18111   6.275  22.538  11.047
54553W        W18112  29.160   7.199  12.069
54554W        W18113  40.005  24.518  11.552
54555W        W18114  41.337  14.234   4.254
54556W        W18115  43.017  11.675   5.129
54557W        W18116  44.269  18.079   0.924
54558W        W18117   9.228  39.859   4.823
54559W        W18118  12.813  12.132   0.901
54560W        W18119   7.906   7.358  11.464
54561W        W18120  26.989  41.421  11.414
54562W        W18121  41.965  29.932  11.462
54563W        W18122  39.819  28.936  11.570
54564W        W18123  13.648  43.472   3.857
54565W        W18124  34.981  26.004  14.482
54566W        W18125  15.769   7.217   1.266
54567W        W18126  16.183  44.397  12.076
54568W        W18127  40.980  43.843   1.808
54569W        W18128  40.970  40.415  10.930
54570W        W18129  30.135   0.446  13.415
54571W        W18130  38.973  43.845   3.636
54572W        W18131  41.010  30.089   3.650
54573W        W18132  24.689  36.383  14.378
54574W        W18133  26.487  43.774   2.749
54575W        W18134  15.640  21.077  10.927
54576W        W18135  36.858  31.944  13.976
54577W        W18136  22.618  10.332  12.465
54578W        W18137  29.458  13.624  13.814
54579W        W18138   7.783  16.103   2.683
54580W        W18139   2.767  37.989   3.256
54581W        W18140  39.557   8.406   1.761
54582W        W18141  17.241  28.172   4.758
54583W        W18142   2.739  11.684   3.338
54584W        W18143  34.538  43.813  11.088
54585W        W18144  26.691  32.953   2.250
54586W        W18145  36.055  18.116  14.995
54587W        W18146   2.274   3.822  14.429
54588W        W18147   9.333   5.733   0.857
54589W        W18148  34.609  16.304   3.280
54590W        W18149  13.791   3.950  10.926
54591W        W18150  35.108  44.757  12.462
54592W        W18151  17.282  27.637  14.004
54593W        W18152  13.320  29.123  13.546
54594W        W18153  34.002  35.887  12.366
54595W        W18154  44.327   5.390   2.246
54596W        W18155  28.042  32.527   4.261
54597W        W18156  22.044  31.106   3.183
54598W        W18157  19.727  43.832  10.907
54599W        W18158   1.803  37.975   2.810
54600W        W18159   6.343   4.236   0.873
54601W        W18160   1.771   8.780  14.354
54602W        W18161  16.616  28.025   4.187
54603W        W18162  15.660  39.327   1.753
54604W        W18163  13.637   2.948   1.272
54605W        W18164  41.473  24.499   3.305
54606W        W18165  36.429  42.938   1.863
54607W        W18166  24.084  30.945  12.355
54608W        W18167  17.771  34.064   1.905
54609W        W18168  11.763  14.615   2.674
54610W        W18169  18.218  13.136   2.703
54611W        W18170  17.610  39.331  14.893
54612W        W18171  32.958  25.976   2.392
54613W        W18172  40.518  40.310   2.216
54614W        W18173  40.342  15.257   3.282
54615W        W18174  23.066  16.652   3.765
54616W        W18175   9.767   2.831  14.852
54617W        W18176  42.527  23.593  13.359
54618W        W18177   1.929  43.016  13.973
54619W        W18178   7.397  24.626   2.286
54620W        W18179   9.887  16.096  11.612
54621W        W18180   1.435  21.028  11.540
54622W        W18181  28.064  20.109   1.831
54623W        W18182  12.637  18.693   0.791
54624W        W18183  44.460   6.237   2.280
54625W        W18184  29.039  38.468   3.387
54626W        W18185  18.171  41.491   0.948
54627W        W18186   2.454  20.228  13.047
54628W        W18187   2.857  10.819  13.418
54629W        W18188  20.080  35.989   3.795
54630W        W18189  41.885  37.998  11.375
54631W        W18190  22.177  20.211   1.341
54632W        W18191  13.763  37.352  10.939
54633W        W18192  26.468   7.823  11.537
54634W        W18193  41.031  37.540   1.440
54635W        W18194  23.634  36.534  14.412
54636W        W18195  43.006  17.150  12.938
54637W        W18196  37.875  42.911  11.015
54638W        W18197   4.449   7.413  11.558
54639W        W18198  16.703  13.619   3.779
54640W        W18199  44.416  31.958  12.922
54641W        W18200  14.215  21.673   3.678
54642W        W18201  14.740  37.503  14.979
54643W        W18202  29.489  28.996  12.482
54644W        W18203  36.575  22.551  13.062
54645W        W18204  23.548  35.433  13.845
54646W        W18205  38.394  35.996   4.114
54647W        W18206  30.511   3.838   3.291
54648W        W18207  35.427  25.675   1.283
54649W        W18208  22.205   1.964  12.961
54650W        W18209  35.457  44.380   4.731
54651W        W18210  34.911  14.819   0.340
54652W        W18211   9.738  28.441  10.407
54653W        W18212  27.615   8.829  11.066
54654W        W18213   8.710   9.328  13.547
54655W        W18214  20.046  22.149  13.489
54656W        W18215  24.082   7.858   4.173
54657W        W18216   8.826  23.686  10.906
54658W        W18217  14.307   4.357  13.468
54659W        W18218  37.049   3.866   0.923
54660W        W18219  36.446  35.368   5.245
54661W        W18220  30.957  11.206  13.826
54662W        W18221   5.368   6.723   0.294
54663W        W18222  26.477  19.200  11.477
54664W        W18223  28.680  18.719  14.803
54665W        W18224  27.104  27.039   4.333
54666W        W18225   8.851   9.827  11.391
54667W        W18226  27.993   8.891   1.700
54668W        W18227  39.869  33.984   1.827
54669W        W18228   1.972   5.304  14.027
54670W        W18229  24.621   0.781   0.434
54671W        W18230  32.414   2.352  12.011
54672W        W18231  30.629  22.129   2.310
54673W        W18232  35.000   9.870   2.786
54674W        W18233  42.840  30.520  12.941
54675W        W18234  31.567  31.617  11.078
54676W        W18235  29.152  33.396   4.327
54677W        W18236  16.693  38.475  11.507
54678W        W18237  20.099  32.531   4.635
54679W        W18238  41.319  35.917  11.988
54680W        W18239  15.210  31.532   0.370
54681W        W18240  14.132   2.377  11.924
54682W        W18241  40.520  24.010  11.950
54683W        W18242   1.925  24.200   1.899
54684W        W18243  24.184  13.770   4.153
54685W        W18244   6.809  17.061  11.587
54686W        W18245  44.505  14.834  12.069
54687W        W18246  31.986  23.548   4.715
54688W        W18247  21.091  29.450   3.673
54689W        W18248  28.184  28.440   3.362
54690W        W18249  43.414  16.569  11.379
54691W        W18250  42.496  33.548  13.850
54692W        W18251  24.089  24.540  14.404
54693W        W18252  20.672  29.465   1.880
54694W        W18253  34.568  15.711  10.141
54695W        W18254  25.698   9.692   5.123
54696W        W18255  24.525  42.381   1.893
54697W        W18256   7.710  37.080   2.706
54698W        W18257  39.834  21.577   2.293
54699W        W18258  12.362   2.784  11.068
54700W        W18259  39.560   1.879   3.172
54701W        W18260  18.158  23.174   4.612
54702W        W18261  10.357   2.437  12.458
54703W        W18262   5.396  10.651   2.681
54704W        W18263  19.156  15.206  13.831
54705W        W18264  26.032  21.585   3.731
54706W        W18265   8.350  32.119   3.664
54707W        W18266  21.675  23.208   4.635
54708W        W18267  41.797  27.486  13.369
54709W        W18268  36.571  13.172  12.881
54710W        W18269  41.495   2.410   4.168
54711W        W18270  34.082  13.616  12.513
54712W        W18271  41.507   7.417   4.118
54713W        W18272  35.905  31.513  11.107
54714W        W18273  28.045  22.089  12.925
54715W        W18274  23.636  23.057  12.025
54716W        W18275  29.989  17.643   4.263
54717W        W18276  32.960  13.745  11.506
54718W        W18277  43.017  10.149  11.002
54719W        W18278  27.543   1.856   3.318
54720W        W18279  26.547   8.181  14.372
54721W        W18280  39.039  10.245   5.151
54722W        W18281  27.058  13.177  13.807
54723W        W18282  34.455  32.537  10.992
54724W        W18283  31.069   8.354  11.405
54725W        W18284  36.351  14.098   1.799
54726W        W18285   5.845  15.742   0.790
54727W        W18286  11.343  44.832  14.424
54728W        W18287  36.981   5.779   3.830
54729W        W18288  23.217  32.094  11.020
54730W        W18289  38.565  11.136   3.774
54731W        W18290  12.683  44.327  13.364
54732W        W18291  29.107  33.597   0.255
54733W        W18292  44.410  22.231  14.282
54734W        W18293   9.783  27.515   0.476
54735W        W18294   6.413   2.353  12.080
54736W        W18295  10.840   7.866   2.329
54737W        W18296  16.696  36.397   2.775
54738W        W18297  27.038  10.723  13.351
54739W        W18298  22.249  30.920   0.400
54740W        W18299   2.277  22.719  14.516
54741W        W18300  33.925   9.381  12.966
54742W        W18301  38.027   9.321   5.166
54743W        W18302  35.472   3.856   2.327
54744W        W18303  31.505  37.405  14.395
54745W        W18304  20.629  44.987  11.983
54746W        W18305  33.942  34.422   4.811
54747W        W18306  42.993  24.703  10.990
54748W        W18307  27.528   3.426   3.179
54749W        W18308  20.591  33.132   1.740
54750W        W18309  43.405  43.451  12.858
54751W        W18310  20.054  42.830   1.780
54752W        W18311  26.974  26.043  11.521
54753W        W18312  21.538   5.312  12.917
54754W        W18313  11.645  26.985  11.605
54755W        W18314  27.001  29.548  12.932
54756W        W18315  21.094  36.390   4.808
54757W        W18316  33.090  34.998   0.740
54758W        W18317   9.172  11.656  13.394
54759W        W18318  26.557   4.922   1.708
54760W        W18319   1.354   4.295   2.745
54761W        W18320  37.946   2.829   3.216
54762W        W18321  15.259  35.479  11.451
54763W        W18322  25.629   5.862   3.174
54764W        W18323  21.741  28.481  10.132
54765W        W18324  13.665  10.691  14.859
54766W        W18325  19.200  31.063  11.549
54767W        W18326  17.071  12.324   1.341
54768W        W18327  39.538  38.557   1.865
54769W        W18328  36.381  19.585  12.836
54770W        W18329  23.006   4.409  12.911
54771W        W18330  11.690  41.997   2.780
54772W        W18331  34.924  32.092  10.036
54773W        W18332  14.252  28.107  12.419
54774W        W18333   6.411  29.961  14.885
54775W        W18334  11.866  17.681   1.390
54776W        W18335   1.364  37.911  11.434
54777W        W18336  32.598  11.802   3.643
54778W        W18337   2.346   4.858   5.208
54779W        W18338  33.517   1.464  12.579
54780W        W18339  20.160   1.294  13.815
54781W        W18340  12.256   4.316  14.913
54782W        W18341   3.898   2.829   3.836
54783W        W18342   6.765   8.215   1.279
54784W        W18343  21.033   9.370   4.702
54785W        W18344  15.158  33.459  14.963
54786W        W18345  15.175  21.111   2.673
54787W        W18346  19.645  43.433  11.446
54788W        W18347  17.304  25.520   3.656
54789W        W18348  15.192   1.736   1.435
54790W        W18349  27.192   8.738  10.418
54791W        W18350  15.579  35.067   4.655
54792W        W18351  23.597  36.975  13.956
54793W        W18352  26.460   4.206  12.513
54794W        W18353   9.326   9.877   0.442
54795W        W18354   2.800  21.575  10.512
54796W        W18355  37.955  39.548   1.427
54797W        W18356   7.760   6.394   3.283
54798W        W18357   8.794  38.984  14.382
54799W        W18358   1.440  42.003   3.665
54800W        W18359  32.635  20.640   2.236
54801W        W18360  16.099   9.722  11.481
54802W        W18361  24.220  13.310   0.832
54803W        W18362  18.544   1.354   3.719
54804W        W18363  31.588  33.517   4.119
54805W        W18364   3.227   3.760   1.326
54806W        W18365  33.983  12.631  14.330
54807W        W18366  20.710  17.697   3.310
54808W        W18367  37.046  37.512   3.159
54809W        W18368   4.886  35.378  13.840
54810W        W18369  20.078  21.176   1.783
54811W        W18370  24.140  28.186  10.027
54812W        W18371  22.068  15.696  11.473
54813W        W18372   2.462   8.325  11.441
54814W        W18373  22.544  12.142   5.241
54815W        W18374   8.297  26.127   4.751
54816W        W18375  39.441  31.927   3.235
54817W        W18376  27.061  10.785   0.810
54818W        W18377  29.040  12.658  13.538
54819W        W18378  40.870  11.759  11.379
54820W        W18379  32.923  43.969  11.024
54821W        W18380   3.927  12.844  13.852
54822W        W18381  42.490   5.416  12.866
54823W        W18382  14.621   8.840  14.882
54824W        W18383  15.753   8.228  14.434
54825W        W18384  31.031  31.117  10.533
54826W        W18385   2.316  41.869  10.952
54827W        W18386  44.874  38.458   4.155
54828W        W18387  44.780  12.694   1.399
54829W        W18388  34.534  30.491  14.823
54830W        W18389  41.929  11.281  14.860
54831W        W18390   0.389  44.822  10.433
54832W        W18391  41.823  25.504   4.183
54833W        W18392   4.414  30.624  12.033
54834W        W18393  23.685  27.451   0.838
54835W        W18394  12.196  18.586   2.785
54836W        W18395  32.529   4.412  11.578
54837W        W18396   2.843  27.675   3.189
54838W        W18397  38.869  42.947  11.547
54839W        W18398  13.171  37.959   1.286
54840W        W18399  13.257  35.462   2.326
54841W        W18400  34.984  11.819  10.098
54842W        W18401  31.532  41.026  11.959
54843W        W18402  27.447  27.599  13.522
54844W        W18403  36.538  15.206   0.242
54845W        W18404  31.923  30.422  14.489
54846W        W18405   6.414  10.337  10.411
54847W        W18406  26.992  38.338  13.401
54848W        W18407  31.582  22.745  13.840
54849W        W18408  27.026  14.734  14.871
54850W        W18409  37.896  33.956  13.324
54851W        W18410  22.089  28.142   0.832
54852W        W18411  32.022   1.388   0.268
54853W        W18412  35.056  11.333  10.990
54854W        W18413   9.355  40.817  12.838
54855W        W18414  22.707  15.208   3.207
54856W        W18415  22.148  39.317   1.228
54857W        W18416  11.190  41.860  13.396
54858W        W18417  37.857  10.175   1.372
54859W        W18418   8.846  16.672  14.477
54860W        W18419  18.291   0.817  12.991
54861W        W18420   7.200  42.457  10.490
54862W        W18421   3.449  23.103   2.388
54863W        W18422   1.733  15.800   4.773
54864W        W18423   0.271  25.642  11.969
54865W        W18424  14.193  12.781  13.030
54866W        W18425  20.694  21.260   0.321
54867W        W18426  11.138  26.966  10.485
54868W        W18427  12.323  32.426  14.910
54869W        W18428   3.345  24.188  12.059
54870W        W18429   2.414   6.309  11.540
54871W        W18430  40.536  14.727  10.542
54872W        W18431   4.238   8.714   3.710
54873W        W18432  22.047   2.736  11.473
54874W        W18433  35.379   5.228  13.338
54875W        W18434  42.888  35.059  14.451
54876W        W18435  37.552   7.666  13.853
54877W        W18436  33.495  23.986   2.359
54878W        W18437   2.387  17.712   1.705
54879W        W18438  23.995  38.866  13.843
54880W        W18439   1.869  43.322   3.742
54881W        W18440  32.110  42.475  14.858
54882W        W18441   4.294  15.741  13.458
54883W        W18442  22.657  31.539   3.741
54884W        W18443  43.978  23.660   4.246
54885W        W18444   6.408  18.249  14.861
54886W        W18445  15.640  26.467  13.826
54887W        W18446  41.324   1.912   2.880
54888W        W18447   7.175  22.027  13.838
54889W        W18448  10.155  43.387   2.180
54890W        W18449  17.296   4.870   4.649
54891W        W18450   9.233   6.838   4.184
54892W        W18451  37.840  42.809   0.252
54893W        W18452  16.681  27.981   3.168
54894W        W18453  37.494  19.059  12.434
54895W        W18454  25.630  30.552   9.930
54896W        W18455   3.783   7.717  11.426
54897W        W18456   1.276  41.025   2.870
54898W        W18457  16.218  19.568  14.424
54899W        W18458  21.739   8.273   2.684
54900W        W18459   9.727  14.677   4.628
54901W        W18460  22.520  36.996  11.916
54902W        W18461  11.767  11.371  12.460
54903W        W18462   9.794  33.995  10.953
54904W        W18463  28.489  25.675   1.366
54905W        W18464  23.186  19.234  13.339
54906W        W18465   4.725  17.073  12.972
54907W        W18466   0.786  24.055  12.469
54908W        W18467   4.219  20.711   1.355
54909W        W18468  32.598  40.464   3.313
54910W        W18469  35.978   7.789   4.678
54911W        W18470  20.054  40.353  11.575
54912W        W18471  23.699  32.005  13.051
54913W        W18472  35.597  22.594   1.791
54914W        W18473  36.976  43.929   0.862
54915W        W18474  21.577  31.605   9.486
54916W        W18475   4.272   5.719   4.199
54917W        W18476  34.440  35.440  14.839
54918W        W18477  12.813   2.316  14.985
54919W        W18478   2.356  39.406  11.120
54920W        W18479  18.755   4.322   2.709
54921W        W18480   7.775  39.481   3.780
54922W        W18481  36.047  16.220   0.779
54923W        W18482  27.498  22.075   1.332
54924W        W18483  30.908   0.742   1.777
54925W        W18484  27.168  26.545  14.434
54926W        W18485  22.653  22.016   3.283
54927W        W18486   1.458  34.882   2.754
54928W        W18487   7.739  27.570  14.759
54929W        W18488  19.617  22.523   4.325
54930W        W18489   7.678  41.003  12.950
54931W        W18490  33.875  32.042  13.872
54932W        W18491  39.350   4.735  11.379
54933W        W18492  15.817  11.153  10.581
54934W        W18493  42.500  32.558   1.813
54935W        W18494  15.672  23.004  14.460
54936W        W18495   8.733  30.095  12.861
54937W        W18496   7.718  10.280   0.311
54938W        W18497   5.701  24.559  12.540
54939W        W18498   0.284  42.913  13.500
54940W        W18499  28.524  17.752   4.175
54941W        W18500  12.712   4.758  12.544
54942W        W18501   3.828  24.187   1.836
54943W        W18502   1.940  34.013  12.862
54944W        W18503  19.745  22.180  11.446
54945W        W18504  12.639   9.229  12.877
54946W        W18505  27.672  19.567   3.746
54947W        W18506  31.075   0.415   4.246
54948W        W18507  26.149  15.127   2.339
54949W        W18508  38.885   5.856   2.709
54950W        W18509  15.109  36.406  11.484
54951W        W18510  26.125  25.042  11.611
54952W        W18511  21.546  34.092   0.740
54953W        W18512  18.751  14.253   4.114
54954W        W18513  28.458  28.965   1.439
54955W        W18514  36.858   6.723   1.813
54956W        W18515  34.389  37.074  11.913
54957W        W18516  40.952  34.031  10.448
54958W        W18517  28.678  26.144   2.366
54959W        W18518  35.104  24.582  13.382
54960W        W18519  18.604  10.375   1.789
54961W        W18520  44.908  38.942  10.949
54962W        W18521  27.463  17.707  10.549
54963W        W18522   6.310  18.728   4.775
54964W        W18523   2.932   0.413  13.485
54965W        W18524  22.595  27.456   2.368
54966W        W18525  10.326   3.308   4.320
54967W        W18526   6.309  44.450   3.794
54968W        W18527  39.873   1.747  14.485
54969W        W18528   3.785  32.972  12.072
54970W        W18529  17.591  28.130   0.434
54971W        W18530  30.456   9.655   3.300
54972W        W18531  12.305  28.125  12.847
54973W        W18532  37.575  27.056   2.902
54974W        W18533  37.549   5.361   4.338
54975W        W18534  37.337  15.626   0.459
54976W        W18535  17.130  38.349   0.434
54977W        W18536  39.950  38.407  13.923
54978W        W18537  19.088  15.264   3.286
54979W        W18538  20.031   0.864   1.917
54980W        W18539  31.637  16.732  12.064
54981W        W18540  28.967  42.455  14.485
54982W        W18541  20.630   0.354   1.905
54983W        W18542  15.742  31.051  12.024
54984W        W18543  29.460  16.257   4.218
54985W        W18544  11.642  35.894  11.548
54986W        W18545  26.493  21.240   0.738
54987W        W18546  27.521  19.242  12.875
54988W        W18547  28.513  31.074   4.644
54989W        W18548   7.276  14.632  13.994
54990W        W18549  33.910  41.978  12.019
54991W        W18550  32.070  17.670  14.014
54992W        W18551  40.829   6.407  12.011
54993W        W18552  40.816  19.585  11.399
54994W        W18553  23.726  39.015   3.698
54995W        W18554  17.085  12.840   4.163
54996W        W18555   1.968  38.477  10.612
54997W        W18556  32.462  40.334  13.829
54998W        W18557   1.909  19.158  12.430
54999W        W18558  25.635  27.036   3.293
55000W        W18559  42.284  28.121   3.735
55001W        W18560  26.043   3.839  13.885
55002W        W18561  25.148  28.654  14.400
55003W        W18562  22.588  42.886   2.847
55004W        W18563  39.847  39.066   1.809
55005W        W18564  41.430  39.332   1.216
55006W        W18565  17.776  18.277   0.414
55007W        W18566  11.814  28.056  10.617
55008W        W18567  22.631  26.503  13.920
55009W        W18568  16.152  21.517  12.991
55010W        W18569  34.587  20.034  14.883
55011W        W18570  30.524  28.563   3.250
55012W        W18571  35.563  31.489  12.386
55013W        W18572   6.840  12.738  12.028
55014W        W18573  21.061  20.067  11.120
55015W        W18574   9.364  14.139  12.454
55016W        W18575  10.832   0.909  10.503
55017W        W18576  10.153   7.883   2.250
55018W        W18577   1.920  38.520  14.981
55019W        W18578  43.407  13.329   1.245
55020W        W18579   6.690  30.019  14.467
55021W        W18580  13.820  36.378   0.930
55022W        W18581   6.858  44.964  11.604
55023W        W18582  37.956  37.403  10.895
55024W        W18583  43.005  42.883  12.005
55025W        W18584   7.272  43.480   0.299
55026W        W18585  40.456  12.206   2.772
55027W        W18586  42.407  34.911   0.791
55028W        W18587  32.964  11.161   2.731
55029W        W18588  13.671  40.028  14.425
55030W        W18589  41.446   6.858  14.898
55031W        W18590  18.758  19.254   3.689
55032W        W18591   6.365  11.345  10.490
55033W        W18592  32.445  16.147  13.416
55034W        W18593  28.036   1.325  13.499
55035W        W18594   0.442  39.373   2.886
55036W        W18595  44.956   8.397  14.801
55037W        W18596  11.640  19.698  14.461
55038W        W18597  32.408  15.810   3.360
55039W        W18598  28.135  40.396  12.539
55040W        W18599  27.551  38.052   1.316
55041W        W18600  39.931   9.668  13.335
55042W        W18601  21.545  39.979  11.607
55043W        W18602  11.851   2.284   4.221
55044W        W18603  32.025  44.926   3.671
55045W        W18604  38.459  11.212   0.943
55046W        W18605  40.523  28.580   2.187
55047W        W18606  25.188  15.768  14.786
55048W        W18607  37.422  22.072   3.661
55049W        W18608  34.488   4.785   3.239
55050W        W18609  24.176  33.435  12.487
55051W        W18610   3.397  44.356   1.404
55052W        W18611  11.327  19.141   0.749
55053W        W18612   5.291   7.211  14.494
55054W        W18613  21.514  43.011  14.789
55055W        W18614  15.190  13.756   3.155
55056W        W18615  34.372  39.823  11.537
55057W        W18616  24.492  11.753  14.918
55058W        W18617   2.460  34.481  13.449
55059W        W18618   3.292  10.154  10.989
55060W        W18619   8.830   7.382   2.757
55061W        W18620  13.737   5.766  14.385
55062W        W18621   4.414  29.049   2.192
55063W        W18622  32.550  34.559   2.241
55064W        W18623   4.431  22.053  13.999
55065W        W18624  21.660  23.082   3.837
55066W        W18625  21.694  34.872  10.889
55067W        W18626  37.891  29.479   4.243
55068W        W18627  37.984  20.711  14.474
55069W        W18628  42.508  17.089  13.517
55070W        W18629  32.614   5.722  14.847
55071W        W18630  43.875  41.004   4.670
55072W        W18631  23.651  29.492   2.350
55073W        W18632   4.407  37.579   2.676
55074W        W18633  33.444  16.576  12.836
55075W        W18634  25.574  13.785   3.646
55076W        W18635  10.143  39.514   3.373
55077W        W18636  31.128  23.027   1.225
55078W        W18637  30.531   7.178   4.633
55079W        W18638  19.186   8.827   4.698
55080W        W18639  24.177  23.153  13.409
55081W        W18640  38.018  22.504   4.696
55082W        W18641   9.175  41.814   3.787
55083W        W18642  30.946  43.836  11.101
55084W        W18643  12.308  11.258   4.238
55085W        W18644  32.070   2.769  14.313
55086W        W18645  34.923  38.350  13.850
55087W        W18646  40.846  27.447   1.278
55088W        W18647  20.190   3.935   4.198
55089W        W18648   9.858   8.232   1.340
55090W        W18649  23.091  34.881   2.235
55091W        W18650  34.379   7.268   9.942
55092W        W18651  20.155  26.147   0.346
55093W        W18652  13.709  10.661   5.127
55094W        W18653  36.494  18.101   1.352
55095W        W18654  26.661  18.593  12.072
55096W        W18655  41.863  19.768   0.744
55097W        W18656  21.565  40.544  11.997
55098W        W18657  27.167  12.195  14.349
55099W        W18658  23.157  43.280  10.588
55100W        W18659  20.622  42.525  13.435
55101W        W18660   5.807  15.622   2.714
55102W        W18661  26.146   0.439  12.440
55103W        W18662   2.759  44.759   2.850
55104W        W18663  43.991  38.946  10.411
55105W        W18664   9.699  11.256   0.337
55106W        W18665   3.232  43.829   4.770
55107W        W18666  20.594  42.430  10.531
55108W        W18667   7.306  32.448   0.473
55109W        W18668  12.842  37.571   5.251
55110W        W18669  13.176  37.416  14.423
55111W        W18670  18.674  32.966  11.012
55112W        W18671   4.722  24.708   0.445
55113W        W18672  33.450  20.676  11.029
55114W        W18673  42.972   5.419   2.775
55115W        W18674   4.404   8.260   1.269
55116W        W18675  22.743   2.928  12.934
55117W        W18676   6.703  33.083   2.706
55118W        W18677   7.293  17.063   4.765
55119W        W18678  13.603  41.398  10.522
55120W        W18679  35.551  38.365  11.085
55121W        W18680   2.289  24.520  11.114
55122W        W18681  33.499  38.410   3.382
55123W        W18682  34.889  19.727  10.618
55124W        W18683  16.715   3.441  12.548
55125W        W18684   2.327  39.919   2.780
55126W        W18685  18.575  16.768   4.612
55127W        W18686   7.388  11.166  11.097
55128W        W18687  41.529   4.225   0.931
55129W        W18688  35.875  39.924  11.547
55130W        W18689   3.795  11.209   0.940
55131W        W18690  26.080  12.835  14.919
55132W        W18691  24.524  14.237   3.833
55133W        W18692  22.674  29.052   1.300
55134W        W18693  40.404  21.684  13.795
55135W        W18694  10.282  26.048   0.813
55136W        W18695  10.673  33.052  12.895
55137W        W18696  36.973  24.102  12.007
55138W        W18697  43.302  13.731  12.019
55139W        W18698  33.397   8.280  11.528
55140W        W18699   7.320  34.490  14.930
55141W        W18700  29.621  24.102  13.920
55142W        W18701   6.776  36.364   4.656
55143W        W18702  41.930  17.218   3.301
55144W        W18703  30.082  33.555  14.439
55145W        W18704  12.160  32.508   0.348
55146W        W18705  13.135  15.222   4.196
55147W        W18706   1.770  33.555  14.327
55148W        W18707  24.610  36.960  11.394
55149W        W18708  43.002  38.995  12.988
55150W        W18709  20.735  10.723  13.801
55151W        W18710   5.858  16.784  12.014
55152W        W18711   5.914  42.914  12.089
55153W        W18712  32.456   3.723  14.343
55154W        W18713   5.797   8.362  12.016
55155W        W18714  41.018   1.423  12.011
55156W        W18715  39.023   8.266   9.963
55157W        W18716  28.070  25.638   4.618
55158W        W18717  43.509  33.969   3.154
55159W        W18718  11.792  41.505  12.540
55160W        W18719  28.653  23.563   0.449
55161W        W18720  32.533  38.553   5.233
55162W        W18721  31.110  25.096  13.847
55163W        W18722   4.927  32.522   2.840
55164W        W18723  36.393  28.090  13.048
55165W        W18724  39.537  12.799   0.961
55166W        W18725  35.919  36.080  13.443
55167W        W18726  39.539  40.052   4.728
55168W        W18727  40.865  38.436   0.458
55169W        W18728  40.031  25.083   2.286
55170W        W18729  23.075   5.197  10.941
55171W        W18730  20.529  40.000  12.052
55172W        W18731   3.820  28.551  11.015
55173W        W18732  15.791  41.434  14.912
55174W        W18733  17.090  40.846  10.508
55175W        W18734  11.138  31.501  14.889
55176W        W18735  11.624  22.698   4.753
55177W        W18736  42.789  33.513  11.958
55178W        W18737   6.797  30.451  12.521
55179W        W18738  26.116  20.716  11.996
55180W        W18739   2.310  13.742   0.752
55181W        W18740  23.652  17.786  12.913
55182W        W18741   9.258  12.241   9.532
55183W        W18742  23.553   5.221   4.830
55184W        W18743  12.846  14.811  10.892
55185W        W18744  26.111  29.085  14.780
55186W        W18745   7.677  34.981   4.742
55187W        W18746   4.406  25.556  14.001
55188W        W18747  26.038  30.046  12.521
55189W        W18748  14.336  44.942  11.880
55190W        W18749  25.025  19.218   3.196
55191W        W18750  28.158  21.191  12.988
55192W        W18751  25.599  14.208   1.857
55193W        W18752  32.994  35.527  11.099
55194W        W18753   1.928  36.393   3.307
55195W        W18754   2.784  33.025   3.848
55196W        W18755   2.243  44.394  11.576
55197W        W18756  14.825   8.198  11.025
55198W        W18757  28.669  39.508  10.548
55199W        W18758  40.533  11.208   4.829
55200W        W18759   5.197   1.332   2.263
55201W        W18760  14.216  44.278  14.386
55202W        W18761  29.097  17.282  10.953
55203W        W18762  17.181  14.612   3.726
55204W        W18763   0.756   3.247   1.725
55205W        W18764   3.345   9.804  10.971
55206W        W18765  13.132  15.158  13.380
55207W        W18766  26.633  22.217   3.168
55208W        W18767   7.355  38.918  11.583
55209W        W18768   5.873   6.726  13.846
55210W        W18769   3.229  43.442  11.493
55211W        W18770  40.346  23.169  14.942
55212W        W18771  30.137   2.780   0.366
55213W        W18772  13.203   4.422   3.330
55214W        W18773  22.217   6.301  13.016
55215W        W18774  40.356  20.552  10.522
55216W        W18775  12.739  20.591  14.425
55217W        W18776  26.607   3.267  13.960
55218W        W18777  22.012  42.814  12.360
55219W        W18778  36.017  25.592  13.517
55220W        W18779  16.666  31.980  12.091
55221W        W18780  25.132   0.886  13.894
55222W        W18781  13.682  12.138   2.245
55223W        W18782   7.729  21.728   4.836
55224W        W18783  43.874  36.955  13.470
55225W        W18784   3.819  31.955  10.487
55226W        W18785  35.858   7.739   2.746
55227W        W18786   5.701   4.872  10.056
55228W        W18787  30.484  18.287  12.501
55229W        W18788  38.984  43.796  12.978
55230W        W18789  21.718   5.427   1.709
55231W        W18790  41.786  26.486   0.363
55232W        W18791  43.442  12.354   2.386
55233W        W18792  34.580  26.531   3.855
55234W        W18793  19.667   0.429  12.550
55235W        W18794  34.470  13.267   2.263
55236W        W18795  42.806  36.354   2.180
55237W        W18796  10.175  18.108   1.923
55238W        W18797  19.687  22.617   3.203
55239W        W18798  34.406  31.066   3.349
55240W        W18799  11.747  25.478  12.037
55241W        W18800  43.351  32.079  14.495
55242W        W18801  32.969  28.954  10.904
55243W        W18802  12.224  42.338   2.287
55244W        W18803  16.100  28.662  13.837
55245W        W18804  29.583  37.011   1.760
55246W        W18805  28.986   3.259   4.641
55247W        W18806  28.152  21.110  10.622
55248W        W18807  10.655  42.401  14.000
55249W        W18808  26.498  29.087  13.856
55250W        W18809   4.867  11.193  14.443
55251W        W18810  10.737  12.338  11.875
55252W        W18811  20.737  15.310   0.248
55253W        W18812  18.113  23.567  10.889
55254W        W18813  12.781   6.903   3.826
55255W        W18814   8.235  29.492  11.524
55256W        W18815  15.812  30.503   5.309
55257W        W18816  25.206  39.447  11.089
55258W        W18817  43.863  22.019   2.751
55259W        W18818  41.980  38.830   4.820
55260W        W18819  36.879  34.612  13.051
55261W        W18820  13.112  16.207   3.254
55262W        W18821  32.435  35.037   3.228
55263W        W18822  16.269  16.795   4.126
55264W        W18823   9.366  43.498   0.738
55265W        W18824   3.761  26.580  11.432
55266W        W18825   9.185  13.166   3.856
55267W        W18826   1.414  10.318   1.440
55268W        W18827  11.790  22.014   1.344
55269W        W18828  31.630   9.160   4.174
55270W        W18829  14.257   0.761   5.258
55271W        W18830  42.994  13.679   2.883
55272W        W18831  41.891  40.860  11.124
55273W        W18832  23.996  10.754   3.384
55274W        W18833  32.972  32.959  11.472
55275W        W18834  37.440   9.389  13.019
55276W        W18835  22.044  16.594  12.577
55277W        W18836  36.558  32.475  12.902
55278W        W18837  43.350  17.800  10.558
55279W        W18838  44.799  43.771  12.983
55280W        W18839   7.732  44.461   0.854
55281W        W18840   2.334   4.788   2.780
55282W        W18841  36.065  41.932  11.122
55283W        W18842  38.952  41.485  12.948
55284W        W18843  28.107  35.045  12.516
55285W        W18844   8.242  21.119  11.521
55286W        W18845  29.042   9.753   1.403
55287W        W18846  19.555  16.149   2.761
55288W        W18847  13.340  22.200  12.008
55289W        W18848  18.095   3.273  10.010
55290W        W18849  36.860  41.000  10.432
55291W        W18850  13.223  25.064  14.785
55292W        W18851   9.747  39.874   4.729
55293W        W18852  15.314   3.742  12.077
55294W        W18853  21.047   2.849   0.839
55295W        W18854   5.773  37.564  12.834
55296W        W18855  27.182  23.106   2.411
55297W        W18856  12.722  23.175  12.547
55298W        W18857  20.265   9.162   4.781
55299W        W18858   8.301  21.067  11.095
55300W        W18859  43.982  34.565   3.821
55301W        W18860  20.531  33.902   3.630
55302W        W18861  44.985  12.703  11.444
55303W        W18862  32.574  38.839  14.835
55304W        W18863  10.249  35.564  13.398
55305W        W18864  42.818  12.667  14.326
55306W        W18865   7.371  42.905   4.701
55307W        W18866  20.544  38.397  14.320
55308W        W18867   0.926  24.016   0.284
55309W        W18868  39.402  41.513   1.862
55310W        W18869  40.304  28.495   1.855
55311W        W18870  28.167  40.394   3.328
55312W        W18871  29.136  25.175  13.008
55313W        W18872  11.290  32.022  12.349
55314W        W18873  43.318   4.908   3.723
55315W        W18874   9.763   9.713  10.494
55316W        W18875   4.207  12.186  13.440
55317W        W18876   7.344  35.054  11.931
55318W        W18877  34.469  27.538   3.320
55319W        W18878  27.131  42.445  13.020
55320W        W18879  41.447  27.034  12.883
55321W        W18880  31.594  31.508   3.862
55322W        W18881  17.120  39.358  13.310
55323W        W18882   3.771  16.247  11.527
55324W        W18883  15.819   6.755   1.307
55325W        W18884  24.503  25.485  11.373
55326W        W18885  41.299  34.032  12.520
55327W        W18886   2.290  18.233  12.978
55328W        W18887  17.740  26.081   2.386
55329W        W18888   1.284  32.015   1.343
55330W        W18889   6.893   5.224   2.726
55331W        W18890  12.173  30.496   2.237
55332W        W18891   2.274  27.648  14.442
55333W        W18892  26.192   9.204   3.709
55334W        W18893  10.796  42.824   9.981
55335W        W18894  37.499  30.980   2.184
55336W        W18895  26.139   2.434  10.525
55337W        W18896  42.929   6.427  14.295
55338W        W18897  14.284   9.710  11.963
55339W        W18898  40.332  41.808   3.770
55340W        W18899  14.605  10.334  11.585
55341W        W18900   1.299  32.541   1.390
55342W        W18901  33.390  29.104   5.144
55343W        W18902  14.178   8.889  12.067
55344W        W18903  35.082  26.678   5.210
55345W        W18904  27.157  25.646  11.401
55346W        W18905  42.290  31.414  10.438
55347W        W18906   7.718   3.406  10.616
55348W        W18907  24.114  12.635   2.893
55349W        W18908  11.226   4.747   0.934
55350W        W18909  30.989   5.284  10.621
55351W        W18910   6.700   5.741  10.919
55352W        W18911  21.020  18.138   0.314
55353W        W18912  14.267  24.721  13.029
55354W        W18913   2.939  15.128   4.783
55355W        W18914  34.566  15.750   2.296
55356W        W18915  28.588   3.900  12.900
55357W        W18916  12.749   5.196   4.837
55358W        W18917  30.970   0.369  13.536
55359W        W18918  31.511  17.704   1.421
55360W        W18919  10.249   1.902  10.416
55361W        W18920  26.642  38.495  10.615
55362W        W18921   1.871  38.014   1.706
55363W        W18922  28.977  30.034   2.183
55364W        W18923   8.259  30.617   0.381
55365W        W18924  22.190   6.749  13.893
55366W        W18925  37.472  41.354  13.061
55367W        W18926  16.193   2.268   3.840
55368W        W18927  35.478   9.739  12.418
55369W        W18928  26.541  24.129  12.579
55370W        W18929  12.839  42.281   0.928
55371W        W18930  39.870  12.709  12.361
55372W        W18931   8.714  42.524   2.749
55373W        W18932  18.556  10.790   3.863
55374W        W18933   3.878  35.450  14.490
55375W        W18934  36.564  27.068   3.220
55376W        W18935  15.698  35.516   0.793
55377W        W18936  22.050  39.512  13.873
55378W        W18937  10.233   9.300  10.520
55379W        W18938  43.515  12.328   4.151
55380W        W18939  27.013  34.081  11.091
55381W        W18940   8.670  11.164  12.955
55382W        W18941  38.567  42.989  11.563
55383W        W18942   1.859  23.655   1.803
55384W        W18943  33.036   6.873   0.254
55385W        W18944  20.250  36.953  14.770
55386W        W18945  23.211  31.920   5.228
55387W        W18946   2.340  25.607   3.648
55388W        W18947  24.094  44.469  13.884
55389W        W18948   2.722  26.588   1.832
55390W        W18949   6.752   9.888  10.995
55391W        W18950  31.629  35.469   1.261
55392W        W18951  17.672  31.556   4.770
55393W        W18952  12.286  39.543   4.784
55394W        W18953  41.956  11.670  10.975
55395W        W18954  41.324  44.840   1.330
55396W        W18955  21.248   3.773   4.350
55397W        W18956  14.774  21.158  14.949
55398W        W18957  40.312   0.405  14.460
55399W        W18958  33.390  26.174   1.886
55400W        W18959  37.038  38.937   0.825
55401W        W18960   2.402  34.996   0.261
55402W        W18961  30.513   6.877   1.741
55403W        W18962  42.875  16.308   1.274
55404W        W18963  28.675  22.639  13.369
55405W        W18964  27.668  41.899   1.882
55406W        W18965  37.884  30.425   0.777
55407W        W18966   4.290  21.658  14.949
55408W        W18967  17.091   9.679   4.833
55409W        W18968   6.410  23.005  11.066
55410W        W18969  44.303   6.768  11.382
55411W        W18970  38.951  44.869  12.935
55412W        W18971  32.901  25.062  14.971
55413W        W18972  13.642   4.926   1.296
55414W        W18973   9.346  14.263   3.293
55415W        W18974  35.100  20.696  12.975
55416W        W18975  41.317   0.359  12.027
55417W        W18976   6.876   9.772  11.415
55418W        W18977   6.741   4.798  10.457
55419W        W18978   3.942  40.432   1.322
55420W        W18979   1.364   8.711   4.283
55421W        W18980   8.790  15.303   2.399
55422W        W18981  11.648  21.715  14.793
55423W        W18982  26.459  28.539  10.928
55424W        W18983  39.060  31.918  12.956
55425W        W18984  34.046  24.200   0.891
55426W        W18985   9.166  22.136  14.760
55427W        W18986  36.559  41.033   1.935
55428W        W18987  34.011  43.392  11.501
55429W        W18988  29.648  37.399   3.310
55430W        W18989   0.786   7.886   4.658
55431W        W18990  24.689  40.854  14.405
55432W        W18991   5.264  43.302   0.876
55433W        W18992  26.546  17.560   0.343
55434W        W18993  38.042  21.624   0.910
55435W        W18994   4.221  22.096   1.436
55436W        W18995  35.962  44.270  12.040
55437W        W18996  34.456  39.473   3.638
55438W        W18997  12.692   7.797  13.540
55439W        W18998   0.481  33.925   4.278
55440W        W18999  41.502  23.088  11.496
55441W        W19000  25.095  41.846  11.977
55442W        W19001  14.221  17.713  11.874
55443W        W19002  37.895  37.065  13.891
55444W        W19003  35.517  15.584  14.367
55445W        W19004   9.887  24.709   2.399
55446W        W19005  33.463  15.104  14.369
55447W        W19006  11.217  34.074  13.028
55448W        W19007   7.370  31.002   0.907
55449W        W19008  17.236  39.318   2.298
55450W        W19009   4.298  29.562  11.950
55451W        W19010  39.023  20.605   1.358
55452W        W19011  34.388  37.488   1.324
55453W        W19012  13.800  19.772   2.181
55454W        W19013  30.054  18.162   3.190
55455W        W19014   5.823  23.221  10.937
55456W        W19015  42.809  10.770  10.427
55457W        W19016  41.485  12.223   4.772
55458W        W19017  14.654  40.426  12.506
55459W        W19018  24.652  31.069  11.885
55460W        W19019  35.494  42.960  14.964
55461W        W19020  21.557   8.187  12.346
55462W        W19021  22.552   9.660   1.763
55463W        W19022  37.525  43.417   5.183
55464W        W19023  34.481   3.918   2.804
55465W        W19024  34.925  29.645   4.627
55466W        W19025  23.144  13.760  14.336
55467W        W19026  37.074  28.974   4.742
55468W        W19027  13.774  15.786   0.757
55469W        W19028  40.966  31.524  13.932
55470W        W19029  10.279  41.956   1.877
55471W        W19030  12.271   3.371   3.313
55472W        W19031  26.658  33.880   2.686
55473W        W19032   9.881   1.266   0.289
55474W        W19033  20.034  41.408  11.405
55475W        W19034  36.377   1.738   5.202
55476W        W19035  11.787  35.954   4.296
55477W        W19036  28.665  14.719  10.904
55478W        W19037  40.502  16.738  13.909
55479W        W19038  40.492  26.033  13.335
55480W        W19039  24.033  39.060  14.369
55481W        W19040  19.120  10.318   1.762
55482W        W19041  37.508  14.813  13.961
55483W        W19042  34.913   6.258   1.853
55484W        W19043  42.848  33.070  14.813
55485W        W19044  27.097   1.802   2.311
55486W        W19045   4.936   1.352  10.641
55487W        W19046  20.195  41.856   4.616
55488W        W19047   1.333  30.152  13.983
55489W        W19048  16.278  11.748  14.428
55490W        W19049   5.801   2.890   1.895
55491W        W19050  13.658  12.163  12.572
55492W        W19051  15.699  18.579   0.846
55493W        W19052   4.221   6.194   2.684
55494W        W19053   2.417  44.878   1.261
55495W        W19054   9.826  28.041   3.708
55496W        W19055   4.309   6.761   2.762
55497W        W19056  15.631  16.771  10.542
55498W        W19057  20.188  15.744   4.153
55499W        W19058  29.525  44.350   1.797
55500W        W19059  23.187  14.143  12.879
55501W        W19060   6.704  11.685  12.037
55502W        W19061  26.046  36.907  13.540
55503W        W19062  26.036  19.610   3.791
55504W        W19063  11.853   9.314  10.091
55505W        W19064  22.193  16.575  10.437
55506W        W19065   5.329  26.134  12.032
55507W        W19066  17.673  22.197   3.646
55508W        W19067  28.532  28.511  13.983
55509W        W19068  36.911  34.377   4.154
55510W        W19069  19.656  32.443  12.577
55511W        W19070   9.881  17.589   3.298
55512W        W19071  28.024  44.846   0.403
55513W        W19072   7.218  26.594  14.782
55514W        W19073  44.484   3.813   2.730
55515W        W19074  26.196  44.353  10.894
55516W        W19075  17.727  32.964  13.320
55517W        W19076  27.629  13.186   2.777
55518W        W19077   3.271  42.964  14.354
55519W        W19078  42.832  43.461  11.128
55520W        W19079  23.570  11.810  11.518
55521W        W19080  38.013  35.380  14.845
55522W        W19081   3.230  11.330   4.307
55523W        W19082  26.205  28.584   4.600
55524W        W19083  28.167  11.789   1.734
55525W        W19084  19.068  13.761   2.391
55526W        W19085   3.903  10.288   4.743
55527W        W19086   9.313   3.768   2.900
55528W        W19087  36.951  13.174   1.384
55529W        W19088   5.817  24.541   1.219
55530W        W19089  30.592  33.528  14.846
55531W        W19090  35.968  42.997  10.932
55532W        W19091  28.476  28.161  13.950
55533W        W19092   9.389  33.471   3.170
55534W        W19093   5.381   9.258   1.696
55535W        W19094  36.490   1.266  14.019
55536W        W19095  14.639  43.845  10.450
55537W        W19096   9.288  42.398   1.821
55538W        W19097  15.111   6.823   5.569
55539W        W19098   6.406  40.016   3.687
55540W        W19099  13.611  13.148   4.793
55541W        W19100  36.050  15.234   2.717
55542W        W19101   2.949  35.934   3.818
55543W        W19102  20.112  30.442   0.794
55544W        W19103  14.233   5.894  14.917
55545W        W19104  20.565   3.229   3.770
55546W        W19105   5.292  38.978   4.639
55547W        W19106  14.239  10.328  12.063
55548W        W19107  32.626   4.266   0.819
55549W        W19108  22.052  39.880  11.533
55550W        W19109  37.000  18.658  14.288
55551W        W19110  18.630  32.623  12.567
55552W        W19111  29.586  37.509   0.363
55553W        W19112  18.133  31.434  14.771
55554W        W19113   4.711  30.504  12.081
55555W        W19114  11.267  23.595  10.574
55556W        W19115   1.876  19.259   3.254
55557W        W19116   3.294  30.505   2.749
55558W        W19117  29.039   2.960  12.030
55559W        W19118  40.416  42.919  12.933
55560W        W19119  19.567   1.327   2.284
55561W        W19120  22.527  19.154  12.474
55562W        W19121  17.068  13.613   1.755
55563W        W19122  24.164   1.917   0.390
55564W        W19123  19.100  24.509   3.643
55565W        W19124  10.680  17.297   2.406
55566W        W19125  14.118  11.698   2.399
55567W        W19126   8.202  39.547   2.680
55568W        W19127  26.164  11.756  12.358
55569W        W19128   8.795  39.529  14.004
55570W        W19129  18.734   1.858  14.398
55571W        W19130  20.094  43.370   0.952
55572W        W19131  14.772  16.197   0.757
55573W        W19132  40.994   3.391  13.877
55574W        W19133  12.721  19.723   0.281
55575W        W19134  19.164  11.228   3.665
55576W        W19135  43.400  14.731   2.280
55577W        W19136  13.216  41.933  10.974
55578W        W19137  10.851  31.450  14.496
55579W        W19138   4.357  26.565  12.990
55580W        W19139  11.300   3.410  11.954
55581W        W19140   4.805  27.040   1.222
55582W        W19141  22.071  35.371  13.454
55583W        W19142   4.836   8.360   1.367
55584W        W19143  16.742  40.907   1.439
55585W        W19144  10.710  31.637   3.345
55586W        W19145  20.571  14.113  12.031
55587W        W19146  37.448   5.231  13.919
55588W        W19147  42.431  18.162   2.743
55589W        W19148  11.726   3.760   1.313
55590W        W19149  34.914  21.707   3.699
55591W        W19150  37.884   2.313  11.914
55592W        W19151  17.197  21.069   3.642
55593W        W19152  36.909  29.165  10.915
55594W        W19153  40.535  16.318  14.516
55595W        W19154  17.783  14.212  11.087
55596W        W19155  35.498  30.071   0.307
55597W        W19156  34.975   7.239   2.341
55598W        W19157  23.623   0.269  14.380
55599W        W19158   5.721  35.020   1.212
55600W        W19159  18.073  15.776  10.495
55601W        W19160   4.933  38.009   0.417
55602W        W19161  35.103  14.597   4.616
55603W        W19162   5.205   8.699   4.746
55604W        W19163  26.120   4.838   4.310
55605W        W19164  17.134  13.728   4.321
55606W        W19165  32.525   0.943  10.599
55607W        W19166  12.117  37.057   5.571
55608W        W19167  41.918  28.457   3.293
55609W        W19168   9.811  15.630   0.908
55610W        W19169   6.766   6.199  14.439
55611W        W19170   5.405  33.909   2.771
55612W        W19171   3.738   1.737   1.446
55613W        W19172  10.255  32.086   3.729
55614W        W19173  38.567  17.259   4.681
55615W        W19174  17.795  22.541   4.223
55616W        W19175  15.144  35.026   3.237
55617W        W19176   4.945  13.683  13.889
55618W        W19177  26.597  36.389   0.827
55619W        W19178  39.950  11.199   3.196
55620W        W19179   2.769  11.218  10.515
55621W        W19180  19.155  32.917   3.270
55622W        W19181  18.621   8.823  10.579
55623W        W19182  39.881   9.854   2.871
55624W        W19183  31.994   7.222   0.353
55625W        W19184  25.107  36.032  10.510
55626W        W19185  19.205  14.681   2.878
55627W        W19186  34.600   8.347   9.516
55628W        W19187  16.579  22.742   4.231
55629W        W19188  14.671  38.451  14.953
55630W        W19189  43.981  32.084  11.512
55631W        W19190  27.017  18.560  14.924
55632W        W19191  30.417  23.177   4.185
55633W        W19192  42.967   5.746   1.250
55634W        W19193  42.020   6.676   1.812
55635W        W19194   3.387  33.483   4.133
55636W        W19195   4.450  19.242  10.443
55637W        W19196  25.681   6.371   1.848
55638W        W19197  38.838  41.022  11.518
55639W        W19198   2.372  11.134   0.453
55640W        W19199  12.127  44.406  11.377
55641W        W19200  29.556  18.706   4.320
55642W        W19201   5.798   8.405   3.825
55643W        W19202  38.007  21.618  13.344
55644W        W19203   7.349  41.372  14.787
55645W        W19204  40.399  18.608   0.484
55646W        W19205  29.081   4.349   3.187
55647W        W19206  17.092  28.115   4.121
55648W        W19207   8.284  34.609   1.808
55649W        W19208  29.940  43.327  14.404
55650W        W19209  15.143  30.076   0.434
55651W        W19210  10.290  12.120  12.066
55652W        W19211  38.386  39.314   0.965
55653W        W19212  34.873   4.254  11.070
55654W        W19213  25.584  22.064   2.371
55655W        W19214  27.045  43.439   2.190
55656W        W19215  20.680  21.217   1.717
55657W        W19216   6.370  25.548   0.441
55658W        W19217  13.241  24.050   1.729
55659W        W19218  37.515  31.492  11.040
55660W        W19219  41.313  24.119   0.449
55661W        W19220  23.131   0.744  10.551
55662W        W19221  11.323  13.651   1.894
55663W        W19222  32.921  22.578  12.401
55664W        W19223  18.280   9.857  12.390
55665W        W19224  22.627  25.577   4.165
55666W        W19225  13.682  36.864   4.658
55667W        W19226  18.723  31.998   4.683
55668W        W19227  42.002   0.375  12.929
55669W        W19228  35.463  10.246  12.558
55670W        W19229  14.734  43.503  11.042
55671W        W19230  31.940  22.719   1.809
55672W        W19231  15.663  41.501   3.222
55673W        W19232  14.184  38.943  13.316
55674W        W19233  36.853  22.170  10.573
55675W        W19234   2.848   9.253   0.955
55676W        W19235  42.843  39.941  14.338
55677W        W19236  11.294  43.850  14.025
55678W        W19237  14.224  44.447   2.221
55679W        W19238  20.078  42.028  13.792
55680W        W19239  21.531  24.577   2.668
55681W        W19240  12.116  38.368   4.816
55682W        W19241  44.809  39.822  11.116
55683W        W19242   7.806   3.949   1.333
55684W        W19243  21.247   1.449   0.937
55685W        W19244  18.097  22.155  14.834
55686W        W19245  20.708   4.283   1.871
55687W        W19246  22.544   4.346  13.841
55688W        W19247  22.585  13.612   1.257
55689W        W19248  42.287   2.276  14.965
55690W        W19249  33.121  28.544  10.929
55691W        W19250  28.130  11.254  12.396
55692W        W19251   4.247  20.235   4.277
55693W        W19252  40.901  44.817  14.406
55694W        W19253  12.811  44.361  12.501
55695W        W19254  23.683  10.683   0.912
55696W        W19255  37.991  10.211   2.242
55697W        W19256  17.228  36.478  14.021
55698W        W19257  42.447   8.316  11.903
55699W        W19258  35.535  18.739   2.761
55700W        W19259   5.234  23.224  14.786
55701W        W19260   7.677  22.201  13.522
55702W        W19261  19.591  41.360  12.994
55703W        W19262  25.143  37.528  14.287
55704W        W19263  40.844  42.369   2.279
55705W        W19264  33.049  15.685   0.379
55706W        W19265  27.005  17.597   3.157
55707W        W19266  29.425  11.304  14.389
55708W        W19267  34.557  40.310   3.807
55709W        W19268  23.543  18.739  14.346
55710W        W19269  13.158  31.040   2.337
55711W        W19270  34.935   6.765   4.271
55712W        W19271   7.415  38.875  12.908
55713W        W19272  11.196   6.851  11.560
55714W        W19273  26.615   4.410   0.393
55715W        W19274  31.527  43.921   4.605
55716W        W19275  31.481  20.643   3.196
55717W        W19276   8.756  38.968   2.698
55718W        W19277  20.716  27.642   3.274
55719W        W19278  12.273   1.883  12.858
55720W        W19279  15.181  44.391   4.170
55721W        W19280  36.974  17.671   1.908
55722W        W19281  41.917  30.047  11.120
55723W        W19282  20.708   0.411  10.898
55724W        W19283   0.924  30.482   1.810
55725W        W19284   9.853  43.849   3.726
55726W        W19285  33.567   4.365   0.923
55727W        W19286  18.271  42.482   4.684
55728W        W19287  13.311  26.099   4.324
55729W        W19288  30.075   1.949   2.258
55730W        W19289   9.157   0.447  11.487
55731W        W19290  30.947   2.935   4.218
55732W        W19291  31.153  31.988   5.133
55733W        W19292  39.449   9.163   1.351
55734W        W19293  44.827   0.857   4.765
55735W        W19294  34.061  21.109  11.023
55736W        W19295  36.425  44.366  10.120
55737W        W19296  27.503  41.393  11.950
55738W        W19297  29.561  34.006  14.477
55739W        W19298   5.918  43.352   1.263
55740W        W19299  39.500  32.474  11.476
55741W        W19300   5.809   3.358   4.137
55742W        W19301   1.338  42.526  13.948
55743W        W19302  18.656  20.262   3.362
55744W        W19303  34.524  23.123   2.698
55745W        W19304  23.060  11.816  11.094
55746W        W19305  23.520  26.630   0.256
55747W        W19306  41.932  35.008  12.961
55748W        W19307  30.942  11.645   3.721
55749W        W19308   6.756  38.401  11.064
55750W        W19309  29.552   7.286  14.434
55751W        W19310  28.661  12.218  14.936
55752W        W19311  36.901  26.185  11.602
55753W        W19312   8.780  24.710   2.379
55754W        W19313  40.406  16.180  12.944
55755W        W19314  31.122  40.907  12.432
55756W        W19315  13.312  23.083   0.733
55757W        W19316  40.491  39.340  10.594
55758W        W19317  18.183  12.120  13.461
55759W        W19318  19.628  20.130   5.090
55760W        W19319  20.675  13.346   0.266
55761W        W19320  21.246  17.285  13.475
55762W        W19321  10.211   0.444  13.458
55763W        W19322   7.205  14.775  12.985
55764W        W19323  37.427   1.931   3.662
55765W        W19324  26.099  41.844   1.882
55766W        W19325  12.321  13.655   0.447
55767W        W19326   9.648  20.121   4.343
55768W        W19327  31.425  44.813  12.834
55769W        W19328  38.889  38.465  12.921
55770W        W19329   5.762  29.471   3.301
55771W        W19330  23.647  30.484  10.526
55772W        W19331  29.093  10.141  12.945
55773W        W19332   4.769  34.442   1.901
55774W        W19333  41.994  22.160  10.985
55775W        W19334  28.942  23.719   1.415
55776W        W19335  17.153   2.882  14.888
55777W        W19336  35.004  17.272  10.539
55778W        W19337  12.225  32.924   0.939
55779W        W19338   9.190  12.239  12.039
55780W        W19339  34.474  23.590   2.328
55781W        W19340  25.596  14.660  14.482
55782W        W19341  31.583   9.666   3.695
55783W        W19342  24.997  24.506  10.067
55784W        W19343  41.435  19.544   4.618
55785W        W19344  18.704  42.353   4.329
55786W        W19345   6.327   2.393  14.991
55787W        W19346  11.636  11.271   0.841
55788W        W19347  36.068  41.926   0.368
55789W        W19348  43.281  29.104   3.673
55790W        W19349  37.037  22.064  14.823
55791W        W19350  16.784   9.785  12.910
55792W        W19351  38.029  40.826  14.868
55793W        W19352  20.727   9.685   0.244
55794W        W19353  41.475  38.955   0.281
55795W        W19354  11.714   7.883   3.175
55796W        W19355  10.381  18.286   2.257
55797W        W19356  11.250  14.317   9.462
55798W        W19357   3.443  32.976   4.255
55799W        W19358  31.585  25.196   2.780
55800W        W19359   6.281  44.278  13.547
55801W        W19360   8.700  40.053   4.785
55802W        W19361   2.412  34.391   2.283
55803W        W19362  39.370  21.600  13.455
55804W        W19363   5.891  41.372   1.438
55805W        W19364  30.034  18.737  12.529
55806W        W19365  42.982   3.459   2.711
55807W        W19366  15.263  17.143  10.919
55808W        W19367  29.023  26.107   2.857
55809W        W19368  35.462  32.920   2.290
55810W        W19369   9.318  34.455   5.718
55811W        W19370  24.107  23.608  13.036
55812W        W19371  31.414  43.326  13.467
55813W        W19372   9.840   5.428  10.514
55814W        W19373  21.088  35.084   2.873
55815W        W19374  20.582   4.808  10.445
55816W        W19375  24.724  33.412   2.343
55817W        W19376   6.727  13.107  13.840
55818W        W19377   2.407  23.688   2.826
55819W        W19378  40.520  14.120   3.370
55820W        W19379   2.944  10.317   3.716
55821W        W19380  29.941   5.343  14.008
55822W        W19381  37.448  24.572   1.223
55823W        W19382  10.691   3.413  14.430
55824W        W19383  37.580   7.790  10.943
55825W        W19384  25.563  10.230   0.907
55826W        W19385   8.769  39.883   3.822
55827W        W19386  20.030   5.790   0.889
55828W        W19387  35.394  24.007   4.632
55829W        W19388  15.241  11.775  13.852
55830W        W19389  31.588  40.306  10.100
55831W        W19390   4.345  31.026   0.321
55832W        W19391   6.892   7.866   4.713
55833W        W19392   5.854   9.751   4.312
55834W        W19393  26.191  26.987  14.474
55835W        W19394  17.713   8.784   2.228
55836W        W19395  37.527  18.696   1.880
55837W        W19396  20.706  28.438  11.092
55838W        W19397   6.339  24.119  11.874
55839W        W19398  16.141  19.587  14.990
55840W        W19399  25.694   3.360  12.996
55841W        W19400  32.127   7.370  13.364
55842W        W19401   4.931   5.688  13.837
55843W        W19402   5.244  21.019   1.875
55844W        W19403  21.743   0.838  11.448
55845W        W19404  12.153  13.727   4.174
55846W        W19405  12.301  10.693  13.537
55847W        W19406   2.886  39.467   2.253
55848W        W19407  17.632  30.013   1.822
55849W        W19408  38.524  19.052   3.671
55850W        W19409   6.810  44.760  11.119
55851W        W19410   1.955  27.554   2.748
55852W        W19411  14.264  19.119   1.708
55853W        W19412  10.793   8.879  14.810
55854W        W19413   1.912  14.259   4.228
55855W        W19414  31.896  13.683   4.740
55856W        W19415  22.529  33.086  13.007
55857W        W19416   8.664  37.540   4.762
55858W        W19417  15.274  43.377   2.841
55859W        W19418  10.859  34.934   2.847
55860W        W19419   7.173  32.895   2.227
55861W        W19420  21.120  19.041   4.800
55862W        W19421  23.529   2.745  14.979
55863W        W19422  18.778   8.899  12.577
55864W        W19423   8.311  16.118   9.514
55865W        W19424  42.338  27.477   2.802
55866W        W19425  41.389  15.182   3.828
55867W        W19426  19.077   4.876   1.760
55868W        W19427  41.866   6.814  14.307
55869W        W19428  33.889   4.397  12.922
55870W        W19429  10.819  15.800   4.768
55871W        W19430  41.859   2.288  14.467
55872W        W19431   9.722   2.749  14.314
55873W        W19432   6.388  25.084   0.473
55874W        W19433  21.533  27.991   5.239
55875W        W19434  40.366  16.599  14.811
55876W        W19435  32.487  22.210   0.436
55877W        W19436  42.828  37.540   3.331
55878W        W19437  43.397  30.130  12.442
55879W        W19438   0.385  33.544  12.886
55880W        W19439   1.429  28.115   1.847
55881W        W19440  22.534  24.021  12.036
55882W        W19441  27.146  16.568   3.271
55883W        W19442  44.793  27.052  11.527
55884W        W19443  14.604  25.002   1.400
55885W        W19444   6.709  39.351  14.849
55886W        W19445  36.984  39.036  14.881
55887W        W19446   5.790  35.032   0.818
55888W        W19447   0.346  38.404  12.503
55889W        W19448   9.731  22.224   4.331
55890W        W19449  23.095  39.396   3.292
55891W        W19450  19.773  22.745  12.887
55892W        W19451   5.811   0.909   4.153
55893W        W19452  25.587  22.550   2.189
55894W        W19453   4.724  20.076  11.005
55895W        W19454  29.030  28.932   3.379
55896W        W19455  10.165  31.539   4.751
55897W        W19456  38.023  16.711  11.562
55898W        W19457   3.372  17.297  13.427
55899W        W19458  40.957   2.354   2.360
55900W        W19459  20.239  16.180  12.578
55901W        W19460  11.148  20.531   1.758
55902W        W19461  34.478  22.202   3.661
55903W        W19462  23.006  33.388  12.039
55904W        W19463  38.999  11.362  13.391
55905W        W19464   3.286  39.498   2.265
55906W        W19465   9.279  39.041   2.410
55907W        W19466  18.143  41.901  12.874
55908W        W19467  40.370  39.321   3.752
55909W        W19468   5.851  13.256   2.275
55910W        W19469   6.762  30.164   0.797
55911W        W19470  28.020  18.291  11.057
55912W        W19471  14.321   8.889   2.690
55913W        W19472  11.782   4.936  13.423
55914W        W19473   3.903  42.880   1.320
55915W        W19474  26.198  18.790   0.746
55916W        W19475  28.654  18.570   1.864
55917W        W19476  39.952  16.595   1.418
55918W        W19477   6.786   3.728  12.969
55919W        W19478  31.625  44.841  14.872
55920W        W19479  42.881  12.831   4.741
55921W        W19480  11.644  20.142  10.507
55922W        W19481  12.310   5.266  14.339
55923W        W19482  37.496   9.154   3.813
55924W        W19483  36.917  10.786  10.512
55925W        W19484  31.123  44.498   3.158
55926W        W19485  16.639  40.889   3.680
55927W        W19486  28.173  22.552  10.976
55928W        W19487  35.057  23.994   4.186
55929W        W19488   9.174  20.590  13.931
55930W        W19489  22.183  37.038   2.355
55931W        W19490  41.370   8.193   3.319
55932W        W19491  18.670  11.722   3.826
55933W        W19492   9.785  37.920   0.432
55934W        W19493  29.003  12.636  12.030
55935W        W19494   0.381   6.284   1.371
55936W        W19495  16.281  10.756   4.633
55937W        W19496  12.340   4.698   3.687
55938W        W19497  38.375   8.676   1.733
55939W        W19498  22.591   6.361   4.782
55940W        W19499  17.774  39.343   3.251
55941W        W19500  19.750  34.447   0.737
55942W        W19501   6.368  44.417   1.914
55943W        W19502  24.230  13.794  10.429
55944W        W19503   4.755   4.898   0.745
55945W        W19504  37.444   4.724   1.404
55946W        W19505  34.378  28.169  11.889
55947W        W19506  16.798  27.024   0.434
55948W        W19507  31.483  31.447  13.494
55949W        W19508  39.895  23.113  11.608
55950W        W19509  39.431  22.624   3.814
55951W        W19510  25.042  12.165   3.711
55952W        W19511  27.120  39.038  13.819
55953W        W19512  44.868  23.705   1.773
55954W        W19513  32.472  20.162  11.049
55955W        W19514  25.702  20.175  13.827
55956W        W19515  27.148  24.229  10.517
55957W        W19516  36.896  33.036  13.800
55958W        W19517  31.603  11.851   3.658
55959W        W19518   6.237   7.720   3.247
55960W        W19519  40.897  10.716   1.817
55961W        W19520  25.993   0.468   2.828
55962W        W19521  11.687   4.783   0.438
55963W        W19522  25.663  16.713  10.527
55964W        W19523  26.151  23.233   1.866
55965W        W19524  40.924  44.451   4.207
55966W        W19525  11.170  34.956  12.430
55967W        W19526  29.528  18.723  13.967
55968W        W19527   4.353  18.050   3.305
55969W        W19528  39.523  32.980  11.456
55970W        W19529  39.937  12.153   3.859
55971W        W19530   8.755  23.013  13.012
55972W        W19531  27.096  42.429   0.291
55973W        W19532  16.745  29.534  12.480
55974W        W19533  13.131  33.445   0.368
55975W        W19534   4.939  28.516  14.922
55976W        W19535  16.255   3.942  13.003
55977W        W19536   2.750   7.801   0.877
55978W        W19537  41.825  17.632  10.973
55979W        W19538  31.965  29.059   3.232
55980W        W19539  18.692  43.400  14.937
55981W        W19540  15.128  39.477  11.071
55982W        W19541  42.028  19.083  11.001
55983W        W19542  12.773   4.356  14.819
55984W        W19543   1.826  44.409  14.017
55985W        W19544  37.946   0.298   5.250
55986W        W19545  24.199   9.730   4.194
55987W        W19546  40.959  11.223   2.738
55988W        W19547  18.725  15.607  12.397
55989W        W19548  32.932   2.881  13.395
55990W        W19549   2.446  13.823  13.364
55991W        W19550  18.656  30.017  13.811
55992W        W19551  22.103  28.995   1.422
55993W        W19552  38.833  27.482  12.074
55994W        W19553  35.450  25.190   4.825
55995W        W19554  33.471  18.128  14.322
55996W        W19555  11.130  11.230   3.319
55997W        W19556  41.934  19.062   4.267
55998W        W19557  23.513  10.272   1.430
55999W        W19558  12.675  21.651  14.434
56000W        W19559  26.998  16.615  12.841
56001W        W19560  27.012  40.490   1.874
56002W        W19561  39.837  18.704   2.362
56003W        W19562  38.067  39.428  11.107
56004W        W19563  36.398  16.280   3.843
56005W        W19564   3.956  36.531  12.985
56006W        W19565   2.739  11.159   1.233
56007W        W19566  19.634  20.190   1.912
56008W        W19567   5.325  39.382   4.723
56009W        W19568   2.270  44.805   4.144
56010W        W19569  31.078  11.743  13.049
56011W        W19570  37.964  24.526  12.917
56012W        W19571  21.261   3.801  12.008
56013W        W19572  43.882  28.964  10.413
56014W        W19573  15.317   2.951  12.574
56015W        W19574  32.468  41.893   0.281
56016W        W19575  13.637  29.618  11.952
56017W        W19576   3.228  42.421   3.852
56018W        W19577  22.656  26.106  10.982
56019W        W19578   6.917  11.265   3.302
56020W        W19579  12.629  38.041  12.442
56021W        W19580   8.249  24.615   0.737
56022W        W19581  34.987  29.163   2.349
56023W        W19582   4.833  36.915  12.070
56024W        W19583   7.272  35.543  11.932
56025W        W19584   7.722  23.100   1.381
56026W        W19585  21.609  29.523  14.476
56027W        W19586  30.098  34.049  12.384
56028W        W19587  40.843  28.027   2.249
56029W        W19588  31.530  36.493   0.289
56030W        W19589  31.954   3.752  13.823
56031W        W19590  18.159  32.969  13.496
56032W        W19591   9.832  27.555  13.508
56033W        W19592   2.913   9.742  13.796
56034W        W19593  25.571   1.416   1.776
56035W        W19594  33.919  40.892   2.312
56036W        W19595  42.782  20.067   1.856
56037W        W19596   8.849   6.299   2.308
56038W        W19597  40.817  44.923   1.379
56039W        W19598  22.060   3.821   4.293
56040W        W19599  30.597  19.650   0.860
56041W        W19600   3.888   4.343   0.951
56042W        W19601  15.136   2.759  14.441
56043W        W19602  43.471   5.919   2.837
56044W        W19603  14.731  35.932   4.217
56045W        W19604   3.905  39.906  12.011
56046W        W19605  10.726  30.913   4.278
56047W        W19606  42.790  25.710   1.246
56048W        W19607  35.030  25.571  12.012
56049W        W19608  34.455   4.280  11.552
56050W        W19609  28.960   0.341   2.397
56051W        W19610  15.776  40.819  10.633
56052W        W19611   8.195  10.676   2.411
56053W        W19612  33.388   9.723  14.308
56054W        W19613  44.841  36.491  11.991
56055W        W19614  29.458  28.607  13.341
56056W        W19615  37.429  32.109   3.634
56057W        W19616  10.175  41.468   9.987
56058W        W19617   7.836  29.605   3.694
56059W        W19618  44.336  24.540   1.846
56060W        W19619  17.299  39.021   4.246
56061W        W19620   3.343  43.989   3.864
56062W        W19621  40.999  27.450  12.468
56063W        W19622  27.981  43.331   1.718
56064W        W19623  30.031  42.448   3.822
56065W        W19624   4.895  19.667  11.932
56066W        W19625  32.985  21.685   0.378
56067W        W19626   1.335  32.485  11.387
56068W        W19627   7.884  35.603  12.969
56069W        W19628  25.617   0.767  14.956
56070W        W19629  14.633  10.300   0.443
56071W        W19630  43.295  21.659   4.786
56072W        W19631  30.105   3.931   4.838
56073W        W19632  14.627  21.153   4.304
56074W        W19633   2.873  18.693   3.338
56075W        W19634  44.298  28.995  10.937
56076W        W19635  35.921  14.723  12.058
56077W        W19636  13.246  14.288   0.777
56078W        W19637  28.613  30.071  11.578
56079W        W19638  11.754  17.630  12.842
56080W        W19639  24.598  33.896  10.493
56081W        W19640  15.115   1.973   1.815
56082W        W19641   9.773  26.500   1.248
56083W        W19642  20.643  36.530   3.685
56084W        W19643  27.179   6.819  13.362
56085W        W19644  26.656  27.485   4.145
56086W        W19645  20.608   8.815   1.755
56087W        W19646  31.950   1.844  10.911
56088W        W19647   8.901  32.511   3.373
56089W        W19648   0.346  37.524  14.817
56090W        W19649  36.969   9.287  14.018
56091W        W19650  11.709  35.518   2.413
56092W        W19651  35.930   5.253   4.330
56093W        W19652  43.845  38.845  14.291
56094W        W19653   4.380  14.718   1.221
56095W        W19654  44.865  41.940  12.095
56096W        W19655  35.488  23.014  14.869
56097W        W19656  26.483  27.484  11.016
56098W        W19657  12.352  27.067   2.206
56099W        W19658  24.505  42.320  11.997
56100W        W19659  29.635   2.939   3.352
56101W        W19660  24.141   2.353   0.359
56102W        W19661   8.397   4.235  10.931
56103W        W19662  16.314   5.388   0.780
56104W        W19663  34.970  21.028   2.408
56105W        W19664   5.697  43.833   3.758
56106W        W19665  26.523  14.149  13.851
56107W        W19666  16.649  23.611  14.802
56108W        W19667  39.961  17.641  14.295
56109W        W19668  24.983   5.768  12.368
56110W        W19669  13.133  44.946  12.365
56111W        W19670  27.159  40.378   4.645
56112W        W19671  38.562  10.796   1.901
56113W        W19672   5.720  30.946  13.311
56114W        W19673  37.411  19.169   1.872
56115W        W19674  23.657   4.894  14.013
56116W        W19675  27.963  38.335  11.432
56117W        W19676   5.879  19.207  11.980
56118W        W19677  33.569  15.168  10.044
56119W        W19678  21.088  20.061   1.306
56120W        W19679  27.057  27.481   1.271
56121W        W19680  31.107  13.797  12.964
56122W        W19681  32.994  13.649   4.767
56123W        W19682   8.682  37.571  10.887
56124W        W19683   2.294  32.564   1.414
56125W        W19684  33.577  32.138  13.940
56126W        W19685   6.325  23.039   1.320
56127W        W19686   1.243  19.140   2.335
56128W        W19687  40.354   3.936   3.808
56129W        W19688  19.092  14.639  14.394
56130W        W19689  37.425  26.687   3.357
56131W        W19690  41.416  38.360   0.377
56132W        W19691   7.827  10.718   3.638
56133W        W19692  43.891   0.281  14.317
56134W        W19693  39.815   2.897   3.781
56135W        W19694  16.804  43.984   2.752
56136W        W19695   9.722   3.386   5.246
56137W        W19696  38.971  34.586   3.236
56138W        W19697  41.838  42.891   3.265
56139W        W19698  26.520   7.235  13.466
56140W        W19699   3.285  33.047  13.050
56141W        W19700  35.378  18.085   4.780
56142W        W19701  10.657  33.087   1.784
56143W        W19702  11.697  12.753  13.901
56144W        W19703  41.883  10.772  11.374
56145W        W19704  41.351  33.084  13.407
56146W        W19705  16.716  30.056  11.467
56147W        W19706   5.364  42.399   3.230
56148W        W19707   4.331  31.642  13.871
56149W        W19708  19.117  18.156   4.272
56150W        W19709  13.758  24.534  11.434
56151W        W19710  39.981   9.766  10.472
56152W        W19711  13.107  14.663   5.116
56153W        W19712   2.870  15.646  14.896
56154W        W19713   2.822  26.622   1.322
56155W        W19714  16.693   5.803   0.382
56156W        W19715   3.867  42.509   3.784
56157W        W19716  25.075  10.690  13.797
56158W        W19717   4.299  36.912   4.207
56159W        W19718   5.863  15.321  14.911
56160W        W19719   9.827  18.774  11.007
56161W        W19720   9.311   7.724   0.955
56162W        W19721  18.655   3.435   2.691
56163W        W19722  26.694  24.070   3.806
56164W        W19723  43.346   6.920  11.122
56165W        W19724  39.391  25.579   4.341
56166W        W19725  26.200   7.291   3.260
56167W        W19726  29.080   1.442  10.947
56168W        W19727  19.730   2.725  13.801
56169W        W19728  25.133  20.588   3.334
56170W        W19729  40.315  28.160  10.893
56171W        W19730  11.657  14.159  11.081
56172W        W19731   9.340  18.128  14.985
56173W        W19732  40.051   6.380  13.923
56174W        W19733  14.303   5.262   4.247
56175W        W19734  39.352  18.078   1.778
56176W        W19735  22.671   2.437  10.451
56177W        W19736  34.563   0.487  12.851
56178W        W19737  15.315  16.704   1.857
56179W        W19738  25.608  32.091  11.529
56180W        W19739  33.470  26.667   1.236
56181W        W19740  32.616  19.735  11.992
56182W        W19741  20.121   6.213   3.664
56183W        W19742  25.709   2.452   3.372
56184W        W19743  26.505  18.290  10.502
56185W        W19744  39.808  24.021   4.178
56186W        W19745   1.294  38.892  12.468
56187W        W19746  41.538  26.681   2.202
56188W        W19747   4.411   2.375  14.832
56189W        W19748  33.933  41.041   2.890
56190W        W19749  28.090  31.035  13.059
56191W        W19750  34.406  22.536   2.794
56192W        W19751  44.302  44.354  13.347
56193W        W19752   1.901  21.230  14.278
56194W        W19753  32.498  18.725   4.280
56195W        W19754  24.658  13.336   2.372
56196W        W19755  34.430  25.676  10.960
56197W        W19756  35.052   7.675   2.400
56198W        W19757   3.347  15.639   4.153
56199W        W19758  35.966   8.776  10.073
56200W        W19759  29.661  18.113  10.441
56201W        W19760  21.645  11.689  13.397
56202W        W19761   8.372  23.685  13.962
56203W        W19762  28.180  24.199   0.759
56204W        W19763  40.808  38.363   2.833
56205W        W19764  12.177  15.212  14.977
56206W        W19765  21.062  43.429  10.612
56207W        W19766  25.512   2.844  14.904
56208W        W19767  20.155   7.247  14.772
56209W        W19768  17.274  37.438   2.367
56210W        W19769   3.260  28.079  12.956
56211W        W19770  13.233  12.310   4.265
56212W        W19771  27.156  20.634   0.393
56213W        W19772  11.662   0.403   4.786
56214W        W19773  22.053  44.976   4.599
56215W        W19774  18.748  21.709  12.987
56216W        W19775  17.107  12.312  13.395
56217W        W19776  32.930   4.218  12.020
56218W        W19777  34.600  42.494  12.861
56219W        W19778   7.894  21.630  12.983
56220W        W19779   1.293  21.604  10.982
56221W        W19780  14.276  17.660  13.350
56222W        W19781  23.037  10.382   3.237
56223W        W19782  32.482   6.287  14.463
56224W        W19783  27.505  33.021   0.886
56225W        W19784   4.265  34.907   0.372
56226W        W19785  39.357   5.250  13.974
56227W        W19786  14.248  41.875  11.855
56228W        W19787  36.074  40.890   4.329
56229W        W19788   4.243  29.168   0.360
56230W        W19789  18.276  43.848   2.843
56231W        W19790   7.413   2.794   2.779
56232W        W19791   6.695  42.448   1.703
56233W        W19792  24.199  18.753   2.374
56234W        W19793  11.167  16.176  12.464
56235W        W19794  21.513  15.240   1.933
56236W        W19795  22.112  21.578   2.745
56237W        W19796  28.531  44.270  10.516
56238W        W19797  16.658  24.548  11.068
56239W        W19798  38.972   7.753  11.900
56240W        W19799  44.266  33.572   3.830
56241W        W19800  28.033  12.825  12.533
56242W        W19801  13.700  17.569  12.979
56243W        W19802  28.001  29.057  12.481
56244W        W19803   1.774   3.832   3.659
56245W        W19804   9.298   8.406  14.346
56246W        W19805  32.945  33.960  10.584
56247W        W19806   6.850  16.287  14.347
56248W        W19807  41.007  42.419  14.986
56249W        W19808  35.388  39.873   0.803
56250W        W19809  38.998  29.598  11.123
56251W        W19810  40.038   3.317   2.779
56252W        W19811  36.918   5.823   4.732
56253W        W19812  21.215  17.218  12.343
56254W        W19813  12.145  29.922   1.754
56255W        W19814  38.453   3.728  14.275
56256W        W19815  38.443  27.194  13.865
56257W        W19816   0.255  26.187  14.308
56258W        W19817  32.513  22.060  10.476
56259W        W19818   2.246  36.950   0.375
56260W        W19819  26.143   6.220  10.564
56261W        W19820  11.726  39.493  11.464
56262W        W19821  44.383  11.690   3.356
56263W        W19822   2.345   0.985   4.191
56264W        W19823   1.239  30.152   4.708
56265W        W19824  13.110  29.588   4.151
56266W        W19825  39.992   8.701   1.257
56267W        W19826   5.287  39.982  13.391
56268W        W19827   4.719   8.184  14.025
56269W        W19828  42.028  26.565   4.143
56270W        W19829  19.543  18.238   2.187
56271W        W19830  18.549   4.755   4.341
56272W        W19831   8.853  24.201  14.888
56273W        W19832  30.971  34.090   1.441
56274W        W19833   9.343  35.063  14.857
56275W        W19834  37.056  29.525   3.717
56276W        W19835  21.519  30.062  12.037
56277W        W19836  22.025  30.462   3.779
56278W        W19837  28.170  25.575   0.444
56279W        W19838  20.668  35.381   2.819
56280W        W19839   5.353  43.899  11.587
56281W        W19840   4.811  29.656   0.285
56282W        W19841  14.721  35.587  12.371
56283W        W19842  44.783  16.132   0.928
56284W        W19843  26.637  34.600  12.492
56285W        W19844  40.472  25.671   4.788
56286W        W19845  12.335  10.656  13.827
56287W        W19846  26.635   9.756  10.119
56288W        W19847  12.714   2.747  12.977
56289W        W19848  36.860  19.112  11.423
56290W        W19849  10.852  34.946   1.922
56291W        W19850   5.708  16.720  12.522
56292W        W19851  43.822  22.579   4.208
56293W        W19852  41.346  17.783  13.815
56294W        W19853  22.618   3.859   0.421
56295W        W19854  42.006  34.418   0.332
56296W        W19855  25.577  11.237   2.668
56297W        W19856  31.114  25.545   2.207
56298W        W19857  20.648  37.540   0.832
56299W        W19858  29.141  20.528  10.488
56300W        W19859  31.977   4.206   4.255
56301W        W19860  36.077   1.859   4.699
56302W        W19861  41.892  34.947   2.188
56303W        W19862  36.032  30.071  14.782
56304W        W19863   6.385   5.736  12.568
56305W        W19864  32.463  11.666  14.960
56306W        W19865  14.156  41.004  11.561
56307W        W19866  30.072  32.034   2.899
56308W        W19867  15.588  11.242   3.727
56309W        W19868  33.436  32.057   3.844
56310W        W19869  34.483  44.443  14.434
56311W        W19870   7.716   6.867  12.996
56312W        W19871  29.484  27.548   3.792
56313W        W19872   4.264  29.920  13.879
56314W        W19873  33.387  22.615   3.239
56315W        W19874  29.942  36.919   2.875
56316W        W19875  13.241  40.006   2.810
56317W        W19876   6.796  25.166   0.807
56318W        W19877   5.397  13.179  10.954
56319W        W19878  11.173  16.172  11.117
56320W        W19879  38.459  38.501   3.322
56321W        W19880  32.031  15.143   4.203
56322W        W19881   6.694  41.453  13.382
56323W        W19882  44.284   0.475  13.430
56324W        W19883  27.101   5.923  12.442
56325W        W19884  23.206  42.524  12.476
56326W        W19885  37.507  35.435   2.676
56327W        W19886  16.717  30.550   3.821
56328W        W19887  36.049   3.804  10.436
56329W        W19888  29.085  43.974  14.012
56330W        W19889  10.727  11.235   2.821
56331W        W19890  24.640   1.335   3.170
56332W        W19891  36.098  30.161   0.314
56333W        W19892  15.803  30.507  14.867
56334W        W19893  41.447  37.083   3.752
56335W        W19894  29.477  35.063   3.669
56336W        W19895   7.844  20.173   1.385
56337W        W19896  26.021  39.984   2.377
56338W        W19897  20.082   4.751  11.014
56339W        W19898  34.501  40.446   2.326
56340W        W19899  11.240  21.636  12.049
56341W        W19900  30.469  19.086  13.443
56342W        W19901  29.596  24.546  11.531
56343W        W19902  25.108  35.515   4.263
56344W        W19903   6.220  43.988  12.570
56345W        W19904  20.101  33.015   1.403
56346W        W19905  25.556  33.422  12.506
56347W        W19906  13.793  39.501  13.464
56348W        W19907   0.259  13.223   4.120
56349W        W19908  26.486  38.458  14.321
56350W        W19909  41.876  15.218  11.556
56351W        W19910   6.188  27.505  12.420
56352W        W19911  39.437   4.873  11.885
56353W        W19912   3.954  44.451  10.098
56354W        W19913   6.206  36.943   1.450
56355W        W19914  26.457  33.429  10.489
56356W        W19915  19.537  34.545  13.812
56357W        W19916  24.013  23.565   9.607
56358W        W19917  37.393  33.029  12.065
56359W        W19918  12.645  42.391   1.249
56360W        W19919  44.865  23.508   3.302
56361W        W19920  19.642  17.287  11.962
56362W        W19921   6.359  31.451   2.265
56363W        W19922   1.875  29.991   4.316
56364W        W19923  37.446  16.740   2.371
56365W        W19924  20.129  30.008  12.409
56366W        W19925  13.776  42.933  14.300
56367W        W19926  15.306  10.276  12.367
56368W        W19927  30.519  41.032   2.673
56369W        W19928  17.302  17.584   0.945
56370W        W19929  38.892  34.520  12.094
56371W        W19930  36.952  26.134   0.473
56372W        W19931   4.437   3.244  10.570
56373W        W19932  40.999  15.665   3.756
56374W        W19933   4.841  22.518  10.463
56375W        W19934   9.736   7.255   4.717
56376W        W19935  36.846  21.077  14.888
56377W        W19936  40.800  41.908   4.837
56378W        W19937  12.248  17.234  11.907
56379W        W19938  22.146  29.619   1.810
56380W        W19939  44.319  12.160   3.668
56381W        W19940   1.397  16.685  14.361
56382W        W19941  15.604  25.675  14.998
56383W        W19942  17.284  38.058  13.431
56384W        W19943   9.853  21.119  14.988
56385W        W19944  27.476   9.206  10.010
56386W        W19945  43.301  18.129   1.934
56387W        W19946   6.861  39.993  13.860
56388W        W19947  28.604  29.021   3.740
56389W        W19948  35.108  17.067   1.720
56390W        W19949  35.414  24.034  12.889
56391W        W19950  26.082  44.792  10.907
56392W        W19951  35.394  27.524   0.880
56393W        W19952   9.700   6.860   1.828
56394W        W19953  10.799  16.791   1.891
56395W        W19954  26.611   4.252   0.734
56396W        W19955  28.070  36.940   2.382
56397W        W19956   5.734  26.697  13.984
56398W        W19957  15.100   7.354   0.830
56399W        W19958  16.263  22.729  12.576
56400W        W19959   1.971  30.922   3.808
56401W        W19960  20.248  11.764  12.053
56402W        W19961  24.685  19.049  12.428
56403W        W19962  37.047  23.103   1.330
56404W        W19963  21.629  33.388   1.790
56405W        W19964  36.385  43.770   0.874
56406W        W19965  17.598  31.153   4.202
56407W        W19966  12.812  42.942  10.453
56408W        W19967   3.253  25.012   2.834
56409W        W19968   9.235   4.699  12.998
56410W        W19969   1.451  25.158  12.972
56411W        W19970  17.272  15.310  12.941
56412W        W19971   2.721  29.548   3.666
56413W        W19972  12.306  25.488  14.024
56414W        W19973  12.673  39.921   3.633
56415W        W19974  39.462  13.303   3.157
56416W        W19975  41.929   2.389  12.838
56417W        W19976  30.607  30.936  12.989
56418W        W19977  19.080   8.809   3.339
56419W        W19978  39.029  22.562  12.505
56420W        W19979   7.724  19.666   1.814
56421W        W19980   4.848  42.830   3.652
56422W        W19981   9.314  10.785   5.638
56423W        W19982  24.506  11.140  12.467
56424W        W19983   9.755  40.353  14.489
56425W        W19984   6.220  20.636  10.576
56426W        W19985  16.713  30.112   1.356
56427W        W19986  21.516   8.893  11.074
56428W        W19987  21.187  39.422   2.189
56429W        W19988  22.589  21.585   4.666
56430W        W19989  30.545  19.710   4.702
56431W        W19990  25.710   4.755   4.805
56432W        W19991  10.728  28.627   3.843
56433W        W19992  10.338  11.729   1.368
56434W        W19993  39.427  33.443   2.830
56435W        W19994   3.442   4.314  13.863
56436W        W19995  38.846  36.578   3.163
56437W        W19996  14.268  32.399   1.449
56438W        W19997   2.375   6.408  13.529
56439W        W19998  10.198   8.345   3.799
56440W        W19999  13.188   1.436  13.847
56441W        W20000  32.038   8.387   5.141
56442W        W20001  36.967  40.932   4.214
56443W        W20002  36.388  30.587  14.786
56444W        W20003  39.350  19.682   3.704
56445W        W20004   6.877   8.195   2.724
56446W        W20005  18.544  41.419   3.819
56447W        W20006  26.027  14.157  10.541
56448W        W20007   4.383  36.347  11.508
56449W        W20008  23.180   4.355   3.861
56450W        W20009  32.506   0.832   2.816
56451W        W20010   4.937  35.368   4.181
56452W        W20011  42.994  15.264   2.372
56453W        W20012  28.133  15.586  10.419
56454W        W20013  22.643  30.949   5.264
56455W        W20014  26.688  20.546  10.926
56456W        W20015   4.804  41.436   3.252
56457W        W20016   4.935  40.004   3.836
56458W        W20017  15.771  17.146  11.422
56459W        W20018  43.489  19.264  14.460
56460W        W20019   1.747  36.360  11.875
56461W        W20020  14.273  38.831   4.814
56462W        W20021  34.526  16.110  12.945
56463W        W20022   4.337   7.358   0.256
56464W        W20023  36.872  41.949  10.611
56465W        W20024  38.917  27.472  12.839
56466W        W20025  40.005  33.057   4.655
56467W        W20026  17.757  16.283  13.489
56468W        W20027   3.410  43.393  13.804
56469W        W20028   9.679   8.405  11.882
56470W        W20029  16.612  38.487   0.762
56471W        W20030  41.868   9.342  12.004
56472W        W20031  40.429  14.312  12.366
56473W        W20032   1.887  19.214   3.711
56474W        W20033  13.231  44.978  14.801
56475W        W20034  15.600  39.425  11.954
56476W        W20035  24.027  29.501   3.664
56477W        W20036  12.258   6.900  14.022
56478W        W20037  33.610  42.819   1.750
56479W        W20038  26.591  18.698  13.976
56480W        W20039   8.753   1.762   3.180
56481W        W20040  42.990  16.644  12.018
56482W        W20041  37.023   2.384  12.093
56483W        W20042  10.798  41.418   3.730
56484W        W20043   2.402   0.265  14.004
56485W        W20044  17.701  41.947  13.001
56486W        W20045  27.647  41.806   3.336
56487W        W20046  37.347  19.573   0.822
56488W        W20047  32.626   3.228   1.282
56489W        W20048  23.592  13.797  13.513
56490W        W20049  27.142  44.966  13.022
56491W        W20050   6.419  34.096   3.351
56492W        W20051  22.613   9.302  11.562
56493W        W20052  35.967  21.111  11.390
56494W        W20053   5.344  41.807  11.912
56495W        W20054   9.717  26.201   3.799
56496W        W20055   2.826   6.794  11.938
56497W        W20056  32.516  26.096  10.434
56498W        W20057   8.352   5.785   1.328
56499W        W20058  19.056  10.242  10.987
56500W        W20059  31.540  17.153   0.451
56501W        W20060  20.179  17.188   9.928
56502W        W20061  11.688   0.389   1.300
56503W        W20062  41.889  25.965   4.309
56504W        W20063  27.547   1.956  13.865
56505W        W20064  30.617  22.672  10.999
56506W        W20065  44.909  33.064  12.851
56507W        W20066  22.186   4.208   0.348
56508W        W20067  35.076   0.322   3.298
56509W        W20068  13.728  32.474   1.888
56510W        W20069  41.811  26.108   0.875
56511W        W20070  23.706  15.607   2.707
56512W        W20071   4.734  17.114  13.925
56513W        W20072  28.976  42.849   4.765
56514W        W20073  37.358  41.361  14.796
56515W        W20074  44.442  13.838  10.462
56516W        W20075   5.384  30.451  10.569
56517W        W20076   3.219  36.560   0.397
56518W        W20077  28.094   7.284   3.176
56519W        W20078  13.214  25.609   3.661
56520W        W20079   4.879  42.967  13.952
56521W        W20080  10.338  24.086   3.861
56522W        W20081  28.559   2.370  12.071
56523W        W20082  40.960  41.893   0.882
56524W        W20083  14.608  44.466  14.470
56525W        W20084  16.236   3.402   4.664
56526W        W20085  15.736  28.038   1.799
56527W        W20086  26.193   7.398  13.476
56528W        W20087  26.014  25.036  11.900
56529W        W20088  30.551  10.824  12.354
56530W        W20089   3.229   3.851  12.452
56531W        W20090  43.891  26.688   1.745
56532W        W20091   7.220   4.397  12.443
56533W        W20092  42.888  44.469  13.938
56534W        W20093  13.609  29.653   0.285
56535W        W20094  10.654  29.493   3.768
56536W        W20095  37.432  17.068   0.783
56537W        W20096  35.407  37.957   0.881
56538W        W20097  36.884  18.744  10.561
56539W        W20098  13.675  39.058   2.714
56540W        W20099  39.907   0.431   2.245
56541W        W20100  16.172  35.498  11.420
56542W        W20101  13.767   5.834   2.336
56543W        W20102  14.128  15.132   3.794
56544W        W20103  40.825  11.722   1.846
56545W        W20104   5.910  42.952   0.904
56546W        W20105   8.163  42.913   3.642
56547W        W20106  22.048  33.422   0.474
56548W        W20107  30.974  33.469  10.124
56549W        W20108   7.187  40.509  14.895
56550W        W20109  20.754   2.794   0.440
56551W        W20110  20.614  39.503  11.982
56552W        W20111  43.369  23.073   3.184
56553W        W20112  18.551  37.071  11.862
56554W        W20113  41.480  14.691   0.964
56555W        W20114  12.324  21.115   0.909
56556W        W20115  30.908  10.789   1.215
56557W        W20116  30.970  12.643  12.492
56558W        W20117  40.363  36.850   1.932
56559W        W20118  33.622  12.756  12.009
56560W        W20119  16.178  44.005  13.961
56561W        W20120   9.393  13.167   1.287
56562W        W20121   7.267   7.414   2.201
56563W        W20122   3.897  29.528  11.889
56564W        W20123  17.713   4.769  13.936
56565W        W20124  44.351   8.830  13.519
56566W        W20125  32.079  18.235  12.464
56567W        W20126   1.874  11.334   1.830
56568W        W20127   4.242  25.575   2.845
56569W        W20128   4.744  30.490  11.425
56570W        W20129  28.976  11.835  11.492
56571W        W20130  21.727  25.044   3.282
56572W        W20131   9.659   7.378  11.417
56573W        W20132   0.794  27.964   2.379
56574W        W20133   7.243  10.184  12.388
56575W        W20134  15.674  44.472   0.860
56576W        W20135  32.945   0.390   2.321
56577W        W20136  32.411  41.421  12.966
56578W        W20137  23.559  28.105  14.968
56579W        W20138  20.237   3.835   3.863
56580W        W20139  17.233  20.533  14.921
56581W        W20140   6.322  14.698   4.659
56582W        W20141   0.459  44.399  11.897
56583W        W20142   9.151  25.198  12.468
56584W        W20143  44.816  25.194   1.732
56585W        W20144  18.135  44.790  13.548
56586W        W20145  42.827  42.339  13.863
56587W        W20146  19.718  44.324  12.994
56588W        W20147  33.887  14.711  11.386
56589W        W20148  36.967  15.623  10.626
56590W        W20149  32.526  24.170   0.778
56591W        W20150  17.129  30.560   4.302
56592W        W20151   9.261  19.235  13.810
56593W        W20152  40.488  21.620   2.834
56594W        W20153  14.657   3.898  12.421
56595W        W20154  21.140   7.762   4.302
56596W        W20155  22.113  16.739  12.999
56597W        W20156  18.233  13.200  11.120
56598W        W20157  26.978   0.478   0.744
56599W        W20158  39.528   2.754   3.375
56600W        W20159  43.010  32.070   3.255
56601W        W20160  15.594  30.006   0.257
56602W        W20161  37.052   7.745   0.414
56603W        W20162  35.548  28.629  13.001
56604W        W20163  30.981  44.825   0.252
56605W        W20164  12.260  35.977   0.791
56606W        W20165   6.844  40.836  12.069
56607W        W20166   2.430  41.360   2.349
56608W        W20167  28.613   4.791  11.909
56609W        W20168  36.031  12.161  10.544
56610W        W20169  17.748   9.849  10.462
56611W        W20170   0.776  29.591   1.361
56612W        W20171  10.191  24.698  11.948
56613W        W20172   6.261  16.645  12.473
56614W        W20173  27.677  22.622  10.470
56615W        W20174   4.385   2.908  14.765
56616W        W20175  11.699   0.944   5.216
56617W        W20176  20.759  16.769   2.764
56618W        W20177  32.031  17.093  11.106
56619W        W20178   2.258   2.448  11.873
56620W        W20179  30.524  17.163   0.337
56621W        W20180  29.477  26.034   0.384
56622W        W20181  37.357  26.641   4.658
56623W        W20182  40.844  27.169   3.768
56624W        W20183  12.729  14.656   1.393
56625W        W20184   9.715   1.910  11.884
56626W        W20185   4.722  24.988   1.361
56627W        W20186  23.223   0.859   2.815
56628W        W20187  31.910  39.039   3.871
56629W        W20188  27.099  19.130  14.488
56630W        W20189  37.504  39.057   5.175
56631W        W20190  36.387   7.335  12.994
56632W        W20191  15.741   4.838  10.911
56633W        W20192  10.307  12.799  13.468
56634W        W20193  29.453  25.559   4.258
56635W        W20194  29.028  24.558   1.414
56636W        W20195  13.817  33.427   0.461
56637W        W20196  14.656  33.612   1.291
56638W        W20197  17.761   2.401   4.709
56639W        W20198  25.570   1.965  11.016
56640W        W20199  23.697  20.139  11.997
56641W        W20200   0.898  24.653   0.858
56642W        W20201  17.304  42.336   1.379
56643W        W20202  37.058  35.380   0.855
56644W        W20203  32.927  31.069  14.344
56645W        W20204  30.092  31.527  12.521
56646W        W20205   0.478  42.950   2.724
56647W        W20206  30.090  31.144   3.152
56648W        W20207  23.039   7.703  13.481
56649W        W20208  42.344   7.730  10.560
56650W        W20209  37.477  14.695  11.872
56651W        W20210  43.821  38.002   1.254
56652W        W20211  25.486  13.622   4.694
56653W        W20212  32.637  18.671   4.656
56654W        W20213  12.216  11.851   1.220
56655W        W20214  40.453  36.890  11.966
56656W        W20215  43.894  18.229   1.359
56657W        W20216  17.622  28.126   2.796
56658W        W20217   1.380   5.873  12.551
56659W        W20218  23.049   0.957   0.459
56660W        W20219  15.141  28.488   4.289
56661W        W20220  43.472   1.860   1.271
56662W        W20221  15.687   0.280   3.776
56663W        W20222   9.666  44.967  10.466
56664W        W20223  44.436  39.501   0.280
56665W        W20224  31.974  29.071   4.222
56666W        W20225  18.242  28.978  13.474
56667W        W20226  13.618  28.549  11.877
56668W        W20227  21.588  25.598  13.416
56669W        W20228   7.245  26.590   1.766
56670W        W20229  20.747  32.111   2.763
56671W        W20230  32.547  43.837  13.031
56672W        W20231  33.423  19.054   2.314
56673W        W20232  28.598  22.233  13.963
56674W        W20233   1.894  42.427   3.719
56675W        W20234  44.383  34.995   3.310
56676W        W20235  16.579   6.359   4.156
56677W        W20236  31.120  15.244  14.860
56678W        W20237  37.428  12.212  12.550
56679W        W20238  40.358  12.161   2.215
56680W        W20239  21.093  40.038  11.116
56681W        W20240   0.961  17.758   0.254
56682W        W20241  17.693   3.322  12.436
56683W        W20242  14.234  37.859  13.897
56684W        W20243  42.861  10.337  12.514
56685W        W20244   5.437  25.097   0.460
56686W        W20245   4.250  19.559   2.673
56687W        W20246  35.483   6.872   4.188
56688W        W20247   5.389  43.432  13.521
56689W        W20248  40.492   6.240  14.989
56690W        W20249   2.895  34.942   0.927
56691W        W20250  30.131  42.029   5.098
56692W        W20251   8.198  19.230  13.805
56693W        W20252  16.281  37.990   1.713
56694W        W20253  32.047   6.371  13.916
56695W        W20254  37.557   0.462  12.417
56696W        W20255  37.053  36.460   4.232
56697W        W20256   3.295  27.171  10.635
56698W        W20257  24.575  12.758   3.293
56699W        W20258   6.394  10.269  10.898
56700W        W20259  11.217   9.181   4.140
56701W        W20260  20.662  18.254   4.199
56702W        W20261  10.356   3.456  10.111
56703W        W20262  18.632  37.933  13.862
56704W        W20263  35.919  16.075  13.449
56705W        W20264  15.705  42.917  14.839
56706W        W20265  40.479  28.168   1.215
56707W        W20266  44.886  22.624  12.023
56708W        W20267  19.675  23.558   3.778
56709W        W20268  15.704   9.150   4.762
56710W        W20269  27.666   3.769   4.295
56711W        W20270  10.208  30.074   5.261
56712W        W20271  39.904  37.453   0.375
56713W        W20272  10.704   5.372  12.502
56714W        W20273  28.006  39.438  13.018
56715W        W20274  36.517  39.539   3.257
56716W        W20275  25.048   9.179   2.803
56717W        W20276  19.648  27.647  14.932
56718W        W20277  25.190  36.367   4.352
56719W        W20278  42.889  19.559  10.463
56720W        W20279   9.858  16.127  14.421
56721W        W20280  17.669  44.911  14.786
56722W        W20281  22.713  37.493   0.943
56723W        W20282  34.920   5.416   1.252
56724W        W20283  26.002  37.489   2.666
56725W        W20284  26.697  11.858  14.278
56726W        W20285  37.070  12.296  14.853
56727W        W20286  23.506  15.270  11.927
56728W        W20287  15.745   1.844   3.690
56729W        W20288  13.694   9.879   5.801
56730W        W20289  19.707  41.453   1.410
56731W        W20290  15.281  38.869   1.900
56732W        W20291  22.012  13.282  11.997
56733W        W20292  42.381  35.939  11.440
56734W        W20293  36.368  39.408   4.707
56735W        W20294  15.634  34.094  11.573
56736W        W20295  33.517   8.219   5.206
56737W        W20296  36.498  25.210  13.324
56738W        W20297   1.249  39.996   4.733
56739W        W20298  44.474  29.991  13.525
56740W        W20299   6.354  37.355   1.242
56741W        W20300  29.512  36.437  11.557
56742W        W20301  12.635   4.384  14.375
56743W        W20302  25.522  19.063   1.888
56744W        W20303   4.347  32.577  12.001
56745W        W20304   1.780   0.308  11.491
56746W        W20305  11.152  31.986  11.397
56747W        W20306  22.244  11.713   0.425
56748W        W20307  31.026  43.483   2.281
56749W        W20308  43.333  31.007  10.918
56750W        W20309  34.873  22.528   2.662
56751W        W20310  19.560  17.216   5.221
56752W        W20311  42.841   0.886   3.706
56753W        W20312  44.950   3.785   0.383
56754W        W20313  26.097  25.703  10.494
56755W        W20314  11.672  28.465  12.485
56756W        W20315  37.954  11.147   1.925
56757W        W20316   1.884   7.809   1.901
56758W        W20317   9.768   7.197   0.407
56759W        W20318  12.179  34.961  14.424
56760W        W20319  19.590  30.066   1.920
56761W        W20320   9.765  14.790   1.233
56762W        W20321  35.536  44.995  14.966
56763W        W20322  37.924  10.267  11.508
56764W        W20323  20.118   7.289   4.323
56765W        W20324   4.732  44.958  12.936
56766W        W20325  17.132   9.828   1.383
56767W        W20326  14.809  15.818  12.358
56768W        W20327   4.367  43.313  11.531
56769W        W20328   6.757  22.735  14.381
56770W        W20329   3.945  12.801   4.200
56771W        W20330   1.841   6.302   4.611
56772W        W20331  28.128  15.761   1.846
56773W        W20332  11.834  22.721  12.019
56774W        W20333   7.402  26.643   4.268
56775W        W20334  26.484  26.484  11.385
56776W        W20335  31.939   7.794  10.565
56777W        W20336   2.727  40.877  10.891
56778W        W20337  33.553  10.672   4.810
56779W        W20338  31.553  15.092   3.825
56780W        W20339  38.068  31.914   1.265
56781W        W20340  35.029  33.392   2.384
56782W        W20341  25.983   6.880  12.939
56783W        W20342  44.399   3.438   9.999
56784W        W20343  18.213  14.624  13.450
56785W        W20344  38.843   4.911  12.078
56786W        W20345   3.445   9.269  10.971
56787W        W20346  41.822  21.700  12.447
56788W        W20347   3.408  35.412   2.286
56789W        W20348  36.005  28.586   3.310
56790W        W20349   1.416  44.983   1.398
56791W        W20350  28.053  27.147  14.875
56792W        W20351   8.242  41.034  11.066
56793W        W20352  19.679  44.323  10.933
56794W        W20353  13.610  13.254   3.655
56795W        W20354  39.984  41.501   2.730
56796W        W20355  25.696  22.071  13.865
56797W        W20356  44.807  39.905  12.916
56798W        W20357  38.880  39.877   3.256
56799W        W20358  18.282  44.920  11.525
56800W        W20359  29.019  44.283  14.348
56801W        W20360   0.960  43.794  14.349
56802W        W20361  44.493  15.623   2.873
56803W        W20362   5.216  12.183  13.022
56804W        W20363  28.096   9.775   3.656
56805W        W20364  43.960  33.598  12.054
56806W        W20365  26.642  32.463  11.532
56807W        W20366  31.931  33.547   2.390
56808W        W20367  10.218  24.721   1.246
56809W        W20368  10.351  36.585  10.629
56810W        W20369  13.837   6.217   0.817
56811W        W20370  44.782  40.996   2.356
56812W        W20371  31.412  37.395   0.451
56813W        W20372  15.608  25.666   1.915
56814W        W20373  15.628   3.947   4.807
56815W        W20374  31.411   2.766   0.292
56816W        W20375  42.424   3.405   0.449
56817W        W20376  17.764  29.453  12.092
56818W        W20377  19.609  26.604  12.505
56819W        W20378  23.091  21.095  13.930
56820W        W20379   4.789  15.751   1.307
56821W        W20380  19.674  15.274   0.819
56822W        W20381  44.272  24.225   3.168
56823W        W20382   6.691  21.239  14.431
56824W        W20383  44.405  17.610  14.886
56825W        W20384  40.322  19.704   0.267
56826W        W20385  40.430  35.891  11.007
56827W        W20386  26.098  23.551  10.465
56828W        W20387  38.819  12.346   2.750
56829W        W20388  41.503  27.957   0.922
56830W        W20389  21.057  44.902   4.768
56831W        W20390  36.527  40.502  10.902
56832W        W20391  10.380  30.500  14.354
56833W        W20392  37.515   7.303   0.946
56834W        W20393  17.658   2.746   1.889
56835W        W20394  42.284  40.886   2.854
56836W        W20395  30.088   8.225  13.361
56837W        W20396  40.844  37.460  10.455
56838W        W20397  37.879  18.261   1.826
56839W        W20398   1.796  39.865   0.247
56840W        W20399   1.280  37.562   4.680
56841W        W20400   5.877   6.866   2.861
56842W        W20401  29.121  25.678   4.206
56843W        W20402  25.215  15.654  14.456
56844W        W20403  41.363  22.084  14.430
56845W        W20404  35.069  40.325   1.819
56846W        W20405  43.916  12.335  14.775
56847W        W20406  21.621  30.921  13.959
56848W        W20407  28.985  37.996  13.889
56849W        W20408  22.652  18.218   2.319
56850W        W20409  28.458   9.290  10.916
56851W        W20410  40.309  29.064   0.295
56852W        W20411  36.358  21.725   3.252
56853W        W20412  29.118  33.379   1.883
56854W        W20413   9.834  22.521  11.023
56855W        W20414  25.968  15.717   4.658
56856W        W20415  37.483  41.484  14.459
56857W        W20416  25.104   7.818  10.511
56858W        W20417  32.121  34.539   0.844
56859W        W20418   2.285   5.276  13.455
56860W        W20419  28.943   4.426   1.801
56861W        W20420  18.236  16.685   2.824
56862W        W20421  10.298   0.972   3.794
56863W        W20422  42.819  12.280  13.020
56864W        W20423   5.855  17.739   0.880
56865W        W20424   8.721  30.492   0.348
56866W        W20425   2.324  14.107  11.426
56867W        W20426  20.241  24.580   3.794
56868W        W20427  25.162   3.435   3.831
56869W        W20428  26.167  21.566  13.038
56870W        W20429  42.904  42.310   3.781
56871W        W20430   0.451  13.334   2.353
56872W        W20431  44.328  30.981  11.501
56873W        W20432  29.629  36.527   1.721
56874W        W20433  24.037  25.107   2.210
56875W        W20434   1.818  28.580   4.724
56876W        W20435  36.580  14.123   4.687
56877W        W20436  38.883  31.577   4.743
56878W        W20437  17.632  32.958  14.778
56879W        W20438  33.079  39.969  11.006
56880W        W20439  16.144   7.399   2.226
56881W        W20440  25.521  42.346  11.906
56882W        W20441  44.328  38.544  13.817
56883W        W20442   1.767  20.663   4.688
56884W        W20443  20.571  36.367  12.006
56885W        W20444  33.052  34.596   1.695
56886W        W20445  28.987  11.659   0.766
56887W        W20446  10.189  16.291   4.136
56888W        W20447  35.502  23.144   2.273
56889W        W20448  33.054  33.612   3.189
56890W        W20449  13.344   1.253   0.873
56891W        W20450  44.850  44.431   0.839
56892W        W20451   0.878  29.982  10.959
56893W        W20452  35.862  10.162   2.307
56894W        W20453  33.499  12.354  14.895
56895W        W20454  21.129  22.090   2.679
56896W        W20455  24.495  23.571  12.508
56897W        W20456  26.505  23.548   1.342
56898W        W20457  12.807  44.313   0.384
56899W        W20458   9.169  15.232  14.862
56900W        W20459  16.226   4.402  11.568
56901W        W20460  24.711   9.718  10.404
56902W        W20461  38.853  14.221  12.516
56903W        W20462  37.052  18.570   3.386
56904W        W20463  17.105  12.767   0.780
56905W        W20464  12.203  40.006   0.423
56906W        W20465  17.136  13.831   2.216
56907W        W20466  22.505  30.634  10.413
56908W        W20467  12.670   7.294  13.963
56909W        W20468  26.616   9.188  10.452
56910W        W20469  27.170  35.604   1.839
56911W        W20470  20.109  28.051  10.938
56912W        W20471  12.186   6.698   2.260
56913W        W20472  25.000   7.181   1.756
56914W        W20473  38.526  26.614  11.979
56915W        W20474  31.461  26.565  10.529
56916W        W20475  20.235  35.093  13.830
56917W        W20476  28.551  29.651   4.806
56918W        W20477  22.154  13.681   4.133
56919W        W20478   8.868  38.845   4.775
56920W        W20479  32.396  42.777   4.341
56921W        W20480  36.904  44.414  14.379
56922W        W20481  13.845  11.200  12.842
56923W        W20482  25.539  28.116  10.013
56924W        W20483  19.625  13.689  11.995
56925W        W20484  41.336  11.805   1.323
56926W        W20485  44.505  28.107  13.449
56927W        W20486   3.954  10.169   0.349
56928W        W20487  44.879  23.529   5.104
56929W        W20488   5.211  23.087   1.266
56930W        W20489  37.349  41.792   4.790
56931W        W20490   2.411  31.993   1.827
56932W        W20491  11.222  24.976  14.295
56933W        W20492  42.439   3.376   1.387
56934W        W20493  37.033  39.428   0.854
56935W        W20494  22.253  26.078   1.386
56936W        W20495  22.116  38.991  10.924
56937W        W20496  30.637  15.818   0.278
56938W        W20497  38.343  39.377   2.789
56939W        W20498  41.512  14.324  11.088
56940W        W20499   1.926   2.963  10.597
56941W        W20500  39.033  43.961  14.483
56942W        W20501   6.866  26.171   2.348
56943W        W20502  32.908  33.458  11.008
56944W        W20503  16.657  22.636   4.834
56945W        W20504   2.821  37.458  11.949
56946W        W20505  15.159  16.088   3.748
56947W        W20506  22.089  17.182   2.343
56948W        W20507  27.473  40.803  11.090
56949W        W20508  15.152  42.835  11.609
56950W        W20509  36.482  22.660  11.052
56951W        W20510  30.030  15.165  13.823
56952W        W20511  10.384  20.559  14.338
56953W        W20512  18.182  39.375   0.959
56954W        W20513   4.813   3.256  14.967
56955W        W20514  12.296  17.759   4.227
56956W        W20515  31.554   4.340   3.694
56957W        W20516  17.653   8.236  11.546
56958W        W20517  43.010  44.955   3.169
56959W        W20518   0.408  21.736   2.782
56960W        W20519  19.226  35.976   0.785
56961W        W20520  23.663  24.995  14.429
56962W        W20521  26.016  19.749   1.330
56963W        W20522  27.572  33.884   4.313
56964W        W20523  41.896   3.715  13.037
56965W        W20524  35.423  44.777  13.410
56966W        W20525  13.170  15.724   4.219
56967W        W20526   6.202   1.859  12.952
56968W        W20527  16.200  22.115   5.251
56969W        W20528  24.594  13.222   3.152
56970W        W20529  16.686  23.547   4.236
56971W        W20530   8.772  13.133   4.270
56972W        W20531   9.733  19.750   2.815
56973W        W20532  33.592   4.400  11.503
56974W        W20533  28.162  12.737  11.959
56975W        W20534   7.878  16.312  10.520
56976W        W20535  14.793  25.528  12.002
56977W        W20536  38.555  28.558   0.945
56978W        W20537   4.438  38.057   3.337
56979W        W20538  17.794   4.345   4.753
56980W        W20539  26.034   8.229   3.722
56981W        W20540  19.622  38.999   3.747
56982W        W20541  37.935  27.952  10.892
56983W        W20542  26.671   0.416   1.738
56984W        W20543  14.805  27.582   0.888
56985W        W20544  11.324  22.079   3.868
56986W        W20545   8.799   5.283  12.927
56987W        W20546  39.893  34.446  13.448
56988W        W20547  11.301  10.281  10.902
56989W        W20548  17.103  18.122   3.188
56990W        W20549  17.151  41.360   1.772
56991W        W20550   1.917  12.301  14.285
56992W        W20551  17.085   8.825   4.612
56993W        W20552   3.934  11.732   1.213
56994W        W20553  34.525  16.589   1.841
56995W        W20554  16.150  10.856  14.386
56996W        W20555  41.453  38.437   1.448
56997W        W20556   8.786  23.093   1.258
56998W        W20557  16.260  31.626  13.989
56999W        W20558  38.003   5.817   3.358
57000W        W20559  39.396  12.295   4.193
57001W        W20560  37.419   9.779   1.347
57002W        W20561  37.448  35.600  10.930
57003W        W20562   6.397  12.224   0.316
57004W        W20563  23.240  33.435   4.645
57005W        W20564  28.144  24.595   1.450
57006W        W20565  30.483  44.755  11.514
57007W        W20566  19.578  34.547  14.977
57008W        W20567  21.683  17.250   3.165
57009W        W20568  23.572  24.083   1.265
57010W        W20569  16.116  18.162  14.437
57011W        W20570  32.561  17.073  14.840
57012W        W20571   7.910  14.141   2.204
57013W        W20572  31.952  17.257   0.304
57014W        W20573  30.939  14.621   2.351
57015W        W20574  39.360   7.296  10.914
57016W        W20575  17.777  13.235  11.047
57017W        W20576  18.600   5.695   4.249
57018W        W20577   9.750  11.244   3.734
57019W        W20578  25.165   7.838   4.649
57020W        W20579  22.077  38.363   1.429
57021W        W20580  17.107   9.833   3.292
57022W        W20581  10.781  20.139  13.885
57023W        W20582  23.185  40.322  11.526
57024W        W20583   5.403  31.009   3.228
57025W        W20584   8.721  28.540   1.926
57026W        W20585  16.711   1.429   1.327
57027W        W20586  38.425  43.492   3.148
57028W        W20587  40.531  15.715   4.190
57029W        W20588  37.422  32.437   4.296
57030W        W20589  25.129  21.696   1.792
57031W        W20590  42.006  12.214  10.451
57032W        W20591  12.220  44.872  14.846
57033W        W20592  33.427  24.516  12.876
57034W        W20593   4.866  11.173  12.409
57035W        W20594  24.077  40.380  13.422
57036W        W20595  43.859  14.669   3.318
57037W        W20596  34.868  15.626   3.214
57038W        W20597   1.452  22.557  14.470
57039W        W20598   2.401  44.270   0.400
57040W        W20599  21.168  37.958   1.932
57041W        W20600  22.105  36.080  10.623
57042W        W20601  24.635  11.238  14.845
57043W        W20602  41.035  37.039  10.405
57044W        W20603  21.119  20.712  14.351
57045W        W20604  14.772  29.554  11.574
57046W        W20605  34.598  28.481  11.865
57047W        W20606   1.329  21.183   4.289
57048W        W20607  34.506   7.207  12.861
57049W        W20608  15.793  35.857   4.652
57050W        W20609  44.990  18.261  12.435
57051W        W20610  33.434  31.467  13.533
57052W        W20611  23.197  15.654  10.113
57053W        W20612  21.129  12.645   3.694
57054W        W20613  14.755  20.637  11.083
57055W        W20614   6.794  17.735  12.843
57056W        W20615  13.729  36.498  10.983
57057W        W20616  21.732  25.638   4.747
57058W        W20617  20.685  42.438   3.154
57059W        W20618  28.101  42.792  13.415
57060W        W20619  11.189  42.359  13.797
57061W        W20620  33.599  25.134  13.388
57062W        W20621   9.861   1.935   1.784
57063W        W20622  27.118  44.914   0.840
57064W        W20623  37.391  42.311  12.021
57065W        W20624   6.288  21.059   4.626
57066W        W20625  43.908  30.531   3.691
57067W        W20626   5.253  41.914  10.972
57068W        W20627  26.192  20.597  10.011
57069W        W20628  15.651  17.153  13.799
57070W        W20629   2.733  36.991  10.932
57071W        W20630   4.915  14.719   1.873
57072W        W20631  16.151  24.505   2.685
57073W        W20632  41.506  14.707   3.314
57074W        W20633  39.439  33.027  14.906
57075W        W20634  35.584  43.381   0.852
57076W        W20635  41.024  24.099  13.052
57077W        W20636  41.444   4.861  13.003
57078W        W20637  40.321  39.369   4.289
57079W        W20638  34.920  36.075  13.462
57080W        W20639  35.533  28.095   2.219
57081W        W20640  24.223  14.597   4.739
57082W        W20641   2.878  25.169  14.795
57083W        W20642  33.529  19.635   0.402
57084W        W20643  22.144  29.020  13.546
57085W        W20644   8.359  33.054  12.407
57086W        W20645  37.949  30.607   3.290
57087W        W20646  11.847  29.932  14.432
57088W        W20647  16.132  14.723   3.387
57089W        W20648  44.419  37.482  13.440
57090W        W20649  24.142  41.537   5.129
57091W        W20650  25.036  42.450  12.941
57092W        W20651   9.185  23.655   1.438
57093W        W20652  29.575  21.562   0.414
57094W        W20653  43.878   6.864   3.674
57095W        W20654   0.443  27.073  14.287
57096W        W20655  30.521  40.869  14.412
57097W        W20656  13.754  36.518   1.901
57098W        W20657  42.890  38.979  10.619
57099W        W20658   9.776  14.772   1.878
57100W        W20659  34.418  38.933   3.693
57101W        W20660  17.612  29.929  10.573
57102W        W20661  24.113  33.981   3.841
57103W        W20662  38.020  25.627  10.967
57104W        W20663  17.599   6.836  14.031
57105W        W20664  10.167  21.625   1.808
57106W        W20665   7.319  32.027  10.446
57107W        W20666  29.161  15.092  12.438
57108W        W20667  37.982  43.315  11.469
57109W        W20668  30.996  43.868   4.234
57110W        W20669  12.167  30.612   0.242
57111W        W20670  42.792  25.029  12.075
57112W        W20671  29.944   4.379  13.427
57113W        W20672  19.712  16.156   0.878
57114W        W20673   6.816  19.712   1.233
57115W        W20674  10.665  39.481   3.153
57116W        W20675  42.510   3.441   3.749
57117W        W20676  23.151   7.735  11.061
57118W        W20677   7.674  43.781   4.782
57119W        W20678  24.030   6.325  10.032
57120W        W20679  11.687  27.059  14.291
57121W        W20680  30.934  32.960  14.402
57122W        W20681   2.870  15.209   4.160
57123W        W20682  33.571  15.138   3.339
57124W        W20683   8.296  13.771  11.945
57125W        W20684  17.124  29.075   0.921
57126W        W20685  17.269   4.860   0.823
57127W        W20686  13.800  40.454  12.078
57128W        W20687  41.024  25.108  14.429
57129W        W20688  19.746  32.948   2.783
57130W        W20689   4.388   0.326  10.533
57131W        W20690  18.119  42.929   1.446
57132W        W20691  33.499  14.122  13.364
57133W        W20692   3.730  32.111   2.272
57134W        W20693  43.924  27.590  11.965
57135W        W20694  39.021  26.115  10.556
57136W        W20695  15.274  23.215  12.046
57137W        W20696   6.765  15.697  10.533
57138W        W20697  12.156  18.151  10.913
57139W        W20698  23.992  12.285   1.386
57140W        W20699  25.506  13.214   4.693
57141W        W20700  44.268  22.184  11.474
57142W        W20701   3.841  18.567   4.278
57143W        W20702   0.261  27.678   4.345
57144W        W20703  19.777  10.832  13.835
57145W        W20704  18.280  19.555  12.503
57146W        W20705  11.831   3.372   1.340
57147W        W20706  15.266  30.085   4.607
57148W        W20707   3.336  40.416  11.445
57149W        W20708  38.053  16.155  12.560
57150W        W20709  18.198  27.667  10.937
57151W        W20710  32.509  23.057   0.310
57152W        W20711  13.204  13.674   4.775
57153W        W20712  43.449  23.170   4.303
57154W        W20713  13.288  37.941  13.517
57155W        W20714  26.614  42.480   0.245
57156W        W20715   3.260   4.801   4.820
57157W        W20716   5.687   7.310  11.075
57158W        W20717  33.442   5.874   1.887
57159W        W20718  16.291   8.801   2.834
57160W        W20719  40.320   9.646   3.798
57161W        W20720  18.139  17.157   1.844
57162W        W20721  40.356  43.005  10.064
57163W        W20722  41.005  22.253   0.938
57164W        W20723  29.656   5.799   4.298
57165W        W20724  40.975  44.008   2.848
57166W        W20725  32.113  37.928   5.103
57167W        W20726  25.661   0.327  10.542
57168W        W20727  43.366  25.475  14.016
57169W        W20728  33.116  28.557  13.897
57170W        W20729  32.073  42.464  12.494
57171W        W20730  28.601  24.652   3.162
57172W        W20731   2.947  12.692   2.835
57173W        W20732   4.371  15.761  14.352
57174W        W20733   4.767  43.500   1.886
57175W        W20734  17.174  28.081  11.924
57176W        W20735  44.863  34.570   4.314
57177W        W20736   6.194   4.209   3.760
57178W        W20737  33.475  22.584   1.415
57179W        W20738   8.255  26.467  12.575
57180W        W20739   4.743  30.943  11.091
57181W        W20740  20.166  12.630  13.009
57182W        W20741   5.856  14.634   1.892
57183W        W20742  21.177  40.838  14.920
57184W        W20743  17.707  13.321   4.677
57185W        W20744  14.671  21.050  13.906
57186W        W20745  42.812  18.151   4.749
57187W        W20746  42.007  30.477  10.522
57188W        W20747  31.565   3.850   1.217
57189W        W20748   1.372  34.953  11.609
57190W        W20749  23.095  21.130  11.423
57191W        W20750  37.939  14.812  12.413
57192W        W20751  32.045  27.651   4.277
57193W        W20752  17.638  20.597  13.840
57194W        W20753  37.005  43.855  12.826
57195W        W20754  12.767  41.957  11.420
57196W        W20755  43.466  36.456  10.947
57197W        W20756  21.515  36.951  12.564
57198W        W20757   3.274  18.751   1.236
57199W        W20758  17.655  18.682   0.939
57200W        W20759  39.409   3.912   3.184
57201W        W20760  41.853   9.737  13.433
57202W        W20761   7.344  12.620   5.085
57203W        W20762  14.761  37.496  13.848
57204W        W20763  12.644  36.094   0.262
57205W        W20764  37.448  31.947   4.816
57206W        W20765   2.931  18.684  14.373
57207W        W20766  27.571  30.105  12.544
57208W        W20767  10.290  23.047   2.723
57209W        W20768  21.513  20.193  14.992
57210W        W20769  29.565  43.896  11.987
57211W        W20770  20.740  43.466  10.585
57212W        W20771  37.553   0.795   3.306
57213W        W20772  38.485  30.100  13.827
57214W        W20773   2.355  11.745   3.817
57215W        W20774  12.662  25.032  12.459
57216W        W20775   8.901  40.359  13.844
57217W        W20776   9.800  33.896   1.387
57218W        W20777  43.513  15.142   1.832
57219W        W20778  16.581  26.019  10.905
57220W        W20779  17.728  23.662   0.963
57221W        W20780   3.710  39.414  12.834
57222W        W20781  23.500  32.976  12.507
57223W        W20782   1.313  31.409   3.239
57224W        W20783  13.784  43.906   0.251
57225W        W20784   6.708  43.949   1.907
57226W        W20785  12.799  17.561   0.730
57227W        W20786  24.515  35.407  13.052
57228W        W20787  41.796  29.560  11.099
57229W        W20788  21.689  12.116  12.465
57230W        W20789  23.045   5.356   4.617
57231W        W20790  15.196  21.036   1.425
57232W        W20791  17.111  19.558  11.503
57233W        W20792  27.485   8.852  13.442
57234W        W20793  10.714   4.713  14.442
57235W        W20794  34.964   3.924   4.170
57236W        W20795  36.446  12.318   9.971
57237W        W20796  21.677  32.510   2.374
57238W        W20797   1.385  31.646  13.019
57239W        W20798  36.091   0.350  10.962
57240W        W20799  20.103  27.638   3.228
57241W        W20800  27.945  37.019   3.674
57242W        W20801  29.172   3.766  11.434
57243W        W20802  30.525  22.657   0.410
57244W        W20803  32.991  34.425   0.854
57245W        W20804   3.271  35.550   4.212
57246W        W20805  41.455  41.983   3.371
57247W        W20806  16.139  41.387  12.088
57248W        W20807  27.690   3.343   4.800
57249W        W20808   5.906  18.188   4.715
57250W        W20809  38.498  39.967  11.461
57251W        W20810  27.051  35.097  13.830
57252W        W20811  26.472  40.010   1.382
57253W        W20812  37.343  28.165   1.328
57254W        W20813  28.534   7.404   4.178
57255W        W20814  29.992  23.189  11.009
57256W        W20815  29.461   5.923   1.758
57257W        W20816  28.665  14.723   2.333
57258W        W20817   4.701  14.115  14.392
57259W        W20818   2.422  20.732  14.769
57260W        W20819  36.855   7.800   3.295
57261W        W20820  44.951  39.973  12.344
57262W        W20821  22.209   3.250   4.748
57263W        W20822  38.426  27.029  10.626
57264W        W20823  38.351   1.789   2.708
57265W        W20824   1.409  14.728   1.885
57266W        W20825   4.889  40.884  14.894
57267W        W20826  37.034  30.506   1.751
57268W        W20827  11.800  20.146   3.315
57269W        W20828  28.537  28.104   4.689
57270W        W20829  18.695   4.732  10.488
57271W        W20830  37.473  15.157  12.021
57272W        W20831  42.329  33.965   4.336
57273W        W20832  44.884   9.161   2.312
57274W        W20833  13.244  23.237   3.757
57275W        W20834  28.475  12.754   2.876
57276W        W20835   9.684  36.468  10.542
57277W        W20836  31.943  41.998   2.249
57278W        W20837  35.471  17.102   3.193
57279W        W20838  28.145  14.293  14.349
57280W        W20839  38.841  16.755   9.951
57281W        W20840  10.715   3.308   0.918
57282W        W20841   0.763  18.770   4.304
57283W        W20842  25.713  30.056  11.372
57284W        W20843   4.427  43.308   0.861
57285W        W20844   4.408  28.572   3.384
57286W        W20845  31.489  26.157   4.700
57287W        W20846   5.860  24.052  10.955
57288W        W20847   3.221  32.500   2.285
57289W        W20848  44.825   4.933   4.307
57290W        W20849   8.258  22.540   3.731
57291W        W20850  29.130   3.268  14.294
57292W        W20851   5.755  28.648  14.421
57293W        W20852  36.352  39.412  10.570
57294W        W20853  30.958  29.102  11.925
57295W        W20854  37.917  23.548  10.538
57296W        W20855  29.625  18.161   0.805
57297W        W20856  21.135  21.541   2.805
57298W        W20857  35.044  13.274  12.501
57299W        W20858  19.283  27.659  14.276
57300W        W20859  43.436  42.793   4.123
57301W        W20860  43.993   7.200   0.940
57302W        W20861   5.289   9.342  12.917
57303W        W20862   5.428   8.284  12.567
57304W        W20863   7.231  17.064  14.389
57305W        W20864  26.494  25.556   5.120
57306W        W20865  27.044  10.329  10.622
57307W        W20866  25.666  39.945   0.923
57308W        W20867  33.115  24.077   0.913
57309W        W20868  18.620  34.471  14.514
57310W        W20869  33.603  24.541  10.575
57311W        W20870   3.760  21.654  11.508
57312W        W20871  17.702  11.699   3.701
57313W        W20872  37.937  13.726   3.676
57314W        W20873  13.278  44.764  14.008
57315W        W20874   6.408  34.890  10.034
57316W        W20875  15.712  22.583   3.687
57317W        W20876   7.882  15.791  13.532
57318W        W20877  32.125  29.597   4.232
57319W        W20878  28.476  35.902   2.717
57320W        W20879  40.472  24.150  10.948
57321W        W20880  35.464  36.442   2.885
57322W        W20881  33.485   6.239  11.401
57323W        W20882  36.458  38.986   5.321
57324W        W20883   5.439  23.147  13.984
57325W        W20884  34.506  42.830  14.496
57326W        W20885  38.375  17.278  14.895
57327W        W20886  11.790  18.256   4.160
57328W        W20887  17.722  19.218   2.298
57329W        W20888  28.987  10.813   2.876
57330W        W20889  26.655  17.607   4.764
57331W        W20890  21.199  44.756   3.255
57332W        W20891   6.199  18.210  13.820
57333W        W20892  31.432  40.323  14.897
57334W        W20893  43.838   8.243   4.250
57335W        W20894  26.144  12.169  14.383
57336W        W20895   7.815  28.635  11.076
57337W        W20896  31.954   1.333  13.435
57338W        W20897  33.410   5.741   0.305
57339W        W20898  35.962  33.082   0.759
57340W        W20899  17.093  37.980  11.517
57341W        W20900   2.772  41.435   4.176
57342W        W20901  18.050  38.357  12.420
57343W        W20902  16.612  25.676  12.381
57344W        W20903  24.686  32.015  12.069
57345W        W20904  13.243  16.751   3.728
57346W        W20905  23.621  35.026  12.015
57347W        W20906  42.966  43.016  12.842
57348W        W20907  11.772  38.351  12.397
57349W        W20908  34.911  28.010   1.396
57350W        W20909  31.409  14.607  11.438
57351W        W20910  39.488   6.202   2.770
57352W        W20911   7.718   0.269   1.713
57353W        W20912  31.404  26.584   0.308
57354W        W20913  22.683  27.195  13.391
57355W        W20914   0.942  28.941  13.414
57356W        W20915   0.421   5.742   0.763
57357W        W20916   9.867   5.329   2.789
57358W        W20917  14.672  20.248  14.029
57359W        W20918  43.373  21.559   2.861
57360W        W20919   6.788  23.564   3.377
57361W        W20920  44.395  13.822   4.702
57362W        W20921  42.954  17.207  11.889
57363W        W20922  18.556  27.001   2.864
57364W        W20923   3.757  33.579   0.949
57365W        W20924  28.959   0.476  14.951
57366W        W20925  13.105  38.014  10.506
57367W        W20926  14.250  11.660   1.807
57368W        W20927  13.272  17.783  10.498
57369W        W20928   4.371   0.803   1.330
57370W        W20929   9.166  40.001  14.852
57371W        W20930  37.873  44.396   0.837
57372W        W20931  15.761  25.508   1.347
57373W        W20932  33.448   2.434   3.271
57374W        W20933  26.680  38.472  11.379
57375W        W20934   2.357  43.345   4.320
57376W        W20935  15.719  17.249  13.353
57377W        W20936  21.102   1.933  11.564
57378W        W20937  29.052   8.893  12.424
57379W        W20938  31.942  32.934  10.959
57380W        W20939  26.081  21.517  11.974
57381W        W20940   1.418   8.308  10.933
57382W        W20941  17.287  41.850   2.716
57383W        W20942  10.239  37.352  13.866
57384W        W20943   1.397  36.957   0.296
57385W        W20944  25.210  42.527  10.967
57386W        W20945   0.302   0.951  13.355
57387W        W20946  36.844  13.187   0.935
57388W        W20947  41.514  13.331  10.535
57389W        W20948  38.999  35.601   1.386
57390W        W20949   5.866  18.148   1.250
57391W        W20950  10.372  38.496  12.862
57392W        W20951  42.318  34.043  13.429
57393W        W20952  24.021   1.356   1.781
57394W        W20953   8.701  12.856   9.513
57395W        W20954   3.802  34.000   3.168
57396W        W20955  23.130  32.530  14.789
57397W        W20956  31.643  27.962   1.805
57398W        W20957  32.028  30.912   1.238
57399W        W20958  44.331   2.344   1.732
57400W        W20959   1.384  11.348   3.669
57401W        W20960  34.461  20.564   3.661
57402W        W20961  15.745  44.335   4.606
57403W        W20962  35.098   7.726   0.450
57404W        W20963  34.951  38.566   5.315
57405W        W20964  40.502  14.186  13.493
57406W        W20965  42.364  35.044   3.296
57407W        W20966  29.631  38.330  12.483
57408W        W20967   0.450  42.500   0.911
57409W        W20968  33.430  25.676   3.279
57410W        W20969  23.066   1.757   0.781
57411W        W20970  29.608  19.053  14.311
57412W        W20971  31.455   7.877  11.888
57413W        W20972  39.973   7.678   1.771
57414W        W20973  33.615  13.285  10.441
57415W        W20974   9.320  31.637  12.966
57416W        W20975  37.920   1.754  10.950
57417W        W20976  12.155  37.365   2.415
57418W        W20977  23.192  17.603   4.310
57419W        W20978  33.390  42.807   4.334
57420W        W20979  20.197   2.252   1.706
57421W        W20980  23.065  40.465   0.417
57422W        W20981  43.444  18.623  11.093
57423W        W20982   0.765   5.390  12.569
57424W        W20983  27.569  20.051   3.220
57425W        W20984  18.689  17.228  13.057
57426W        W20985   1.779  42.460   4.776
57427W        W20986  36.970  38.349   3.211
57428W        W20987  44.315  33.522   2.687
57429W        W20988  38.560  23.227   2.320
57430W        W20989  41.793   9.346  13.344
57431W        W20990  34.526  26.526  12.375
57432W        W20991   7.336  41.828  11.447
57433W        W20992  13.304  42.459  11.475
57434W        W20993   2.736   5.362  11.880
57435W        W20994  38.375  19.619  10.644
57436W        W20995   8.764  12.199  12.878
57437W        W20996  15.756  30.559   4.643
57438W        W20997  35.107   3.915   1.223
57439W        W20998  19.773  25.148  14.351
57440W        W20999  27.171  11.828   1.700
57441W        W21000   1.289   2.298  13.307
57442W        W21001   9.237  19.063  10.572
57443W        W21002  34.926  31.152   3.704
57444W        W21003  30.492   9.794   1.392
57445W        W21004  39.389   1.812   3.793
57446W        W21005  12.144  43.008  10.932
57447W        W21006  38.973  35.884  10.084
57448W        W21007  10.650  44.470   3.253
57449W        W21008  42.817  31.960  14.404
57450W        W21009   6.728  44.380  13.364
57451W        W21010   3.764  35.868   1.311
57452W        W21011  12.777  23.548  12.446
57453W        W21012  25.123  16.263   2.758
57454W        W21013  34.027   9.723   2.320
57455W        W21014   0.894  37.385  11.960
57456W        W21015  42.364   6.816   0.344
57457W        W21016  44.782  28.635   3.334
57458W        W21017  30.471  44.301   0.249
57459W        W21018  44.841  27.533   0.820
57460W        W21019  28.966   5.418   0.421
57461W        W21020  29.006  18.113   3.631
57462W        W21021   2.315  37.986   1.448
57463W        W21022   8.770  27.654  13.839
57464W        W21023  34.041   5.198  12.082
57465W        W21024  36.371  12.717  13.339
57466W        W21025  38.830   3.291   0.259
57467W        W21026  10.701  30.044   3.153
57468W        W21027  28.948  37.341   0.767
57469W        W21028  28.060  38.896   0.426
57470W        W21029   2.384  15.748   5.136
57471W        W21030  20.097  28.665   0.851
57472W        W21031  19.576  10.368   2.347
57473W        W21032  29.536  11.158  10.149
57474W        W21033  27.506  13.620  12.463
57475W        W21034  39.993  40.448   0.939
57476W        W21035  25.560  11.198  13.860
57477W        W21036  31.956  28.584  13.040
57478W        W21037  39.468  31.614   3.150
57479W        W21038  30.587  14.620   0.737
57480W        W21039   0.306   4.730   0.468
57481W        W21040  33.080   0.270  11.896
57482W        W21041   7.319   4.258  11.907
57483W        W21042  38.837  36.846   4.694
57484W        W21043   5.420  20.058  10.586
57485W        W21044  28.584  26.580  14.318
57486W        W21045  37.848  10.673  13.429
57487W        W21046  41.357   1.317   4.318
57488W        W21047  31.528  28.061  14.949
57489W        W21048  43.358  31.525  14.318
57490W        W21049  15.815  28.462   2.227
57491W        W21050  26.623  39.892   2.693
57492W        W21051  11.255  19.756  13.940
57493W        W21052  15.595  22.064  11.894
57494W        W21053  10.705  25.082  12.901
57495W        W21054  27.467   2.293   0.271
57496W        W21055  32.888  27.587  14.897
57497W        W21056  39.426  34.374   1.289
57498W        W21057  12.167  30.533   4.752
57499W        W21058  32.412  26.029   3.768
57500W        W21059  32.907  18.054   2.663
57501W        W21060  21.613  17.714   4.673
57502W        W21061  40.992  31.017  13.062
57503W        W21062   6.293  24.648   0.735
57504W        W21063  29.144  11.299   2.415
57505W        W21064  16.234  15.804   0.869
57506W        W21065   6.846  10.348   4.675
57507W        W21066  16.273  43.427  11.939
57508W        W21067  12.165   9.171  14.413
57509W        W21068  22.023   4.444   3.273
57510W        W21069  20.170   0.913  10.095
57511W        W21070   7.405   3.299   4.645
57512W        W21071  23.198  19.176   1.809
57513W        W21072  36.540  39.851   1.412
57514W        W21073   9.274  18.114  12.947
57515W        W21074  37.465  20.563  14.276
57516W        W21075   3.421  44.939   3.381
57517W        W21076  28.067  24.103   1.848
57518W        W21077  29.544  39.459   2.273
57519W        W21078   6.720  32.120  12.373
57520W        W21079   2.373  25.048  13.829
57521W        W21080  26.483  12.261   1.356
57522W        W21081   3.802  31.933   4.704
57523W        W21082  30.507  37.362  12.832
57524W        W21083   0.892  16.794   1.265
57525W        W21084  36.896  34.036  11.969
57526W        W21085  42.960  30.100  12.078
57527W        W21086  43.881  18.683  14.420
57528W        W21087   8.364  17.669   4.262
57529W        W21088  30.149  25.621   0.765
57530W        W21089  23.240   6.706  14.930
57531W        W21090  32.940  25.022  12.559
57532W        W21091  33.921  33.105  11.033
57533W        W21092   0.294   6.800   0.832
57534W        W21093   1.371   5.834   3.734
57535W        W21094  18.084  32.989   2.804
57536W        W21095  11.192  14.142  12.563
57537W        W21096  30.928   5.272   3.816
57538W        W21097  29.604  44.411  14.415
57539W        W21098  12.197  15.249  13.905
57540W        W21099  34.537  34.471   3.733
57541W        W21100  27.184  22.706   4.812
57542W        W21101  12.691  33.449   1.234
57543W        W21102  22.595  29.623   1.416
57544W        W21103  43.423  35.576   4.698
57545W        W21104  33.886  16.661   3.161
57546W        W21105  24.503  10.288   0.443
57547W        W21106   2.770  18.279  12.373
57548W        W21107  34.095  32.582  10.495
57549W        W21108  22.585  43.918  11.117
57550W        W21109   5.379  22.659  10.895
57551W        W21110   4.888  39.015  14.943
57552W        W21111  37.900  35.965   3.170
57553W        W21112  25.004  43.767  10.533
57554W        W21113  18.226   5.408  14.024
57555W        W21114  35.447  37.448   1.283
57556W        W21115  37.416  31.552   1.401
57557W        W21116  27.524  24.566   3.727
57558W        W21117  44.886  27.578  14.809
57559W        W21118  29.480   9.371   1.336
57560W        W21119  35.933   3.460   1.753
57561W        W21120   7.771  15.581   0.846
57562W        W21121  20.586  30.110  12.445
57563W        W21122  11.224  30.953   2.763
57564W        W21123  16.722  33.949  13.928
57565W        W21124  30.630  37.070   0.920
57566W        W21125  37.506  30.980  14.956
57567W        W21126  19.196  34.978   0.395
57568W        W21127  44.439  30.507  11.496
57569W        W21128  41.860  42.927   2.188
57570W        W21129  40.461   0.399  11.451
57571W        W21130  44.440   9.779  14.830
57572W        W21131   9.209  22.541   2.332
57573W        W21132  32.438   3.227  14.835
57574W        W21133  15.770  41.500  10.641
57575W        W21134   2.904  41.485  10.426
57576W        W21135  24.111  39.380   2.282
57577W        W21136  20.035  26.499   0.467
57578W        W21137  21.720   9.715   2.315
57579W        W21138  37.849  19.248   4.225
57580W        W21139  20.724   5.842  13.363
57581W        W21140   4.322  21.754  10.487
57582W        W21141  16.213  43.880  12.560
57583W        W21142  30.548  31.589   0.472
57584W        W21143  12.788  18.675   4.652
57585W        W21144   1.904  26.624  13.949
57586W        W21145  36.487   4.782  14.489
57587W        W21146   3.307   8.246   2.670
57588W        W21147   7.352  32.970  14.467
57589W        W21148  28.621  31.926   5.120
57590W        W21149  20.262  24.563   0.869
57591W        W21150  22.177  38.935   3.723
57592W        W21151  33.609  35.887   4.115
57593W        W21152  30.016  41.499  14.782
57594W        W21153   5.278  29.498   1.379
57595W        W21154   2.275  26.989   3.344
57596W        W21155  29.527  24.081   0.382
57597W        W21156  16.740  24.204   4.689
57598W        W21157  39.363  28.564   2.881
57599W        W21158  37.459  10.352   2.419
57600W        W21159  33.056  33.065   2.751
57601W        W21160  27.053  39.488   2.199
57602W        W21161  41.323  27.584  10.406
57603W        W21162   2.306  14.809  10.942
57604W        W21163  40.508  26.701   1.351
57605W        W21164  25.560   0.399   1.243
57606W        W21165  30.142  20.673   4.807
57607W        W21166  24.197  44.447   2.812
57608W        W21167  41.307  37.845  11.913
57609W        W21168  37.082  19.588  14.504
57610W        W21169  26.472   3.350   4.343
57611W        W21170   6.351   2.262   1.392
57612W        W21171  14.680  17.625  10.911
57613W        W21172  12.855  37.536   2.224
57614W        W21173  19.244  29.173   3.758
57615W        W21174  25.644  15.590   3.664
57616W        W21175  38.054  23.101  10.555
57617W        W21176   6.182  43.333  11.945
57618W        W21177  11.306  20.645   3.721
57619W        W21178  22.237   9.348   1.711
57620W        W21179   5.376  15.187   0.783
57621W        W21180  37.504  23.604  13.990
57622W        W21181  39.528  38.828   1.861
57623W        W21182  11.672   0.311   0.425
57624W        W21183   2.755   4.743  13.920
57625W        W21184   7.712  24.201  13.397
57626W        W21185  32.024  13.328   4.818
57627W        W21186  44.868   1.812  12.361
57628W        W21187   3.217  38.064   5.106
57629W        W21188  37.020  43.007   1.295
57630W        W21189   2.929   4.281   0.242
57631W        W21190   5.919  43.355  10.511
57632W        W21191   9.656  39.431  11.497
57633W        W21192  12.360  14.831  10.137
57634W        W21193  24.042  22.151  12.864
57635W        W21194  12.314  28.946  10.423
57636W        W21195  14.325  11.207   2.306
57637W        W21196  39.007  11.214  13.064
57638W        W21197  33.467  27.530   2.895
57639W        W21198  30.628  20.106  12.525
57640W        W21199  30.508  20.030   2.764
57641W        W21200  42.372  37.996   2.888
57642W        W21201  32.959  44.309  11.030
57643W        W21202  18.075  35.946   3.741
57644W        W21203  14.201  18.777  11.377
57645W        W21204  17.235   0.892   3.773
57646W        W21205  44.389  25.710  12.845
57647W        W21206   1.767  34.505   0.745
57648W        W21207  43.315  26.649  10.416
57649W        W21208  42.969  16.770  10.525
57650W        W21209  15.769  29.167  12.934
57651W        W21210  18.689  36.905   2.686
57652W        W21211  41.800   0.422   3.178
57653W        W21212   6.706  26.514   5.135
57654W        W21213  34.422   4.745   2.265
57655W        W21214   0.894  15.651  11.484
57656W        W21215  25.085  23.051  13.895
57657W        W21216  11.145   9.881   0.786
57658W        W21217  30.429  23.522   4.241
57659W        W21218  37.880  31.964   4.173
57660W        W21219  23.989  39.842   2.320
57661W        W21220  14.306  19.726   1.307
57662W        W21221  44.416   1.894   1.785
57663W        W21222  29.936   4.719  12.077
57664W        W21223  27.118  34.013  11.534
57665W        W21224  36.012  32.090   3.690
57666W        W21225  10.754  40.964   1.921
57667W        W21226  21.687  14.286  12.362
57668W        W21227  16.798  41.304   4.126
57669W        W21228  30.004  16.723  14.359
57670W        W21229   4.818  28.631  13.835
57671W        W21230  35.520  43.346   1.431
57672W        W21231  27.602   6.310  13.797
57673W        W21232  33.070  41.413   0.947
57674W        W21233   7.737  28.472   1.299
57675W        W21234  19.752  32.512   1.901
57676W        W21235  25.712  34.075   0.335
57677W        W21236  12.313  36.011   3.728
57678W        W21237  27.142  28.554   0.387
57679W        W21238  22.580  24.518   9.941
57680W        W21239   8.809   6.252   3.714
57681W        W21240   8.901  24.998   0.414
57682W        W21241   0.805  44.369  14.320
57683W        W21242  27.497  20.033   1.913
57684W        W21243  20.073  18.223   1.266
57685W        W21244   3.831  12.803  13.521
57686W        W21245  18.159  26.998  14.928
57687W        W21246  12.756  29.164  13.936
57688W        W21247  13.716  39.551   4.344
57689W        W21248  43.490   7.846  13.958
57690W        W21249  20.133  37.029   2.404
57691W        W21250  15.220  25.032   3.704
57692W        W21251  35.548  31.534  13.022
57693W        W21252  38.404  27.510  11.863
57694W        W21253  15.141  14.199  13.864
57695W        W21254   4.366   3.794  11.592
57696W        W21255   0.970  33.528   2.796
57697W        W21256  19.091  18.235  14.964
57698W        W21257  29.035  20.613   0.857
57699W        W21258  16.109  13.105   2.189
57700W        W21259  28.573  18.256   1.338
57701W        W21260  11.222  17.634   0.726
57702W        W21261  42.825  44.962   0.818
57703W        W21262  33.444  36.921   1.733
57704W        W21263  13.704  11.224   2.813
57705W        W21264  11.649  38.868   0.452
57706W        W21265  34.613  26.146  10.547
57707W        W21266   0.443  27.558   3.831
57708W        W21267   1.759  40.416   0.366
57709W        W21268  27.088  30.037  12.413
57710W        W21269  36.005  41.965  11.572
57711W        W21270  35.595  20.205   4.311
57712W        W21271  28.995  11.349   1.771
57713W        W21272  28.471  27.094  13.793
57714W        W21273  29.592  44.985  11.379
57715W        W21274  34.538  22.568  14.423
57716W        W21275  31.085  29.664   4.761
57717W        W21276   5.911   3.301  13.395
57718W        W21277  37.383   7.843   4.782
57719W        W21278  40.969   1.378   4.780
57720W        W21279  33.928  19.609  14.376
57721W        W21280  28.553  26.613  12.895
57722W        W21281  23.665  14.752  11.948
57723W        W21282  35.075  22.007   0.932
57724W        W21283  25.025  12.711   5.223
57725W        W21284  43.945  13.608   1.829
57726W        W21285  37.486  17.757   0.454
57727W        W21286   2.822  22.188  12.392
57728W        W21287   3.339   5.392  10.911
57729W        W21288  43.887  31.484  11.127
57730W        W21289  38.051   4.706   9.926
57731W        W21290  34.507  15.652  13.974
57732W        W21291  42.392  22.115  11.382
57733W        W21292  20.029  14.109  11.587
57734W        W21293   8.376  24.989   5.314
57735W        W21294  38.830   4.267   0.812
57736W        W21295  12.352  40.854   3.768
57737W        W21296  16.289  15.166   3.664
57738W        W21297  32.016  19.631   4.770
57739W        W21298  22.243   6.901   2.707
57740W        W21299  30.464   0.824   1.826
57741W        W21300  30.151  23.639   1.888
57742W        W21301   7.851  25.158  12.002
57743W        W21302   7.324   8.295   2.889
57744W        W21303  18.765  42.776  11.046
57745W        W21304  24.588  20.066  13.329
57746W        W21305  21.583  33.895   4.746
57747W        W21306  23.107  38.530  11.451
57748W        W21307  14.262  40.848   1.378
57749W        W21308  21.046  10.237  11.517
57750W        W21309  19.282   3.865   2.893
57751W        W21310  41.359  41.964   4.170
57752W        W21311  33.090  41.414   3.211
57753W        W21312  33.593   0.422   0.370
57754W        W21313  43.361  38.848   0.900
57755W        W21314  34.901  34.890  12.475
57756W        W21315  19.701  11.147  13.464
57757W        W21316  11.630  30.498   2.681
57758W        W21317  28.612  33.126  11.909
57759W        W21318  20.237  15.146  10.974
57760W        W21319  38.389  12.659   2.768
57761W        W21320  38.878  17.276   0.922
57762W        W21321  23.680  27.569  12.898
57763W        W21322  32.909   3.294   1.834
57764W        W21323  39.965   7.268  12.478
57765W        W21324  14.625  11.858   2.199
57766W        W21325  21.612   0.470   3.835
57767W        W21326  16.609  21.165  11.126
57768W        W21327  43.792   1.894   3.164
57769W        W21328  20.761  35.434  14.858
57770W        W21329  12.215  39.476  12.077
57771W        W21330  27.683  21.254   2.307
57772W        W21331  10.203  29.556  12.088
57773W        W21332  24.605  11.640   3.382
57774W        W21333  14.138  31.628   2.394
57775W        W21334  37.575  39.380   1.291
57776W        W21335  24.993  12.346  11.573
57777W        W21336  40.525  16.125   2.219
57778W        W21337  18.090  32.094   3.654
57779W        W21338  16.640  28.517  13.892
57780W        W21339  22.693   2.815  12.557
57781W        W21340   9.317  30.154  12.826
57782W        W21341  38.968  29.069  11.489
57783W        W21342   5.313  25.004  10.953
57784W        W21343  40.328  29.583   1.924
57785W        W21344  16.572   8.682   9.625
57786W        W21345   0.290   4.943   3.666
57787W        W21346  18.125  24.636  12.446
57788W        W21347   6.715  44.484   4.156
57789W        W21348  36.365  13.845   0.344
57790W        W21349  24.522  11.806   5.710
57791W        W21350  41.814  40.389  11.877
57792W        W21351  43.284  40.008  13.882
57793W        W21352   0.968  39.874   2.399
57794W        W21353  42.995  25.669   1.871
57795W        W21354  40.422  32.577   1.741
57796W        W21355  20.083   9.839  10.446
57797W        W21356  11.842  30.451   4.686
57798W        W21357  31.420   7.866   4.707
57799W        W21358   5.402  36.369   3.167
57800W        W21359  40.994  37.873   4.302
57801W        W21360  27.490  21.588   2.219
57802W        W21361   0.924  40.402   3.781
57803W        W21362  14.138  31.960   4.715
57804W        W21363  39.507  21.644  10.532
57805W        W21364  13.312  42.903   2.284
57806W        W21365  41.452  20.701  13.418
57807W        W21366   4.394  24.616   2.261
57808W        W21367   4.250   0.475   2.851
57809W        W21368  44.807  33.072  13.414
57810W        W21369  31.412  38.069   3.665
57811W        W21370   2.913  23.063  14.025
57812W        W21371   9.334  27.583  12.514
57813W        W21372  43.939  34.376  14.793
57814W        W21373  20.618  23.985  11.067
57815W        W21374  23.632   4.394  14.022
57816W        W21375  42.299  17.098  11.993
57817W        W21376  16.141  39.815  13.810
57818W        W21377  33.915  14.223   0.406
57819W        W21378   7.769  14.288   0.968
57820W        W21379   0.421  44.386   3.737
57821W        W21380  25.119   0.852  12.404
57822W        W21381  43.767  34.531  12.540
57823W        W21382  16.785  34.543   2.255
57824W        W21383  20.555  28.990   4.279
57825W        W21384  43.373  34.106   2.828
57826W        W21385  11.270  33.034   4.790
57827W        W21386   8.355  25.072   4.218
57828W        W21387   9.258  42.775   4.825
57829W        W21388  20.194  10.785  13.896
57830W        W21389   8.300  44.283   1.240
57831W        W21390  39.884  37.491   3.752
57832W        W21391  32.932  11.299   0.295
57833W        W21392  23.076   8.844   4.124
57834W        W21393  25.643  41.009   3.866
57835W        W21394  22.181  42.855  13.034
57836W        W21395  44.263  20.269  13.970
57837W        W21396  32.404  12.667  12.398
57838W        W21397  30.625  14.639  14.844
57839W        W21398  30.028  22.088   2.691
57840W        W21399  10.661   7.265   5.114
57841W        W21400  22.688   8.857  11.456
57842W        W21401   9.249  23.605   1.790
57843W        W21402   0.925  13.703   4.344
57844W        W21403  10.837  18.155   3.163
57845W        W21404   9.769   5.803  10.939
57846W        W21405  13.329   3.242  12.570
57847W        W21406  32.390  28.519  12.953
57848W        W21407  14.135  41.451   2.877
57849W        W21408  18.691   0.830  14.870
57850W        W21409  14.656   4.374   0.839
57851W        W21410  14.313   9.240  12.831
57852W        W21411   5.869  25.206   1.806
57853W        W21412  16.149  41.451   4.603
57854W        W21413   1.292   1.425  12.001
57855W        W21414  36.970  12.179  12.347
57856W        W21415  11.355  26.196  11.121
57857W        W21416  37.427  27.100   3.287
57858W        W21417  20.217   9.790  11.017
57859W        W21418  33.919  11.221  10.561
57860W        W21419  13.220  20.136   3.853
57861W        W21420   0.959   2.954   2.801
57862W        W21421  32.481   4.287  14.481
57863W        W21422  12.174  43.498   2.383
57864W        W21423   6.690   7.723  12.833
57865W        W21424  19.626  28.148  14.002
57866W        W21425  16.155  42.431  10.416
57867W        W21426  24.051  18.744  13.047
57868W        W21427  31.990  16.749  14.772
57869W        W21428  10.175  13.171   1.826
57870W        W21429  34.446  35.087  10.406
57871W        W21430  10.329   7.894   9.959
57872W        W21431  26.603  10.210  14.514
57873W        W21432  29.998  38.825   3.302
57874W        W21433  24.180  26.694   1.733
57875W        W21434   4.822  26.692   4.264
57876W        W21435  35.522  11.200   3.869
57877W        W21436   6.426  19.201  14.306
57878W        W21437  27.055  14.278   2.335
57879W        W21438  35.887  26.598  14.835
57880W        W21439  31.587   3.379  14.399
57881W        W21440  41.020   3.412   2.282
57882W        W21441  16.802  33.876   2.264
57883W        W21442  19.535  22.743   1.306
57884W        W21443   9.285  44.007  11.968
57885W        W21444  30.505   4.278  12.827
57886W        W21445  25.129  43.787   0.310
57887W        W21446  36.376  29.575   4.637
57888W        W21447  38.363  13.311  13.838
57889W        W21448  31.644  14.742  13.388
57890W        W21449  12.785   3.356   2.314
57891W        W21450   7.286  22.061  11.510
57892W        W21451   3.219  16.148   2.245
57893W        W21452  29.982  35.469  14.496
57894W        W21453  20.616  12.677  11.905
57895W        W21454  38.065  13.714  12.427
57896W        W21455  38.018  32.504   4.125
57897W        W21456   0.370  37.843   1.379
57898W        W21457  19.559  21.655  12.346
57899W        W21458  15.578  31.112  14.458
57900W        W21459  33.583  20.650  14.009
57901W        W21460   4.436  15.733  14.869
57902W        W21461  39.404  39.327   3.166
57903W        W21462   9.381  27.650   3.715
57904W        W21463  31.914  14.703   2.191
57905W        W21464   8.341  33.051  13.029
57906W        W21465  21.157  14.339   2.901
57907W        W21466  11.244  32.601  10.466
57908W        W21467  35.455   2.788  10.444
57909W        W21468  18.661  23.207   1.696
57910W        W21469  29.621  26.117  11.513
57911W        W21470   3.249  42.917   4.676
57912W        W21471  18.171  43.913  13.056
57913W        W21472  41.339   5.750  14.870
57914W        W21473  11.166  39.330   3.742
57915W        W21474  32.913   6.340   2.746
57916W        W21475  11.717  44.271   3.212
57917W        W21476  30.464  10.280   1.838
57918W        W21477  40.012  39.899   0.752
57919W        W21478  27.146  28.136  10.140
57920W        W21479  14.677  13.127   1.915
57921W        W21480  15.653  42.290  13.322
57922W        W21481  16.732   9.196  14.424
57923W        W21482   3.799  23.044   4.235
57924W        W21483  30.129  28.941  11.440
57925W        W21484  41.506  13.247  13.025
57926W        W21485  38.558  31.019   2.303
57927W        W21486   5.374  30.658   1.696
57928W        W21487  41.402  33.479   2.370
57929W        W21488   2.461  38.524   0.297
57930W        W21489   5.357  27.975  14.850
57931W        W21490  41.949  39.412   0.356
57932W        W21491  33.924  16.298   1.312
57933W        W21492  19.540   7.850   2.284
57934W        W21493  22.097  40.335  11.957
57935W        W21494  29.587  10.226   3.840
57936W        W21495  20.144  32.421  12.531
57937W        W21496  18.641   8.822   1.729
57938W        W21497  26.168  24.712   4.748
57939W        W21498   3.456   8.398   3.278
57940W        W21499  18.054  11.268  12.497
57941W        W21500  12.637  28.644  12.923
57942W        W21501  14.215  27.446  14.390
57943W        W21502   5.694  34.579   0.769
57944W        W21503  40.519   3.808  13.047
57945W        W21504  43.383  20.126   4.746
57946W        W21505   4.712  15.582  10.900
57947W        W21506   0.938   9.720  14.402
57948W        W21507  27.947  17.106   0.951
57949W        W21508  27.465   4.859  12.454
57950W        W21509  24.987  11.353  11.526
57951W        W21510  34.015  19.562   1.260
57952W        W21511  13.717  11.637  12.912
57953W        W21512  25.601   3.925   4.129
57954W        W21513  41.885  28.608   2.327
57955W        W21514   7.218  27.592  12.513
57956W        W21515  22.544  29.173   1.872
57957W        W21516  34.069   0.475  12.405
57958W        W21517   9.687  39.541  11.992
57959W        W21518  16.094  44.270  13.879
57960W        W21519  39.539  15.181   3.311
57961W        W21520  20.125  35.445   4.171
57962W        W21521  19.175  44.285  10.902
57963W        W21522   7.325  39.337  14.383
57964W        W21523  19.698  39.892   3.830
57965W        W21524   9.841   3.939  10.969
57966W        W21525  12.218   9.319  10.506
57967W        W21526  44.881  44.307   4.245
57968W        W21527  17.770  23.524   2.236
57969W        W21528  41.905  41.495   4.741
57970W        W21529  24.100  33.600   3.226
57971W        W21530  36.924  43.425  14.316
57972W        W21531  14.178  43.383  14.787
57973W        W21532  18.059  29.470  13.921
57974W        W21533  33.555  42.518  10.146
57975W        W21534  10.716   5.895   4.748
57976W        W21535   8.189  28.681   3.791
57977W        W21536  30.038  35.852  13.984
57978W        W21537  17.198  16.805   1.228
57979W        W21538  15.769  15.789  14.981
57980W        W21539  18.190  31.928  14.407
57981W        W21540   3.868   7.322  10.999
57982W        W21541  41.372  42.452   3.633
57983W        W21542  28.169  41.838  10.906
57984W        W21543  29.968  36.883   0.936
57985W        W21544   2.358  11.346  11.410
57986W        W21545   0.367  11.366   2.837
57987W        W21546   9.688   7.250   4.143
57988W        W21547  28.533  33.515   0.946
57989W        W21548  11.700   3.827  14.491
57990W        W21549  14.665  11.844  11.959
57991W        W21550  41.349  10.670  13.511
57992W        W21551  15.295  28.059  11.964
57993W        W21552  13.119  44.986   4.748
57994W        W21553  33.096  15.172  14.784
57995W        W21554  31.134  17.690  13.359
57996W        W21555  34.864   9.734  12.903
57997W        W21556  11.740   2.236  10.449
57998W        W21557  32.483   9.382   5.137
57999W        W21558  28.609  42.360   4.662
58000W        W21559  11.802   1.236  10.910
58001W        W21560  27.599  37.391  11.598
58002W        W21561  17.209  39.938  11.449
58003W        W21562  33.946  26.558  10.988
58004W        W21563  19.223  31.418  13.026
58005W        W21564  37.885  39.010  12.490
58006W        W21565  22.522  11.771   4.213
58007W        W21566  41.406  16.161  14.814
58008W        W21567  31.143   9.393  14.873
58009W        W21568  31.062  34.009   4.301
58010W        W21569  39.370  23.156   3.181
58011W        W21570  10.739  21.017  14.894
58012W        W21571  32.584   6.219  13.398
58013W        W21572  42.842   1.965  13.382
58014W        W21573  11.274  42.863   3.781
58015W        W21574  25.616   0.494   3.823
58016W        W21575  38.947   2.289  11.480
58017W        W21576  19.771  23.076  14.443
58018W        W21577  32.945  32.063  10.951
58019W        W21578  36.523  31.034  13.837
58020W        W21579  42.870  34.078  11.460
58021W        W21580  30.012   7.285   0.419
58022W        W21581   7.351   2.806   3.724
58023W        W21582  29.490  38.830   4.754
58024W        W21583   3.369  20.720   3.730
58025W        W21584  41.961  24.161   3.805
58026W        W21585  17.637  17.126   3.256
58027W        W21586  22.148  10.691  12.947
58028W        W21587  38.553  26.207   1.427
58029W        W21588  40.496   5.308   3.638
58030W        W21589  33.889   9.159   2.817
58031W        W21590   5.834  33.556  13.316
58032W        W21591  26.657   1.418  10.478
58033W        W21592   4.839   7.695   2.287
58034W        W21593  33.036   2.308  12.536
58035W        W21594   1.955  40.913  11.530
58036W        W21595  28.153  29.642  11.912
58037W        W21596  44.316  20.150  13.319
58038W        W21597  15.624  26.609   2.833
58039W        W21598  16.119  39.873  14.281
58040W        W21599  15.200  39.526   0.805
58041W        W21600   8.749   7.877   2.729
58042W        W21601  35.546  38.563  11.917
58043W        W21602  25.643  44.912  10.978
58044W        W21603  34.521  34.868   1.893
58045W        W21604  12.665  43.955  13.519
58046W        W21605  16.241  36.993   1.807
58047W        W21606   6.410  30.491   2.195
58048W        W21607  14.644  25.686  14.793
58049W        W21608  37.938  38.869  12.852
58050W        W21609  30.134  15.665  12.008
58051W        W21610  43.303  21.138  14.372
58052W        W21611   6.351  19.222   2.320
58053W        W21612  28.649  25.499  13.403
58054W        W21613   7.228   2.234  10.577
58055W        W21614   7.266  39.439   1.816
58056W        W21615  33.075   7.698  14.397
58057W        W21616  31.058   5.345   0.817
58058W        W21617  28.147  41.897  14.914
58059W        W21618   7.714   6.187  11.420
58060W        W21619  40.353  28.610   0.832
58061W        W21620  25.605  33.618  14.339
58062W        W21621  14.805  38.343   0.739
58063W        W21622  28.469  37.054   0.424
58064W        W21623  11.368  14.095  11.372
58065W        W21624  29.123  28.666   3.670
58066W        W21625  44.482  41.013  12.863
58067W        W21626  42.509  20.597  10.941
58068W        W21627   7.348   4.713   4.236
58069W        W21628  42.840  27.546   1.395
58070W        W21629  21.171  18.547  13.875
58071W        W21630  19.586  44.943  12.417
58072W        W21631  26.659   9.670  10.569
58073W        W21632  31.466  39.846  10.976
58074W        W21633  17.131  33.476  14.930
58075W        W21634   7.262  22.524   0.859
58076W        W21635  12.260  33.534  12.860
58077W        W21636  44.008  42.784   3.168
58078W        W21637  20.667  34.054  12.037
58079W        W21638  40.896  10.384   2.308
58080W        W21639  42.517   9.332  12.842
58081W        W21640  31.410  42.850  13.013
58082W        W21641  33.485  26.532   0.335
58083W        W21642   0.793  18.679  12.565
58084W        W21643  32.892  11.763   3.279
58085W        W21644  29.034   6.409  13.822
58086W        W21645  40.315  12.679  14.804
58087W        W21646  27.475   4.714  14.299
58088W        W21647  25.189  17.591  12.535
58089W        W21648  44.802  15.705  14.278
58090W        W21649  13.843  29.086  14.850
58091W        W21650  44.416  27.550  10.934
58092W        W21651  41.896  31.138   3.300
58093W        W21652  21.752  11.786   0.279
58094W        W21653   3.725  18.081   0.920
58095W        W21654  10.724   0.954   4.690
58096W        W21655  41.896  31.572   3.164
58097W        W21656  40.858   3.765   1.916
58098W        W21657  29.944   3.742  14.324
58099W        W21658   7.351  22.014  13.053
58100W        W21659   2.848   5.437   2.229
58101W        W21660  22.161   4.812   3.703
58102W        W21661   4.282  24.009  11.011
58103W        W21662  20.584   6.348  12.389
58104W        W21663  38.464  39.851   4.259
58105W        W21664  22.252  33.474  13.862
58106W        W21665   9.287  35.073   4.327
58107W        W21666   2.766  40.373   1.882
58108W        W21667  14.178  11.360  11.030
58109W        W21668   4.914  31.910   2.867
58110W        W21669  16.112  25.084   3.152
58111W        W21670  15.745   9.845   1.293
58112W        W21671  22.683  32.453  12.845
58113W        W21672  25.972  24.612  13.802
58114W        W21673   6.702  18.763  13.472
58115W        W21674  17.141  35.564  10.993
58116W        W21675  14.718  13.338  14.985
58117W        W21676  39.501   5.333   4.295
58118W        W21677   7.172  30.439  13.547
58119W        W21678  16.193  40.443   0.419
58120W        W21679   6.286  21.181  12.530
58121W        W21680   1.269  26.180  14.327
58122W        W21681  17.218  19.271  13.904
58123W        W21682  41.363  35.000  12.937
58124W        W21683   7.825  24.016   1.443
58125W        W21684  31.984  26.115  12.357
58126W        W21685  41.471  22.530   4.737
58127W        W21686  25.111  39.430  12.508
58128W        W21687  11.841   7.352  12.915
58129W        W21688  33.982   2.834  14.408
58130W        W21689  42.889  35.374   2.679
58131W        W21690   2.371  28.037  12.415
58132W        W21691  21.036  33.895   0.354
58133W        W21692  36.991  31.900   4.711
58134W        W21693  33.551  43.296  12.956
58135W        W21694   3.404  32.995   1.801
58136W        W21695   4.215  19.149  10.952
58137W        W21696  27.590  30.609  14.858
58138W        W21697  37.344  20.573  13.373
58139W        W21698  28.998  15.195   4.771
58140W        W21699   1.754  39.425  13.464
58141W        W21700   8.845   2.814  12.394
58142W        W21701   5.783  24.025   1.877
58143W        W21702  13.150  10.307   4.833
58144W        W21703  24.136  39.402   2.745
58145W        W21704  40.324   4.916  14.880
58146W        W21705  15.667   2.887  12.565
58147W        W21706  32.915  19.753  11.557
58148W        W21707  13.747  28.473   4.190
58149W        W21708  25.992   2.250  12.851
58150W        W21709  44.758  34.950  14.345
58151W        W21710  14.810  14.649  12.020
58152W        W21711  33.494  15.623   2.220
58153W        W21712   9.270  16.081   2.891
58154W        W21713  36.850  40.334  12.896
58155W        W21714   8.202  18.080  11.908
58156W        W21715  44.476  32.539   2.403
58157W        W21716  38.876  32.419  12.079
58158W        W21717  41.788  32.090   9.930
58159W        W21718  38.896  37.457   4.254
58160W        W21719  17.188  12.292   2.231
58161W        W21720  28.468   4.293   2.416
58162W        W21721   1.810  35.588   0.388
58163W        W21722  30.565  37.048   4.667
58164W        W21723  13.270  33.002   2.813
58165W        W21724  22.581  13.258  11.918
58166W        W21725  35.595  13.800   2.692
58167W        W21726  29.135  25.487  13.058
58168W        W21727  41.362  26.168   1.831
58169W        W21728   6.794  32.129   0.280
58170W        W21729   1.972  16.615  11.433
58171W        W21730  37.494  25.134   0.848
58172W        W21731  19.773  21.114  10.464
58173W        W21732   8.312   0.849  12.904
58174W        W21733  12.798  14.243   3.288
58175W        W21734  17.168  23.175   0.846
58176W        W21735  29.156  32.415   4.824
58177W        W21736  14.135  11.812  10.526
58178W        W21737  21.187  30.518   3.815
58179W        W21738  20.710  41.293  10.962
58180W        W21739  24.225  38.339   0.902
58181W        W21740  16.622  35.954  14.916
58182W        W21741  31.942  25.553   2.189
58183W        W21742  28.538  41.954  13.495
58184W        W21743  28.016  27.094   3.356
58185W        W21744  43.992  12.238   4.686
58186W        W21745  43.957  31.553   2.725
58187W        W21746  27.130  16.258  12.450
58188W        W21747  39.833  38.977   0.788
58189W        W21748  43.980  43.427   3.220
58190W        W21749   0.341  32.582   4.831
58191W        W21750  16.613  17.620  12.900
58192W        W21751   4.786   4.707  11.091
58193W        W21752  30.538  22.057  13.802
58194W        W21753  32.066  36.019  14.793
58195W        W21754   9.672  43.475  11.475
58196W        W21755  38.394  26.095  10.916
58197W        W21756  27.156  21.592  11.494
58198W        W21757   3.905  11.356   4.249
58199W        W21758   7.232  16.126  14.331
58200W        W21759   2.256  43.813   2.254
58201W        W21760   6.676  27.140  14.510
58202W        W21761   4.903  28.632  10.427
58203W        W21762  30.429   7.850  13.929
58204W        W21763  21.252  20.663   3.719
58205W        W21764  44.443  24.223  11.058
58206W        W21765  42.000  38.055  12.438
58207W        W21766  20.747  43.313  14.422
58208W        W21767   3.797  44.451  14.376
58209W        W21768   4.792  25.122   3.368
58210W        W21769   6.275  31.925   3.245
58211W        W21770  41.332   4.900   1.709
58212W        W21771  41.452   7.248  10.557
58213W        W21772  25.047  29.431   2.836
58214W        W21773  15.660  21.708   0.851
58215W        W21774  40.951   3.331  10.965
58216W        W21775  17.193  17.608  13.358
58217W        W21776   1.447  12.294   4.237
58218W        W21777  23.205  21.163   2.287
58219W        W21778  40.017  17.135  10.511
58220W        W21779   5.931  31.918  13.956
58221W        W21780  20.734  22.509  12.916
58222W        W21781  26.590  14.796  14.482
58223W        W21782  22.017  11.145  10.600
58224W        W21783   5.238  41.008  11.598
58225W        W21784   8.680  33.979   0.913
58226W        W21785  20.265  29.132   4.325
58227W        W21786   2.256   5.880   0.465
58228W        W21787  27.069  27.028   0.255
58229W        W21788  11.313  14.163  14.368
58230W        W21789  11.791  12.230  14.028
58231W        W21790   5.897  16.657  11.603
58232W        W21791  23.560  18.247   2.706
58233W        W21792  25.589  30.040  13.882
58234W        W21793  38.533   8.896   0.456
58235W        W21794  27.631   8.251   0.467
58236W        W21795  21.524  29.175  12.088
58237W        W21796  10.768  28.665   3.230
58238W        W21797  40.511  13.215  13.524
58239W        W21798  18.562   7.219  12.091
58240W        W21799  11.312  29.547   3.746
58241W        W21800  14.620   2.284   2.374
58242W        W21801  40.976   5.848   4.294
58243W        W21802  22.550  10.722  12.903
58244W        W21803  43.281  42.471  10.908
58245W        W21804  18.255  23.650   0.810
58246W        W21805  26.688  32.997  13.437
58247W        W21806  39.871  16.089  11.930
58248W        W21807   1.390  18.254  14.490
58249W        W21808  33.993  29.920  11.894
58250W        W21809  11.238  28.171   3.637
58251W        W21810  24.717  10.787   1.813
58252W        W21811  10.286  33.032  12.962
58253W        W21812  29.052   1.896  11.596
58254W        W21813  33.525   4.799   2.754
58255W        W21814   7.342   7.213  14.013
58256W        W21815   0.887   3.328   2.194
58257W        W21816  13.274  39.832  12.342
58258W        W21817  20.274  42.991  12.434
58259W        W21818  25.631  33.893  10.472
58260W        W21819   2.748  14.125  11.458
58261W        W21820  23.588  18.654   1.929
58262W        W21821  14.633  34.051   2.791
58263W        W21822   1.360   9.345  14.401
58264W        W21823   6.745   1.413  14.900
58265W        W21824   4.907  43.340  13.445
58266W        W21825  16.691  43.505   1.302
58267W        W21826  35.525  41.037  12.388
58268W        W21827  26.519  15.284   4.324
58269W        W21828  16.262  41.439   3.267
58270W        W21829  33.951  24.607   2.196
58271W        W21830  29.973   7.172   3.708
58272W        W21831  26.478  33.100   1.869
58273W        W21832  25.996  13.221   4.206
58274W        W21833   1.299   9.360  14.023
58275W        W21834  31.034  31.636  10.524
58276W        W21835   6.908  10.343   0.824
58277W        W21836   4.804  34.049  14.299
58278W        W21837  21.254  20.167  14.025
58279W        W21838   2.400  34.102  14.905
58280W        W21839   2.460  21.143  14.514
58281W        W21840  19.597  29.056   1.791
58282W        W21841   7.696  43.310   3.285
58283W        W21842  43.461  32.513  11.915
58284W        W21843  39.871   6.792   2.300
58285W        W21844   7.855  28.118  11.949
58286W        W21845  34.024  41.916   0.455
58287W        W21846  22.156   3.255  12.386
58288W        W21847  19.080   7.380  13.023
58289W        W21848  33.107  10.835   4.597
58290W        W21849  12.713  22.206  11.864
58291W        W21850  25.972  25.100  10.972
58292W        W21851  25.505  28.148  11.960
58293W        W21852   2.254   6.697  12.431
58294W        W21853  42.411  22.125   3.282
58295W        W21854  42.856  32.950   1.445
58296W        W21855   4.346  21.048   3.846
58297W        W21856  22.036  33.956   0.296
58298W        W21857   0.946  14.278  11.928
58299W        W21858   6.230  35.588   1.217
58300W        W21859  41.457  20.262   4.736
58301W        W21860  34.500  12.726   1.809
58302W        W21861  29.447  38.434  11.050
58303W        W21862  19.755  39.363  14.464
58304W        W21863   5.331  25.550   3.354
58305W        W21864  41.984  44.975   4.312
58306W        W21865  37.437   0.826   2.397
58307W        W21866  40.973  19.555   1.381
58308W        W21867  20.583  33.094  10.545
58309W        W21868  36.590  12.638  11.092
58310W        W21869   2.753   4.249  14.301
58311W        W21870  11.695  27.551  13.925
58312W        W21871  26.701  18.231   1.307
58313W        W21872  36.464  28.487   2.311
58314W        W21873  18.290  23.227   2.186
58315W        W21874  43.967   5.864  11.124
58316W        W21875  20.162  25.205   1.211
58317W        W21876  32.633  21.257   0.242
58318W        W21877  13.769  28.653  14.398
58319W        W21878  33.033  32.479  12.060
58320W        W21879  32.449  35.489  10.622
58321W        W21880  10.197  38.402   2.268
58322W        W21881  40.924  10.221  11.918
58323W        W21882  33.585   1.385  13.059
58324W        W21883  30.065  25.624  14.927
58325W        W21884  13.783  28.949   0.743
58326W        W21885  22.607  29.933  13.394
58327W        W21886  42.907  16.252   4.762
58328W        W21887  12.172  15.178   1.411
58329W        W21888  13.239  21.031   2.737
58330W        W21889  44.840  14.254   4.138
58331W        W21890  28.560  16.109   0.787
58332W        W21891  35.898   8.186  11.067
58333W        W21892  20.672  18.738  12.483
58334W        W21893  39.358  22.030   1.728
58335W        W21894  42.960  26.686  13.461
58336W        W21895  18.231  24.046   4.201
58337W        W21896   0.447  24.618   4.663
58338W        W21897  37.957  12.246  11.521
58339W        W21898   4.285  17.587  12.378
58340W        W21899  26.023  39.885  14.314
58341W        W21900  10.219  25.623  12.093
58342W        W21901  14.650  29.941  10.537
58343W        W21902  44.411  40.385   1.933
58344W        W21903   0.917   2.341  11.406
58345W        W21904   7.382   5.771   4.777
58346W        W21905  30.544  22.014   0.838
58347W        W21906  34.530  14.613  12.974
58348W        W21907  20.707  38.972  11.972
58349W        W21908  19.591  32.018   5.319
58350W        W21909   0.269  31.995   1.746
58351W        W21910  18.752  26.970   1.732
58352W        W21911  17.797  29.137  12.095
58353W        W21912  32.037  39.453   3.199
58354W        W21913  21.551  25.592  12.452
58355W        W21914  36.494  30.070   0.354
58356W        W21915  21.075  43.839  11.936
58357W        W21916  40.318  12.327  14.322
58358W        W21917   5.197  10.278   4.783
58359W        W21918  11.865   6.739  10.131
58360W        W21919  14.339  27.186   0.772
58361W        W21920  15.734  27.002  12.483
58362W        W21921   8.893   9.657   2.749
58363W        W21922  13.765  15.272  11.881
58364W        W21923  29.568  28.003   3.815
58365W        W21924  19.663  14.647  11.446
58366W        W21925   0.751  36.520  13.056
58367W        W21926  19.054   9.191   0.326
58368W        W21927   3.742  14.719   4.693
58369W        W21928  38.967  26.683  12.415
58370W        W21929  36.465  36.052   5.086
58371W        W21930   7.322   9.198   2.320
58372W        W21931  23.020  31.637  11.490
58373W        W21932  40.855   7.805  12.921
58374W        W21933  28.460  43.870   4.231
58375W        W21934  44.491  30.990  14.959
58376W        W21935  33.076  29.531  13.051
58377W        W21936   5.387  12.806   3.811
58378W        W21937  26.628   3.888  14.984
58379W        W21938  34.496  20.718  11.941
58380W        W21939  42.469  11.665  12.993
58381W        W21940  28.961  41.329   0.337
58382W        W21941   5.251   2.342   0.852
58383W        W21942   4.906  20.239  10.101
58384W        W21943   3.430  10.828  12.090
58385W        W21944  42.468   9.838   2.782
58386W        W21945  17.076  27.960  13.884
58387W        W21946  22.591  32.997   0.953
58388W        W21947  25.187  24.033   0.467
58389W        W21948  18.274   6.195  12.942
58390W        W21949  34.401  33.980  13.487
58391W        W21950   5.243   4.837  14.006
58392W        W21951  24.984  42.800  11.989
58393W        W21952  35.375  35.553   2.191
58394W        W21953   0.475  21.711  12.850
58395W        W21954  13.704   7.277   2.861
58396W        W21955  44.784  18.113  10.591
58397W        W21956   5.725   9.350   3.767
58398W        W21957  36.383  15.599   2.394
58399W        W21958  26.674  38.068   4.268
58400W        W21959  44.305  31.901   1.261
58401W        W21960   9.302  27.596  14.005
58402W        W21961   7.900  15.150   3.750
58403W        W21962  13.217  41.522   2.791
58404W        W21963  35.109   2.419  11.504
58405W        W21964  22.706   8.857   0.958
58406W        W21965  16.804   2.960   0.958
58407W        W21966  25.555   1.924   2.903
58408W        W21967   1.470  30.127  14.785
58409W        W21968   6.742   6.398   3.735
58410W        W21969  20.762  29.027  13.001
58411W        W21970  14.106   7.912   3.822
58412W        W21971  39.384  22.583  14.799
58413W        W21972  23.161  24.479  11.603
58414W        W21973  21.146  34.392  14.323
58415W        W21974  14.604  30.529   1.758
58416W        W21975  11.205  19.128   4.632
58417W        W21976  31.528  26.122   3.331
58418W        W21977   9.867   2.902   4.335
58419W        W21978  22.743  14.258   2.790
58420W        W21979  30.091  17.603  10.579
58421W        W21980  26.607  40.852   4.213
58422W        W21981  28.063  35.518  10.509
58423W        W21982   3.822  35.996   3.735
58424W        W21983  35.463  23.605  11.556
58425W        W21984  26.056  35.933  14.485
58426W        W21985   4.922  10.156  13.809
58427W        W21986   4.925  36.070   4.118
58428W        W21987  32.130   2.787  10.598
58429W        W21988  20.545   8.830  12.383
58430W        W21989  28.477  33.534  13.792
58431W        W21990  40.530   0.275  12.570
58432W        W21991  21.708  13.260   3.867
58433W        W21992  33.052  41.800  14.418
58434W        W21993   5.288  21.071   4.308
58435W        W21994  39.956  14.303   2.728
58436W        W21995  41.891  44.426   4.803
58437W        W21996  17.198  30.926  10.419
58438W        W21997  35.379  17.607   4.115
58439W        W21998  34.873  35.511  10.898
58440W        W21999  20.600   2.243  11.438
58441W        W22000  21.087  20.242   4.146
58442W        W22001  38.876  26.582  12.836
58443W        W22002  19.235  21.196  14.361
58444W        W22003  23.631   6.276  11.524
58445W        W22004  38.388   5.261  11.919
58446W        W22005   0.394  32.532   0.378
58447W        W22006  13.791  24.006   3.672
58448W        W22007  10.215   4.274   1.706
58449W        W22008  21.066   5.768  13.502
58450W        W22009  25.631   2.919   0.774
58451W        W22010  10.207   3.391   0.958
58452W        W22011  36.471  38.536  11.605
58453W        W22012   7.763  34.415   2.888
58454W        W22013  28.510  17.645  11.029
58455W        W22014  40.457  15.670  11.439
58456W        W22015   9.813  15.609  12.835
58457W        W22016   0.815  31.021   1.315
58458W        W22017  41.862  40.048  14.276
58459W        W22018   4.744  40.425  11.899
58460W        W22019  44.307   5.771  13.992
58461W        W22020   1.954  18.102  11.486
58462W        W22021  35.953  34.923   4.245
58463W        W22022  31.601  18.291   1.867
58464W        W22023  30.623  24.672  13.473
58465W        W22024  28.598  20.228  11.934
58466W        W22025  27.527   6.798  11.596
58467W        W22026  13.301   2.948   2.819
58468W        W22027  36.589  12.669  11.440
58469W        W22028   0.437  11.705   4.821
58470W        W22029  28.975  22.557  12.455
58471W        W22030  12.727  18.186   4.199
58472W        W22031  43.949   7.779   0.349
58473W        W22032   9.647  36.526   2.380
58474W        W22033  36.393   8.337  12.978
58475W        W22034   8.726  16.785  11.094
58476W        W22035  23.041  27.114  11.372
58477W        W22036  42.855   5.325  13.541
58478W        W22037   6.380   3.739  14.399
58479W        W22038   8.889   0.488  13.946
58480W        W22039  24.147  40.454   0.825
58481W        W22040   9.227   9.352   4.134
58482W        W22041  29.510   6.283  12.860
58483W        W22042  13.684  14.672   4.701
58484W        W22043  44.983   8.800   2.294
58485W        W22044   4.415  18.132  12.982
58486W        W22045  29.572  10.378   0.273
58487W        W22046   6.895  30.513   5.147
58488W        W22047  34.895  35.471  12.535
58489W        W22048  41.004  24.111  14.505
58490W        W22049  27.094  16.158   2.186
58491W        W22050  39.322  15.280  13.005
58492W        W22051  12.803  10.673   0.817
58493W        W22052  21.514   4.358   1.741
58494W        W22053   9.745   0.931   2.673
58495W        W22054  37.882  11.817  10.143
58496W        W22055  13.334  17.290   2.793
58497W        W22056   2.454  15.254  13.511
58498W        W22057   4.291  26.997   1.274
58499W        W22058  30.142  33.431   2.334
58500W        W22059  31.021  10.724   3.342
58501W        W22060   9.841  41.468  11.394
58502W        W22061  20.051  37.897  10.565
58503W        W22062  32.039   3.829   1.831
58504W        W22063   4.754  21.730  13.307
58505W        W22064  42.844   1.370  13.466
58506W        W22065  37.833  41.828  13.409
58507W        W22066  13.641  36.960   2.846
58508W        W22067  13.293  44.328  11.378
58509W        W22068  19.062  40.948   4.224
58510W        W22069  35.105  12.665   0.909
58511W        W22070  41.392  40.942   2.890
58512W        W22071  42.800  31.026   3.342
58513W        W22072  20.137  32.095  13.822
58514W        W22073  12.319  26.572  11.899
58515W        W22074   3.244  26.630  12.450
58516W        W22075  21.149   1.335   2.733
58517W        W22076  34.425  10.821   0.410
58518W        W22077   9.393  11.693  11.008
58519W        W22078  35.457   2.726   4.815
58520W        W22079  12.709   0.276   4.231
58521W        W22080  11.739  14.132  13.410
58522W        W22081  20.038  26.525   2.818
58523W        W22082  31.482  14.771   4.274
58524W        W22083  23.140  34.118   1.321
58525W        W22084   4.355   8.207   0.332
58526W        W22085  41.901  22.700   3.828
58527W        W22086  39.518  15.089  10.926
58528W        W22087  28.533  31.569  14.837
58529W        W22088   5.899  12.227   3.647
58530W        W22089   7.852   1.375   2.691
58531W        W22090  32.009  32.127  12.886
58532W        W22091   0.439  15.814   0.910
58533W        W22092  28.939  26.139   4.123
58534W        W22093  13.709  30.446   4.621
58535W        W22094  43.000  11.278  13.517
58536W        W22095  23.070  38.008  14.915
58537W        W22096  25.692  18.778   3.797
58538W        W22097  22.742  18.053   9.948
58539W        W22098  20.138   9.881  12.493
58540W        W22099  23.132   3.951  13.836
58541W        W22100  16.073   0.833  10.452
58542W        W22101  33.578  19.668   2.235
58543W        W22102  40.001  21.603  10.606
58544W        W22103  12.675  11.272  13.537
58545W        W22104   3.359  15.639   4.816
58546W        W22105  29.631  17.632  10.410
58547W        W22106  14.225  27.139   1.920
58548W        W22107  35.492  39.915  14.012
58549W        W22108   4.899  38.444   0.807
58550W        W22109  19.697  33.013  12.882
58551W        W22110  22.249  15.179   1.336
58552W        W22111  31.636  22.677   3.238
58553W        W22112  29.573  33.918  11.525
58554W        W22113  13.241  32.042  14.458
58555W        W22114  24.129  12.837  12.513
58556W        W22115  14.628   5.318   3.823
58557W        W22116  27.548  34.414   0.734
58558W        W22117  13.618   4.843   4.243
58559W        W22118  13.232  11.134  13.456
58560W        W22119  35.978  42.843   3.151
58561W        W22120  21.026   8.841   1.842
58562W        W22121  31.571  23.569   2.193
58563W        W22122  41.955  10.313   0.779
58564W        W22123  37.937  26.026  12.908
58565W        W22124   3.281  39.899   2.801
58566W        W22125  30.493  34.376  13.465
58567W        W22126  22.235  19.219   4.812
58568W        W22127  29.545  20.580  10.980
58569W        W22128  23.205  16.237   2.247
58570W        W22129   5.814  13.124  10.554
58571W        W22130  32.093  44.786  13.796
58572W        W22131  39.911  39.857   3.314
58573W        W22132  20.644  27.636   3.730
58574W        W22133  18.146  10.258   3.381
58575W        W22134  12.147  28.049   3.256
58576W        W22135  42.467  23.171   3.237
58577W        W22136  42.828  13.269  10.976
58578W        W22137  33.463   5.305   3.316
58579W        W22138  24.720  18.752   4.313
58580W        W22139  33.978  21.636   4.318
58581W        W22140  12.623   4.364  10.634
58582W        W22141  23.544  31.147  12.833
58583W        W22142  38.376  42.426  13.855
58584W        W22143  19.092  39.480  11.455
58585W        W22144  31.935  18.665  13.975
58586W        W22145  13.795   6.396   4.243
58587W        W22146  28.951   2.834   3.842
58588W        W22147   4.843  38.968  11.450
58589W        W22148   0.945  19.577  12.040
58590W        W22149  36.496  20.050  13.995
58591W        W22150  26.651   2.747   2.355
58592W        W22151  34.547   8.862   0.865
58593W        W22152  28.549   0.773  11.547
58594W        W22153  44.958  11.695  10.144
58595W        W22154  39.839  28.076   4.646
58596W        W22155  21.146  33.131   4.162
58597W        W22156  31.090  22.732   4.739
58598W        W22157  30.509  36.580  11.966
58599W        W22158  15.125  25.528  14.965
58600W        W22159   1.882  42.844  14.463
58601W        W22160   2.807   4.922  11.391
58602W        W22161  19.129  44.975   4.822
58603W        W22162  38.439  31.527   2.675
58604W        W22163  43.477  39.997   3.258
58605W        W22164   4.383  25.992  14.491
58606W        W22165  43.328  15.166   2.187
58607W        W22166  30.615  38.008   2.209
58608W        W22167  23.069  44.803  11.861
58609W        W22168   1.264  39.025  13.352
58610W        W22169  11.280  13.714   1.379
58611W        W22170  26.578  32.538  11.034
58612W        W22171  22.111  24.693  12.984
58613W        W22172  29.056  39.058  12.520
58614W        W22173  16.758   1.402  12.423
58615W        W22174  43.446  31.635   1.765
58616W        W22175  11.799  32.538   1.429
58617W        W22176  23.022   5.760   2.671
58618W        W22177  30.576  10.169   1.337
58619W        W22178  18.790  27.517   3.858
58620W        W22179  25.110  28.018   1.887
58621W        W22180  21.161  42.861  10.981
58622W        W22181  42.883   2.426  13.448
58623W        W22182   5.234  37.957  11.505
58624W        W22183  30.577  16.739   1.880
58625W        W22184  34.878   5.778  10.119
58626W        W22185  15.314  11.643  10.597
58627W        W22186  33.968  37.485  10.971
58628W        W22187  29.113  38.411   4.113
58629W        W22188   9.149  21.631   0.963
58630W        W22189  25.184  16.110   1.926
58631W        W22190   5.369  22.206  11.037
58632W        W22191  16.160  25.639   2.796
58633W        W22192  36.968   4.385  11.110
58634W        W22193   3.265  24.021  14.958
58635W        W22194   6.232   8.800  13.320
58636W        W22195  20.645  10.146  13.383
58637W        W22196  29.996   1.285   4.114
58638W        W22197  17.738  31.563   2.336
58639W        W22198  43.968   0.920  14.767
58640W        W22199  30.034  25.520   1.352
58641W        W22200   1.461   9.161   2.813
58642W        W22201   9.688   7.173  14.845
58643W        W22202   7.205  40.866   2.683
58644W        W22203  24.688  14.787   1.263
58645W        W22204   5.877  24.631   0.427
58646W        W22205  39.325  33.994  12.011
58647W        W22206  24.644  28.087  13.470
58648W        W22207   9.314  43.976   1.291
58649W        W22208  13.302  44.398   4.250
58650W        W22209   6.896  25.118   4.775
58651W        W22210  14.237  13.156   4.277
58652W        W22211  20.668  32.494  11.523
58653W        W22212   3.247  24.633  10.979
58654W        W22213  39.337  32.994   0.381
58655W        W22214   4.304  36.870  13.439
58656W        W22215   7.262  39.385  11.959
58657W        W22216   2.414  30.047  10.489
58658W        W22217  38.036   9.373  11.015
58659W        W22218   8.365  33.461   4.143
58660W        W22219  13.645  10.816  12.526
58661W        W22220  12.782  30.067   0.955
58662W        W22221   3.921  37.895   3.714
58663W        W22222   0.429  32.940  10.915
58664W        W22223  35.476  11.816  13.345
58665W        W22224   9.295  26.669   0.251
58666W        W22225  31.087   6.250   4.125
58667W        W22226  42.853  33.005   4.690
58668W        W22227  37.468  11.326  11.050
58669W        W22228  42.960  16.723  12.890
58670W        W22229  33.094   2.852  14.997
58671W        W22230  19.675   1.454   2.716
58672W        W22231  23.546   3.814   2.283
58673W        W22232  42.372   2.450  14.309
58674W        W22233  32.099  10.822   3.693
58675W        W22234  27.944  13.160  11.442
58676W        W22235  15.736  29.137   4.226
58677W        W22236  10.171  17.622   5.151
58678W        W22237   3.713  22.034   1.897
58679W        W22238   1.243  16.196  10.502
58680W        W22239  36.478  42.320  14.029
58681W        W22240  31.936   5.808   2.790
58682W        W22241   6.708  38.880  13.360
58683W        W22242  38.026  14.631  13.010
58684W        W22243  32.525  38.371   3.381
58685W        W22244  19.768   2.828  11.455
58686W        W22245  11.329  44.498   0.371
58687W        W22246  36.889   3.397   2.694
58688W        W22247   5.892   4.906  13.859
58689W        W22248  11.173  42.865  12.013
58690W        W22249  35.588  22.114   0.852
58691W        W22250  41.507  21.624   3.778
58692W        W22251  17.796   2.906   3.147
58693W        W22252  25.645   2.433  13.317
58694W        W22253   8.402  39.929  12.884
58695W        W22254  21.222  18.217  11.417
58696W        W22255   6.185  12.808  13.365
58697W        W22256  30.562  39.330  14.403
58698W        W22257  12.714   1.351   2.700
58699W        W22258  12.694  27.977   0.910
58700W        W22259   3.329  12.213   4.776
58701W        W22260  25.489   9.330  10.969
58702W        W22261  26.529  16.628   0.834
58703W        W22262  28.007  43.793  11.383
58704W        W22263  12.235   6.254   3.166
58705W        W22264  39.399  27.973   2.212
58706W        W22265   3.760  42.841  14.929
58707W        W22266   1.327  33.111   4.176
58708W        W22267  12.291   3.806   2.744
58709W        W22268   1.971   6.312   2.821
58710W        W22269  31.089  42.824  13.407
58711W        W22270  30.949  37.068  13.905
58712W        W22271  15.298   6.306  10.517
58713W        W22272  29.083  34.595   4.714
58714W        W22273  29.613  17.610  12.944
58715W        W22274  39.490   0.315  11.427
58716W        W22275  34.003   7.343   1.809
58717W        W22276  34.078  37.521  11.591
58718W        W22277  29.016   9.335   0.371
58719W        W22278  10.771  19.634   3.373
58720W        W22279   3.841  39.401   2.778
58721W        W22280  37.517   7.352  12.005
58722W        W22281  29.528  42.784   4.663
58723W        W22282  33.083  30.029  14.874
58724W        W22283  15.688  11.670   1.325
58725W        W22284  22.230  24.493  10.590
58726W        W22285  34.454   8.839   3.663
58727W        W22286   2.266  10.828  13.956
58728W        W22287   8.260  14.732   1.718
58729W        W22288  37.994  30.445   5.255
58730W        W22289  22.008  16.616  14.886
58731W        W22290  36.036  27.605  13.428
58732W        W22291  12.774  26.195   1.869
58733W        W22292  12.819  17.104   2.274
58734W        W22293   9.735  41.514   2.266
58735W        W22294  20.732  26.013  11.038
58736W        W22295  24.112  12.856  14.904
58737W        W22296  30.011  41.796  12.555
58738W        W22297  27.547   1.865   2.241
58739W        W22298  11.151  10.812  11.008
58740W        W22299  36.547  21.738   4.175
58741W        W22300  13.327  10.773  12.063
58742W        W22301  11.695  40.991  12.366
58743W        W22302  34.098   3.726   2.676
58744W        W22303  18.129  40.346  14.838
58745W        W22304  10.770  18.677   1.217
58746W        W22305  38.485   0.447  14.508
58747W        W22306  35.020  42.421  12.483
58748W        W22307   8.333  39.064  14.319
58749W        W22308  11.824  16.079   3.362
58750W        W22309  21.062   5.738   2.243
58751W        W22310  25.491  15.822  14.829
58752W        W22311  26.115  39.836   1.886
58753W        W22312  12.776  11.365   4.149
58754W        W22313  39.988  32.595   4.603
58755W        W22314  29.044  13.131  11.380
58756W        W22315  32.450  34.466  10.531
58757W        W22316   3.830  41.392  13.448
58758W        W22317  37.561   0.943  12.371
58759W        W22318  22.051  44.328  12.979
58760W        W22319  16.250  28.996   0.843
58761W        W22320  23.540  21.579   4.701
58762W        W22321  27.457  34.414   0.475
58763W        W22322  31.963  12.222  13.407
58764W        W22323  35.101  15.096   0.829
58765W        W22324  20.716  18.212   2.846
58766W        W22325  38.554   8.218   0.778
58767W        W22326  35.917  39.412  12.080
58768W        W22327  10.750  10.193  12.895
58769W        W22328  38.982  13.238  14.509
58770W        W22329  39.357  20.055  13.329
58771W        W22330   1.351  30.562   0.933
58772W        W22331   5.336  34.107  10.897
58773W        W22332  24.130  18.127   0.435
58774W        W22333  39.513  26.111   4.179
58775W        W22334  29.531   0.959  10.420
58776W        W22335  39.887   6.276  14.960
58777W        W22336   9.299  15.229   0.805
58778W        W22337  19.280  11.622   3.155
58779W        W22338  21.188   1.828   3.256
58780W        W22339  11.684  35.941  12.376
58781W        W22340  36.961  30.953  13.887
58782W        W22341  43.780  34.477   2.314
58783W        W22342  33.931  14.831  12.852
58784W        W22343   3.215   7.792  12.833
58785W        W22344   5.826  36.461   1.833
58786W        W22345  44.461  27.116   2.249
58787W        W22346  18.584  39.331  14.927
58788W        W22347  24.529   2.307  10.894
58789W        W22348  22.999  14.312  10.948
58790W        W22349  11.251  12.157  11.998
58791W        W22350  21.185   5.221   2.797
58792W        W22351  23.147  37.428  10.948
58793W        W22352  19.076  38.831  14.919
58794W        W22353   7.908  30.586   3.793
58795W        W22354   1.275  41.343   1.866
58796W        W22355  28.168  37.377  12.528
58797W        W22356  42.454  35.473  14.411
58798W        W22357  31.422   4.266  11.468
58799W        W22358  44.369  32.900   2.781
58800W        W22359  25.616  33.984  14.385
58801W        W22360  32.923  19.251   3.715
58802W        W22361  28.075  29.497   2.763
58803W        W22362  20.090  36.559   0.276
58804W        W22363  27.955  32.481  14.952
58805W        W22364  30.502  17.750   2.694
58806W        W22365  38.076  13.174   3.679
58807W        W22366  20.122   5.719   4.181
58808W        W22367  30.090  31.078   1.337
58809W        W22368  41.826  42.433   1.861
58810W        W22369  12.697  20.251   4.237
58811W        W22370   2.341  17.625   2.899
58812W        W22371  38.448  38.910  12.865
58813W        W22372   8.813  14.786   5.139
58814W        W22373   4.930  40.446  12.957
58815W        W22374  22.239  14.339   3.718
58816W        W22375  42.493  42.008  12.340
58817W        W22376  17.792  26.563   3.243
58818W        W22377  18.111  37.417   3.174
58819W        W22378  19.667  34.976  10.619
58820W        W22379  20.125  23.607  13.967
58821W        W22380  38.920  13.746  13.504
58822W        W22381   5.304   1.443  12.031
58823W        W22382  22.563  24.988   3.871
58824W        W22383  42.366  10.344  12.882
58825W        W22384  39.840   7.709   0.937
58826W        W22385   4.241  36.022  11.979
58827W        W22386  26.016  28.480   1.291
58828W        W22387  42.419  18.186   0.288
58829W        W22388  32.895  18.779   1.276
58830W        W22389  12.640   0.444  10.489
58831W        W22390  35.868  18.684  10.475
58832W        W22391   9.252  20.186   3.756
58833W        W22392   8.676  31.648  11.460
58834W        W22393  17.093  32.128  10.419
58835W        W22394  37.405  31.982   0.294
58836W        W22395  21.528  33.551   2.296
58837W        W22396  23.232  44.299  14.502
58838W        W22397  38.561   9.348  10.549
58839W        W22398  32.069   8.830   1.345
58840W        W22399  28.959  20.107   1.320
58841W        W22400  25.685  37.943   0.730
58842W        W22401   9.252  35.021  12.898
58843W        W22402  24.496  23.571   3.791
58844W        W22403   2.915  24.588   3.807
58845W        W22404   5.218   4.309  10.904
58846W        W22405  13.609  13.734   2.692
58847W        W22406  17.714  20.613   3.680
58848W        W22407  32.100  16.623   3.704
58849W        W22408   8.291  26.079  11.907
58850W        W22409  15.179   3.220  14.835
58851W        W22410  36.099  31.901  13.003
58852W        W22411  44.946  38.551   1.860
58853W        W22412  19.227  38.869   3.224
58854W        W22413  40.460  13.271   3.148
58855W        W22414  27.160  37.955   1.717
58856W        W22415  43.990  22.553  11.436
58857W        W22416  40.870   3.416  12.539
58858W        W22417  24.674  33.474   1.328
58859W        W22418  27.617  43.279  14.869
58860W        W22419  18.106  33.108  12.497
58861W        W22420  26.029  14.828   3.329
58862W        W22421  11.712  23.230   0.769
58863W        W22422  38.403   9.278   1.703
58864W        W22423   7.363  32.942   0.419
58865W        W22424  19.069  43.847  13.004
58866W        W22425   9.731  23.525   0.402
58867W        W22426  30.480   8.694   2.677
58868W        W22427  36.083  17.242  11.076
58869W        W22428  29.482  26.153  12.357
58870W        W22429  32.630  34.049   4.625
58871W        W22430  38.951   6.745  14.028
58872W        W22431  18.116  20.207  11.926
58873W        W22432  26.121  34.514   3.208
58874W        W22433   4.380  20.703  10.619
58875W        W22434   8.179  29.146  12.409
58876W        W22435  40.050   3.807  10.952
58877W        W22436  37.906   5.796  14.830
58878W        W22437  38.379  19.105  10.631
58879W        W22438  13.688   9.877  10.532
58880W        W22439   9.701  41.322   1.339
58881W        W22440   7.216   4.260   4.158
58882W        W22441  41.820  40.929   4.819
58883W        W22442  23.634  15.119  14.897
58884W        W22443  15.270  10.744  14.776
58885W        W22444  32.122   4.708   1.873
58886W        W22445  20.048  17.672  14.318
58887W        W22446   7.859   9.733  10.443
58888W        W22447  33.479  30.936   0.353
58889W        W22448  11.198  10.835   0.904
58890W        W22449  41.884  10.811   2.256
58891W        W22450  22.229  23.537   1.838
58892W        W22451  38.406   1.406   2.813
58893W        W22452   3.258   3.371  10.114
58894W        W22453   0.808   5.802   1.338
58895W        W22454  34.407  10.671   3.800
58896W        W22455   5.719  27.563   1.851
58897W        W22456  13.628  22.731  12.476
58898W        W22457  26.044  34.956  13.406
58899W        W22458  44.305  10.681   5.141
58900W        W22459   8.874  18.179  11.606
58901W        W22460  32.030   6.266   4.318
58902W        W22461  18.088   4.400  11.473
58903W        W22462   0.806  33.490  12.487
58904W        W22463   6.845  26.091  10.457
58905W        W22464   5.421   4.822   2.216
58906W        W22465  12.767  21.151  13.526
58907W        W22466  24.203  26.994  12.865
58908W        W22467  44.969  27.165  12.548
58909W        W22468  16.773  39.816   0.806
58910W        W22469  28.458  10.865   4.660
58911W        W22470  11.697  17.184  14.495
58912W        W22471   3.279   4.912   1.797
58913W        W22472  14.268   9.677   4.260
58914W        W22473  26.700  42.007  13.827
58915W        W22474   2.966  40.010  11.530
58916W        W22475  27.159  10.670  13.832
58917W        W22476  12.744   0.402   3.720
58918W        W22477  25.487  32.977  11.577
58919W        W22478  32.004  27.953  14.791
58920W        W22479  24.152   5.247  12.400
58921W        W22480  34.398  25.666   0.798
58922W        W22481   2.959  29.975   4.269
58923W        W22482  40.436  34.900  11.985
58924W        W22483  38.530  23.559  10.566
58925W        W22484  31.616  22.069   3.835
58926W        W22485  36.417   5.237  12.907
58927W        W22486  30.651   3.742   4.763
58928W        W22487  31.961   7.251   1.794
58929W        W22488  26.193  11.829   4.240
58930W        W22489  17.198  40.803   0.946
58931W        W22490  33.608  35.095   1.222
58932W        W22491  35.998   7.730   0.872
58933W        W22492  17.641   2.808  10.536
58934W        W22493   8.795  33.095  10.024
58935W        W22494  36.524   8.668  14.786
58936W        W22495  10.838  35.437  13.800
58937W        W22496  43.785  43.956  13.975
58938W        W22497  27.197   9.864  13.505
58939W        W22498  27.605  30.512  12.418
58940W        W22499  23.653  17.715  14.457
58941W        W22500  18.738  44.446   0.964
58942W        W22501  19.104  35.019   1.833
58943W        W22502  33.465  23.043   0.261
58944W        W22503   5.900  36.569  11.452
58945W        W22504  10.784  19.681  13.995
58946W        W22505  33.565  32.590  13.906
58947W        W22506  15.589   3.733   1.874
58948W        W22507  34.030  28.654  10.579
58949W        W22508  19.536  37.371   2.771
58950W        W22509   5.200  10.315  14.502
58951W        W22510  33.105  19.208  14.024
58952W        W22511  13.754  14.689   3.693
58953W        W22512  24.073   1.779  12.566
58954W        W22513  36.086  30.129   0.937
58955W        W22514  39.041   7.179  13.348
58956W        W22515  29.624  21.061   4.123
58957W        W22516  26.637  25.601  12.342
58958W        W22517  26.087  36.931  14.808
58959W        W22518  37.443   4.894   0.734
58960W        W22519  40.831  13.667  14.860
58961W        W22520  10.833  29.032   2.270
58962W        W22521  21.597  14.246   0.401
58963W        W22522  22.537  20.669  11.518
58964W        W22523  27.173  28.563   4.653
58965W        W22524  30.525  30.563   4.789
58966W        W22525  43.882  27.129   3.832
58967W        W22526   2.259  20.271  11.584
58968W        W22527  32.979  10.379  12.856
58969W        W22528   9.845  32.969  14.280
58970W        W22529   1.379  18.147  13.991
58971W        W22530  28.651   6.715   1.861
58972W        W22531  32.073   0.857   4.601
58973W        W22532   8.835  37.970   2.283
58974W        W22533  43.802  31.003  10.938
58975W        W22534   7.855   5.415   2.670
58976W        W22535  22.035  24.650  10.894
58977W        W22536  19.709  17.079   4.245
58978W        W22537  39.443  30.025  11.417
58979W        W22538  38.987  34.554   3.665
58980W        W22539   5.265   1.335  14.782
58981W        W22540  38.911  26.984   2.329
58982W        W22541  20.196  11.352  10.929
58983W        W22542  23.086  34.565   1.417
58984W        W22543  28.560  23.220   4.167
58985W        W22544  26.982  11.166  11.998
58986W        W22545  21.644   5.903  13.505
58987W        W22546  18.548  35.423   2.896
58988W        W22547  25.643  23.538  11.044
58989W        W22548  34.582   3.307  11.518
58990W        W22549   9.176  41.996  12.513
58991W        W22550  24.122  32.003  10.553
58992W        W22551   1.733  31.970  14.983
58993W        W22552  15.224  39.019  10.522
58994W        W22553  13.267  17.136  11.570
58995W        W22554  20.622   2.280   1.875
58996W        W22555  13.680   7.682   2.336
58997W        W22556   3.781  13.831   3.385
58998W        W22557  11.350  36.400  10.476
58999W        W22558  16.308  19.271  11.981
59000W        W22559  11.196  20.663   4.189
59001W        W22560   7.395  39.419  10.480
59002W        W22561  15.584  44.346   4.183
59003W        W22562   6.869  32.601  14.327
59004W        W22563   8.729   0.823   4.152
59005W        W22564  24.724  16.604  13.384
59006W        W22565  42.886  30.056   3.298
59007W        W22566   5.382  37.550  11.560
59008W        W22567   4.833  29.078  14.025
59009W        W22568   2.435  42.836   4.686
59010W        W22569  10.239  39.063  14.294
59011W        W22570  11.730  37.943   5.584
59012W        W22571   5.873  41.459   1.811
59013W        W22572  32.592  12.352  14.992
59014W        W22573   5.279  17.657   3.864
59015W        W22574  23.538  23.670   3.749
59016W        W22575  12.138  13.345   9.483
59017W        W22576   7.724  35.012   3.755
59018W        W22577  34.437  31.944  14.030
59019W        W22578  37.030   5.919  11.982
59020W        W22579  21.254  13.263  10.531
59021W        W22580  27.593  38.944  11.883
59022W        W22581   3.394  17.128  11.055
59023W        W22582   8.396  44.773  14.466
59024W        W22583  23.581  21.247   3.748
59025W        W22584  17.089  36.580   2.261
59026W        W22585   0.879   2.274   0.822
59027W        W22586  16.157  35.905   5.312
59028W        W22587  22.560  17.133  11.563
59029W        W22588  20.566  23.170   0.376
59030W        W22589  23.000  16.179  14.010
59031W        W22590  29.075   5.221  12.406
59032W        W22591  19.768  31.607   0.244
59033W        W22592  16.790  12.344   1.905
59034W        W22593  13.674  30.574   1.816
59035W        W22594  26.207  37.563   3.266
59036W        W22595  10.218  28.652   1.833
59037W        W22596   6.879  18.201   2.197
59038W        W22597  27.189  41.876  13.501
59039W        W22598  30.051  30.596   0.349
59040W        W22599   5.309  23.503  13.455
59041W        W22600  23.008  37.935  14.374
59042W        W22601   7.668  34.462   3.221
59043W        W22602   6.700  21.137  11.494
59044W        W22603  27.959   7.704  12.896
59045W        W22604  17.771  37.839  13.441
59046W        W22605  13.140   7.688   2.416
59047W        W22606   0.263  44.969  11.520
59048W        W22607  27.178  16.662  13.375
59049W        W22608  26.094  42.378   4.273
59050W        W22609  35.581  29.030   3.334
59051W        W22610  43.373  41.018   2.365
59052W        W22611   9.359   2.379   0.918
59053W        W22612  24.060  29.451  14.990
59054W        W22613  21.564  22.675   4.717
59055W        W22614   0.491  12.346  13.887
59056W        W22615  37.367  26.480   1.251
59057W        W22616  16.625  39.424   0.324
59058W        W22617  31.982  28.067  13.471
59059W        W22618  44.308  21.654  12.367
59060W        W22619  16.197  27.104   3.799
59061W        W22620   5.342  37.448   2.682
59062W        W22621   2.424  29.067   1.825
59063W        W22622  28.485   1.815   1.881
59064W        W22623  31.099  38.871   1.870
59065W        W22624  44.486  32.592  10.951
59066W        W22625  32.992  12.352  10.157
59067W        W22626  21.206   0.349   4.621
59068W        W22627  10.198  28.072   3.348
59069W        W22628   1.928  14.820   0.808
59070W        W22629  39.892  18.702   2.865
59071W        W22630   9.800  36.473  11.459
59072W        W22631   1.376  34.532   2.799
59073W        W22632  34.947  44.966  11.429
59074W        W22633  14.233  24.478   2.758
59075W        W22634   2.440   3.354   0.957
59076W        W22635  12.673   0.754  11.944
59077W        W22636   0.249  22.129   2.339
59078W        W22637   3.791  33.934  12.070
59079W        W22638   6.897  27.616   2.414
59080W        W22639  25.093   8.167   3.164
59081W        W22640  14.630   0.831   2.856
59082W        W22641  23.506  28.136   2.378
59083W        W22642   8.371   6.780   2.890
59084W        W22643  14.735   7.276   1.847
59085W        W22644   3.861  44.989  10.896
59086W        W22645  15.288   4.735  11.513
59087W        W22646   8.899   1.793  13.453
59088W        W22647   8.710  44.496   2.748
59089W        W22648  30.976  10.186   2.870
59090W        W22649   3.815  26.983   4.133
59091W        W22650  34.539   5.858  13.409
59092W        W22651  36.006   7.317  12.561
59093W        W22652  44.424   5.744   1.443
59094W        W22653  44.944  15.621  12.959
59095W        W22654  15.247  40.980  14.488
59096W        W22655  12.688  42.810   4.624
59097W        W22656  21.574  21.027   3.258
59098W        W22657  26.537  25.027   5.265
59099W        W22658   4.913  43.889   4.223
59100W        W22659  40.303  44.285   2.386
59101W        W22660  17.090  42.859  10.137
59102W        W22661  38.533  34.431  14.923
59103W        W22662  22.616  14.135   3.364
59104W        W22663  26.085  26.597   3.355
59105W        W22664  26.080  33.010   4.720
59106W        W22665  28.574   0.343  13.821
59107W        W22666  18.668  30.961  13.361
59108W        W22667  10.166  38.971   5.269
59109W        W22668  10.305  42.893  12.435
59110W        W22669  31.570  17.265   1.366
59111W        W22670  38.038  24.676   0.928
59112W        W22671  24.141  18.611   5.212
59113W        W22672  30.075  33.578   0.349
59114W        W22673  29.088  23.026   4.142
59115W        W22674  11.132  16.725  11.876
59116W        W22675  17.103  26.694   0.255
59117W        W22676  29.079  20.266  13.485
59118W        W22677  28.117  23.634   3.149
59119W        W22678  34.944  35.970  10.409
59120W        W22679  13.724  24.076  11.069
59121W        W22680   0.400  21.534   1.225
59122W        W22681  38.344  25.616  13.452
59123W        W22682  26.952   6.342  10.526
59124W        W22683  41.456  30.441  13.799
59125W        W22684  33.948  43.951   3.327
59126W        W22685  44.981   5.841  14.292
59127W        W22686  27.169  32.097   0.252
59128W        W22687   3.360  19.196  11.384
59129W        W22688  11.334   0.421  14.898
59130W        W22689   8.225   9.759  12.032
59131W        W22690  24.632  16.278   4.220
59132W        W22691   1.740  26.100  10.891
59133W        W22692  42.016  33.404  10.553
59134W        W22693  19.557  19.649   4.212
59135W        W22694  40.845  35.515  12.429
59136W        W22695  11.856   0.249   2.383
59137W        W22696  40.892   5.860  12.369
59138W        W22697   1.961  22.054   1.382
59139W        W22698  39.949  33.113   0.306
59140W        W22699  29.602  31.049   0.337
59141W        W22700  10.768  11.289   4.620
59142W        W22701  18.117  33.944  14.290
59143W        W22702   6.747  38.979  11.933
59144W        W22703  17.557  42.405  11.933
59145W        W22704  22.547   6.895  10.478
59146W        W22705   9.745  34.103   2.825
59147W        W22706   7.220  34.494  12.063
59148W        W22707  32.575  14.110   5.091
59149W        W22708  21.570  14.651   1.871
59150W        W22709  12.699  28.937   3.265
59151W        W22710   7.795  28.668   1.718
59152W        W22711  10.184  15.129  12.966
59153W        W22712   5.219   2.269  13.443
59154W        W22713   2.961  35.511   4.264
59155W        W22714  37.495  33.036   2.206
59156W        W22715  34.007  20.658   2.706
59157W        W22716  40.349  42.402  11.952
59158W        W22717  12.799  41.471   3.156
59159W        W22718  44.895  12.311  14.988
59160W        W22719  42.476  19.236  12.524
59161W        W22720   6.205  29.429   4.220
59162W        W22721  12.268   0.847  11.125
59163W        W22722  29.449   7.845  13.949
59164W        W22723   3.946   0.781   1.390
59165W        W22724  34.088   1.453   1.848
59166W        W22725  19.167  21.746   2.786
59167W        W22726  37.343   7.387  13.436
59168W        W22727  44.283  43.509   3.270
59169W        W22728  10.701  26.686   3.195
59170W        W22729  14.333   5.718   1.724
59171W        W22730  15.644   8.334  11.066
59172W        W22731  39.321  24.650  13.542
59173W        W22732  26.090  37.358   3.833
59174W        W22733  41.405  36.381  11.410
59175W        W22734  14.299  27.998  10.579
59176W        W22735  22.694  23.670  12.476
59177W        W22736   2.274  13.269   2.310
59178W        W22737  38.517  24.642   3.707
59179W        W22738  31.634  35.104   1.331
59180W        W22739  43.404   0.743   2.819
59181W        W22740  14.624  42.883   2.684
59182W        W22741   2.875  23.697  14.801
59183W        W22742   3.249  29.105  12.437
59184W        W22743  21.208  15.711  12.514
59185W        W22744  16.800  10.745   1.295
59186W        W22745   8.840  18.205  14.288
59187W        W22746  32.978  44.980  11.385
59188W        W22747  16.665  31.648   1.788
59189W        W22748  10.218  19.600   9.955
59190W        W22749  21.199   2.745   4.641
59191W        W22750   1.420  23.239   0.795
59192W        W22751  13.816  11.753  14.907
59193W        W22752   3.379  13.808   2.287
59194W        W22753  28.055   9.874  12.397
59195W        W22754   1.794  24.220   4.705
59196W        W22755  28.668  21.705   3.211
59197W        W22756   7.327   3.235  14.414
59198W        W22757  42.500  35.586   2.855
59199W        W22758  25.675  31.947  13.033
59200W        W22759   4.377  13.831  14.839
59201W        W22760  27.604  26.188   2.333
59202W        W22761  15.737  38.407  12.939
59203W        W22762  37.476  34.401   9.995
59204W        W22763  38.511  27.183   2.830
59205W        W22764  22.728  37.967  14.489
59206W        W22765  10.164  29.049   2.685
59207W        W22766  39.879  10.289   3.863
59208W        W22767  24.177   0.751  14.291
59209W        W22768   8.378  41.862   2.832
59210W        W22769  17.212  18.694  11.517
59211W        W22770   6.346  44.450  14.277
59212W        W22771  22.742  24.989  10.061
59213W        W22772   6.310  36.087   0.913
59214W        W22773  21.037   8.275   1.754
59215W        W22774   8.324  44.401   4.327
59216W        W22775  13.126  22.103  12.940
59217W        W22776   6.767  42.342  13.944
59218W        W22777  35.084  25.610  12.385
59219W        W22778  33.034  22.503  14.902
59220W        W22779  24.203  17.688   2.837
59221W        W22780  37.023  15.293  12.414
59222W        W22781  27.141  17.645   1.265
59223W        W22782  27.112  42.525   4.806
59224W        W22783   4.411  21.587  14.292
59225W        W22784   2.424  36.537  12.519
59226W        W22785  41.351  30.001  10.621
59227W        W22786  26.042  27.081   0.445
59228W        W22787  16.758  24.647   0.918
59229W        W22788   2.802  18.207   2.190
59230W        W22789   1.932  39.986   0.921
59231W        W22790  19.733   9.335  11.607
59232W        W22791  37.864   2.777   3.665
59233W        W22792  41.508  13.832  13.057
59234W        W22793  17.285  12.121   4.609
59235W        W22794  13.605  26.519  12.982
59236W        W22795  13.773  14.609  11.911
59237W        W22796   7.873   7.892   2.183
59238W        W22797  17.133  20.076   0.454
59239W        W22798  41.490   9.828  11.560
59240W        W22799  36.569  36.052   1.435
59241W        W22800  40.537  21.758  14.393
59242W        W22801  21.591  20.591  12.415
59243W        W22802   7.203  16.198   4.800
59244W        W22803  11.811  33.061   2.282
59245W        W22804  42.990  20.706  13.482
59246W        W22805  37.524  36.976   3.774
59247W        W22806  10.379  11.188   4.238
59248W        W22807   3.383  37.051   0.455
59249W        W22808  16.802  23.191  10.513
59250W        W22809  28.022  40.969   2.669
59251W        W22810  14.192  35.495   0.890
59252W        W22811  20.162  29.628   1.907
59253W        W22812  33.879   5.230  11.532
59254W        W22813  30.046  40.393  11.006
59255W        W22814   0.322  40.463   1.916
59256W        W22815   7.413  34.590  11.061
59257W        W22816  31.447  23.989  11.389
59258W        W22817  13.111   5.705   5.089
59259W        W22818  23.678  20.604  14.824
59260W        W22819  22.168  15.105   2.812
59261W        W22820  31.941  28.067  11.017
59262W        W22821  33.612  16.635   1.907
59263W        W22822   2.246  35.060  13.064
59264W        W22823  38.932  33.966   0.466
59265W        W22824  26.641   2.762  14.931
59266W        W22825   7.814  18.566  11.918
59267W        W22826  43.297  42.932   2.395
59268W        W22827  26.007  38.535  13.947
59269W        W22828  22.714  22.108   4.671
59270W        W22829  18.227   7.340   0.844
59271W        W22830  26.672   0.773   0.812
59272W        W22831   5.207  24.120   0.287
59273W        W22832  23.622  20.545   3.671
59274W        W22833  17.686  15.134   4.282
59275W        W22834  13.778  22.087   0.731
59276W        W22835  23.203   6.356  12.466
59277W        W22836  10.284  29.440  13.544
59278W        W22837  31.004  14.630  13.906
59279W        W22838  19.723  28.082  12.910
59280W        W22839  27.194   7.351   0.306
59281W        W22840  10.141  16.676   1.396
59282W        W22841   7.909  21.758  13.363
59283W        W22842  18.144  31.905  10.627
59284W        W22843   8.868  19.536  12.995
59285W        W22844  42.998   6.319   0.930
59286W        W22845  14.144  39.442   1.371
59287W        W22846  24.569  12.752   5.120
59288W        W22847  13.123  30.612  14.837
59289W        W22848   8.714  39.516  12.413
59290W        W22849  31.001   5.867   1.359
59291W        W22850  28.616  12.829   2.250
59292W        W22851  29.974   6.237   4.627
59293W        W22852  34.867  27.169  12.391
59294W        W22853  24.648   3.790  12.872
59295W        W22854  11.696  31.502  14.991
59296W        W22855   9.373  33.625  14.433
59297W        W22856  31.435   0.945   0.867
59298W        W22857  26.652  12.279   1.924
59299W        W22858  33.117  27.188   4.783
59300W        W22859  25.477  12.639   2.809
59301W        W22860  21.240   2.402  12.988
59302W        W22861   8.398  22.635   2.672
59303W        W22862  27.580  12.738   1.697
59304W        W22863  16.193   6.808  11.485
59305W        W22864  34.988  29.664  13.507
59306W        W22865  41.965   0.342   4.162
59307W        W22866  44.986  43.853  10.551
59308W        W22867  11.282   8.757  11.395
59309W        W22868   4.707  32.932  10.934
59310W        W22869  12.289   3.837   2.236
59311W        W22870  16.100  36.534   2.706
59312W        W22871  37.972  28.994  11.564
59313W        W22872  39.025  37.455  12.578
59314W        W22873   0.318  37.910   4.258
59315W        W22874  11.837  29.945  10.540
59316W        W22875  13.686  25.991  11.958
59317W        W22876   6.228  20.763  14.435
59318W        W22877  13.683   3.395   3.294
59319W        W22878  25.568  26.686  10.147
59320W        W22879  33.049  37.534  13.897
59321W        W22880   3.843  17.578   0.326
59322W        W22881  37.366  28.167   0.419
59323W        W22882  26.649   6.703   2.401
59324W        W22883  37.578  21.684  13.313
59325W        W22884  36.949   6.780   1.433
59326W        W22885   6.369  24.694  11.943
59327W        W22886  28.579  30.656   3.321
59328W        W22887  33.388  34.565  12.530
59329W        W22888  37.017  20.196   2.298
59330W        W22889   8.209  36.972  11.068
59331W        W22890  28.070   5.212   0.243
59332W        W22891  15.687  27.489   0.265
59333W        W22892   5.288   5.323  11.120
59334W        W22893  30.132  36.877  10.939
59335W        W22894  44.366  33.915   4.817
59336W        W22895  10.856   5.740   3.157
59337W        W22896  26.605  33.084   1.445
59338W        W22897  17.736   5.793   2.241
59339W        W22898  19.773  44.908  14.965
59340W        W22899  23.523  32.445   4.691
59341W        W22900   4.421  19.123   3.154
59342W        W22901  19.237  33.427   0.726
59343W        W22902   1.346  37.071  11.122
59344W        W22903  26.113  29.666   2.189
59345W        W22904  30.108  30.091   0.728
59346W        W22905  44.425  20.175  11.885
59347W        W22906  21.199  25.013  13.836
59348W        W22907  28.448  31.544   2.354
59349W        W22908  26.049   7.296  10.946
59350W        W22909  19.131  26.651   1.218
59351W        W22910  31.539  23.625  14.328
59352W        W22911  31.457   4.743  12.093
59353W        W22912  13.111  35.877   4.631
59354W        W22913  10.747  33.467   2.732
59355W        W22914  11.242  19.699  14.925
59356W        W22915   1.305  19.744  11.452
59357W        W22916  21.081  32.465   3.265
59358W        W22917  13.271  22.235  13.321
59359W        W22918  16.279  44.776   1.786
59360W        W22919  11.867  36.396  10.547
59361W        W22920   4.329  13.625   0.817
59362W        W22921  38.892  44.415  12.515
59363W        W22922  25.145  38.955   4.611
59364W        W22923  34.972  37.063   3.841
59365W        W22924   8.370  12.643   9.591
59366W        W22925  13.714   2.728  13.314
59367W        W22926  22.553   8.272   0.347
59368W        W22927  17.778   4.776   0.409
59369W        W22928  16.079  12.810  11.017
59370W        W22929  37.559  12.222   0.482
59371W        W22930  43.420  12.121   3.175
59372W        W22931  27.538  32.040  11.510
59373W        W22932  43.832  31.130   4.295
59374W        W22933   1.815  25.157   0.311
59375W        W22934  17.729  33.530  12.521
59376W        W22935  40.465  22.568  11.570
59377W        W22936  24.513  37.565   3.358
59378W        W22937  14.596  41.840   4.806
59379W        W22938  44.923  10.845   1.272
59380W        W22939  43.925  27.664   2.322
59381W        W22940  20.151  44.484   4.293
59382W        W22941  13.641  20.042   1.231
59383W        W22942   8.361  17.584  14.796
59384W        W22943  13.716  12.267  13.443
59385W        W22944  28.515   6.288   1.235
59386W        W22945   3.895  27.059   1.335
59387W        W22946   3.946   3.275   1.400
59388W        W22947  39.966  16.612   2.689
59389W        W22948  19.701  42.352   2.272
59390W        W22949   1.328   6.267  11.594
59391W        W22950  16.196  30.643  14.327
59392W        W22951  33.108  28.595  12.499
59393W        W22952  42.856  37.535   1.930
59394W        W22953  12.357   8.733   1.442
59395W        W22954  13.278   4.428   1.891
59396W        W22955   3.741  44.943   4.748
59397W        W22956   4.779  39.866  10.915
59398W        W22957   3.403  37.388  10.897
59399W        W22958  12.356  12.312  12.021
59400W        W22959  40.991  23.083  12.434
59401W        W22960  24.189  17.596   4.767
59402W        W22961   5.689  16.755   4.193
59403W        W22962  35.077  39.948   0.313
59404W        W22963  37.933  43.913  14.328
59405W        W22964  41.312  41.303  10.439
59406W        W22965   0.763   3.756  14.962
59407W        W22966  25.206  28.986  13.983
59408W        W22967  28.617   3.422  10.901
59409W        W22968   7.672  33.474  14.777
59410W        W22969   4.358  32.899   0.852
59411W        W22970  28.017   2.949   2.365
59412W        W22971  23.505   6.854  13.997
59413W        W22972  28.622   7.865   2.896
59414W        W22973  36.591   9.170   0.961
59415W        W22974  30.030  37.025   4.213
59416W        W22975  29.546  21.039   4.728
59417W        W22976  16.807  20.594   1.333
59418W        W22977  40.810  12.692  12.870
59419W        W22978  12.318  16.742  10.575
59420W        W22979   8.770   1.888   4.653
59421W        W22980  44.276  22.699  12.013
59422W        W22981  18.208  28.477   4.347
59423W        W22982  14.167  15.817   4.323
59424W        W22983  12.655  41.944   4.144
59425W        W22984  24.509  37.542   3.683
59426W        W22985  25.120   8.793  12.829
59427W        W22986  12.785   4.332   2.793
59428W        W22987   5.370  37.443  11.856
59429W        W22988  17.202  15.205  13.373
59430W        W22989  42.291  17.657  13.954
59431W        W22990  29.554  41.841  12.477
59432W        W22991  38.355  44.908   0.775
59433W        W22992   5.933  12.677  12.930
59434W        W22993  18.126   1.818  12.958
59435W        W22994  33.004  21.740  12.063
59436W        W22995  26.672   2.356   5.135
59437W        W22996  17.764   7.802   3.316
59438W        W22997  16.721  30.095   0.480
59439W        W22998  21.254  11.770   2.291
59440W        W22999  39.983  12.211  13.376
59441W        W23000   4.781  35.066   3.331
59442W        W23001   7.700  33.084  11.583
59443W        W23002  24.153  30.925   0.308
59444W        W23003  21.601  15.183   3.299
59445W        W23004   6.234   5.275   1.770
59446W        W23005  36.482  37.532   5.297
59447W        W23006  38.504  39.827   3.353
59448W        W23007  37.993   3.825   0.355
59449W        W23008  24.667  16.750  12.499
59450W        W23009   8.367  10.239   2.206
59451W        W23010  24.070  30.605   1.343
59452W        W23011  42.394  18.256  12.417
59453W        W23012  37.354  36.549   0.329
59454W        W23013  32.563  43.402   1.393
59455W        W23014  10.329  10.284  14.979
59456W        W23015   4.914  10.720   4.310
59457W        W23016  22.562  38.916   3.750
59458W        W23017  30.466   7.770   2.677
59459W        W23018  39.022   6.307  10.533
59460W        W23019  44.960   9.214  14.829
59461W        W23020  41.458  35.472   1.757
59462W        W23021  35.052   6.416  11.449
59463W        W23022  36.869  16.214  13.319
59464W        W23023  12.280  17.754  12.081
59465W        W23024  18.661  29.536   2.769
59466W        W23025  18.185   3.276   0.842
59467W        W23026  44.991  13.213  14.792
59468W        W23027  34.018  38.332   5.122
59469W        W23028  17.722  17.779   1.342
59470W        W23029  40.014  40.439  12.436
59471W        W23030  27.489  42.328   3.224
59472W        W23031  23.032  17.123  10.600
59473W        W23032   7.760  14.227   0.427
59474W        W23033  44.487  37.370   4.352
59475W        W23034  43.386  32.909  11.025
59476W        W23035  28.124  32.539   0.933
59477W        W23036  10.757  37.900   1.803
59478W        W23037  36.970  18.557   0.776
59479W        W23038   7.912  43.780   1.303
59480W        W23039  15.194  13.261  12.890
59481W        W23040   5.246  38.500  14.978
59482W        W23041   4.439  13.299  13.980
59483W        W23042  42.860  39.832   4.650
59484W        W23043  17.199  37.341  11.438
59485W        W23044  12.624  33.115   3.237
59486W        W23045  12.267  36.883   5.125
59487W        W23046  24.100  14.826  12.358
59488W        W23047  35.389  43.982   2.786
59489W        W23048   5.268  32.040  14.862
59490W        W23049  18.773  14.773  14.349
59491W        W23050   7.785  29.571  11.486
59492W        W23051  31.593  40.549  12.370
59493W        W23052   0.871  31.599  14.842
59494W        W23053  30.153  18.716   2.242
59495W        W23054  21.097  39.982   0.353
59496W        W23055  43.370  32.015   2.415
59497W        W23056  13.331  24.722   2.809
59498W        W23057  12.253  42.462  12.531
59499W        W23058  20.558  23.012  11.002
59500W        W23059  12.853  14.102  11.060
59501W        W23060   6.207  15.665  13.039
59502W        W23061   2.427  40.390   5.267
59503W        W23062  42.492  33.898   4.611
59504W        W23063  44.834   6.679  14.486
59505W        W23064  35.918   3.882  13.054
59506W        W23065  38.381   3.790   4.761
59507W        W23066  23.123  17.253   0.737
59508W        W23067   6.326  32.937  10.427
59509W        W23068  26.617  24.133   5.744
59510W        W23069  17.176  13.716   3.812
59511W        W23070  33.933  21.741  14.878
59512W        W23071  19.197   4.903  12.372
59513W        W23072  39.508   3.310  14.919
59514W        W23073  20.246  15.156  12.950
59515W        W23074  22.733  36.096  12.487
59516W        W23075  44.478  28.640   3.715
59517W        W23076  17.786  10.692  12.368
59518W        W23077   4.712  23.020  10.537
59519W        W23078  30.944  22.247  11.101
59520W        W23079  18.661  42.300   0.330
59521W        W23080  13.315   2.372   1.871
59522W        W23081  33.065  40.345  14.514
59523W        W23082  35.974  40.535   4.674
59524W        W23083  32.009   3.348  10.028
59525W        W23084  41.966  30.962  13.959
59526W        W23085  18.633  41.468  10.107
59527W        W23086  35.976  31.077  11.067
59528W        W23087  37.954  33.887  14.773
59529W        W23088  19.713   3.817  14.937
59530W        W23089  28.578  22.592   2.807
59531W        W23090  35.398  29.109  12.880
59532W        W23091   1.464  28.961   1.714
59533W        W23092  25.592  29.088  12.357
59534W        W23093  41.450  40.887   3.346
59535W        W23094  32.399   0.271  10.919
59536W        W23095   7.900   3.749  11.868
59537W        W23096  12.300  39.033  11.954
59538W        W23097  36.495  34.026  11.387
59539W        W23098  27.174  40.876   4.807
59540W        W23099  27.951   9.285   3.786
59541W        W23100   8.235  43.928   0.855
59542W        W23101  28.009  30.028   4.179
59543W        W23102  35.538  44.957  10.511
59544W        W23103  41.864  16.222   3.838
59545W        W23104  34.074  23.625  14.484
59546W        W23105  35.049  17.787  10.459
59547W        W23106   5.306   3.315  13.056
59548W        W23107   5.838  29.969   1.322
59549W        W23108  13.806  37.377   5.281
59550W        W23109  11.335   8.873  12.519
59551W        W23110  32.101  33.611   0.287
59552W        W23111  30.582   8.806  10.495
59553W        W23112  30.007  38.566   9.933
59554W        W23113  23.683  43.432  13.899
59555W        W23114   3.282  11.829  12.033
59556W        W23115  32.092   8.656  10.633
59557W        W23116  21.616   0.981  14.878
59558W        W23117  33.483  29.121  11.991
59559W        W23118  11.707  34.520   2.839
59560W        W23119  15.326  40.816  12.913
59561W        W23120  36.419   6.312   0.780
59562W        W23121  34.409  10.365  12.532
59563W        W23122  33.402  20.144   4.156
59564W        W23123   1.453  14.687  13.979
59565W        W23124  31.898   1.807  10.447
59566W        W23125   6.198   8.245   0.772
59567W        W23126  13.769  28.530   1.420
59568W        W23127  35.402  42.805  13.954
59569W        W23128  21.535  40.465   3.289
59570W        W23129  40.446  21.142  11.457
59571W        W23130  10.325  22.563   2.419
59572W        W23131  17.213   8.753  11.605
59573W        W23132  32.005  41.365  13.521
59574W        W23133   8.771   3.233  10.055
59575W        W23134   4.450  27.680   2.889
59576W        W23135  27.001   2.227  13.062
59577W        W23136  13.703  10.196  12.376
59578W        W23137   8.719  20.564   2.403
59579W        W23138  33.910  44.773   2.762
59580W        W23139  37.380  39.934  10.949
59581W        W23140  27.560  20.236  12.914
59582W        W23141  33.450  23.008   3.738
59583W        W23142  34.093  19.235   2.356
59584W        W23143  43.381  13.602   1.708
59585W        W23144  38.844  16.136   1.806
59586W        W23145  11.365  32.030  10.018
59587W        W23146   7.772  39.409  11.969
59588W        W23147  17.226   1.897  11.127
59589W        W23148  30.560  35.541   0.317
59590W        W23149  21.738  14.632   4.297
59591W        W23150  41.793  12.828  12.363
59592W        W23151  32.458   4.787  13.407
59593W        W23152  36.493  14.824   4.748
59594W        W23153  26.076  10.143  14.471
59595W        W23154  28.641  32.916   1.268
59596W        W23155  17.176  33.456   3.233
59597W        W23156  37.983  18.661  11.996
59598W        W23157  14.704  19.097   4.792
59599W        W23158  43.957  13.751  12.980
59600W        W23159  36.997  39.483  13.019
59601W        W23160  40.387  42.399   4.235
59602W        W23161   3.216  43.784  12.363
59603W        W23162  28.561  11.788  14.793
59604W        W23163   8.322  18.095   0.247
59605W        W23164  18.575  39.918   3.223
59606W        W23165  11.694  27.191   0.790
59607W        W23166  32.892  20.173   1.440
59608W        W23167  37.540  12.122   3.868
59609W        W23168  35.962  15.601  14.386
59610W        W23169  23.107   1.866  13.835
59611W        W23170  37.377  36.393  11.046
59612W        W23171   1.738  29.008  13.059
59613W        W23172  34.937  13.137  13.344
59614W        W23173   2.472   0.276   3.253
59615W        W23174  30.086  23.195  13.991
59616W        W23175  35.063  33.497   0.268
59617W        W23176   6.912  14.224   2.828
59618W        W23177  42.782  16.156   2.340
59619W        W23178   5.761   3.253   4.733
59620W        W23179   9.793  13.815   0.746
59621W        W23180  37.085  29.442   4.183
59622W        W23181   5.278   8.178   2.209
59623W        W23182  20.717  16.147   2.343
59624W        W23183  27.025   1.454   3.286
59625W        W23184  39.937  43.414  14.893
59626W        W23185   9.158  41.500  13.418
59627W        W23186  29.096  44.905   3.210
59628W        W23187  33.078   3.739   2.833
59629W        W23188   8.748   8.798   0.358
59630W        W23189  39.979  38.339   1.334
59631W        W23190  23.056  33.906  12.451
59632W        W23191   6.360  28.991   4.765
59633W        W23192  32.583  24.557   1.696
59634W        W23193  14.288  35.466   3.331
59635W        W23194  40.954   0.484   1.892
59636W        W23195  16.075  21.087  14.514
59637W        W23196   7.793  12.234  13.333
59638W        W23197  40.916  13.304  12.509
59639W        W23198  17.563  29.582  12.944
59640W        W23199  29.594  17.171   3.847
59641W        W23200  34.515   1.928  11.913
59642W        W23201   6.740  40.540   2.731
59643W        W23202   5.357   1.836  12.369
59644W        W23203  13.249  36.348   4.319
59645W        W23204  27.131   3.271  12.978
59646W        W23205  41.423  43.383  14.815
59647W        W23206  20.748  21.681  11.564
59648W        W23207   4.343  41.472   3.679
59649W        W23208  38.878  41.397   3.708
59650W        W23209  21.116  23.993  12.852
59651W        W23210   2.295   0.863   1.362
59652W        W23211  43.914  20.633  12.836
59653W        W23212  29.558  15.265  13.864
59654W        W23213  24.212  42.887   2.783
59655W        W23214  22.542  35.057  10.104
59656W        W23215   3.218  26.979  12.929
59657W        W23216  12.724  32.905   2.793
59658W        W23217  42.860  29.659   4.752
59659W        W23218   0.828  35.411   3.248
59660W        W23219   4.220  33.525  10.479
59661W        W23220  16.745  17.104   0.865
59662W        W23221  39.884  28.494   4.631
59663W        W23222  31.066  41.870  10.954
59664W        W23223  43.347  17.282   4.196
59665W        W23224  17.067  28.662  14.826
59666W        W23225  33.516   1.785   1.298
59667W        W23226  33.966   5.278  10.905
59668W        W23227  44.474  18.212   3.252
59669W        W23228  38.038  11.173   3.235
59670W        W23229  35.963  23.611   0.402
59671W        W23230   8.164  30.415  14.873
59672W        W23231  35.502   6.876  12.086
59673W        W23232  43.864  21.756  12.426
59674W        W23233  26.199   0.901   3.771
59675W        W23234   6.802  39.859  14.288
59676W        W23235  26.119  17.096  14.386
59677W        W23236  26.096  12.638  14.332
59678W        W23237  23.611  44.492   2.195
59679W        W23238  43.914  25.962   3.691
59680W        W23239  13.192  23.566   3.328
59681W        W23240  20.687  15.616  11.048
59682W        W23241   3.889  18.250  11.885
59683W        W23242  23.187  18.220   0.261
59684W        W23243   3.448  42.521  12.026
59685W        W23244  10.333  43.995  13.034
59686W        W23245  25.550  36.071   3.710
59687W        W23246  20.057  22.156   3.317
59688W        W23247  11.242  20.193   1.731
59689W        W23248   6.396   1.254   4.636
59690W        W23249  44.837  14.241   1.398
59691W        W23250  10.332  22.580  13.959
59692W        W23251   0.887  20.265  10.572
59693W        W23252  43.918  30.989   1.276
59694W        W23253  30.991   8.859  12.995
59695W        W23254  32.410   4.768   4.329
59696W        W23255   6.255  12.357  10.529
59697W        W23256  31.527  39.813   1.410
59698W        W23257   1.896   0.476  13.795
59699W        W23258  35.485  36.447  12.978
59700W        W23259  14.160  26.089   5.088
59701W        W23260  20.043  24.191  12.993
59702W        W23261  42.486  26.492   2.261
59703W        W23262   6.348   3.278  12.395
59704W        W23263  23.048  17.725  11.124
59705W        W23264  37.026  17.720   0.930
59706W        W23265   0.756   2.809   0.824
59707W        W23266   1.441  39.428   3.149
59708W        W23267  21.606  39.933   4.784
59709W        W23268   7.747  18.104  14.350
59710W        W23269  20.590  26.630   2.338
59711W        W23270   2.446  40.852   3.814
59712W        W23271  19.538   1.868   0.251
59713W        W23272  18.256  23.718  12.063
59714W        W23273  21.627  15.631  13.949
59715W        W23274  24.056  12.208   0.378
59716W        W23275  42.969  21.662  12.426
59717W        W23276  40.983   2.954   4.203
59718W        W23277  15.667  18.209  12.371
59719W        W23278  15.112  11.225   0.431
59720W        W23279   7.384   8.704   3.840
59721W        W23280   4.279  43.368  13.517
59722W        W23281   5.230   3.319   3.293
59723W        W23282  43.413   6.209   0.345
59724W        W23283   5.859   5.367   0.342
59725W        W23284  16.253  29.518  11.977
59726W        W23285  20.665  44.816  11.083
59727W        W23286  22.203  30.029  11.524
59728W        W23287  38.327   1.922   3.703
59729W        W23288  19.661   6.255  13.053
59730W        W23289  40.817  35.515   4.177
59731W        W23290  31.504  23.581  11.890
59732W        W23291  31.121  23.556  14.285
59733W        W23292   0.329  14.337  12.862
59734W        W23293   4.732  35.073   1.797
59735W        W23294  15.172   1.398   3.371
59736W        W23295   9.789  38.533   0.420
59737W        W23296  36.410  43.846   1.756
59738W        W23297  13.151  39.007  11.574
59739W        W23298  28.115   0.330  10.633
59740W        W23299  32.543   8.389   3.383
59741W        W23300  44.316  37.547  10.133
59742W        W23301   9.781   0.887   2.346
59743W        W23302   8.672  19.625  13.479
59744W        W23303  23.138  13.228  12.507
59745W        W23304  25.600   3.386   5.187
59746W        W23305  36.967  30.060  12.095
59747W        W23306  15.202  10.689  13.992
59748W        W23307  21.557   3.415  11.079
59749W        W23308  40.867  15.224  12.930
59750W        W23309  28.153  13.685  11.883
59751W        W23310   9.883  26.669   2.889
59752W        W23311  15.683   1.369  13.875
59753W        W23312  43.888   0.949  10.889
59754W        W23313  30.466  19.263  11.557
59755W        W23314  24.978  18.062   3.385
59756W        W23315  36.568  27.087  13.414
59757W        W23316   5.718  19.536  14.918
59758W        W23317  31.516  42.962   2.668
59759W        W23318   8.870  21.685  14.824
59760W        W23319  24.508  24.227   0.927
59761W        W23320  42.827   6.719   4.711
59762W        W23321  10.802  32.133   1.374
59763W        W23322  34.948  34.425  13.983
59764W        W23323  26.066  41.896   3.195
59765W        W23324  11.836  14.104   0.944
59766W        W23325   6.359  19.226  13.382
59767W        W23326   7.199  38.531   3.801
59768W        W23327  37.031  30.571   2.375
59769W        W23328  30.563  27.142   1.935
59770W        W23329   1.767  29.119   2.717
59771W        W23330   2.239  10.359  12.065
59772W        W23331  10.726  19.559   0.832
59773W        W23332   0.359  22.068   2.879
59774W        W23333  40.410  36.563   2.713
59775W        W23334   5.199  36.937  12.449
59776W        W23335  20.620  14.312  13.805
59777W        W23336  36.472   8.823  12.479
59778W        W23337  23.204   9.678   9.949
59779W        W23338  33.029  23.188   2.747
59780W        W23339  37.071  12.193  13.469
59781W        W23340  36.052  22.193   0.317
59782W        W23341  22.068   5.314   2.258
59783W        W23342  41.495  16.219   3.201
59784W        W23343  16.628  28.612   4.684
59785W        W23344  44.479  12.127  12.894
59786W        W23345   0.815  20.190   0.896
59787W        W23346   2.773  21.249  12.082
59788W        W23347   9.801  26.075   3.182
59789W        W23348  23.189   1.252   2.880
59790W        W23349  26.529  18.125  12.431
59791W        W23350  11.353  28.971   4.146
59792W        W23351   0.348  37.531  11.963
59793W        W23352  21.719  30.511  11.978
59794W        W23353  39.929  14.768  12.874
59795W        W23354   9.182  34.427  11.558
59796W        W23355   1.971  44.994  11.924
59797W        W23356  20.205  22.117  13.041
59798W        W23357  36.857  18.276  14.342
59799W        W23358  22.597  26.568  14.872
59800W        W23359  31.135  25.187  14.920
59801W        W23360  18.118  42.319   4.268
59802W        W23361  15.200  18.106   2.314
59803W        W23362  19.201  26.609   4.208
59804W        W23363   5.728  25.085   0.869
59805W        W23364   8.873  10.140  12.444
59806W        W23365  43.409  10.788  11.966
59807W        W23366   4.423  43.907  12.992
59808W        W23367   2.398   3.266   3.685
59809W        W23368  37.565  13.134  12.364
59810W        W23369  43.351   6.414   4.793
59811W        W23370  23.228  15.688   3.304
59812W        W23371   0.957  42.990   3.312
59813W        W23372  44.003   6.367  10.443
59814W        W23373   0.808  30.597  10.483
59815W        W23374  25.202  22.188  13.891
59816W        W23375  18.612  17.742   3.685
59817W        W23376  20.755  24.183   0.768
59818W        W23377  41.400  11.151   4.713
59819W        W23378   5.226  40.422   4.294
59820W        W23379  32.400  21.704  12.489
59821W        W23380  43.941  37.400   4.672
59822W        W23381  19.090  16.136   0.313
59823W        W23382   7.714  42.500   1.311
59824W        W23383  18.723   8.280  13.348
59825W        W23384  29.033  26.690   4.298
59826W        W23385  16.134   2.817   1.287
59827W        W23386   5.809  37.421   4.242
59828W        W23387   5.709   2.849  12.920
59829W        W23388   5.759  35.062   2.666
59830W        W23389  37.960   6.777   0.947
59831W        W23390  25.581  14.205  13.328
59832W        W23391  32.889  26.624  13.481
59833W        W23392  10.319  10.724  14.772
59834W        W23393  38.979  12.648   4.265
59835W        W23394  19.271  23.492  11.609
59836W        W23395  23.564  16.081  10.467
59837W        W23396   6.248  19.780   2.811
59838W        W23397  21.518  40.446  13.940
59839W        W23398  14.660   5.820  13.979
59840W        W23399  30.044  36.369  14.893
59841W        W23400   1.885  29.497  12.875
59842W        W23401   9.763  12.843  12.436
59843W        W23402  19.267  10.193  12.956
59844W        W23403  39.359  26.083   4.738
59845W        W23404  25.592  12.273  14.394
59846W        W23405  31.908   5.248   3.681
59847W        W23406  40.370  26.553  14.350
59848W        W23407   5.821  39.336   1.392
59849W        W23408   9.280  31.008  12.013
59850W        W23409  44.870   7.267   2.190
59851W        W23410  22.092  34.999  13.839
59852W        W23411  29.038  36.025  12.044
59853W        W23412  20.262  26.633   2.188
59854W        W23413  19.595  33.119   0.925
59855W        W23414  30.071  22.526   1.774
59856W        W23415  42.517  29.581   1.236
59857W        W23416   3.335  33.416  14.818
59858W        W23417  32.981  25.610   2.677
59859W        W23418  37.577  26.702  12.946
59860W        W23419   3.803  17.742   3.871
59861W        W23420  44.758   7.276  14.845
59862W        W23421  20.038  17.302   0.768
59863W        W23422  21.643  29.582  13.990
59864W        W23423  12.180  19.626   0.842
59865W        W23424  40.523   2.354   4.276
59866W        W23425   2.778   3.385   1.448
59867W        W23426   2.430   8.338   1.377
59868W        W23427  43.841   9.392   0.296
59869W        W23428  35.903  43.365   3.179
59870W        W23429  44.771  44.784   2.900
59871W        W23430  39.500  14.310   0.892
59872W        W23431   9.711  29.656   3.267
59873W        W23432   1.278  23.995   0.363
59874W        W23433  16.083   1.802  12.513
59875W        W23434  14.140   7.402   1.695
59876W        W23435  38.545  28.586   2.343
59877W        W23436  19.187  44.757  10.996
59878W        W23437  11.677   0.337  11.076
59879W        W23438  40.849  35.466  14.834
59880W        W23439  14.244  32.056   1.218
59881W        W23440   5.251  33.446  11.501
59882W        W23441  15.682  17.667  13.802
59883W        W23442  44.453  24.111  12.432
59884W        W23443  21.136  14.309  11.536
59885W        W23444  40.420  18.672  12.000
59886W        W23445  16.632  28.669   4.313
59887W        W23446  38.492  10.148  13.530
59888W        W23447   0.287  44.870  10.916
59889W        W23448  21.688   1.768  14.307
59890W        W23449  16.812  22.628  11.581
59891W        W23450   0.834  16.771  12.352
59892W        W23451  36.855  14.651  11.903
59893W        W23452  11.316  26.054  10.514
59894W        W23453  31.019  14.207   2.809
59895W        W23454  30.518   6.822   3.147
59896W        W23455  30.622   6.680  12.049
59897W        W23456  35.533  35.474   3.358
59898W        W23457   0.829  43.803  13.042
59899W        W23458   1.325  39.834   4.149
59900W        W23459  19.640  37.052   2.327
59901W        W23460   8.258  10.175   2.730
59902W        W23461   5.929  43.957   0.746
59903W        W23462  43.312  18.063   0.942
59904W        W23463  29.958  20.744  12.894
59905W        W23464  17.266  25.079  14.396
59906W        W23465   5.420  19.619  14.341
59907W        W23466  17.169  16.294  14.793
59908W        W23467   6.356  44.912   2.201
59909W        W23468  41.537   8.833  14.990
59910W        W23469  29.532  21.176   1.272
59911W        W23470  44.473  21.605   2.276
59912W        W23471   8.203  32.414   2.820
59913W        W23472  36.042  32.411  11.046
59914W        W23473   4.341  31.515   0.357
59915W        W23474  16.231   0.797  11.129
59916W        W23475  11.765   2.921   2.246
59917W        W23476  10.754  31.598  14.810
59918W        W23477  34.530  30.116  10.405
59919W        W23478  39.488  12.619   2.771
59920W        W23479  15.694  25.528   0.781
59921W        W23480  12.749  40.474  10.971
59922W        W23481  40.409  29.971  14.773
59923W        W23482  22.624  37.349  13.527
59924W        W23483  32.501  38.331   9.927
59925W        W23484   6.812  15.104   4.126
59926W        W23485  30.145  26.561   0.764
59927W        W23486  40.845  24.125   4.121
59928W        W23487  24.012  14.612  10.508
59929W        W23488   4.853  15.173  13.347
59930W        W23489  35.859  14.667  14.342
59931W        W23490  18.250   2.822   4.802
59932W        W23491  21.518  24.645   1.749
59933W        W23492  14.695   1.864  13.027
59934W        W23493  21.124  38.895  10.605
59935W        W23494  41.419  27.153   2.279
59936W        W23495  23.159  43.861  12.972
59937W        W23496   1.455  43.888   0.897
59938W        W23497  31.576  11.271   1.396
59939W        W23498  38.382  10.241   0.904
59940W        W23499   1.369  17.700  13.047
59941W        W23500   8.887   4.728  12.911
59942W        W23501   4.355  27.486  13.004
59943W        W23502  33.907   6.220   0.337
59944W        W23503  33.058  10.712   4.249
59945W        W23504  20.662  43.996   0.784
59946W        W23505   5.276  23.032   0.799
59947W        W23506  11.261  35.428  12.380
59948W        W23507  39.918  30.042   4.816
59949W        W23508  22.068  33.589   2.887
59950W        W23509  23.584   7.853  14.325
59951W        W23510  30.923  20.087  13.515
59952W        W23511  29.665  18.115  12.375
59953W        W23512  19.551  22.135   9.975
59954W        W23513   8.881  13.166   2.334
59955W        W23514   9.878  22.226   3.769
59956W        W23515  42.508  37.465   4.794
59957W        W23516  29.102   4.252  10.451
59958W        W23517  12.250  21.684   0.924
59959W        W23518  28.631   6.366  11.587
59960W        W23519   3.288  17.187   2.849
59961W        W23520   2.908  27.685   2.720
59962W        W23521  40.507  17.802   3.810
59963W        W23522  43.396  24.008   0.367
59964W        W23523   4.358  33.455   0.434
59965W        W23524  31.010   7.816   3.380
59966W        W23525  39.495   7.764  11.610
59967W        W23526  13.248  39.997  10.601
59968W        W23527   5.375  10.768   3.724
59969W        W23528  14.251  31.041   1.332
59970W        W23529  41.397  18.727  13.360
59971W        W23530  16.096  17.702   0.386
59972W        W23531   9.750  43.912  13.828
59973W        W23532  21.572  26.170   3.757
59974W        W23533  23.718  29.607   1.397
59975W        W23534   1.443  15.168   4.350
59976W        W23535  42.830  19.214  11.104
59977W        W23536  29.024  42.414   3.630
59978W        W23537  31.415   4.807   3.744
59979W        W23538  30.989  25.602  13.991
59980W        W23539  12.793  17.145  11.110
59981W        W23540  43.927  14.103  13.032
59982W        W23541  43.451  28.641  12.966
59983W        W23542   9.818  12.293   0.834
59984W        W23543  27.573  40.487  12.038
59985W        W23544   5.894   7.731   3.288
59986W        W23545  23.529   9.671   3.766
59987W        W23546   9.215  16.276  14.440
59988W        W23547  28.445  28.941  10.494
59989W        W23548  11.290  17.139  11.978
59990W        W23549  22.711  30.585  10.910
59991W        W23550  17.208  12.856  11.976
59992W        W23551  44.331  30.023   4.668
59993W        W23552  12.295   0.950   3.830
59994W        W23553  16.574  21.553  13.372
59995W        W23554   6.884  25.698   3.293
59996W        W23555  16.746  31.074   1.841
59997W        W23556  42.378   2.898  11.416
59998W        W23557   0.256  34.898  12.534
59999W        W23558  13.281  14.178   2.715
60000W        W23559  44.925   4.751   0.420
60001W        W23560  18.733  29.623  14.954
60002W        W23561   4.324  23.543  14.416
60003W        W23562   6.759  35.947  13.382
60004W        W23563  21.524  24.691   0.764
60005W        W23564  22.173  37.902  11.525
60006W        W23565  34.903  15.705   0.298
60007W        W23566  34.978   5.713   3.246
60008W        W23567  13.180   7.331  12.433
60009W        W23568  19.612  40.347  12.893
60010W        W23569  27.595  41.991  12.384
60011W        W23570   6.746  43.305  13.445
60012W        W23571  13.713  32.994   2.354
60013W        W23572   4.749  13.186  11.943
60014W        W23573   9.384  31.552   4.739
60015W        W23574   9.337  25.593  11.377
60016W        W23575  14.304  35.897  14.456
60017W        W23576  15.276  30.031   4.300
60018W        W23577  31.416  39.331   1.318
60019W        W23578  26.529  31.061  11.481
60020W        W23579  18.751   4.903  12.407
60021W        W23580  33.089  30.523  12.955
60022W        W23581  37.505   3.349  14.288
60023W        W23582  32.090  35.447  13.516
60024W        W23583  43.944  37.501  12.526
60025W        W23584   8.282  10.652  13.945
60026W        W23585  10.666  40.307   4.214
60027W        W23586  14.210   4.356  14.276
60028W        W23587  42.823   1.298   3.292
60029W        W23588   7.691  42.902   2.879
60030W        W23589  13.677  39.349  13.806
60031W        W23590   2.733  11.147  11.459
60032W        W23591  19.657  22.620  11.390
60033W        W23592  11.244  30.951  12.009
60034W        W23593  22.173  17.180  13.907
60035W        W23594  22.183   5.800  13.959
60036W        W23595   5.742  20.219  11.521
60037W        W23596  16.690  21.167   0.952
60038W        W23597  31.926  35.865   3.205
60039W        W23598  35.956  21.232   1.726
60040W        W23599  36.541  37.876   4.224
60041W        W23600  37.410  32.072   9.641
60042W        W23601  39.987  29.010  14.280
60043W        W23602  21.035  43.342  12.010
60044W        W23603  44.359  10.317   2.672
60045W        W23604  17.064  26.952   0.376
60046W        W23605  41.009  10.225  10.956
60047W        W23606  40.542  30.109   2.730
60048W        W23607  19.251  33.953   1.332
60049W        W23608  20.548  28.604   1.799
60050W        W23609  32.078   9.271   3.172
60051W        W23610  14.261  22.136   5.279
60052W        W23611   8.682  32.955  12.912
60053W        W23612  22.590  27.650   2.766
60054W        W23613  36.531  12.640  14.998
60055W        W23614  11.701   3.724  10.424
60056W        W23615  12.308   4.935   0.779
60057W        W23616  39.531  22.161   3.325
60058W        W23617  22.567  30.978  14.500
60059W        W23618  11.660  22.195   4.279
60060W        W23619  23.512  26.128   4.627
60061W        W23620  11.193  16.083   2.334
60062W        W23621  42.386  43.882   1.809
60063W        W23622   9.890  22.136   0.433
60064W        W23623  35.081  24.193  10.634
60065W        W23624  36.552  33.098   3.386
60066W        W23625  36.564  23.195  12.950
60067W        W23626   9.318  16.779   3.651
60068W        W23627  25.023  31.145   4.247
60069W        W23628  29.067  26.001  12.001
60070W        W23629  23.501  22.619  10.161
60071W        W23630  26.956  11.352  12.357
60072W        W23631   1.842  26.045   4.149
60073W        W23632   0.915  41.340  13.018
60074W        W23633  42.903   4.212  13.543
60075W        W23634   1.974  42.294   0.821
60076W        W23635  43.315  28.619  14.782
60077W        W23636  44.429   7.402  11.952
60078W        W23637   3.461   0.751   2.355
60079W        W23638  15.087   7.338  13.869
60080W        W23639  28.451  31.550  11.033
60081W        W23640  34.100  14.740   4.297
60082W        W23641   2.909  27.129  13.391
60083W        W23642  16.659  25.625   3.261
60084W        W23643   0.367  12.822  11.562
60085W        W23644  11.783   5.264  14.994
60086W        W23645  22.647  11.231   0.872
60087W        W23646   6.328  17.587  12.442
60088W        W23647   2.412  35.969   2.785
60089W        W23648  15.191  36.859  14.485
60090W        W23649  32.137  38.927   2.822
60091W        W23650  41.885  14.322  14.891
60092W        W23651   9.759  40.425   0.381
60093W        W23652  39.350  29.569  14.428
60094W        W23653  40.441   5.826   4.241
60095W        W23654  17.714   8.759  12.934
60096W        W23655   6.319  37.579   2.184
60097W        W23656  22.614  27.159  14.972
60098W        W23657  14.784  18.606  11.982
60099W        W23658  37.026  36.421   2.873
60100W        W23659  16.799  39.876   3.795
60101W        W23660  31.134  33.607   1.701
60102W        W23661  38.062  27.462   3.653
60103W        W23662  19.580  12.320  10.588
60104W        W23663  10.153  41.369  14.937
60105W        W23664  36.532  19.252   1.822
60106W        W23665  36.033  17.766   1.382
60107W        W23666  36.892  33.590   2.350
60108W        W23667  16.177   6.914   2.781
60109W        W23668  10.684  32.056   3.833
60110W        W23669  23.494  35.598  11.513
60111W        W23670  24.581  21.668   0.384
60112W        W23671   6.387  33.027   3.660
60113W        W23672  44.394  19.208  13.881
60114W        W23673  38.423  24.131   2.331
60115W        W23674  34.952   1.762   4.781
60116W        W23675  32.989  20.123   2.750
60117W        W23676  33.481  28.160   0.728
60118W        W23677  43.376  36.864  12.516
60119W        W23678  28.141  37.030  13.334
60120W        W23679  40.945  13.700  13.973
60121W        W23680   1.458  33.931  14.435
60122W        W23681  22.016   6.367   2.829
60123W        W23682  13.707  10.366  12.013
60124W        W23683  24.519  34.890   3.224
60125W        W23684  34.929  35.496  11.935
60126W        W23685  35.069   2.306   3.738
60127W        W23686  20.230  26.536   1.287
60128W        W23687  32.984  34.013   2.283
60129W        W23688  17.285   3.232  12.546
60130W        W23689  16.117   9.677   1.915
60131W        W23690  34.095  12.359  14.312
60132W        W23691  19.149  41.840   3.318
60133W        W23692  43.329  14.773  13.368
60134W        W23693  35.860   8.284  10.469
60135W        W23694   4.432  43.871  14.449
60136W        W23695  25.035   2.771  13.464
60137W        W23696  41.502  14.177   0.816
60138W        W23697  12.228  37.513  10.434
60139W        W23698   7.342   6.711   4.784
60140W        W23699  40.431  15.198   1.448
60141W        W23700  44.962  31.078  11.582
60142W        W23701   1.243   6.695   4.661
60143W        W23702   8.350  33.045   4.641
60144W        W23703   8.748  24.139  14.474
60145W        W23704  17.672  38.077   0.954
60146W        W23705  43.508   8.889  13.805
60147W        W23706  35.981   2.470  14.979
60148W        W23707  21.201  39.042  13.793
60149W        W23708  43.375   3.360   3.289
60150W        W23709   5.387   9.650  13.018
60151W        W23710  11.270   5.780  13.318
60152W        W23711  14.624  30.498  13.960
60153W        W23712  20.165  26.595   5.181
60154W        W23713   0.921   8.756   1.770
60155W        W23714  35.094  19.582   5.235
60156W        W23715  32.546  26.048   1.722
60157W        W23716  21.165  22.098   3.165
60158W        W23717  26.004  42.450  11.074
60159W        W23718  38.422  39.899   1.788
60160W        W23719  33.057   4.729   4.238
60161W        W23720  14.622  44.863  11.609
60162W        W23721  30.551  21.107  14.357
60163W        W23722  41.325  19.181  12.964
60164W        W23723   1.807  42.993  11.514
60165W        W23724  17.660  18.294   0.939
60166W        W23725   9.726  17.794   1.845
60167W        W23726   9.704  22.726   1.225
60168W        W23727  21.513  27.678  10.524
60169W        W23728  39.815  39.940  12.377
60170W        W23729  18.099   8.284  13.815
60171W        W23730   4.942  20.066  14.832
60172W        W23731  24.076  40.992   3.633
60173W        W23732  24.616   8.707  11.517
60174W        W23733  22.555   8.808   1.400
60175W        W23734  18.669  23.148   4.801
60176W        W23735  11.704  41.819   4.674
60177W        W23736  25.129   6.785  13.331
60178W        W23737  22.032  41.791   0.877
60179W        W23738  35.908  15.798  13.991
60180W        W23739  10.326  28.149   0.832
60181W        W23740   5.290  22.121   0.785
60182W        W23741  43.968  10.798  10.443
60183W        W23742   3.938   0.360   4.781
60184W        W23743  38.411  28.676  12.527
60185W        W23744  12.163   8.659   0.847
60186W        W23745  31.154  38.488  12.366
60187W        W23746  26.116   0.787  12.381
60188W        W23747  34.419   8.760  11.474
60189W        W23748  21.222  11.282  13.339
60190W        W23749  14.115  35.365  14.911
60191W        W23750  33.067  30.501   3.642
60192W        W23751  14.295  21.166   2.785
60193W        W23752  30.472   2.914  13.995
60194W        W23753  20.138  13.181  14.375
60195W        W23754  14.811  35.531  10.890
60196W        W23755  30.057  11.694  13.357
60197W        W23756  11.227  24.617  10.149
60198W        W23757  41.026  37.522  13.460
60199W        W23758   9.764  25.098  11.567
60200W        W23759  29.940  44.487  12.987
60201W        W23760   3.835  29.514   2.269
60202W        W23761  10.691  39.037   0.952
60203W        W23762  13.764  20.041   4.304
60204W        W23763   8.886  25.556  10.587
60205W        W23764  43.897  34.030  14.811
60206W        W23765  37.458  41.810  13.307
60207W        W23766  21.217  15.092   0.286
60208W        W23767  29.467   9.156   4.756
60209W        W23768  13.639  28.929   3.210
60210W        W23769  39.387  20.107   1.283
60211W        W23770  34.537  33.928  10.449
60212W        W23771  16.198  22.083  10.136
60213W        W23772   4.226  19.677  12.087
60214W        W23773   6.240  32.074  13.502
60215W        W23774   8.270  25.607   2.738
60216W        W23775  15.179  29.469  13.355
60217W        W23776   7.832  22.212  10.904
60218W        W23777  39.485  18.707   1.283
60219W        W23778   7.681  39.353   2.415
60220W        W23779  41.979   7.823  11.874
60221W        W23780   7.761  38.901  13.933
60222W        W23781   5.230  18.662   3.253
60223W        W23782   4.261  13.638   0.325
60224W        W23783  33.000  34.911  12.889
60225W        W23784  31.024  43.505   4.210
60226W        W23785   1.924  10.635   3.726
60227W        W23786   1.433  26.089   3.721
60228W        W23787  35.417  14.736   1.235
60229W        W23788   2.778   9.339  14.835
60230W        W23789   6.840  36.555   3.835
60231W        W23790  35.012   2.776  11.517
60232W        W23791  44.469  11.137  12.424
60233W        W23792  21.734  32.554  14.401
60234W        W23793  21.658   3.939  11.463
60235W        W23794  41.424   2.362   3.822
60236W        W23795  10.709   1.322  14.922
60237W        W23796  38.947  17.302   2.335
60238W        W23797  13.654  13.739  12.077
60239W        W23798  41.417   8.326  11.467
60240W        W23799  27.514   7.903  14.414
60241W        W23800   5.778   6.385  12.848
60242W        W23801  40.026  44.465  10.543
60243W        W23802  13.646  38.549   3.253
60244W        W23803  44.349  42.416  10.548
60245W        W23804   7.222  27.941  11.866
60246W        W23805   4.312  31.501  10.607
60247W        W23806   5.281   5.741   4.713
60248W        W23807  12.806  14.801  10.637
60249W        W23808   5.301  19.743   2.891
60250W        W23809  15.146  14.158  12.363
60251W        W23810   3.418   0.824   0.438
60252W        W23811  36.898  16.082  10.984
60253W        W23812  14.319   1.810   3.333
60254W        W23813  35.577  37.571   1.859
60255W        W23814   2.962  24.049  14.801
60256W        W23815  28.669  21.192   5.193
60257W        W23816  28.025  25.528   3.865
60258W        W23817  12.211  23.022   1.857
60259W        W23818  24.673  27.165   2.299
60260W        W23819  11.754  13.316   0.943
60261W        W23820   4.865  19.729   4.205
60262W        W23821   1.818  39.413   3.183
60263W        W23822  34.464  34.555  12.954
60264W        W23823  12.668  44.760   2.358
60265W        W23824  44.454  11.230  12.017
60266W        W23825  10.210  21.527  12.868
60267W        W23826  16.173   7.399   1.299
60268W        W23827  38.995  21.233   0.865
60269W        W23828   7.759  37.494   2.816
60270W        W23829  33.113  39.950   2.321
60271W        W23830  44.356   4.815   2.349
60272W        W23831  16.730  30.515   0.887
60273W        W23832   9.394  16.145   4.675
60274W        W23833  14.609   5.819   4.715
60275W        W23834   3.264  11.694   1.842
60276W        W23835  10.749  23.196  12.008
60277W        W23836   5.707   2.454  11.896
60278W        W23837  37.837  12.723   1.288
60279W        W23838  31.628  32.512   0.378
60280W        W23839  28.114  30.606   4.645
60281W        W23840  15.127   1.744  12.435
60282W        W23841  37.473   6.387  12.919
60283W        W23842  13.716  38.416   1.233
60284W        W23843  11.847  25.101   2.366
60285W        W23844  28.113  22.510   2.250
60286W        W23845  13.192   5.223   3.774
60287W        W23846  36.916  29.041  13.878
60288W        W23847  41.919  27.543   3.292
60289W        W23848  32.518   5.246  11.884
60290W        W23849  42.501  17.195   3.198
60291W        W23850  27.107   8.354  12.896
60292W        W23851   5.290  25.645  13.885
60293W        W23852   8.828   5.837   1.233
60294W        W23853  36.500  41.307  11.434
60295W        W23854  36.020  30.480  14.866
60296W        W23855  26.100   4.237  12.869
60297W        W23856  15.085  28.666  14.374
60298W        W23857  12.145  11.801  14.012
60299W        W23858   8.779  35.088  12.523
60300W        W23859   6.859  40.527  13.403
60301W        W23860   2.737   5.304   1.345
60302W        W23861  13.274  26.557   4.679
60303W        W23862  30.544  14.828   1.230
60304W        W23863  13.219   3.926  14.387
60305W        W23864  34.995   9.846  11.927
60306W        W23865  25.009  19.194   3.817
60307W        W23866  21.582  13.244   2.717
60308W        W23867  20.702  28.437  13.548
60309W        W23868  23.692  25.469  10.952
60310W        W23869  43.854  23.143  11.492
60311W        W23870   4.274   9.159  13.406
60312W        W23871  10.641   3.385  10.461
60313W        W23872  29.044  17.229  12.570
60314W        W23873  14.701  19.653  11.891
60315W        W23874  11.210  41.341  14.340
60316W        W23875   8.208  14.173   1.802
60317W        W23876  23.167  15.728  13.357
60318W        W23877  13.706  25.575  10.007
60319W        W23878  27.186  22.637  12.506
60320W        W23879  29.424  27.088  13.991
60321W        W23880   5.309  25.503   0.451
60322W        W23881  43.828   5.715   3.295
60323W        W23882  43.374   1.802   0.796
60324W        W23883   7.832   7.321   1.816
60325W        W23884   9.734  14.270   1.717
60326W        W23885  26.115  14.111   1.760
60327W        W23886   1.819  40.475   2.409
60328W        W23887  38.550   8.258   3.287
60329W        W23888  36.895   6.741  11.121
60330W        W23889   8.682  39.064   2.355
60331W        W23890  20.040   8.677  10.505
60332W        W23891   4.368   7.270  10.641
60333W        W23892  21.736   7.193  14.016
60334W        W23893  42.344  18.268  10.429
60335W        W23894  13.300  24.571   2.195
60336W        W23895  43.475  29.665   4.135
60337W        W23896   8.771  32.977   4.731
60338W        W23897  25.541   4.417   0.411
60339W        W23898  24.203  43.846  14.777
60340W        W23899   7.868  18.171  11.526
60341W        W23900  44.914  25.101   2.323
60342W        W23901  16.792  41.838   2.312
60343W        W23902  21.746  39.840  13.942
60344W        W23903  31.097  12.162   2.856
60345W        W23904  37.537  20.673   2.241
60346W        W23905  36.032  12.334  11.110
60347W        W23906  30.931  33.596  10.522
60348W        W23907  29.935  41.868  11.919
60349W        W23908  16.582   0.831   2.222
60350W        W23909   9.238   8.160  12.403
60351W        W23910  20.261  41.325   0.783
60352W        W23911  25.991  25.173  13.891
60353W        W23912  20.578  21.675   4.742
60354W        W23913   3.862  26.982  12.349
60355W        W23914  20.177  13.799  14.286
60356W        W23915  27.537  13.242   4.711
60357W        W23916   5.326  30.037  11.990
60358W        W23917  35.039   7.778   1.848
60359W        W23918  29.513  32.447  14.943
60360W        W23919   3.878  20.065  14.437
60361W        W23920   4.898  37.081   0.835
60362W        W23921   1.256  29.574   0.350
60363W        W23922  13.240  39.361  13.805
60364W        W23923  14.650   1.929  11.388
60365W        W23924  21.050  30.065  13.821
60366W        W23925  39.876  17.773   1.796
60367W        W23926  17.613  25.671   1.894
60368W        W23927  34.478  21.018   4.810
60369W        W23928   4.728  40.499  11.475
60370W        W23929  19.199   7.910  13.866
60371W        W23930   4.241  15.706   1.912
60372W        W23931   9.749  19.763   2.210
60373W        W23932  17.231  34.072  13.470
60374W        W23933  22.063  36.877  10.919
60375W        W23934   3.779  26.985   2.749
60376W        W23935   8.801  20.090  11.911
60377W        W23936  21.240  38.942   0.405
60378W        W23937  22.745  29.032   0.885
60379W        W23938   9.793  29.603  11.466
60380W        W23939  11.813  27.526   1.917
60381W        W23940  42.508  43.271   0.279
60382W        W23941  44.269  12.159   0.327
60383W        W23942  25.071   6.795   2.190
60384W        W23943  19.716   3.413   1.914
60385W        W23944  26.190  21.569   0.797
60386W        W23945  14.714  31.014  10.472
60387W        W23946  28.022  29.485   0.779
60388W        W23947  39.327  42.323  13.309
60389W        W23948  24.577   1.866  11.404
60390W        W23949  44.278  35.936  11.963
60391W        W23950  38.886   2.271   0.792
60392W        W23951   6.312  23.552   4.149
60393W        W23952  30.135  14.717  14.855
60394W        W23953  28.681  24.627   3.653
60395W        W23954  44.287  41.795   4.757
60396W        W23955  34.864  19.053   0.336
60397W        W23956  11.136   2.923   2.899
60398W        W23957  37.455  34.983   3.266
60399W        W23958  17.297  14.675  10.620
60400W        W23959  38.056   8.844  14.302
60401W        W23960  31.040   8.672   0.758
60402W        W23961  13.211  36.938  10.043
60403W        W23962   8.322  30.528  12.843
60404W        W23963  20.176  15.764  11.104
60405W        W23964  43.897  25.968   4.223
60406W        W23965  21.593  37.041  12.055
60407W        W23966   7.859  35.942   4.234
60408W        W23967   0.859  24.646  11.424
60409W        W23968  41.814  14.325  12.353
60410W        W23969  12.792  11.685  12.012
60411W        W23970  28.451  34.417  13.792
60412W        W23971  19.043  27.039   0.914
60413W        W23972  42.013  12.637  14.935
60414W        W23973  37.880  44.947  13.415
60415W        W23974  26.663  33.124  12.896
60416W        W23975  31.421   6.879  12.837
60417W        W23976  30.073   8.280  10.980
60418W        W23977   7.872  11.700   0.354
60419W        W23978  25.710   1.424  12.436
60420W        W23979  10.156  16.695   0.844
60421W        W23980  27.159   9.377   3.785
60422W        W23981  24.213  24.147   0.336
60423W        W23982  11.353   5.819  14.778
60424W        W23983  12.639  25.595  13.514
60425W        W23984   3.357  24.119   1.912
60426W        W23985  32.121  28.538  11.493
60427W        W23986   2.789  14.663   0.734
60428W        W23987   5.326  27.527   3.669
60429W        W23988  39.508  34.089   0.816
60430W        W23989  41.860  22.525   0.877
60431W        W23990  40.806  30.561  10.443
60432W        W23991   5.416  14.668   4.655
60433W        W23992   8.163  16.690  10.605
60434W        W23993  40.038   3.863   4.206
60435W        W23994  30.593  21.552  14.849
60436W        W23995  26.155  35.057   2.348
60437W        W23996   1.848  17.303   1.317
60438W        W23997   3.318  27.103  11.474
60439W        W23998  37.526  44.994  13.445
60440W        W23999  41.920  43.981   4.767
60441W        W24000  28.483   2.411   0.407
60442W        W24001  40.008  33.432   2.303
60443W        W24002  17.301  12.129  10.479
60444W        W24003   1.735   1.475   4.740
60445W        W24004  29.975  37.353  14.763
60446W        W24005   2.870  15.711   2.310
60447W        W24006  24.188  31.522  11.563
60448W        W24007  26.616   5.365   3.779
60449W        W24008  12.797   5.694  11.085
60450W        W24009  36.058  18.613  10.998
60451W        W24010  42.293  22.601  12.434
60452W        W24011  10.192  38.880  11.855
60453W        W24012  18.694  38.948   5.106
60454W        W24013   3.715  32.072   1.390
60455W        W24014   1.968  42.831  13.374
60456W        W24015  44.390  27.966  12.401
60457W        W24016  34.925  40.357   3.363
60458W        W24017  32.438  18.054   1.774
60459W        W24018   8.796  40.370  12.978
60460W        W24019  18.735  22.677   0.456
60461W        W24020  30.627  33.620  14.345
60462W        W24021  26.483  35.535  14.421
60463W        W24022  29.141   4.749  10.993
60464W        W24023  31.601  28.643   2.339
60465W        W24024  25.539  36.910   1.407
60466W        W24025   6.350  36.347  12.490
60467W        W24026  11.132  11.625   3.855
60468W        W24027  33.126  21.191  13.481
60469W        W24028  37.837  10.750   4.272
60470W        W24029  27.666  15.689   4.333
60471W        W24030   1.429  14.214   0.869
60472W        W24031   3.445  39.039  10.146
60473W        W24032   7.238  42.953  12.438
60474W        W24033  14.120  40.016  12.388
60475W        W24034   9.289  10.692  12.862
60476W        W24035   5.251  25.148   2.271
60477W        W24036   0.301  16.656  11.590
60478W        W24037  26.181  14.683   0.738
60479W        W24038   8.678  29.552   3.818
60480W        W24039  30.008  16.122  14.500
60481W        W24040  10.271  29.650  14.313
60482W        W24041  17.572  19.264   1.888
60483W        W24042  10.659  18.164   1.807
60484W        W24043  38.409  31.043   4.209
60485W        W24044  16.195  13.247   4.169
60486W        W24045  18.157  15.189   0.832
60487W        W24046  24.505  10.874   3.638
60488W        W24047  10.380  39.046  10.585
60489W        W24048  38.430  19.220   2.285
60490W        W24049  43.000  28.560   0.421
60491W        W24050  18.265  30.446  14.932
60492W        W24051  37.911  12.748   2.258
60493W        W24052  36.373  44.842   3.272
60494W        W24053  20.264  19.538   2.361
60495W        W24054  12.833  32.083  11.527
60496W        W24055  11.815  32.440  10.126
60497W        W24056   1.364  20.763   1.309
60498W        W24057  26.983  17.690  12.883
60499W        W24058  26.684   6.327   2.799
60500W        W24059  29.448  26.659   2.671
60501W        W24060   3.756  20.640  11.049
60502W        W24061   5.375  37.430  13.469
60503W        W24062  29.950  20.539   3.719
60504W        W24063  13.308  36.576  14.938
60505W        W24064   2.394  14.793  12.578
60506W        W24065  10.809   4.902  10.485
60507W        W24066  10.159   2.272   2.191
60508W        W24067  31.403   7.175  11.423
60509W        W24068  21.027  37.387  11.491
60510W        W24069   3.393  10.355   2.238
60511W        W24070  42.409  23.217   0.388
60512W        W24071  43.821  41.406  13.050
60513W        W24072  13.349  27.517  13.378
60514W        W24073  41.493  37.366  13.044
60515W        W24074  35.880  32.509  14.997
60516W        W24075  23.678  22.231   2.690
60517W        W24076  22.542  16.284   0.838
60518W        W24077  26.045   3.243   4.832
60519W        W24078  24.106  36.051   3.829
60520W        W24079  44.885  43.375  13.960
60521W        W24080   8.775   7.758   0.929
60522W        W24081  26.587   9.886  14.341
60523W        W24082  13.786   6.323   9.497
60524W        W24083   5.748   1.298   4.612
60525W        W24084  44.488  25.121  12.936
60526W        W24085  26.967  23.053   1.733
60527W        W24086   0.809  16.568  10.889
60528W        W24087   5.835  16.767  14.889
60529W        W24088  38.355   0.787  10.518
60530W        W24089  42.430  13.284   4.737
60531W        W24090  13.834  40.531   0.967
60532W        W24091   9.281   5.227   0.847
60533W        W24092  10.807  38.868  11.530
60534W        W24093   2.822  10.225  13.843
60535W        W24094  35.859  14.334  11.548
60536W        W24095  18.745  17.738   1.789
60537W        W24096  13.715  28.497  10.508
60538W        W24097  31.011   6.696   2.343
60539W        W24098  37.992  16.572   4.267
60540W        W24099   1.741   9.331  12.868
60541W        W24100  34.454  31.640  14.332
60542W        W24101  30.913   6.409   3.203
60543W        W24102   5.830   7.352  14.972
60544W        W24103  18.199   0.434  13.373
60545W        W24104  40.375   6.751   1.802
60546W        W24105  39.930   8.707  14.888
60547W        W24106   2.229  42.408  13.419
60548W        W24107  23.640  12.751  12.951
60549W        W24108  17.128  29.149   9.938
60550W        W24109  35.590  33.530   2.896
60551W        W24110   8.788  21.203   0.436
60552W        W24111  32.032  16.076   1.268
60553W        W24112  21.533   5.213  10.620
60554W        W24113   0.830  34.443  12.995
60555W        W24114  37.441  16.180   0.967
60556W        W24115  16.098   0.836  13.008
60557W        W24116   9.721  24.133   3.202
60558W        W24117  35.073   9.750   0.366
60559W        W24118  37.085  23.101   4.191
60560W        W24119  34.477   8.885   5.192
60561W        W24120   5.374  20.181   0.383
60562W        W24121  37.083  25.560  13.420
60563W        W24122  28.100   9.812  14.006
60564W        W24123  16.216   0.261   2.707
60565W        W24124  39.952  20.761   1.746
60566W        W24125   2.954  11.190   0.404
60567W        W24126  41.917   8.273  10.628
60568W        W24127  10.647  31.636  11.545
60569W        W24128  42.887  17.592   1.751
60570W        W24129  28.973   6.190   2.215
60571W        W24130  31.953  27.621  13.851
60572W        W24131   6.821  23.653  14.027
60573W        W24132  26.660   8.177   3.384
60574W        W24133  12.201  24.081  13.503
60575W        W24134   0.987  35.917  12.064
60576W        W24135  28.111  11.208  10.120
60577W        W24136  13.332  27.662   2.804
60578W        W24137  17.603   9.152   2.804
60579W        W24138   5.297  13.261  10.439
60580W        W24139   5.376  20.640   3.869
60581W        W24140   7.803   4.820   1.419
60582W        W24141  33.094   3.350   3.832
60583W        W24142  34.507  13.709   3.789
60584W        W24143  38.894  34.877  12.540
60585W        W24144  22.060  32.392  12.427
60586W        W24145  17.558   1.971  11.128
60587W        W24146   1.923  24.022  12.575
60588W        W24147   9.158  30.569   1.767
60589W        W24148   2.875  39.834   0.408
60590W        W24149  23.132   5.241  11.434
60591W        W24150  11.721  24.203  13.460
60592W        W24151   6.778  26.697   9.935
60593W        W24152  32.531  36.891   9.543
60594W        W24153  42.025  29.157   1.863
60595W        W24154  27.103  20.590   1.833
60596W        W24155  38.877  43.860  13.927
60597W        W24156  28.160   1.320  14.921
60598W        W24157  27.619  40.501   1.309
60599W        W24158   6.388  22.197   0.743
60600W        W24159   2.915   2.396   4.281
60601W        W24160  42.471   3.750   1.786
60602W        W24161   0.865  31.920  11.917
60603W        W24162   7.206  37.341  11.527
60604W        W24163  20.043  28.467   2.863
60605W        W24164   6.228   0.348  12.829
60606W        W24165  19.242   0.297  14.294
60607W        W24166  39.043  16.214   0.380
60608W        W24167   9.680  42.023  11.381
60609W        W24168  14.779  44.360   3.859
60610W        W24169  38.027  21.227  10.474
60611W        W24170  28.173  42.390  13.009
60612W        W24171  19.246  15.642   3.806
60613W        W24172   2.394   3.873   2.861
60614W        W24173   9.288  26.138   2.802
60615W        W24174  10.262   3.253  11.474
60616W        W24175  23.590  18.759   2.849
60617W        W24176  32.923  18.133   1.343
60618W        W24177   7.666  21.742  13.959
60619W        W24178  39.817  33.982   3.661
60620W        W24179  41.375  21.123  14.830
60621W        W24180  21.109  20.272   4.812
60622W        W24181  43.387  33.445   0.825
60623W        W24182  20.589  37.477   3.158
60624W        W24183  26.951  10.705  11.998
60625W        W24184   8.247   0.301   4.239
60626W        W24185   8.800   0.403  10.442
60627W        W24186  35.999   8.332   1.292
60628W        W24187  21.234   9.689   3.681
60629W        W24188  16.757  19.110   2.785
60630W        W24189   4.254  11.859   4.160
60631W        W24190   3.935  24.161   3.349
60632W        W24191   1.417  28.118   1.334
60633W        W24192   8.865  36.456   0.797
60634W        W24193  36.963  38.895   1.237
60635W        W24194  44.871   5.411  12.088
60636W        W24195  42.903  32.058   0.340
60637W        W24196  25.053  10.269  11.877
60638W        W24197  27.180  38.499  11.586
60639W        W24198  43.893  10.701  12.481
60640W        W24199  23.499   1.948   4.830
60641W        W24200  35.497  16.084  11.412
60642W        W24201  34.880  15.657   5.141
60643W        W24202  35.053   4.881  11.037
60644W        W24203  10.700  14.309   2.764
60645W        W24204  10.304  22.999  12.365
60646W        W24205  33.014  40.823  13.494
60647W        W24206  28.442  39.542   3.735
60648W        W24207  25.554  44.804   0.396
60649W        W24208   0.444  43.470  10.545
60650W        W24209  20.582  16.250  11.421
60651W        W24210  12.246  16.160   0.470
60652W        W24211  27.543  13.262  14.806
60653W        W24212  37.490  20.720   4.686
60654W        W24213  24.045  12.630   4.154
60655W        W24214  24.699   2.882  13.867
60656W        W24215  33.598  19.733  14.278
60657W        W24216  39.355  31.930  11.424
60658W        W24217  20.546   7.798  11.383
60659W        W24218  44.831  29.053   1.856
60660W        W24219  12.151  14.210  14.898
60661W        W24220   1.387  23.680  13.804
60662W        W24221   9.749  29.563  10.910
60663W        W24222   6.185  22.182  10.951
60664W        W24223  37.929  12.310   1.281
60665W        W24224  34.918  44.422   3.755
60666W        W24225  18.551  39.818   3.845
60667W        W24226   6.871  13.836   3.853
60668W        W24227  19.558  42.874   2.775
60669W        W24228  37.554   7.788  13.521
60670W        W24229   1.482  43.438   1.305
60671W        W24230  44.892  31.489   2.197
60672W        W24231  25.707  23.997  13.363
60673W        W24232  35.045   3.812  11.555
60674W        W24233  22.015  15.670   4.610
60675W        W24234  33.903  44.495  14.410
60676W        W24235  23.571  33.423   3.265
60677W        W24236  43.773   2.862  10.628
60678W        W24237   4.699  23.004   1.722
60679W        W24238  30.963  24.587   2.326
60680W        W24239  14.323  19.772  13.801
60681W        W24240   7.808  27.074   1.719
60682W        W24241  40.359  33.573  13.405
60683W        W24242  10.205  36.016  12.922
60684W        W24243  43.849   9.371  12.942
60685W        W24244  36.575  15.323   4.810
60686W        W24245   1.787  34.958   1.435
60687W        W24246   2.335  22.235  14.503
60688W        W24247  18.733  35.065   1.272
60689W        W24248   2.925  30.002  14.922
60690W        W24249  11.732  15.635  10.590
60691W        W24250  32.627  14.740  12.350
60692W        W24251  37.931  13.118   2.837
60693W        W24252   6.194  17.596   3.763
60694W        W24253  18.605  11.785   3.311
60695W        W24254   6.797  36.386  10.957
60696W        W24255  22.242   7.810   1.732
60697W        W24256  21.568  11.822   2.699
60698W        W24257  29.088   1.868   2.746
60699W        W24258   6.758  44.260   1.427
60700W        W24259  30.524  16.775  11.878
60701W        W24260  18.570  35.099  12.405
60702W        W24261  24.630  14.630  10.462
60703W        W24262  34.611  15.644  11.071
60704W        W24263  12.139   8.885   2.273
60705W        W24264   3.433  12.246   3.172
60706W        W24265  38.451  24.508  12.529
60707W        W24266   0.380  40.446   1.223
60708W        W24267  42.332  37.051   1.403
60709W        W24268   7.874   5.258  11.558
60710W        W24269  15.288  18.195  12.524
60711W        W24270  27.142   0.252   3.692
60712W        W24271  36.435   7.689  10.540
60713W        W24272  39.527  32.047  14.975
60714W        W24273  29.162  12.225   1.398
60715W        W24274  42.804  35.466  12.552
60716W        W24275  42.457   5.716   4.161
60717W        W24276  15.236  28.169   3.280
60718W        W24277  41.984  14.707  12.835
60719W        W24278  41.327  44.416  11.470
60720W        W24279   6.910   3.261  13.492
60721W        W24280  25.177  36.011  12.350
60722W        W24281  41.443  37.855   2.260
60723W        W24282  12.154  20.592   0.793
60724W        W24283  38.041  24.515   1.884
60725W        W24284  27.030   1.330   3.797
60726W        W24285  25.084  11.168   2.784
60727W        W24286   1.350  34.077   0.370
60728W        W24287  26.505  36.572  12.021
60729W        W24288  38.931  25.149   4.718
60730W        W24289  39.873  34.963   4.645
60731W        W24290  43.982  18.065  14.861
60732W        W24291  29.114  43.972   1.428
60733W        W24292   2.414  28.031  11.594
60734W        W24293   0.361  28.949   3.322
60735W        W24294  13.762   6.837  12.933
60736W        W24295  13.714  34.096   4.272
60737W        W24296  17.108  11.774  12.564
60738W        W24297  19.564   8.398   2.386
60739W        W24298  43.376  11.734  12.051
60740W        W24299  36.438   7.853   0.307
60741W        W24300  14.158  34.402   0.733
60742W        W24301   5.746  13.691   2.823
60743W        W24302  39.981  27.542   2.693
60744W        W24303   0.887  29.494   2.813
60745W        W24304  12.262  11.152  14.778
60746W        W24305  23.699  22.683   3.185
60747W        W24306  41.337   2.294   0.912
60748W        W24307  27.088  38.569  14.411
60749W        W24308  23.676  34.572  12.995
60750W        W24309   1.251  11.639   3.742
60751W        W24310  43.803  43.304   3.631
60752W        W24311  40.305  14.734  11.883
60753W        W24312  31.122  18.598   0.948
60754W        W24313  11.248  35.444   1.874
60755W        W24314  21.100  17.622  10.473
60756W        W24315  12.125  26.698  11.578
60757W        W24316  30.649  23.719   3.867
60758W        W24317  28.020  24.576   0.850
60759W        W24318  29.125  17.700  12.019
60760W        W24319  23.999  18.122  12.485
60761W        W24320  33.414  18.643   4.615
60762W        W24321  21.184  33.477   9.975
60763W        W24322  22.213  29.046  14.311
60764W        W24323  17.748  12.759   0.283
60765W        W24324  33.101   4.765   1.330
60766W        W24325  36.959  33.473  12.950
60767W        W24326  25.652   8.342  11.423
60768W        W24327  30.042  29.940   1.919
60769W        W24328   8.770   4.289  12.043
60770W        W24329  39.924   7.694  14.839
60771W        W24330  44.856  35.907  14.359
60772W        W24331  12.841   8.369   5.141
60773W        W24332   4.237  16.719  14.454
60774W        W24333  35.522  38.433   3.204
60775W        W24334  27.070  23.685   4.116
60776W        W24335  44.863  28.011   2.314
60777W        W24336  34.575  30.525   5.302
60778W        W24337   2.292   3.891  13.365
60779W        W24338   2.916  37.029  13.905
60780W        W24339  24.035  28.538   4.603
60781W        W24340   9.363  27.951  11.458
60782W        W24341  24.718  23.552   0.262
60783W        W24342   8.369  32.940  14.319
60784W        W24343  12.195  29.429  10.413
60785W        W24344  38.011  14.196   0.768
60786W        W24345  13.192  25.020  10.986
60787W        W24346  30.919  17.132  13.525
60788W        W24347  24.036  39.385   0.359
60789W        W24348  22.545  20.107   0.894
60790W        W24349  21.068  41.956  13.806
60791W        W24350  11.829  26.073  11.094
60792W        W24351  36.959  17.757  13.971
60793W        W24352   7.722  26.148   0.324
60794W        W24353  16.287  44.494  12.832
60795W        W24354  15.637  15.696   5.169
60796W        W24355  31.075   2.741  14.369
60797W        W24356  21.143  37.452   0.409
60798W        W24357  38.379  19.632  14.501
60799W        W24358  18.078  11.656  13.846
60800W        W24359   9.730  35.907   2.284
60801W        W24360  26.500  30.968   3.345
60802W        W24361  35.895  40.441  14.841
60803W        W24362  42.504  37.835   2.298
60804W        W24363  38.481  21.185   2.378
60805W        W24364  32.942  21.530   2.386
60806W        W24365  11.170   1.480  10.597
60807W        W24366  24.610  35.110   2.786
60808W        W24367  23.119  35.852   0.807
60809W        W24368  37.893  42.450  13.992
60810W        W24369  13.767  24.599   5.260
60811W        W24370  21.719  31.597  13.885
60812W        W24371   3.865  38.530  13.061
60813W        W24372  30.958  24.652   1.839
60814W        W24373  25.474  14.173  10.136
60815W        W24374  22.229  18.224   1.764
60816W        W24375  31.001  26.142   0.920
60817W        W24376  25.535  18.774  11.968
60818W        W24377  27.643  27.473   1.235
60819W        W24378  19.247  27.113  13.406
60820W        W24379  26.592   2.309  11.389
60821W        W24380  34.056  43.998   2.223
60822W        W24381  29.601   2.827   1.741
60823W        W24382   6.809  17.555  12.078
60824W        W24383  18.286  25.985   1.253
60825W        W24384  11.715  39.887  14.302
60826W        W24385   6.320   6.210  12.464
60827W        W24386  21.716  40.384   1.356
60828W        W24387  19.248  38.494   1.219
60829W        W24388   0.414  27.618   3.269
60830W        W24389  19.670  18.090   0.823
60831W        W24390  17.703  22.600   0.904
60832W        W24391  21.683  19.758   0.772
60833W        W24392  21.076  18.187  10.151
60834W        W24393  26.497  11.160  14.427
60835W        W24394  23.528   1.820  14.318
60836W        W24395   6.227  39.011   1.290
60837W        W24396  14.616  10.634   5.197
60838W        W24397  25.580   3.891  12.494
60839W        W24398  39.401  12.348   3.348
60840W        W24399  28.674   7.819   4.739
60841W        W24400  34.542  14.156   0.442
60842W        W24401   5.750  23.011   0.330
60843W        W24402  25.660  15.622   2.293
60844W        W24403  32.402  40.040  11.390
60845W        W24404  14.208  26.635   0.855
60846W        W24405  44.011   5.262   1.755
60847W        W24406  33.592   8.847   1.699
60848W        W24407   2.725   7.320  11.921
60849W        W24408  37.518  43.000  12.070
60850W        W24409   3.757  18.241   3.688
60851W        W24410  19.697  17.205   3.255
60852W        W24411  41.375  35.060   3.677
60853W        W24412  33.534  16.778  13.828
60854W        W24413  16.141  23.679   4.678
60855W        W24414  36.853  21.105   3.314
60856W        W24415  32.536  22.643   0.440
60857W        W24416   9.700   9.767   1.695
60858W        W24417  36.481  38.935  12.536
60859W        W24418  41.804  27.101   3.690
60860W        W24419   0.352  38.922   2.223
60861W        W24420   7.911  25.038  14.920
60862W        W24421   9.644   9.154   2.854
60863W        W24422  44.781  19.225  12.865
60864W        W24423  12.844  38.383   1.323
60865W        W24424   7.369  12.777  11.533
60866W        W24425  18.281  12.340  10.644
60867W        W24426  28.023  42.784  13.993
60868W        W24427   6.803  33.591  11.418
60869W        W24428  16.785   9.772  11.978
60870W        W24429  21.063  28.660   0.283
60871W        W24430  39.888  15.639  13.390
60872W        W24431   3.302  41.471   4.229
60873W        W24432  12.680  20.193   0.365
60874W        W24433  17.690  22.204  10.915
60875W        W24434  44.496  25.156   5.301
60876W        W24435  40.321  29.447  12.090
60877W        W24436  44.412  37.535   3.868
60878W        W24437  19.707  16.297  13.429
60879W        W24438   7.244  23.220  14.393
60880W        W24439  27.965  32.415   2.357
60881W        W24440   6.183   5.240  14.393
60882W        W24441  18.559  26.153   4.321
60883W        W24442   3.926  17.177   4.164
60884W        W24443  42.499  23.625  14.441
60885W        W24444  29.063  27.605   4.643
60886W        W24445  25.511  42.414  14.895
60887W        W24446  20.192  33.578   0.885
60888W        W24447   7.190   7.416   1.302
60889W        W24448   7.234  25.044   4.761
60890W        W24449  40.926  42.370  12.497
60891W        W24450  40.366  29.965   1.377
60892W        W24451  37.350  32.092   1.339
60893W        W24452  21.074  18.261  11.055
60894W        W24453  43.384  37.465   4.147
60895W        W24454  31.128  30.594  11.508
60896W        W24455  33.905  36.894   0.797
60897W        W24456   3.915  36.071   3.312
60898W        W24457  30.928  38.077  14.881
60899W        W24458   5.857  27.069   0.443
60900W        W24459  23.536  12.223  14.488
60901W        W24460  21.756  44.323  10.932
60902W        W24461  18.758   3.831  10.961
60903W        W24462  37.558  24.087   2.244
60904W        W24463  11.682   9.741   3.786
60905W        W24464   6.893  40.934   2.370
60906W        W24465  25.689  14.676   4.622
60907W        W24466  29.580  21.231   9.442
60908W        W24467  14.213  42.934   2.415
60909W        W24468  11.722  25.144  12.396
60910W        W24469  33.393  24.000   4.326
60911W        W24470  19.715  34.593  12.961
60912W        W24471  23.178  27.613   5.134
60913W        W24472  16.297  20.272  11.513
60914W        W24473  30.934  25.533  12.569
60915W        W24474  36.500  26.702   0.266
60916W        W24475  29.543  41.440  13.899
60917W        W24476  23.523  17.792   2.316
60918W        W24477  36.921  14.275  13.799
60919W        W24478  17.631  25.049  11.000
60920W        W24479   3.265  28.170  14.823
60921W        W24480  39.826  22.150   2.889
60922W        W24481  20.186  21.024  10.494
60923W        W24482  15.649  30.462   2.662
60924W        W24483  26.525   7.330  12.374
60925W        W24484  39.543  33.891  10.126
60926W        W24485  41.504  31.420  14.374
60927W        W24486  31.515   4.758   0.873
60928W        W24487  13.266   4.353   1.405
60929W        W24488  32.023  13.334  14.887
60930W        W24489  29.488  34.919   0.440
60931W        W24490  39.895   4.787  10.534
60932W        W24491  30.435   0.919   2.795
60933W        W24492  43.828   7.786   1.801
60934W        W24493   3.408   3.303   1.897
60935W        W24494  15.600   3.834   3.797
60936W        W24495  10.171  42.796   2.826
60937W        W24496  38.430   0.465   3.153
60938W        W24497  43.393  28.144  12.889
60939W        W24498   7.370  26.701   3.683
60940W        W24499  33.440  24.212  13.027
60941W        W24500  22.179  17.175  12.483
60942W        W24501   2.832  29.953   0.278
60943W        W24502  32.891  35.594   0.361
60944W        W24503  11.278  14.772   5.305
60945W        W24504   9.245  28.130   4.780
60946W        W24505  38.987  19.724   1.363
60947W        W24506  30.104  13.323  11.517
60948W        W24507  25.549  41.355   2.720
60949W        W24508  17.563  22.509   0.443
60950W        W24509  39.444  42.800   1.376
60951W        W24510  24.224  39.951   1.286
60952W        W24511  22.689  26.618  11.884
60953W        W24512  34.524  12.326   5.183
60954W        W24513   5.198   9.298   2.765
60955W        W24514  25.666  15.133   3.751
60956W        W24515  33.424  34.420   0.316
60957W        W24516  19.262  30.610   0.757
60958W        W24517   1.434  34.570  10.482
60959W        W24518  26.463   1.393  14.013
60960W        W24519  11.776  21.048   2.901
60961W        W24520  33.019  36.458   4.838
60962W        W24521   7.349   2.327  13.511
60963W        W24522  30.615  38.077  11.607
60964W        W24523  27.598  39.869  11.010
60965W        W24524  19.625  24.482  13.493
60966W        W24525  15.757  17.750  13.349
60967W        W24526   5.847  22.213  11.525
60968W        W24527  24.507  16.727   2.278
60969W        W24528   2.959  36.990  11.426
60970W        W24529  33.000  32.018   4.282
60971W        W24530   8.276  27.113   2.883
60972W        W24531  32.921  20.169  14.388
60973W        W24532  42.384  34.984  12.468
60974W        W24533   6.912  31.482   3.330
60975W        W24534  20.632   4.897   3.222
60976W        W24535  17.297   2.435  14.830
60977W        W24536  32.109  18.089  14.759
60978W        W24537   3.259  14.707   1.426
60979W        W24538   7.417  15.310   0.901
60980W        W24539  30.020  16.102   4.252
60981W        W24540  43.976  12.644   0.914
60982W        W24541  42.485  41.981  12.827
60983W        W24542  24.217  34.394   3.182
60984W        W24543  35.997  26.174   1.906
60985W        W24544  40.048   5.355  11.031
60986W        W24545  36.570  34.047  10.107
60987W        W24546  28.027  36.867   1.280
60988W        W24547  19.572  37.523  11.487
60989W        W24548  13.813  11.333   3.793
60990W        W24549  11.704   2.725   0.872
60991W        W24550  30.947  23.678   4.634
60992W        W24551   7.409  24.096   4.151
60993W        W24552  44.966  41.038   2.712
60994W        W24553  30.566  33.498   1.364
60995W        W24554  30.602  18.677  12.551
60996W        W24555   9.341  39.024   0.870
60997W        W24556  33.031   7.388  10.019
60998W        W24557  11.191  30.155   0.464
60999W        W24558  38.005   7.221   0.329
61000W        W24559  32.918  23.107  13.385
61001W        W24560  39.456  18.050  14.280
61002W        W24561   7.755  38.839  14.805
61003W        W24562  27.562  40.036   3.743
61004W        W24563  14.223  19.057  11.096
61005W        W24564  34.069  18.129  13.001
61006W        W24565  22.014  24.599  14.343
61007W        W24566   1.759   0.448   4.140
61008W        W24567   2.278   2.301  14.360
61009W        W24568  19.680  13.235   4.289
61010W        W24569  14.734  36.939   2.201
61011W        W24570  18.672  10.745  11.925
61012W        W24571  33.893  29.457   4.624
61013W        W24572  32.034   5.407   4.752
61014W        W24573  19.543  33.513  10.610
61015W        W24574   1.418  26.196   4.296
61016W        W24575  32.518   4.910  12.579
61017W        W24576  41.826  11.835   3.175
61018W        W24577   9.361  21.721  13.940
61019W        W24578   7.263   3.237  12.945
61020W        W24579  29.588  33.022   1.832
61021W        W24580  18.266  24.063   3.717
61022W        W24581  10.322  40.807   4.205
61023W        W24582  38.368  30.422  14.029
61024W        W24583  40.378  25.684   3.646
61025W        W24584   5.714  36.545   0.396
61026W        W24585   2.794  34.879   1.402
61027W        W24586  14.147  21.651   2.790
61028W        W24587  16.202  18.283  11.376
61029W        W24588  15.310   3.260   3.803
61030W        W24589   9.191  27.058   2.183
61031W        W24590  37.834  29.444   2.791
61032W        W24591  27.654  13.228   3.264
61033W        W24592  31.529   6.811  12.487
61034W        W24593  16.221  16.579   2.736
61035W        W24594   2.945  20.710   1.914
61036W        W24595  44.005  44.461   2.290
61037W        W24596  29.013  12.239   0.363
61038W        W24597  40.894   1.478   0.856
61039W        W24598   9.150  10.146   3.303
61040W        W24599   6.714   8.841   4.739
61041W        W24600   9.705  23.498  12.979
61042W        W24601  39.536   9.177   1.844
61043W        W24602  41.019  14.721  12.855
61044W        W24603  32.976  42.008  10.458
61045W        W24604  32.009  14.605  13.985
61046W        W24605  39.904  12.207  10.450
61047W        W24606  26.084   6.280   4.664
61048W        W24607  16.282  21.177  12.408
61049W        W24608   8.684   2.938   2.820
61050W        W24609  40.544  34.947   4.752
61051W        W24610  28.629  39.011   3.269
61052W        W24611  32.392   8.876  12.473
61053W        W24612  43.017  19.061   1.909
61054W        W24613   4.228  33.587  14.998
61055W        W24614   7.359   9.286   1.890
61056W        W24615  18.192  35.963  11.019
61057W        W24616  38.881   2.363  11.879
61058W        W24617  25.643  36.959  14.992
61059W        W24618  42.015  13.665   4.164
61060W        W24619  22.231   1.921  11.864
61061W        W24620  23.514  39.871  13.857
61062W        W24621   7.783  23.189   0.433
61063W        W24622   2.941  34.411  11.901
61064W        W24623  21.599  17.636   2.186
61065W        W24624  29.133   9.870  12.488
61066W        W24625  13.716  34.578   2.730
61067W        W24626  31.433  26.141  14.390
61068W        W24627   2.952  24.625   2.887
61069W        W24628   1.917  33.914   0.735
61070W        W24629  33.391  15.728   3.288
61071W        W24630   1.403  23.524   2.282
61072W        W24631  35.584  27.180   1.757
61073W        W24632  28.526  38.340   4.800
61074W        W24633  43.301  28.449   3.294
61075W        W24634   1.757  34.893   0.388
61076W        W24635   9.310  19.113   2.797
61077W        W24636   7.883  44.345  14.865
61078W        W24637  24.713  21.238  12.556
61079W        W24638   3.358  18.225  10.498
61080W        W24639  12.353  31.597  10.433
61081W        W24640  41.521  14.704  13.908
61082W        W24641  21.032  39.471  10.494
61083W        W24642  24.642   0.815   3.770
61084W        W24643   6.384  37.913  10.530
61085W        W24644  25.035  42.282   0.860
61086W        W24645  13.324  11.747   3.227
61087W        W24646  34.449  17.211  14.982
61088W        W24647  43.904  16.160   3.810
61089W        W24648  14.234   4.366   0.875
61090W        W24649  19.225  12.712   0.439
61091W        W24650  41.461  19.642   2.254
61092W        W24651  23.167  29.591   0.790
61093W        W24652   9.309   6.768  10.581
61094W        W24653  29.923  33.500   3.169
61095W        W24654  22.120  38.562   3.375
61096W        W24655  31.621   1.306   4.796
61097W        W24656   2.359   3.247  13.998
61098W        W24657   0.787   1.357   0.777
61099W        W24658   2.797  31.018   4.165
61100W        W24659  35.070  41.970   5.252
61101W        W24660   0.333  14.679  11.076
61102W        W24661  12.158  16.284  12.830
61103W        W24662  33.419   3.820   2.679
61104W        W24663  19.627  39.509   0.483
61105W        W24664  16.256  27.086   0.339
61106W        W24665  40.843  10.855  10.615
61107W        W24666   9.222  28.477   0.469
61108W        W24667  43.355   1.480  14.331
61109W        W24668  13.735  23.697  10.895
61110W        W24669   0.934  20.163  14.931
61111W        W24670  10.329  31.053  11.416
61112W        W24671  34.441   0.951  12.348
61113W        W24672  43.367   0.411   0.914
61114W        W24673  12.145  11.306  11.548
61115W        W24674  41.480   3.266   4.828
61116W        W24675  33.027  42.006  13.926
61117W        W24676  20.669  30.499   1.891
61118W        W24677  17.239   8.207   4.234
61119W        W24678  24.642  17.678   0.896
61120W        W24679  10.154   6.304  13.316
61121W        W24680   9.269   0.878  14.810
61122W        W24681  20.671  38.546  11.055
61123W        W24682  43.795  25.996   1.336
61124W        W24683  24.704  11.744   3.737
61125W        W24684  12.118  32.052   2.786
61126W        W24685  38.977  20.761  10.932
61127W        W24686  31.908  28.139   1.411
61128W        W24687   5.292   8.382   1.880
61129W        W24688  23.699  39.997  11.049
61130W        W24689  29.487  16.806   0.744
61131W        W24690  19.575  34.953  14.864
61132W        W24691  19.191  44.817  14.784
61133W        W24692   2.742  21.086  11.105
61134W        W24693  28.138  18.633   1.379
61135W        W24694  41.478  43.797  14.003
61136W        W24695  23.077  26.003  11.484
61137W        W24696  11.282  28.082   1.405
61138W        W24697  14.608   2.791   1.877
61139W        W24698  41.485   4.824   4.610
61140W        W24699  38.862  25.488  12.420
61141W        W24700  22.112  27.602   9.989
61142W        W24701   1.942  27.475   2.307
61143W        W24702  27.500  41.503  14.987
61144W        W24703  14.762   0.470  11.404
61145W        W24704  18.630  29.476  11.413
61146W        W24705  11.705  22.524   2.265
61147W        W24706   8.309  13.711  13.001
61148W        W24707  11.332  43.270  11.050
61149W        W24708  43.894  15.691   3.808
61150W        W24709  26.995  12.174   0.467
61151W        W24710  13.639  34.891   3.253
61152W        W24711  42.434  34.505  12.402
61153W        W24712  29.071  42.370   1.400
61154W        W24713  19.624  35.045   0.475
61155W        W24714  43.514  31.477   3.278
61156W        W24715   3.823  41.337   0.893
61157W        W24716   7.761  11.219   0.332
61158W        W24717  39.900  40.867   4.711
61159W        W24718  25.565   1.927  13.354
61160W        W24719  42.526  35.573   2.245
61161W        W24720  21.641  27.149   5.695
61162W        W24721  25.588  41.502   3.660
61163W        W24722   0.745  43.769  13.528
61164W        W24723   3.382  28.566  11.887
61165W        W24724  23.713  32.930   0.872
61166W        W24725  23.699  13.291   3.232
61167W        W24726  18.271  13.216  11.419
61168W        W24727  32.435  21.252   3.304
61169W        W24728  29.534  43.281  13.035
61170W        W24729  13.642  23.206  11.873
61171W        W24730  22.191  29.621  14.458
61172W        W24731   8.281  19.143  12.057
61173W        W24732  37.866  14.608   2.197
61174W        W24733   2.396   9.220  13.813
61175W        W24734  22.542   0.332  11.458
61176W        W24735  12.241   1.753  10.626
61177W        W24736  16.638   4.836   1.740
61178W        W24737  12.171  14.822   4.215
61179W        W24738  37.974  12.720  14.436
61180W        W24739  20.037  13.677   2.279
61181W        W24740  16.186   0.404   3.867
61182W        W24741  20.597  16.167   3.863
61183W        W24742   0.879  24.500  12.345
61184W        W24743  27.088  30.081   4.726
61185W        W24744  19.210   2.314   4.729
61186W        W24745  30.089   3.748  13.804
61187W        W24746  30.121  21.099  14.406
61188W        W24747  42.474  22.705   4.210
61189W        W24748  43.006  44.962  12.395
61190W        W24749  28.498  22.252  11.103
61191W        W24750  43.774  38.002   3.246
61192W        W24751  13.738   0.372  14.286
61193W        W24752   9.731  34.102  11.596
61194W        W24753  40.895  28.960  11.986
61195W        W24754  35.085  37.553   5.132
61196W        W24755   3.921  10.260   3.670
61197W        W24756  25.127  28.030  10.631
61198W        W24757  31.145  33.386  12.961
61199W        W24758  27.583   7.759   2.828
61200W        W24759  36.473  37.891   2.781
61201W        W24760  22.207  30.089  14.504
61202W        W24761   9.849  42.421   1.921
61203W        W24762  17.562  20.727  14.811
61204W        W24763  18.574  32.486  11.596
61205W        W24764  41.889  44.907  10.534
61206W        W24765  30.029  10.342   1.785
61207W        W24766  37.554  25.691  11.928
61208W        W24767  10.282  17.227   0.903
61209W        W24768  31.902  11.810   4.695
61210W        W24769  27.051  26.963   0.822
61211W        W24770   0.488   3.406   4.260
61212W        W24771  21.515  43.865  10.587
61213W        W24772   5.425   9.801  11.040
61214W        W24773   3.364  32.127  11.954
61215W        W24774  25.049  44.776   4.674
61216W        W24775  21.725  34.887  11.971
61217W        W24776  16.270  26.165   3.339
61218W        W24777   1.884  14.684  13.023
61219W        W24778  40.370   0.876  11.408
61220W        W24779  29.126  36.491  11.961
61221W        W24780  17.248  31.446   1.213
61222W        W24781  41.476   0.880   1.922
61223W        W24782  13.837  31.412   3.759
61224W        W24783  37.042   4.847   2.321
61225W        W24784  35.971   3.725  12.368
61226W        W24785  37.916  11.848  12.479
61227W        W24786  32.580  44.356   3.260
61228W        W24787  13.794  38.941  12.398
61229W        W24788  33.458  42.506   1.821
61230W        W24789   3.747   3.444   0.288
61231W        W24790  11.630  13.111   3.700
61232W        W24791  28.178  41.014   0.455
61233W        W24792  19.270  37.506  14.017
61234W        W24793  13.649  39.467   2.665
61235W        W24794  28.602  38.984   0.396
61236W        W24795  16.189  13.227  12.994
61237W        W24796  43.461  12.695   3.663
61238W        W24797  20.625  19.226  14.312
61239W        W24798  34.079  34.599  11.380
61240W        W24799   2.458  20.170  14.403
61241W        W24800  23.712  22.177  12.901
61242W        W24801  25.519  17.652  11.895
61243W        W24802  21.032   8.762   0.412
61244W        W24803  10.753  18.182   0.868
61245W        W24804  30.579  40.462  13.869
61246W        W24805  29.930   9.339  11.925
61247W        W24806  38.499   6.863  12.056
61248W        W24807   9.315  27.145  14.430
61249W        W24808  38.996  42.385   2.748
61250W        W24809  41.497  14.332   2.814
61251W        W24810  31.463  41.367   0.891
61252W        W24811   8.703  38.999   3.381
61253W        W24812  13.803   0.989   2.847
61254W        W24813  12.703  10.747   2.706
61255W        W24814  36.918   9.880  10.493
61256W        W24815  18.070  37.913   1.315
61257W        W24816   4.258  24.110   1.428
61258W        W24817  34.402  15.765   0.902
61259W        W24818  25.170   8.892   3.772
61260W        W24819  19.534  30.913   4.609
61261W        W24820  39.979  25.488  14.311
61262W        W24821  12.743  44.988   0.731
61263W        W24822  37.578  10.371  14.781
61264W        W24823  32.090  27.158   0.930
61265W        W24824   1.889  44.915  11.021
61266W        W24825  36.479  38.563  11.871
61267W        W24826   0.908   3.806  13.328
61268W        W24827  37.357  26.972  11.890
61269W        W24828  42.320  29.004  12.528
61270W        W24829  32.564   4.731  10.644
61271W        W24830  16.197  19.114  12.411
61272W        W24831  15.810  25.181  11.911
61273W        W24832  20.127  25.496   0.946
61274W        W24833  35.540   0.285  12.541
61275W        W24834  13.605  35.890  13.417
61276W        W24835  26.203   8.688  12.051
61277W        W24836  25.649   2.849   0.296
61278W        W24837   2.448  16.755  10.504
61279W        W24838  10.640  27.585  12.078
61280W        W24839  31.076   6.878  10.448
61281W        W24840  28.090  30.538  11.405
61282W        W24841  16.152  15.169  11.918
61283W        W24842  31.447  38.398  12.876
61284W        W24843  42.501  25.184   4.244
61285W        W24844  32.991   8.814   9.973
61286W        W24845  30.125  38.921  12.970
61287W        W24846  31.901  35.903  12.435
61288W        W24847  43.921  44.331  10.472
61289W        W24848  37.444  11.653  11.079
61290W        W24849  15.788  36.389   3.637
61291W        W24850   5.867  23.990   4.639
61292W        W24851  33.066  40.920   3.708
61293W        W24852  28.617  37.566   4.217
61294W        W24853  14.595  44.885   3.216
61295W        W24854   1.766  26.095   4.607
61296W        W24855   5.750  20.697  13.973
61297W        W24856  21.594  34.863  13.970
61298W        W24857  23.584   4.830  12.372
61299W        W24858  29.977  37.980   1.233
61300W        W24859  43.832  44.931   1.323
61301W        W24860   0.870  21.589  10.449
61302W        W24861  41.873  43.434   4.207
61303W        W24862  16.572  11.715  11.887
61304W        W24863  13.223  33.990  11.551
61305W        W24864  26.966  40.444   0.380
61306W        W24865  18.580  10.160  12.353
61307W        W24866  43.368  34.434   0.407
61308W        W24867  19.560   0.905  14.490
61309W        W24868  41.383  42.412   4.644
61310W        W24869  13.271   4.231  11.496
61311W        W24870  26.668  37.910  12.961
61312W        W24871  43.384   8.231  14.803
61313W        W24872  24.495  32.056  12.976
61314W        W24873   3.847  35.554  12.916
61315W        W24874  16.202  17.119  11.878
61316W        W24875  17.088  44.368  14.889
61317W        W24876  37.891   4.704  14.477
61318W        W24877  43.341  44.764   4.667
61319W        W24878  14.835  16.662   1.910
61320W        W24879  31.437  15.086   2.240
61321W        W24880   8.179  24.056  14.013
61322W        W24881  31.997  29.984   4.347
61323W        W24882  16.244   7.788   9.560
61324W        W24883  22.501  25.143  12.560
61325W        W24884   1.463  42.318   1.928
61326W        W24885  26.976  25.488   1.871
61327W        W24886  19.560  22.049   0.293
61328W        W24887  30.621   5.363  13.364
61329W        W24888   3.263  18.565  12.355
61330W        W24889  18.171  22.021   1.418
61331W        W24890  16.770  22.550  14.490
61332W        W24891  28.634  40.009   2.739
61333W        W24892  32.496  11.309   3.746
61334W        W24893  23.733  40.929  12.970
61335W        W24894  30.538  37.921  14.921
61336W        W24895  13.113  34.386  12.365
61337W        W24896  35.101   4.926   1.341
61338W        W24897   2.385  43.433  10.466
61339W        W24898  20.129  20.751   0.731
61340W        W24899  27.088   4.906  13.531
61341W        W24900  22.605  18.663  12.375
61342W        W24901  39.043  18.571  13.369
61343W        W24902  39.314  27.465   2.309
61344W        W24903  42.781  40.038   4.275
61345W        W24904  24.711  38.914   1.267
61346W        W24905  22.579  43.899   0.383
61347W        W24906   5.438  19.629  10.626
61348W        W24907  18.188   4.932   3.834
61349W        W24908  28.175   1.403   2.877
61350W        W24909  22.647   0.839  11.031
61351W        W24910   5.368  38.064   2.254
61352W        W24911  12.263  35.055   1.710
61353W        W24912  42.866   7.865  11.048
61354W        W24913  21.206   3.730  13.865
61355W        W24914  34.044  22.153  12.448
61356W        W24915  16.155  19.756   1.372
61357W        W24916  33.922  17.587  13.371
61358W        W24917   3.896  30.445  14.513
61359W        W24918  23.524   2.761   1.785
61360W        W24919  28.032  26.123   2.331
61361W        W24920  22.051  36.872   3.295
61362W        W24921   5.326  10.729  10.477
61363W        W24922   4.355  20.148  14.026
61364W        W24923  11.727  11.321  12.056
61365W        W24924  21.601  36.406   3.717
61366W        W24925  42.928  22.228   2.308
61367W        W24926  39.883  29.452  12.518
61368W        W24927  10.257  12.210  11.530
61369W        W24928   6.725   3.828   2.342
61370W        W24929  22.706  24.219   3.231
61371W        W24930  17.281  32.124   1.289
61372W        W24931  25.637   4.892  11.598
61373W        W24932  22.537  20.531   0.958
61374W        W24933  26.583  29.019  14.322
61375W        W24934   0.477  21.735  11.382
61376W        W24935  32.070   9.288   9.561
61377W        W24936  25.098  34.964   4.187
61378W        W24937  17.122   5.836   3.263
61379W        W24938  20.247  31.613   0.414
61380W        W24939  33.507  13.133  13.331
61381W        W24940   3.239   6.350  10.434
61382W        W24941  22.624  38.404  12.566
61383W        W24942   6.696  38.902  10.109
61384W        W24943   1.429   9.187   2.233
61385W        W24944   7.771  40.827  11.585
61386W        W24945  41.431  15.610  12.895
61387W        W24946  21.116   4.700   1.930
61388W        W24947  42.441  34.444   4.606
61389W        W24948  10.360  38.355  11.026
61390W        W24949  17.780   6.912   4.731
61391W        W24950  26.025  31.980   4.602
61392W        W24951  44.835  44.815   0.378
61393W        W24952  20.633  42.907   0.334
61394W        W24953  44.874  26.191  14.815
61395W        W24954  11.289  43.399   0.871
61396W        W24955  15.674  16.609   4.670
61397W        W24956  32.934  42.821  10.439
61398W        W24957  38.466  40.936  11.125
61399W        W24958  28.054  13.324   1.217
61400W        W24959  10.793   2.319  10.479
61401W        W24960  34.994  41.902   1.445
61402W        W24961  42.873  35.880  14.814
61403W        W24962  26.132  20.230  10.888
61404W        W24963   2.726  11.753   3.797
61405W        W24964  38.420   3.408  14.436
61406W        W24965  19.131  20.256   1.874
61407W        W24966  31.589  44.007  10.932
61408W        W24967  25.029   3.415   1.306
61409W        W24968  37.500  41.438   3.851
61410W        W24969  10.263   5.752   3.657
61411W        W24970   0.847   4.845   2.882
61412W        W24971  36.474  20.550  12.460
61413W        W24972   3.304  20.229  12.858
61414W        W24973  38.927  44.872   0.867
61415W        W24974  13.345  40.976   2.716
61416W        W24975  37.496  41.304  13.813
61417W        W24976  11.268  36.951  13.894
61418W        W24977  35.063  22.173  12.001
61419W        W24978  39.449  16.110  14.880
61420W        W24979  40.401  19.589   2.836
61421W        W24980  33.932  18.785  14.365
61422W        W24981   7.813  20.548   4.353
61423W        W24982  42.514  28.482  13.834
61424W        W24983  14.734   6.763  14.407
61425W        W24984  42.950  19.276  12.986
61426W        W24985  32.566  32.977  14.979
61427W        W24986  42.890  15.176  12.350
61428W        W24987  16.729  30.648  14.452
61429W        W24988  24.215  35.370  13.009
61430W        W24989  33.993  21.052  12.500
61431W        W24990   7.758  22.535   9.986
61432W        W24991  12.687  39.808  10.637
61433W        W24992  15.653   2.923   0.841
61434W        W24993   5.234   6.242  10.470
61435W        W24994  15.689  43.925   1.859
61436W        W24995  19.663   2.273   5.187
61437W        W24996  30.659  22.083  10.537
61438W        W24997   7.414  20.727   3.147
61439W        W24998  18.113   4.916  12.550
61440W        W24999  44.342  31.926  10.467
61441W        W25000  33.944  24.613  11.909
61442W        W25001  21.048  28.544  13.306
61443W        W25002  44.870  15.215  11.969
61444W        W25003   6.211  15.307  14.880
61445W        W25004  38.370   4.287   3.344
61446W        W25005   2.277   0.896   0.758
61447W        W25006  26.967   2.962  14.368
61448W        W25007  41.826  36.386  11.033
61449W        W25008  40.856  19.573   4.799
61450W        W25009  25.179  37.057   1.816
61451W        W25010   0.335  22.043  14.766
61452W        W25011  28.609  20.041  12.914
61453W        W25012  18.577   9.239   1.889
61454W        W25013  25.510  15.271  14.822
61455W        W25014  33.012   9.692  14.426
61456W        W25015  30.034   5.244  14.794
61457W        W25016  10.254  25.603   0.891
61458W        W25017   2.786  29.076   1.757
61459W        W25018   7.347  18.613   3.184
61460W        W25019  20.720  26.173   2.844
61461W        W25020  26.997  27.163   4.831
61462W        W25021  37.944   2.937  14.924
61463W        W25022  13.614  18.744   3.731
61464W        W25023  30.542  26.127  12.909
61465W        W25024   3.410  17.075   3.156
61466W        W25025  12.855   0.747   3.837
61467W        W25026  37.861   7.214   3.685
61468W        W25027   1.838  30.977   4.826
61469W        W25028   4.700  40.351   1.887
61470W        W25029  38.459  29.458   0.371
61471W        W25030  16.669  14.255  12.465
61472W        W25031  38.456   8.351  11.964
61473W        W25032  23.550   5.215   1.262
61474W        W25033  40.888  28.069   1.878
61475W        W25034  30.102  16.688   4.201
61476W        W25035  37.537  29.546   5.319
61477W        W25036  34.957  23.719  13.443
61478W        W25037  14.615   2.353   1.739
61479W        W25038   4.337   6.184   1.831
61480W        W25039  40.979  34.953  12.996
61481W        W25040   5.301  30.479   4.787
61482W        W25041  28.545  15.123   1.266
61483W        W25042  43.968  22.120  10.959
61484W        W25043  35.480   0.345  13.058
61485W        W25044  43.844  29.523  12.365
61486W        W25045   0.844  36.845  12.052
61487W        W25046  20.136  11.256   4.353
61488W        W25047  24.673  22.718   5.287
61489W        W25048  40.336  18.216  13.805
61490W        W25049  32.940   2.246   3.819
61491W        W25050   4.781   0.946   4.143
61492W        W25051  43.407  25.043   0.894
61493W        W25052  10.269   0.359  10.505
61494W        W25053   3.778  34.583   9.947
61495W        W25054  44.885  16.305   1.219
61496W        W25055  23.551  29.952  14.332
61497W        W25056  19.628  42.031   2.399
61498W        W25057  29.168  38.978   2.250
61499W        W25058  42.393  27.597  12.380
61500W        W25059  41.915  13.677  10.517
61501W        W25060  19.658  35.444  11.872
61502W        W25061  32.611  19.213  12.930
61503W        W25062   8.687   7.894  10.921
61504W        W25063  35.598  28.969   0.758
61505W        W25064  18.250  33.899  12.530
61506W        W25065  38.564   8.213   0.318
61507W        W25066   9.344   4.289  11.456
61508W        W25067   6.827  11.209  12.486
61509W        W25068  32.026   0.854   2.389
61510W        W25069  22.117  12.702  10.486
61511W        W25070  15.678  24.679  13.995
61512W        W25071  33.054  11.129  13.394
61513W        W25072  11.673   4.282   1.355
61514W        W25073  20.758  16.224   2.731
61515W        W25074  43.375  22.605   4.255
61516W        W25075  33.547  17.135  12.855
61517W        W25076  38.915  12.330  14.018
61518W        W25077   1.319  18.553  11.001
61519W        W25078  13.139  40.526   3.154
61520W        W25079   6.407  19.686  11.919
61521W        W25080  38.557  41.307  10.628
61522W        W25081   4.288  43.271  10.566
61523W        W25082   6.389  39.881   4.773
61524W        W25083  13.841  40.387  11.117
61525W        W25084  28.519  11.785   9.937
61526W        W25085  34.101  10.833   4.808
61527W        W25086  31.451  20.100  14.334
61528W        W25087  27.007  33.382  12.922
61529W        W25088  14.136  16.580  14.827
61530W        W25089  36.086   3.923   1.799
61531W        W25090   6.801  28.528   0.280
61532W        W25091  15.653   4.248   0.261
61533W        W25092   5.732  25.076  12.859
61534W        W25093   1.887  39.389  14.502
61535W        W25094   6.419  27.546  11.419
61536W        W25095  37.843  28.590  12.414
61537W        W25096  26.015  15.685  14.905
61538W        W25097  12.701  29.928   4.173
61539W        W25098  25.570  21.042   0.873
61540W        W25099  32.101  12.309   3.280
61541W        W25100  22.144  19.215   1.738
61542W        W25101  30.926   1.383  14.909
61543W        W25102  10.677   7.324  11.580
61544W        W25103  42.354  21.253   0.886
61545W        W25104  21.715  11.274   2.222
61546W        W25105  35.600  14.282   2.280
61547W        W25106   0.326  10.822   1.752
61548W        W25107   4.361  34.928  10.407
61549W        W25108  28.187  25.142  13.528
61550W        W25109  39.521  31.524   1.767
61551W        W25110  17.738   3.257  11.876
61552W        W25111  34.899  44.279  12.433
61553W        W25112  31.432   0.817  11.952
61554W        W25113  44.879  13.197   1.852
61555W        W25114  33.472  29.501  10.991
61556W        W25115  27.139  22.616  14.886
61557W        W25116  11.653  39.044   1.788
61558W        W25117  23.089   1.330  12.918
61559W        W25118  32.450  33.416   0.754
61560W        W25119  23.578   6.258   4.647
61561W        W25120  39.463  23.996   4.206
61562W        W25121   6.229  20.537   4.142
61563W        W25122   7.374  38.033   1.911
61564W        W25123   4.764  34.561  11.127
61565W        W25124  14.175  43.391   4.294
61566W        W25125   5.729  36.466  10.909
61567W        W25126  43.880  17.776  12.499
61568W        W25127  30.440  20.724  12.413
61569W        W25128  33.381  23.627   3.869
61570W        W25129  24.043  42.359   0.466
61571W        W25130  40.321   7.886  11.547
61572W        W25131  18.580  10.348  14.804
61573W        W25132  32.612  16.249   0.300
61574W        W25133  26.137   7.255  11.442
61575W        W25134  36.475  44.360   0.837
61576W        W25135  28.985  10.865   0.761
61577W        W25136  21.063  35.013  14.334
61578W        W25137  34.005  34.608  13.060
61579W        W25138  17.176  10.736  13.916
61580W        W25139  24.575  38.565   0.926
61581W        W25140  21.184   1.288  12.500
61582W        W25141  29.953  36.988   0.305
61583W        W25142  37.839  26.567   0.961
61584W        W25143  37.349  40.881   3.781
61585W        W25144   8.294  36.894   2.822
61586W        W25145   7.779   7.747   0.335
61587W        W25146  23.991   9.665   2.833
61588W        W25147  18.651  31.513  10.937
61589W        W25148  21.191  10.754  13.024
61590W        W25149   7.834  22.614   0.789
61591W        W25150  11.148  43.835  13.049
61592W        W25151  22.212  10.329  14.432
61593W        W25152  19.721  15.171   0.273
61594W        W25153  15.262  18.153   0.401
61595W        W25154   4.729  18.214   3.731
61596W        W25155  26.143   9.738   1.694
61597W        W25156  20.058  29.104   3.804
61598W        W25157  28.557  25.548   3.360
61599W        W25158  36.047  21.711   2.377
61600W        W25159  21.724  26.589   1.825
61601W        W25160   5.815  31.457   1.912
61602W        W25161  27.004  33.525  10.971
61603W        W25162  31.541  21.031  14.896
61604W        W25163  39.844   1.781   3.364
61605W        W25164   8.766   0.319  11.593
61606W        W25165  13.265  26.617  10.475
61607W        W25166  39.060  31.505  13.063
61608W        W25167   1.364  38.875  11.393
61609W        W25168  11.746  37.888  12.020
61610W        W25169  32.601  10.797   2.691
61611W        W25170  11.362  37.529  13.516
61612W        W25171   5.721  18.295   2.777
61613W        W25172  22.007  35.974  14.450
61614W        W25173   4.705  40.859   2.351
61615W        W25174   6.363   7.406   1.854
61616W        W25175  38.899  29.947   1.365
61617W        W25176  35.027  43.907   3.655
61618W        W25177   6.282   5.841  11.594
61619W        W25178  39.362  38.024  14.409
61620W        W25179  44.004   9.296   2.681
61621W        W25180   4.219  44.861  14.454
61622W        W25181  18.738  40.803  12.967
61623W        W25182  35.052  22.574  12.065
61624W        W25183  30.145  44.936   1.849
61625W        W25184  22.229  12.699   1.927
61626W        W25185  22.102  27.025  13.387
61627W        W25186  18.065   4.231  12.869
61628W        W25187  33.612   0.976  11.062
61629W        W25188   3.335  16.681   2.744
61630W        W25189  40.327   1.843   0.937
61631W        W25190  43.945  13.835   2.667
61632W        W25191   6.824  16.110  12.866
61633W        W25192  36.377  43.404  12.089
61634W        W25193  36.415  41.898   3.778
61635W        W25194  43.835  26.566   3.860
61636W        W25195   0.869  13.623   4.692
61637W        W25196  11.839  17.689  12.548
61638W        W25197  23.019   6.344  12.998
61639W        W25198  30.006  33.621  12.554
61640W        W25199  26.504  24.032   1.252
61641W        W25200   7.380  43.303  13.881
61642W        W25201   7.219  25.024  10.985
61643W        W25202  29.127   1.935  12.894
61644W        W25203  24.012   4.701   3.797
61645W        W25204  15.151  26.580  11.430
61646W        W25205   9.802  22.561  11.867
61647W        W25206  19.738  26.186   3.343
61648W        W25207  30.109  16.154  11.872
61649W        W25208  42.306   5.263   4.675
61650W        W25209  19.664  33.464  11.429
61651W        W25210  44.263  34.445  12.870
61652W        W25211  34.022  20.114  14.836
61653W        W25212  16.254   5.287   2.793
61654W        W25213  34.522   7.802   1.721
61655W        W25214  27.103  11.363  14.501
61656W        W25215   9.354  37.450   0.458
61657W        W25216  32.046  28.962   3.834
61658W        W25217  10.271  18.699   0.774
61659W        W25218   2.955  31.617  10.588
61660W        W25219  17.174  24.520   2.779
61661W        W25220  33.550  40.453  14.471
61662W        W25221   4.700  42.001   1.916
61663W        W25222  41.485  20.536   1.304
61664W        W25223  44.496  34.578  13.993
61665W        W25224  25.159  28.663   2.665
61666W        W25225   5.392  29.628  11.080
61667W        W25226  31.958  37.368  12.017
61668W        W25227  36.067   1.921  12.581
61669W        W25228  37.914   1.282  10.897
61670W        W25229  18.549  10.359  11.127
61671W        W25230  39.491  30.153   0.302
61672W        W25231   3.455   5.828   3.296
61673W        W25232  10.708  31.069  10.427
61674W        W25233  23.180  22.650  12.393
61675W        W25234  35.001  32.008   1.211
61676W        W25235  24.547  12.169   1.831
61677W        W25236  13.792  30.935  11.089
61678W        W25237  12.348  31.559   4.693
61679W        W25238  25.574   7.886  11.571
61680W        W25239  43.368   1.250  10.597
61681W        W25240  37.370  16.250   3.252
61682W        W25241  24.657  30.481  10.899
61683W        W25242  27.456   9.348  13.415
61684W        W25243  34.038  42.370  12.990
61685W        W25244  31.122   3.808   3.667
61686W        W25245  26.673  16.217  12.416
61687W        W25246  19.619  32.061   1.334
61688W        W25247  30.465   8.239  10.525
61689W        W25248   1.831  44.814   2.285
61690W        W25249   4.782  16.812  10.113
61691W        W25250  27.025  31.519   3.230
61692W        W25251   8.259   9.356   3.237
61693W        W25252  23.567  11.698  12.915
61694W        W25253  29.026  42.399  11.510
61695W        W25254   2.243   8.785   1.354
61696W        W25255   3.284  30.125   0.792
61697W        W25256   6.889  39.440   2.247
61698W        W25257   4.327   5.690   3.833
61699W        W25258  42.447  10.691  12.390
61700W        W25259  20.049  17.236  11.049
61701W        W25260   5.438  20.124  14.329
61702W        W25261  30.444  34.379   0.785
61703W        W25262  22.231   9.793  10.630
61704W        W25263  37.833  34.977   3.264
61705W        W25264   3.222  22.088  14.009
61706W        W25265  42.477  29.652  11.486
61707W        W25266  33.430  20.249  12.429
61708W        W25267  21.064  13.258   3.353
61709W        W25268  28.102  13.316  14.469
61710W        W25269  26.966  22.246   3.744
61711W        W25270  44.781  25.533   2.894
61712W        W25271  16.252  40.425   0.966
61713W        W25272  33.067   3.271  11.945
61714W        W25273  29.080  15.754   3.635
61715W        W25274  15.767  31.984   1.222
61716W        W25275  13.778   5.909   0.877
61717W        W25276  28.655   5.256  14.353
61718W        W25277  30.028  33.423  14.846
61719W        W25278  34.605  16.701  14.767
61720W        W25279  20.535   6.779  11.945
61721W        W25280  44.375  29.155  11.564
61722W        W25281   9.377  11.694   2.379
61723W        W25282   3.424  30.457  11.989
61724W        W25283   1.395   4.883  13.838
61725W        W25284  26.501  42.393   3.751
61726W        W25285  13.788  16.091  13.432
61727W        W25286  41.334   0.474  14.885
61728W        W25287  21.740   5.366   3.643
61729W        W25288   3.345  20.147  10.534
61730W        W25289   6.813  25.095  13.520
61731W        W25290  36.919   0.370  12.507
61732W        W25291  23.214  27.146   2.211
61733W        W25292  40.310  44.401  13.488
61734W        W25293  16.242  20.121  11.013
61735W        W25294   4.734  24.215  10.966
61736W        W25295  23.509  23.721   2.871
61737W        W25296   4.306   4.759   3.726
61738W        W25297   2.383  36.989  12.489
61739W        W25298   4.783  42.444   0.407
61740W        W25299   0.365  28.980  11.402
61741W        W25300  16.721  23.705   1.850
61742W        W25301  17.731  28.094  12.968
61743W        W25302  25.108  26.152  11.482
61744W        W25303   1.816  38.466  11.408
61745W        W25304  36.579  38.905  11.124
61746W        W25305   3.844   4.427   4.823
61747W        W25306   1.921  39.844  10.481
61748W        W25307  20.073   0.354   3.687
61749W        W25308  16.100  31.142  14.806
61750W        W25309  25.036  40.524  14.472
61751W        W25310  31.962   4.274   3.186
61752W        W25311   7.375  16.695   4.115
61753W        W25312  28.165  21.212   4.169
61754W        W25313  29.042  38.885   0.442
61755W        W25314  39.347  44.969  11.040
61756W        W25315  13.320  34.513  12.917
61757W        W25316  10.750  40.414   2.338
61758W        W25317   1.257  28.944   4.729
61759W        W25318  12.636   4.350   0.337
61760W        W25319   6.353   8.276   1.376
61761W        W25320  26.979  37.567   0.272
61762W        W25321   1.240  35.497   4.777
61763W        W25322  10.711  17.123   5.083
61764W        W25323   8.782  34.108  10.064
61765W        W25324  29.570   7.889  12.543
61766W        W25325  27.527  14.686  12.952
61767W        W25326   1.476  10.286   0.748
61768W        W25327  12.807  32.484  11.873
61769W        W25328  40.408  25.052  14.449
61770W        W25329   0.352  30.508   2.832
61771W        W25330  23.133  43.349   4.126
61772W        W25331  31.131  44.282  14.841
61773W        W25332  30.924  33.439  14.279
61774W        W25333  33.893  39.453  10.451
61775W        W25334  15.190  23.499   2.802
61776W        W25335  24.545  21.632  11.980
61777W        W25336   8.322  38.433   3.208
61778W        W25337  37.087  29.449   2.231
61779W        W25338  13.605   7.720  10.459
61780W        W25339  29.557  25.093   0.878
61781W        W25340  35.574  42.468  12.568
61782W        W25341  16.314  17.298  13.500
61783W        W25342   4.793  38.073  11.481
61784W        W25343  27.191  40.943   1.887
61785W        W25344  34.087   1.859   1.834
61786W        W25345  40.941  11.813  14.338
61787W        W25346  37.574  21.168   5.110
61788W        W25347  36.928  38.891   2.289
61789W        W25348  43.422  39.892   3.809
61790W        W25349  29.531  20.760  13.445
61791W        W25350  44.971  14.216  12.354
61792W        W25351   4.741  37.502   1.238
61793W        W25352   2.444  41.466  10.059
61794W        W25353  21.186  26.674   2.849
61795W        W25354  10.377   2.389   0.469
61796W        W25355  36.866  35.896   0.314
61797W        W25356  37.567  37.424   4.323
61798W        W25357  42.473   9.232   2.393
61799W        W25358  32.959  31.961  14.455
61800W        W25359   7.212  32.123   1.851
61801W        W25360   3.838   6.318   4.838
61802W        W25361  32.052  11.365   0.459
61803W        W25362  27.468  32.110   0.475
61804W        W25363  43.465  41.952   4.704
61805W        W25364   6.766  40.365   2.179
61806W        W25365  41.960   2.765  10.558
61807W        W25366  32.008  25.502   5.276
61808W        W25367   0.950  16.601   1.750
61809W        W25368  27.997  13.343   1.846
61810W        W25369   7.340  15.663  12.892
61811W        W25370  21.259  40.328   4.256
61812W        W25371  42.901  41.835   2.403
61813W        W25372  13.755   1.939   2.780
61814W        W25373  26.050  17.086   1.826
61815W        W25374  36.425  12.298   4.248
61816W        W25375  41.362   7.327  13.915
61817W        W25376  16.162  11.190  11.548
61818W        W25377  18.609  33.951   1.361
61819W        W25378  29.124  30.010   4.620
61820W        W25379   4.830   8.868  10.567
61821W        W25380  30.951  26.207  13.064
61822W        W25381   1.920   5.800  14.434
61823W        W25382  27.516  44.392   3.247
61824W        W25383   7.726  29.657   2.397
61825W        W25384  39.332   2.914  13.378
61826W        W25385  24.086  28.461  11.483
61827W        W25386   1.313  40.377  14.314
61828W        W25387  26.538  35.497   4.600
61829W        W25388  15.731  30.116  11.944
61830W        W25389  22.154  22.175  14.760
61831W        W25390   8.229  27.097   4.667
61832W        W25391  33.625  19.654   3.796
61833W        W25392  34.029  39.457  11.884
61834W        W25393   5.294   2.798  14.334
61835W        W25394   2.917  32.090  11.004
61836W        W25395  34.914  31.602   0.767
61837W        W25396  15.797  21.099  11.867
61838W        W25397  44.900   7.888   2.858
61839W        W25398  23.018  11.660  11.491
61840W        W25399  37.471  28.624   3.209
61841W        W25400   1.786  27.192  10.937
61842W        W25401  39.410  39.419   0.966
61843W        W25402  30.913   3.743   3.239
61844W        W25403  15.185  42.513  11.994
61845W        W25404  24.090   1.914   1.912
61846W        W25405  21.669  14.791  13.424
61847W        W25406   8.863   4.795  12.549
61848W        W25407  35.506  42.026   2.223
61849W        W25408  29.582  42.895   0.463
61850W        W25409  10.153  40.980   4.623
61851W        W25410   9.644  40.004  14.991
61852W        W25411  17.633   6.342  11.026
61853W        W25412  31.008  10.227  13.797
61854W        W25413  41.360  17.126  13.433
61855W        W25414   1.336  21.725  11.895
61856W        W25415  26.202  17.292   3.648
61857W        W25416  36.497  35.991  12.033
61858W        W25417  35.881   7.295   4.346
61859W        W25418  18.703   3.770   4.654
61860W        W25419   6.407  16.604  13.033
61861W        W25420  16.749   3.864   3.838
61862W        W25421   9.688  18.566  13.416
61863W        W25422  10.138  26.465   3.341
61864W        W25423  35.598  29.092   1.233
61865W        W25424  23.680   2.922   4.597
61866W        W25425  34.567   5.918   1.696
61867W        W25426  37.838   7.794  10.547
61868W        W25427  36.412  16.189  14.326
61869W        W25428  23.181   1.327  10.978
61870W        W25429  10.323  42.317   1.927
61871W        W25430   4.266  20.587   3.161
61872W        W25431  32.042   9.838   2.204
61873W        W25432  13.763  30.456  11.574
61874W        W25433  42.349  38.021   1.447
61875W        W25434  35.594  11.140  12.868
61876W        W25435   0.942  23.045   2.205
61877W        W25436   0.389  19.721   0.876
61878W        W25437  44.474  10.206   4.298
61879W        W25438   8.777  13.250  13.433
61880W        W25439  41.846  28.478  14.900
61881W        W25440  42.455  43.293   1.414
61882W        W25441  26.615  38.819  10.440
61883W        W25442   9.152   2.765  10.985
61884W        W25443   1.384   1.972  14.030
61885W        W25444  21.632  25.182   1.249
61886W        W25445  41.021  31.979   4.735
61887W        W25446   7.269  43.883   1.278
61888W        W25447  42.013  37.959  14.394
61889W        W25448   4.387  21.521  13.315
61890W        W25449  32.581   5.716  13.386
61891W        W25450  40.985  14.309   4.774
61892W        W25451   9.704  39.961  11.601
61893W        W25452   2.883  41.882   0.760
61894W        W25453  44.460  28.121   0.808
61895W        W25454  43.918   7.317  11.493
61896W        W25455  19.071  10.165   0.868
61897W        W25456   6.336  18.671   2.213
61898W        W25457  26.555   4.282   4.342
61899W        W25458  44.806  32.449  10.568
61900W        W25459  18.057  28.139  10.967
61901W        W25460  16.081  34.058  14.869
61902W        W25461   9.662  31.617  10.991
61903W        W25462   6.312  26.667   3.290
61904W        W25463  12.193  13.635   5.104
61905W        W25464  28.587  22.531   3.269
61906W        W25465  21.164  10.752  12.064
61907W        W25466   4.749   8.692   3.680
61908W        W25467   9.379   5.287  10.414
61909W        W25468   4.235  13.792  10.499
61910W        W25469   1.749  35.934   4.153
61911W        W25470  31.470  12.138  10.546
61912W        W25471  35.949  13.324   1.329
61913W        W25472  33.389   3.803  10.454
61914W        W25473  36.972  27.056  13.853
61915W        W25474  10.698  33.126  14.468
61916W        W25475   0.494  35.554   3.361
61917W        W25476  44.418   9.807  10.517
61918W        W25477  35.990   9.257  11.943
61919W        W25478  14.222  13.231  13.037
61920W        W25479  34.059  12.326  11.440
61921W        W25480  15.160  34.046  13.379
61922W        W25481  18.714  37.480   2.841
61923W        W25482   7.778  43.990  11.064
61924W        W25483  40.926  44.441   3.337
61925W        W25484  40.530  12.201   4.212
61926W        W25485   8.675  43.901   4.354
61927W        W25486  37.027  42.912   1.805
61928W        W25487   0.938  33.521   5.124
61929W        W25488  14.828  33.950  14.010
61930W        W25489  37.554  35.543  12.545
61931W        W25490   3.725  30.037  14.862
61932W        W25491  14.695  15.734  11.516
61933W        W25492  21.231   3.942  14.296
61934W        W25493   4.299  42.387  14.377
61935W        W25494   7.179  44.928  10.492
61936W        W25495  25.677  28.977  14.959
61937W        W25496   5.931  36.060   4.312
61938W        W25497  29.441   8.691   1.449
61939W        W25498   8.406  36.555   1.929
61940W        W25499  43.455  18.166  10.475
61941W        W25500  27.678   3.914  14.901
61942W        W25501  16.766   1.770   4.271
61943W        W25502   9.854  19.598   4.160
61944W        W25503  40.816  14.690   4.701
61945W        W25504  19.251  15.744  12.011
61946W        W25505  18.711  25.034  11.025
61947W        W25506  32.490  42.867   0.826
61948W        W25507  13.638   3.864  13.835
61949W        W25508  17.219  33.575   2.331
61950W        W25509  20.080  24.707  11.396
61951W        W25510  28.034   3.928  12.551
61952W        W25511   7.691  40.521   3.785
61953W        W25512  40.946  38.363   4.146
61954W        W25513   2.830  32.400   2.709
61955W        W25514   3.868  13.117  13.982
61956W        W25515   8.224  13.643   2.695
61957W        W25516  37.342  42.369   3.212
61958W        W25517   0.914  37.935   1.862
61959W        W25518  17.797  24.607  12.977
61960W        W25519  33.978  32.539   1.859
61961W        W25520   9.250   7.321   0.422
61962W        W25521  14.260  19.697  10.537
61963W        W25522  30.547  32.552   3.855
61964W        W25523   3.770  44.418  10.513
61965W        W25524  12.342  29.042   1.276
61966W        W25525   9.675  25.528   2.780
61967W        W25526  35.958  40.549  13.892
61968W        W25527  23.998  30.456  12.976
61969W        W25528  27.523  44.447   1.411
61970W        W25529  25.686  40.034  11.948
61971W        W25530  41.356  35.009   4.210
61972W        W25531  13.681  36.471  10.461
61973W        W25532  20.264  35.369  11.539
61974W        W25533   2.257  32.900  14.399
61975W        W25534   5.236  42.311  13.844
61976W        W25535   4.207  10.292   3.278
61977W        W25536  44.338   5.199  11.963
61978W        W25537  24.218  42.879  13.462
61979W        W25538  15.640  32.520  12.551
61980W        W25539  44.760  30.511   3.787
61981W        W25540  16.656  18.754  12.874
61982W        W25541  16.219  44.356   0.260
61983W        W25542  18.287  10.294   4.634
61984W        W25543  14.712  18.584   2.718
61985W        W25544  26.653  23.992  11.389
61986W        W25545  22.070  30.514  13.827
61987W        W25546  29.062  22.034  13.952
61988W        W25547   2.912  33.542   0.366
61989W        W25548  23.590   5.742  14.871
61990W        W25549  29.664  41.415  14.901
61991W        W25550   4.292  12.811  10.591
61992W        W25551  43.782  34.594   1.400
61993W        W25552  19.543   7.263  14.934
61994W        W25553  41.306   2.388  13.866
61995W        W25554  18.173  28.632  12.886
61996W        W25555   8.740  23.576  14.767
61997W        W25556  35.408  14.655   4.770
61998W        W25557  11.841  18.296   0.419
61999W        W25558  14.600  15.315   0.332
62000W        W25559   0.364  17.260  10.487
62001W        W25560  27.621  23.195  12.357
62002W        W25561   1.302  34.601  14.276
62003W        W25562  10.846  13.757  13.456
62004W        W25563   0.428  15.712  14.920
62005W        W25564   5.889  36.092   2.854
62006W        W25565   4.242  19.084  14.916
62007W        W25566  44.932   5.314   0.824
62008W        W25567  20.560   3.720  14.332
62009W        W25568  13.267  42.905  14.926
62010W        W25569  44.364  20.091  11.508
62011W        W25570  16.576  28.557   0.343
62012W        W25571  27.090  18.258  10.957
62013W        W25572  36.351  23.565  14.000
62014W        W25573  20.106  10.706  12.876
62015W        W25574   3.711  34.965  14.433
62016W        W25575  20.542  25.042  12.962
62017W        W25576  41.430  41.853  12.028
62018W        W25577  15.786  36.912   3.375
62019W        W25578   3.239  37.881  13.440
62020W        W25579  43.972  19.579   1.728
62021W        W25580  11.145   4.252   4.128
62022W        W25581  23.207   8.229   0.917
62023W        W25582  15.311  20.259  10.513
62024W        W25583  31.601  11.295   2.676
62025W        W25584   6.330  25.535   1.428
62026W        W25585  11.266  23.059   0.908
62027W        W25586   1.975  37.361  10.508
62028W        W25587  17.171   7.199   2.721
62029W        W25588  30.600  31.626   4.303
62030W        W25589  39.318  10.700  12.979
62031W        W25590   9.393  11.719   1.448
62032W        W25591  33.513  35.054   2.757
62033W        W25592  42.298   1.480  12.452
62034W        W25593   0.476  15.294   0.727
62035W        W25594   8.275  38.848  11.923
62036W        W25595  26.547   2.429   2.190
62037W        W25596  24.108  42.894   0.463
62038W        W25597  23.127  14.763   4.745
62039W        W25598  17.108  34.455   2.250
62040W        W25599  31.640  34.491   0.435
62041W        W25600  11.150   4.421  12.917
62042W        W25601   1.250  38.448   4.704
62043W        W25602  17.168  37.369  10.969
62044W        W25603  20.656  10.750   2.258
62045W        W25604  27.563  20.656  12.530
62046W        W25605  30.926   5.917  11.602
62047W        W25606  30.162  21.100   5.150
62048W        W25607  22.120  37.463  11.088
62049W        W25608  30.502  21.529   2.675
62050W        W25609  22.206   7.278   4.141
62051W        W25610  19.661  25.969  13.837
62052W        W25611  11.313  38.067  14.966
62053W        W25612   4.330  22.613  14.322
62054W        W25613  41.960  15.126   3.670
62055W        W25614  44.427  20.629   2.807
62056W        W25615  24.553  23.504  11.586
62057W        W25616  33.395  30.623  14.348
62058W        W25617  35.910  22.087  12.834
62059W        W25618  19.050  33.460   1.261
62060W        W25619  44.484  38.953  14.512
62061W        W25620  11.676  39.489  13.352
62062W        W25621  10.713   4.335   1.398
62063W        W25622  44.370  17.665   2.207
62064W        W25623   8.236  40.545   0.805
62065W        W25624  39.553  18.100  11.420
62066W        W25625  26.075   9.714   3.707
62067W        W25626   2.310  34.559  12.993
62068W        W25627  17.123   3.448  13.875
62069W        W25628  18.287  29.010  12.988
62070W        W25629  44.472  18.691  12.424
62071W        W25630  11.693  34.882  12.995
62072W        W25631  26.639  42.341  13.357
62073W        W25632  33.988   1.478   2.786
62074W        W25633  26.103  33.437   0.400
62075W        W25634  21.716  43.771   3.321
62076W        W25635  26.985  41.815  11.027
62077W        W25636  25.575  44.495  11.068
62078W        W25637  28.640  20.160  14.416
62079W        W25638  16.269  16.090   4.813
62080W        W25639  24.721  32.953  10.993
62081W        W25640  14.210   6.317   0.869
62082W        W25641  44.004  36.896   3.245
62083W        W25642  12.840  23.697  14.924
62084W        W25643  43.393  22.076  12.557
62085W        W25644  29.035  38.906  13.340
62086W        W25645   4.715  35.022   0.942
62087W        W25646   0.398  22.060  14.473
62088W        W25647  38.416  19.203   1.355
62089W        W25648  21.720  28.570   9.641
62090W        W25649  28.620  41.863   0.816
62091W        W25650   6.184  11.147  14.000
62092W        W25651  22.555  15.151  10.459
62093W        W25652  41.961  19.776   4.814
62094W        W25653  22.537   9.364  12.433
62095W        W25654  19.233  20.124   1.246
62096W        W25655  30.023  37.909   4.355
62097W        W25656   2.339  39.050   1.327
62098W        W25657  37.885  31.419  10.058
62099W        W25658  43.437  15.659   3.222
62100W        W25659  15.666   0.826   0.851
62101W        W25660  36.875   1.356   0.940
62102W        W25661  27.454  26.669  12.922
62103W        W25662  28.570   5.752   0.888
62104W        W25663  40.454  10.193   3.265
62105W        W25664  12.299  19.280   0.335
62106W        W25665  13.667   4.213   2.192
62107W        W25666  15.791  19.671  12.885
62108W        W25667  42.944  10.185  13.942
62109W        W25668   5.252  18.584  11.503
62110W        W25669  33.979   5.205  12.952
62111W        W25670   3.216  43.301   0.274
62112W        W25671  44.958   4.412   4.666
62113W        W25672  19.174   7.180   0.753
62114W        W25673  12.255  34.923   1.244
62115W        W25674  28.562   8.213  13.532
62116W        W25675  10.778  18.648   4.648
62117W        W25676  44.457  12.166  13.415
62118W        W25677  27.556  37.921  10.638
62119W        W25678   9.176  10.704   3.368
62120W        W25679  11.260  25.999   0.740
62121W        W25680  36.905  13.750  12.046
62122W        W25681  13.237  37.367   0.803
62123W        W25682  42.426  32.463  14.828
62124W        W25683  39.890  12.285   3.169
62125W        W25684  26.552  37.361   2.316
62126W        W25685  16.279  25.025  13.482
62127W        W25686  20.221  44.959  11.046
62128W        W25687  24.153  20.181   0.817
62129W        W25688  23.705  11.773   1.702
62130W        W25689   7.817   6.851   3.846
62131W        W25690  30.130  23.184  11.479
62132W        W25691  12.790  34.373  13.482
62133W        W25692  13.195  22.581   9.923
62134W        W25693  26.166  10.366   4.231
62135W        W25694  33.976  36.502   4.281
62136W        W25695  38.925  21.612  10.612
62137W        W25696  10.229  38.979  14.890
62138W        W25697  34.433   2.837   2.193
62139W        W25698  42.398  16.112  12.854
62140W        W25699  25.066  29.037  11.004
62141W        W25700  37.950   0.419  12.823
62142W        W25701   1.311   4.841  14.420
62143W        W25702  38.373  32.126  11.561
62144W        W25703   9.154   7.394   3.632
62145W        W25704   8.243  27.634   1.910
62146W        W25705  32.970  40.463  12.076
62147W        W25706  23.526  17.800  11.420
62148W        W25707  22.153   0.369   1.416
62149W        W25708  23.544   8.366  13.049
62150W        W25709   1.950  39.467  13.930
62151W        W25710   7.411  24.556   4.300
62152W        W25711  42.776  12.799  10.002
62153W        W25712  40.980  15.103  14.459
62154W        W25713  25.469  14.798  11.432
62155W        W25714  27.690  28.968  11.941
62156W        W25715  28.996  19.056  13.063
62157W        W25716  11.720  18.719  11.597
62158W        W25717  17.287  17.581   4.670
62159W        W25718  35.952  33.616   9.657
62160W        W25719   2.745  28.524  10.927
62161W        W25720  37.385  37.564  10.528
62162W        W25721  21.056  40.047  14.449
62163W        W25722   3.791  34.940   1.253
62164W        W25723  40.463   7.674  11.940
62165W        W25724  17.135  43.767   2.267
62166W        W25725   6.795  44.405   0.252
62167W        W25726  29.512  44.811   1.264
62168W        W25727  16.118  10.172   0.732
62169W        W25728  10.221   4.387   5.231
62170W        W25729  13.725  32.082   4.277
62171W        W25730  35.968  24.114   1.372
62172W        W25731  26.700  20.216   4.173
62173W        W25732  30.449  33.596  13.870
62174W        W25733   5.870  11.127   3.250
62175W        W25734   4.361  42.881   2.412
62176W        W25735  17.140   7.265  11.433
62177W        W25736  44.975   5.843   1.716
62178W        W25737  25.102  32.934  14.444
62179W        W25738  40.359   6.718  14.847
62180W        W25739  40.543  13.692  11.530
62181W        W25740  22.233  28.530  11.943
62182W        W25741  39.914  36.567  14.786
62183W        W25742  39.896  32.885   0.830
62184W        W25743  21.249  34.449  10.524
62185W        W25744  25.620  38.463   2.339
62186W        W25745  34.574  16.647  11.875
62187W        W25746  24.992  29.160   4.351
62188W        W25747  12.674  17.588   4.690
62189W        W25748  27.649  44.791   4.297
62190W        W25749  28.132  28.566  10.923
62191W        W25750  26.625  28.681   3.680
62192W        W25751   1.754  10.644  13.021
62193W        W25752   5.344   4.377  14.407
62194W        W25753   7.300   7.801   4.191
62195W        W25754  43.006  16.149   3.790
62196W        W25755  29.621   2.339  12.397
62197W        W25756  37.035  18.082  11.539
62198W        W25757  40.009  35.484   3.379
62199W        W25758   7.855  31.639   0.413
62200W        W25759  34.551  44.800  12.512
62201W        W25760  37.576  27.680   4.623
62202W        W25761   4.875  11.632   0.273
62203W        W25762  42.527  35.871  11.100
62204W        W25763  35.474  29.584  11.507
62205W        W25764  37.374  10.714   4.218
62206W        W25765  43.497  18.208   4.305
62207W        W25766  23.045  29.646  13.986
62208W        W25767   2.328  13.315   4.715
62209W        W25768  23.033  43.459  11.037
62210W        W25769  35.986   9.352   0.948
62211W        W25770  10.365  35.584  11.883
62212W        W25771   0.380  21.183  12.358
62213W        W25772  33.434  11.668   1.925
62214W        W25773  24.192  18.286   3.247
62215W        W25774  22.667   9.309  10.021
62216W        W25775  39.411  43.323  14.440
62217W        W25776   4.932  22.531   2.200
62218W        W25777   7.300  21.170  12.478
62219W        W25778  35.873  23.206  11.570
62220W        W25779  22.525  14.759   4.740
62221W        W25780  39.513   9.830   4.838
62222W        W25781  33.892  13.615   0.961
62223W        W25782  26.592  33.423  12.876
62224W        W25783   7.307  15.203  12.528
62225W        W25784   9.296  25.621   1.410
62226W        W25785   4.737  37.341   5.143
62227W        W25786  15.293  22.164   4.755
62228W        W25787  39.372  19.668  13.526
62229W        W25788  44.377   9.354  11.094
62230W        W25789  32.493  36.445  11.519
62231W        W25790   3.796  35.003   2.717
62232W        W25791   4.242  24.003   4.835
62233W        W25792  34.412   3.233  13.957
62234W        W25793  33.896   9.886   1.254
62235W        W25794  35.920  33.996   2.264
62236W        W25795  31.071  28.450   3.166
62237W        W25796  29.065  14.236   3.192
62238W        W25797  32.966   9.242   4.197
62239W        W25798   4.355  10.211   4.644
62240W        W25799  26.529  27.061   1.732
62241W        W25800   9.758   4.912   5.165
62242W        W25801  12.681   0.303   0.401
62243W        W25802   9.764  40.864  11.071
62244W        W25803   2.728  30.061  13.936
62245W        W25804  33.007  19.737   1.382
62246W        W25805  20.204  11.238   3.653
62247W        W25806  35.090   7.334   3.651
62248W        W25807  19.646  27.970   1.925
62249W        W25808  30.495  33.980   1.284
62250W        W25809  27.068  23.630   0.866
62251W        W25810  12.795  14.263  12.544
62252W        W25811  36.363  12.174  10.543
62253W        W25812   5.324  41.868   4.781
62254W        W25813  35.604   0.753  13.472
62255W        W25814  26.152  29.608   1.783
62256W        W25815   1.840  12.797  13.791
62257W        W25816   5.386  35.555   0.454
62258W        W25817   5.213  41.910   1.759
62259W        W25818  28.668  33.491   2.253
62260W        W25819  22.625  30.420  13.931
62261W        W25820  44.760  10.817  12.396
62262W        W25821  24.666  16.796  10.913
62263W        W25822  35.445  26.639   2.900
62264W        W25823  16.317  12.674   0.449
62265W        W25824  17.208   5.692  13.873
62266W        W25825  29.144  36.007   0.424
62267W        W25826  18.247   1.889  14.934
62268W        W25827   4.794  20.654   1.734
62269W        W25828   6.833  39.511  12.362
62270W        W25829  42.374   1.771  11.074
62271W        W25830   9.258   5.761   2.723
62272W        W25831  31.427  27.622   0.256
62273W        W25832   2.778  37.526  11.070
62274W        W25833  35.477   6.245   2.302
62275W        W25834   0.277  26.617   0.873
62276W        W25835  37.916   1.896   2.214
62277W        W25836  24.553  13.330   1.265
62278W        W25837  25.057  25.033   3.829
62279W        W25838   5.228  34.912  12.574
62280W        W25839   5.307  18.194   4.340
62281W        W25840  34.020  26.477   2.284
62282W        W25841  16.076   0.387  13.807
62283W        W25842  31.014   4.706  13.433
62284W        W25843   2.364  10.754  10.540
62285W        W25844  30.163  44.360  10.981
62286W        W25845  42.489  18.212   3.364
62287W        W25846   7.847  18.156  11.857
62288W        W25847  24.062   9.253  11.942
62289W        W25848   1.345  26.990   1.797
62290W        W25849  41.498  20.170   0.892
62291W        W25850   8.238   6.345   2.343
62292W        W25851   7.747  11.724   4.216
62293W        W25852   8.324  37.401  12.383
62294W        W25853  37.411  25.015   1.734
62295W        W25854  34.910  15.305   3.816
62296W        W25855  12.770  10.187   0.808
62297W        W25856  38.446  17.169   1.385
62298W        W25857  22.207  30.490   1.707
62299W        W25858  15.580  44.862   4.706
62300W        W25859  19.638  27.064   4.720
62301W        W25860  36.068  25.163   2.254
62302W        W25861  28.023   6.301  11.607
62303W        W25862  17.213  32.426  14.360
62304W        W25863   2.782  11.350   2.283
62305W        W25864  42.412  15.783  11.020
62306W        W25865  30.585   9.166  14.898
62307W        W25866  16.607  13.651  13.953
62308W        W25867   1.467  32.969   1.737
62309W        W25868  31.048  10.819  11.590
62310W        W25869  20.621   9.789   4.330
62311W        W25870  25.163  10.285  14.808
62312W        W25871   2.263   4.775  11.468
62313W        W25872  37.958   9.255   4.687
62314W        W25873  30.485  18.218   2.185
62315W        W25874  34.079   7.314   5.786
62316W        W25875  21.075  42.787  12.877
62317W        W25876   5.813  22.047   2.314
62318W        W25877  24.214   5.397  11.884
62319W        W25878  14.169  44.756   4.652
62320W        W25879  14.133  44.469   3.849
62321W        W25880  39.488  30.466   2.688
62322W        W25881  43.924  41.825  13.912
62323W        W25882  29.605  29.169  11.612
62324W        W25883  44.851  28.089   3.654
62325W        W25884  39.456  23.504   1.281
62326W        W25885  44.956   2.464  14.489
62327W        W25886  22.226   5.928   3.839
62328W        W25887   4.388  17.178  14.372
62329W        W25888  20.138  40.873  14.282
62330W        W25889  10.687  35.879   1.339
62331W        W25890  10.865   6.751   0.862
62332W        W25891  12.727  32.130   5.321
62333W        W25892  26.676  23.655  14.422
62334W        W25893  30.553  27.959  10.486
62335W        W25894  37.337  28.995   1.251
62336W        W25895  39.012  37.838   3.292
62337W        W25896  35.433  19.699  10.602
62338W        W25897  14.737   0.355  12.039
62339W        W25898  17.171  44.852  11.462
62340W        W25899  18.082  13.807   1.759
62341W        W25900   7.246  27.589   1.899
62342W        W25901  41.004  31.511   4.329
62343W        W25902  44.896  35.049  13.023
62344W        W25903  32.041  43.430  11.561
62345W        W25904  44.484  28.644  12.535
62346W        W25905  15.177  24.083   1.801
62347W        W25906  37.944  28.449   2.332
62348W        W25907  40.421  31.443   5.084
62349W        W25908  41.923  20.627  12.437
62350W        W25909  38.859  14.304   4.795
62351W        W25910  25.588  12.200   2.382
62352W        W25911  29.080  30.621  13.462
62353W        W25912  33.132  24.498   4.837
62354W        W25913   6.242  35.462   3.282
62355W        W25914  32.091  21.156  14.281
62356W        W25915  15.234   1.345   0.403
62357W        W25916   1.940  12.716   1.315
62358W        W25917  26.989   8.316  14.463
62359W        W25918  30.034   1.740   2.802
62360W        W25919  15.276  15.694  10.940
62361W        W25920  44.371  14.704  12.510
62362W        W25921   5.292  39.911   2.711
62363W        W25922  24.656  13.118   2.682
62364W        W25923  37.540  33.058   4.689
62365W        W25924  36.904  41.316  13.038
62366W        W25925  11.254  39.818   4.190
62367W        W25926  39.489  18.765   0.382
62368W        W25927   8.751  17.708   1.391
62369W        W25928  36.409  29.149  14.974
62370W        W25929  16.101  25.018   0.930
62371W        W25930   0.914  33.002  14.835
62372W        W25931   5.767  41.943   4.272
62373W        W25932  43.360  10.855   3.634
62374W        W25933  25.579  37.896  14.301
62375W        W25934  16.813   1.340  13.832
62376W        W25935  35.372  43.857  11.433
62377W        W25936  37.084  31.446   3.257
62378W        W25937   7.774  19.732   4.268
62379W        W25938  42.938  43.963   3.764
62380W        W25939  33.056  32.590   2.228
62381W        W25940  20.557  16.805   1.334
62382W        W25941  14.589   1.840   2.208
62383W        W25942  18.223  43.939  12.054
62384W        W25943  32.422   2.768   3.363
62385W        W25944   1.422  28.180  11.381
62386W        W25945  20.562  35.443   3.804
62387W        W25946  25.640   5.325  12.836
62388W        W25947  39.020  36.552   1.224
62389W        W25948   8.245  15.604   3.783
62390W        W25949  13.719  16.098   0.891
62391W        W25950  41.952  36.513   4.335
62392W        W25951   5.203  35.929  14.976
62393W        W25952  37.399  25.134  10.498
62394W        W25953  44.892   1.427  10.405
62395W        W25954  11.280   3.859  11.911
62396W        W25955  30.991  12.360   3.284
62397W        W25956   5.232  38.435  12.415
62398W        W25957   7.883  23.116  13.821
62399W        W25958  12.310   0.294   1.866
62400W        W25959  27.568  18.126  10.456
62401W        W25960   6.748  16.673  11.033
62402W        W25961  29.592  19.053  11.893
62403W        W25962  19.666   0.298  13.425
62404W        W25963  24.152  33.064  13.804
62405W        W25964  35.057  24.616   0.364
62406W        W25965  43.828  31.078  13.532
62407W        W25966   9.830   5.299  12.386
62408W        W25967  29.119  19.771  12.943
62409W        W25968  28.547   2.793   2.394
62410W        W25969  25.974  26.660  14.446
62411W        W25970  16.154  25.699   1.838
62412W        W25971  25.022  19.700  12.056
62413W        W25972  25.194  32.414   0.738
62414W        W25973  39.052  19.576   4.158
62415W        W25974  41.456  25.004   1.282
62416W        W25975  38.840  44.305  14.793
62417W        W25976  43.814  12.198  10.581
62418W        W25977  25.531  43.323  10.638
62419W        W25978  22.741  10.827   3.805
62420W        W25979  22.579  33.003  12.565
62421W        W25980  21.178   3.228  13.798
62422W        W25981  25.001  19.173  12.989
62423W        W25982  18.781  24.715  13.394
62424W        W25983   3.376   4.298  14.362
62425W        W25984   1.740  14.170   3.242
62426W        W25985  24.653  33.068  13.992
62427W        W25986  28.501   7.194   0.777
62428W        W25987  26.580  31.942   4.147
62429W        W25988  32.055  32.102  12.364
62430W        W25989   7.220  36.540   1.700
62431W        W25990  39.808  21.740   2.856
62432W        W25991   4.786  22.006   2.358
62433W        W25992  44.291   6.302   4.829
62434W        W25993  14.621   9.742   2.792
62435W        W25994  15.766  38.862   4.830
62436W        W25995  33.416  16.099  13.398
62437W        W25996  39.371  31.433  14.420
62438W        W25997   0.270  13.736   2.669
62439W        W25998  39.382  29.161  12.554
62440W        W25999   3.806  29.556  14.865
62441W        W26000  38.451  43.323  13.351
62442W        W26001  40.972  30.620  13.061
62443W        W26002  23.532  42.501   2.322
62444W        W26003  11.786  23.082  14.771
62445W        W26004  38.848  12.777   2.304
62446W        W26005  36.960  44.870   0.248
62447W        W26006   5.762  19.180  14.277
62448W        W26007  28.466  23.503   5.083
62449W        W26008  12.766   6.744  13.406
62450W        W26009  40.393  42.391   0.929
62451W        W26010  17.198  25.571  11.039
62452W        W26011  31.599   3.738  11.066
62453W        W26012  11.313   0.943   3.674
62454W        W26013  32.434   9.258   1.294
62455W        W26014  10.352  31.495   1.443
62456W        W26015  15.579  13.219  11.032
62457W        W26016  23.071  18.677   3.860
62458W        W26017   3.391   4.775   0.450
62459W        W26018  36.098  24.161   4.787
62460W        W26019  42.972   2.297   3.384
62461W        W26020  10.323   5.829   2.319
62462W        W26021  18.779  15.707   2.410
62463W        W26022  43.305   5.298   4.664
62464W        W26023  34.375  11.237   9.453
62465W        W26024   3.258  19.166  13.460
62466W        W26025  35.026  30.141   4.724
62467W        W26026  23.659  15.709   3.696
62468W        W26027  41.516  12.685   1.408
62469W        W26028  19.149   9.856   1.261
62470W        W26029  17.193   4.397  14.510
62471W        W26030  33.890  21.653   2.364
62472W        W26031  44.832  41.469  14.278
62473W        W26032  41.981   5.333   4.692
62474W        W26033  44.358  33.959   0.749
62475W        W26034   4.917  31.443  13.052
62476W        W26035  15.141  36.072  12.485
62477W        W26036   9.242  42.320   0.810
62478W        W26037  32.517   1.332   3.331
62479W        W26038  38.565  22.693  13.994
62480W        W26039  28.456  10.356  13.499
62481W        W26040  44.763  30.636  12.367
62482W        W26041  39.375  18.169  11.000
62483W        W26042  35.545  16.693  13.506
62484W        W26043   0.921  37.515   2.315
62485W        W26044  17.088   0.868  11.063
62486W        W26045  16.788   9.749  13.406
62487W        W26046  13.231  21.044  10.547
62488W        W26047   0.452  11.325  13.475
62489W        W26048  13.770  36.956  14.809
62490W        W26049  28.658  20.531   3.782
62491W        W26050   4.393  19.207  11.577
62492W        W26051  34.591  32.439  12.865
62493W        W26052   9.223  20.737   0.242
62494W        W26053   1.297   9.246   4.153
62495W        W26054  16.315  29.439   0.865
62496W        W26055  20.242  28.527  14.957
62497W        W26056  37.433  33.041  13.937
62498W        W26057  34.967  31.068  14.762
62499W        W26058  17.601   0.983   3.250
62500W        W26059  44.958   4.433  12.390
62501W        W26060  24.705  32.461   2.291
62502W        W26061  29.490  23.715   4.290
62503W        W26062  34.060  36.050  13.057
62504W        W26063  23.222  23.701  12.363
62505W        W26064  23.716  35.094   1.341
62506W        W26065  17.776  31.646   1.336
62507W        W26066  10.337  36.050   0.323
62508W        W26067  25.648  35.102   1.776
62509W        W26068  17.245  10.267   4.810
62510W        W26069  42.514   3.927  13.015
62511W        W26070   4.365  27.515   0.928
62512W        W26071  36.549  15.697  13.395
62513W        W26072  33.115   8.893  14.882
62514W        W26073  23.705  43.991  11.983
62515W        W26074  37.875   4.250   3.322
62516W        W26075   7.406   4.393   2.390
62517W        W26076  13.279  25.589  10.897
62518W        W26077   3.766  43.892  14.822
62519W        W26078  22.681   3.737  12.967
62520W        W26079  36.505  24.058   3.768
62521W        W26080  34.092  40.966  14.823
62522W        W26081   9.316  34.435   9.598
62523W        W26082  12.783  37.938  14.378
62524W        W26083  23.056  33.624   3.707
62525W        W26084  15.112  41.827   0.929
62526W        W26085  26.522  17.093   4.153
62527W        W26086  20.115  32.056   1.804
62528W        W26087  36.402  19.662   2.662
62529W        W26088  25.027  25.130   3.378
62530W        W26089  35.884   8.781   1.214
62531W        W26090  30.034  26.037  10.914
62532W        W26091  21.103  37.918  14.020
62533W        W26092   4.394   1.285  11.488
62534W        W26093  20.164  20.116  11.934
62535W        W26094  19.535  26.561   2.799
62536W        W26095  26.641  29.012  12.548
62537W        W26096  35.592  38.492   1.851
62538W        W26097  31.549  16.160  13.852
62539W        W26098  17.221  30.477  10.449
62540W        W26099  32.496  39.510   4.219
62541W        W26100  16.694   3.953  14.435
62542W        W26101  41.324  16.704  13.537
62543W        W26102   4.723  39.931   2.217
62544W        W26103  21.550  32.989   2.392
62545W        W26104   5.361  25.628  10.626
62546W        W26105   8.210   1.424   1.261
62547W        W26106   6.871  38.417  10.582
62548W        W26107   1.461  16.272   1.389
62549W        W26108  30.453  20.244  12.985
62550W        W26109  11.787  17.674  13.474
62551W        W26110  34.554  16.733  11.084
62552W        W26111   8.265  33.932  11.610
62553W        W26112  21.511  38.347   0.290
62554W        W26113   0.796  31.052  12.395
62555W        W26114  42.373  33.460  12.462
62556W        W26115  40.506  10.216  10.632
62557W        W26116  11.365  40.451   3.827
62558W        W26117  41.902  33.077  13.396
62559W        W26118  35.101  17.080  12.916
62560W        W26119  16.185  13.341  14.026
62561W        W26120  10.690   9.833   1.389
62562W        W26121  18.748  27.942  14.977
62563W        W26122  16.615   0.459  12.370
62564W        W26123   5.714   7.852  10.433
62565W        W26124  13.806   7.856   1.356
62566W        W26125  10.365  14.725  14.977
62567W        W26126   6.912  10.704   3.846
62568W        W26127  17.129  34.897   0.477
62569W        W26128  16.685  26.468   4.621
62570W        W26129  12.339  27.190  13.452
62571W        W26130  41.868  16.141  14.450
62572W        W26131  42.370  38.436  10.915
62573W        W26132  24.132   2.360   1.853
62574W        W26133  19.668  39.508  14.938
62575W        W26134  32.022  42.375   4.144
62576W        W26135  31.626  12.210  13.839
62577W        W26136   3.392  14.745  13.513
62578W        W26137  23.633  36.999   2.767
62579W        W26138   4.754  16.697   2.815
62580W        W26139  28.493   8.797  10.995
62581W        W26140  11.802   3.711   4.161
62582W        W26141  41.315  17.254  14.977
62583W        W26142  11.845  24.196  11.966
62584W        W26143  10.300  17.725  12.382
62585W        W26144   9.751  10.172  10.921
62586W        W26145  31.950   2.889   1.882
62587W        W26146   0.866  25.016   0.330
62588W        W26147  43.981  12.615   3.339
62589W        W26148   3.307  33.928  13.360
62590W        W26149  10.321  21.022  14.789
62591W        W26150  37.548  20.677  12.965
62592W        W26151  36.986  11.817   0.338
62593W        W26152  11.139  31.109  12.945
62594W        W26153  12.820  26.479  14.028
62595W        W26154   6.845  33.614  14.385
62596W        W26155  37.474   9.157   0.290
62597W        W26156  32.592  36.931  12.433
62598W        W26157  17.581  13.211  13.885
62599W        W26158  35.099  12.610  14.781
62600W        W26159  26.643   3.819   1.898
62601W        W26160  23.667   2.247  14.021
62602W        W26161  13.163  27.546   0.303
62603W        W26162  24.135  25.066   4.151
62604W        W26163  24.095  40.797  12.382
62605W        W26164  37.510  11.814  12.035
62606W        W26165  39.909  34.940  10.406
62607W        W26166  10.177  32.965   3.347
62608W        W26167  21.204  24.498  11.879
62609W        W26168  30.107  13.844  12.928
62610W        W26169  35.974   0.330   3.316
62611W        W26170  26.968  12.289   1.388
62612W        W26171  18.756  16.091  13.870
62613W        W26172  20.565   0.360   3.644
62614W        W26173  10.866  17.756   0.798
62615W        W26174   0.838  32.944   2.190
62616W        W26175   2.361  33.885   2.765
62617W        W26176  44.993  20.190   3.202
62618W        W26177   1.909  32.025  12.475
62619W        W26178   5.881  32.524   3.732
62620W        W26179  11.641  16.174  13.935
62621W        W26180  32.611  27.126  14.406
62622W        W26181  31.560  43.946  10.635
62623W        W26182  13.321  26.505  10.892
62624W        W26183  13.140  35.558   1.789
62625W        W26184  32.007  16.762  12.901
62626W        W26185  38.419  38.005  14.488
62627W        W26186  42.486  24.205  12.860
62628W        W26187  23.132   9.863   5.083
62629W        W26188  30.475  41.339  13.370
62630W        W26189  12.805  37.984   1.348
62631W        W26190  30.498  38.338  12.920
62632W        W26191  25.072  34.551   0.754
62633W        W26192  41.859   3.907  12.063
62634W        W26193  25.048  31.545   2.813
62635W        W26194   4.873  18.056   3.272
62636W        W26195   5.748  28.099  12.377
62637W        W26196  20.190  11.789   4.696
62638W        W26197   9.854  34.613  14.275
62639W        W26198  25.109  26.480  11.090
62640W        W26199  23.688  33.433  11.462
62641W        W26200  21.169  37.362  14.028
62642W        W26201   9.648  35.000  14.836
62643W        W26202  42.360  20.678   1.766
62644W        W26203  38.533  32.135   1.694
62645W        W26204  43.294  42.405   1.452
62646W        W26205  14.125  36.540   3.780
62647W        W26206   0.358   3.845  10.979
62648W        W26207  33.074  34.548  10.922
62649W        W26208   7.341  17.221  14.861
62650W        W26209  36.052  14.782   4.335
62651W        W26210  43.005  14.624   2.688
62652W        W26211  34.444  39.389  11.576
62653W        W26212  27.513  34.035  11.933
62654W        W26213  22.117   2.255  10.581
62655W        W26214  43.942  19.667  14.797
62656W        W26215  42.953  18.250  12.549
62657W        W26216   3.891  33.562   2.706
62658W        W26217  31.986  22.214  14.916
62659W        W26218  27.193  41.862   1.329
62660W        W26219  36.950   1.314   4.213
62661W        W26220  33.535  15.739  11.957
62662W        W26221   8.800  34.562  13.061
62663W        W26222  35.558   8.716   0.764
62664W        W26223   6.401  17.647   4.827
62665W        W26224  41.320  26.099  13.823
62666W        W26225  42.935   4.328   3.165
62667W        W26226  26.151  29.597  12.556
62668W        W26227  18.232  42.836   4.837
62669W        W26228  25.171  37.015   2.244
62670W        W26229  21.669  15.323  11.914
62671W        W26230  21.147  26.145   0.252
62672W        W26231  39.502  24.707   3.805
62673W        W26232  24.653  43.423  11.885
62674W        W26233  21.058  42.807  14.315
62675W        W26234   6.820  35.568   0.819
62676W        W26235  21.561  36.060   2.325
62677W        W26236  43.855   7.278  13.956
62678W        W26237  12.210  27.588   3.265
62679W        W26238  17.600  26.558  12.864
62680W        W26239  12.773  22.514  14.928
62681W        W26240   1.769   7.180   1.768
62682W        W26241  41.025  13.181  13.365
62683W        W26242  31.060  36.992   3.170
62684W        W26243   5.414   7.843  12.547
62685W        W26244   9.249  39.912  13.921
62686W        W26245   7.364  19.062  10.509
62687W        W26246  34.498  16.616   3.837
62688W        W26247  22.729  29.438  10.953
62689W        W26248  12.124  24.518   1.218
62690W        W26249  12.265   0.900  13.912
62691W        W26250  40.529  28.981  11.063
62692W        W26251  13.829   2.880  14.391
62693W        W26252  22.690  31.484  14.337
62694W        W26253   2.740  10.750  10.406
62695W        W26254  26.955   8.794   1.813
62696W        W26255   6.780  42.377   4.323
62697W        W26256  42.387  21.512  11.876
62698W        W26257  38.836  39.891   1.935
62699W        W26258   2.937   1.328   2.680
62700W        W26259  10.799  37.429   4.219
62701W        W26260  37.518   0.896  10.890
62702W        W26261  42.994  33.619  10.606
62703W        W26262  24.660  36.929   4.245
62704W        W26263  28.161   5.315  11.554
62705W        W26264  31.986  14.174   2.215
62706W        W26265  24.575  44.358   3.700
62707W        W26266  33.477   1.846  12.893
62708W        W26267  40.908  23.511   2.187
62709W        W26268  32.910  23.512  11.998
62710W        W26269  11.673  31.147  12.838
62711W        W26270  14.291  28.045   3.678
62712W        W26271  30.106  21.694   0.456
62713W        W26272  35.023  34.396   0.276
62714W        W26273   1.445   8.311  13.053
62715W        W26274  31.498   4.804  13.438
62716W        W26275  21.098  30.612  14.420
62717W        W26276  33.996  18.743   2.215
62718W        W26277  22.134  31.069   0.818
62719W        W26278  31.571  36.548  10.897
62720W        W26279  12.172  43.356   0.836
62721W        W26280  38.540  31.474  14.358
62722W        W26281  27.155   7.417   1.780
62723W        W26282   8.872  34.501   3.828
62724W        W26283   0.932  19.666   5.089
62725W        W26284  19.667  39.913   1.826
62726W        W26285  29.635   4.361  11.444
62727W        W26286  23.133  41.007  12.435
62728W        W26287   9.333  44.345   3.235
62729W        W26288  24.169  23.701  11.971
62730W        W26289  44.427  15.629  12.428
62731W        W26290   6.859  43.877  10.978
62732W        W26291  30.058  15.715  13.054
62733W        W26292  16.689  22.502   0.481
62734W        W26293  17.802  17.083  11.109
62735W        W26294  28.505  31.034  11.035
62736W        W26295   7.305  19.216  13.866
62737W        W26296  17.564   8.741   4.724
62738W        W26297   5.894  20.605   3.795
62739W        W26298  43.918  14.758  11.593
62740W        W26299  24.125  28.491   2.736
62741W        W26300  24.980  41.354  10.488
62742W        W26301  18.758  29.036  12.091
62743W        W26302  30.424  13.730  10.983
62744W        W26303  22.209  29.591   0.754
62745W        W26304  21.598  22.734  14.481
62746W        W26305  22.651   3.803  11.023
62747W        W26306  32.496  42.360  13.064
62748W        W26307  13.184  31.513   2.373
62749W        W26308  23.201  29.157   2.397
62750W        W26309   4.895  36.449   2.332
62751W        W26310   9.673  27.575   1.858
62752W        W26311   1.973  13.136  14.367
62753W        W26312   3.230  12.330   2.667
62754W        W26313   1.476  16.290   1.903
62755W        W26314  17.773  25.113  13.401
62756W        W26315  36.907  10.752  10.995
62757W        W26316   8.242  39.357  14.864
62758W        W26317  37.833  17.081  13.401
62759W        W26318  24.027  30.593  10.038
62760W        W26319  13.209   4.821  12.445
62761W        W26320  29.960  18.102  11.532
62762W        W26321  40.544   9.751   4.133
62763W        W26322  34.444  15.692  12.553
62764W        W26323  26.176  36.909  13.923
62765W        W26324  38.919  44.763   3.783
62766W        W26325  21.229  34.074  10.496
62767W        W26326  25.155  19.167   4.303
62768W        W26327  20.744  17.170  14.836
62769W        W26328   6.397   9.160  13.438
62770W        W26329  13.322  18.188  13.851
62771W        W26330  15.214   7.684   2.688
62772W        W26331   1.240  29.170   3.805
62773W        W26332  25.533  15.229  14.282
62774W        W26333   9.351  36.029   0.822
62775W        W26334   4.850   9.307   2.365
62776W        W26335  24.507   8.706   1.349
62777W        W26336  11.206  21.514  13.021
62778W        W26337  21.244  35.865   3.808
62779W        W26338   6.356  11.755   1.911
62780W        W26339  33.440   5.240   4.168
62781W        W26340  40.873   6.740   1.407
62782W        W26341  31.144  38.019  13.918
62783W        W26342  13.259  11.826   1.834
62784W        W26343  17.207  37.430   4.154
62785W        W26344  35.509  22.122  10.490
62786W        W26345  29.440  38.528   3.277
62787W        W26346  40.945  36.523  10.459
62788W        W26347  40.441  19.185  14.820
62789W        W26348   0.385  16.715  11.976
62790W        W26349  38.448  20.573  13.897
62791W        W26350   8.683   4.900  11.562
62792W        W26351  43.009  40.816  11.098
62793W        W26352  22.048  25.015   4.296
62794W        W26353   2.745   4.790   4.799
62795W        W26354  10.330  12.680   3.346
62796W        W26355  38.045  16.251   2.205
62797W        W26356  42.990  27.472  12.036
62798W        W26357  20.613  37.961  14.357
62799W        W26358  26.111   4.787  13.963
62800W        W26359  44.358  32.478   3.151
62801W        W26360  31.408  19.206   2.823
62802W        W26361  19.578  27.490  10.028
62803W        W26362   4.377  44.882  13.059
62804W        W26363  25.661  41.296  12.074
62805W        W26364  34.013  16.127  11.434
62806W        W26365  10.755  20.634  10.459
62807W        W26366  15.329  20.051  12.558
62808W        W26367  13.236  36.537   3.347
62809W        W26368  35.585  38.371   4.202
62810W        W26369  15.177   5.234  13.883
62811W        W26370  25.150   0.924   5.142
62812W        W26371  21.138  16.101  11.890
62813W        W26372  30.500   8.841  11.015
62814W        W26373  36.524  32.069  11.858
62815W        W26374  43.998   6.790   4.789
62816W        W26375  19.722  33.447   0.246
62817W        W26376  22.132  26.083  11.950
62818W        W26377  40.475  19.634   9.981
62819W        W26378  13.170  28.447   0.948
62820W        W26379  23.997  39.396  12.901
62821W        W26380   2.870   2.424   4.799
62822W        W26381  18.153  22.729  14.436
62823W        W26382   9.816   1.779  13.860
62824W        W26383  20.682   8.268   0.930
62825W        W26384  43.398  23.135  12.455
62826W        W26385  31.130  32.934   2.321
62827W        W26386   9.812  12.819  11.010
62828W        W26387  38.540  14.198   4.146
62829W        W26388  14.742  34.981   0.931
62830W        W26389   5.911  14.280   4.633
62831W        W26390  29.939  42.834   4.763
62832W        W26391   9.681  16.215   3.313
62833W        W26392  16.173   4.915   4.337
62834W        W26393  25.047   4.327  11.887
62835W        W26394   2.946  31.071   1.426
62836W        W26395   2.275  44.006   1.934
62837W        W26396  13.173  16.624   4.712
62838W        W26397  42.821  39.338  11.981
62839W        W26398  24.166  43.270  13.920
62840W        W26399  32.141  39.033  10.889
62841W        W26400  20.216  19.565   3.315
62842W        W26401  30.995   7.218  13.376
62843W        W26402  24.179  26.081  12.405
62844W        W26403  18.638  39.342  11.072
62845W        W26404   1.846  23.105   3.256
62846W        W26405  43.400   4.241  12.839
62847W        W26406  43.405  27.602   4.285
62848W        W26407  42.298  33.037  12.455
62849W        W26408  15.766  27.161   1.211
62850W        W26409  15.185  28.585   1.375
62851W        W26410  36.394  36.409  12.422
62852W        W26411   0.908  22.060  13.490
62853W        W26412  22.150  24.656   2.664
62854W        W26413  19.646  10.765  12.461
62855W        W26414  11.682  30.124   3.677
62856W        W26415   3.717  38.336  12.375
62857W        W26416  12.254  26.640  11.091
62858W        W26417   7.204  37.019  14.378
62859W        W26418   5.378  37.399  14.944
62860W        W26419   1.903  12.129   0.946
62861W        W26420  11.167  12.760   5.754
62862W        W26421  43.326  43.435  12.431
62863W        W26422  22.125   4.882  10.895
62864W        W26423  22.728  38.425  13.024
62865W        W26424  33.098  27.465  11.908
62866W        W26425   3.321  25.498  11.602
62867W        W26426  30.555  41.861  11.984
62868W        W26427  44.845  35.445  12.926
62869W        W26428  14.320   6.901  11.374
62870W        W26429   7.781   3.425   3.328
62871W        W26430  32.523  39.441   2.711
62872W        W26431   0.808  32.000  10.038
62873W        W26432  39.820  25.980   4.192
62874W        W26433  13.255   5.258   4.187
62875W        W26434   4.752  33.109   4.179
62876W        W26435  29.594   6.287  14.865
62877W        W26436  28.016   6.416  10.902
62878W        W26437   7.708   6.203  10.445
62879W        W26438   0.829  33.067  12.353
62880W        W26439  38.856  30.966  11.026
62881W        W26440  37.867   7.319   4.173
62882W        W26441  17.299   4.384   4.244
62883W        W26442  29.650   9.203  13.810
62884W        W26443  10.263  14.622  11.127
62885W        W26444  20.757  23.020   3.645
62886W        W26445  34.909   3.420   5.191
62887W        W26446  27.174  33.104  12.490
62888W        W26447  26.062  29.963   0.431
62889W        W26448   6.830  10.145  10.976
62890W        W26449  44.769   5.319   1.425
62891W        W26450   1.910  39.022   3.658
62892W        W26451  34.424  12.679  12.473
62893W        W26452  30.096  24.051   4.823
62894W        W26453  35.034  39.020   5.298
62895W        W26454  24.104  44.436   3.747
62896W        W26455   1.408  10.345   2.313
62897W        W26456   1.279  38.020   3.257
62898W        W26457   5.415   6.790  10.984
62899W        W26458  28.531  15.689  11.110
62900W        W26459  33.120   9.366   2.756
62901W        W26460  27.088  42.974  14.781
62902W        W26461  35.542  13.661  11.415
62903W        W26462  21.644  36.465  13.338
62904W        W26463  12.323  19.219  10.955
62905W        W26464  43.415   4.344  11.016
62906W        W26465  31.004  32.530   4.250
62907W        W26466  32.007  22.143  13.003
62908W        W26467  36.450  31.052   0.302
62909W        W26468  43.837   8.402   2.891
62910W        W26469  20.532   5.390   3.346
62911W        W26470  26.133  38.412   3.820
62912W        W26471  40.835  25.537  14.340
62913W        W26472  15.176  10.815   3.265
62914W        W26473  25.504  28.993  13.055
62915W        W26474   1.940   3.883  12.891
62916W        W26475  21.240  32.599   1.424
62917W        W26476   4.301  15.165   1.242
62918W        W26477  14.602  19.108  11.908
62919W        W26478   2.888   1.773  10.898
62920W        W26479  21.021  12.284  11.524
62921W        W26480  13.762   0.390  11.599
62922W        W26481  26.114  41.430  14.402
62923W        W26482  21.711   0.343  11.100
62924W        W26483   2.312  26.457  12.368
62925W        W26484  19.155  31.558   0.382
62926W        W26485  23.689  30.087  13.914
62927W        W26486  33.117   4.767  10.574
62928W        W26487  41.314  24.547   2.304
62929W        W26488  28.050  37.499  10.052
62930W        W26489  37.381  44.762  14.891
62931W        W26490  32.137  33.039   9.935
62932W        W26491  20.630  12.300  10.890
62933W        W26492  40.957   3.327  11.957
62934W        W26493  36.069  28.577  13.920
62935W        W26494  36.480  29.162   0.460
62936W        W26495   5.708   6.908  11.013
62937W        W26496  12.787  40.343  11.450
62938W        W26497  32.999  39.862   0.294
62939W        W26498  15.306  38.378  13.460
62940W        W26499  30.977  13.130  12.509
62941W        W26500  16.566  20.200   2.791
62942W        W26501  42.463  27.578  14.855
62943W        W26502  13.799  43.408   2.282
62944W        W26503  44.775  41.949   1.350
62945W        W26504   3.306  14.201   3.322
62946W        W26505  36.892  18.650   0.465
62947W        W26506  34.395  40.881  10.448
62948W        W26507  42.307  11.750   3.800
62949W        W26508  39.973  33.426   1.387
62950W        W26509   9.836  20.259   2.741
62951W        W26510  43.371  26.622   0.918
62952W        W26511  33.875   1.393  14.855
62953W        W26512  40.453   4.871  10.963
62954W        W26513  29.967  14.176   0.790
62955W        W26514  39.472  26.501   1.799
62956W        W26515  19.755  10.791  10.606
62957W        W26516  20.201  19.699   9.991
62958W        W26517  39.888  13.669  13.369
62959W        W26518  17.586  19.279  13.058
62960W        W26519   0.369  42.802   1.761
62961W        W26520   2.235  43.006   2.859
62962W        W26521  10.251  31.014   0.413
62963W        W26522  12.205  36.979  12.881
62964W        W26523  37.425  32.497   1.214
62965W        W26524  40.873  43.960   4.353
62966W        W26525   0.907  30.579  12.923
62967W        W26526  11.219  33.000   9.656
62968W        W26527   2.281  23.657  11.002
62969W        W26528   0.942   5.384  12.910
62970W        W26529  17.188  40.893   2.237
62971W        W26530  34.588  32.471   0.266
62972W        W26531  28.463  30.571   1.327
62973W        W26532  12.696  18.100  12.856
62974W        W26533   5.396  41.315   1.758
62975W        W26534   8.196  23.682   1.390
62976W        W26535  18.166  33.593  12.545
62977W        W26536   3.784  16.599  13.840
62978W        W26537  22.244  26.672   1.409
62979W        W26538   3.343  38.410  10.955
62980W        W26539  38.041  10.289   0.950
62981W        W26540  35.013   9.156   0.828
62982W        W26541   8.891  30.115   3.229
62983W        W26542  41.904   4.359  14.917
62984W        W26543  17.798   4.845  11.411
62985W        W26544   5.315  23.198  14.302
62986W        W26545   6.718  36.931  11.420
62987W        W26546  30.415  15.203  13.429
62988W        W26547  26.567   6.396   4.739
62989W        W26548   7.792  44.002  12.031
62990W        W26549  23.709   9.167  12.834
62991W        W26550  32.486  16.578   4.115
62992W        W26551  24.666   1.777  11.914
62993W        W26552  44.906  12.804   3.668
62994W        W26553   9.176   2.370  13.345
62995W        W26554   1.312  23.505   4.782
62996W        W26555  18.776  22.648   1.832
62997W        W26556  23.149  37.524  10.415
62998W        W26557  26.618  14.103   1.291
62999W        W26558  27.628  36.844  12.974
63000W        W26559   0.416  36.082   1.788
63001W        W26560  44.410  23.990  12.020
63002W        W26561   2.814   4.328   3.813
63003W        W26562  19.056  14.230  12.996
63004W        W26563   9.662  16.705   4.271
63005W        W26564  34.578   7.288   2.759
63006W        W26565  33.019  12.305  14.858
63007W        W26566   3.950  44.983  14.335
63008W        W26567   7.727  36.881  14.467
63009W        W26568   8.314  40.802  13.499
63010W        W26569  30.049  42.831   3.245
63011W        W26570  28.514  28.568   0.958
63012W        W26571  26.181  31.939  13.834
63013W        W26572  43.407  26.532   1.324
63014W        W26573   6.417   7.410   5.185
63015W        W26574  31.108  14.182   3.741
63016W        W26575  31.921   2.905  14.805
63017W        W26576  23.009  33.544   1.784
63018W        W26577  15.772  30.422  10.433
63019W        W26578  31.519  43.781  13.921
63020W        W26579  30.472  26.108   1.919
63021W        W26580  31.429   0.969  10.635
63022W        W26581  17.064  21.070   1.867
63023W        W26582  28.559  33.069   0.836
63024W        W26583  22.049  27.686   3.154
63025W        W26584  30.546   0.388   1.728
63026W        W26585  11.862   8.773   2.806
63027W        W26586  35.001  33.423  10.934
63028W        W26587  23.049   5.825   4.350
63029W        W26588   6.909  33.999  13.456
63030W        W26589  35.968  11.654   0.765
63031W        W26590  18.067  27.540   3.354
63032W        W26591  44.959  38.845  12.424
63033W        W26592  32.582   8.340   9.950
63034W        W26593  18.078  38.930   1.331
63035W        W26594  17.241  42.352  12.423
63036W        W26595  23.158  42.878  13.437
63037W        W26596  15.317  29.479   4.756
63038W        W26597  32.434   7.715  14.854
63039W        W26598  30.501  14.642  12.566
63040W        W26599   9.286  21.141  10.971
63041W        W26600  23.644  34.902   2.256
63042W        W26601   9.843  15.242   4.135
63043W        W26602   8.820  39.849  14.324
63044W        W26603   6.901  20.639   2.746
63045W        W26604  11.719  44.837   0.920
63046W        W26605  30.499   5.752  10.480
63047W        W26606  36.991  40.802   2.289
63048W        W26607  38.339  29.056  14.391
63049W        W26608  15.779  37.350  14.015
63050W        W26609   6.878  37.515  11.126
63051W        W26610  30.123   7.796   4.772
63052W        W26611   4.262   1.352   2.754
63053W        W26612  16.119   1.318   1.737
63054W        W26613  25.620  35.494  14.275
63055W        W26614  29.017  32.602  11.528
63056W        W26615  36.483  27.088  10.580
63057W        W26616  31.005  29.964  13.441
63058W        W26617  15.680  13.306  13.339
63059W        W26618  25.545  30.425   2.179
63060W        W26619  41.809  19.270  12.039
63061W        W26620  43.787  42.469   0.291
63062W        W26621  20.221  30.966  11.498
63063W        W26622  24.652  23.169   1.737
63064W        W26623  30.104  26.076   2.853
63065W        W26624   9.340  36.386   2.374
63066W        W26625  26.061  30.606   3.740
63067W        W26626  37.477  32.409   0.889
63068W        W26627  43.889  24.659  11.539
63069W        W26628   0.773  16.740   4.745
63070W        W26629  38.844   4.325   3.696
63071W        W26630  43.871  19.700  13.992
63072W        W26631  26.696  16.236   3.211
63073W        W26632  22.197  21.259   4.731
63074W        W26633  41.983  29.038  10.410
63075W        W26634  18.608  18.292   2.221
63076W        W26635  32.136   9.159  13.367
63077W        W26636   0.969  23.128  10.622
63078W        W26637   5.707  37.380   0.798
63079W        W26638  16.238   0.860   0.251
63080W        W26639  28.650  16.258  13.014
63081W        W26640  39.994  28.006  12.505
63082W        W26641   1.831  20.096  14.009
63083W        W26642   1.908  43.500   3.230
63084W        W26643  20.189  28.934  10.958
63085W        W26644   2.872  27.581   1.219
63086W        W26645  29.025  17.625   2.363
63087W        W26646  35.927  10.771   3.653
63088W        W26647  28.676  21.028   4.747
63089W        W26648  26.014  43.515  11.539
63090W        W26649  10.330  21.647   2.769
63091W        W26650  37.384   4.873  10.936
63092W        W26651   5.379  30.141   2.832
63093W        W26652   5.744  44.888  13.872
63094W        W26653  38.469  22.550  10.520
63095W        W26654   4.927  42.310   4.681
63096W        W26655  37.964  14.628  14.474
63097W        W26656  29.008  40.314  13.929
63098W        W26657  19.691  18.143  12.495
63099W        W26658  21.209  18.557   2.882
63100W        W26659  27.496  13.157   1.389
63101W        W26660  21.591  34.615  10.630
63102W        W26661   9.816   9.864  14.290
63103W        W26662   9.270  20.086  11.084
63104W        W26663  24.199  10.175   3.235
63105W        W26664  24.656  31.073   3.810
63106W        W26665  23.533  39.039   1.763
63107W        W26666  10.280  28.150  13.056
63108W        W26667   3.385  27.503   3.812
63109W        W26668  29.064  18.547   1.335
63110W        W26669  27.532  40.413  11.056
63111W        W26670   9.849  15.619  10.909
63112W        W26671  11.348  28.573   4.212
63113W        W26672  22.021  31.098  14.996
63114W        W26673  18.226  10.690  11.428
63115W        W26674  10.250  24.706   0.804
63116W        W26675  41.918  17.567   2.667
63117W        W26676  21.064  14.646  12.078
63118W        W26677   6.867  21.623   1.912
63119W        W26678  33.503  38.897   5.197
63120W        W26679  11.813   7.671  10.420
63121W        W26680   3.771   6.808  11.521
63122W        W26681  33.622  34.863   4.713
63123W        W26682   8.892  17.749  11.587
63124W        W26683   3.817  36.999  12.048
63125W        W26684   8.169  18.632  12.930
63126W        W26685  33.478  17.678  13.386
63127W        W26686  27.592   7.329   4.649
63128W        W26687  39.350  33.939   2.368
63129W        W26688  35.986  31.490  12.875
63130W        W26689  27.070  17.703   0.793
63131W        W26690   6.393  41.934   3.311
63132W        W26691   1.922   6.695  11.516
63133W        W26692   0.414  35.485  14.468
63134W        W26693   4.407  29.033  14.955
63135W        W26694   7.687  18.050  12.954
63136W        W26695  19.285  42.288   0.896
63137W        W26696  19.580   0.797   3.212
63138W        W26697  43.316  33.570  13.452
63139W        W26698  23.102  24.660   0.771
63140W        W26699  22.514   6.327  13.940
63141W        W26700  23.526  39.486  11.466
63142W        W26701  44.927  31.027  14.322
63143W        W26702  41.848  40.417  14.505
63144W        W26703  32.545  11.238  14.984
63145W        W26704  42.515   7.689   2.419
63146W        W26705  20.582   3.866   3.240
63147W        W26706  16.785  20.040  11.553
63148W        W26707  12.810   0.771   1.876
63149W        W26708  15.751   2.294   3.154
63150W        W26709  33.510  18.586   0.279
63151W        W26710  39.433  27.180   0.332
63152W        W26711   1.305  18.247   0.366
63153W        W26712  10.658  27.051   3.305
63154W        W26713   8.389  15.125  10.923
63155W        W26714  19.232   5.384  13.529
63156W        W26715  11.647   5.432   2.398
63157W        W26716  27.537   7.693   3.862
63158W        W26717  30.961  32.044  13.826
63159W        W26718   9.749  38.032   4.141
63160W        W26719  27.978   2.742  14.368
63161W        W26720   1.873  11.669   4.265
63162W        W26721  42.295  29.036   1.342
63163W        W26722  12.706  34.913  11.933
63164W        W26723  32.515  13.339   4.740
63165W        W26724  26.623  15.671  10.119
63166W        W26725  31.126  44.299   4.224
63167W        W26726  21.574  17.134   2.745
63168W        W26727  25.099   4.864  12.072
63169W        W26728  41.502  26.116  12.856
63170W        W26729  37.012  37.338   4.271
63171W        W26730  36.517  40.831  10.444
63172W        W26731   0.970   9.878  11.477
63173W        W26732  21.513   2.721  12.551
63174W        W26733  39.559  10.669   4.294
63175W        W26734  21.518   7.246   0.841
63176W        W26735  39.916  18.112  12.549
63177W        W26736   4.849   7.331  10.632
63178W        W26737  19.721  13.111   1.793
63179W        W26738   0.979  40.855   1.310
63180W        W26739   7.395  23.060   1.399
63181W        W26740  40.397  24.606  12.422
63182W        W26741  23.502  23.646  10.932
63183W        W26742   4.299  26.681  11.894
63184W        W26743  42.429  27.558  10.971
63185W        W26744  22.740  17.736  13.452
63186W        W26745  37.514  34.489   2.857
63187W        W26746   5.806   4.309   1.877
63188W        W26747  24.978   7.363   3.156
63189W        W26748   5.925   9.353  12.488
63190W        W26749  16.736  23.133  13.869
63191W        W26750  38.016   2.386   1.753
63192W        W26751  34.612  15.617   4.837
63193W        W26752  35.406  33.889   1.704
63194W        W26753   0.355  24.052  10.460
63195W        W26754  21.644   6.188  12.409
63196W        W26755   3.774  23.143  13.398
63197W        W26756  36.370   2.788  13.370
63198W        W26757  17.608  36.412   2.251
63199W        W26758  13.775  41.455   0.792
63200W        W26759  20.146   4.405   0.775
63201W        W26760   1.297   7.840   4.783
63202W        W26761  13.795   6.819   1.327
63203W        W26762  40.036   8.761   2.802
63204W        W26763   3.780  14.747  11.930
63205W        W26764  39.495  31.970   0.777
63206W        W26765  42.808  38.920  14.292
63207W        W26766  43.852  10.203  14.773
63208W        W26767  31.437   5.304  12.347
63209W        W26768   3.890  36.539  13.976
63210W        W26769  14.126   9.649   1.708
63211W        W26770  29.624  42.304   3.650
63212W        W26771  16.575  13.274   3.213
63213W        W26772  36.528  40.833   3.148
63214W        W26773  39.493  38.848   0.937
63215W        W26774   4.736  43.483   2.212
63216W        W26775   9.299  17.564   3.284
63217W        W26776  43.946   3.440   3.337
63218W        W26777   9.850  11.750   0.896
63219W        W26778  40.308  22.637   5.107
63220W        W26779  19.076   3.425  11.384
63221W        W26780   5.698  19.564   1.909
63222W        W26781  11.185   5.256  11.111
63223W        W26782   6.841   7.362  12.929
63224W        W26783  26.674  12.117  14.412
63225W        W26784  13.659  40.990   2.336
63226W        W26785   0.843  23.508  11.912
63227W        W26786  41.029  14.134  13.429
63228W        W26787  29.978  40.894  10.081
63229W        W26788   2.468  43.408   0.909
63230W        W26789  43.801   7.194   3.692
63231W        W26790  42.856  22.119   0.960
63232W        W26791  11.804  22.007  12.398
63233W        W26792   5.394  14.224   0.331
63234W        W26793  32.985   5.842  13.397
63235W        W26794   9.857  10.336   0.373
63236W        W26795   6.875  31.970  10.532
63237W        W26796  24.124  18.206  10.016
63238W        W26797  17.253  40.975   3.782
63239W        W26798  22.055  20.112   0.369
63240W        W26799  17.262   4.727  13.884
63241W        W26800  24.203  30.112  12.867
63242W        W26801   4.381  35.000   3.371
63243W        W26802  12.849  27.477  13.388
63244W        W26803   2.346  20.701  14.413
63245W        W26804   2.303  33.381  11.083
63246W        W26805  37.981  35.458  10.464
63247W        W26806  31.561  25.047   2.412
63248W        W26807  13.351  33.402   0.865
63249W        W26808  33.547  42.851   0.269
63250W        W26809  44.381  22.127   9.971
63251W        W26810  19.156  43.809  10.542
63252W        W26811   2.880   4.813  14.945
63253W        W26812  41.534  41.889   1.450
63254W        W26813  21.689  42.986  12.556
63255W        W26814   0.777  26.536   0.357
63256W        W26815   0.287   8.304  10.530
63257W        W26816  19.699  44.313  14.458
63258W        W26817  40.360  43.458  14.887
63259W        W26818  18.192  15.303   1.278
63260W        W26819  10.833  11.668   2.242
63261W        W26820  24.617  26.989  13.353
63262W        W26821  36.094  33.952   0.806
63263W        W26822  39.860  28.642   1.703
63264W        W26823  12.746  15.732  12.979
63265W        W26824  12.142  27.004   3.312
63266W        W26825   3.403  11.843   2.892
63267W        W26826  32.552  11.354  14.368
63268W        W26827   8.710  30.989  14.876
63269W        W26828  14.271  40.998   1.704
63270W        W26829   4.373  20.534   0.246
63271W        W26830  30.486  10.868   3.375
63272W        W26831  11.358  12.672   3.839
63273W        W26832  42.335  14.196   3.309
63274W        W26833   8.241   7.689  11.541
63275W        W26834   7.239  24.617   0.364
63276W        W26835  30.973  44.919  10.522
63277W        W26836  42.820  18.135  13.452
63278W        W26837  32.554  20.136  10.529
63279W        W26838  39.887  26.985   0.744
63280W        W26839   7.715   7.197  11.868
63281W        W26840  17.103  43.984  11.017
63282W        W26841  38.913  10.665   0.840
63283W        W26842  13.204  40.971   1.450
63284W        W26843  40.815  43.961  14.006
63285W        W26844  36.048  40.961   0.954
63286W        W26845  44.864  30.412   3.191
63287W        W26846  44.414  35.588   2.333
63288W        W26847  32.555  31.939  12.512
63289W        W26848   0.372  44.795  14.386
63290W        W26849  11.317  20.667  10.929
63291W        W26850   8.202  21.028  13.317
63292W        W26851  25.653  22.539   3.357
63293W        W26852   8.806  16.669   3.223
63294W        W26853   0.988  22.557  13.967
63295W        W26854  32.921  15.286   1.786
63296W        W26855   5.335  35.365   1.221
63297W        W26856  11.676  37.477   1.835
63298W        W26857  19.256  42.387  14.782
63299W        W26858   1.322  19.748  12.343
63300W        W26859  33.507  11.644   2.303
63301W        W26860  22.145  26.037   1.818
63302W        W26861  42.455  14.274   1.893
63303W        W26862  37.868   1.429  14.011
63304W        W26863  37.531  31.957   1.704
63305W        W26864  17.120  32.444  13.475
63306W        W26865  11.782  38.443   3.192
63307W        W26866  42.811  18.130  11.530
63308W        W26867   1.813  19.541  11.073
63309W        W26868  27.554   8.664   4.267
63310W        W26869  41.329   2.226  13.015
63311W        W26870  26.150   8.392   0.402
63312W        W26871  29.106  36.871  10.422
63313W        W26872  28.594  21.522   0.469
63314W        W26873  11.646   4.854   2.319
63315W        W26874  14.204  34.000  14.956
63316W        W26875  22.717  21.145   1.808
63317W        W26876   8.279  14.263  11.555
63318W        W26877  30.981   9.675   3.340
63319W        W26878  29.157  35.523  14.499
63320W        W26879  43.862  15.251  11.470
63321W        W26880  39.010  35.515   3.725
63322W        W26881   0.447  12.838   3.785
63323W        W26882  44.777   9.370  13.498
63324W        W26883  18.112  12.167   0.310
63325W        W26884   5.782   3.420  11.006
63326W        W26885   5.375  34.437   0.799
63327W        W26886  24.099  36.070   2.419
63328W        W26887  35.449   3.749   0.471
63329W        W26888  43.474  41.002   1.873
63330W        W26889  16.131  21.611   4.200
63331W        W26890   6.392   2.851   4.172
63332W        W26891  21.022  35.449   0.960
63333W        W26892  30.921   1.448   2.245
63334W        W26893  35.521  28.637  13.994
63335W        W26894  40.359   4.355  13.511
63336W        W26895  19.098  18.118   1.379
63337W        W26896   0.925  40.418  12.371
63338W        W26897  18.703  10.703  14.475
63339W        W26898  40.906  25.205   4.184
63340W        W26899  43.355  19.188  11.476
63341W        W26900   4.334   2.381  11.478
63342W        W26901  11.792  23.642   2.776
63343W        W26902  43.442  15.809  14.322
63344W        W26903  34.977  19.214   3.365
63345W        W26904   7.294   3.427   2.783
63346W        W26905  27.644  32.511   4.288
63347W        W26906  36.355  38.922  11.877
63348W        W26907  44.497   8.724   4.249
63349W        W26908  30.592  14.222  13.343
63350W        W26909   7.667  26.172  14.963
63351W        W26910  23.567   9.360  11.409
63352W        W26911  29.548  41.858   1.813
63353W        W26912  25.698  43.896  13.541
63354W        W26913  15.129  38.967   4.115
63355W        W26914   7.173  32.118  13.485
63356W        W26915  35.939  36.865  13.962
63357W        W26916  11.147  44.905   4.655
63358W        W26917  18.267  30.945  13.793
63359W        W26918   8.783  13.749  10.913
63360W        W26919   1.388  14.606  14.311
63361W        W26920  28.154   1.879  14.832
63362W        W26921  44.464  31.528  13.405
63363W        W26922  17.138  43.879  11.439
63364W        W26923  31.535  32.004   2.180
63365W        W26924   9.671  26.202   4.716
63366W        W26925  35.878  44.265   2.218
63367W        W26926   0.898  37.539   5.123
63368W        W26927  12.301  12.797  12.874
63369W        W26928  14.638   9.816   0.447
63370W        W26929  27.489   3.904   3.212
63371W        W26930  14.159  33.077   3.285
63372W        W26931  12.807   3.822  13.514
63373W        W26932  34.481  43.888   1.224
63374W        W26933  18.742  42.025   4.150
63375W        W26934   2.340  31.128   1.263
63376W        W26935  13.785  17.220  11.122
63377W        W26936  25.985  40.393  14.779
63378W        W26937  11.785  40.368   0.727
63379W        W26938  16.756  28.582   1.241
63380W        W26939  29.173  10.186   2.739
63381W        W26940  28.932  36.974   0.411
63382W        W26941  29.643   9.220   4.345
63383W        W26942  18.159  39.012  14.794
63384W        W26943   2.390  42.959   0.255
63385W        W26944   2.823  37.033  11.987
63386W        W26945  22.627  17.723   3.739
63387W        W26946  32.576   1.387   0.471
63388W        W26947  27.033  32.419   4.258
63389W        W26948   8.361   6.777  14.326
63390W        W26949  15.279  30.156  11.932
63391W        W26950  21.096  30.640  12.362
63392W        W26951  16.208  25.027  14.992
63393W        W26952  12.613  22.514   3.715
63394W        W26953  12.284  36.355  11.428
63395W        W26954   0.961  34.525   3.714
63396W        W26955   0.332   0.340  13.479
63397W        W26956   5.387  16.305   2.406
63398W        W26957  20.117  25.034  12.012
63399W        W26958   4.320  34.413  12.864
63400W        W26959  20.268  34.987  11.067
63401W        W26960  42.987  20.215   1.324
63402W        W26961  22.714  44.878  14.279
63403W        W26962  16.781  33.075   3.356
63404W        W26963  13.648  28.654   3.794
63405W        W26964  13.121  42.307  10.548
63406W        W26965  24.710  23.567  12.996
63407W        W26966  29.565  16.095   1.882
63408W        W26967   6.726  26.530   0.805
63409W        W26968  37.893  18.161   0.963
63410W        W26969  16.680  16.736   4.158
63411W        W26970  18.107  26.528  13.903
63412W        W26971   2.461  36.016   3.381
63413W        W26972  35.391   5.746   1.896
63414W        W26973  42.463   9.836  12.428
63415W        W26974  23.637   1.978   4.162
63416W        W26975  44.823  40.800  14.782
63417W        W26976  15.259   3.294   3.251
63418W        W26977   7.252  36.538  11.982
63419W        W26978  11.279  24.040   4.289
63420W        W26979  14.208  14.652  12.841
63421W        W26980  37.848  11.347   3.793
63422W        W26981  21.678  41.513  13.924
63423W        W26982  14.304  11.835  13.509
63424W        W26983  17.305  12.629  11.493
63425W        W26984   3.715  18.071   4.227
63426W        W26985  11.791  24.229   3.771
63427W        W26986  44.983  18.667  10.543
63428W        W26987  39.865   4.913   0.792
63429W        W26988   1.322   9.284  12.000
63430W        W26989  33.126  24.150  12.350
63431W        W26990   6.881  18.181  13.009
63432W        W26991   6.222   0.898   2.879
63433W        W26992  37.568  43.793   4.121
63434W        W26993  38.840  38.354  10.081
63435W        W26994  43.392   1.456  11.122
63436W        W26995  13.221  17.308   1.294
63437W        W26996   6.891  10.645  11.051
63438W        W26997   0.939  25.564  13.507
63439W        W26998   4.876  44.411   3.270
63440W        W26999  23.619  36.059  11.896
63441W        W27000  34.380  29.593   1.712
63442W        W27001  43.851  36.392   3.173
63443W        W27002  39.007  14.601  12.486
63444W        W27003  24.229  41.973   3.840
63445W        W27004  13.153  21.512   3.819
63446W        W27005  20.240   7.702   2.218
63447W        W27006  42.522  26.086  13.799
63448W        W27007  10.352   4.847  14.906
63449W        W27008  37.836  44.795  14.890
63450W        W27009  38.545  44.375  12.905
63451W        W27010  35.371  25.073   2.213
63452W        W27011  10.210   2.828   1.766
63453W        W27012  29.952  44.004  10.974
63454W        W27013  10.273  21.035  12.082
63455W        W27014  43.814   4.940  12.512
63456W        W27015  36.395  16.787   3.782
63457W        W27016  26.151  14.281   0.793
63458W        W27017  38.461  22.211  10.567
63459W        W27018  35.577  20.228  12.509
63460W        W27019  44.961  29.998   4.666
63461W        W27020   4.340  42.462   3.208
63462W        W27021  29.066  15.233   0.353
63463W        W27022  26.175   4.892  11.570
63464W        W27023  15.740  33.936   1.401
63465W        W27024  35.571  30.055  12.072
63466W        W27025  37.376  28.956   4.707
63467W        W27026  37.042  33.083  12.548
63468W        W27027   3.302  28.615   4.777
63469W        W27028  24.017  21.601   1.253
63470W        W27029  15.233  24.619   5.219
63471W        W27030   1.867  17.270  14.323
63472W        W27031   4.267  35.473   1.758
63473W        W27032  27.549  27.556  14.991
63474W        W27033   4.248   8.183   4.329
63475W        W27034  44.439  41.903  12.513
63476W        W27035  36.471   4.376  13.498
63477W        W27036   8.239   3.437   3.808
63478W        W27037  36.083  20.761   4.787
63479W        W27038  38.845  37.506   3.702
63480W        W27039  39.919  19.229  14.789
63481W        W27040  40.829  27.191  14.921
63482W        W27041   6.394  32.044   0.873
63483W        W27042  25.666  26.160   0.861
63484W        W27043  17.779   4.223   3.826
63485W        W27044  43.961  11.167   2.212
63486W        W27045  25.620  36.473   1.251
63487W        W27046  10.220  24.037   4.641
63488W        W27047  31.581  14.120  10.422
63489W        W27048  37.403   8.692   9.521
63490W        W27049  38.508  34.467   0.857
63491W        W27050  20.567  24.605  13.503
63492W        W27051  20.261  38.412   4.307
63493W        W27052  34.587  19.687  14.963
63494W        W27053  23.021  11.175  12.043
63495W        W27054  10.350  24.204  14.917
63496W        W27055  19.655  37.906  13.358
63497W        W27056  23.202  38.569   2.889
63498W        W27057  17.589  28.121  11.548
63499W        W27058   7.250  16.265   3.178
63500W        W27059  24.719  13.160  11.026
63501W        W27060  25.189   5.850  11.515
63502W        W27061  34.018  30.956  13.868
63503W        W27062  33.416  31.060  12.041
63504W        W27063   8.822   9.277   2.390
63505W        W27064  42.358  36.532  12.487
63506W        W27065  44.296   3.273   3.369
63507W        W27066  11.699  15.782  10.936
63508W        W27067  31.138   0.878  10.517
63509W        W27068  30.593  26.952  11.059
63510W        W27069  43.797  31.111  14.379
63511W        W27070  18.202  38.430   3.316
63512W        W27071  43.399   6.893   2.376
63513W        W27072  43.846  10.766   3.723
63514W        W27073  32.103  37.409  10.541
63515W        W27074   6.275  35.389  10.605
63516W        W27075  38.519  10.793   2.355
63517W        W27076  15.778   3.880  14.781
63518W        W27077   7.811  31.140  13.857
63519W        W27078  35.943   3.741  13.957
63520W        W27079  42.947  14.109   3.647
63521W        W27080   7.220  29.942   0.323
63522W        W27081   2.932  13.703  12.494
63523W        W27082  36.411   8.672   5.294
63524W        W27083  19.635  20.161   2.400
63525W        W27084  40.997  42.944   2.754
63526W        W27085   0.796   2.804  13.373
63527W        W27086   9.150  16.262  11.040
63528W        W27087  17.782  31.607  11.573
63529W        W27088  17.242  23.542   1.314
63530W        W27089  13.187   0.302  11.438
63531W        W27090  27.681  33.597   0.773
63532W        W27091  24.495  34.595  14.861
63533W        W27092  11.793  31.581  11.119
63534W        W27093   1.397  32.939   4.721
63535W        W27094  33.025  37.013  14.781
63536W        W27095  29.436  42.387  14.890
63537W        W27096  33.071   5.706  13.916
63538W        W27097   3.275  33.990  12.379
63539W        W27098   9.336  17.690  14.798
63540W        W27099   3.812  42.504  10.641
63541W        W27100  21.592  25.971  14.998
63542W        W27101  24.690  15.729  12.016
63543W        W27102  44.887  35.578   3.714
63544W        W27103  36.031  17.116   0.334
63545W        W27104  37.532  39.934   1.843
63546W        W27105  43.827   9.192   4.163
63547W        W27106  11.315   6.692  11.996
63548W        W27107  31.128  23.144   2.409
63549W        W27108  12.716  21.140   2.692
63550W        W27109  31.140  23.201   1.891
63551W        W27110  24.512  25.646   4.623
63552W        W27111  43.487  23.104  13.906
63553W        W27112  19.710  44.260   2.726
63554W        W27113  19.262  13.350  13.843
63555W        W27114  10.775   9.709   4.225
63556W        W27115  42.485  44.954   0.474
63557W        W27116  22.058  35.014   0.783
63558W        W27117  38.009  13.745  13.064
63559W        W27118  32.416  36.984   0.735
63560W        W27119  20.033  29.440   2.222
63561W        W27120  41.889  13.131  11.405
63562W        W27121  14.129   2.857  11.977
63563W        W27122  12.343  12.226   3.371
63564W        W27123  35.907  32.478  11.885
63565W        W27124  28.955  37.911   2.873
63566W        W27125   2.245  10.143   4.336
63567W        W27126  35.909   9.817   3.695
63568W        W27127  25.013  33.117   2.663
63569W        W27128  39.005  43.412   2.391
63570W        W27129  44.460   0.493   3.341
63571W        W27130  44.970  25.028  10.533
63572W        W27131   2.335  44.840  14.985
63573W        W27132   0.250  27.492  12.988
63574W        W27133  26.043  11.295  10.977
63575W        W27134  29.559  31.898  12.458
63576W        W27135  26.539  43.313   4.639
63577W        W27136  34.068  21.677   0.779
63578W        W27137  24.070  13.773   2.326
63579W        W27138   7.699  29.106   1.927
63580W        W27139  24.140  21.588   4.328
63581W        W27140  42.327  28.659  13.492
63582W        W27141   5.347  44.403   1.886
63583W        W27142  29.022  17.108   0.948
63584W        W27143  38.852   3.922  12.863
63585W        W27144  25.608  44.419  11.562
63586W        W27145  39.429  44.259  12.397
63587W        W27146   3.420  43.344  14.510
63588W        W27147  30.462   8.824  11.452
63589W        W27148  12.352  12.756  12.393
63590W        W27149  16.166   5.224   4.277
63591W        W27150  42.334  25.193  12.976
63592W        W27151  23.003   3.370   1.868
63593W        W27152   6.892  36.555   4.296
63594W        W27153   3.329   8.848   4.713
63595W        W27154   5.742  31.623  13.945
63596W        W27155  40.493  23.594   1.444
63597W        W27156   8.192  22.059   1.917
63598W        W27157  14.622  20.077   4.720
63599W        W27158  16.188  35.409   0.782
63600W        W27159  36.068   4.328  13.317
63601W        W27160  43.917  11.307   1.904
63602W        W27161   1.935  13.775   3.870
63603W        W27162  22.127  25.088   2.246
63604W        W27163  33.009  35.956  13.335
63605W        W27164  23.119  31.568  11.951
63606W        W27165   0.903  44.767  14.405
63607W        W27166  37.484   3.365   0.446
63608W        W27167  43.819  44.323  13.025
63609W        W27168  19.277  22.243  11.067
63610W        W27169  29.939  10.800   2.668
63611W        W27170   2.291  28.466   2.787
63612W        W27171  44.270  19.539  14.905
63613W        W27172  39.362  21.666  14.294
63614W        W27173   3.937  33.407  11.608
63615W        W27174  42.007  42.845   0.479
63616W        W27175  43.918  26.108   0.778
63617W        W27176  13.331  17.192  13.039
63618W        W27177   3.259  19.105   0.273
63619W        W27178  35.398   2.750   0.739
63620W        W27179  44.375  37.571   0.926
63621W        W27180  31.954  36.563  10.467
63622W        W27181  12.814  20.760  11.498
63623W        W27182   1.738  17.571   4.263
63624W        W27183  15.253  24.608  13.833
63625W        W27184  38.346  36.073   1.782
63626W        W27185  20.652  44.278  10.553
63627W        W27186  42.507  17.729   4.815
63628W        W27187  23.678  17.193   2.670
63629W        W27188  25.516  28.438   4.598
63630W        W27189  43.304  12.777   0.456
63631W        W27190  14.107   2.789   4.673
63632W        W27191  28.974  16.113   4.692
63633W        W27192  23.997   2.332  11.872
63634W        W27193  22.590  25.996   2.236
63635W        W27194   1.432  32.447  14.320
63636W        W27195  43.989  39.874   3.767
63637W        W27196  17.121  36.391  11.451
63638W        W27197  39.811   6.851  11.448
63639W        W27198  16.755  23.055   2.302
63640W        W27199  32.441  18.765  13.320
63641W        W27200  22.092  10.751  12.482
63642W        W27201  33.441  33.127  10.938
63643W        W27202  43.768  26.185  11.586
63644W        W27203  30.608  33.115   1.764
63645W        W27204  20.559  33.021  13.484
63646W        W27205  18.279  18.575  14.795
63647W        W27206  11.642  28.466   1.732
63648W        W27207  18.558   4.839  14.929
63649W        W27208  27.182  42.460  14.466
63650W        W27209   2.792  38.985  14.362
63651W        W27210  28.498  15.601  12.066
63652W        W27211   8.867  32.050  11.536
63653W        W27212  18.129   6.829   2.872
63654W        W27213   5.744  19.262   2.853
63655W        W27214  32.964  36.030   2.833
63656W        W27215  12.622  38.986   0.277
63657W        W27216   2.958   9.763  10.974
63658W        W27217   0.433   4.344  13.431
63659W        W27218  36.906  23.669   1.380
63660W        W27219  37.904  19.259   4.654
63661W        W27220   8.312  33.930  13.868
63662W        W27221   8.765   9.821   4.701
63663W        W27222  11.638  19.115  13.976
63664W        W27223   8.859  41.476  13.427
63665W        W27224  24.108  40.403   1.342
63666W        W27225  40.981  30.558  11.462
63667W        W27226  12.139   5.739   2.183
63668W        W27227  32.426   9.716  13.046
63669W        W27228   3.275  30.609   3.822
63670W        W27229  30.637  37.337   2.278
63671W        W27230   1.280  14.688   1.308
63672W        W27231  36.440   1.756  11.016
63673W        W27232  28.466  43.821   3.779
63674W        W27233  10.167  39.544  12.514
63675W        W27234   7.892  10.717  11.902
63676W        W27235  14.174  36.917   3.651
63677W        W27236  33.945   1.411   0.364
63678W        W27237  43.873  13.819  13.402
63679W        W27238  34.431  26.167  10.914
63680W        W27239  30.126  43.819   1.385
63681W        W27240   4.386  16.682   4.172
63682W        W27241  14.203  24.170   2.851
63683W        W27242  24.203   5.895  14.352
63684W        W27243   7.720   3.227   2.389
63685W        W27244   0.787  26.992   1.784
63686W        W27245  35.930  32.992  12.536
63687W        W27246  30.147   0.406  11.915
63688W        W27247  24.485  33.602   2.829
63689W        W27248  24.643  42.435  13.523
63690W        W27249  17.243   7.910   4.205
63691W        W27250  20.111  31.614   3.680
63692W        W27251  14.272  32.520   4.175
63693W        W27252  32.613  13.704   4.135
63694W        W27253  20.271  16.304  14.894
63695W        W27254  22.577   1.880  11.421
63696W        W27255  32.430   8.677  13.952
63697W        W27256  12.661  28.947   0.793
63698W        W27257  18.192  24.104   0.306
63699W        W27258   8.677  15.596  11.579
63700W        W27259  20.728  19.715  12.027
63701W        W27260   7.677  39.053   3.331
63702W        W27261  32.509  43.492  13.511
63703W        W27262   8.381  24.698  10.926
63704W        W27263  25.634  13.222   5.271
63705W        W27264   8.802  39.417  14.354
63706W        W27265  11.758  14.211   3.852
63707W        W27266  27.562  21.242   4.755
63708W        W27267  23.142  28.154   2.867
63709W        W27268  16.239  20.707  14.971
63710W        W27269  20.609   7.774   3.273
63711W        W27270  22.517  43.869   1.777
63712W        W27271  24.483  13.158  10.098
63713W        W27272   9.179  35.358   0.476
63714W        W27273   1.391   2.416   2.293
63715W        W27274  26.682  35.966  13.801
63716W        W27275  21.733   2.800  14.510
63717W        W27276  23.683  29.485  13.965
63718W        W27277  33.515  21.218  11.128
63719W        W27278  43.884  40.446   3.694
63720W        W27279  10.745  21.716  12.438
63721W        W27280  28.954  13.745  13.040
63722W        W27281  40.908  27.637   2.186
63723W        W27282   2.233  27.459   4.822
63724W        W27283  21.711  35.477   3.347
63725W        W27284   4.793  15.105  11.929
63726W        W27285   9.203   0.830  13.384
63727W        W27286  38.065  15.739  14.845
63728W        W27287  22.202   2.729  13.822
63729W        W27288  41.436  15.119   3.268
63730W        W27289  32.914  40.847  14.392
63731W        W27290  40.388  31.562  12.525
63732W        W27291   1.786  30.553   3.664
63733W        W27292  40.041  17.275  14.805
63734W        W27293  40.030  14.747   3.634
63735W        W27294  13.806   9.863  10.127
63736W        W27295  36.433  18.225  12.028
63737W        W27296  35.533  25.148   1.247
63738W        W27297  16.663  22.022   3.855
63739W        W27298   3.397  26.126  13.004
63740W        W27299  34.393  36.057  12.036
63741W        W27300  14.834   9.679   5.627
63742W        W27301  30.082   0.405   2.305
63743W        W27302   2.352  27.593  14.770
63744W        W27303  17.192  32.079  14.999
63745W        W27304  26.166  11.720   1.445
63746W        W27305   6.235   6.825  11.449
63747W        W27306  29.030  27.611  14.879
63748W        W27307  31.449  14.289   4.281
63749W        W27308   5.799  43.315   2.408
63750W        W27309  10.151  33.954  13.010
63751W        W27310   6.363  20.062   4.831
63752W        W27311   5.784  40.312   2.205
63753W        W27312   7.681   3.439   0.409
63754W        W27313  43.367  42.987   4.719
63755W        W27314  35.492  21.158  10.434
63756W        W27315  38.444  31.903   9.538
63757W        W27316  19.086  24.677   2.828
63758W        W27317  19.088  25.485  13.377
63759W        W27318   9.744  25.021  10.465
63760W        W27319  19.617   7.306   4.742
63761W        W27320  15.630   4.861   5.299
63762W        W27321  41.884  33.614   3.209
63763W        W27322  27.542  26.457  11.045
63764W        W27323  16.797  39.058  14.758
63765W        W27324  25.592   0.465  12.007
63766W        W27325  43.315   7.819   4.746
63767W        W27326   6.420   9.788   2.320
63768W        W27327  29.996  18.755  12.030
63769W        W27328  39.326  22.058  11.086
63770W        W27329  33.050  11.643  14.468
63771W        W27330  11.252  37.448   2.332
63772W        W27331  43.901   1.390  11.956
63773W        W27332  29.661  16.718   3.770
63774W        W27333   6.379  29.073   0.300
63775W        W27334  32.527  27.000   1.329
63776W        W27335   9.192  29.987   1.428
63777W        W27336  42.979  13.711   3.282
63778W        W27337  34.401   3.333   3.702
63779W        W27338  15.174   9.233  10.501
63780W        W27339  44.278   0.269  12.871
63781W        W27340   8.273  23.177   4.741
63782W        W27341   5.911  29.111   1.265
63783W        W27342  42.425   8.900  12.346
63784W        W27343  29.468  10.330  12.044
63785W        W27344   9.879  19.269  12.960
63786W        W27345  24.549  21.245   9.987
63787W        W27346   2.417  24.042   1.770
63788W        W27347  29.159   3.849  12.844
63789W        W27348  16.130  32.610  14.348
63790W        W27349  13.169  17.721  14.406
63791W        W27350  32.075  30.138  13.948
63792W        W27351  44.938  16.601  13.327
63793W        W27352   9.367  37.484   4.802
63794W        W27353  38.508  27.030  14.852
63795W        W27354  30.107  23.188  13.400
63796W        W27355  19.699  34.578  13.328
63797W        W27356   8.773  30.941  13.460
63798W        W27357   9.239  21.529   1.287
63799W        W27358  26.144  34.586   1.246
63800W        W27359  10.155  28.019  13.355
63801W        W27360   1.860  36.443   0.954
63802W        W27361  27.984   4.908  12.553
63803W        W27362  24.061  42.304   3.732
63804W        W27363  38.869   1.294  14.804
63805W        W27364  17.700  25.120   1.858
63806W        W27365  41.427  20.253   5.166
63807W        W27366  29.617  12.307  11.587
63808W        W27367  39.346  18.791  14.329
63809W        W27368  38.569  26.689   0.346
63810W        W27369  25.485   2.318   1.363
63811W        W27370   1.314  40.984  12.440
63812W        W27371  32.117  43.462  11.919
63813W        W27372  25.064   7.391   3.867
63814W        W27373  20.740  16.313  12.579
63815W        W27374  41.417   6.197   2.872
63816W        W27375  42.408  10.688   3.244
63817W        W27376   6.259  12.693   0.830
63818W        W27377  17.710   3.286   4.775
63819W        W27378  22.661  38.031   0.296
63820W        W27379  15.156  12.239  11.914
63821W        W27380   4.322   8.308  14.410
63822W        W27381  24.054  15.120   4.798
63823W        W27382  44.900  16.269   4.758
63824W        W27383  43.478  37.562  11.917
63825W        W27384  41.980  44.973  10.955
63826W        W27385  19.716  25.503   1.799
63827W        W27386   6.831  25.536  14.888
63828W        W27387   1.330  43.817  13.864
63829W        W27388   6.340  41.323   4.123
63830W        W27389  34.942  11.129   5.705
63831W        W27390  29.941   0.922   0.436
63832W        W27391  34.519   1.362   1.429
63833W        W27392  28.513  30.146  10.624
63834W        W27393   1.268   5.794  10.447
63835W        W27394  13.641  30.435   3.146
63836W        W27395  37.044  32.048  10.930
63837W        W27396  28.645   1.302   2.714
63838W        W27397  31.631  15.667   4.782
63839W        W27398  24.207  27.668   0.421
63840W        W27399  32.964  17.716  11.904
63841W        W27400   3.730  19.704   9.990
63842W        W27401  41.960  26.203  10.967
63843W        W27402  42.303  41.971   0.299
63844W        W27403  21.551  35.109  10.068
63845W        W27404  15.169  21.040  10.556
63846W        W27405   4.807  20.574   3.830
63847W        W27406  11.667  37.045   4.835
63848W        W27407   0.267  32.055   0.458
63849W        W27408  15.171  12.304   0.254
63850W        W27409  35.965  21.720  12.925
63851W        W27410  31.410  37.571  12.532
63852W        W27411   8.885  11.739  10.998
63853W        W27412  39.871  12.295   4.825
63854W        W27413  20.200  24.990   2.284
63855W        W27414  41.463  33.617  11.884
63856W        W27415  24.072  41.956   4.636
63857W        W27416  16.145   9.773  13.019
63858W        W27417  23.027  20.724  13.854
63859W        W27418  28.531   3.781  11.536
63860W        W27419  43.966   6.270   0.742
63861W        W27420  37.893  29.662  12.940
63862W        W27421  30.610  21.584  12.913
63863W        W27422  21.751  23.192  14.986
63864W        W27423   5.193  13.830  13.441
63865W        W27424  36.029  11.302  10.997
63866W        W27425  26.464  34.887   4.307
63867W        W27426   8.734  37.409  13.867
63868W        W27427  25.532  32.596  13.040
63869W        W27428  22.506  29.032  13.990
63870W        W27429  12.257  12.671   9.980
63871W        W27430  32.892  37.925   0.883
63872W        W27431  17.725  12.639   3.677
63873W        W27432   5.417  15.808   1.398
63874W        W27433  23.585  38.929   0.391
63875W        W27434  29.156  29.632   2.306
63876W        W27435  38.960  30.497  14.030
63877W        W27436  17.080   5.352  10.492
63878W        W27437  14.673  22.634   1.378
63879W        W27438  19.191   1.417  11.611
63880W        W27439  29.443  26.546  10.969
63881W        W27440   0.469  28.539   3.281
63882W        W27441   5.812  34.518  12.410
63883W        W27442  34.950  13.832  13.417
63884W        W27443  29.132  20.094   2.889
63885W        W27444   5.299  28.524  13.913
63886W        W27445   0.494   5.215   3.264
63887W        W27446  32.604   4.809  14.967
63888W        W27447   1.394  12.747   0.291
63889W        W27448  26.044  42.003  11.408
63890W        W27449   4.322  18.174  11.605
63891W        W27450  27.165   5.792   3.267
63892W        W27451  31.903   2.814  13.823
63893W        W27452  44.404  19.278   1.710
63894W        W27453  30.135  41.437   4.327
63895W        W27454   4.720  15.221  10.427
63896W        W27455  29.989  28.473  11.992
63897W        W27456  21.729  16.674  13.016
63898W        W27457  13.343  17.599   0.804
63899W        W27458  38.016   2.255  10.549
63900W        W27459   2.794  11.242  13.311
63901W        W27460  20.236  20.627  10.472
63902W        W27461   1.401  42.451   1.327
63903W        W27462  30.641  42.030   2.671
63904W        W27463  38.868  39.956  13.921
63905W        W27464   5.419  34.024   2.190
63906W        W27465  22.502  40.859   1.367
63907W        W27466  27.065  23.610   2.389
63908W        W27467  35.418   2.727   2.348
63909W        W27468  28.481   9.161  12.026
63910W        W27469  29.979  26.560  10.431
63911W        W27470  42.864   5.328   0.477
63912W        W27471  27.075  19.619   0.953
63913W        W27472  23.696  34.373  14.462
63914W        W27473  40.428  16.251   3.765
63915W        W27474  14.130  33.055   2.767
63916W        W27475   5.299  22.168  14.862
63917W        W27476  21.577  23.671   1.899
63918W        W27477  38.938   7.195  12.903
63919W        W27478   4.353  17.742  13.002
63920W        W27479   6.763   7.805  10.539
63921W        W27480  24.605  27.655   1.335
63922W        W27481  17.306  27.130  13.473
63923W        W27482  34.986  27.632   3.333
63924W        W27483  11.676  42.858  13.450
63925W        W27484  26.078  43.442  10.959
63926W        W27485  37.462  12.843  13.886
63927W        W27486  35.105   8.783   1.798
63928W        W27487   4.934  14.177  13.507
63929W        W27488  13.693  14.621  14.282
63930W        W27489  37.519   1.294  11.869
63931W        W27490  29.972  31.460   0.840
63932W        W27491  10.159  13.318   1.218
63933W        W27492  35.468  12.207  10.919
63934W        W27493  10.316  35.509   4.324
63935W        W27494   6.719   7.360   4.613
63936W        W27495  30.560  39.971   0.289
63937W        W27496   5.228  34.599   0.311
63938W        W27497   9.335  29.616  11.867
63939W        W27498  12.852  44.365  12.831
63940W        W27499  44.886  37.053   3.306
63941W        W27500  17.189  33.503   4.799
63942W        W27501  28.962   8.231  14.769
63943W        W27502   0.814  32.395  13.037
63944W        W27503  36.920  31.130  12.005
63945W        W27504   9.698  26.606   3.164
63946W        W27505   3.740   3.789   0.867
63947W        W27506   5.791  34.095   2.406
63948W        W27507   7.242  39.400  12.477
63949W        W27508   0.909  31.641  11.589
63950W        W27509  19.201  32.014   2.672
63951W        W27510  23.176  24.000   4.659
63952W        W27511  42.339  17.088  14.818
63953W        W27512  11.786  15.667   5.126
63954W        W27513  35.542  29.471   4.816
63955W        W27514  32.429  26.470   1.354
63956W        W27515   1.769  44.463   4.180
63957W        W27516  39.891   1.392   3.277
63958W        W27517  17.186  38.569  10.603
63959W        W27518   7.842  32.902  12.372
63960W        W27519  36.873  39.468   2.723
63961W        W27520   6.679  38.523   4.648
63962W        W27521  25.500  18.276  12.843
63963W        W27522  33.895   6.201  12.430
63964W        W27523  15.083  16.742   2.410
63965W        W27524  13.319   6.907  11.076
63966W        W27525  28.966  34.608   2.743
63967W        W27526   4.870  32.976   3.707
63968W        W27527  31.998  42.362  10.146
63969W        W27528  30.653  36.977  13.031
63970W        W27529  19.047  17.745  14.302
63971W        W27530  44.322  30.064   3.642
63972W        W27531  44.499  28.522  14.330
63973W        W27532  16.262   8.163   3.206
63974W        W27533  35.898  27.520   2.809
63975W        W27534  22.671  26.521   3.250
63976W        W27535   2.757   6.286  12.915
63977W        W27536   3.783  39.526   0.842
63978W        W27537  44.433  35.005   1.359
63979W        W27538  24.073   8.712  14.510
63980W        W27539  29.659  43.473   3.385
63981W        W27540  25.211   0.899  10.518
63982W        W27541   7.793  12.273  14.504
63983W        W27542  42.868   8.188  11.920
63984W        W27543  21.088  33.447  12.845
63985W        W27544   4.291   7.702   0.799
63986W        W27545   7.359  34.497  10.431
63987W        W27546  16.196  32.062   4.735
63988W        W27547  32.989  18.078  13.961
63989W        W27548  26.551  13.798   3.807
63990W        W27549  19.084  11.232   2.894
63991W        W27550  24.640   3.260  10.947
63992W        W27551  14.741  41.495  12.010
63993W        W27552  29.140   2.406  12.572
63994W        W27553   7.753  26.143   1.224
63995W        W27554  22.708   4.702   4.180
63996W        W27555  38.424   5.355  14.839
63997W        W27556  15.184  37.969   4.192
63998W        W27557   6.324  22.731   0.940
63999W        W27558  23.682  24.489   4.223
64000W        W27559  34.934  35.952  12.855
64001W        W27560  38.347  21.650  13.420
64002W        W27561  40.875  21.606   2.337
64003W        W27562  36.516   9.825   3.261
64004W        W27563  37.458  19.634  10.595
64005W        W27564  33.075  36.407   2.277
64006W        W27565  18.617  37.969   1.233
64007W        W27566   8.286   5.834  12.394
64008W        W27567  32.979   1.478  13.542
64009W        W27568   5.767  20.167   4.693
64010W        W27569   7.761  38.002   1.410
64011W        W27570  10.384   0.926  13.010
64012W        W27571  37.904  21.739  10.453
64013W        W27572  40.889  17.583   1.817
64014W        W27573  41.339  26.647   0.805
64015W        W27574  25.607  26.534   4.114
64016W        W27575  39.405  34.031   0.359
64017W        W27576   9.207  28.622  12.914
64018W        W27577  44.264  41.324  10.140
64019W        W27578  25.978  14.140   2.686
64020W        W27579  16.568   6.329   3.207
64021W        W27580   4.218   8.828  10.533
64022W        W27581  34.383   1.834   1.334
64023W        W27582  39.404  38.347  12.439
64024W        W27583  19.705  10.314  10.959
64025W        W27584  28.527  28.026   2.378
64026W        W27585  11.667  26.008   2.737
64027W        W27586  33.915  29.637  13.532
64028W        W27587   8.777  12.758   1.261
64029W        W27588  27.626   5.905  10.470
64030W        W27589  25.690  16.574  14.899
64031W        W27590   5.741  33.408   3.724
64032W        W27591   2.336  11.832   0.310
64033W        W27592  41.357  31.592   0.419
64034W        W27593  22.697  12.291   4.678
64035W        W27594  31.629  42.360   3.162
64036W        W27595  43.495  18.662  14.432
64037W        W27596   1.906  34.543  12.932
64038W        W27597  23.177   3.295   4.167
64039W        W27598  35.557  16.618  12.883
64040W        W27599  10.826  29.161   0.812
64041W        W27600  41.865  23.553   4.293
64042W        W27601  34.385  43.799  14.357
64043W        W27602  29.463  37.550  14.904
64044W        W27603  36.881  16.245  12.439
64045W        W27604  28.560  34.985  14.870
64046W        W27605   2.382  39.557   0.749
64047W        W27606  27.678  18.788   0.377
64048W        W27607  34.993  39.527   3.281
64049W        W27608  10.639   6.389  10.572
64050W        W27609  29.155   9.278  11.072
64051W        W27610  36.920  14.675   2.196
64052W        W27611  28.074   7.184  14.433
64053W        W27612  11.685   5.428   4.663
64054W        W27613   8.303   5.739   4.118
64055W        W27614  35.930   1.975   3.812
64056W        W27615  18.232  29.663   0.416
64057W        W27616   1.337  40.323  12.502
64058W        W27617  24.976   2.350   0.244
64059W        W27618  43.985   2.227   3.271
64060W        W27619   8.313  34.866  12.359
64061W        W27620  18.194  44.989   2.681
64062W        W27621  17.237  10.153   3.269
64063W        W27622  31.942   5.199  12.400
64064W        W27623  44.447  19.581  14.029
64065W        W27624  34.481  19.701   0.807
64066W        W27625   2.337  27.481  12.959
64067W        W27626   9.686  23.011   0.403
64068W        W27627   8.811  16.644  13.899
64069W        W27628   8.693   7.904   3.696
64070W        W27629  21.711  38.533   1.278
64071W        W27630  28.624  27.147  14.918
64072W        W27631  36.945  21.542   3.225
64073W        W27632  19.564  39.033   2.210
64074W        W27633  31.537  12.807  14.451
64075W        W27634   5.263  33.960   4.235
64076W        W27635  43.878  43.885  11.112
64077W        W27636  18.657  30.533   1.433
64078W        W27637  19.043   8.245   0.381
64079W        W27638  24.099  23.708   4.737
64080W        W27639  37.085  14.308  10.572
64081W        W27640   9.792   8.754  11.484
64082W        W27641  43.872  41.399  14.819
64083W        W27642  12.673  14.621   2.841
64084W        W27643  43.417   8.719   3.820
64085W        W27644   2.802  42.829  11.958
64086W        W27645  33.912  28.504  14.481
64087W        W27646  14.196  32.998  10.618
64088W        W27647  22.183  42.448   4.141
64089W        W27648  43.452   3.886   3.745
64090W        W27649  41.353  25.115  12.534
64091W        W27650  40.372  18.685  14.329
64092W        W27651  28.676   6.428  14.943
64093W        W27652  38.893  19.179   2.364
64094W        W27653  30.513  20.741   0.770
64095W        W27654  22.063  14.249   2.847
64096W        W27655  41.037  22.017   4.165
64097W        W27656   0.412  12.768  12.096
64098W        W27657  18.725  26.147   0.429
64099W        W27658   4.873  25.095   0.448
64100W        W27659  37.000  38.877   0.256
64101W        W27660   1.432  25.042   4.661
64102W        W27661  42.396  34.529  12.914
64103W        W27662  41.492  19.612  12.420
64104W        W27663  33.966  14.253   2.364
64105W        W27664  32.003  39.984   0.840
64106W        W27665  37.378   4.706   3.681
64107W        W27666   8.699  41.377   1.696
64108W        W27667  35.515  24.995   3.307
64109W        W27668  35.039  25.537   1.730
64110W        W27669  42.349  11.345   2.382
64111W        W27670  31.058   4.757   0.853
64112W        W27671  22.517  25.619  13.507
64113W        W27672  26.630   1.343   0.897
64114W        W27673  25.166  10.194   2.860
64115W        W27674  28.044  43.931   4.193
64116W        W27675  23.171  33.422  14.917
64117W        W27676   9.872  30.006  14.999
64118W        W27677  22.079   0.397  11.486
64119W        W27678   8.321  44.896   1.420
64120W        W27679  28.656  16.243   3.222
64121W        W27680  32.128  20.656  12.485
64122W        W27681   7.829   5.231  10.476
64123W        W27682  29.437   0.291   4.692
64124W        W27683  23.210  37.445   1.285
64125W        W27684  17.180  37.938  10.931
64126W        W27685  37.509   3.281  14.833
64127W        W27686  27.055   6.334   9.952
64128W        W27687  22.623   7.253  14.952
64129W        W27688  21.652   8.350  12.943
64130W        W27689  31.019  35.024  14.833
64131W        W27690  42.407   3.848  11.503
64132W        W27691  31.923  19.747  13.801
64133W        W27692  24.559  23.237   0.914
64134W        W27693  11.207  10.335   1.369
64135W        W27694   0.343   0.462   1.383
64136W        W27695  11.853  10.737  10.928
64137W        W27696  34.077  32.994  14.298
64138W        W27697  39.432   6.737   1.737
64139W        W27698  30.626  33.962   4.234
64140W        W27699  27.169  43.428  14.435
64141W        W27700  33.944   7.410   5.102
64142W        W27701  13.791  27.488   3.258
64143W        W27702   0.879  12.690   0.352
64144W        W27703  32.101  31.476   1.424
64145W        W27704  34.611  10.839  10.995
64146W        W27705  37.358   9.311   0.851
64147W        W27706  33.111  15.233  14.377
64148W        W27707  17.187  32.406   3.233
64149W        W27708   1.330   5.846  13.855
64150W        W27709  13.601  10.357  14.429
64151W        W27710   5.354  27.525   3.228
64152W        W27711   4.246  12.772   2.409
64153W        W27712   0.254  27.075  13.895
64154W        W27713  12.192  19.643   2.315
64155W        W27714  39.958  31.899   4.229
64156W        W27715  17.591  35.474  12.405
64157W        W27716   1.368  42.469  12.454
64158W        W27717  26.492  16.232   3.827
64159W        W27718  40.977  23.596  13.349
64160W        W27719  42.967   7.753   3.310
64161W        W27720  26.651   3.350   0.291
64162W        W27721  31.912  20.076   5.277
64163W        W27722  30.636  31.931  14.946
64164W        W27723  20.236  28.995   2.886
64165W        W27724  32.090   8.369  11.612
64166W        W27725   8.290  33.987  13.365
64167W        W27726  41.923  15.724  10.963
64168W        W27727  41.893  29.970   2.884
64169W        W27728  31.012  24.224   4.716
64170W        W27729  10.246  23.211   0.415
64171W        W27730  38.569   0.434   1.240
64172W        W27731  38.881  21.131  11.007
64173W        W27732  23.121  28.176  11.410
64174W        W27733   8.728  29.448  10.550
64175W        W27734  24.035  23.062  10.504
64176W        W27735  34.487   7.287   4.249
64177W        W27736   4.814  42.302  14.412
64178W        W27737  35.087  32.485   2.805
64179W        W27738  14.830  42.879  14.367
64180W        W27739  32.581  22.621  11.426
64181W        W27740  37.336  43.846  10.505
64182W        W27741  32.391  37.975   1.231
64183W        W27742  22.530  29.133   2.865
64184W        W27743  18.060  19.284  12.473
64185W        W27744  37.512  17.580  12.907
64186W        W27745  30.993   6.875  14.777
64187W        W27746  19.277   9.770   3.795
64188W        W27747  20.052  28.481  10.473
64189W        W27748  28.186   9.207  13.467
64190W        W27749  39.549  16.124  11.570
64191W        W27750   7.692  38.882   4.693
64192W        W27751  14.293  36.469  11.535
64193W        W27752  20.102  40.509  13.345
64194W        W27753   0.414  32.421  14.435
64195W        W27754  30.576  24.051  11.581
64196W        W27755  28.997  11.290   0.945
64197W        W27756  12.851  13.749   0.346
64198W        W27757  42.846  34.119  14.024
64199W        W27758  27.962  13.768  14.415
64200W        W27759  23.567   8.762  10.918
64201W        W27760  43.813  36.917  11.589
64202W        W27761  34.891   5.813  10.955
64203W        W27762  44.857   9.840   0.458
64204W        W27763  25.620  23.236   4.219
64205W        W27764  15.236  29.001  14.881
64206W        W27765  22.590  33.511  14.023
64207W        W27766   6.339  27.524   3.766
64208W        W27767  26.476   9.322  14.478
64209W        W27768  42.879  28.078   2.207
64210W        W27769  28.523  10.177   2.892
64211W        W27770  24.517  33.532  14.923
64212W        W27771  16.641   6.288  12.082
64213W        W27772  29.032  13.267  10.597
64214W        W27773   3.791  33.546   4.818
64215W        W27774  20.053  18.210  10.465
64216W        W27775  10.693  10.640   9.936
64217W        W27776   3.937  19.124   2.383
64218W        W27777  29.032  28.502  11.439
64219W        W27778   0.257  32.906  11.395
64220W        W27779  25.983  43.906  10.429
64221W        W27780  22.158  40.471  12.550
64222W        W27781  18.700  12.675   9.959
64223W        W27782   6.291  19.642  11.039
64224W        W27783  26.124   8.712   4.337
64225W        W27784  41.390  27.666   0.921
64226W        W27785  31.953   8.292  14.811
64227W        W27786  32.513  16.148  12.543
64228W        W27787  20.759  31.521  11.540
64229W        W27788   6.905  36.003  14.867
64230W        W27789  12.199  32.073   0.893
64231W        W27790  27.983  22.692   1.235
64232W        W27791  35.474  32.455   4.224
64233W        W27792   8.667   1.456   0.304
64234W        W27793  38.829  24.515   3.810
64235W        W27794   3.776  12.344  11.524
64236W        W27795  39.062  36.976  11.897
64237W        W27796  41.822   1.302  11.484
64238W        W27797  43.992  21.176  13.840
64239W        W27798  11.772   8.406  12.950
64240W        W27799   1.842   3.395   1.273
64241W        W27800   8.335  40.798   2.691
64242W        W27801  12.210  16.590   0.763
64243W        W27802   8.754   1.798   1.727
64244W        W27803  43.335  25.574  13.338
64245W        W27804  14.230  21.543  14.307
64246W        W27805   4.228   4.743  13.334
64247W        W27806  28.148   0.444  12.513
64248W        W27807   6.872  10.301   2.383
64249W        W27808   2.306   4.805   2.410
64250W        W27809  44.333  24.107   2.189
64251W        W27810  14.293  17.606   1.839
64252W        W27811  30.912  10.732  12.041
64253W        W27812   9.203  41.361  12.507
64254W        W27813  43.357  37.552   0.796
64255W        W27814  41.323  18.264  11.522
64256W        W27815  29.143  21.677   1.321
64257W        W27816   9.333   8.757  10.155
64258W        W27817  32.052  12.231  14.350
64259W        W27818  30.044  10.332  11.856
64260W        W27819   0.842  28.547   4.158
64261W        W27820  29.981  40.015   3.654
64262W        W27821  40.310  17.067   1.771
64263W        W27822   6.816   7.790   0.330
64264W        W27823  44.432   7.353  11.386
64265W        W27824  18.083  34.945   4.616
64266W        W27825  43.461   0.774   3.838
64267W        W27826   8.680  24.219   0.914
64268W        W27827  20.625  27.192  13.378
64269W        W27828  29.159  26.593   3.333
64270W        W27829   9.848  18.210  13.503
64271W        W27830  25.985  15.297  14.870
64272W        W27831  41.976  30.002  12.026
64273W        W27832  42.966  22.695   1.707
64274W        W27833  29.072   5.218   2.413
64275W        W27834  43.853   9.311  10.900
64276W        W27835  24.067  38.878   4.335
64277W        W27836  19.205  26.045   2.711
64278W        W27837   9.746  24.128  13.833
64279W        W27838  37.396  36.422  10.035
64280W        W27839   5.215  12.312   0.960
64281W        W27840  40.510  22.514   2.327
64282W        W27841  31.445   8.210   3.695
64283W        W27842  28.511  11.812   1.758
64284W        W27843  17.600   5.338  10.499
64285W        W27844  16.179  36.574   4.130
64286W        W27845   6.205  21.665  11.580
64287W        W27846  34.038  43.495  12.433
64288W        W27847  37.030  12.654  13.525
64289W        W27848  41.809  38.472  10.518
64290W        W27849  29.617   1.952  12.905
64291W        W27850  19.109  41.419  14.000
64292W        W27851  21.213  25.648   0.916
64293W        W27852  40.922  43.019  13.798
64294W        W27853  41.829  35.567   3.237
64295W        W27854  27.007  21.585   1.221
64296W        W27855  11.156  35.884  14.411
64297W        W27856  14.229  43.991  11.546
64298W        W27857  28.034  39.816   2.337
64299W        W27858   0.271   8.815  14.026
64300W        W27859  11.142   4.234  11.450
64301W        W27860  14.810   1.851  11.011
64302W        W27861   9.849   3.899  13.878
64303W        W27862  29.431  11.683  14.301
64304W        W27863  41.448  21.248  14.283
64305W        W27864  27.551  13.709  13.530
64306W        W27865  42.943   3.937  12.076
64307W        W27866  43.019  33.024   2.781
64308W        W27867   2.303   3.227  14.996
64309W        W27868   4.268   9.705  11.993
64310W        W27869  43.463   9.697  14.905
64311W        W27870  16.187  44.786  13.442
64312W        W27871  28.002   8.358  10.018
64313W        W27872   3.937   7.888  12.502
64314W        W27873  44.337  42.335   0.825
64315W        W27874  32.419  18.612  10.611
64316W        W27875  22.628  38.537  14.314
64317W        W27876  43.371   3.791   0.372
64318W        W27877   8.178   8.273  13.019
64319W        W27878  22.527  32.578  10.576
64320W        W27879   3.899   6.905   1.795
64321W        W27880  17.575  31.060  10.569
64322W        W27881  22.681   8.246   4.629
64323W        W27882  22.715  41.322   1.293
64324W        W27883  21.181  17.582   0.854
64325W        W27884   0.956  36.362  10.636
64326W        W27885   7.809   2.306   4.316
64327W        W27886   0.458  18.691  12.529
64328W        W27887  43.011  40.054   3.301
64329W        W27888  23.550  41.489   2.240
64330W        W27889   0.967   4.341   3.379
64331W        W27890   4.392  10.863  13.311
64332W        W27891   6.412  22.576  12.865
64333W        W27892  25.612  37.336   3.215
64334W        W27893  43.503   2.815   2.665
64335W        W27894  22.164  21.576   2.216
64336W        W27895  14.303  21.149   4.670
64337W        W27896  21.515  27.029  10.024
64338W        W27897  29.521  17.101   0.344
64339W        W27898  39.881  17.562   2.739
64340W        W27899  17.652  40.319  12.431
64341W        W27900   8.294   6.240   0.779
64342W        W27901   6.843  26.072  12.454
64343W        W27902  10.156   3.417  12.430
64344W        W27903  20.618  41.349  14.853
64345W        W27904  26.976  11.190   9.514
64346W        W27905  16.233  28.013  11.608
64347W        W27906   2.401  44.357   1.275
64348W        W27907   9.217  11.853  10.498
64349W        W27908   2.371  35.065  11.444
64350W        W27909  19.099  31.088  12.927
64351W        W27910   9.260  29.649   2.396
64352W        W27911  33.085  27.673   2.257
64353W        W27912  31.491  37.977  13.805
64354W        W27913   0.885  30.113   2.249
64355W        W27914  36.404   4.774   4.695
64356W        W27915  42.462  25.072   1.406
64357W        W27916  33.953  24.221   1.213
64358W        W27917  23.615  19.074  11.981
64359W        W27918  17.660  13.827  12.903
64360W        W27919  30.048  32.498   3.724
64361W        W27920  15.626  21.691   2.186
64362W        W27921  38.345  13.668   3.148
64363W        W27922  25.123   9.726   3.345
64364W        W27923  34.099   6.736  13.493
64365W        W27924  15.318   7.391  14.437
64366W        W27925  16.072   6.865  11.901
64367W        W27926  27.081   0.781   4.612
64368W        W27927  10.182  31.952  12.984
64369W        W27928  11.335  36.079   1.361
64370W        W27929  37.507   5.888   1.776
64371W        W27930  14.682  23.599  14.817
64372W        W27931  34.437  19.692   1.315
64373W        W27932  38.925  33.412   3.844
64374W        W27933  27.174  10.750   2.802
64375W        W27934  38.042  29.107  11.021
64376W        W27935  42.921   9.375  12.948
64377W        W27936  39.541  21.595  11.034
64378W        W27937  33.005  44.822   2.713
64379W        W27938  10.645  27.016  10.449
64380W        W27939  33.099   4.405  12.434
64381W        W27940  22.069   3.841   2.274
64382W        W27941  10.297  12.809  10.986
64383W        W27942  27.622  33.998   4.637
64384W        W27943  38.353  42.913  14.326
64385W        W27944  14.644  36.523  11.576
64386W        W27945   1.753  19.722   4.200
64387W        W27946  35.437  39.892  11.969
64388W        W27947   4.275  26.598  14.900
64389W        W27948  20.066  10.860   3.805
64390W        W27949  29.032  18.608   2.815
64391W        W27950  37.979  25.559   0.934
64392W        W27951  12.156  13.251   4.146
64393W        W27952  19.538  25.655   4.677
64394W        W27953   6.243  19.197  10.939
64395W        W27954  44.892  43.332  12.357
64396W        W27955  36.580  25.098   4.672
64397W        W27956   8.877  24.039   1.401
64398W        W27957  44.796  35.012  11.458
64399W        W27958  38.828   5.368  13.356
64400W        W27959  14.798  28.548  14.762
64401W        W27960  14.276  13.780  13.402
64402W        W27961   3.733  27.035  14.294
64403W        W27962  31.521  21.676   2.313
64404W        W27963  28.023   9.808   9.952
64405W        W27964  32.460   1.253   3.706
64406W        W27965   4.912  37.415   2.228
64407W        W27966  38.940  24.501   1.900
64408W        W27967  44.349  21.733  11.382
64409W        W27968  30.582  42.500   2.381
64410W        W27969  31.995  34.373  14.373
64411W        W27970  34.991  20.667   0.928
64412W        W27971  34.415  26.020   1.900
64413W        W27972  38.014   8.786  10.916
64414W        W27973   7.290   7.675   2.223
64415W        W27974  42.374  40.842  12.365
64416W        W27975  23.090  38.378  12.945
64417W        W27976   9.863   2.237  14.841
64418W        W27977  12.144  21.235  14.914
64419W        W27978   7.208  41.949   2.302
64420W        W27979  36.887  22.556   1.390
64421W        W27980  35.945  28.971  11.073
64422W        W27981   9.218  24.157   4.157
64423W        W27982  17.259  24.004   0.364
64424W        W27983  34.508  29.006   1.746
64425W        W27984  28.072   1.884  13.323
64426W        W27985  19.722  27.613  10.608
64427W        W27986  24.131  16.772  12.857
64428W        W27987  30.126  31.964  12.508
64429W        W27988  32.910   0.752  12.892
64430W        W27989  11.243  33.458   0.311
64431W        W27990  39.475  37.061   3.779
64432W        W27991   0.267  14.649  13.524
64433W        W27992   3.925  41.524   1.905
64434W        W27993   7.818  42.460  10.626
64435W        W27994  12.627  16.647   4.692
64436W        W27995  24.671   0.951  12.441
64437W        W27996  11.808  10.170   2.891
64438W        W27997  35.443  23.063   4.660
64439W        W27998  42.373  19.079  13.377
64440W        W27999  26.526  13.692  14.458
64441W        W28000  15.673  42.977   1.441
64442W        W28001  23.573  28.185   3.772
64443W        W28002  15.750  10.659   2.731
64444W        W28003   5.859  21.522   0.342
64445W        W28004   7.868  32.629  13.805
64446W        W28005  23.590  34.097  11.907
64447W        W28006  40.366  39.937   3.222
64448W        W28007   1.950  22.614  12.469
64449W        W28008  33.025   5.906   4.718
64450W        W28009  38.951  16.803   3.754
64451W        W28010  32.055   5.238  14.294
64452W        W28011  30.428  34.547  14.346
64453W        W28012   9.720  28.650  13.434
64454W        W28013  36.909   0.375  13.963
64455W        W28014  43.386  23.994   0.956
64456W        W28015  17.074  14.324   4.192
64457W        W28016  33.906   1.437   3.700
64458W        W28017  22.640   8.174  12.836
64459W        W28018   0.961  22.630  14.442
64460W        W28019  36.862  16.134  13.953
64461W        W28020  17.769  38.486   4.211
64462W        W28021  39.416  42.435  13.042
64463W        W28022  16.220   5.729   0.872
64464W        W28023  22.664   1.394  14.991
64465W        W28024   8.315  30.139  12.077
64466W        W28025  37.991  37.491  14.486
64467W        W28026  17.147  31.005   1.372
64468W        W28027  41.348   4.426   2.239
64469W        W28028   8.384  18.088  14.339
64470W        W28029   6.365  43.002  12.076
64471W        W28030  29.595  22.506  11.052
64472W        W28031  10.785  39.870  12.360
64473W        W28032   3.778  42.000  11.587
64474W        W28033  10.672   8.383  12.044
64475W        W28034  27.946  31.141  11.889
64476W        W28035  38.402   3.371  14.924
64477W        W28036  37.421  25.081   0.461
64478W        W28037   1.330  22.072  11.109
64479W        W28038  33.459  15.273   2.664
64480W        W28039  19.143  41.366  12.898
64481W        W28040  33.475  36.031  14.986
64482W        W28041  35.411  19.199   4.118
64483W        W28042   4.303  24.618   3.837
64484W        W28043  44.005  41.958  11.423
64485W        W28044  19.081   4.918   1.336
64486W        W28045  44.962  36.411   1.367
64487W        W28046   7.171  37.445   4.722
64488W        W28047  30.600   2.231   2.852
64489W        W28048  44.793   8.696  10.487
64490W        W28049   5.207  11.321  11.023
64491W        W28050  36.450  26.969  14.300
64492W        W28051  28.938   1.775   3.753
64493W        W28052   4.818  30.606   3.232
64494W        W28053   8.873   9.284   0.841
64495W        W28054   0.431  32.955   0.356
64496W        W28055  27.525  23.665   2.260
64497W        W28056   4.374  39.485   2.275
64498W        W28057  35.556  36.514  14.809
64499W        W28058  23.013  27.653  14.282
64500W        W28059  12.806  13.720   4.187
64501W        W28060   1.952   7.376  14.456
64502W        W28061  25.614  19.771   0.353
64503W        W28062   7.703  28.463   0.834
64504W        W28063  44.843   2.922   4.602
64505W        W28064  10.634  19.150   2.315
64506W        W28065  11.727  26.037  14.320
64507W        W28066  15.219  42.957   3.705
64508W        W28067  24.132  31.615  12.431
64509W        W28068  15.664  39.017  11.426
64510W        W28069  32.569  30.070   1.886
64511W        W28070  17.706   3.768   4.749
64512W        W28071  37.390  40.006  12.927
64513W        W28072   1.741   6.697   4.165
64514W        W28073  29.542   8.815  10.571
64515W        W28074   1.771  12.227  13.882
64516W        W28075   0.924  10.664  14.935
64517W        W28076  13.647  37.070   1.845
64518W        W28077  40.920  16.609   3.744
64519W        W28078   5.900   6.900   0.849
64520W        W28079  26.669  22.091  14.294
64521W        W28080  40.914  11.801  13.515
64522W        W28081  13.309  33.883   2.357
64523W        W28082   6.249  32.492  13.933
64524W        W28083  27.655  33.566   1.362
64525W        W28084  32.631  41.855   4.328
64526W        W28085   5.317   8.798   3.301
64527W        W28086   9.841  17.653   0.961
64528W        W28087  17.114  38.956   2.709
64529W        W28088  39.049  39.829   4.795
64530W        W28089  11.845   5.857   2.322
64531W        W28090  44.260  11.826  10.596
64532W        W28091  37.362   6.232   1.418
64533W        W28092   9.816  41.951   4.811
64534W        W28093  26.072  43.465  12.437
64535W        W28094  16.098  14.138  12.944
64536W        W28095  10.205  41.844   3.309
64537W        W28096  33.017  31.440  13.792
64538W        W28097  22.538  28.650  11.877
64539W        W28098  34.416   6.717  10.953
64540W        W28099   9.275   6.343   1.699
64541W        W28100   7.333  32.496   4.289
64542W        W28101  19.737  23.134  14.877
64543W        W28102  41.482   7.249   2.261
64544W        W28103  42.875  27.469  12.904
64545W        W28104  29.653   1.924  10.134
64546W        W28105  21.135  41.494   4.322
64547W        W28106  14.219  28.007  12.042
64548W        W28107  25.491   0.925  10.920
64549W        W28108   6.807   6.828   3.318
64550W        W28109  21.142   2.962  12.377
64551W        W28110  38.001  21.601   1.337
64552W        W28111  27.500   8.276   4.753
64553W        W28112  34.970  28.942   4.772
64554W        W28113  25.537  24.057  12.004
64555W        W28114   0.768  42.921   5.307
64556W        W28115  31.074  30.613   2.672
64557W        W28116  13.736  42.814   4.318
64558W        W28117  43.354  44.985  14.939
64559W        W28118  31.534  13.313  13.499
64560W        W28119  39.327  37.989   0.396
64561W        W28120  25.687  14.311   0.856
64562W        W28121   7.306   8.702   2.689
64563W        W28122  32.141  27.571   0.953
64564W        W28123  13.258  31.951   3.701
64565W        W28124  15.769   5.877   2.742
64566W        W28125  33.966  13.181   4.282
64567W        W28126  11.863  44.962   4.263
64568W        W28127   5.933   9.788  12.385
64569W        W28128   6.690  20.272  14.399
64570W        W28129   9.230  11.653  11.479
64571W        W28130  35.415  12.343   0.436
64572W        W28131  22.168  27.540  11.375
64573W        W28132  29.616  11.325   1.817
64574W        W28133  35.107  10.636   0.368
64575W        W28134  15.094  22.140   2.392
64576W        W28135  21.526   9.702  13.842
64577W        W28136  19.540  25.123  11.098
64578W        W28137  38.416  18.564   0.845
64579W        W28138  22.658  43.345  13.917
64580W        W28139  36.967   2.959  13.004
64581W        W28140   4.749  13.181  10.524
64582W        W28141  15.765   2.855   4.150
64583W        W28142   8.688  19.111  13.391
64584W        W28143   0.488  36.932   3.722
64585W        W28144  37.860  28.656  13.842
64586W        W28145  30.473  28.637  12.580
64587W        W28146   6.250  16.670   4.311
64588W        W28147  29.131  35.492   2.799
64589W        W28148  25.590  44.280   3.340
64590W        W28149  20.044  36.472   3.647
64591W        W28150  22.159  41.352  13.471
64592W        W28151   8.850  39.855   3.181
64593W        W28152   6.853  21.707  14.874
64594W        W28153  43.886  20.108  11.128
64595W        W28154  21.645   1.272  14.891
64596W        W28155  40.354  22.105   2.299
64597W        W28156  17.708  14.677   2.853
64598W        W28157   7.789   1.902  10.044
64599W        W28158  33.474  23.624   3.156
64600W        W28159  26.149  21.212   3.298
64601W        W28160  17.662  44.334   2.373
64602W        W28161  26.612   0.834   4.687
64603W        W28162  42.834  34.951   0.397
64604W        W28163  32.611  32.042   1.809
64605W        W28164  29.096  30.087   0.297
64606W        W28165  33.512  44.329   4.616
64607W        W28166   5.295  25.991   3.826
64608W        W28167  41.901  18.700  14.923
64609W        W28168  18.684  28.504  10.426
64610W        W28169  25.471  28.629   1.307
64611W        W28170  11.629  30.478  10.481
64612W        W28171  25.642   8.376   4.255
64613W        W28172   8.666   0.751  13.432
64614W        W28173  33.388  33.439   3.720
64615W        W28174  32.627  19.778  10.109
64616W        W28175  42.873  35.424  13.521
64617W        W28176   8.846  20.226  14.953
64618W        W28177  23.696  28.524   3.238
64619W        W28178   9.209   4.291   4.144
64620W        W28179  35.014  17.175   2.672
64621W        W28180   4.304  23.992  12.834
64622W        W28181  25.638   3.928   4.805
64623W        W28182  17.169  42.303   0.885
64624W        W28183  39.849  40.035  12.900
64625W        W28184   0.311   9.788   2.737
64626W        W28185  37.379   9.181   1.817
64627W        W28186  27.673  33.005   2.886
64628W        W28187  12.336  29.638  11.437
64629W        W28188  43.875  20.188   4.140
64630W        W28189  33.038  33.101  11.023
64631W        W28190  10.638  11.274  13.053
64632W        W28191  21.228  22.215   3.753
64633W        W28192  29.013   9.809  10.578
64634W        W28193  31.477  10.800   2.409
64635W        W28194  42.975  37.532   0.463
64636W        W28195   6.325   4.932   0.895
64637W        W28196  24.170  25.507   1.772
64638W        W28197  38.060  23.573   5.088
64639W        W28198  35.935  28.071   4.186
64640W        W28199  11.127  19.203  14.296
64641W        W28200  20.081  11.805   4.184
64642W        W28201  20.036   7.901  14.826
64643W        W28202  21.655  12.300  13.848
64644W        W28203   5.229  10.260   9.985
64645W        W28204  12.714  31.897  13.033
64646W        W28205  11.686  44.804  11.548
64647W        W28206  14.263  33.972  11.888
64648W        W28207   8.232  13.773  13.471
64649W        W28208   2.402   6.360   4.698
64650W        W28209  43.997  11.805   4.801
64651W        W28210  12.266  20.147  12.984
64652W        W28211   0.801  35.973   3.849
64653W        W28212  43.316  32.093   1.350
64654W        W28213  20.579   6.725  14.961
64655W        W28214   3.228  36.403  14.848
64656W        W28215  26.195  14.647   1.298
64657W        W28216  38.431  21.101   3.855
64658W        W28217  41.460  16.641  14.994
64659W        W28218   3.296  29.991  14.916
64660W        W28219  24.045  29.920  11.448
64661W        W28220   6.326  21.039  13.879
64662W        W28221  21.090  33.479  10.615
64663W        W28222  22.168  16.174   4.635
64664W        W28223   2.459  18.665  12.413
64665W        W28224  12.326  16.716   4.261
64666W        W28225  19.095  21.251   5.207
64667W        W28226  37.924  27.058   1.917
64668W        W28227  28.639  29.980   4.180
64669W        W28228  13.611   1.303  12.517
64670W        W28229  39.868   3.264   4.678
64671W        W28230  11.749  24.710  10.044
64672W        W28231  22.213   8.737   4.175
64673W        W28232   4.699  28.085  11.521
64674W        W28233  40.512  44.981   0.276
64675W        W28234  19.627  20.092  14.786
64676W        W28235   7.866  11.840  10.453
64677W        W28236   9.170   9.794  12.542
64678W        W28237  28.452   2.877  12.510
64679W        W28238  42.371  21.522   3.214
64680W        W28239  24.622  29.583  14.428
64681W        W28240  39.047  21.150  14.984
64682W        W28241  17.298  11.649  13.330
64683W        W28242  32.122  35.408  10.943
64684W        W28243  44.338   9.793   2.354
64685W        W28244   9.651   9.392   3.312
64686W        W28245  34.106  15.633  11.441
64687W        W28246  17.262   3.353  12.044
64688W        W28247  33.557  27.982  14.820
64689W        W28248   5.250   0.280   4.322
64690W        W28249   3.230   9.213  12.375
64691W        W28250   8.246  37.016  11.531
64692W        W28251  38.040  11.138   4.702
64693W        W28252   2.340  26.042  13.013
64694W        W28253   3.408   7.804   1.273
64695W        W28254  40.344  37.542  10.442
64696W        W28255   7.188  28.946   0.275
64697W        W28256   7.218  42.498   2.795
64698W        W28257  42.978   4.271  10.432
64699W        W28258  24.223  12.724   1.859
64700W        W28259   4.793  27.164   3.740
64701W        W28260  12.675  19.169  12.481
64702W        W28261  19.165  23.986   0.473
64703W        W28262  10.246  36.982   2.801
64704W        W28263   7.783   4.360   2.761
64705W        W28264  43.467  35.566   2.877
64706W        W28265  26.496  41.379  12.018
64707W        W28266  19.723  42.501  13.966
64708W        W28267  17.622  23.172  12.846
64709W        W28268  39.424  40.959   2.330
64710W        W28269  15.245  14.177   5.221
64711W        W28270  14.635  11.340  11.562
64712W        W28271  12.635   8.277   5.585
64713W        W28272   3.257  36.536  12.373
64714W        W28273  41.483  27.169  12.481
64715W        W28274   4.297  27.972  11.405
64716W        W28275  15.793  22.243   3.819
64717W        W28276   3.235  43.997  14.834
64718W        W28277  32.449  27.492   3.384
64719W        W28278   3.384  28.136   1.765
64720W        W28279   2.819   4.261  12.458
64721W        W28280  18.237  20.134   1.934
64722W        W28281  34.426  39.824   3.671
64723W        W28282  22.629  21.022  12.438
64724W        W28283  44.321   6.335   3.343
64725W        W28284  15.607  36.440  13.493
64726W        W28285  35.023  13.839   3.786
64727W        W28286  26.659   4.902  12.984
64728W        W28287  32.031  26.027   9.945
64729W        W28288  37.562  30.462   3.738
64730W        W28289   0.856   4.726   3.652
64731W        W28290  28.519   2.732  14.782
64732W        W28291  42.496  12.148  14.880
64733W        W28292  38.043   3.821  13.038
64734W        W28293  21.618   8.359  10.406
64735W        W28294  36.089  14.680  11.071
64736W        W28295  39.812  24.614   3.169
64737W        W28296  22.066  13.105  12.889
64738W        W28297  44.376  10.716  13.809
64739W        W28298  30.450  13.201   3.177
64740W        W28299  35.025  30.414   5.122
64741W        W28300  26.627  36.873   2.746
64742W        W28301  25.074  44.891  12.450
64743W        W28302   1.788  24.688  12.517
64744W        W28303  19.160   3.807  12.887
64745W        W28304  42.383   0.773  12.458
64746W        W28305  14.105   7.828   0.783
64747W        W28306  44.904  26.526  10.094
64748W        W28307   7.880  13.217   1.387
64749W        W28308  39.038  24.069   2.283
64750W        W28309  20.123  15.681  11.491
64751W        W28310   8.760  25.563   3.759
64752W        W28311  32.950  29.595  14.786
64753W        W28312  44.962   4.886  14.283
64754W        W28313  32.441  13.695  12.037
64755W        W28314  26.080   0.261   4.707
64756W        W28315  15.097  15.821  10.537
64757W        W28316  20.729  25.103   0.368
64758W        W28317   6.348  24.579   1.350
64759W        W28318  22.228  43.767  14.955
64760W        W28319  19.593  23.115   3.245
64761W        W28320  11.725  18.253  10.916
64762W        W28321  16.225  19.052  13.427
64763W        W28322   3.324  27.549   0.839
64764W        W28323   2.732  42.383   4.688
64765W        W28324  30.029  41.371  12.094
64766W        W28325  40.479  13.163   3.848
64767W        W28326  29.124   9.216   3.250
64768W        W28327  12.803  17.670   4.129
64769W        W28328   0.830   8.255  13.467
64770W        W28329  21.078  30.000   1.770
64771W        W28330  42.995  18.672   1.250
64772W        W28331  37.486   8.818   4.189
64773W        W28332   3.290  30.428  13.498
64774W        W28333  27.981  37.437  14.768
64775W        W28334  31.518  12.786  14.999
64776W        W28335  31.453  23.115  10.428
64777W        W28336  38.937  35.103   1.400
64778W        W28337   9.888  44.856   3.296
64779W        W28338  27.519  20.145   4.252
64780W        W28339  21.637   4.827  14.767
64781W        W28340  30.439  14.817  12.897
64782W        W28341   6.727  24.523  11.431
64783W        W28342  20.522  37.509   1.322
64784W        W28343  44.839  40.356   2.776
64785W        W28344   3.335  24.051  12.881
64786W        W28345  29.033  29.170  13.048
64787W        W28346  23.176  11.372  12.885
64788W        W28347  20.694  44.840   0.398
64789W        W28348  31.924  21.634  13.921
64790W        W28349   1.821   6.280  13.379
64791W        W28350  15.273   0.273   3.147
64792W        W28351  32.606  39.434   3.304
64793W        W28352  13.263  40.823   4.192
64794W        W28353   2.786  31.557   4.742
64795W        W28354   5.251  35.382   3.793
64796W        W28355  44.285  17.263   1.816
64797W        W28356  10.240  14.818   0.450
64798W        W28357  11.294   8.184   9.639
64799W        W28358   5.870  24.636   2.237
64800W        W28359   2.943  43.973   0.863
64801W        W28360   3.711   0.965  13.861
64802W        W28361  38.523  38.347   3.686
64803W        W28362  33.509  15.772   3.675
64804W        W28363  18.732  21.054  12.887
64805W        W28364  42.440  43.928   4.190
64806W        W28365  21.587   3.365   2.182
64807W        W28366  40.797  18.581  13.405
64808W        W28367  11.769  20.226  11.564
64809W        W28368  33.528  29.949   2.807
64810W        W28369  13.836  39.036  10.972
64811W        W28370  36.553  36.906   4.348
64812W        W28371   2.924   9.761   4.760
64813W        W28372  23.027   5.241  13.412
64814W        W28373   3.228  10.801  12.838
64815W        W28374  16.109   2.368  12.934
64816W        W28375   4.934  25.669  13.947
64817W        W28376  29.617   2.892   2.245
64818W        W28377   5.737  34.503   3.306
64819W        W28378  26.594  22.182   0.252
64820W        W28379  29.538  11.784   4.264
64821W        W28380  23.713  13.796  12.422
64822W        W28381  41.463  38.545  14.842
64823W        W28382   4.781  43.960   0.821
64824W        W28383   1.819  18.278   4.605
64825W        W28384  31.454  39.365   1.764
64826W        W28385  23.083  28.544   4.637
64827W        W28386  21.226  42.927   0.373
64828W        W28387  43.842  14.804   4.774
64829W        W28388  33.116   6.707   4.241
64830W        W28389   0.328   3.773  14.456
64831W        W28390  41.797  22.023   4.225
64832W        W28391  20.134  23.114   0.331
64833W        W28392  26.528  39.437   3.237
64834W        W28393   4.797  27.102  11.432
64835W        W28394  16.732  41.364  14.491
64836W        W28395  33.052  24.163  11.997
64837W        W28396   6.320  22.222  14.388
64838W        W28397  39.325   0.945  14.886
64839W        W28398  27.010   4.222  11.449
64840W        W28399  21.543   2.450   3.218
64841W        W28400  28.941   8.228  13.915
64842W        W28401   0.870  12.203   1.713
64843W        W28402  30.455  23.591  13.476
64844W        W28403  26.168  40.891  13.004
64845W        W28404  31.907  30.945  10.487
64846W        W28405   6.368  36.379   3.842
64847W        W28406   7.829  20.685  13.888
64848W        W28407   6.759  33.953  14.410
64849W        W28408  42.293  25.579  11.916
64850W        W28409   0.382  13.633   0.260
64851W        W28410  33.511  26.953  11.611
64852W        W28411   4.241  38.548   4.198
64853W        W28412  19.109  33.059  13.541
64854W        W28413  41.348   5.778  10.419
64855W        W28414  41.413   6.412  13.889
64856W        W28415  44.764   3.426   3.216
64857W        W28416  43.831  28.960  14.281
64858W        W28417  42.023  31.106   3.657
64859W        W28418  27.459  30.104   3.226
64860W        W28419   6.206   9.254  14.390
64861W        W28420   2.341  37.873  14.998
64862W        W28421  11.841   6.308  14.336
64863W        W28422   9.314  34.975  13.376
64864W        W28423   3.726   5.706   2.667
64865W        W28424  29.569  25.643   1.406
64866W        W28425  40.322  26.617  10.966
64867W        W28426   9.768  16.314   5.203
64868W        W28427   1.829  37.870  14.330
64869W        W28428  37.975  12.353  12.343
64870W        W28429  25.999  13.313  11.933
64871W        W28430  14.304  10.656   0.924
64872W        W28431  14.774  23.124   1.802
64873W        W28432  26.186  41.336  12.358
64874W        W28433   0.754  42.004  12.417
64875W        W28434  41.378  36.479  14.293
64876W        W28435  22.122  15.083  11.575
64877W        W28436  16.597  43.006  12.401
64878W        W28437   9.192   3.752   4.632
64879W        W28438  37.917  26.646  10.576
64880W        W28439  33.598  18.560  11.612
64881W        W28440   2.338   0.970  10.594
64882W        W28441  37.389  30.432   1.925
64883W        W28442  19.248  37.439   0.391
64884W        W28443  23.691  13.243   2.235
64885W        W28444  10.788  23.184   2.296
64886W        W28445  24.645  19.695  10.548
64887W        W28446  11.171   7.867   2.696
64888W        W28447  22.024  20.561  12.000
64889W        W28448   6.236  17.616  12.916
64890W        W28449  28.592  20.573   0.455
64891W        W28450  10.777  15.264   2.203
64892W        W28451   1.918   3.217   4.240
64893W        W28452  24.661  40.831  12.862
64894W        W28453  38.329   4.271   1.323
64895W        W28454   5.809  30.499  12.937
64896W        W28455  24.184  29.140  11.993
64897W        W28456   2.268   0.837   9.985
64898W        W28457   4.769  41.008  11.037
64899W        W28458  22.164  13.206   4.647
64900W        W28459  33.913   8.842   4.302
64901W        W28460  12.805   2.951   2.852
64902W        W28461  43.020   0.358   1.882
64903W        W28462   8.837  21.107   0.827
64904W        W28463   7.837   8.767  13.957
64905W        W28464  28.183  39.810  10.988
64906W        W28465  38.042   5.898  11.078
64907W        W28466  41.015  12.852  13.869
64908W        W28467   7.193  28.502   0.888
64909W        W28468  34.397   2.283   3.865
64910W        W28469   0.929   1.394   3.156
64911W        W28470   0.443  41.528  14.475
64912W        W28471  13.349  14.251  10.603
64913W        W28472   1.408  29.063  14.967
64914W        W28473  34.073  44.260  10.449
64915W        W28474  32.539  13.664   2.667
64916W        W28475   3.774   6.417   2.204
64917W        W28476   8.790  33.008  14.978
64918W        W28477  20.189  25.509   0.444
64919W        W28478   0.948  10.265  11.579
64920W        W28479  19.611   5.388   3.726
64921W        W28480  29.976  17.162   1.862
64922W        W28481  25.650   0.438   0.835
64923W        W28482  20.098  41.411   9.931
64924W        W28483  18.191  40.505   1.907
64925W        W28484  35.079  32.044   4.167
64926W        W28485  37.541  37.967  14.284
64927W        W28486  24.052  14.825   0.892
64928W        W28487  32.983  35.011  14.770
64929W        W28488  22.158   5.731   1.322
64930W        W28489  16.783  14.140   1.218
64931W        W28490   9.720  43.956  12.017
64932W        W28491  37.425  20.062  11.558
64933W        W28492  18.254   3.418   0.329
64934W        W28493  33.624  21.089  13.823
64935W        W28494  34.875  13.125   4.791
64936W        W28495  30.616  22.053  14.961
64937W        W28496  16.619  22.027  14.426
64938W        W28497  12.171   0.431  13.903
64939W        W28498  28.472  41.847  14.004
64940W        W28499  42.931   8.830   3.651
64941W        W28500  33.883  44.316   1.227
64942W        W28501   4.309  14.141   4.758
64943W        W28502  29.459  40.497  11.978
64944W        W28503   5.400  15.673   0.268
64945W        W28504  40.322  39.971  14.309
64946W        W28505   6.824  44.754  14.504
64947W        W28506   6.917  41.002  13.053
64948W        W28507  16.288  27.954   3.188
64949W        W28508  27.611  43.383   1.402
64950W        W28509   6.297  15.783   1.783
64951W        W28510  36.060  29.093  11.497
64952W        W28511  19.099  20.228   2.206
64953W        W28512  19.160  31.049  14.963
64954W        W28513  15.216  29.645   4.152
64955W        W28514  40.471  12.220  12.424
64956W        W28515  29.491  13.262  13.468
64957W        W28516  17.753  23.190   1.844
64958W        W28517  12.172  28.593   3.671
64959W        W28518   7.337  40.880  12.892
64960W        W28519  24.673  29.934   2.870
64961W        W28520  34.373  23.084   3.808
64962W        W28521   0.758  42.424   0.375
64963W        W28522  24.522  31.985  14.868
64964W        W28523  32.574  11.756  11.020
64965W        W28524   0.477   8.735   4.656
64966W        W28525  31.900  37.916   2.366
64967W        W28526  26.122  15.787  14.276
64968W        W28527  15.798  44.809   0.358
64969W        W28528  43.841  44.769  12.446
64970W        W28529  37.886   5.317   2.808
64971W        W28530  34.436  29.509  10.624
64972W        W28531  28.010  43.851   3.665
64973W        W28532  39.966  39.362  14.473
64974W        W28533   6.261  23.161  13.872
64975W        W28534  21.638   4.744  11.979
64976W        W28535  22.008  32.458   5.566
64977W        W28536  42.872  27.688   3.659
64978W        W28537  41.852   0.943  13.346
64979W        W28538  24.993  18.121  14.415
64980W        W28539  15.205  33.890   1.917
64981W        W28540  23.546  36.956  11.014
64982W        W28541  32.418   8.274  11.425
64983W        W28542  11.163   9.268   2.788
64984W        W28543   3.778  14.231   3.261
64985W        W28544  18.567  35.513  14.017
64986W        W28545  31.947  25.000   1.227
64987W        W28546  13.693  34.593  10.415
64988W        W28547  13.315   5.257   3.275
64989W        W28548  41.927  13.639  14.399
64990W        W28549  24.545  41.460   2.787
64991W        W28550  28.032  25.692   4.351
64992W        W28551   7.295  30.046   4.795
64993W        W28552  36.488  14.137  10.565
64994W        W28553  16.103  26.174   0.771
64995W        W28554   1.937  34.078   2.212
64996W        W28555  11.772  41.867  14.995
64997W        W28556  22.685  39.498  13.309
64998W        W28557   9.702  12.852  14.395
64999W        W28558  28.159  16.211   5.107
65000W        W28559  33.128  31.152   2.241
65001W        W28560  23.096   6.263   3.343
65002W        W28561  41.840   6.283   0.752
65003W        W28562  19.756  16.758   2.862
65004W        W28563  41.381  24.087  10.423
65005W        W28564   3.836  35.877   4.323
65006W        W28565  23.021   9.767  13.327
65007W        W28566   1.463  22.712  12.072
65008W        W28567   2.271  14.695  11.929
65009W        W28568  37.558  39.998   0.847
65010W        W28569   7.706  37.510  13.973
65011W        W28570  24.526  40.929  11.383
65012W        W28571  23.651  41.007  14.468
65013W        W28572  18.546  10.179   0.888
65014W        W28573  38.887  30.079   1.817
65015W        W28574   3.266  10.675   4.656
65016W        W28575  37.064   3.831   3.638
65017W        W28576  35.371  43.999   0.302
65018W        W28577  19.724  38.570   0.376
65019W        W28578  37.468  38.865   1.217
65020W        W28579   8.897  26.030  12.949
65021W        W28580  40.049  39.383   3.745
65022W        W28581  37.029   5.730   0.938
65023W        W28582   9.805   8.885   1.707
65024W        W28583  27.665  38.419   2.325
65025W        W28584  23.654  29.432  13.496
65026W        W28585  33.005  22.006  12.356
65027W        W28586  30.590  43.456  12.928
65028W        W28587  17.699   5.743  13.931
65029W        W28588  34.887   2.758  10.934
65030W        W28589  18.133  24.214  10.539
65031W        W28590  18.069  44.496  11.999
65032W        W28591  10.165   0.490  13.040
65033W        W28592  37.043  38.074  14.396
65034W        W28593  27.479  26.990  14.403
65035W        W28594  36.913  35.546  10.960
65036W        W28595  25.511  39.375   1.873
65037W        W28596  12.192  24.649  14.902
65038W        W28597  23.088  42.303  11.065
65039W        W28598  17.688  42.328   2.363
65040W        W28599  18.642  42.291   2.829
65041W        W28600  21.148  42.855   2.792
65042W        W28601  15.280  34.966   1.395
65043W        W28602  38.047  14.151   2.230
65044W        W28603   7.810  27.510   1.729
65045W        W28604  35.966  30.622  11.536
65046W        W28605  40.427  17.774  14.834
65047W        W28606  44.343  23.661  10.074
65048W        W28607  30.594   5.812  14.333
65049W        W28608  14.132  17.304  11.937
65050W        W28609  29.547  22.056   3.865
65051W        W28610  11.240  22.111   0.327
65052W        W28611  35.373   4.915  14.772
65053W        W28612  30.164  14.330   2.758
65054W        W28613  29.513  20.684   1.930
65055W        W28614  27.968  36.994  12.439
65056W        W28615  23.500  39.440   0.261
65057W        W28616  23.111  11.759  11.967
65058W        W28617  26.570  14.686   3.307
65059W        W28618   9.719  25.542   0.305
65060W        W28619  16.174   6.388   2.324
65061W        W28620  27.095  30.559   3.354
65062W        W28621  20.744  21.756   1.803
65063W        W28622  31.470  39.941  10.440
65064W        W28623  39.038   1.416  10.584
65065W        W28624   8.831   6.828   0.453
65066W        W28625  14.798  44.261  12.460
65067W        W28626   0.859   2.943   3.170
65068W        W28627  36.487  21.670  14.373
65069W        W28628  40.441  33.038  12.853
65070W        W28629  15.800  25.015   3.300
65071W        W28630  11.160   1.757  10.546
65072W        W28631  19.705  39.467  11.479
65073W        W28632  15.731  39.904   2.211
65074W        W28633   4.447  41.538  14.916
65075W        W28634  30.642  36.904  12.549
65076W        W28635  31.913  21.579   5.089
65077W        W28636   0.302   1.951  10.456
65078W        W28637  30.521  44.955  14.803
65079W        W28638  17.769   3.453  10.987
65080W        W28639  28.485  12.809  14.778
65081W        W28640  16.242  32.458  14.787
65082W        W28641  15.800  12.692   1.732
65083W        W28642  21.711  42.403   3.773
65084W        W28643  35.093  38.832  11.906
65085W        W28644  15.229   9.849  14.346
65086W        W28645   7.668  25.109  12.403
65087W        W28646  35.547  27.659  11.558
65088W        W28647  17.186  13.604   1.355
65089W        W28648  34.951  22.591   3.289
65090W        W28649  43.832  20.261  13.036
65091W        W28650  32.541  21.589   0.389
65092W        W28651  33.880   5.808  10.572
65093W        W28652  41.917  27.037  13.363
65094W        W28653  44.936  43.419   4.320
65095W        W28654  14.211  13.826  12.076
65096W        W28655   6.199  34.391  10.457
65097W        W28656  31.438  38.999  14.458
65098W        W28657  24.178  38.391  12.380
65099W        W28658  40.509  44.345  11.444
65100W        W28659  18.174  34.388   3.264
65101W        W28660  32.438  18.161  10.057
65102W        W28661  28.652  41.924  11.037
65103W        W28662  10.300  33.978   2.663
65104W        W28663   6.277   5.812   2.728
65105W        W28664  36.420  35.592   0.960
65106W        W28665  18.147   2.872   3.841
65107W        W28666   9.151   6.319   2.662
65108W        W28667  30.109  34.372   0.397
65109W        W28668  14.179  34.428  12.455
65110W        W28669  18.715  43.843   3.338
65111W        W28670  32.400   8.810  10.461
65112W        W28671   6.207  26.081   4.743
65113W        W28672  29.460  33.388   3.330
65114W        W28673  21.093  11.656   0.354
65115W        W28674  11.159  42.997   1.361
65116W        W28675  37.370  30.531  12.906
65117W        W28676  14.647  37.474   4.742
65118W        W28677  15.200  20.167   2.861
65119W        W28678  24.677  42.884   1.371
65120W        W28679  19.270  26.170   3.241
65121W        W28680  32.892  44.867  13.923
65122W        W28681  40.355  23.574   4.291
65123W        W28682  37.032  29.086  14.842
65124W        W28683  34.933  22.118   1.388
65125W        W28684  29.586  30.081   1.839
65126W        W28685  33.390   6.876   0.274
65127W        W28686  23.545   4.249   1.755
65128W        W28687   5.241  16.205  14.465
65129W        W28688  31.610  21.552   1.858
65130W        W28689  32.465  10.723   1.358
65131W        W28690  11.129  11.744  12.440
65132W        W28691  44.272  11.315   0.910
65133W        W28692   1.254  20.576   2.729
65134W        W28693  37.343   2.928  10.940
65135W        W28694  13.749  22.684   5.240
65136W        W28695  37.976  22.159   4.682
65137W        W28696   7.215  10.862   2.835
65138W        W28697  13.127  31.993   4.203
65139W        W28698   6.406  29.597   3.372
65140W        W28699  18.734  14.283  11.895
65141W        W28700  29.601  21.571   1.338
65142W        W28701  10.779  11.135  12.550
65143W        W28702  44.403  11.210   2.679
65144W        W28703  33.424  17.062  13.493
65145W        W28704  29.452  11.750   4.777
65146W        W28705  43.837  20.574  12.051
65147W        W28706  24.599  22.041   5.149
65148W        W28707  29.062  14.140  13.460
65149W        W28708  42.341  19.276  14.790
65150W        W28709  30.508  43.014  11.975
65151W        W28710  37.345   0.336   4.264
65152W        W28711  12.213   0.396   2.352
65153W        W28712  38.506   7.299   0.287
65154W        W28713  22.124  27.134  11.072
65155W        W28714  32.484  41.397  13.797
65156W        W28715  12.153  35.966  13.943
65157W        W28716   1.257  14.197  12.865
65158W        W28717  18.141   4.324   0.313
65159W        W28718  12.244   3.220   0.328
65160W        W28719  11.714  26.640   3.712
65161W        W28720  31.508   8.814  10.140
65162W        W28721  35.046   7.235   0.950
65163W        W28722  37.459  44.485  10.568
65164W        W28723  41.021  19.770  13.842
65165W        W28724   5.374  31.927   5.315
65166W        W28725  43.852  11.667   1.856
65167W        W28726  24.572  12.268   1.396
65168W        W28727  20.043  34.051  12.906
65169W        W28728  41.878  18.783   4.127
65170W        W28729  16.573  12.176  11.470
65171W        W28730  25.632  23.670   4.206
65172W        W28731   0.918  33.068  13.030
65173W        W28732  22.531   7.777   3.825
65174W        W28733  19.073  14.663  12.365
65175W        W28734  16.213   3.425  12.570
65176W        W28735  42.832  42.929  13.993
65177W        W28736  29.574  10.770  13.924
65178W        W28737  14.830  39.006  14.493
65179W        W28738  25.589  30.049  10.427
65180W        W28739   4.934  20.118  12.947
65181W        W28740  31.602  11.191  10.992
65182W        W28741  33.513  18.695   3.755
65183W        W28742   5.408  18.584   4.826
65184W        W28743  29.596   4.923  12.973
65185W        W28744  44.962  30.974   1.698
65186W        W28745  16.748   0.752  12.552
65187W        W28746  15.262  14.834  11.606
65188W        W28747  10.288  21.132   5.204
65189W        W28748  35.927   6.398   2.284
65190W        W28749   3.824  40.949   2.336
65191W        W28750  36.368  26.158   1.393
65192W        W28751  29.571  33.039  11.448
65193W        W28752  15.217  41.978  14.370
65194W        W28753  35.941  29.478   4.184
65195W        W28754  23.531  20.706   2.804
65196W        W28755  31.105   5.203   4.336
65197W        W28756  32.018  18.634  12.531
65198W        W28757  13.172  35.518  14.479
65199W        W28758   3.451  40.863  12.020
65200W        W28759  11.627  28.051  14.793
65201W        W28760   3.239  31.524   1.259
65202W        W28761  26.464  32.971  11.397
65203W        W28762   5.199  24.722   0.909
65204W        W28763  32.894   8.349  11.045
65205W        W28764  13.181  16.782  11.579
65206W        W28765  10.206  12.129  12.973
65207W        W28766   0.425   1.450  12.359
65208W        W28767   3.951  29.087  12.915
65209W        W28768  28.437  18.251  12.350
65210W        W28769  27.521  26.009   3.810
65211W        W28770  23.643  37.982  14.972
65212W        W28771  11.242  35.995  12.947
65213W        W28772   0.296   7.236   4.828
65214W        W28773  31.118  30.963   1.334
65215W        W28774  16.165  22.659   1.446
65216W        W28775   6.351   3.349  13.510
65217W        W28776   9.238  42.790   2.322
65218W        W28777  38.902  13.778   5.197
65219W        W28778  21.206  11.207  12.450
65220W        W28779  26.207  22.022  11.567
65221W        W28780  41.351  31.564  13.994
65222W        W28781  20.746  30.044  14.839
65223W        W28782  30.506  27.174   0.380
65224W        W28783  18.218  40.419   0.812
65225W        W28784  36.495  40.334  11.442
65226W        W28785  43.420  24.109  10.937
65227W        W28786  10.704   9.313   0.365
65228W        W28787  10.647  24.665  12.002
65229W        W28788  31.118  32.991   0.418
65230W        W28789  30.931   0.281  11.026
65231W        W28790  11.281   3.848  12.886
65232W        W28791   2.746  10.228   3.189
65233W        W28792  21.253   9.315   2.230
65234W        W28793  22.524  22.725  10.471
65235W        W28794   2.356  43.443  11.891
65236W        W28795  26.670  41.454   0.470
65237W        W28796  13.347   2.277   3.663
65238W        W28797  25.612  30.551   5.165
65239W        W28798  39.354   6.202   2.220
65240W        W28799   9.804  40.861  12.954
65241W        W28800  19.163  44.274   0.772
65242W        W28801  19.285  28.470   5.306
65243W        W28802  29.113  10.260  10.482
65244W        W28803  33.412  18.651  10.102
65245W        W28804  13.236   4.899  11.880
65246W        W28805   1.756  16.294   3.253
65247W        W28806  24.179  34.541  12.473
65248W        W28807   7.286  38.863  12.389
65249W        W28808  38.377   9.242   0.857
65250W        W28809  21.127  41.040  14.324
65251W        W28810   2.788  17.569  12.824
65252W        W28811  25.703  25.507   1.442
65253W        W28812  31.011   9.309  14.470
65254W        W28813  22.658  27.584   9.936
65255W        W28814   1.262   4.847  14.908
65256W        W28815  24.674  30.933   4.837
65257W        W28816   3.262  16.196   0.855
65258W        W28817  27.483  26.612  11.603
65259W        W28818  35.388  33.435   1.442
65260W        W28819  34.382  12.748   2.296
65261W        W28820  16.244  15.763   2.221
65262W        W28821  17.234   7.172   4.785
65263W        W28822  25.114  31.568   0.247
65264W        W28823   4.843  29.551   4.765
65265W        W28824  36.922  27.118  13.477
65266W        W28825  18.091  33.124   3.682
65267W        W28826  24.693  34.094  14.863
65268W        W28827  43.336   1.270  14.818
65269W        W28828  42.340   0.409   4.640
65270W        W28829   3.785  44.492  13.311
65271W        W28830  27.485  24.664  11.934
65272W        W28831   3.721   0.453  13.381
65273W        W28832  23.167  41.384  10.999
65274W        W28833  21.175  24.606   2.193
65275W        W28834  13.342   8.200   1.737
65276W        W28835  37.529  16.308   4.254
65277W        W28836  26.537  31.075   1.927
65278W        W28837  12.767  31.001   4.274
65279W        W28838   4.326   3.266   2.746
65280W        W28839  43.274  34.967  14.009
65281W        W28840  17.270  23.204  13.854
65282W        W28841   4.429  39.525  13.420
65283W        W28842  17.632  35.972  14.963
65284W        W28843  11.829   1.456  13.948
65285W        W28844  11.738  25.150   0.459
65286W        W28845   0.932   4.365   2.287
65287W        W28846   1.748  41.347  13.467
65288W        W28847  38.501  22.675  14.913
65289W        W28848   6.288  20.064   3.209
65290W        W28849  17.245  17.703  11.885
65291W        W28850  22.660  20.091  11.477
65292W        W28851  25.003  23.132  12.948
65293W        W28852  22.237  17.159  14.355
65294W        W28853  31.055   1.851  12.415
65295W        W28854  28.607  35.093  10.486
65296W        W28855   2.469   0.911   4.615
65297W        W28856  32.503   9.290   5.743
65298W        W28857  36.402  29.161  10.441
65299W        W28858  24.590  43.952  12.970
65300W        W28859  38.997   3.887  14.792
65301W        W28860   1.740  27.688  11.419
65302W        W28861  28.151  39.340   3.661
65303W        W28862  31.483  15.280   2.696
65304W        W28863  35.604  36.939  12.032
65305W        W28864  16.643   0.801   0.393
65306W        W28865  40.974  33.528  12.035
65307W        W28866   3.348  31.945   1.849
65308W        W28867  44.837  35.977   4.807
65309W        W28868  17.253  31.516   4.651
65310W        W28869  25.991  24.533   0.393
65311W        W28870   5.360  42.820   0.768
65312W        W28871  31.938  33.929   4.251
65313W        W28872  35.440  28.496   3.674
65314W        W28873  43.419  29.164   2.358
65315W        W28874   7.270  20.136  13.831
65316W        W28875   2.277  17.241  11.027
65317W        W28876  14.228   5.397   5.208
65318W        W28877  11.137  37.040   1.315
65319W        W28878  32.985  10.192   2.332
65320W        W28879   1.348  17.722   3.696
65321W        W28880  39.360   5.706   2.285
65322W        W28881   8.718  13.791   3.283
65323W        W28882  10.283  16.084   0.325
65324W        W28883   5.693   4.855   3.216
65325W        W28884   6.287  11.786  14.393
65326W        W28885  31.441  35.038  11.408
65327W        W28886  35.896  39.326  14.998
65328W        W28887  42.350  14.106   0.261
65329W        W28888  22.064   2.281   0.833
65330W        W28889  18.788  14.187  11.022
65331W        W28890  23.063  16.162  14.944
65332W        W28891  41.005   9.309   4.116
65333W        W28892  29.643  12.316   1.826
65334W        W28893  28.171   9.297  14.971
65335W        W28894  25.086   6.228   0.389
65336W        W28895   1.927  18.753   2.810
65337W        W28896  16.663  17.556   2.241
65338W        W28897  38.415  43.377  10.904
65339W        W28898  39.011  23.144  10.512
65340W        W28899  10.773  21.758   1.248
65341W        W28900  13.841  36.035   3.869
65342W        W28901  16.613   5.323  11.951
65343W        W28902   2.321  36.993  12.004
65344W        W28903  26.667   7.808   0.368
65345W        W28904  41.372  38.532   4.262
65346W        W28905  10.302  16.298  10.074
65347W        W28906  36.498   6.894   1.932
65348W        W28907  26.182  36.369  11.958
65349W        W28908   8.266  14.129   9.556
65350W        W28909  28.596   7.818  12.917
65351W        W28910   9.853  41.957   0.307
65352W        W28911   4.749  30.040  10.568
65353W        W28912  28.576  38.952   2.781
65354W        W28913  36.452  16.766  10.931
65355W        W28914   0.803   3.258  14.338
65356W        W28915   6.212  24.513   3.737
65357W        W28916  39.936  37.851   3.309
65358W        W28917  33.954   3.457  14.342
65359W        W28918  29.562  10.865   4.665
65360W        W28919  33.453   4.711  12.932
65361W        W28920  23.130  33.943  12.067
65362W        W28921   0.954  16.772  13.915
65363W        W28922   9.883  42.870  14.413
65364W        W28923  43.403  10.371   9.927
65365W        W28924  22.124  26.972  11.379
65366W        W28925  28.545  24.104  11.039
65367W        W28926  18.211   7.811  13.986
65368W        W28927  39.541  16.198   0.909
65369W        W28928  43.469  14.730   1.392
65370W        W28929  36.998  44.893  12.830
65371W        W28930  11.730  22.180  14.464
65372W        W28931  27.943  30.075  14.807
65373W        W28932  42.898  42.803  14.869
65374W        W28933  11.828   3.714  13.859
65375W        W28934   6.412  44.323  11.534
65376W        W28935   9.660  34.579   2.345
65377W        W28936   3.890   8.281   4.216
65378W        W28937  19.049  35.878  14.432
65379W        W28938  16.798  23.577   0.256
65380W        W28939  41.382  34.598   2.185
65381W        W28940   2.438  29.475  13.434
65382W        W28941  27.656  17.574  12.908
65383W        W28942  22.102  32.546  11.408
65384W        W28943  43.943  23.182   2.877
65385W        W28944  26.611   2.285   4.128
65386W        W28945   0.844  10.826   3.344
65387W        W28946   3.427  44.957  14.454
65388W        W28947  25.593  12.813  12.029
65389W        W28948  36.400  12.685  10.573
65390W        W28949   9.230  26.634   3.280
65391W        W28950  37.497   8.735  11.930
65392W        W28951   7.907  31.504  10.499
65393W        W28952  32.480  26.003   4.316
65394W        W28953  24.011  35.097  12.091
65395W        W28954  40.920  35.892   1.697
65396W        W28955  27.457  34.051   1.854
65397W        W28956  10.212  29.172  14.944
65398W        W28957  29.540  30.058  11.891
65399W        W28958  40.923  38.840   4.336
65400W        W28959  28.664  18.600  12.369
65401W        W28960  42.951  36.851  12.968
65402W        W28961  13.832   0.850   0.839
65403W        W28962  30.504  39.917  13.395
65404W        W28963  13.758  14.817  11.496
65405W        W28964  17.136   5.789   9.984
65406W        W28965  39.422  29.141  11.532
65407W        W28966  12.806   7.273  14.432
65408W        W28967  38.350   5.900   4.285
65409W        W28968  11.279  11.752  14.980
65410W        W28969  15.154  28.172   1.373
65411W        W28970  14.238   5.870  12.852
65412W        W28971  21.130  39.894   1.360
65413W        W28972  28.042  42.899   2.780
65414W        W28973  14.801  13.620   1.928
65415W        W28974  17.071   9.358  11.087
65416W        W28975   1.890   7.314  11.987
65417W        W28976  28.481   5.724   1.394
65418W        W28977   8.262  27.691  13.526
65419W        W28978  38.555  12.286  10.990
65420W        W28979  31.635  35.002   4.687
65421W        W28980  23.659   7.215   2.690
65422W        W28981  38.422   7.254  14.826
65423W        W28982   0.815  11.746   4.169
65424W        W28983  42.994  33.968   2.334
65425W        W28984  31.974   2.257  12.851
65426W        W28985  43.903   7.863   2.847
65427W        W28986  13.766  16.745   4.611
65428W        W28987   8.258  35.555   4.127
65429W        W28988  39.006  25.113   3.227
65430W        W28989  41.028  35.431   2.675
65431W        W28990  15.662  14.310   0.363
65432W        W28991  43.379  14.335   2.254
65433W        W28992  11.363  13.307   1.284
65434W        W28993  30.484  30.555   0.455
65435W        W28994  24.711  37.360   2.856
65436W        W28995  22.636  24.004  14.391
65437W        W28996  13.782  18.061   0.803
65438W        W28997  23.984  36.432  13.929
65439W        W28998  28.086  23.102   3.769
65440W        W28999  34.888  31.937  12.016
65441W        W29000  37.951  28.018   3.165
65442W        W29001  33.560  21.671  14.771
65443W        W29002  24.643   0.845  10.431
65444W        W29003  24.020  17.201  12.992
65445W        W29004  14.220  33.486   2.787
65446W        W29005   4.832  11.279   4.701
65447W        W29006  11.691  27.109   2.287
65448W        W29007   5.307  16.244   3.741
65449W        W29008  42.979   2.896   0.759
65450W        W29009  42.440  41.043   3.697
65451W        W29010  31.511  18.212   3.844
65452W        W29011   3.872  11.705  13.942
65453W        W29012  10.698  13.618  14.304
65454W        W29013  42.902  41.836  14.818
65455W        W29014   6.683  38.495  14.827
65456W        W29015  26.093  24.175  11.088
65457W        W29016  21.147  32.625  12.570
65458W        W29017  12.762  38.326   0.908
65459W        W29018   8.206  36.084   4.657
65460W        W29019  29.450  37.395  12.517
65461W        W29020  34.397  19.259  11.065
65462W        W29021  19.541   0.282   3.701
65463W        W29022  21.088  29.155   0.375
65464W        W29023  39.414  16.305   4.642
65465W        W29024  29.566  23.031  10.956
65466W        W29025  15.745  28.071  12.053
65467W        W29026  20.637  32.064  11.061
65468W        W29027  16.631  33.045   1.765
65469W        W29028  26.030   5.934  13.477
65470W        W29029  30.915  12.283   0.358
65471W        W29030  12.259  42.834   4.742
65472W        W29031   3.430   7.281  14.854
65473W        W29032   8.864  44.781  10.610
65474W        W29033  10.158  42.356   3.819
65475W        W29034   5.724   3.786  12.073
65476W        W29035  33.934  11.692  10.031
65477W        W29036  33.084  13.112   0.274
65478W        W29037  38.839  17.567  14.817
65479W        W29038  31.541  35.527   0.926
65480W        W29039  22.603   3.451  14.959
65481W        W29040   3.935   3.232   4.835
65482W        W29041   3.751  32.885  12.487
65483W        W29042  15.222  36.012   0.458
65484W        W29043  44.918  31.559  14.990
65485W        W29044  23.126  17.172   3.731
65486W        W29045  24.628  41.812   2.823
65487W        W29046  43.884  22.065  10.563
65488W        W29047  13.608  13.720   0.254
65489W        W29048  25.020  22.084  13.394
65490W        W29049   6.418  43.845   0.478
65491W        W29050  20.205  26.582  12.377
65492W        W29051  27.010  17.216   0.954
65493W        W29052   9.186  29.459   1.274
65494W        W29053  30.956  12.765  14.986
65495W        W29054  11.703  28.112  13.395
65496W        W29055  37.553  19.068  10.500
65497W        W29056  16.572  38.492  11.114
65498W        W29057  34.470  44.365   1.822
65499W        W29058  27.577  20.719  11.374
65500W        W29059  33.891   4.859  12.436
65501W        W29060  36.369   8.668   1.413
65502W        W29061  16.727  15.658  13.875
65503W        W29062  36.353  23.675   5.101
65504W        W29063  15.619   6.328   5.309
65505W        W29064  15.774  44.760  14.364
65506W        W29065  16.118  22.594  13.912
65507W        W29066  31.902  15.218  14.499
65508W        W29067  23.026  39.434  10.586
65509W        W29068   8.783  31.069  13.042
65510W        W29069  29.455  33.065  14.988
65511W        W29070   3.459  17.096   1.323
65512W        W29071  34.441  43.367  13.017
65513W        W29072  15.153  42.931  14.013
65514W        W29073  23.697  13.678  14.366
65515W        W29074  30.947   7.300  11.583
65516W        W29075  30.499  35.521   2.375
65517W        W29076  36.417  26.682  11.934
65518W        W29077  35.544  41.018  14.479
65519W        W29078   5.413  41.323  12.395
65520W        W29079   3.742  38.011   0.840
65521W        W29080  23.622  25.011  11.390
65522W        W29081  20.043  41.470   3.191
65523W        W29082   2.310   7.277   2.700
65524W        W29083  14.801  21.101  14.502
65525W        W29084  23.574   6.251   0.752
65526W        W29085  27.091  24.521  13.362
65527W        W29086  14.114  10.356   3.817
65528W        W29087  43.812  13.284  11.519
65529W        W29088   8.214  40.885   0.399
65530W        W29089  24.535  36.448   2.354
65531W        W29090  30.562  40.425   3.661
65532W        W29091   8.738  44.980   2.892
65533W        W29092  40.412  12.685   2.786
65534W        W29093   8.690  23.069  10.951
65535W        W29094  27.019   4.388   2.896
65536W        W29095  18.689  35.431  11.554
65537W        W29096   4.406   1.388  14.898
65538W        W29097  16.297  40.457  11.102
65539W        W29098   9.276  32.433   0.892
65540W        W29099  37.853  18.173   5.313
65541W        W29100  39.433  14.778   4.610
65542W        W29101  31.493   9.653  11.103
65543W        W29102  13.760  14.231   2.371
65544W        W29103  13.172  14.302  12.071
65545W        W29104   8.297   9.285   4.671
65546W        W29105  14.691  28.184  12.538
65547W        W29106  17.674  15.204   3.316
65548W        W29107  23.642  30.016   2.416
65549W        W29108   6.217   8.221   4.804
65550W        W29109  28.623  16.170   3.684
65551W        W29110  16.258  15.277   4.616
65552W        W29111  33.953  41.941  12.443
65553W        W29112  15.262  34.098   4.622
65554W        W29113  27.065  42.362   4.136
65555W        W29114  19.570  34.927  14.384
65556W        W29115  39.367  32.901   3.673
65557W        W29116  31.561  24.572  12.405
65558W        W29117  28.139   3.398  13.353
65559W        W29118  32.072  36.550  13.345
65560W        W29119  39.490  26.155  13.487
65561W        W29120  28.526  14.623   3.810
65562W        W29121  34.025   2.780  12.967
65563W        W29122  31.018   9.154   0.295
65564W        W29123  27.632  29.071   1.817
65565W        W29124  35.594  30.540   1.837
65566W        W29125  32.571  35.963  11.992
65567W        W29126  42.344  44.388  14.980
65568W        W29127  35.108  39.470  11.987
65569W        W29128  14.813   6.862  12.355
65570W        W29129  33.966  12.346   3.357
65571W        W29130   7.215  16.248   2.334
65572W        W29131  31.996  20.640  11.043
65573W        W29132  39.972  23.675   1.329
65574W        W29133  19.660  35.575   4.237
65575W        W29134  37.543  12.717   1.776
65576W        W29135  43.425  18.789  11.521
65577W        W29136   6.882  12.749   3.819
65578W        W29137  38.844  21.563   1.816
65579W        W29138  25.548  28.575  13.318
65580W        W29139  44.452  16.197  10.494
65581W        W29140   7.892   5.384   4.745
65582W        W29141   5.878   5.197   4.772
65583W        W29142  10.252  28.992   1.410
65584W        W29143   7.182  43.839   3.719
65585W        W29144   6.890   4.246   0.899
65586W        W29145  28.934  25.581  14.827
65587W        W29146  27.192  17.089   3.216
65588W        W29147  43.477  41.373   0.462
65589W        W29148  35.415  13.640   3.154
65590W        W29149  28.072   7.691  11.506
65591W        W29150  30.026  12.647   0.251
65592W        W29151  17.585  14.701   1.916
65593W        W29152  11.195  41.862   0.812
65594W        W29153   2.853  13.155  13.328
65595W        W29154  10.307  14.621  13.323
65596W        W29155  30.527  26.619   1.787
65597W        W29156  27.508  36.554  13.985
65598W        W29157  29.622   8.696  12.549
65599W        W29158  11.856  21.690  13.976
65600W        W29159   4.794  16.294  10.433
65601W        W29160  42.899  38.883  13.846
65602W        W29161  12.202   7.316  13.813
65603W        W29162  44.465   2.466   3.228
65604W        W29163  14.133  22.709   3.377
65605W        W29164  28.667  33.412  12.869
65606W        W29165   5.245  35.965   5.312
65607W        W29166  20.057  31.052   2.891
65608W        W29167  24.524  35.382  10.940
65609W        W29168  43.365  34.535  10.058
65610W        W29169  31.406  12.675   4.204
65611W        W29170   7.696  44.953  11.085
65612W        W29171  35.972  41.433   2.782
65613W        W29172  17.079   8.711  12.571
65614W        W29173  24.642  11.736   1.381
65615W        W29174  15.754  36.348  12.988
65616W        W29175   8.202  44.301  10.959
65617W        W29176  11.301  39.376   2.358
65618W        W29177  44.889  27.080   3.285
65619W        W29178  11.797  12.775  12.965
65620W        W29179   6.802  37.396   3.297
65621W        W29180  26.645  38.891  11.421
65622W        W29181  44.303   6.245   1.795
65623W        W29182  29.087  10.695  14.901
65624W        W29183  28.638   8.708   1.302
65625W        W29184   2.414  32.471  11.079
65626W        W29185  13.740  42.484   1.748
65627W        W29186  16.575  16.225   0.727
65628W        W29187  23.169  15.268   3.771
65629W        W29188   2.909  21.698   3.190
65630W        W29189   0.949  31.438   9.975
65631W        W29190  19.207   9.801   4.233
65632W        W29191  43.360  17.797   4.681
65633W        W29192  27.487   6.199   0.892
65634W        W29193   9.347  33.414  12.995
65635W        W29194  17.262   0.786  11.893
65636W        W29195   7.216   8.881   3.198
65637W        W29196  11.139  41.434  11.592
65638W        W29197   0.891  28.999   3.339
65639W        W29198  20.643  23.533  10.974
65640W        W29199  21.047  43.926   2.766
65641W        W29200  40.903  14.136   3.351
65642W        W29201  19.096  22.538  12.423
65643W        W29202  24.517   4.269  10.461
65644W        W29203  10.722   2.720  14.971
65645W        W29204   6.275  27.941   4.200
65646W        W29205  25.026  31.618  12.504
65647W        W29206  36.539  10.876  14.970
65648W        W29207   4.283  12.658  11.091
65649W        W29208   4.786  19.643  11.040
65650W        W29209  25.061  22.565  13.017
65651W        W29210  34.917  31.060   1.333
65652W        W29211  28.004  14.650  11.019
65653W        W29212  25.026  11.710   1.705
65654W        W29213  41.307  41.861  11.114
65655W        W29214  28.934  22.132   4.114
65656W        W29215  19.536  24.039   1.279
65657W        W29216  27.554  19.191   2.695
65658W        W29217  16.275   2.237  12.370
65659W        W29218   9.204   6.750  14.831
65660W        W29219  16.220  21.079  12.901
65661W        W29220   3.946  42.780  13.316
65662W        W29221  43.897  13.623   3.261
65663W        W29222  42.910  37.059   0.284
65664W        W29223  19.193   4.414   0.309
65665W        W29224  42.374  21.203   0.275
65666W        W29225   0.916  13.341  11.413
65667W        W29226  32.615   0.298   0.947
65668W        W29227   4.769  40.316   5.173
65669W        W29228  35.922  13.658   3.352
65670W        W29229   4.866  37.942   1.894
65671W        W29230  16.748  25.497   1.359
65672W        W29231  20.133  20.053  14.396
65673W        W29232  17.648  42.515  12.388
65674W        W29233  29.494  38.014   3.380
65675W        W29234  27.638  24.192   5.091
65676W        W29235  18.197  26.991   3.643
65677W        W29236  26.687   3.403  11.864
65678W        W29237   3.273  31.004  13.981
65679W        W29238  31.009  30.999   3.776
65680W        W29239  18.186  30.611  13.929
65681W        W29240  10.278  14.255   4.299
65682W        W29241  33.552  30.518   4.786
65683W        W29242  18.695  33.917   4.194
65684W        W29243  14.125  16.248   4.620
65685W        W29244  30.139  44.985   0.955
65686W        W29245  13.698  12.131  12.890
65687W        W29246   6.332  42.518  12.045
65688W        W29247  13.122  30.417  13.893
65689W        W29248  41.360  38.424   2.413
65690W        W29249   8.836  43.906  13.958
65691W        W29250   5.272  44.771   2.716
65692W        W29251   6.305  37.403   0.311
65693W        W29252   4.287   6.363   4.709
65694W        W29253  36.983  10.872  12.956
65695W        W29254  17.600  32.568   3.150
65696W        W29255  12.661   1.335   4.670
65697W        W29256  33.508  30.020  14.822
65698W        W29257   9.248   5.337   1.373
65699W        W29258  13.720  24.081  12.998
65700W        W29259  12.838  25.972   3.861
65701W        W29260  12.311  38.531  13.877
65702W        W29261  40.039  11.623  11.958
65703W        W29262  25.598  31.134   0.764
65704W        W29263  15.124  20.037  13.942
65705W        W29264  25.169  25.709   3.683
65706W        W29265  20.072  43.440   3.803
65707W        W29266  16.112  41.841  10.483
65708W        W29267  13.691  31.072   3.674
65709W        W29268  15.180  42.951   2.808
65710W        W29269  37.087  33.417  11.882
65711W        W29270   7.409  38.474   4.119
65712W        W29271  20.202  21.704  14.959
65713W        W29272   0.898   0.858  14.342
65714W        W29273  32.006   1.465   2.284
65715W        W29274  13.288  12.752   4.337
65716W        W29275  22.616  12.669   0.915
65717W        W29276  18.220  41.385   2.882
65718W        W29277  44.472  40.012  10.614
65719W        W29278   2.789  41.511   3.854
65720W        W29279  15.257  32.618  14.894
65721W        W29280  33.906  14.690   0.811
65722W        W29281  17.759  42.011   0.397
65723W        W29282   5.891  12.139  12.460
65724W        W29283  21.112  24.501   1.321
65725W        W29284   7.825  28.048  10.979
65726W        W29285  44.428  12.714   1.877
65727W        W29286  14.742  33.476  14.499
65728W        W29287  15.783  41.978   2.700
65729W        W29288  25.019  36.569   4.817
65730W        W29289   3.416  12.810   4.761
65731W        W29290  12.303  41.385  14.456
65732W        W29291  31.506  39.990   4.655
65733W        W29292  39.486  10.243   1.336
65734W        W29293  21.610  41.473   4.158
65735W        W29294  11.706  37.372  12.475
65736W        W29295  23.578  23.617  12.093
65737W        W29296  38.509  37.470   1.433
65738W        W29297  35.420   7.362   0.827
65739W        W29298  40.969  39.892  13.352
65740W        W29299  44.835  23.498  14.501
65741W        W29300  31.101  43.454  13.939
65742W        W29301  20.116   7.203  12.564
65743W        W29302  38.957  29.016  11.024
65744W        W29303  18.720  27.549  13.831
65745W        W29304  34.376  35.026   3.248
65746W        W29305  31.448  42.308  12.391
65747W        W29306  38.992  23.025  12.494
65748W        W29307  20.560  13.626  14.302
65749W        W29308  30.420   3.941   0.879
65750W        W29309  13.631  16.726   2.870
65751W        W29310   9.366  20.523  14.364
65752W        W29311  15.580  38.909   0.899
65753W        W29312   3.836  28.511   2.328
65754W        W29313  25.202  19.755   3.688
65755W        W29314  34.062  20.213  14.298
65756W        W29315   5.822  33.585   1.716
65757W        W29316  27.089  41.479   0.743
65758W        W29317  33.118  26.032   3.252
65759W        W29318  40.325   5.332   4.166
65760W        W29319  16.623  38.879  11.443
65761W        W29320  20.222  14.622  14.905
65762W        W29321  16.111  30.158  13.367
65763W        W29322   8.306  31.645  13.912
65764W        W29323   9.652  32.125   4.265
65765W        W29324   6.336  32.943   1.865
65766W        W29325  30.581  34.024  12.491
65767W        W29326  30.925  19.702   2.415
65768W        W29327  44.405  15.618   9.996
65769W        W29328   4.868  35.597   0.464
65770W        W29329  20.249  27.624   1.388
65771W        W29330  14.324  42.434  12.523
65772W        W29331  31.098  36.964  11.386
65773W        W29332  41.993  12.296  13.375
65774W        W29333  20.547  21.055   0.730
65775W        W29334  10.696  43.768   3.707
65776W        W29335  17.617   8.789  14.339
65777W        W29336  10.170  23.684  10.124
65778W        W29337  25.538   6.349  13.503
65779W        W29338  21.706   6.276  11.411
65780W        W29339   4.712  11.798  13.514
65781W        W29340  12.735  19.578   0.872
65782W        W29341  29.638  24.574   0.846
65783W        W29342  22.641  14.113   0.727
65784W        W29343  27.447  26.043   0.369
65785W        W29344  25.680  28.987  13.347
65786W        W29345  28.616  30.966  13.528
65787W        W29346   0.270   2.760   3.215
65788W        W29347  41.041  37.539   3.728
65789W        W29348  25.041  16.093  13.914
65790W        W29349  38.000  34.521   5.622
65791W        W29350  21.590  27.499  13.032
65792W        W29351  37.466  28.087  11.005
65793W        W29352  25.631  31.998   3.224
65794W        W29353  39.321   0.897  14.288
65795W        W29354  29.458  33.428  11.512
65796W        W29355  32.990  42.019   3.806
65797W        W29356  24.976  25.536  13.514
65798W        W29357  34.374  23.044  11.017
65799W        W29358  27.178  17.707  13.908
65800W        W29359   2.862  11.657   0.390
65801W        W29360  24.581  24.199  14.413
65802W        W29361  19.673   5.720  13.533
65803W        W29362  37.392   2.461  12.955
65804W        W29363  15.103  17.593  11.585
65805W        W29364   6.200   6.725   4.222
65806W        W29365  23.680  24.652   1.829
65807W        W29366  25.993  13.119  10.541
65808W        W29367  30.161  33.388  11.378
65809W        W29368  29.588   6.794   2.288
65810W        W29369  19.582  18.199   4.740
65811W        W29370   4.851  21.117   0.428
65812W        W29371  29.517   7.208  12.447
65813W        W29372  28.453  27.526  11.555
65814W        W29373   0.812  28.570   0.430
65815W        W29374  26.137  36.362   0.272
65816W        W29375   8.783  38.393  14.373
65817W        W29376  24.577  29.426   3.204
65818W        W29377  35.558  15.797   5.260
65819W        W29378  32.410  42.375   4.740
65820W        W29379   7.814  41.962   3.308
65821W        W29380   1.273  36.047  13.948
65822W        W29381  11.865  44.800   3.293
65823W        W29382  25.988  21.145   2.235
65824W        W29383   0.302   7.208  11.958
65825W        W29384   3.738  12.685   3.300
65826W        W29385  33.066  16.789   3.648
65827W        W29386   4.321  27.052  13.824
65828W        W29387  35.567   0.450  13.959
65829W        W29388   7.173  12.639  11.971
65830W        W29389  39.418   5.753   1.392
65831W        W29390  30.922  25.172   0.778
65832W        W29391  26.587  13.139   1.394
65833W        W29392  11.762  10.383   3.193
65834W        W29393  11.721   3.789   0.855
65835W        W29394  31.059   1.251   0.474
65836W        W29395   6.701  11.742   0.954
65837W        W29396  34.382  23.229  11.441
65838W        W29397  37.981   1.357   0.459
65839W        W29398  38.970  41.432   0.417
65840W        W29399  22.597  12.830  14.865
65841W        W29400  14.169  24.703   5.252
65842W        W29401  42.915  36.403   0.439
65843W        W29402  10.187   1.245   1.700
65844W        W29403  13.232  24.029  14.903
65845W        W29404  10.281  29.006   4.638
65846W        W29405  23.108  19.238   0.757
65847W        W29406   2.312  29.116   2.274
65848W        W29407  40.380  44.942  13.981
65849W        W29408  20.171  10.197  10.500
65850W        W29409  13.151  33.885  14.515
65851W        W29410   4.829   6.184  13.324
65852W        W29411  19.054  14.737   4.771
65853W        W29412  33.088  28.178  12.974
65854W        W29413  18.205  14.739  14.437
65855W        W29414  12.770  27.532  13.858
65856W        W29415   6.736  44.474   2.894
65857W        W29416  34.885  23.528   1.425
65858W        W29417   8.866  33.959   2.889
65859W        W29418  37.414  10.749  12.390
65860W        W29419   3.931  17.748  14.031
65861W        W29420  31.607  31.088   4.249
65862W        W29421  18.257  14.716  12.469
65863W        W29422   2.922  25.692   4.645
65864W        W29423  26.685  41.344  10.071
65865W        W29424   5.933  42.425   4.325
65866W        W29425  33.437  34.897  14.888
65867W        W29426  21.604  25.101   1.923
65868W        W29427  34.565  26.515   3.182
65869W        W29428  21.036  34.415   0.323
65870W        W29429  23.658  34.388   2.860
65871W        W29430  23.721   9.836  13.423
65872W        W29431  32.492  22.515  10.916
65873W        W29432   2.836  31.915  11.966
65874W        W29433   6.766  26.562   3.290
65875W        W29434  19.219  13.342  14.997
65876W        W29435  30.144  10.310  10.611
65877W        W29436  10.817  17.699   4.267
65878W        W29437  14.824  26.171  13.461
65879W        W29438  39.515  14.802  13.823
65880W        W29439  27.943  30.502   4.217
65881W        W29440  32.602  39.543   0.959
65882W        W29441  30.619   5.702   4.264
65883W        W29442  19.663   9.692  12.417
65884W        W29443   0.331  26.090   3.303
65885W        W29444  12.278   9.366   1.223
65886W        W29445  26.520  34.511  11.102
65887W        W29446  35.856  44.420   0.753
65888W        W29447   7.718  42.923  12.373
65889W        W29448   2.893  25.515  14.838
65890W        W29449  26.139  29.071   4.791
65891W        W29450  31.547  43.284  10.906
65892W        W29451  21.075  39.319  13.970
65893W        W29452   3.740  17.208   1.307
65894W        W29453  24.114  10.638  14.025
65895W        W29454  17.604  15.134   1.353
65896W        W29455  41.459  23.111   2.223
65897W        W29456   1.317  35.421  13.064
65898W        W29457  16.600  33.549  14.870
65899W        W29458  11.285  29.464  11.036
65900W        W29459  34.495  17.732  12.386
65901W        W29460  40.878  30.117  11.974
65902W        W29461  33.103  34.578   4.274
65903W        W29462  26.046   8.669   0.255
65904W        W29463  29.083  34.417  11.860
65905W        W29464  20.214  42.374  11.070
65906W        W29465  38.977   9.679   0.461
65907W        W29466   7.761  24.665   3.823
65908W        W29467  10.753   5.246   1.853
65909W        W29468  25.615   6.243  12.346
65910W        W29469  32.490  20.597  12.947
65911W        W29470   0.276  34.877  11.096
65912W        W29471  22.588  25.217  10.423
65913W        W29472  42.835  31.438  12.411
65914W        W29473  30.487  24.039   3.336
65915W        W29474  17.183  32.440   0.939
65916W        W29475  17.580  29.496  12.479
65917W        W29476  28.119  17.597  10.508
65918W        W29477  31.499  34.025   2.331
65919W        W29478   6.703  31.537  12.873
65920W        W29479   1.451   7.703  14.828
65921W        W29480  36.891  35.475  14.934
65922W        W29481   9.708  30.595  10.482
65923W        W29482  17.629  43.323  11.579
65924W        W29483  42.384  43.971   2.321
65925W        W29484  36.567   2.939   2.821
65926W        W29485  27.555   9.878  14.440
65927W        W29486  37.924   1.829   0.437
65928W        W29487  29.537   7.417   0.292
65929W        W29488  41.883  33.424  14.483
65930W        W29489  22.608   6.186  10.917
65931W        W29490   6.815  43.920  12.844
65932W        W29491  38.555  11.857   1.417
65933W        W29492  28.018  41.342   0.964
65934W        W29493   2.460  18.762  10.991
65935W        W29494  34.926  11.732  13.312
65936W        W29495  15.689  38.870   1.749
65937W        W29496  39.998  14.177  14.287
65938W        W29497  41.388  32.033   0.873
65939W        W29498  34.926   0.879  11.040
65940W        W29499  38.057  24.191  13.441
65941W        W29500  24.553   7.312   3.356
65942W        W29501  44.266  25.204   3.217
65943W        W29502  29.042  17.151  14.857
65944W        W29503  16.087  22.163   4.216
65945W        W29504   0.792   7.799   1.341
65946W        W29505   4.713  18.257   9.986
65947W        W29506  33.969   8.380  11.037
65948W        W29507  19.625  12.220   3.365
65949W        W29508  40.367  19.549  13.480
65950W        W29509  10.636  18.723  13.791
65951W        W29510  36.352  31.541   0.402
65952W        W29511   6.197   4.410  11.882
65953W        W29512  22.540  40.529  10.958
65954W        W29513  26.625  28.048   0.828
65955W        W29514  15.266   8.802   5.276
65956W        W29515   2.363  35.431  14.992
65957W        W29516  42.854  31.407   4.609
65958W        W29517  36.521  44.270   1.370
65959W        W29518  40.850  14.099   4.190
65960W        W29519  11.664  26.634  11.997
65961W        W29520   9.195  38.850  12.493
65962W        W29521  32.041  27.512   1.396
65963W        W29522  16.582   9.309   1.365
65964W        W29523  12.282  23.147   0.759
65965W        W29524  15.802  44.297  14.972
65966W        W29525  39.376  12.675   2.184
65967W        W29526  12.196   4.776   3.268
65968W        W29527  15.218  43.311   0.951
65969W        W29528  42.362  20.643  10.642
65970W        W29529  33.578  11.805  14.390
65971W        W29530  29.057  15.673   2.903
65972W        W29531   0.912  40.339  11.129
65973W        W29532   9.745  15.296   2.183
65974W        W29533  24.155  33.487  13.797
65975W        W29534   7.791  41.353  10.479
65976W        W29535   3.748   8.665   1.291
65977W        W29536  22.596  42.369   3.215
65978W        W29537   7.904   5.356  14.848
65979W        W29538   1.419  44.501   1.236
65980W        W29539   6.700  42.014   1.883
65981W        W29540   9.243  19.074   3.372
65982W        W29541  19.175  43.952   2.691
65983W        W29542  13.226  14.241   2.218
65984W        W29543  37.952  25.070  13.864
65985W        W29544  25.982  10.198   0.357
65986W        W29545   7.706  12.358   2.826
65987W        W29546  27.010   6.380   2.243
65988W        W29547  42.921  11.185   3.304
65989W        W29548  30.485   2.341   1.902
65990W        W29549  37.886  43.018   1.870
65991W        W29550  35.556  18.706   3.255
65992W        W29551  35.536  24.219  10.538
65993W        W29552  41.970  36.917  14.917
65994W        W29553   9.673  20.078  12.998
65995W        W29554  39.443  36.862  13.436
65996W        W29555  11.370  34.063  12.436
65997W        W29556   6.679  12.252   3.318
65998W        W29557  43.464   6.298   1.736
65999W        W29558   7.719  39.963   2.383
66000W        W29559  36.038  40.933  14.458
66001W        W29560  28.491   8.200  14.460
66002W        W29561  19.627  43.835  11.371
66003W        W29562  40.485  17.085  14.473
66004W        W29563   7.675  10.200  10.918
66005W        W29564   4.311  41.829   1.227
66006W        W29565  21.695  35.358   2.674
66007W        W29566  20.579   3.391  12.512
66008W        W29567  29.594  26.987  14.940
66009W        W29568  31.108  14.737   1.334
66010W        W29569  28.470   8.737   3.342
66011W        W29570   0.282  34.607  14.496
66012W        W29571  29.645  30.964  13.005
66013W        W29572   7.282   1.457   0.312
66014W        W29573  43.326  21.131  13.941
66015W        W29574   7.313  38.474   2.208
66016W        W29575  29.037  37.340   4.762
66017W        W29576  18.765  32.929  14.026
66018W        W29577   3.737  16.078   3.347
66019W        W29578  12.318  43.358  12.955
66020W        W29579   9.695  29.064  11.460
66021W        W29580   8.247   4.940   1.241
66022W        W29581   8.713   3.801  14.352
66023W        W29582  16.796  16.706  14.870
66024W        W29583  31.460   8.356   1.222
66025W        W29584  14.591  17.625  14.023
66026W        W29585   9.152  28.155  12.493
66027W        W29586  38.445   7.329  10.584
66028W        W29587  32.449  33.429  14.475
66029W        W29588   9.321  42.384   3.793
66030W        W29589  39.380  33.881   2.871
66031W        W29590  42.355  32.521  13.542
66032W        W29591  21.680  18.589   2.821
66033W        W29592  22.578  16.811  13.457
66034W        W29593  30.107  33.618  13.931
66035W        W29594   7.335  42.362  11.858
66036W        W29595  36.025  38.509   0.480
66037W        W29596  11.764  39.979   3.783
66038W        W29597  19.158  10.855  13.424
66039W        W29598  38.922  22.190   3.850
66040W        W29599  31.926   8.171   2.833
66041W        W29600  35.880  31.990  14.846
66042W        W29601   4.789  36.480   3.863
66043W        W29602  36.352   3.731  12.877
66044W        W29603  35.907  43.810   1.795
66045W        W29604  26.089   2.265   2.195
66046W        W29605  38.911   8.219   2.180
66047W        W29606  37.570  11.188  14.292
66048W        W29607  27.616  24.203   0.777
66049W        W29608  44.445  39.061   0.770
66050W        W29609  42.857  31.137   1.424
66051W        W29610  42.408  14.287   3.676
66052W        W29611  43.971  26.577  14.901
66053W        W29612  27.535  11.270  12.896
66054W        W29613  42.500  21.038  14.469
66055W        W29614  26.562   3.420  12.465
66056W        W29615  40.921  30.151   1.721
66057W        W29616   4.703  33.035  11.929
66058W        W29617  16.227  19.720  11.892
66059W        W29618  17.589   0.362  12.575
66060W        W29619  13.131   4.939   5.188
66061W        W29620   5.741  10.309  12.920
66062W        W29621   4.888  39.378   2.232
66063W        W29622  21.237   0.915  11.558
66064W        W29623  13.684  34.447  12.858
66065W        W29624   6.253   0.955  11.070
66066W        W29625  24.143  44.885  10.498
66067W        W29626   0.945   2.862   4.733
66068W        W29627  22.096  23.662   0.443
66069W        W29628  37.074  26.166  12.488
66070W        W29629  32.950  18.118  13.465
66071W        W29630  10.366  41.923  13.495
66072W        W29631  31.530  27.100  10.504
66073W        W29632   3.810  27.632   2.345
66074W        W29633  44.384  33.431   4.312
66075W        W29634  22.643  29.493  12.829
66076W        W29635  18.131  26.197   0.889
66077W        W29636   7.734  42.012   1.330
66078W        W29637  34.410  35.044  13.951
66079W        W29638  22.742  37.870   1.248
66080W        W29639  34.090   0.976  14.006
66081W        W29640   7.744   3.872   3.247
66082W        W29641  25.167   5.804   2.373
66083W        W29642  16.699  31.088   3.281
66084W        W29643  44.309  37.373  12.512
66085W        W29644  29.556  20.586  10.003
66086W        W29645  32.619  22.174   3.664
66087W        W29646  17.732  11.148  13.448
66088W        W29647  19.549   4.707   1.280
66089W        W29648  38.506  11.674  13.896
66090W        W29649  30.907   7.736   0.336
66091W        W29650  21.112  29.609  12.521
66092W        W29651  41.502   4.390   1.244
66093W        W29652   8.677  25.538   2.416
66094W        W29653  41.389   5.717  13.436
66095W        W29654  40.321  43.514   0.742
66096W        W29655  13.609  31.403   3.359
66097W        W29656  16.725  35.951  10.938
66098W        W29657  35.853   9.732   0.379
66099W        W29658   9.761  29.919   2.702
66100W        W29659  42.956  28.944  10.550
66101W        W29660  23.711  22.089  10.905
66102W        W29661   8.205  42.479  13.887
66103W        W29662  32.521  27.170  14.985
66104W        W29663  19.731  44.780  13.401
66105W        W29664  31.461  37.017   2.776
66106W        W29665  38.854  19.041   4.615
66107W        W29666  29.620  42.433  13.316
66108W        W29667  20.154  39.850  14.390
66109W        W29668   5.708   3.353   2.411
66110W        W29669  25.527  43.883  14.986
66111W        W29670  15.284   0.981  12.017
66112W        W29671  37.339  21.041   3.681
66113W        W29672  21.608  18.727   1.231
66114W        W29673  30.536  11.725  13.324
66115W        W29674   9.165  25.005   4.827
66116W        W29675  36.489  26.019   3.208
66117W        W29676   8.392   4.930  11.587
66118W        W29677  33.438  14.646   2.286
66119W        W29678  44.758  19.718   5.193
66120W        W29679   0.863   7.175   2.183
66121W        W29680  28.673  17.749   1.227
66122W        W29681  35.089   9.796   3.801
66123W        W29682  37.472  20.185   0.468
66124W        W29683   3.383  38.350   0.316
66125W        W29684   9.309   1.417   2.722
66126W        W29685  24.603  25.535   1.311
66127W        W29686  22.579   6.729  13.907
66128W        W29687  30.154   4.814   2.244
66129W        W29688  27.968  28.951   1.255
66130W        W29689  13.776  31.538  12.095
66131W        W29690  12.785   6.325  10.526
66132W        W29691  20.668  33.947   4.807
66133W        W29692  32.962  12.835   0.778
66134W        W29693  35.361  39.541  13.869
66135W        W29694  32.118   6.267   0.272
66136W        W29695  35.018  17.062   0.944
66137W        W29696  28.153  12.847   4.690
66138W        W29697  41.973  16.162  11.056
66139W        W29698  15.150  22.582  13.394
66140W        W29699  36.349  16.731  14.379
66141W        W29700  37.858   8.193  10.407
66142W        W29701   0.768  30.651  10.994
66143W        W29702  36.057   9.829   0.754
66144W        W29703  14.175  12.143  11.560
66145W        W29704   7.855  37.982   4.338
66146W        W29705  39.937   0.807   1.883
66147W        W29706  13.794  11.183   4.777
66148W        W29707  25.553   7.411   3.642
66149W        W29708   5.237  25.551   4.281
66150W        W29709  10.711   9.731   2.180
66151W        W29710  31.545  16.295   4.309
66152W        W29711  31.998  35.511   1.714
66153W        W29712  40.027  20.053  11.956
66154W        W29713  31.120  29.950   0.395
66155W        W29714  18.702  17.301   3.350
66156W        W29715  27.049  32.636   2.321
66157W        W29716  42.851  23.088   3.311
66158W        W29717  32.129  11.829  12.087
66159W        W29718  41.429   3.940   4.687
66160W        W29719   6.415   2.229   2.344
66161W        W29720  10.693  24.494  14.787
66162W        W29721  21.618  28.953   3.176
66163W        W29722  26.605  19.751   0.334
66164W        W29723  39.957   5.391   3.824
66165W        W29724   1.250  22.715   1.446
66166W        W29725  39.906   2.765  12.487
66167W        W29726  15.770  29.934   3.181
66168W        W29727   9.240  15.749  12.067
66169W        W29728   4.271  33.936  11.997
66170W        W29729  12.742  24.719  11.067
66171W        W29730  10.158   7.902   2.758
66172W        W29731  19.723  18.745  14.464
66173W        W29732   9.215   0.458  12.406
66174W        W29733  36.062  20.215   3.802
66175W        W29734  24.033  37.348  12.512
66176W        W29735  36.957  13.348  12.473
66177W        W29736  19.753   7.782   1.439
66178W        W29737  24.107  25.024  10.591
66179W        W29738  12.241  31.601   2.413
66180W        W29739   5.367  37.836   2.860
66181W        W29740  15.621   8.736   0.902
66182W        W29741   2.293  43.460   4.634
66183W        W29742  24.723  34.971   2.266
66184W        W29743   5.697   7.287   2.410
66185W        W29744  22.600  32.549   0.244
66186W        W29745  25.625  10.862   1.302
66187W        W29746  27.543  12.344  14.826
66188W        W29747   9.358  44.871  12.497
66189W        W29748  14.820  26.608   3.335
66190W        W29749  29.624  33.552  14.425
66191W        W29750  14.165  44.973  11.031
66192W        W29751  41.480  21.513   4.760
66193W        W29752  17.564  15.195   2.694
66194W        W29753  18.708   2.469   4.837
66195W        W29754  15.788  18.694  12.427
66196W        W29755  38.330  32.988   2.326
66197W        W29756  11.308  17.582   4.658
66198W        W29757   5.814  31.944   4.734
66199W        W29758  28.673   5.894  12.385
66200W        W29759  25.013  11.270   4.230
66201W        W29760  35.493   5.225   4.712
66202W        W29761  21.071  11.259   4.787
66203W        W29762  12.199  43.406  14.031
66204W        W29763  29.021  16.727  12.067
66205W        W29764  35.465  43.278   3.287
66206W        W29765  34.099  34.598  13.471
66207W        W29766  37.868  35.959   1.296
66208W        W29767  30.084  21.644   9.586
66209W        W29768  11.263   8.821  12.044
66210W        W29769  10.221  16.606   2.288
66211W        W29770  42.856  26.087   0.250
66212W        W29771  10.283  28.520  10.933
66213W        W29772  18.128  27.953  10.468
66214W        W29773  31.075   2.469   0.324
66215W        W29774  29.529  10.383  13.539
66216W        W29775  32.967  13.797  10.585
66217W        W29776  12.831   2.255   2.861
66218W        W29777  14.833  29.041  12.961
66219W        W29778  36.424  35.422   1.800
66220W        W29779  44.795  10.642   0.736
66221W        W29780  37.508  12.661   1.277
66222W        W29781  15.791  22.113  13.883
66223W        W29782  26.524  29.620   0.269
66224W        W29783   6.801  27.007   2.209
66225W        W29784  26.070  17.641  14.984
66226W        W29785  40.860  26.174  11.037
66227W        W29786   3.728   5.894   4.683
66228W        W29787  26.102  14.687  12.509
66229W        W29788   2.792  24.172   4.598
66230W        W29789   0.308  40.046  10.523
66231W        W29790  14.194  22.736   0.806
66232W        W29791  27.636  44.320  11.483
66233W        W29792  13.837  30.988   3.183
66234W        W29793  32.592  35.580  12.904
66235W        W29794   8.394  26.604  10.553
66236W        W29795  18.573  12.317  12.873
66237W        W29796  22.124  24.146  13.044
66238W        W29797  41.493  17.245  11.083
66239W        W29798   3.354  23.993   0.385
66240W        W29799   8.212  18.772  13.852
66241W        W29800  44.770   1.279  11.031
66242W        W29801  44.894   7.384  13.519
66243W        W29802   1.830  41.400  12.907
66244W        W29803  21.627   7.904   4.221
66245W        W29804  27.520   7.281  13.434
66246W        W29805  27.013  16.581  12.513
66247W        W29806  22.098  15.229   1.835
66248W        W29807  40.893  26.490  11.436
66249W        W29808   1.964   1.870   3.753
66250W        W29809   9.323   6.237   4.232
66251W        W29810   2.267  40.478   3.845
66252W        W29811  32.506  32.396  14.946
66253W        W29812  44.414  32.635  12.563
66254W        W29813  26.023  24.123   1.412
66255W        W29814  30.573  44.813   0.823
66256W        W29815  14.241  42.955   2.795
66257W        W29816   0.277   4.222   1.738
66258W        W29817  26.634  29.440   3.774
66259W        W29818  35.098   0.480  10.615
66260W        W29819  31.116  17.206   2.385
66261W        W29820  39.956  17.775  13.312
66262W        W29821  23.011   4.824   1.898
66263W        W29822  27.023   5.219  13.814
66264W        W29823  13.711  40.975  14.829
66265W        W29824  23.623  44.850  12.939
66266W        W29825  31.629  31.947  11.123
66267W        W29826  36.369   5.389  14.352
66268W        W29827  23.994  31.113   2.202
66269W        W29828   2.867  44.806  14.842
66270W        W29829  29.516  42.358  12.984
66271W        W29830  23.655  24.679   3.152
66272W        W29831   2.907  29.441  12.417
66273W        W29832  29.118  37.071  12.831
66274W        W29833  34.426  30.622   1.385
66275W        W29834   2.757  15.226  11.460
66276W        W29835  21.026  42.976  11.431
66277W        W29836   1.266   3.361  12.571
66278W        W29837  37.354   1.294  12.530
66279W        W29838  28.970  19.098  11.043
66280W        W29839  23.009  11.833  13.934
66281W        W29840   3.930  12.275   3.301
66282W        W29841  38.529  39.845  14.314
66283W        W29842  33.409  37.970   3.863
66284W        W29843   3.440  37.867  12.515
66285W        W29844  29.149  23.676   0.935
66286W        W29845  36.874   7.286  13.889
66287W        W29846  38.461  31.068   1.344
66288W        W29847  24.999   8.233  12.917
66289W        W29848   9.299  18.670  10.583
66290W        W29849  19.177   0.965   2.900
66291W        W29850  13.172  30.908  12.569
66292W        W29851   6.740   1.463   1.858
66293W        W29852  38.479  32.090   4.194
66294W        W29853  18.693  14.109   5.262
66295W        W29854  40.339   0.848  13.367
66296W        W29855  10.263   8.685  13.326
66297W        W29856   7.818  15.086  13.529
66298W        W29857  37.926  30.461   4.643
66299W        W29858  24.667  26.602   2.217
66300W        W29859  11.250  10.175   1.704
66301W        W29860  43.997  15.640   0.417
66302W        W29861  28.984  24.113  11.474
66303W        W29862   3.235  41.345  12.432
66304W        W29863  43.374  41.907  11.585
66305W        W29864   1.921  27.087   3.707
66306W        W29865  13.140  42.385   0.928
66307W        W29866  35.030  40.356  13.997
66308W        W29867  22.644   6.398   3.151
66309W        W29868   6.776  40.852  14.495
66310W        W29869  40.495  11.181  13.832
66311W        W29870  15.634  42.029   1.764
66312W        W29871   2.342  17.717   0.322
66313W        W29872  11.208  26.644  10.033
66314W        W29873   6.802   3.419  13.925
66315W        W29874  23.641  17.101   2.418
66316W        W29875  23.991  23.025  11.888
66317W        W29876  32.139   6.784  11.973
66318W        W29877   3.353  20.199   3.864
66319W        W29878   2.955   7.415  13.941
66320W        W29879  35.476   8.889   3.705
66321W        W29880  36.982  15.090   3.383
66322W        W29881  36.869  24.649  10.946
66323W        W29882  42.417   9.298   3.838
66324W        W29883  33.507  34.436  11.015
66325W        W29884  15.728  27.162  11.856
66326W        W29885  15.100  23.055   3.367
66327W        W29886  39.370  12.660  13.365
66328W        W29887   1.739  20.766  14.994
66329W        W29888   2.738   2.769  13.485
66330W        W29889  27.065  29.011  10.571
66331W        W29890  26.677  35.058  14.897
66332W        W29891  32.475  14.239   2.266
66333W        W29892  33.895  43.779  13.317
66334W        W29893  29.606  41.458  10.089
66335W        W29894  39.955   5.249  11.513
66336W        W29895  22.671  10.664   2.386
66337W        W29896   5.852   9.750   0.783
66338W        W29897  42.825   2.416   0.407
66339W        W29898   6.256  18.167  12.384
66340W        W29899   7.883  28.507   4.631
66341W        W29900  12.835  19.538  12.085
66342W        W29901   5.811  32.406   2.234
66343W        W29902   1.791  25.675  10.541
66344W        W29903   5.385   8.372   3.761
66345W        W29904  10.174  39.836   4.139
66346W        W29905  16.245  18.277   5.319
66347W        W29906  26.693  15.112   1.749
66348W        W29907  43.302  25.089   4.736
66349W        W29908  13.315  18.150  14.770
66350W        W29909  29.547  17.250   2.820
66351W        W29910  31.418   2.299  11.889
66352W        W29911  10.769  13.643  13.809
66353W        W29912  14.627   4.826  12.951
66354W        W29913  39.938  27.578   3.848
66355W        W29914  35.035   5.929   0.838
66356W        W29915  29.166  34.931  12.375
66357W        W29916   3.275   6.824  14.888
66358W        W29917  38.329  23.690  11.049
66359W        W29918   6.352   5.815  11.093
66360W        W29919  42.009   2.924   0.428
66361W        W29920  15.095  12.694   4.814
66362W        W29921  38.338  22.048   2.243
66363W        W29922  15.740   6.780   5.288
66364W        W29923  11.362  41.829  12.344
66365W        W29924   6.823   4.830   0.469
66366W        W29925  15.193   9.674  11.949
66367W        W29926  28.442  35.499  12.401
66368W        W29927  27.148  29.649  10.643
66369W        W29928  11.734  39.503   9.988
66370W        W29929  32.019  38.968   4.251
66371W        W29930  21.078  20.064  12.019
66372W        W29931  20.711  17.761  12.999
66373W        W29932   8.270   7.787   0.463
66374W        W29933  26.206   3.421   3.825
66375W        W29934  16.798  12.302   4.689
66376W        W29935  30.610  18.242   4.336
66377W        W29936  11.839   9.816  11.405
66378W        W29937  30.562  34.562  13.030
66379W        W29938  24.037  10.708   2.306
66380W        W29939  43.988  27.566  14.382
66381W        W29940  37.899  23.498   4.194
66382W        W29941   6.416  41.371  12.012
66383W        W29942  20.684   7.407   3.206
66384W        W29943  38.375   6.769  12.464
66385W        W29944  28.604  35.050  10.925
66386W        W29945   1.976  31.969   0.791
66387W        W29946   9.276   6.226  14.419
66388W        W29947  36.851  20.531  11.491
66389W        W29948  33.452   4.910   0.743
66390W        W29949   0.301   5.712  11.396
66391W        W29950  36.974  28.497  13.886
66392W        W29951  23.559   0.427   1.219
66393W        W29952  44.804  24.523   0.299
66394W        W29953  40.438  42.806  10.920
66395W        W29954  25.535  42.776   2.235
66396W        W29955  20.156   1.376  14.424
66397W        W29956  30.651  27.115  11.538
66398W        W29957  18.778  35.378  11.038
66399W        W29958  36.355  36.512   1.926
66400W        W29959   1.874   0.838  14.506
66401W        W29960   9.225  41.916  13.056
66402W        W29961   0.877  11.141   4.165
66403W        W29962  37.571   8.339   1.900
66404W        W29963   8.702  43.774   4.774
66405W        W29964   5.314   5.764   1.331
66406W        W29965  43.868  15.787   2.204
66407W        W29966  17.296   8.292  14.361
66408W        W29967  39.820  28.467   0.275
66409W        W29968  15.738  26.472  14.374
66410W        W29969  16.630  32.627   2.894
66411W        W29970  31.544  44.278   3.178
66412W        W29971  26.973  22.672   3.183
66413W        W29972  22.590  40.431   3.733
66414W        W29973  12.219   3.251   0.764
66415W        W29974   3.426   6.749   1.374
66416W        W29975  39.938  34.474   4.316
66417W        W29976  17.678   6.343  11.949
66418W        W29977  40.798   9.165   1.763
66419W        W29978  18.723  30.475  11.862
66420W        W29979  23.164  27.484  13.906
66421W        W29980  29.646  22.139  11.940
66422W        W29981   4.925  32.101   4.741
66423W        W29982  23.208  18.205  11.901
66424W        W29983  26.547   1.747   0.451
66425W        W29984  37.577  17.159   4.139
66426W        W29985  19.221   2.772  12.503
66427W        W29986   0.864  42.913  12.901
66428W        W29987  30.065  41.804   1.230
66429W        W29988  33.495  44.467  12.005
66430W        W29989   4.928  25.568   0.480
66431W        W29990   9.355   1.771  10.511
66432W        W29991  13.312  22.213   0.736
66433W        W29992   0.473  21.263  12.967
66434W        W29993   8.162  14.677  10.058
66435W        W29994  31.989  44.363   1.319
66436W        W29995   2.823   5.696  10.626
66437W        W29996  42.324  41.913  13.490
66438W        W29997   2.848  13.820  12.079
66439W        W29998   7.790  43.811  11.544
66440W        W29999  17.640  21.227  14.477
66441W        W30000   8.833  40.979   3.236
66442W        W30001  34.386   8.812   4.621
66443W        W30002  36.065  27.470  14.358
66444W        W30003  36.553  19.040  11.381
66445W        W30004  33.479  30.468   2.678
66446W        W30005   6.387  42.798   2.821
66447W        W30006  37.033  31.418  10.566
66448W        W30007  34.082  42.321  13.916
66449W        W30008  43.007   8.168   1.252
66450W        W30009  24.713  26.634   1.244
66451W        W30010  10.249  39.032  13.455
66452W        W30011  43.830  43.418  10.472
66453W        W30012   5.371  10.745   4.122
66454W        W30013   9.749  34.432  14.987
66455W        W30014  14.213  20.144   0.929
66456W        W30015  39.890   7.874   1.259
66457W        W30016   7.242  11.772   1.847
66458W        W30017  44.860  14.725  11.868
66459W        W30018   2.262  11.853  12.468
66460W        W30019   1.404   2.332   4.649
66461W        W30020  26.676  18.750   1.251
66462W        W30021  33.469  15.623  14.766
66463W        W30022   5.317  36.053   4.780
66464W        W30023  36.967   1.367  12.997
66465W        W30024  41.506   7.849   4.602
66466W        W30025  22.585  40.937  11.007
66467W        W30026  29.007  25.188  14.835
66468W        W30027  18.087   9.268   4.176
66469W        W30028  24.508  28.569   1.817
66470W        W30029  28.073   2.299  14.795
66471W        W30030  28.525  26.108  11.960
66472W        W30031  34.087  18.213  13.840
66473W        W30032   8.162  25.062   3.220
66474W        W30033   0.445  10.829   4.214
66475W        W30034  23.048  38.352   3.775
66476W        W30035  10.325  24.976  14.384
66477W        W30036   2.960  39.877   2.276
66478W        W30037  18.692  15.113  13.031
66479W        W30038  36.410  23.034  10.460
66480W        W30039  15.278  13.670   0.425
66481W        W30040  20.210  35.538   0.945
66482W        W30041  27.098  24.066   2.895
66483W        W30042  36.348  14.768   0.373
66484W        W30043   9.717  32.566   3.251
66485W        W30044  14.201  22.664   5.241
66486W        W30045  26.033   8.845   2.900
66487W        W30046  10.219   5.867  13.845
66488W        W30047  37.996  41.815  14.425
66489W        W30048   7.804  40.419   1.704
66490W        W30049  37.844   5.760  13.541
66491W        W30050  24.548  39.357   2.853
66492W        W30051  37.515  44.333   0.281
66493W        W30052  42.819  30.490  13.408
66494W        W30053   0.387  31.134  11.103
66495W        W30054  21.749   8.814   1.796
66496W        W30055   7.692  32.610   4.613
66497W        W30056   8.700  31.078   1.694
66498W        W30057   1.973  17.649  13.940
66499W        W30058  34.383  30.594   1.860
66500W        W30059   9.826   0.285  14.440
66501W        W30060  32.564  17.732  11.863
66502W        W30061   2.230   1.419   0.395
66503W        W30062  16.657  41.496   3.769
66504W        W30063  15.762  26.491  10.067
66505W        W30064  44.424  42.490  11.103
66506W        W30065   9.755  34.571  11.455
66507W        W30066  42.809  25.591  14.507
66508W        W30067  25.474  27.998   2.313
66509W        W30068  37.555  25.078  11.577
66510W        W30069  18.695  44.849   2.678
66511W        W30070  21.670  42.859   4.827
66512W        W30071  23.579   2.440  10.418
66513W        W30072  31.955   4.904   1.442
66514W        W30073  37.842   3.724  10.641
66515W        W30074  36.560  38.505  11.124
66516W        W30075  18.072  36.532   4.721
66517W        W30076  40.840  36.433   4.750
66518W        W30077   3.876  40.911   4.196
66519W        W30078   7.737  32.515   0.889
66520W        W30079  43.288  26.154  14.905
66521W        W30080  16.211  40.854  12.824
66522W        W30081  25.472  27.615  10.918
66523W        W30082  33.123  21.119   3.338
66524W        W30083  18.118   0.315  14.853
66525W        W30084  19.592  18.570   2.393
66526W        W30085  44.432  36.959  13.796
66527W        W30086   5.894  36.847   4.305
66528W        W30087  23.185   5.794  14.493
66529W        W30088  39.532  14.136  13.536
66530W        W30089  10.253  29.993   0.425
66531W        W30090  23.050  22.162  12.548
66532W        W30091  25.163  20.165   3.839
66533W        W30092  40.405  19.706  11.552
66534W        W30093  37.071  17.253  14.343
66535W        W30094   7.236  12.743   0.357
66536W        W30095  13.264  23.677  14.863
66537W        W30096  28.112   1.944   0.765
66538W        W30097  37.938  18.753   0.929
66539W        W30098  32.970  32.083  14.989
66540W        W30099  29.607  19.157   0.848
66541W        W30100  34.512  29.508  11.116
66542W        W30101  40.896   9.748  12.968
66543W        W30102  23.653  24.180   4.670
66544W        W30103  12.354  21.642  11.502
66545W        W30104  34.944  10.199   1.364
66546W        W30105   3.453  25.218   3.670
66547W        W30106  25.550  14.704  14.017
66548W        W30107  25.514   9.305   3.813
66549W        W30108  32.607   0.850   3.640
66550W        W30109  12.306  40.821  12.062
66551W        W30110   2.248  15.745   2.809
66552W        W30111  32.984   7.843  12.347
66553W        W30112  28.453  24.624  12.533
66554W        W30113  10.867  26.179   2.810
66555W        W30114  16.628   5.354   4.336
66556W        W30115   8.166  16.278  11.872
66557W        W30116  21.093  22.746   5.271
66558W        W30117  31.451  22.703   2.369
66559W        W30118  42.832  40.821  13.042
66560W        W30119  26.168  18.126   2.897
66561W        W30120  42.944  22.236  13.443
66562W        W30121   1.834  12.131   1.396
66563W        W30122  30.557  24.683  12.577
66564W        W30123  10.360  25.197  12.880
66565W        W30124  12.172   2.740   0.288
66566W        W30125  16.172  24.562   3.358
66567W        W30126  11.225  39.371  13.360
66568W        W30127   1.926   4.303  14.982
66569W        W30128  15.703  43.458  10.625
66570W        W30129   7.849  33.470  12.556
66571W        W30130  15.275   8.279   0.747
66572W        W30131  36.347  14.681   0.797
66573W        W30132  17.609  41.449  11.386
66574W        W30133  26.513  37.487  11.895
66575W        W30134  33.073  14.302  13.038
66576W        W30135  37.040  39.871   4.601
66577W        W30136  25.205  13.245  14.302
66578W        W30137  16.779  13.178   4.249
66579W        W30138   0.341  26.485  10.615
66580W        W30139  30.516  19.671  10.977
66581W        W30140  12.116  35.573  11.467
66582W        W30141  11.734  15.225  11.487
66583W        W30142  34.599  39.401  10.520
66584W        W30143  26.209  30.113   4.627
66585W        W30144   7.885  15.629  13.931
66586W        W30145   4.251   3.931  11.968
66587W        W30146   5.906  35.035  11.947
66588W        W30147   3.344  20.170   4.747
66589W        W30148  42.363  26.955  11.561
66590W        W30149  12.734  19.668  14.765
66591W        W30150  39.343   9.224  12.386
66592W        W30151   5.758   2.801   0.389
66593W        W30152  24.104  36.865  12.339
66594W        W30153  44.800  26.548   4.814
66595W        W30154  26.191  26.023  14.824
66596W        W30155  12.154  38.883  14.761
66597W        W30156  39.372   4.402   0.925
66598W        W30157  33.514  12.611   0.952
66599W        W30158  14.313   0.326  11.555
66600W        W30159  15.212  17.705   2.187
66601W        W30160   5.699  36.846   1.894
66602W        W30161  22.723  32.448   0.837
66603W        W30162   2.243  20.152  14.913
66604W        W30163  44.419  37.989  11.552
66605W        W30164  21.618  18.189   2.224
66606W        W30165   2.753  41.003  10.550
66607W        W30166  13.303  39.441   0.358
66608W        W30167  41.814  22.623   4.815
66609W        W30168   5.753  36.983   2.716
66610W        W30169   4.393  30.423   2.771
66611W        W30170   5.342  17.115  12.567
66612W        W30171   7.350  37.390  12.840
66613W        W30172   5.368  19.246  14.390
66614W        W30173  23.600  15.200  14.302
66615W        W30174  42.406  12.137   1.250
66616W        W30175  11.785  18.790  14.917
66617W        W30176   9.334  29.136  12.976
66618W        W30177  20.722  37.554   2.779
66619W        W30178  25.024   1.973  14.435
66620W        W30179  39.371  21.179   0.463
66621W        W30180   1.866  22.104  10.560
66622W        W30181  42.461  38.474  13.494
66623W        W30182  12.287  41.401  11.449
66624W        W30183  23.579  26.965  11.465
66625W        W30184  36.478  11.678  10.904
66626W        W30185  22.642  23.680   9.925
66627W        W30186  40.363  34.436   3.275
66628W        W30187  22.746  27.062  12.963
66629W        W30188  10.645  41.907  13.000
66630W        W30189  28.565  13.245  11.093
66631W        W30190  19.220   9.307  12.371
66632W        W30191  41.323   5.344  11.938
66633W        W30192  16.572  33.915   0.864
66634W        W30193  11.308  44.844  13.486
66635W        W30194  12.264  29.517   3.838
66636W        W30195  34.953   4.208   4.736
66637W        W30196  15.280   7.187  13.036
66638W        W30197  25.005   5.348   4.140
66639W        W30198  36.937  39.987   2.666
66640W        W30199  11.849  35.520   3.373
66641W        W30200  36.406   3.378   0.404
66642W        W30201  36.015  10.667  12.575
66643W        W30202   3.251   2.344  10.425
66644W        W30203  20.168   1.939   2.886
66645W        W30204  23.105  25.491   4.349
66646W        W30205  13.246  19.249  14.479
66647W        W30206  13.642   4.269  10.637
66648W        W30207  19.771  11.775   2.364
66649W        W30208  28.056  36.876  14.785
66650W        W30209   9.212  19.773  12.388
66651W        W30210  37.560  25.963  11.408
66652W        W30211  17.667  18.055   2.727
66653W        W30212  41.973   0.956  10.562
66654W        W30213  24.565  38.393   3.862
66655W        W30214   2.309  16.669  13.366
66656W        W30215   4.722  43.391   3.647
66657W        W30216  12.642  12.622   5.669
66658W        W30217  25.601  27.198  14.989
66659W        W30218  10.754  36.031  12.874
66660W        W30219  21.658  15.322  11.073
66661W        W30220   9.706  35.872  12.836
66662W        W30221  24.503  38.917   2.204
66663W        W30222  39.893  23.106   0.277
66664W        W30223   9.269  37.888   4.174
66665W        W30224  15.309  10.222  11.439
66666W        W30225  36.028  14.747  14.930
66667W        W30226  17.070  25.578  14.482
66668W        W30227  13.351  32.127  10.618
66669W        W30228  30.445  36.863   1.748
66670W        W30229  29.963  33.480  11.919
66671W        W30230  21.570  16.240  14.953
66672W        W30231  31.910  41.842  14.394
66673W        W30232  42.375   0.944   1.401
66674W        W30233  17.097  10.749  12.577
66675W        W30234   5.892  25.607   4.248
66676W        W30235  39.380  27.469  14.882
66677W        W30236  16.656  11.841   0.445
66678W        W30237  10.772  21.583  12.068
66679W        W30238  29.062  11.332  14.908
66680W        W30239  12.251  37.565   0.788
66681W        W30240  15.733  12.640   0.891
66682W        W30241  22.678  26.168  12.346
66683W        W30242  18.179  20.091   0.806
66684W        W30243  24.606  29.072   4.258
66685W        W30244  42.866  31.642  13.431
66686W        W30245  18.715  36.845   3.258
66687W        W30246  16.131   4.925   2.822
66688W        W30247  32.952  35.474  13.004
66689W        W30248  31.081  44.296  12.082
66690W        W30249  37.873  34.476   2.735
66691W        W30250  30.458  42.358  13.513
66692W        W30251  37.086   4.213  11.569
66693W        W30252  13.115  27.620  13.958
66694W        W30253   2.861  16.584  10.919
66695W        W30254  10.718  15.784  11.105
66696W        W30255  42.329  24.683  13.409
66697W        W30256  18.103   5.235  11.535
66698W        W30257  12.199  41.503   3.325
66699W        W30258  23.500  42.471  14.004
66700W        W30259  13.175  26.536  14.381
66701W        W30260  27.955  41.528   0.341
66702W        W30261   8.198  31.413   2.197
66703W        W30262  30.536  33.386  12.381
66704W        W30263  21.628  23.559   3.789
66705W        W30264  44.427  35.400  13.013
66706W        W30265  28.541  11.756   3.772
66707W        W30266  34.911   7.868  10.440
66708W        W30267  20.536  21.139  14.776
66709W        W30268  13.838  11.330  13.453
66710W        W30269   1.838  12.191   3.650
66711W        W30270   5.362   0.485   0.920
66712W        W30271  30.616  34.581  12.579
66713W        W30272  34.863  24.481  14.359
66714W        W30273  33.124  42.775   4.154
66715W        W30274  23.015  10.849  14.781
66716W        W30275  34.371  16.297  11.494
66717W        W30276  24.661   2.378  12.861
66718W        W30277  26.973  25.212  10.157
66719W        W30278  11.812  40.035  14.934
66720W        W30279  29.569  28.168  14.005
66721W        W30280  18.130   4.335  14.333
66722W        W30281  31.437  15.313  10.960
66723W        W30282  27.156   1.761  13.420
66724W        W30283  21.020  25.010  12.544
66725W        W30284  34.055  44.303   3.808
66726W        W30285  37.523  32.952  10.934
66727W        W30286  34.493  17.653   3.267
66728W        W30287   5.880  12.664   2.219
66729W        W30288  36.098  11.805   3.861
66730W        W30289   4.870  28.055  12.404
66731W        W30290  24.714  28.999  12.897
66732W        W30291   8.251  20.093   2.736
66733W        W30292  25.993   3.830   3.180
66734W        W30293  20.259  35.887  10.952
66735W        W30294  36.516  37.458   3.377
66736W        W30295  13.239   5.898  13.015
66737W        W30296  29.019   6.377   3.293
66738W        W30297   7.876  11.164  12.368
66739W        W30298  42.328  43.820  11.472
66740W        W30299  29.455   7.287   0.967
66741W        W30300   9.693  12.160  14.945
66742W        W30301   8.716  16.129  10.945
66743W        W30302  35.965  28.151   0.344
66744W        W30303  30.652  34.953   2.868
66745W        W30304  43.861  37.083  14.932
66746W        W30305   3.459  25.207   3.377
66747W        W30306   6.384  23.056   2.205
66748W        W30307  15.297  31.087  11.470
66749W        W30308  13.337  43.920  12.896
66750W        W30309  39.045  30.098   2.766
66751W        W30310  15.818  29.963  10.888
66752W        W30311  23.585  19.712   2.303
66753W        W30312  20.763  14.242   3.170
66754W        W30313  23.565   8.250   0.895
66755W        W30314  13.186  20.221  11.857
66756W        W30315  34.983   3.921  12.033
66757W        W30316  13.244  39.355  11.497
66758W        W30317   0.852   1.938  13.062
66759W        W30318  11.844  16.201   2.331
66760W        W30319  40.339   2.837   1.796
66761W        W30320  35.468   5.231  11.512
66762W        W30321  20.674  27.181  12.998
66763W        W30322  24.203  10.813  14.285
66764W        W30323  21.608   5.338  14.458
66765W        W30324  40.983  16.146   3.223
66766W        W30325  13.701  26.062   0.849
66767W        W30326  15.822   3.272  10.645
66768W        W30327  36.851  18.713  12.499
66769W        W30328  26.658  37.576  13.371
66770W        W30329  32.490  18.168   2.790
66771W        W30330  32.060  40.412  13.857
66772W        W30331  29.532  20.274  10.496
66773W        W30332  43.774  39.831  13.844
66774W        W30333  38.884  18.142  12.923
66775W        W30334  43.489   8.405   0.913
66776W        W30335  41.394   5.424   0.910
66777W        W30336  11.737   1.443  12.386
66778W        W30337   0.946  27.468   2.674
66779W        W30338  42.380   7.772   1.778
66780W        W30339  18.091  31.005  11.104
66781W        W30340   7.350  43.401  12.999
66782W        W30341  35.104  37.439   2.282
66783W        W30342  44.955  11.723  14.891
66784W        W30343  18.653  39.040   4.719
66785W        W30344  25.543  38.948  10.418
66786W        W30345  20.097   2.770  13.034
66787W        W30346   6.428  18.053   0.363
66788W        W30347  12.204  24.209  11.448
66789W        W30348  26.093  26.673   3.820
66790W        W30349  17.238  39.814   2.686
66791W        W30350  27.963   0.443  10.895
66792W        W30351  28.515  25.093   3.267
66793W        W30352   9.731  19.706  13.519
66794W        W30353  34.462  10.217  13.878
66795W        W30354  12.127  21.105   5.212
66796W        W30355  40.379  27.466  11.464
66797W        W30356  11.836  33.591  13.913
66798W        W30357  25.140   6.807   3.316
66799W        W30358  41.496  44.787  14.800
66800W        W30359  24.054   7.267   3.305
66801W        W30360  19.077  36.934  11.458
66802W        W30361  23.171  10.869   3.356
66803W        W30362  21.198  40.882   1.807
66804W        W30363  36.568  25.596   4.157
66805W        W30364  24.073  37.359   5.307
66806W        W30365  44.006   7.785  13.490
66807W        W30366   1.450  13.109   3.813
66808W        W30367  11.234   2.243  14.499
66809W        W30368   6.310  23.164  12.522
66810W        W30369  20.134  12.615  13.509
66811W        W30370  30.109  14.226  13.982
66812W        W30371  22.207  37.020   3.843
66813W        W30372  10.138   6.908   4.783
66814W        W30373  23.103  28.460   2.794
66815W        W30374  16.232  18.772  13.483
66816W        W30375  26.623  17.113  11.918
66817W        W30376  39.413  10.290   0.841
66818W        W30377   6.729  11.137   0.912
66819W        W30378  20.148  36.909   1.303
66820W        W30379  11.170  26.173  11.858
66821W        W30380   4.742  19.123  14.832
66822W        W30381  18.646  33.418  11.506
66823W        W30382  34.488  13.684   2.318
66824W        W30383  21.086  41.995   1.242
66825W        W30384  22.222  29.159   2.267
66826W        W30385   2.306  11.296  13.033
66827W        W30386  40.979  13.105   1.896
66828W        W30387  20.099  24.166  10.431
66829W        W30388  37.877   7.892  13.912
66830W        W30389  26.954  41.538   0.473
66831W        W30390  38.884  29.426   3.350
66832W        W30391  27.549   6.427  14.793
66833W        W30392   3.451  39.476  12.984
66834W        W30393  13.672  15.128  11.603
66835W        W30394  18.116  39.965  13.992
66836W        W30395  15.313   9.759   4.216
66837W        W30396  34.460  43.933   4.708
66838W        W30397  15.688   9.657   0.280
66839W        W30398  43.966  11.852   4.263
66840W        W30399  28.476  29.982   3.704
66841W        W30400  19.564   4.323   1.752
66842W        W30401  31.908  21.625   2.676
66843W        W30402  12.341  35.529   2.774
66844W        W30403   0.876  20.079   3.671
66845W        W30404  24.050  21.531  11.560
66846W        W30405  38.852  18.784  14.882
66847W        W30406  10.740  15.116   1.799
66848W        W30407  11.766  16.758  12.838
66849W        W30408  23.491  36.021   0.303
66850W        W30409  27.180  26.665  13.896
66851W        W30410  28.118   6.350   0.960
66852W        W30411  23.078  34.375  13.399
66853W        W30412   5.297  32.476   4.308
66854W        W30413  21.029  36.933  14.857
66855W        W30414  36.557  30.046   3.162
66856W        W30415  26.550   9.385   1.451
66857W        W30416  17.714   3.939  13.003
66858W        W30417   7.199  13.601  11.398
66859W        W30418  31.617  42.437   0.947
66860W        W30419  29.525  27.504  12.043
66861W        W30420  34.544  18.657   1.873
66862W        W30421  14.168  14.818  11.598
66863W        W30422   7.346  17.606   1.250
66864W        W30423  32.041   1.874   3.253
66865W        W30424  30.937  11.853   4.624
66866W        W30425   7.837  27.685   0.777
66867W        W30426  40.011   2.282   2.383
66868W        W30427  25.008   5.379   3.691
66869W        W30428   5.852   6.272  12.001
66870W        W30429   6.719  15.789   0.890
66871W        W30430  30.056  19.561  12.489
66872W        W30431  31.435  41.534   4.238
66873W        W30432  29.527  15.581  10.601
66874W        W30433  18.606  38.981   0.340
66875W        W30434  42.285   3.743   4.145
66876W        W30435   1.958  41.800   3.190
66877W        W30436  39.389  36.548  14.768
66878W        W30437   8.875  22.026   4.283
66879W        W30438  24.519  11.679  13.930
66880W        W30439  11.152  21.128   1.744
66881W        W30440  41.869  35.989   0.264
66882W        W30441  13.730  15.602  14.877
66883W        W30442  27.608   0.486   4.645
66884W        W30443  36.526  22.536   0.811
66885W        W30444  23.091  28.511   3.681
66886W        W30445  14.643  42.840   0.728
66887W        W30446  33.086  25.101   1.280
66888W        W30447  29.625  14.319  10.100
66889W        W30448   0.305  16.155  14.300
66890W        W30449  30.435   5.842  12.394
66891W        W30450  35.386  29.642   1.748
66892W        W30451  40.474  35.080   2.179
66893W        W30452  40.920  37.041  12.033
66894W        W30453  34.977   2.768  13.479
66895W        W30454  13.245  41.455   0.264
66896W        W30455  35.975   3.261   2.309
66897W        W30456   5.787  35.569  12.830
66898W        W30457  26.120  28.018  13.462
66899W        W30458   2.817   4.730   3.671
66900W        W30459  12.324  21.696   2.782
66901W        W30460  36.465  44.950  13.415
66902W        W30461  15.824   4.408  14.989
66903W        W30462   2.933   4.853   1.318
66904W        W30463  36.440  38.823  14.360
66905W        W30464  12.286   3.457  14.421
66906W        W30465  22.702  24.493  10.472
66907W        W30466  25.537  13.790  11.563
66908W        W30467   0.969  18.246   0.430
66909W        W30468   4.428   2.450   4.780
66910W        W30469  44.387  44.902   0.351
66911W        W30470  29.954  32.923  14.850
66912W        W30471  28.021   4.358   3.180
66913W        W30472  28.602  32.898   3.719
66914W        W30473  27.183  19.570   0.278
66915W        W30474  15.811   2.226   3.790
66916W        W30475   5.427  27.168   3.860
66917W        W30476   7.816  26.169  11.103
66918W        W30477  10.865  14.193  11.611
66919W        W30478  40.308  21.740   4.711
66920W        W30479  19.545   6.303   1.406
66921W        W30480  34.503   7.216  10.414
66922W        W30481   0.466   6.874  14.507
66923W        W30482  29.468  36.030  13.496
66924W        W30483  24.216  22.694   1.277
66925W        W30484  34.926  36.059   1.265
66926W        W30485  34.410  37.881   2.682
66927W        W30486  40.456   4.301  10.585
66928W        W30487  19.207  44.484  12.987
66929W        W30488  34.876  41.892  11.399
66930W        W30489  40.965  42.875   1.845
66931W        W30490  16.154  38.544  13.005
66932W        W30491  12.635  19.647   4.202
66933W        W30492  19.086  21.726   0.433
66934W        W30493   4.854   7.392  11.528
66935W        W30494  32.951  27.940   2.235
66936W        W30495   3.867  39.957   1.767
66937W        W30496  26.073  18.144   3.832
66938W        W30497   4.353  20.051   2.236
66939W        W30498  34.981  12.247   0.811
66940W        W30499  27.468  13.173   1.751
66941W        W30500  35.000  17.296  14.939
66942W        W30501  13.713  32.448   3.819
66943W        W30502  13.294  44.882   2.338
66944W        W30503  22.251  26.975   2.263
66945W        W30504   9.724   9.369   4.207
66946W        W30505  12.824  14.198   2.232
66947W        W30506  44.974   6.869   4.637
66948W        W30507  25.576   2.315   2.183
66949W        W30508  34.600  24.042  12.413
66950W        W30509  31.997  15.124  13.835
66951W        W30510  38.443  12.183  14.006
66952W        W30511   3.763   9.777  11.424
66953W        W30512  28.123  42.431   4.752
66954W        W30513  31.461  25.666  13.842
66955W        W30514  17.604  29.614   4.264
66956W        W30515  18.128   5.840  11.435
66957W        W30516  39.324  19.158  14.382
66958W        W30517  24.205  14.804  12.058
66959W        W30518  23.173   3.739  12.004
66960W        W30519  21.028  15.691  14.343
66961W        W30520   7.877  11.849   1.381
66962W        W30521   5.853   9.735  13.846
66963W        W30522  31.424  16.169   4.838
66964W        W30523  34.003  26.538   4.352
66965W        W30524  16.604   9.359   4.726
66966W        W30525  14.316   3.821   4.689
66967W        W30526  41.822  43.425  12.479
66968W        W30527   4.215   8.342  13.396
66969W        W30528  24.022  19.775  11.374
66970W        W30529   7.404  27.687  13.315
66971W        W30530   2.240  25.212  14.976
66972W        W30531  11.643  17.143   4.720
66973W        W30532  40.986  44.900   0.786
66974W        W30533  16.216  19.753   1.724
66975W        W30534  15.245  32.561  12.996
66976W        W30535  11.197  15.595  11.552
66977W        W30536   0.373  25.706   4.197
66978W        W30537   9.291  26.134   3.162
66979W        W30538  10.869  18.676   1.848
66980W        W30539  35.579   8.354  12.891
66981W        W30540  24.483  28.674  11.030
66982W        W30541  27.464  25.107   5.668
66983W        W30542  27.666  23.672  10.891
66984W        W30543  12.741   2.886  14.836
66985W        W30544  30.495  26.080  13.987
66986W        W30545  16.760   9.194  13.435
66987W        W30546   8.310  15.203   1.446
66988W        W30547  37.349  29.601   0.786
66989W        W30548  24.159   6.903  10.416
66990W        W30549   1.963   1.939  12.053
66991W        W30550  20.716  15.822   2.335
66992W        W30551  13.338  22.224  14.345
66993W        W30552   5.824  16.571  13.013
66994W        W30553   6.718  15.202  12.425
66995W        W30554  16.283   1.360  10.572
66996W        W30555  15.278   6.376   2.272
66997W        W30556  32.946  11.681   1.869
66998W        W30557   3.433  36.937  14.840
66999W        W30558   3.242  20.704   1.808
67000W        W30559  26.206  30.658  14.487
67001W        W30560  13.185  36.913   0.326
67002W        W30561  19.573   7.719   0.399
67003W        W30562  44.894  41.013   0.260
67004W        W30563   1.938   6.289  11.552
67005W        W30564  14.674  35.935   9.961
67006W        W30565   4.929  24.187  11.958
67007W        W30566  36.486  37.053   2.275
67008W        W30567  30.559  42.892  14.488
67009W        W30568  19.616  22.586  14.991
67010W        W30569  38.859  30.079  11.408
67011W        W30570  34.448  12.779  12.024
67012W        W30571   3.791  37.984   4.174
67013W        W30572  25.593   4.906  11.043
67014W        W30573  24.507  38.430  14.890
67015W        W30574   5.364  41.472   4.695
67016W        W30575  14.623   7.757   1.782
67017W        W30576  33.592  34.598   1.748
67018W        W30577  30.929   8.900  14.848
67019W        W30578   4.365   0.350   2.207
67020W        W30579  38.435  29.447  13.411
67021W        W30580   7.371  22.671  11.864
67022W        W30581  23.231  32.547  14.326
67023W        W30582  28.171  14.630  13.801
67024W        W30583   5.385  28.489  12.021
67025W        W30584  32.136  40.831   3.835
67026W        W30585  26.127  19.585   0.934
67027W        W30586  18.288  30.525   4.632
67028W        W30587   7.893  42.343   2.812
67029W        W30588  14.233  36.534   0.929
67030W        W30589  33.537  22.725  10.987
67031W        W30590  26.075   9.162  10.461
67032W        W30591   5.814   1.950   0.753
67033W        W30592  36.865   6.319   3.769
67034W        W30593  27.043  22.112  11.071
67035W        W30594  29.550  38.938   9.541
67036W        W30595  11.648   6.778  12.005
67037W        W30596  23.148  35.386   1.228
67038W        W30597   9.829  19.567   3.704
67039W        W30598  20.194   0.267   3.221
67040W        W30599   6.390  28.089   1.374
67041W        W30600   6.282  39.367  10.914
67042W        W30601  22.078  19.666  12.557
67043W        W30602  43.965   9.151   0.938
67044W        W30603  35.447  34.072   4.184
67045W        W30604   3.751  20.684   0.340
67046W        W30605   8.891  36.856   1.909
67047W        W30606  16.295   4.782  13.329
67048W        W30607   3.235  32.465   2.668
67049W        W30608   0.961  30.430   0.444
67050W        W30609  26.490   6.398  12.059
67051W        W30610  39.467  28.671  14.954
67052W        W30611  22.998   5.735   2.315
67053W        W30612  12.351  38.565   2.709
67054W        W30613  18.593  23.234  13.444
67055W        W30614  20.201  32.412   3.685
67056W        W30615  23.577  40.853  10.639
67057W        W30616  13.608  31.626   2.692
67058W        W30617  26.016  44.903   1.246
67059W        W30618  10.184  12.359   4.600
67060W        W30619  13.321   9.704   2.248
67061W        W30620  15.695  27.961  10.481
67062W        W30621  12.277  13.757  14.985
67063W        W30622   2.347  31.451  14.319
67064W        W30623  22.062  37.449   3.854
67065W        W30624  18.275  28.083  14.307
67066W        W30625  29.622  21.517   5.151
67067W        W30626  44.344  40.303  11.513
67068W        W30627  12.767  10.828   4.747
67069W        W30628   7.408  17.294  11.529
67070W        W30629  30.982  40.435  11.594
67071W        W30630  10.193  38.890   4.793
67072W        W30631   1.286   4.242   1.885
67073W        W30632  26.990   9.667   0.967
67074W        W30633  44.768  16.105  13.393
67075W        W30634   1.482  10.728   1.809
67076W        W30635  34.007  14.175   3.667
67077W        W30636   3.424  38.504   2.747
67078W        W30637  31.997   4.790   2.255
67079W        W30638  44.401  24.988   3.711
67080W        W30639  13.617   0.893  10.922
67081W        W30640  28.445  12.827  14.425
67082W        W30641   8.839  23.134   2.341
67083W        W30642  38.017  36.850   1.433
67084W        W30643  13.143  24.139   3.864
67085W        W30644  11.207  33.884  14.420
67086W        W30645   3.437   4.376  12.042
67087W        W30646  15.591  29.576   2.693
67088W        W30647  10.773   7.706  11.497
67089W        W30648  13.139  38.965   3.279
67090W        W30649  21.652  17.142  10.919
67091W        W30650   0.380  29.952   3.373
67092W        W30651   2.310  38.517  14.783
67093W        W30652   0.459  40.409   3.311
67094W        W30653  26.972  12.729   1.781
67095W        W30654  25.180   4.244  11.486
67096W        W30655   8.765  39.354  12.994
67097W        W30656  33.085  20.128  12.000
67098W        W30657  11.372  40.413  13.036
67099W        W30658  20.615  42.783  12.078
67100W        W30659  44.859   8.372  11.873
67101W        W30660   3.765  29.434   3.694
67102W        W30661  16.747  32.455  11.489
67103W        W30662  29.004  35.439  14.895
67104W        W30663  36.911  39.507   1.362
67105W        W30664  34.547  16.713  12.994
67106W        W30665  15.106   8.757   3.212
67107W        W30666  34.472   5.417   0.796
67108W        W30667  37.922  29.537  11.125
67109W        W30668  32.107  38.566   4.322
67110W        W30669   9.887  11.832  10.946
67111W        W30670  37.367  42.839  12.479
67112W        W30671  14.621   5.793  12.933
67113W        W30672  37.553  14.119   3.298
67114W        W30673  25.606  19.158   0.295
67115W        W30674  33.030  34.054  13.803
67116W        W30675  22.022  36.999   2.792
67117W        W30676  22.597  18.687  11.106
67118W        W30677   9.149  16.208   4.273
67119W        W30678  19.266  42.907   4.129
67120W        W30679  30.049   6.230  13.887
67121W        W30680  12.671   1.806   2.733
67122W        W30681   0.251  30.912   3.847
67123W        W30682  18.250  14.742  13.843
67124W        W30683  26.045  31.633  13.003
67125W        W30684  21.534  14.794  13.032
67126W        W30685  18.119  10.668  14.481
67127W        W30686   6.748  33.487  13.439
67128W        W30687  20.029  37.371  11.008
67129W        W30688   0.291  11.657  13.381
67130W        W30689  39.823  41.823  13.064
67131W        W30690  19.147  15.192   2.728
67132W        W30691  30.912  15.765  14.855
67133W        W30692  21.703  19.734  11.960
67134W        W30693  29.945  44.337   0.932
67135W        W30694   9.889   8.406  13.412
67136W        W30695   9.323  13.253  12.521
67137W        W30696   9.757  42.920   3.320
67138W        W30697  40.369  43.398  11.524
67139W        W30698   6.802  30.097  12.435
67140W        W30699   5.826  42.372   1.732
67141W        W30700  44.480   5.744   2.889
67142W        W30701  28.986   0.317  11.529
67143W        W30702  24.142  44.775  11.952
67144W        W30703  34.483  42.378   4.601
67145W        W30704  18.164   2.396   0.953
67146W        W30705  29.950   0.987  11.469
67147W        W30706   0.368  25.123   1.706
67148W        W30707  21.639   6.298   0.404
67149W        W30708  43.837   8.832   5.305
67150W        W30709   9.362   4.718  11.052
67151W        W30710  34.572   0.342   2.319
67152W        W30711  32.046  11.854   9.920
67153W        W30712   2.912   1.852   4.838
67154W        W30713  34.415  40.890   3.632
67155W        W30714   0.436  43.291   2.323
67156W        W30715  33.384   4.839  11.574
67157W        W30716  37.559  37.574   3.209
67158W        W30717   0.373   4.221   2.703
67159W        W30718  14.268  25.505   2.361
67160W        W30719   8.404   8.779  11.610
67161W        W30720  23.635   1.425   4.348
67162W        W30721  26.184   0.357  10.513
67163W        W30722   1.444  42.930  13.359
67164W        W30723   8.310  10.165   0.905
67165W        W30724  18.053  42.791  11.455
67166W        W30725  24.702   2.400   0.937
67167W        W30726  44.423  17.567   3.686
67168W        W30727  10.691  39.389   2.686
67169W        W30728  43.350   7.855   3.238
67170W        W30729  22.628   8.354   4.328
67171W        W30730   4.826  16.769   2.309
67172W        W30731   9.716  37.407  11.048
67173W        W30732  42.907  12.323  11.915
67174W        W30733  38.420   8.720  11.051
67175W        W30734  41.920  20.593   4.698
67176W        W30735  32.131  44.314  11.988
67177W        W30736   1.237  36.919   0.766
67178W        W30737  29.451  31.606  11.608
67179W        W30738  44.279  30.928   1.750
67180W        W30739  19.723  43.817  14.402
67181W        W30740   7.313  21.591  14.946
67182W        W30741   9.310   8.284   3.268
67183W        W30742  27.970   3.941  14.484
67184W        W30743  12.342  24.695  13.059
67185W        W30744   6.203   7.329   3.283
67186W        W30745  27.591  19.600   0.319
67187W        W30746  11.349  19.554   1.770
67188W        W30747  14.212  34.494   1.925
67189W        W30748  33.569  44.494   9.968
67190W        W30749  29.435  24.189  11.947
67191W        W30750  22.588  43.318  13.538
67192W        W30751  43.422  20.546   3.776
67193W        W30752  44.285   0.321   4.335
67194W        W30753  37.957   9.350  12.064
67195W        W30754  12.773  12.694   1.421
67196W        W30755  19.622  31.114  11.979
67197W        W30756  28.061   9.264  10.577
67198W        W30757   5.921  33.131   2.239
67199W        W30758  40.910  11.270  10.467
67200W        W30759  27.083  12.838  10.090
67201W        W30760  25.160   2.226   4.703
67202W        W30761  39.445  18.207  13.987
67203W        W30762  35.058  17.118   0.274
67204W        W30763  44.828  22.605  10.600
67205W        W30764  44.821   3.848  13.316
67206W        W30765  24.643   5.373  12.400
67207W        W30766  35.870  24.027   1.877
67208W        W30767  33.911  15.231   1.921
67209W        W30768   8.715  33.521  10.946
67210W        W30769  44.390  16.616   3.173
67211W        W30770  34.052  11.861  13.805
67212W        W30771  30.028  22.165   3.263
67213W        W30772  33.462   0.791   1.439
67214W        W30773  38.544   2.886   1.815
67215W        W30774  21.206  11.844   2.701
67216W        W30775  41.494   3.401  11.385
67217W        W30776  40.329  27.971   9.980
67218W        W30777   5.924  35.955  14.827
67219W        W30778  13.217   6.861  13.895
67220W        W30779  12.206  15.291   4.679
67221W        W30780  24.709  18.617   1.321
67222W        W30781  26.982  14.609   2.401
67223W        W30782  28.975  40.026   2.868
67224W        W30783  18.183  15.645   2.353
67225W        W30784  19.097  15.603   0.473
67226W        W30785  37.351   4.809   4.747
67227W        W30786  44.880   9.854  10.898
67228W        W30787  17.284  35.059  10.470
67229W        W30788  26.127   9.369  13.981
67230W        W30789   7.819   4.403   2.301
67231W        W30790  21.248  20.671  10.492
67232W        W30791  18.053  39.025   2.761
67233W        W30792  11.708  40.823   3.300
67234W        W30793   6.678  24.069  12.496
67235W        W30794  36.492  20.191  12.468
67236W        W30795   0.768  16.688   2.334
67237W        W30796  21.542   1.903   0.747
67238W        W30797  19.557  20.665  10.456
67239W        W30798   8.231   6.783  11.599
67240W        W30799   4.833  30.071   4.649
67241W        W30800   7.700   0.895   3.787
67242W        W30801  33.551  12.191  11.612
67243W        W30802  30.534  39.510  10.983
67244W        W30803   3.358  16.274  14.418
67245W        W30804  35.052   7.184   0.342
67246W        W30805  18.777  42.504   4.711
67247W        W30806  43.896  18.228  11.480
67248W        W30807   2.335   1.961   2.281
67249W        W30808   4.261  19.565  11.458
67250W        W30809  41.436  28.093  12.546
67251W        W30810  25.114   8.655   2.862
67252W        W30811   3.263   7.712  14.844
67253W        W30812  29.641  34.926  13.931
67254W        W30813  36.500  20.587   0.758
67255W        W30814  30.106   5.786  11.499
67256W        W30815   6.234   5.215   4.183
67257W        W30816  40.041  18.777   4.648
67258W        W30817   9.766  15.776   4.352
67259W        W30818  25.192   9.322   1.760
67260W        W30819  21.057  23.041  14.339
67261W        W30820   9.158  25.504   3.158
67262W        W30821  40.814   4.374  11.891
67263W        W30822   4.708  10.713   1.843
67264W        W30823  30.075   7.703  12.368
67265W        W30824  11.644  41.508   2.883
67266W        W30825  27.179  34.374  12.866
67267W        W30826  18.654  15.302   4.620
67268W        W30827  24.490   1.394   1.244
67269W        W30828  13.678  39.427   0.296
67270W        W30829   0.918  38.397  12.919
67271W        W30830  15.666  39.964   1.451
67272W        W30831   8.298  15.667  11.989
67273W        W30832  19.094  29.494   2.736
67274W        W30833  40.841  27.488  13.486
67275W        W30834  43.285  32.059  12.858
67276W        W30835  40.416  24.621   3.270
67277W        W30836  17.201  26.183  12.038
67278W        W30837   2.350  10.685  11.899
67279W        W30838  37.857  19.674   4.752
67280W        W30839  20.550   9.883  12.852
67281W        W30840  37.907  31.639  12.413
67282W        W30841  30.627  31.470   1.229
67283W        W30842  37.449  33.546   2.354
67284W        W30843  30.054  37.400  11.882
67285W        W30844   2.453   0.939  14.783
67286W        W30845  12.355   2.380   3.635
67287W        W30846  20.101   1.267   2.734
67288W        W30847  19.172  10.145  14.510
67289W        W30848  29.563   3.315   0.891
67290W        W30849  38.478  44.411   4.147
67291W        W30850  38.513  37.407   4.208
67292W        W30851  24.615  34.106  13.859
67293W        W30852  40.956  25.964  13.037
67294W        W30853  21.700  37.362  13.898
67295W        W30854   7.173   9.848  13.334
67296W        W30855  43.452  22.049   4.243
67297W        W30856  23.645  14.772   4.618
67298W        W30857  22.253  22.541  10.625
67299W        W30858  23.509   0.491  10.992
67300W        W30859  30.432  36.096  11.875
67301W        W30860  24.111  36.558   0.749
67302W        W30861  25.090  25.099  13.849
67303W        W30862  38.539   6.408   0.434
67304W        W30863  40.444   1.307   3.781
67305W        W30864  33.130  21.545  14.031
67306W        W30865  42.458  38.529   0.329
67307W        W30866   3.924  25.171  12.077
67308W        W30867   1.909  13.239  10.569
67309W        W30868   7.770   5.843  12.435
67310W        W30869  17.724  19.642  12.954
67311W        W30870  16.587  18.177  13.471
67312W        W30871  27.115  30.107  13.378
67313W        W30872  17.667   1.778  14.783
67314W        W30873   9.659  15.696  13.454
67315W        W30874  40.548  27.999  10.606
67316W        W30875  44.443  28.972   2.197
67317W        W30876  28.945   0.479  13.541
67318W        W30877  27.977  39.023  12.007
67319W        W30878  23.615  19.566  11.871
67320W        W30879  40.398   3.249  11.402
67321W        W30880  12.286  35.415  14.784
67322W        W30881  44.283   3.783  11.127
67323W        W30882  35.394  20.544   2.312
67324W        W30883  21.688  19.197  10.588
67325W        W30884  13.342  13.711   0.439
67326W        W30885  19.150  34.514   3.797
67327W        W30886  18.151  32.425   2.663
67328W        W30887   7.805  17.173  13.452
67329W        W30888   8.362  25.185  13.822
67330W        W30889  17.294  27.476  12.401
67331W        W30890  25.609  28.098   2.796
67332W        W30891  20.172  15.148  11.449
67333W        W30892  39.033  31.052  14.841
67334W        W30893  20.555  28.574   4.666
67335W        W30894   2.406  17.683   3.786
67336W        W30895  31.605   1.860  11.444
67337W        W30896  31.603  18.748   2.799
67338W        W30897  11.232  33.577  11.034
67339W        W30898  24.147  38.369  14.902
67340W        W30899  33.383   0.410  12.059
67341W        W30900  35.444  38.889   4.814
67342W        W30901  25.155  30.111   4.211
67343W        W30902  16.283  27.991  14.971
67344W        W30903  24.661  15.284   0.448
67345W        W30904  40.953  39.536  12.990
67346W        W30905  24.013  29.975   3.863
67347W        W30906  39.921  15.155  13.024
67348W        W30907  31.949  18.138   4.144
67349W        W30908  10.305  17.280  13.381
67350W        W30909  37.941   9.728   3.779
67351W        W30910  25.974  30.920   3.253
67352W        W30911  12.743  40.362  13.036
67353W        W30912  25.563  30.113   3.224
67354W        W30913  35.002  30.122  11.076
67355W        W30914  19.630   9.359  11.056
67356W        W30915  33.940  25.707   0.793
67357W        W30916  42.798  39.876   1.932
67358W        W30917   2.780  39.346   0.281
67359W        W30918  12.246   4.785   4.284
67360W        W30919  18.644  21.693   1.280
67361W        W30920   0.380  18.244  11.602
67362W        W30921  40.353  41.293   5.260
67363W        W30922   7.846  18.156   2.901
67364W        W30923  16.804   3.278   0.902
67365W        W30924  11.288   1.950  13.469
67366W        W30925   5.414  34.086   1.424
67367W        W30926  32.423  17.133   1.900
67368W        W30927  21.624   4.718   0.459
67369W        W30928  36.500   4.897  13.997
67370W        W30929  31.573  20.215  12.559
67371W        W30930   9.673   5.765   1.370
67372W        W30931  13.720   5.722  12.503
67373W        W30932   2.781  36.096   2.779
67374W        W30933  18.076  44.958  13.947
67375W        W30934  44.756   5.801  11.479
67376W        W30935  14.284  23.726  14.352
67377W        W30936  24.637  44.855   0.817
67378W        W30937  36.901   8.189   2.265
67379W        W30938   9.229  39.526   1.446
67380W        W30939  37.503  25.052  13.333
67381W        W30940   7.350   7.411   2.831
67382W        W30941  21.588   3.306   0.951
67383W        W30942  23.229  32.079   3.797
67384W        W30943  25.706  44.475   3.835
67385W        W30944  29.140  42.822  14.961
67386W        W30945   0.954  20.122  11.922
67387W        W30946  44.795  31.586   3.166
67388W        W30947   8.339  20.733   1.706
67389W        W30948  41.335  44.427   3.633
67390W        W30949   5.215  18.187  12.092
67391W        W30950  24.661   9.647   5.102
67392W        W30951  11.245  21.180   1.388
67393W        W30952  16.214   7.846   5.692
67394W        W30953  42.480  31.917   1.251
67395W        W30954  41.917  15.260  13.844
67396W        W30955  10.796  16.667   2.672
67397W        W30956   8.194  39.426   3.637
67398W        W30957  30.156  20.059  10.630
67399W        W30958  44.392  33.947  14.799
67400W        W30959   4.724  35.918   2.866
67401W        W30960  23.089  40.817   1.732
67402W        W30961  29.137  44.289   4.824
67403W        W30962  42.813  39.889  14.886
67404W        W30963  24.190   9.827   2.245
67405W        W30964  21.662  19.116  12.893
67406W        W30965   9.309  15.682  12.458
67407W        W30966  15.203  29.077  13.037
67408W        W30967  39.431  20.194  10.494
67409W        W30968  27.127  44.444  11.871
67410W        W30969  43.869  21.660  14.847
67411W        W30970  44.783   6.838   0.251
67412W        W30971  23.671   8.234   4.814
67413W        W30972  13.281  14.225  14.920
67414W        W30973  11.637  37.931   2.783
67415W        W30974  16.773  35.508   2.342
67416W        W30975  10.869  32.930   2.189
67417W        W30976   2.787   8.881   1.354
67418W        W30977   7.205  10.782  11.550
67419W        W30978   8.334  27.651   4.803
67420W        W30979  28.449   8.259  11.610
67421W        W30980  33.425  41.958  10.912
67422W        W30981  38.015  16.316  11.459
67423W        W30982  38.935  41.960   0.733
67424W        W30983  12.251  24.704   1.896
67425W        W30984  12.238  14.644   3.726
67426W        W30985  43.314   7.206   4.132
67427W        W30986  35.869  24.188   3.264
67428W        W30987  39.526   0.757   4.804
67429W        W30988  22.648  27.456  12.923
67430W        W30989  37.550  21.057  12.428
67431W        W30990  10.783  16.143  14.853
67432W        W30991  17.132  15.739  10.619
67433W        W30992  24.013   6.268   2.869
67434W        W30993  41.536  36.029   0.911
67435W        W30994  38.405  12.301  13.494
67436W        W30995   3.758   5.741  14.343
67437W        W30996   9.692  27.140  11.969
67438W        W30997  41.506  22.232   2.243
67439W        W30998  14.735  34.043  10.990
67440W        W30999  10.703  25.090  14.283
67441W        W31000   2.237  35.518  14.469
67442W        W31001  38.967   9.372  13.380
67443W        W31002  36.399  27.615   2.303
67444W        W31003  27.459  29.151  12.857
67445W        W31004  38.064  36.019  11.942
67446W        W31005  42.428  10.194  14.393
67447W        W31006   2.746  40.467   2.726
67448W        W31007  37.485  10.354   0.335
67449W        W31008  26.957  33.557   1.773
67450W        W31009  15.707  17.700   4.263
67451W        W31010  41.430  18.651   0.865
67452W        W31011   0.353  44.288   4.768
67453W        W31012   3.884   3.943  14.455
67454W        W31013  37.507  34.113  13.520
67455W        W31014  37.939  27.988  10.611
67456W        W31015  15.284   9.356   3.383
67457W        W31016  23.673  31.968  10.563
67458W        W31017  19.152  32.433  13.423
67459W        W31018  10.338  11.663   3.169
67460W        W31019  16.740   0.764   0.960
67461W        W31020   0.776  17.732   0.933
67462W        W31021  41.324   3.892  12.093
67463W        W31022  14.121  23.538   1.833
67464W        W31023  10.767  18.107  11.530
67465W        W31024  22.996  40.807  14.438
67466W        W31025   6.708  27.120   3.196
67467W        W31026  19.678  26.154  12.341
67468W        W31027  36.051  26.039   2.293
67469W        W31028  36.436  31.901   3.791
67470W        W31029  11.199  39.349   4.654
67471W        W31030  34.498   0.364  12.070
67472W        W31031  24.064  28.454   3.848
67473W        W31032  15.250  11.219  14.030
67474W        W31033  23.238   5.416  12.428
67475W        W31034  36.526   7.721   0.903
67476W        W31035  21.059  24.007  10.932
67477W        W31036  38.385  24.018  14.477
67478W        W31037  20.713  18.647  10.528
67479W        W31038  14.675  23.547   3.820
67480W        W31039  33.497  15.677   1.375
67481W        W31040   3.835  40.370   2.271
67482W        W31041   5.297   6.217  12.885
67483W        W31042  18.290   6.183  11.111
67484W        W31043  16.787  38.851  13.048
67485W        W31044  13.763  37.923   0.328
67486W        W31045  44.809  24.594   2.337
67487W        W31046  31.113  22.248  14.894
67488W        W31047  25.703  12.339   2.810
67489W        W31048  18.119  20.653  10.460
67490W        W31049  39.901  33.626   1.922
67491W        W31050  44.800  18.679   3.770
67492W        W31051  39.035  42.336   5.137
67493W        W31052  12.855   5.204  11.488
67494W        W31053  34.927  12.682  13.318
67495W        W31054  30.114  41.033  12.001
67496W        W31055  29.959  36.469  14.336
67497W        W31056   9.655  39.942  10.586
67498W        W31057  43.474  43.384  14.409
67499W        W31058   9.772  44.860   0.885
67500W        W31059  10.766  30.545   2.300
67501W        W31060  30.496  12.194  13.934
67502W        W31061  33.043  28.057  14.868
67503W        W31062  12.690   7.286   4.141
67504W        W31063  23.670   9.240  11.116
67505W        W31064   5.272  30.062  14.380
67506W        W31065  25.121  35.502  12.060
67507W        W31066  15.650   7.299  11.096
67508W        W31067  44.942  34.419  11.089
67509W        W31068  30.614   9.711  14.503
67510W        W31069  32.449   9.657  14.357
67511W        W31070  33.490  24.017   3.630
67512W        W31071  39.526  42.836   0.944
67513W        W31072   9.269  32.943  12.955
67514W        W31073  40.516  39.535   0.797
67515W        W31074  26.515  43.351   2.846
67516W        W31075  12.210  37.484   5.619
67517W        W31076   4.434  35.388  10.935
67518W        W31077  24.675  35.577   0.746
67519W        W31078  32.116   1.865  12.077
67520W        W31079  10.286   3.334  10.554
67521W        W31080  25.558  26.137  14.008
67522W        W31081  19.535  14.253  11.560
67523W        W31082  13.312  38.920   5.104
67524W        W31083  24.642   5.372  10.638
67525W        W31084  41.996  17.718  12.554
67526W        W31085   5.253  12.820   4.197
67527W        W31086  31.083   9.870  14.929
67528W        W31087  16.190  13.637   0.403
67529W        W31088  28.608  18.667  13.392
67530W        W31089  23.530   3.441  13.792
67531W        W31090  19.163  41.897  10.491
67532W        W31091  25.021  11.372   1.312
67533W        W31092  31.072   5.781  11.985
67534W        W31093   5.260  43.314  14.948
67535W        W31094  30.118   6.857  12.365
67536W        W31095  26.035  11.283  12.570
67537W        W31096  27.141  26.603   1.824
67538W        W31097  26.697  36.527  14.004
67539W        W31098   7.371  20.062   2.742
67540W        W31099   8.179  44.852   0.377
67541W        W31100  12.728  21.102  11.385
67542W        W31101  30.087  21.129   1.851
67543W        W31102  21.598   3.456  11.414
67544W        W31103  30.437  23.187  11.551
67545W        W31104  33.914  15.231  14.298
67546W        W31105   6.922  17.692   4.678
67547W        W31106  41.890   5.930  11.050
67548W        W31107  12.246  16.632   1.921
67549W        W31108  35.084   1.444   3.379
67550W        W31109  41.921  21.165  11.461
67551W        W31110  26.170  11.298  11.483
67552W        W31111  34.034  24.624   4.334
67553W        W31112   5.295  18.077  12.906
67554W        W31113  10.747  23.520   4.663
67555W        W31114  30.909  12.667   0.425
67556W        W31115   2.721  30.938  13.009
67557W        W31116  35.871  37.976  10.922
67558W        W31117  37.485  29.938  12.538
67559W        W31118   7.292  30.494  10.620
67560W        W31119  26.687  23.046   1.751
67561W        W31120  29.028  16.137   2.853
67562W        W31121  10.635   6.862  10.524
67563W        W31122   1.456  20.062   2.398
67564W        W31123  35.917  10.216   5.314
67565W        W31124  13.326  36.562   0.444
67566W        W31125   2.345  36.423   4.810
67567W        W31126   8.792  21.114   5.247
67568W        W31127  10.811   9.344  11.994
67569W        W31128  21.208  40.942   3.275
67570W        W31129  28.997  30.586  11.375
67571W        W31130  14.221  15.654   5.200
67572W        W31131  15.616   9.385  11.110
67573W        W31132  29.640  11.758  11.448
67574W        W31133  29.926  28.660  12.944
67575W        W31134  11.827  34.473  13.444
67576W        W31135  11.700  33.461   2.318
67577W        W31136  31.573  16.788   3.261
67578W        W31137  38.433  16.159  12.093
67579W        W31138  42.494   7.830   3.779
67580W        W31139  41.482  35.977   0.483
67581W        W31140   6.717  12.733   0.824
67582W        W31141   0.835  44.375  13.390
67583W        W31142  15.102  27.125  12.368
67584W        W31143  40.921  15.780  13.950
67585W        W31144  13.604   5.359  12.945
67586W        W31145  41.822  38.411   2.834
67587W        W31146   5.737  22.084   3.800
67588W        W31147  40.457  23.158  14.439
67589W        W31148  44.318  36.570  14.911
67590W        W31149  12.621   9.733  12.542
67591W        W31150  18.639   2.273   5.280
67592W        W31151  21.692  18.667   2.380
67593W        W31152   3.938  26.465   2.663
67594W        W31153  35.864  26.083   4.619
67595W        W31154  28.626  14.624   4.259
67596W        W31155   1.957  23.060   1.358
67597W        W31156   2.721   4.907  13.394
67598W        W31157  15.308  32.505   3.699
67599W        W31158  37.543  16.813  13.460
67600W        W31159   9.690  26.579  14.362
67601W        W31160   8.189  40.430   4.634
67602W        W31161  36.549  44.903  12.879
67603W        W31162  23.733  12.739   2.212
67604W        W31163  38.017  29.611  14.500
67605W        W31164   0.383  17.099   1.244
67606W        W31165  13.724   4.923   4.688
67607W        W31166  27.679  27.971   2.820
67608W        W31167   0.792  43.489  13.519
67609W        W31168  27.639   4.333  11.877
67610W        W31169  35.928  15.702   2.888
67611W        W31170  13.309   6.220   5.303
67612W        W31171  32.963  17.765  14.493
67613W        W31172  33.593  29.158   1.770
67614W        W31173  21.530  44.397   2.319
67615W        W31174  20.098  19.157   2.792
67616W        W31175  37.836  40.040  13.338
67617W        W31176  25.507  27.128  11.964
67618W        W31177  22.179  10.643  14.332
67619W        W31178  12.211  39.838  14.951
67620W        W31179  17.568  16.247   3.263
67621W        W31180  32.472  34.001  14.970
67622W        W31181  43.836  10.714  13.352
67623W        W31182  29.624  31.041   1.319
67624W        W31183  28.646  23.240   0.293
67625W        W31184  18.097  33.875   0.439
67626W        W31185  21.246  14.110  13.894
67627W        W31186  36.018   0.377   4.316
67628W        W31187  33.939  12.213  11.990
67629W        W31188  44.485  38.030   1.359
67630W        W31189  24.222  31.618  12.035
67631W        W31190   2.434  37.979  14.379
67632W        W31191  34.584  41.356  14.470
67633W        W31192   8.345  22.138  10.414
67634W        W31193  10.372   9.814  10.987
67635W        W31194  42.959   2.746  13.328
67636W        W31195  17.230  14.327   1.378
67637W        W31196  12.120  23.142   3.795
67638W        W31197   1.330  44.920  12.509
67639W        W31198  34.060   0.421  12.018
67640W        W31199  21.538  43.919  14.281
67641W        W31200  41.423  27.996   1.877
67642W        W31201   6.731  18.684  12.427
67643W        W31202  32.021  14.736  12.938
67644W        W31203  28.658  25.533  12.843
67645W        W31204  16.134  31.975   1.398
67646W        W31205   9.878   0.355  13.792
67647W        W31206  35.103  37.437   1.902
67648W        W31207  42.292  29.448   3.679
67649W        W31208  14.128  17.263  12.486
67650W        W31209  42.487  31.058  12.432
67651W        W31210  29.435   9.776   4.231
67652W        W31211  42.447  38.046   3.648
67653W        W31212  44.782  36.575  11.476
67654W        W31213  22.138  38.841  12.035
67655W        W31214  23.010   1.952  14.812
67656W        W31215  25.130  41.988  14.826
67657W        W31216  20.265  14.804   0.405
67658W        W31217  35.991  22.180  13.479
67659W        W31218  22.146  29.166   3.767
67660W        W31219  16.812   6.856   4.205
67661W        W31220  18.165   8.213  12.869
67662W        W31221   8.192  42.460   1.715
67663W        W31222  40.541  29.634   4.819
67664W        W31223  17.240  16.758   3.713
67665W        W31224   1.970  31.153  13.797
67666W        W31225  16.193  43.951   4.808
67667W        W31226  43.912  43.923   4.140
67668W        W31227  19.567  39.836   0.880
67669W        W31228  30.500   9.302   2.831
67670W        W31229   7.888  29.532   4.249
67671W        W31230   6.411  39.994  13.828
67672W        W31231  28.592  38.850   3.862
67673W        W31232  43.454  41.333  13.540
67674W        W31233  25.068  39.888   1.394
67675W        W31234  19.121  35.099  12.522
67676W        W31235  16.611   5.411   1.768
67677W        W31236  25.984  33.064  12.344
67678W        W31237   2.965  31.132  12.395
67679W        W31238   7.852  13.152  14.958
67680W        W31239  35.396  10.709   2.761
67681W        W31240   9.851  15.790   9.961
67682W        W31241   7.803  24.697   2.309
67683W        W31242   4.228  35.559  14.965
67684W        W31243  23.647   6.919  12.872
67685W        W31244  25.021  18.113   1.414
67686W        W31245  37.996   6.278   0.965
67687W        W31246   2.331  33.129   4.224
67688W        W31247  38.996  44.398   2.701
67689W        W31248  20.167  41.402   0.310
67690W        W31249   7.706   3.732  10.634
67691W        W31250  40.008  27.515  14.994
67692W        W31251  18.688  26.090   2.729
67693W        W31252  30.477  22.535   0.891
67694W        W31253  35.517  12.616   3.311
67695W        W31254  23.113   5.195  11.939
67696W        W31255  39.397  18.190   3.649
67697W        W31256  43.331  41.034  13.954
67698W        W31257  16.194  19.613  11.046
67699W        W31258   0.929  28.125   1.873
67700W        W31259  38.065  20.169   3.694
67701W        W31260   2.226  42.496  14.372
67702W        W31261  31.634  13.787   3.146
67703W        W31262  31.621  32.120   5.266
67704W        W31263  21.215   6.808  14.936
67705W        W31264   0.311  15.670  12.990
67706W        W31265  41.465  14.785   4.129
67707W        W31266   0.962   6.913  14.964
67708W        W31267  27.965  43.368   0.369
67709W        W31268  41.374  21.192   2.356
67710W        W31269  19.774  21.531  14.278
67711W        W31270  29.591  23.072  14.810
67712W        W31271  34.580  18.741  11.016
67713W        W31272  15.329  24.099  13.837
67714W        W31273  42.007  20.628   2.286
67715W        W31274  14.230   2.429  12.907
67716W        W31275  13.120  31.963  10.916
67717W        W31276  41.429  17.652   3.687
67718W        W31277  22.700   5.832  12.405
67719W        W31278  26.015  12.121   5.234
67720W        W31279  30.109  21.065   3.216
67721W        W31280  18.573   9.243  10.944
67722W        W31281   6.221   8.802   2.732
67723W        W31282  17.129  23.196   3.789
67724W        W31283  19.631  21.672   2.842
67725W        W31284  44.375  13.261   2.312
67726W        W31285  35.401   5.831   1.429
67727W        W31286  22.719  17.695  14.993
67728W        W31287  32.058  30.941  14.987
67729W        W31288  41.877  44.389  10.575
67730W        W31289  38.538  35.360   3.197
67731W        W31290  39.012  28.524  14.980
67732W        W31291  38.397   6.678   3.637
67733W        W31292  42.406  21.047   4.285
67734W        W31293  37.571  44.420   1.838
67735W        W31294  21.159   4.698  14.439
67736W        W31295  21.744  15.806   2.691
67737W        W31296  15.244   6.339   4.137
67738W        W31297  42.825  31.138  14.370
67739W        W31298  41.431  12.831  12.473
67740W        W31299   0.783  21.061   3.210
67741W        W31300  34.566  10.186   1.336
67742W        W31301  35.879  44.282  14.991
67743W        W31302   6.211  22.115  12.523
67744W        W31303  19.234  10.775  14.009
67745W        W31304   1.434  21.641   1.869
67746W        W31305  28.473  14.787   1.834
67747W        W31306   2.940  23.153   3.632
67748W        W31307  12.766  10.689  14.308
67749W        W31308   3.761  16.163  13.542
67750W        W31309   3.278  44.334   2.299
67751W        W31310   3.952  30.548  12.869
67752W        W31311  42.311  38.067  10.421
67753W        W31312   3.413  14.105  13.800
67754W        W31313  35.604  20.056   0.870
67755W        W31314  22.722  42.028  10.498
67756W        W31315  33.470  42.012  11.905
67757W        W31316  40.386  17.131  11.059
67758W        W31317  34.010  11.357  14.355
67759W        W31318  42.486  33.896   3.238
67760W        W31319  32.401  41.918   9.963
67761W        W31320  26.498   0.265  14.014
67762W        W31321  18.657  36.347  10.418
67763W        W31322  41.880  21.238   0.795
67764W        W31323  33.546   6.761  10.084
67765W        W31324  11.268  34.073  11.437
67766W        W31325  23.501  12.626   0.809
67767W        W31326  12.775  19.551  14.292
67768W        W31327   8.206   9.890  11.074
67769W        W31328  12.187  28.110  14.778
67770W        W31329  16.258  29.020  10.501
67771W        W31330   2.299   4.931  14.483
67772W        W31331  20.753  39.410   3.350
67773W        W31332  36.955   4.434   2.857
67774W        W31333  38.422  26.055   0.377
67775W        W31334  35.032   1.731   0.354
67776W        W31335  39.919  30.017   0.843
67777W        W31336  14.176  15.821  13.999
67778W        W31337  14.603  36.396   1.332
67779W        W31338  13.344   5.767   4.617
67780W        W31339  18.635  14.136  10.027
67781W        W31340   8.855  24.173   0.475
67782W        W31341   4.785   7.731   1.884
67783W        W31342  23.710  31.409   1.353
67784W        W31343   0.890  10.638  10.600
67785W        W31344   0.435  37.033   0.747
67786W        W31345  35.026   3.875   3.307
67787W        W31346   9.811  39.485  10.568
67788W        W31347  38.468  31.000  13.863
67789W        W31348  40.015  13.267   2.766
67790W        W31349   6.873  35.003   1.702
67791W        W31350  13.770  39.395   3.175
67792W        W31351  30.652  15.088   2.368
67793W        W31352  39.930  11.314  14.890
67794W        W31353  32.015  26.539  13.818
67795W        W31354  13.658  37.871   4.326
67796W        W31355  33.385   5.880  10.605
67797W        W31356   3.237  18.718  14.801
67798W        W31357  22.567  23.639   3.203
67799W        W31358  43.767  11.195  11.017
67800W        W31359  30.917  23.087  14.426
67801W        W31360   1.238  30.016   1.788
67802W        W31361  20.055  28.476   4.743
67803W        W31362  25.085  39.809   3.240
67804W        W31363  16.109  43.978   3.228
67805W        W31364   3.433  22.617  10.426
67806W        W31365  30.632   1.808  14.945
67807W        W31366  39.032  14.762  11.924
67808W        W31367  10.235  11.799  14.462
67809W        W31368  32.599  20.533   1.758
67810W        W31369  10.186  16.196   3.670
67811W        W31370  30.455   0.395   0.851
67812W        W31371   9.272  19.254   3.853
67813W        W31372  32.616  31.072   2.266
67814W        W31373   4.262  38.876   4.217
67815W        W31374  14.169  20.273   3.661
67816W        W31375  30.544   0.978  13.411
67817W        W31376  12.201   2.948   4.627
67818W        W31377  12.258  17.191   3.184
67819W        W31378  22.086  34.934  11.105
67820W        W31379  26.999  28.600   4.324
67821W        W31380   6.820  23.514   4.229
67822W        W31381  40.468  40.391  14.888
67823W        W31382  41.933   0.343  14.365
67824W        W31383  15.106   9.237   4.303
67825W        W31384  23.664   4.371  12.417
67826W        W31385   4.370  12.750   2.860
67827W        W31386  12.217  31.990  12.465
67828W        W31387  36.855   9.231   3.188
67829W        W31388  16.739  32.087   2.816
67830W        W31389  21.111  28.638   4.832
67831W        W31390  26.009   5.825  12.902
67832W        W31391  39.966  41.006  14.476
67833W        W31392  40.519   0.886   4.344
67834W        W31393  14.609   2.392   2.835
67835W        W31394  29.160   9.855   4.717
67836W        W31395  32.610  41.965  12.919
67837W        W31396  44.800  21.585   4.148
67838W        W31397  43.432  14.737  14.303
67839W        W31398  29.519  10.143  12.943
67840W        W31399   8.712   6.214  12.477
67841W        W31400  31.924  18.133   2.205
67842W        W31401  11.835   5.766  14.908
67843W        W31402  15.306  35.937  14.906
67844W        W31403  32.578   6.886   3.167
67845W        W31404  27.972  14.110  13.817
67846W        W31405  38.829  16.207  14.810
67847W        W31406   7.816  38.021   2.346
67848W        W31407  39.412  23.541  14.953
67849W        W31408  37.032   6.883   4.598
67850W        W31409  15.304  13.308   0.906
67851W        W31410  41.535  33.882   1.826
67852W        W31411  23.536  34.601   0.324
67853W        W31412  36.074   1.933   3.289
67854W        W31413  15.316  31.986  14.871
67855W        W31414  35.894  28.556   0.838
67856W        W31415  36.408  36.999  11.034
67857W        W31416   6.425  22.048  14.879
67858W        W31417  44.921   3.272  10.487
67859W        W31418   0.335   3.337  13.912
67860W        W31419  39.854  41.327   0.843
67861W        W31420  10.343   0.488   4.709
67862W        W31421  41.906  20.599   0.426
67863W        W31422   1.376  36.568  14.832
67864W        W31423  34.073  32.553   0.739
67865W        W31424  14.733  13.239   4.282
67866W        W31425  44.440  32.479   4.826
67867W        W31426  13.781  37.476   4.146
67868W        W31427  34.080  31.993  14.981
67869W        W31428  31.068  31.077   2.858
67870W        W31429  19.762  41.492   4.332
67871W        W31430   5.808  28.514  13.416
67872W        W31431  34.435  26.114   0.405
67873W        W31432  15.744  25.005   5.087
67874W        W31433  15.208  41.843   3.837
67875W        W31434  38.985  43.442   3.205
67876W        W31435  23.020  23.653   3.343
67877W        W31436  37.948   6.383  10.957
67878W        W31437  23.009  20.135  12.003
67879W        W31438   1.925  13.108  11.421
67880W        W31439   2.288  14.221   4.765
67881W        W31440  29.136  20.727   3.806
67882W        W31441  39.941  33.965  12.846
67883W        W31442  22.718  39.983   0.819
67884W        W31443  13.212   5.848  14.510
67885W        W31444  24.135  35.567   2.302
67886W        W31445  28.184  38.037   3.825
67887W        W31446  13.615  19.538  14.371
67888W        W31447  11.781  31.040  11.892
67889W        W31448  24.591  27.063   0.882
67890W        W31449  33.524   6.876   3.301
67891W        W31450  12.691   4.878   4.174
67892W        W31451  42.850   2.780   4.722
67893W        W31452  16.159   9.350   3.651
67894W        W31453   2.261  25.017   2.788
67895W        W31454  30.652   0.307  12.397
67896W        W31455   6.843  27.519  14.973
67897W        W31456  40.326   4.315   0.733
67898W        W31457  35.994  13.178  11.399
67899W        W31458  19.168  42.844  10.644
67900W        W31459   3.227  11.361  13.982
67901W        W31460  18.706  33.893  11.513
67902W        W31461  23.669  15.087   4.313
67903W        W31462  40.872  28.121   0.250
67904W        W31463  19.572  39.980   3.147
67905W        W31464  32.931  32.543  14.785
67906W        W31465  22.042  22.547   2.899
67907W        W31466   1.476  23.221  11.971
67908W        W31467   9.763  21.171   1.725
67909W        W31468  43.298  15.709  10.929
67910W        W31469  18.266  24.568   1.364
67911W        W31470  40.448   9.159   0.401
67912W        W31471  37.356  13.698   4.141
67913W        W31472   8.169  23.503  10.888
67914W        W31473   8.792  21.057  11.902
67915W        W31474  19.651  11.356   4.156
67916W        W31475   6.798  43.497   2.820
67917W        W31476   2.900  34.889  11.991
67918W        W31477   0.297   0.864   3.870
67919W        W31478   6.819   5.329  12.493
67920W        W31479  11.835  33.382   4.808
67921W        W31480  14.178  44.818   4.161
67922W        W31481  32.516   5.824  14.452
67923W        W31482  33.384  17.721  12.000
67924W        W31483   3.323  30.081  12.353
67925W        W31484  29.534   7.708  10.546
67926W        W31485  15.273  10.242  10.969
67927W        W31486  24.187   3.230  10.535
67928W        W31487  24.220  15.195   0.374
67929W        W31488  44.861   3.945   1.304
67930W        W31489  22.647  17.644   4.217
67931W        W31490   8.758  43.784   0.753
67932W        W31491  22.702  15.312  13.928
67933W        W31492  10.765  17.636   0.297
67934W        W31493  43.444  29.971  10.439
67935W        W31494  42.866   4.407   4.615
67936W        W31495  28.454  41.012   1.426
67937W        W31496  16.244  19.569   4.813
67938W        W31497  36.006  39.397  10.538
67939W        W31498  19.114   0.919  13.413
67940W        W31499  14.164  38.428  13.959
67941W        W31500  16.083  44.762  14.954
67942W        W31501  38.496   6.218  14.446
67943W        W31502  26.606  18.785  10.623
67944W        W31503  36.054  12.265  10.080
67945W        W31504  25.467  25.139  10.404
67946W        W31505   1.434  16.744  12.410
67947W        W31506  18.222   7.895   3.712
67948W        W31507  27.175  32.445  11.995
67949W        W31508  10.717  33.007  11.927
67950W        W31509  30.421  27.654  14.952
67951W        W31510  16.121  33.032  14.847
67952W        W31511  38.003  28.066  12.545
67953W        W31512  35.963  28.602   4.255
67954W        W31513   0.377  22.038  13.951
67955W        W31514  32.973  34.440  13.467
67956W        W31515  18.677  22.026   2.902
67957W        W31516  33.016  29.976  14.376
67958W        W31517  20.208  19.740   0.828
67959W        W31518  19.101  42.387  10.614
67960W        W31519  26.609  29.032  12.988
67961W        W31520  15.705  38.412   1.771
67962W        W31521  43.350  11.283   2.890
67963W        W31522  14.230  36.956  10.560
67964W        W31523  27.943  17.101   5.299
67965W        W31524  41.475   0.330   3.311
67966W        W31525  13.345  38.336   1.422
67967W        W31526  15.662  16.663   3.163
67968W        W31527  25.623  10.240   1.312
67969W        W31528  34.065   2.310   3.671
67970W        W31529  13.810  39.809  10.976
67971W        W31530   6.287  31.423   1.704
67972W        W31531  14.812  32.921  13.401
67973W        W31532   1.250  24.204  11.549
67974W        W31533  33.521  17.752  14.313
67975W        W31534  44.813  41.382   4.724
67976W        W31535  31.006  34.496   2.338
67977W        W31536   1.938  10.224  12.568
67978W        W31537  42.032   0.872   0.418
67979W        W31538  18.670  23.054   1.403
67980W        W31539   8.197   3.341   0.753
67981W        W31540  29.642  35.853   0.268
67982W        W31541   4.781  42.851   4.775
67983W        W31542  21.575   7.802  14.979
67984W        W31543  13.668   3.224  14.360
67985W        W31544  28.650  27.576   2.793
67986W        W31545  34.543  16.788  14.450
67987W        W31546   1.462  18.602   2.690
67988W        W31547  31.451  29.967   0.483
67989W        W31548   7.741  30.625  12.482
67990W        W31549  32.634  24.607  11.528
67991W        W31550   0.441  39.429  10.948
67992W        W31551  42.375  38.002  14.965
67993W        W31552  43.978  39.028   4.347
67994W        W31553  37.842   9.284   9.556
67995W        W31554   5.824  12.751   1.864
67996W        W31555  41.858  38.987   3.777
67997W        W31556   5.423  26.026  11.029
67998W        W31557  34.048  40.858  13.962
67999W        W31558  23.530  40.377   0.324
68000W        W31559  22.645  31.948   4.235
68001W        W31560   6.814  38.985   1.928
68002W        W31561  13.659  36.973  13.960
68003W        W31562  19.750  38.513   1.757
68004W        W31563   4.234  44.906   0.411
68005W        W31564  19.098  37.077   2.270
68006W        W31565  18.109  15.745   3.154
68007W        W31566  23.622  44.858  10.426
68008W        W31567  32.028  37.965  11.537
68009W        W31568  24.985  39.510   4.807
68010W        W31569  21.051   4.893   5.215
68011W        W31570  12.348   2.811   2.384
68012W        W31571  30.959  26.502   4.154
68013W        W31572  12.745   0.368   0.807
68014W        W31573  17.211  25.218  12.439
68015W        W31574  34.979  39.922   3.682
68016W        W31575  25.606   0.879  10.591
68017W        W31576   7.681  22.172  12.432
68018W        W31577   5.839  40.436   4.164
68019W        W31578   9.885  39.442  12.537
68020W        W31579  34.449   7.682  12.420
68021W        W31580  18.158  38.949  11.509
68022W        W31581  43.797   8.276  12.380
68023W        W31582   2.237  39.525  10.639
68024W        W31583  36.486  26.668   3.842
68025W        W31584  42.810  37.038  14.964
68026W        W31585  36.404  25.125  13.907
68027W        W31586  20.057  37.855   0.841
68028W        W31587  42.318  26.130  12.008
68029W        W31588   9.217   2.958   3.719
68030W        W31589  28.938  36.385  11.118
68031W        W31590   7.191  43.283   4.837
68032W        W31591   0.478  30.936  10.623
68033W        W31592  37.865   6.769   3.227
68034W        W31593  20.191  27.484  14.339
68035W        W31594  33.959  28.497   0.424
68036W        W31595   5.765   6.410  11.444
68037W        W31596  44.436  19.263  11.479
68038W        W31597  24.997   9.359   3.282
68039W        W31598   7.818   4.419  12.499
68040W        W31599  16.317  23.544  14.881
68041W        W31600  42.979  31.411  11.872
68042W        W31601  39.854   0.802   3.249
68043W        W31602  42.849  16.112   4.272
68044W        W31603  35.922  39.996   1.730
68045W        W31604   3.827  43.432  11.052
68046W        W31605  38.016   0.307  13.347
68047W        W31606  29.543  44.266  12.036
68048W        W31607  28.574  23.173   2.887
68049W        W31608   6.284  23.586  11.059
68050W        W31609  21.618  32.472   0.426
68051W        W31610  15.598  33.015  14.402
68052W        W31611  38.027   6.847   2.878
68053W        W31612  39.811  19.543   1.873
68054W        W31613   7.911  41.460  14.415
68055W        W31614  32.533  33.514  13.519
68056W        W31615   8.727  22.204  11.400
68057W        W31616  33.092  17.699  12.350
68058W        W31617  26.091  38.352  11.407
68059W        W31618  23.068  26.616   1.351
68060W        W31619  33.984  41.433   3.383
68061W        W31620  25.154  15.705  11.037
68062W        W31621   9.862  37.350  14.331
68063W        W31622   6.904  29.506  11.467
68064W        W31623  23.199  42.400   3.384
68065W        W31624  37.406  28.462  14.943
68066W        W31625   8.898   7.765   2.265
68067W        W31626  23.564  43.853  13.356
68068W        W31627  15.166   2.749   1.910
68069W        W31628  40.994   1.764  13.512
68070W        W31629  18.279  41.368   1.250
68071W        W31630  40.304   5.392  12.520
68072W        W31631  24.183  23.730   9.985
68073W        W31632  19.205   7.370   2.733
68074W        W31633  13.724  13.119  13.060
68075W        W31634   8.788  14.323   0.410
68076W        W31635  44.312  36.465  14.441
68077W        W31636  34.439  25.500  14.894
68078W        W31637  26.967  18.583  11.575
68079W        W31638  22.179  40.841  13.977
68080W        W31639  30.066  31.977   4.680
68081W        W31640   9.350  33.970  11.442
68082W        W31641  33.088  19.251   2.683
68083W        W31642  40.921  34.911   4.715
68084W        W31643  18.742   5.202   0.906
68085W        W31644  13.268   1.736   1.419
68086W        W31645  21.680  38.030   2.663
68087W        W31646  18.134  18.149   3.291
68088W        W31647   6.819  27.467  12.519
68089W        W31648   3.316  41.332  12.003
68090W        W31649  29.055  33.899   3.365
68091W        W31650  27.557  11.303   0.962
68092W        W31651  44.495  11.856  14.029
68093W        W31652  12.787   7.716   4.182
68094W        W31653  18.772   9.306  12.460
68095W        W31654  37.079  31.535   2.803
68096W        W31655  43.811  12.815  14.479
68097W        W31656  39.423  28.489   3.808
68098W        W31657  36.528  25.668  14.507
68099W        W31658   0.768  27.130  13.376
68100W        W31659  14.698  16.152  11.016
68101W        W31660  43.466  21.580  11.607
68102W        W31661  30.981  25.567  12.941
68103W        W31662  30.137   2.821   4.696
68104W        W31663   6.695  13.756   4.242
68105W        W31664  33.609   7.182   0.846
68106W        W31665   5.388  13.329  14.889
68107W        W31666  31.449  12.361   2.184
68108W        W31667  31.099   4.903   2.784
68109W        W31668  15.165  28.506  11.607
68110W        W31669  26.634   4.323   4.713
68111W        W31670  18.678  30.947  10.107
68112W        W31671  13.138  17.268   1.866
68113W        W31672  10.295   8.346  14.798
68114W        W31673  33.479  17.556   0.373
68115W        W31674  14.336  38.500  11.916
68116W        W31675  21.099  19.703   1.922
68117W        W31676  30.953  24.669  10.606
68118W        W31677  32.576   0.950   0.779
68119W        W31678  42.936   3.771  11.085
68120W        W31679  42.339  28.067  12.468
68121W        W31680  33.529  31.453   2.360
68122W        W31681  36.367  32.546   1.843
68123W        W31682   0.456  11.310   4.353
68124W        W31683  39.348  18.749   4.738
68125W        W31684   8.849  41.425  14.815
68126W        W31685  37.837  44.885   0.442
68127W        W31686   0.257   5.759   2.774
68128W        W31687  42.418  39.868   0.909
68129W        W31688  16.094  40.888  13.356
68130W        W31689   3.755  10.732   1.308
68131W        W31690  23.563  19.214   4.290
68132W        W31691  44.919  43.367  12.038
68133W        W31692  18.637  34.526   1.788
68134W        W31693  29.085  16.777   2.748
68135W        W31694  33.881  42.936   2.770
68136W        W31695   4.914   5.781  10.574
68137W        W31696  27.666  24.634   5.603
68138W        W31697  43.829  10.711   3.245
68139W        W31698   4.825  41.353   4.754
68140W        W31699  35.476  25.694   4.312
68141W        W31700   5.739  34.892   1.929
68142W        W31701   5.238  13.140  12.571
68143W        W31702  42.898   9.793  13.398
68144W        W31703  11.808  21.165  10.447
68145W        W31704   3.796  30.044   4.734
68146W        W31705   4.816  41.407   2.263
68147W        W31706   9.787  33.392  14.418
68148W        W31707   4.833  32.973   0.392
68149W        W31708  32.626  10.358  11.609
68150W        W31709  33.511  26.070  12.002
68151W        W31710   0.860  11.160   1.220
68152W        W31711  37.578   8.818   2.275
68153W        W31712  36.097  14.212   0.731
68154W        W31713  33.535  27.588  10.939
68155W        W31714  37.980  33.502   3.760
68156W        W31715  20.100   4.323  13.446
68157W        W31716   8.166  16.153   2.402
68158W        W31717  27.109  15.154   0.298
68159W        W31718  24.529  22.029   9.437
68160W        W31719   9.361  29.035  10.581
68161W        W31720  43.002  38.561   4.688
68162W        W31721   8.763  13.124  11.919
68163W        W31722  27.012  30.927  14.799
68164W        W31723  18.183   9.675  11.464
68165W        W31724  28.119  35.039   4.759
68166W        W31725  15.707  25.467   9.650
68167W        W31726  43.933  28.458  13.987
68168W        W31727  37.550  44.872   2.869
68169W        W31728  37.894  19.064  11.943
68170W        W31729  44.999  23.116   1.907
68171W        W31730  37.002  34.592   0.259
68172W        W31731   4.388  34.121  10.581
68173W        W31732  27.446   0.327   3.353
68174W        W31733   9.648   3.216  12.072
68175W        W31734  40.392  15.273  11.508
68176W        W31735  14.211  34.040  13.973
68177W        W31736  28.940  23.494  11.966
68178W        W31737  19.211  11.254  13.892
68179W        W31738  18.654  24.561   3.176
68180W        W31739   3.379   3.444   3.633
68181W        W31740   0.283  24.689  12.488
68182W        W31741  43.014  18.556   5.264
68183W        W31742   8.188  33.496  10.897
68184W        W31743  14.167  19.698  14.852
68185W        W31744  38.035  10.234  10.056
68186W        W31745  40.422  29.150   2.296
68187W        W31746  28.638  34.514   2.362
68188W        W31747  10.156  14.306  12.890
68189W        W31748   3.723  19.259  12.567
68190W        W31749  13.306  16.594  13.836
68191W        W31750  26.980  13.690   0.407
68192W        W31751  24.176  34.952  13.493
68193W        W31752  33.043  15.708  12.465
68194W        W31753  36.355  43.414   2.821
68195W        W31754  17.714  21.128   3.217
68196W        W31755  21.180  37.909  10.972
68197W        W31756  34.040  17.078  14.974
68198W        W31757   0.454  34.432   0.849
68199W        W31758  29.581  22.672  11.998
68200W        W31759  31.422  19.098   3.788
68201W        W31760  12.333  35.876   3.207
68202W        W31761  24.132  34.008  12.911
68203W        W31762  13.183  28.493  14.777
68204W        W31763   6.219  27.038   1.753
68205W        W31764  37.976   9.266  13.380
68206W        W31765  29.972   5.751   4.750
68207W        W31766  39.500  18.146  10.579
68208W        W31767  17.677  35.099  10.895
68209W        W31768  34.949  26.184   4.188
68210W        W31769  24.145   2.335  13.399
68211W        W31770   0.924  27.965  10.148
68212W        W31771  21.256   6.332  12.930
68213W        W31772  20.709   1.472  14.999
68214W        W31773   0.270  31.566   3.240
68215W        W31774  11.164  19.062   3.330
68216W        W31775  34.010  43.496  11.969
68217W        W31776  15.678  17.111  12.931
68218W        W31777  35.868  41.537   4.642
68219W        W31778  13.302  35.864   5.262
68220W        W31779  40.797  24.002  11.075
68221W        W31780  12.792  12.159   1.384
68222W        W31781  17.564   3.878  14.884
68223W        W31782   8.360  10.240  10.957
68224W        W31783  31.974  30.017   4.733
68225W        W31784  26.027  10.310   1.785
68226W        W31785  10.159   8.863  12.400
68227W        W31786  27.136   0.986  11.416
68228W        W31787  38.514  34.368   3.168
68229W        W31788  10.256  43.273   0.899
68230W        W31789   1.434  15.643   1.879
68231W        W31790  36.975  28.623   2.894
68232W        W31791  42.867  36.472  11.567
68233W        W31792  39.338   8.878  11.971
68234W        W31793  27.035  44.898   3.286
68235W        W31794  28.081  13.615   2.244
68236W        W31795  11.842  16.228  11.400
68237W        W31796  16.576  37.019   0.244
68238W        W31797  43.363   4.817  12.912
68239W        W31798   8.328  28.074   3.850
68240W        W31799  26.507  20.613   4.114
68241W        W31800  12.668  35.007   4.197
68242W        W31801  36.889  42.413   1.772
68243W        W31802  36.506  42.838   2.372
68244W        W31803  29.037  10.782  10.548
68245W        W31804  11.230  14.617   0.442
68246W        W31805   4.288  11.141  13.488
68247W        W31806  21.618   0.958  10.571
68248W        W31807  33.995  14.764  14.828
68249W        W31808  18.719  17.193   9.932
68250W        W31809  16.075   3.279  11.019
68251W        W31810  10.644  18.185   4.701
68252W        W31811  42.023  37.987   3.653
68253W        W31812  12.167  27.556  10.501
68254W        W31813  15.271  10.724   2.789
68255W        W31814  18.158  39.885  12.537
68256W        W31815  26.954  39.450   4.687
68257W        W31816  28.972  14.718   1.255
68258W        W31817  26.617  13.663   1.385
68259W        W31818  13.608  19.242   0.281
68260W        W31819  10.213  43.966  12.434
68261W        W31820  30.494  21.134   2.762
68262W        W31821   0.863   2.264   3.221
68263W        W31822   2.741  11.630  10.504
68264W        W31823  20.075  19.765  11.504
68265W        W31824  31.491  44.851   2.308
68266W        W31825  24.590  23.167  10.574
68267W        W31826  25.559  11.800  11.496
68268W        W31827  13.601   8.793  14.322
68269W        W31828  34.547  39.024  11.568
68270W        W31829  28.071   0.258   3.737
68271W        W31830  36.523  18.624   4.773
68272W        W31831  44.824  19.105  14.986
68273W        W31832  28.656   0.861   3.759
68274W        W31833  29.493  42.993  13.012
68275W        W31834  16.250  14.591   2.195
68276W        W31835  38.517   2.388   3.832
68277W        W31836  38.425  13.684  11.107
68278W        W31837  40.914  40.398   4.634
68279W        W31838  24.059  36.914   0.786
68280W        W31839  27.013   3.433   3.760
68281W        W31840  28.493  39.978  12.920
68282W        W31841  40.904  32.589  11.605
68283W        W31842  26.648  34.030   2.185
68284W        W31843  39.513  16.114   2.396
68285W        W31844  17.628  27.106  14.894
68286W        W31845  20.232  29.136  14.765
68287W        W31846  12.808  24.616   2.397
68288W        W31847  14.799   1.745  14.364
68289W        W31848  30.049  24.661   1.286
68290W        W31849  22.737  31.597  10.549
68291W        W31850  15.139   5.925  14.380
68292W        W31851   1.884  42.885   2.193
68293W        W31852   8.781  11.818  13.341
68294W        W31853  19.283  13.119   3.741
68295W        W31854  34.560  37.462  14.018
68296W        W31855  40.016  31.121  11.008
68297W        W31856  20.633  24.165  13.431
68298W        W31857  15.239   2.807   0.944
68299W        W31858  21.687   5.711  13.033
68300W        W31859  13.322  30.606  10.980
68301W        W31860  38.467  38.433   0.276
68302W        W31861  41.448  35.593   4.603
68303W        W31862  18.106   2.919  14.773
68304W        W31863  27.973   5.903  13.916
68305W        W31864  16.743  36.528   4.154
68306W        W31865  21.108  18.609   4.637
68307W        W31866  44.322  23.199  11.410
68308W        W31867  30.992  31.512  14.435
68309W        W31868  36.382  16.253   2.202
68310W        W31869  30.930  10.674  10.418
68311W        W31870  18.117  43.891  14.468
68312W        W31871  27.958  38.568  12.560
68313W        W31872  29.996  34.050  11.384
68314W        W31873  31.997  38.931   1.344
68315W        W31874  14.620  29.017   1.213
68316W        W31875  35.054  20.120   3.662
68317W        W31876  29.558  21.609  11.542
68318W        W31877  15.612  27.535   4.315
68319W        W31878  20.141  36.963   3.220
68320W        W31879  30.508  39.006  10.977
68321W        W31880  10.790  36.959  11.442
68322W        W31881  17.122  32.626  13.886
68323W        W31882  44.849   2.948   3.793
68324W        W31883   0.388  11.860   0.468
68325W        W31884  22.663  23.521   5.119
68326W        W31885  34.533  24.701  11.549
68327W        W31886  28.124   5.282  14.305
68328W        W31887  28.069   8.350   3.285
68329W        W31888  22.547  17.601   0.948
68330W        W31889  15.193  44.853  12.853
68331W        W31890  22.539  22.561   0.862
68332W        W31891  41.317  12.628   4.731
68333W        W31892  42.986   0.794   4.284
68334W        W31893   8.747   6.244   5.237
68335W        W31894  33.430  28.656   2.671
68336W        W31895  41.946  29.562  13.823
68337W        W31896   4.215  11.127  14.362
68338W        W31897  11.729  41.467  12.824
68339W        W31898  30.093  19.039   0.269
68340W        W31899  28.480  32.499  14.983
68341W        W31900  36.060  17.103  12.548
68342W        W31901  27.184  29.553   0.869
68343W        W31902  38.901  41.454   2.265
68344W        W31903  33.028  18.231   0.253
68345W        W31904  42.884   5.900   2.415
68346W        W31905   9.299  23.986  14.859
68347W        W31906  19.628   8.173  13.318
68348W        W31907   6.789  26.502   3.869
68349W        W31908  26.579  21.597   2.769
68350W        W31909  18.667  32.906  12.574
68351W        W31910  26.040  20.040   4.212
68352W        W31911   9.813  14.328   0.869
68353W        W31912  36.004  34.486  12.478
68354W        W31913  32.395   9.262   2.674
68355W        W31914  19.166  20.143  13.008
68356W        W31915  32.119  22.159   0.318
68357W        W31916  28.626   8.372  12.934
68358W        W31917  13.231  18.575   2.843
68359W        W31918   7.695  10.298  13.015
68360W        W31919  10.304  19.719  13.395
68361W        W31920  30.582  15.807   5.207
68362W        W31921  21.086  37.940  13.043
68363W        W31922  38.867  30.454  10.530
68364W        W31923  12.642  11.278  14.362
68365W        W31924   8.732  42.410   3.774
68366W        W31925  11.323  23.734   4.816
68367W        W31926  35.547  44.334   2.286
68368W        W31927  16.136  17.146  14.924
68369W        W31928  37.953  11.749   1.443
68370W        W31929   4.901  20.072  12.351
68371W        W31930  38.843  44.846  11.407
68372W        W31931  25.031  25.212   1.244
68373W        W31932  21.626  13.635   0.378
68374W        W31933   0.261   6.718   2.857
68375W        W31934   1.478  18.211   0.848
68376W        W31935  40.389   7.794  10.992
68377W        W31936  14.185  17.557   1.414
68378W        W31937  12.800  12.684   9.501
68379W        W31938  23.189   5.352  14.029
68380W        W31939   3.318   8.897  12.877
68381W        W31940  36.881  27.165   1.763
68382W        W31941  21.558  23.510  10.945
68383W        W31942  25.687  27.514  12.854
68384W        W31943  17.691  28.183  11.056
68385W        W31944  40.882  30.145  13.060
68386W        W31945  44.459  41.352  13.962
68387W        W31946  33.001  20.178   0.845
68388W        W31947  14.651  33.505  12.423
68389W        W31948   9.299  13.770   1.815
68390W        W31949  23.703  13.171  12.897
68391W        W31950  32.984  22.231  11.057
68392W        W31951  34.548  27.655   2.859
68393W        W31952  19.611  44.423   1.901
68394W        W31953  22.650  37.548  14.483
68395W        W31954   8.277  36.998   4.116
68396W        W31955  38.566  23.717   2.183
68397W        W31956  38.880  32.610  11.575
68398W        W31957  12.122  38.976   4.710
68399W        W31958  30.618  17.638   1.291
68400W        W31959  41.317  12.682  11.419
68401W        W31960  30.585   2.427   0.815
68402W        W31961  42.329   6.683  10.968
68403W        W31962  31.957  38.397   2.240
68404W        W31963  36.441   8.748   1.719
68405W        W31964  21.115  33.478   4.142
68406W        W31965  38.819  33.989   5.210
68407W        W31966  26.104  14.219  14.834
68408W        W31967  43.809  41.926  13.414
68409W        W31968  10.363  31.489  13.436
68410W        W31969  38.059  17.243  14.509
68411W        W31970  36.487  44.363   3.145
68412W        W31971  19.564  43.486  10.557
68413W        W31972   4.236  31.525  13.541
68414W        W31973  37.028   5.891  14.968
68415W        W31974   0.881   9.174  14.804
68416W        W31975  18.681  23.575   0.448
68417W        W31976  22.246  41.872  11.958
68418W        W31977  11.322  43.957  11.426
68419W        W31978  30.421  12.146  12.410
68420W        W31979  13.709  30.568   0.278
68421W        W31980  27.552  13.831   0.908
68422W        W31981   6.227  25.189   0.899
68423W        W31982   0.294  41.008  14.856
68424W        W31983  33.053  37.025  11.514
68425W        W31984  35.035  23.031   1.436
68426W        W31985   6.697  14.240  10.644
68427W        W31986  16.715  36.863   3.310
68428W        W31987  18.658   1.442  13.980
68429W        W31988   1.333   5.883   2.324
68430W        W31989  38.031  22.077  14.880
68431W        W31990  32.983  19.087   1.754
68432W        W31991   6.824  17.577  11.391
68433W        W31992   3.859  19.064   4.340
68434W        W31993   4.941  27.515   9.992
68435W        W31994   7.806  22.213  14.367
68436W        W31995  13.735   3.772   0.919
68437W        W31996   2.777  27.006  13.802
68438W        W31997  40.942  23.200   3.673
68439W        W31998  36.446  12.211   3.846
68440W        W31999  44.900  24.568   3.802
68441W        W32000   7.806   0.955  12.871
68442W        W32001  39.337  34.587  13.048
68443W        W32002  34.049  41.343   5.628
68444W        W32003   4.284   0.813  10.899
68445W        W32004  43.316  29.077   4.819
68446W        W32005  10.183  15.691  14.896
68447W        W32006  15.603  19.084   4.116
68448W        W32007  39.869  32.469  10.637
68449W        W32008  19.778   1.777  10.507
68450W        W32009  16.629  20.677  13.460
68451W        W32010   5.845  11.200   4.835
68452W        W32011  17.074  32.100  10.000
68453W        W32012  33.127  27.620   3.196
68454W        W32013  36.076  38.331  11.105
68455W        W32014   7.784  40.888   0.410
68456W        W32015   2.389   7.286  14.481
68457W        W32016   1.476  31.610  12.526
68458W        W32017  10.762  19.680   5.239
68459W        W32018  33.395  36.514  12.498
68460W        W32019  16.617   2.239  12.980
68461W        W32020  25.986  20.711   9.642
68462W        W32021  28.523  12.283   1.764
68463W        W32022  42.396  29.974  11.383
68464W        W32023   7.339   2.371  12.933
68465W        W32024  29.563  15.134   3.778
68466W        W32025  28.100  43.507   1.271
68467W        W32026  22.572  27.563   1.362
68468W        W32027  44.982  39.546  11.514
68469W        W32028   9.804  44.929  13.411
68470W        W32029  35.473  36.014   2.698
68471W        W32030   3.887  26.176   4.318
68472W        W32031  44.461  31.633   1.731
68473W        W32032  39.046  29.146   4.700
68474W        W32033  21.556  36.849  13.466
68475W        W32034  18.554  35.483   0.246
68476W        W32035  17.791  38.899   3.714
68477W        W32036  38.501  42.366  10.496
68478W        W32037  34.474  39.813  12.453
68479W        W32038   2.238  12.231   4.310
68480W        W32039  37.508  22.072  13.511
68481W        W32040  20.234  17.770   1.722
68482W        W32041  35.878  38.524  11.867
68483W        W32042  16.297  24.507  12.548
68484W        W32043  23.653  17.692  10.899
68485W        W32044  26.154  36.858   0.252
68486W        W32045  39.887  36.852   3.736
68487W        W32046  28.150  37.551   4.833
68488W        W32047  15.195  33.113  13.499
68489W        W32048  13.214   9.760  12.430
68490W        W32049   9.365  17.282   4.692
68491W        W32050  42.329  36.925   2.231
68492W        W32051  24.066  32.577  14.291
68493W        W32052  22.561  10.226   3.803
68494W        W32053   3.358  28.186   4.230
68495W        W32054  11.316  15.170  13.521
68496W        W32055  13.692  25.174  14.825
68497W        W32056   1.758  32.421  12.061
68498W        W32057   7.710   1.349   3.804
68499W        W32058  21.610  17.263  14.031
68500W        W32059  11.643   6.224   3.869
68501W        W32060  15.711   0.905  13.798
68502W        W32061  39.907   4.335   0.361
68503W        W32062   0.418  10.660   1.385
68504W        W32063  20.626   5.764   4.220
68505W        W32064  28.129  40.530   4.764
68506W        W32065  22.125  34.573   4.165
68507W        W32066  28.103  44.423   4.697
68508W        W32067   7.797  27.579  12.850
68509W        W32068  43.336  36.500  10.549
68510W        W32069   3.284  17.652   2.231
68511W        W32070  15.662  17.299   3.204
68512W        W32071  42.000  36.445   2.260
68513W        W32072  29.665  44.482  12.925
68514W        W32073  12.188   5.264  14.774
68515W        W32074  34.877   0.437   1.879
68516W        W32075  43.329  35.409   0.276
68517W        W32076  10.216  30.031   4.610
68518W        W32077  11.301  20.202  14.766
68519W        W32078   8.384  36.523   3.698
68520W        W32079  31.071  20.768  12.885
68521W        W32080   2.932  41.391   4.741
68522W        W32081   1.328  27.000  10.905
68523W        W32082  33.974  42.508   3.661
68524W        W32083   6.385  35.024   2.885
68525W        W32084   8.383   4.708  10.503
68526W        W32085   5.895  39.447   3.777
68527W        W32086  28.676  17.643  14.993
68528W        W32087   7.727  33.547   0.750
68529W        W32088  19.181   7.888  11.906
68530W        W32089  44.288  10.262  10.568
68531W        W32090  23.586  31.419   0.888
68532W        W32091   6.718   9.208   0.354
68533W        W32092  34.955  20.541  11.977
68534W        W32093  28.639   6.823  10.580
68535W        W32094  20.057   1.413  10.936
68536W        W32095  27.619  43.785   4.343
68537W        W32096  34.466  41.516  13.030
68538W        W32097   8.787  20.639   0.483
68539W        W32098  11.167   0.368  13.804
68540W        W32099  25.176  25.578   2.888
68541W        W32100   3.393  34.942  12.427
68542W        W32101  22.234  15.093  12.447
68543W        W32102  14.765  29.925  14.813
68544W        W32103  15.120   1.470  12.992
68545W        W32104  10.745  28.485   0.861
68546W        W32105  13.809   4.740  14.478
68547W        W32106  21.182  39.343   3.853
68548W        W32107  13.313  21.141   9.616
68549W        W32108  44.975  18.145  11.969
68550W        W32109  16.650  26.552  14.400
68551W        W32110   2.403  15.686   3.191
68552W        W32111  38.958  21.549   0.914
68553W        W32112   3.378  10.295   1.300
68554W        W32113  31.994  13.660   1.871
68555W        W32114   3.788  10.350   1.787
68556W        W32115  23.720   3.225  11.422
68557W        W32116  35.057   0.290   4.154
68558W        W32117  33.620   8.356  12.507
68559W        W32118  27.677  27.028   1.859
68560W        W32119  14.223   1.388  12.578
68561W        W32120  42.794  24.678   4.231
68562W        W32121   9.813  15.093   0.348
68563W        W32122  36.897  43.275  13.401
68564W        W32123  44.893  38.466   3.357
68565W        W32124  43.366  36.361   1.753
68566W        W32125   1.471  17.647   2.188
68567W        W32126  25.031  38.032   4.216
68568W        W32127  18.702   8.333  14.793
68569W        W32128  21.566  34.431  13.363
68570W        W32129  22.682   2.739  10.057
68571W        W32130  40.971  38.495  11.957
68572W        W32131  41.509  42.899  14.366
68573W        W32132  11.833   5.823   1.226
68574W        W32133  15.705  14.095  10.544
68575W        W32134  34.002  22.661   2.903
68576W        W32135   5.841  29.076  14.331
68577W        W32136  43.356   0.308  12.015
68578W        W32137   7.211  21.604  14.332
68579W        W32138   6.810   4.384   1.218
68580W        W32139  28.096  11.145  12.927
68581W        W32140  21.252   5.835   0.478
68582W        W32141  43.495  37.523  14.959
68583W        W32142  16.590   1.899  14.974
68584W        W32143  42.282  15.213  13.915
68585W        W32144  13.220  37.574   0.447
68586W        W32145  34.574  38.940  14.974
68587W        W32146  13.350   9.648  12.971
68588W        W32147   7.775  40.390   0.259
68589W        W32148  36.019  38.059  11.872
68590W        W32149  39.008  39.471   0.781
68591W        W32150   9.307  31.975   3.198
68592W        W32151  43.477  22.718   3.306
68593W        W32152   5.790  21.020   3.650
68594W        W32153  23.999  18.250  10.566
68595W        W32154  19.163   3.378  12.403
68596W        W32155  34.490  16.123   4.833
68597W        W32156  13.196   5.767   9.929
68598W        W32157  10.234  30.420   2.321
68599W        W32158  38.519  30.612  11.375
68600W        W32159  20.243  20.741   3.797
68601W        W32160  27.022  15.112  13.424
68602W        W32161   3.835   0.357  11.387
68603W        W32162  10.653  31.541  12.557
68604W        W32163  29.627  25.198   5.187
68605W        W32164   4.871   9.212  14.946
68606W        W32165  29.032  21.657   0.252
68607W        W32166  43.988  43.336  12.484
68608W        W32167   2.752  17.583   1.225
68609W        W32168  24.042  30.518  11.916
68610W        W32169  44.461  28.445   4.354
68611W        W32170  21.645  10.248  13.361
68612W        W32171  24.112   6.339  12.538
68613W        W32172  37.997  19.161   3.696
68614W        W32173  32.564   2.421  14.279
68615W        W32174  35.372  11.314   4.318
68616W        W32175  22.107  21.735  10.624
68617W        W32176   1.774  24.983   4.139
68618W        W32177  21.040  15.304  14.294
68619W        W32178  32.048  41.797   1.702
68620W        W32179  38.567  17.615  12.508
68621W        W32180  31.939   4.345   2.664
68622W        W32181  31.481  30.089   0.905
68623W        W32182  41.400   8.888   3.171
68624W        W32183  21.533  35.599   1.380
68625W        W32184  42.860  33.116   4.352
68626W        W32185  12.662  42.441  12.081
68627W        W32186  12.848  39.375  13.457
68628W        W32187  13.327  13.681   3.736
68629W        W32188  30.506   6.755   2.801
68630W        W32189  16.801   8.792  10.110
68631W        W32190  17.102  32.443  12.420
68632W        W32191   8.897  35.925  13.454
68633W        W32192  28.664  25.497   2.310
68634W        W32193  38.834  23.066  10.965
68635W        W32194  23.720  11.191  12.926
68636W        W32195  23.156  23.569   2.343
68637W        W32196  44.851  23.087  10.621
68638W        W32197  20.601  41.879  11.095
68639W        W32198  33.581  36.351  14.797
68640W        W32199  14.309  43.480   4.828
68641W        W32200  13.738   2.461   2.903
68642W        W32201  42.010  28.078  12.969
68643W        W32202   6.246  25.024   4.808
68644W        W32203  42.972  10.203   4.629
68645W        W32204  30.104  10.254  14.807
68646W        W32205  42.833  38.562  12.513
68647W        W32206  11.867   6.297  12.571
68648W        W32207  10.275  31.144   2.244
68649W        W32208  28.555  11.696   1.309
68650W        W32209  32.085  25.560   0.733
68651W        W32210  24.480  16.298  11.596
68652W        W32211  28.154   0.885  13.915
68653W        W32212  31.136  21.522   0.851
68654W        W32213  11.217   4.840  14.995
68655W        W32214  13.184  22.174   3.780
68656W        W32215  24.706  39.945  11.088
68657W        W32216  41.359  20.241   3.259
68658W        W32217  17.131  30.442   0.275
68659W        W32218  25.977  30.618   1.346
68660W        W32219  17.636  10.353   0.908
68661W        W32220  37.460   3.896   0.274
68662W        W32221  14.693  16.690   4.703
68663W        W32222   6.918  43.974   4.119
68664W        W32223  28.081   0.368   1.229
68665W        W32224  18.750   3.273   1.872
68666W        W32225  42.376   3.900   2.702
68667W        W32226  25.585  44.331  13.874
68668W        W32227  35.901   3.745   3.646
68669W        W32228   7.889  25.676  10.413
68670W        W32229  29.478  35.430   4.244
68671W        W32230   3.219  27.045   4.709
68672W        W32231  16.697  14.671   3.691
68673W        W32232  20.141  39.020   0.773
68674W        W32233  13.179  25.645  12.873
68675W        W32234  10.309  34.889  10.897
68676W        W32235   2.304  42.998  13.308
68677W        W32236  40.320  24.096  12.972
68678W        W32237   9.713  36.388   0.834
68679W        W32238   4.248  44.398  10.645
68680W        W32239  37.390  37.431  12.551
68681W        W32240  34.101  33.917  11.930
68682W        W32241  10.700  23.092   1.854
68683W        W32242  34.070  12.694   4.340
68684W        W32243  12.321  42.316  10.405
68685W        W32244  34.424   4.419  12.380
68686W        W32245   7.308  12.117   1.287
68687W        W32246  16.267  24.218  10.143
68688W        W32247  31.579  22.558   4.299
68689W        W32248  31.431   6.875   2.348
68690W        W32249  10.330  27.069   2.785
68691W        W32250  13.784  11.176  12.084
68692W        W32251  32.552  12.345  11.547
68693W        W32252  26.480  10.749   0.401
68694W        W32253  11.267   8.737   4.750
68695W        W32254   1.332  21.119  10.498
68696W        W32255   3.299   7.356  10.926
68697W        W32256   1.764  28.634  11.928
68698W        W32257   7.694  11.814  13.348
68699W        W32258  35.092  44.753  12.081
68700W        W32259  40.492   8.798  10.517
68701W        W32260  24.582  40.321   1.271
68702W        W32261  44.482  19.619  11.551
68703W        W32262  35.900  17.298   3.181
68704W        W32263  25.531  26.955   2.832
68705W        W32264  40.471  14.765  11.378
68706W        W32265  40.042  21.250   0.854
68707W        W32266  30.034   0.377  12.481
68708W        W32267  24.643  25.164   1.295
68709W        W32268  30.511   9.683   0.262
68710W        W32269  38.527  22.665   1.895
68711W        W32270  12.782   5.320   3.239
68712W        W32271  35.398  27.958   3.153
68713W        W32272  40.958  33.538  10.559
68714W        W32273   0.493  31.969  12.076
68715W        W32274  17.099  17.259   3.664
68716W        W32275  14.124   0.976   2.372
68717W        W32276   1.861   3.250  14.844
68718W        W32277  11.302  34.407   5.141
68719W        W32278   3.880  24.674  10.547
68720W        W32279   7.883   0.817   0.425
68721W        W32280  18.246   3.217   4.786
68722W        W32281  38.888  27.942  13.528
68723W        W32282  39.402  37.523   0.821
68724W        W32283   8.390  13.312  11.030
68725W        W32284  11.657  17.575  10.918
68726W        W32285  23.496  27.592   3.804
68727W        W32286  35.396  25.569   4.727
68728W        W32287  44.951  20.656  12.549
68729W        W32288   3.891  31.541   4.325
68730W        W32289  25.159  10.717  10.639
68731W        W32290  27.989  44.370  11.412
68732W        W32291  24.611  33.929  12.560
68733W        W32292  40.490  26.978  10.903
68734W        W32293  37.923  32.454   3.151
68735W        W32294  25.003  41.477  12.437
68736W        W32295  29.662  32.887  12.911
68737W        W32296   6.789  25.469   3.773
68738W        W32297  25.579  28.178   4.156
68739W        W32298  15.323  42.443  14.299
68740W        W32299  37.368  40.883   3.313
68741W        W32300  18.096  36.845  12.548
68742W        W32301  36.874   5.871  13.898
68743W        W32302  27.476  33.009  11.081
68744W        W32303  27.588  11.274   5.749
68745W        W32304   7.175  41.972  14.364
68746W        W32305  37.414  13.676  14.463
68747W        W32306   9.858  36.582   1.273
68748W        W32307  29.147  12.124   4.118
68749W        W32308   1.414  31.132  13.367
68750W        W32309   3.292  43.930   2.724
68751W        W32310   0.921   8.822  14.968
68752W        W32311  17.166  21.254  12.847
68753W        W32312  17.781  28.560  12.547
68754W        W32313   7.800  44.465  12.990
68755W        W32314  43.370   7.876  10.440
68756W        W32315   5.901  26.623   4.205
68757W        W32316  19.679  33.904   3.773
68758W        W32317  12.137  24.547   0.806
68759W        W32318  13.818  18.281  12.450
68760W        W32319  19.577  27.015   1.310
68761W        W32320  18.210  21.201   0.954
68762W        W32321  16.638  43.438   1.846
68763W        W32322   7.266  22.112   1.223
68764W        W32323  43.791   3.298  11.926
68765W        W32324   3.760  42.422   2.882
68766W        W32325  24.076  23.132   3.308
68767W        W32326   6.776  31.456   4.286
68768W        W32327  17.742  16.152  11.928
68769W        W32328  22.064  40.351   1.854
68770W        W32329  23.995  23.566  13.384
68771W        W32330  18.578  30.551  13.997
68772W        W32331  25.145   4.782  13.430
68773W        W32332  14.302  33.430   0.343
68774W        W32333  26.697  10.692   3.713
68775W        W32334  26.084  13.172   0.458
68776W        W32335  17.563  37.059  10.937
68777W        W32336   8.688  14.180  11.600
68778W        W32337  15.752  28.505  11.932
68779W        W32338   3.828  43.830   1.301
68780W        W32339   2.896  26.641  12.011
68781W        W32340   1.880   0.908   0.941
68782W        W32341  18.072  38.915   4.143
68783W        W32342  22.694  21.066  10.418
68784W        W32343  14.255   3.251   1.277
68785W        W32344  15.794   5.266   2.343
68786W        W32345  32.572   3.276   2.891
68787W        W32346  15.801  26.635   0.425
68788W        W32347   6.780  20.547  10.968
68789W        W32348  23.567  18.635  14.772
68790W        W32349  31.645   7.320  12.456
68791W        W32350  38.061  42.027   3.282
68792W        W32351  41.419  40.367   0.748
68793W        W32352   6.246  44.500  10.635
68794W        W32353  35.359  40.798  10.988
68795W        W32354   4.283  16.790  11.492
68796W        W32355  42.485  33.441   2.732
68797W        W32356  13.631  43.492  11.037
68798W        W32357  39.494   8.728   0.860
68799W        W32358   3.252   3.257  13.308
68800W        W32359  15.661   6.789   3.838
68801W        W32360  27.589  44.760   1.735
68802W        W32361  12.341  15.584  10.054
68803W        W32362  17.139  42.927  11.569
68804W        W32363  16.751  24.544  11.574
68805W        W32364  40.422  13.141   0.277
68806W        W32365   1.336  37.556  12.523
68807W        W32366  34.981  17.108  13.380
68808W        W32367  35.098   0.471   2.321
68809W        W32368  42.886   9.733   2.772
68810W        W32369  25.687   4.826   2.230
68811W        W32370  39.507  21.226  10.095
68812W        W32371  12.662  23.174   1.312
68813W        W32372  14.666  38.843  11.418
68814W        W32373  34.548   2.265  10.960
68815W        W32374   4.397  40.048  10.981
68816W        W32375  43.838  25.109  11.992
68817W        W32376  32.913  36.999   3.336
68818W        W32377  23.730  10.857   3.683
68819W        W32378   2.370   1.293  13.826
68820W        W32379  16.808   8.372   1.371
68821W        W32380  11.171  17.165   1.911
68822W        W32381  32.623  19.117  10.433
68823W        W32382  13.277  13.116  10.538
68824W        W32383  33.527  27.659  12.871
68825W        W32384  24.636  27.074  11.499
68826W        W32385   1.755  13.648   0.250
68827W        W32386   6.358   9.809  12.493
68828W        W32387   2.265  17.658   4.260
68829W        W32388  13.765  30.975  10.615
68830W        W32389   4.796  38.389  14.280
68831W        W32390  42.978  31.634   2.402
68832W        W32391   5.758   5.790  12.476
68833W        W32392   7.882  12.802   4.768
68834W        W32393  14.341  11.853  12.360
68835W        W32394  39.892   4.391  12.368
68836W        W32395  23.153  30.039  12.881
68837W        W32396  37.549   5.854   4.273
68838W        W32397  39.894  31.898   1.812
68839W        W32398   3.418  42.984  10.887
68840W        W32399  18.273  25.679   1.272
68841W        W32400  29.005   5.201  14.392
68842W        W32401  30.450  15.259   3.301
68843W        W32402  19.062  10.171   4.808
68844W        W32403  14.698  36.365   0.376
68845W        W32404  30.604  10.714  14.789
68846W        W32405   1.854   8.693  13.534
68847W        W32406  24.159   9.391  14.809
68848W        W32407  42.325  35.880  13.533
68849W        W32408  13.660   5.706   2.748
68850W        W32409  43.431  18.102  14.498
68851W        W32410   1.332  15.237  11.029
68852W        W32411  10.381  40.834   1.900
68853W        W32412  13.806   0.422   3.824
68854W        W32413  27.537  12.288   2.270
68855W        W32414  22.680  24.214   3.741
68856W        W32415   3.798  35.496   2.233
68857W        W32416  28.680   7.231  12.833
68858W        W32417  13.246  39.880   2.200
68859W        W32418  12.159   9.857   4.341
68860W        W32419  39.348  41.021  11.041
68861W        W32420  10.183   7.179  11.540
68862W        W32421  21.739   2.852  11.077
68863W        W32422  26.139  10.823   0.471
68864W        W32423  27.176   1.909   4.313
68865W        W32424  42.959  10.303  10.053
68866W        W32425   3.885  14.680   1.830
68867W        W32426  15.580  35.415  14.911
68868W        W32427   1.939  37.419  12.878
68869W        W32428  12.328  22.189   1.783
68870W        W32429  19.659  13.159   4.610
68871W        W32430   7.259  36.540  11.561
68872W        W32431   1.966  18.779  10.956
68873W        W32432  13.700  41.497  12.550
68874W        W32433  10.854   5.923   3.822
68875W        W32434   1.429  13.319  10.460
68876W        W32435  42.817  41.338  14.417
68877W        W32436  11.625  13.830  11.453
68878W        W32437   2.239  33.424   3.300
68879W        W32438  16.623   6.869   2.743
68880W        W32439  41.423  21.751  10.453
68881W        W32440   2.328   8.376   3.277
68882W        W32441  22.028  29.083   0.744
68883W        W32442  39.538  37.567  11.597
68884W        W32443  38.546  37.461  12.573
68885W        W32444  11.161  30.932   0.398
68886W        W32445  39.824  42.940   3.663
68887W        W32446  34.038  27.075  13.515
68888W        W32447   5.264  17.185   2.722
68889W        W32448  11.190  26.183   1.337
68890W        W32449   9.825   2.887   1.435
68891W        W32450  13.207   0.905   2.805
68892W        W32451  37.483  32.462  11.422
68893W        W32452  19.274  26.609  10.540
68894W        W32453   8.214  44.441  13.910
68895W        W32454  20.203  25.980  12.011
68896W        W32455  28.934  26.468  14.334
68897W        W32456  41.007  19.043   3.181
68898W        W32457  27.105  43.883  13.870
68899W        W32458  27.052  15.581  10.020
68900W        W32459   4.878   5.214  11.076
68901W        W32460  12.267  37.482  13.942
68902W        W32461  14.225  29.149   3.230
68903W        W32462   2.908  35.086  10.526
68904W        W32463  32.484  39.390  14.006
68905W        W32464   4.763  40.945   1.723
68906W        W32465  25.993  10.696   1.931
68907W        W32466   1.801  11.836   3.355
68908W        W32467   7.675  30.603  13.922
68909W        W32468   1.404  35.430  10.574
68910W        W32469  31.618  38.481   4.189
68911W        W32470  44.427  38.973   4.339
68912W        W32471  16.705  18.609   1.844
68913W        W32472  36.528  17.285   4.154
68914W        W32473  25.086  29.633  12.986
68915W        W32474  21.197  14.737   1.371
68916W        W32475  28.989  20.150  14.821
68917W        W32476   8.243  25.080  12.940
68918W        W32477  13.782  12.805  14.325
68919W        W32478  36.389  38.037   3.698
68920W        W32479   3.764  26.167   4.653
68921W        W32480  33.901  19.549   1.926
68922W        W32481  44.926  13.777   1.867
68923W        W32482  32.434  38.965   1.773
68924W        W32483  37.927  28.084   1.258
68925W        W32484  33.875  35.462   2.820
68926W        W32485  18.114  20.062  13.516
68927W        W32486  31.996  13.676   3.806
68928W        W32487   3.347  43.989  10.902
68929W        W32488   0.950   7.358  13.048
68930W        W32489  31.508  39.410  13.903
68931W        W32490  12.177  27.687  14.429
68932W        W32491  12.706   5.807   2.388
68933W        W32492  36.914  20.747  14.325
68934W        W32493   7.809  22.572   1.788
68935W        W32494  14.249   9.258  14.013
68936W        W32495  23.222  26.666  10.623
68937W        W32496   5.404  24.654  13.339
68938W        W32497  37.421  17.709  14.421
68939W        W32498  24.666  34.960  12.083
68940W        W32499  25.593  22.531  12.032
68941W        W32500  15.142  18.582   0.248
68942W        W32501  21.148   5.839   3.270
68943W        W32502  19.748  17.669  11.085
68944W        W32503  18.080  32.622   2.410
68945W        W32504  18.080  13.179  14.803
68946W        W32505  41.991   0.407   2.233
68947W        W32506  16.151  31.454  10.510
68948W        W32507  33.048  16.121   2.276
68949W        W32508  39.320   0.834   9.935
68950W        W32509  34.455  38.507   5.739
68951W        W32510  40.813   6.761   2.882
68952W        W32511  11.674   1.404  14.478
68953W        W32512  38.564  34.470   1.447
68954W        W32513   6.885   5.714  12.420
68955W        W32514   7.190   2.396   2.191
68956W        W32515  21.628   0.299   0.758
68957W        W32516  20.072  11.688   3.211
68958W        W32517   7.376  18.183  13.847
68959W        W32518  44.388  15.600  14.889
68960W        W32519   9.154  33.571   1.258
68961W        W32520  18.056  38.455   3.754
68962W        W32521  38.563  13.114  14.832
68963W        W32522   2.381  16.091   2.747
68964W        W32523  44.000  37.439   0.936
68965W        W32524  38.898   4.437  14.875
68966W        W32525   5.308  25.575  12.346
68967W        W32526  15.137  19.719   4.747
68968W        W32527   3.437  17.615   1.357
68969W        W32528  41.966  24.987  14.467
68970W        W32529  26.703  29.470   0.753
68971W        W32530  40.962  42.509   4.618
68972W        W32531  10.151   0.779   2.699
68973W        W32532  31.055   8.279   4.151
68974W        W32533   7.222  15.095  12.823
68975W        W32534  17.652  12.835   1.786
68976W        W32535  42.844  12.282   2.184
68977W        W32536  12.739  17.284  10.414
68978W        W32537  14.763   9.742  12.967
68979W        W32538  30.533  20.608   4.312
68980W        W32539   4.910  10.684  10.975
68981W        W32540  11.740  21.072  14.851
68982W        W32541  42.495  37.081  10.918
68983W        W32542   1.408  30.415  11.025
68984W        W32543  25.635  12.351   3.658
68985W        W32544   0.460   2.441  11.607
68986W        W32545  29.466  35.548  14.309
68987W        W32546  14.692  17.230  10.411
68988W        W32547   3.232  28.466  12.389
68989W        W32548  17.751  28.010   2.183
68990W        W32549   8.726  28.182  12.999
68991W        W32550  35.422  33.122   5.673
68992W        W32551  20.085  33.050   4.154
68993W        W32552   4.758   6.209   2.394
68994W        W32553  24.003  24.613   1.893
68995W        W32554  35.085  33.480  12.565
68996W        W32555  41.451  11.301   3.683
68997W        W32556   5.397  14.824   4.247
68998W        W32557  17.225  12.239  14.348
68999W        W32558  39.419  20.764  14.467
69000W        W32559  19.224  42.806  14.502
69001W        W32560  41.492  43.331  13.997
69002W        W32561   7.208  20.131  12.346
69003W        W32562  13.207  43.789  14.514
69004W        W32563   6.754  43.936   0.420
69005W        W32564  41.873  37.541   2.813
69006W        W32565   6.790  42.325   3.384
69007W        W32566  18.072  32.935  11.469
69008W        W32567  13.289  44.279   1.859
69009W        W32568   1.873   0.900  13.794
69010W        W32569  11.696   4.799  10.006
69011W        W32570  20.708  43.427  14.919
69012W        W32571  41.440  38.556  11.074
69013W        W32572   0.447  44.964  13.461
69014W        W32573  22.598  19.174  12.055
69015W        W32574  17.118   0.757  12.356
69016W        W32575  21.529  37.531   0.259
69017W        W32576  11.287   9.278  12.550
69018W        W32577   1.967  21.037  11.120
69019W        W32578  42.937  20.602  10.924
69020W        W32579   4.427  11.362  13.981
69021W        W32580  42.303  23.190   1.798
69022W        W32581  21.198  32.475  11.101
69023W        W32582  26.076  22.224  10.959
69024W        W32583  36.430  26.555  13.443
69025W        W32584  27.688   5.294  13.959
69026W        W32585  17.699  13.629  14.911
69027W        W32586   8.170   9.750   0.888
69028W        W32587   7.744   9.306   2.265
69029W        W32588   4.734  35.538   3.154
69030W        W32589  29.051  27.988  11.880
69031W        W32590  16.607   9.347  12.875
69032W        W32591   5.915  14.610   2.198
69033W        W32592   8.691  43.421  12.945
69034W        W32593   2.254  26.154  10.939
69035W        W32594  22.724  22.995  13.023
69036W        W32595   1.893  39.488  11.963
69037W        W32596  21.054  21.080   4.349
69038W        W32597   4.249  14.310  14.978
69039W        W32598  38.529  35.870  13.516
69040W        W32599  22.224  44.816  12.434
69041W        W32600  25.661  26.612   5.125
69042W        W32601  40.464  13.798  12.836
69043W        W32602  43.840   7.405  14.403
69044W        W32603  21.017   0.468   3.174
69045W        W32604  29.025  25.640   2.374
69046W        W32605  11.315  33.518  13.452
69047W        W32606  42.892   3.413   4.146
69048W        W32607  13.837  36.351   3.247
69049W        W32608  33.389  35.588   2.349
69050W        W32609  21.183  22.140   2.306
69051W        W32610  36.098  21.642  14.334
69052W        W32611  29.495   9.265  14.346
69053W        W32612  18.177  34.414  13.944
69054W        W32613  13.297  37.395   5.114
69055W        W32614   6.737  30.954  14.901
69056W        W32615  22.028   3.306  13.446
69057W        W32616  40.051  41.488  14.328
69058W        W32617  22.576  26.615   1.320
69059W        W32618  17.145  20.260  12.492
69060W        W32619  28.953  18.232   4.650
69061W        W32620  37.959  14.303  14.812
69062W        W32621  11.633   1.879   4.196
69063W        W32622  12.300   9.669   3.703
69064W        W32623  17.262   2.919   0.357
69065W        W32624  36.527  11.180   0.826
69066W        W32625  27.688  44.331  14.892
69067W        W32626  11.292  37.902  13.475
69068W        W32627   7.766  38.325   4.836
69069W        W32628  29.585  23.159  12.072
69070W        W32629  22.604  26.993  10.907
69071W        W32630  24.993  30.640  11.542
69072W        W32631  24.111  22.745  11.115
69073W        W32632  20.255  37.045   2.701
69074W        W32633  20.638   0.455  11.484
69075W        W32634  27.552  18.053  14.472
69076W        W32635   0.359  42.292  12.532
69077W        W32636  18.632  23.533  12.934
69078W        W32637   3.370  20.228   3.146
69079W        W32638  34.047  13.307  10.963
69080W        W32639  43.911  18.599  13.465
69081W        W32640   6.859  43.295  12.373
69082W        W32641  38.916  39.989  13.037
69083W        W32642  18.566  21.588  12.005
69084W        W32643  16.806   4.310  13.839
69085W        W32644   9.749   6.683  13.001
69086W        W32645  35.109  26.516  13.401
69087W        W32646  13.272   3.734  12.838
69088W        W32647  19.262  26.551  11.016
69089W        W32648  33.384  40.906  12.844
69090W        W32649  21.737  20.532   3.360
69091W        W32650  27.955  26.542   5.258
69092W        W32651  13.223   0.951   3.286
69093W        W32652   2.919  16.746  12.345
69094W        W32653   1.840  38.979   1.258
69095W        W32654  21.190  23.532  14.492
69096W        W32655  12.203  10.644   3.241
69097W        W32656  11.754   6.730  12.469
69098W        W32657  32.094  23.731  12.973
69099W        W32658  42.805  25.001   4.257
69100W        W32659  22.093  43.952  10.623
69101W        W32660  22.010  29.515   2.256
69102W        W32661  14.233  31.083   3.728
69103W        W32662  41.959  41.522  11.443
69104W        W32663   6.798  31.904  13.931
69105W        W32664  40.950  39.373  11.596
69106W        W32665  13.604  36.486  12.979
69107W        W32666  17.114  20.269  13.045
69108W        W32667  14.260  26.703  12.025
69109W        W32668   0.383  29.034  14.808
69110W        W32669   4.941  25.107   4.160
69111W        W32670  37.389  44.891   4.228
69112W        W32671   1.967  23.686  12.470
69113W        W32672  11.130   9.684  11.049
69114W        W32673   4.431  27.545   4.279
69115W        W32674  11.200  39.974   4.670
69116W        W32675  18.123  42.880  10.912
69117W        W32676  24.000  30.931  11.122
69118W        W32677   4.279  13.779  12.942
69119W        W32678   7.680  38.825  10.145
69120W        W32679   8.810   2.911   3.203
69121W        W32680  10.164  17.687   0.855
69122W        W32681  19.123  43.340   2.895
69123W        W32682  36.479   4.857   4.246
69124W        W32683  16.075  10.165   4.320
69125W        W32684  40.846  24.673   1.887
69126W        W32685  15.250  24.696   4.599
69127W        W32686  18.276  14.628   1.445
69128W        W32687   3.254  15.092   4.202
69129W        W32688  20.159  26.047   4.805
69130W        W32689  34.103  22.122   2.405
69131W        W32690  43.966   4.945   2.876
69132W        W32691  40.302   4.402  12.025
69133W        W32692  14.806  21.597  12.563
69134W        W32693   7.413  44.425   3.312
69135W        W32694   1.940  16.632  13.892
69136W        W32695  23.013  29.958  12.088
69137W        W32696  17.289   2.468   2.902
69138W        W32697   2.774  12.654  13.481
69139W        W32698   8.844  32.959  13.953
69140W        W32699   2.277  11.254  11.907
69141W        W32700  13.283  18.635   0.274
69142W        W32701  40.395  17.738  14.366
69143W        W32702  10.784  37.550  11.423
69144W        W32703  27.494  43.350   4.820
69145W        W32704  13.792  28.008   3.767
69146W        W32705   2.345  30.547  12.866
69147W        W32706  21.151  11.656   1.309
69148W        W32707   8.654   1.739  10.015
69149W        W32708  42.432  31.617   1.814
69150W        W32709  33.104  18.593   4.809
69151W        W32710  21.749  17.678   3.740
69152W        W32711  26.637  26.981   0.918
69153W        W32712   6.767   6.918  13.820
69154W        W32713  41.872   8.402  12.011
69155W        W32714  28.006  15.291  13.869
69156W        W32715  25.110  18.253  10.584
69157W        W32716   7.823  39.371   2.689
69158W        W32717   3.413   1.853   4.140
69159W        W32718  40.982   3.727  12.070
69160W        W32719  16.277  15.708  13.924
69161W        W32720  23.049  11.144   5.754
69162W        W32721  26.646  32.581  14.315
69163W        W32722  23.042  35.424   2.264
69164W        W32723  39.901  10.359   2.373
69165W        W32724  26.126   5.276   4.232
69166W        W32725  23.054  41.844  14.939
69167W        W32726  29.044  19.151   1.879
69168W        W32727  31.582  21.053  10.597
69169W        W32728  17.630  35.468  14.408
69170W        W32729  40.422  34.513   0.256
69171W        W32730  17.776  16.269  11.433
69172W        W32731  31.931   8.177  13.893
69173W        W32732  16.736  25.164  14.977
69174W        W32733  30.584  25.608   4.229
69175W        W32734  23.227  32.018  12.516
69176W        W32735  13.663  23.049   1.850
69177W        W32736  26.679   8.737   3.679
69178W        W32737  26.006  13.719  13.057
69179W        W32738  13.826  18.698   4.631
69180W        W32739  40.400  37.885   0.800
69181W        W32740   2.428  28.536  14.987
69182W        W32741  41.381   5.872  10.998
69183W        W32742  30.476  39.355   2.362
69184W        W32743  17.254  23.707  13.000
69185W        W32744  13.233  40.344   2.860
69186W        W32745  19.651   7.891  14.515
69187W        W32746  14.657  20.649  14.791
69188W        W32747   5.319   5.354  14.914
69189W        W32748  14.231  11.344  12.573
69190W        W32749  39.919   9.319  13.895
69191W        W32750  35.080  28.941   0.422
69192W        W32751   3.358  38.041  10.441
69193W        W32752  41.372  44.864   2.217
69194W        W32753   9.705  31.917  12.014
69195W        W32754  14.819  12.656   4.796
69196W        W32755  31.604  14.291  14.794
69197W        W32756  12.670  44.500   2.200
69198W        W32757  43.446   2.404   3.827
69199W        W32758   3.912  41.410  10.416
69200W        W32759  10.248  18.733   1.257
69201W        W32760  28.560  39.926  14.977
69202W        W32761  33.464   2.367   0.895
69203W        W32762  19.582   3.386  12.362
69204W        W32763  32.895   0.253  10.492
69205W        W32764  11.736  40.033   1.752
69206W        W32765  43.400   2.266   1.215
69207W        W32766  25.545  33.094   0.376
69208W        W32767  36.932  20.586   2.720
69209W        W32768  11.785  25.988  11.961
69210W        W32769  16.680  29.464   1.874
69211W        W32770  25.564  12.723   2.330
69212W        W32771  33.978  12.693   3.640
69213W        W32772   9.775  41.391  14.783
69214W        W32773  14.095  20.761  14.473
69215W        W32774  41.412   3.860   0.913
69216W        W32775  15.594  10.729  13.342
69217W        W32776  22.130  27.114  12.346
69218W        W32777  23.128   1.764  14.452
69219W        W32778  25.533  17.197   0.367
69220W        W32779  31.094  38.962   0.419
69221W        W32780  37.490  12.825  12.427
69222W        W32781  12.712  24.058   2.853
69223W        W32782   1.437  44.385  13.977
69224W        W32783  27.633  28.044  10.971
69225W        W32784  28.044  11.168  11.580
69226W        W32785  11.652  18.204  11.591
69227W        W32786  38.025  24.010  12.872
69228W        W32787  34.928  17.650   3.726
69229W        W32788  33.115   2.394   1.311
69230W        W32789  30.565  24.018  14.442
69231W        W32790  24.681  37.875   1.418
69232W        W32791  42.781  35.888  11.979
69233W        W32792  42.848   6.326  10.950
69234W        W32793  27.482   0.405  12.877
69235W        W32794  32.133  36.572  11.544
69236W        W32795   0.472  18.627   0.755
69237W        W32796   4.289   0.466   0.757
69238W        W32797  44.426  30.048  11.613
69239W        W32798  44.425  31.079   1.365
69240W        W32799  37.891  21.250   2.879
69241W        W32800  43.981   1.476   1.733
69242W        W32801  36.445  40.881  13.370
69243W        W32802  10.350  12.291   3.336
69244W        W32803  35.481  34.890   0.259
69245W        W32804  29.670  26.101   2.226
69246W        W32805  28.033  20.099  13.978
69247W        W32806  15.637   5.381  12.950
69248W        W32807   5.877  39.808  14.503
69249W        W32808  33.878  40.886  10.478
69250W        W32809  29.016   8.791   3.840
69251W        W32810  40.382   5.715  14.475
69252W        W32811  44.964   3.875   4.185
69253W        W32812   1.271  13.342  13.488
69254W        W32813   2.862  20.087   0.279
69255W        W32814  16.673  17.260  14.961
69256W        W32815  43.318  36.922  14.400
69257W        W32816   1.866  40.463  13.442
69258W        W32817  29.467  38.479  13.451
69259W        W32818  26.964   9.220   3.268
69260W        W32819  15.312  44.354  13.867
69261W        W32820  42.311  16.774  14.002
69262W        W32821  29.446  15.588   1.349
69263W        W32822  32.994  36.372   0.254
69264W        W32823   7.840  24.552   0.881
69265W        W32824  41.989   3.426  10.009
69266W        W32825  39.368  25.078   2.804
69267W        W32826  24.608  15.218  11.591
69268W        W32827  29.668   2.342  13.466
69269W        W32828  43.807  42.883  11.421
69270W        W32829  36.892  44.441  11.982
69271W        W32830  25.169  16.604   0.765
69272W        W32831  32.516  26.099   3.216
69273W        W32832  31.580  39.036   5.082
69274W        W32833  27.151  17.659  12.514
69275W        W32834  27.141  11.128   9.980
69276W        W32835  27.027  33.605   4.670
69277W        W32836  32.067  40.353   3.309
69278W        W32837  40.418  25.040  11.997
69279W        W32838  11.202  44.414   0.897
69280W        W32839   2.828   9.243   1.813
69281W        W32840   2.891   9.705  12.084
69282W        W32841  20.688  10.763  12.496
69283W        W32842  40.479  14.652  13.448
69284W        W32843  13.248  31.902  14.945
69285W        W32844  22.675  12.207   0.801
69286W        W32845   9.883  21.651  10.545
69287W        W32846  23.205  37.068  14.354
69288W        W32847  35.442   8.231  12.375
69289W        W32848   4.282  18.585   4.231
69290W        W32849  17.641  26.528   1.328
69291W        W32850  20.743  25.580   0.827
69292W        W32851  18.052  31.073   2.221
69293W        W32852  39.551  37.973  12.958
69294W        W32853  26.648  17.102   3.850
69295W        W32854  25.127   6.428  12.540
69296W        W32855  26.656  13.209   4.331
69297W        W32856   5.439  19.658   3.725
69298W        W32857  17.203   7.251   1.900
69299W        W32858  18.611  30.098  10.977
69300W        W32859  36.506  15.661   3.658
69301W        W32860  22.554  30.150  12.874
69302W        W32861  19.185  23.221   4.157
69303W        W32862  10.801  35.914  13.931
69304W        W32863  37.937  12.614  14.906
69305W        W32864  26.655   2.305  14.941
69306W        W32865  20.051   5.856   1.258
69307W        W32866   3.373  21.112  11.930
69308W        W32867  23.713  30.608   1.891
69309W        W32868   8.180  16.729   4.618
69310W        W32869  42.798  33.536  12.915
69311W        W32870  30.596   1.890   2.681
69312W        W32871  44.374   6.678  13.472
69313W        W32872  29.568  14.660   4.257
69314W        W32873  35.882   0.493  10.432
69315W        W32874  30.634  11.722   3.718
69316W        W32875  16.703  13.106  12.015
69317W        W32876  12.798  12.188  13.314
69318W        W32877  42.915   8.257   2.849
69319W        W32878  43.471  11.144  13.922
69320W        W32879   0.917  25.059  12.923
69321W        W32880  16.653  43.873  12.454
69322W        W32881  29.938   5.904   4.201
69323W        W32882  27.012  22.152  13.966
69324W        W32883  36.424  12.153   1.871
69325W        W32884   3.380  41.000   0.286
69326W        W32885   2.246  30.626   0.944
69327W        W32886   7.751  40.335  12.917
69328W        W32887  37.880  36.539  12.459
69329W        W32888  43.936  44.392  12.437
69330W        W32889  33.388   3.456   5.293
69331W        W32890  26.513   1.824  14.847
69332W        W32891  32.409   8.875   1.445
69333W        W32892  19.226  11.696  11.990
69334W        W32893  43.497  35.916   1.382
69335W        W32894  37.557   6.840  14.322
69336W        W32895   6.825   5.278  14.809
69337W        W32896  24.597  38.333  10.897
69338W        W32897  20.249  44.889  10.613
69339W        W32898  29.464  31.941   1.442
69340W        W32899  18.278   4.913   3.254
69341W        W32900  22.682  30.575   4.611
69342W        W32901  21.193  14.603   5.197
69343W        W32902  34.412  20.235  12.014
69344W        W32903  14.125  26.508   2.680
69345W        W32904  16.700  38.893  12.426
69346W        W32905  37.470  24.559  12.901
69347W        W32906  18.663  13.755  14.805
69348W        W32907  26.464   0.411  13.370
69349W        W32908  35.983   6.373   4.692
69350W        W32909  35.415  31.092   0.300
69351W        W32910  31.960  27.600   0.445
69352W        W32911  26.471  40.371   0.415
69353W        W32912  18.558   0.963  12.982
69354W        W32913  16.719  30.994  11.963
69355W        W32914  23.185  43.364   1.301
69356W        W32915  11.255  40.424   0.269
69357W        W32916  12.210   6.340   5.086
69358W        W32917  15.185  25.596   4.779
69359W        W32918  31.516  11.807   2.850
69360W        W32919  22.533  15.097  13.421
69361W        W32920  26.047  16.087   3.177
69362W        W32921  33.913  39.489   0.857
69363W        W32922  29.534  16.150   2.341
69364W        W32923   8.238  22.590  14.777
69365W        W32924   3.831  35.015  13.986
69366W        W32925   8.676  27.157   4.717
69367W        W32926  35.429   1.442   0.313
69368W        W32927   3.792  15.787  12.059
69369W        W32928  19.767  33.412   4.724
69370W        W32929   4.844  37.381  14.386
69371W        W32930  33.006  36.432  12.073
69372W        W32931  31.403  11.672  14.913
69373W        W32932  39.943  17.124  11.864
69374W        W32933  11.675  26.074   3.709
69375W        W32934  34.390  23.503  14.818
69376W        W32935  44.273  26.202  13.521
69377W        W32936  19.162  28.515  12.857
69378W        W32937  40.887  31.979   0.449
69379W        W32938  37.887  20.609   2.855
69380W        W32939   0.913   6.302  14.321
69381W        W32940   4.826   7.846  13.530
69382W        W32941   6.302  36.510  13.505
69383W        W32942  23.065   3.711   4.301
69384W        W32943  12.684  21.634  12.848
69385W        W32944  44.857  35.382   3.189
69386W        W32945  27.053  39.964   2.834
69387W        W32946  29.945  11.230  13.902
69388W        W32947  25.011  23.165   1.723
69389W        W32948  38.075   8.886  12.518
69390W        W32949  19.217  21.714   0.767
69391W        W32950  35.010  20.549   3.717
69392W        W32951  42.493   9.330   4.634
69393W        W32952  12.853  28.527   1.279
69394W        W32953  29.143  33.928   4.330
69395W        W32954  44.494  44.391   2.711
69396W        W32955   4.899   5.425   0.908
69397W        W32956   8.383  25.205   1.350
69398W        W32957   5.380  27.545  10.546
69399W        W32958  33.884  43.841  12.874
69400W        W32959   7.855  28.678  12.411
69401W        W32960   4.315  39.558   2.668
69402W        W32961  16.305   0.803   4.638
69403W        W32962  13.125  20.121  14.434
69404W        W32963  24.681  37.900   3.303
69405W        W32964  41.455  12.258   2.779
69406W        W32965   6.268  42.383  10.953
69407W        W32966  31.521  29.033  10.462
69408W        W32967  23.641  18.631   3.821
69409W        W32968  30.533   0.407   0.382
69410W        W32969  25.700  12.797  10.080
69411W        W32970  35.551  27.595   4.757
69412W        W32971  26.594  39.394  11.018
69413W        W32972  24.045  38.837   0.747
69414W        W32973  16.698  24.196  10.631
69415W        W32974  29.068  22.602   1.425
69416W        W32975  34.388  34.994  12.424
69417W        W32976  25.541  25.977   4.603
69418W        W32977  41.948  41.389   1.901
69419W        W32978  19.547  29.115  14.423
69420W        W32979  25.030  40.537   4.256
69421W        W32980  34.561  29.977   2.404
69422W        W32981  40.345  36.901   0.324
69423W        W32982  30.058  30.054   2.894
69424W        W32983  19.713   6.686   2.845
69425W        W32984  28.516  17.563   1.726
69426W        W32985  11.260   1.449  13.919
69427W        W32986  12.830  34.014   9.533
69428W        W32987  41.891  38.500   2.272
69429W        W32988  22.642  43.977  10.022
69430W        W32989   6.695  35.944   3.685
69431W        W32990   0.943  32.507  12.023
69432W        W32991  16.160  16.096  10.545
69433W        W32992  24.215   0.927   9.998
69434W        W32993  16.578  44.775   1.766
69435W        W32994  13.693  21.619   2.373
69436W        W32995  32.026  32.976   3.344
69437W        W32996   8.743  18.261   0.388
69438W        W32997  23.099   5.776   1.788
69439W        W32998  36.407  24.485  13.849
69440W        W32999  24.990  43.844  14.779
69441W        W33000  27.081  34.077   3.694
69442W        W33001   9.753  17.749  13.904
69443W        W33002  27.592  20.150   3.770
69444W        W33003  42.436  38.504   2.832
69445W        W33004  17.068  19.089  10.500
69446W        W33005  13.349   0.393  14.896
69447W        W33006   6.701  19.542  14.976
69448W        W33007  38.978   8.217  14.983
69449W        W33008   2.732  38.506   3.372
69450W        W33009  44.783  20.585  11.014
69451W        W33010   3.753  17.152  14.493
69452W        W33011   5.353  10.705   2.295
69453W        W33012  36.435  40.412   4.713
69454W        W33013  38.849   1.829   0.402
69455W        W33014   7.182  29.010   2.300
69456W        W33015  28.523  28.582   3.866
69457W        W33016  21.190  19.251  14.508
69458W        W33017  20.745  35.095   2.273
69459W        W33018  40.812  17.648   0.910
69460W        W33019   4.245   3.277  11.911
69461W        W33020   7.855  42.915   2.233
69462W        W33021   8.776  12.790   1.805
69463W        W33022   7.187  43.933  10.568
69464W        W33023  29.589  25.118  13.981
69465W        W33024  43.405  21.156  11.375
69466W        W33025  14.749  33.899   0.481
69467W        W33026   9.863  14.679   3.287
69468W        W33027   4.279  43.431  11.861
69469W        W33028  34.523   0.252   3.197
69470W        W33029  26.685   3.255   3.805
69471W        W33030  35.038  20.232  13.311
69472W        W33031  20.112  44.908  12.994
69473W        W33032  17.139  25.565  14.786
69474W        W33033  32.457   3.764  14.924
69475W        W33034  13.830   0.339  12.360
69476W        W33035  32.532  37.514   4.293
69477W        W33036   0.868  39.460   1.834
69478W        W33037   6.314   2.429  14.409
69479W        W33038  22.095  14.258   4.724
69480W        W33039  33.415  30.627   0.278
69481W        W33040  32.408  24.002   3.303
69482W        W33041  15.266  40.865  10.513
69483W        W33042  41.828  27.001   4.683
69484W        W33043  21.549   3.807  13.400
69485W        W33044  16.291  32.028   3.327
69486W        W33045  15.255  37.430  12.368
69487W        W33046  23.728  32.110  13.422
69488W        W33047  40.385   1.469   4.788
69489W        W33048  43.851   5.312  14.996
69490W        W33049  22.586  27.127  12.427
69491W        W33050  29.172   5.797   4.174
69492W        W33051  14.630  24.122  14.333
69493W        W33052  32.962  40.428  13.846
69494W        W33053  25.195  26.147   2.706
69495W        W33054  34.518  13.825   4.293
69496W        W33055   7.668   4.346  10.591
69497W        W33056  42.400  21.173   1.428
69498W        W33057   0.987   8.166   1.788
69499W        W33058  43.355  41.387  11.927
69500W        W33059  34.564  24.127  13.360
69501W        W33060   6.191   3.426   9.979
69502W        W33061  24.205  14.212   2.793
69503W        W33062  34.073   5.713   0.925
69504W        W33063  41.835  19.698   1.334
69505W        W33064   7.770   6.767   4.237
69506W        W33065  43.444  27.577  13.482
69507W        W33066  31.090  38.939  13.813
69508W        W33067  35.529  44.412   1.299
69509W        W33068   1.853  24.595   0.899
69510W        W33069  33.875  30.457  14.465
69511W        W33070  13.165  43.912   1.752
69512W        W33071  20.217  40.028  12.364
69513W        W33072  29.469   7.786   4.719
69514W        W33073  39.484  13.765   1.254
69515W        W33074  27.081  35.393   1.366
69516W        W33075  26.006  36.378   3.231
69517W        W33076  13.110   9.194  10.956
69518W        W33077  23.529  38.051   1.442
69519W        W33078  13.334  24.502   1.220
69520W        W33079  17.168  44.814   3.862
69521W        W33080  32.055  13.308  12.899
69522W        W33081  43.943   6.329   4.176
69523W        W33082  32.590  28.043  13.547
69524W        W33083  17.231  43.353  14.501
69525W        W33084  15.329  31.090   4.292
69526W        W33085   2.749   7.666   0.372
69527W        W33086  15.139  31.144  11.908
69528W        W33087  33.890   4.852   2.288
69529W        W33088  11.271  17.199   4.769
69530W        W33089   9.229  12.698  12.566
69531W        W33090  19.102  20.591  12.572
69532W        W33091   1.878  33.058  13.829
69533W        W33092   5.752  31.933  11.576
69534W        W33093  40.945  26.684   4.332
69535W        W33094  17.109  30.950   1.818
69536W        W33095  27.683  40.875   3.699
69537W        W33096  34.513   9.317   3.732
69538W        W33097  22.208  41.433   3.685
69539W        W33098  40.547   3.776  10.944
69540W        W33099  13.352  15.738   1.704
69541W        W33100  18.685  22.670  14.936
69542W        W33101  40.974  41.318   1.287
69543W        W33102  43.943   2.234   4.749
69544W        W33103  31.962  18.698   2.402
69545W        W33104  23.586  15.106  10.982
69546W        W33105  39.849  33.597   3.240
69547W        W33106  25.571  24.641   0.483
69548W        W33107  32.038  16.245   4.702
69549W        W33108  34.558  14.643  11.915
69550W        W33109  15.753  36.048   2.257
69551W        W33110   7.320  41.925   3.867
69552W        W33111  18.605  30.424  13.421
69553W        W33112  32.426   0.978  12.907
69554W        W33113   1.849  41.511  12.487
69555W        W33114  27.467  25.618  13.848
69556W        W33115  37.892  26.585   3.186
69557W        W33116  29.457  17.239   1.771
69558W        W33117   9.148  34.052  10.154
69559W        W33118  15.261  25.167  12.943
69560W        W33119   8.164  30.623   4.220
69561W        W33120  14.311  20.755  13.525
69562W        W33121  35.985  27.061  10.424
69563W        W33122  24.017   1.246   2.853
69564W        W33123  35.528  18.709   3.854
69565W        W33124  26.963  30.458  11.966
69566W        W33125  34.464  37.065  11.465
69567W        W33126  44.779  43.860   1.288
69568W        W33127   6.330  20.745  11.998
69569W        W33128  21.683  27.492   3.642
69570W        W33129  37.843  31.606   0.923
69571W        W33130  40.461  22.175  14.774
69572W        W33131  43.464  11.673   2.716
69573W        W33132  44.822  38.567   0.908
69574W        W33133  35.927  22.049   3.779
69575W        W33134   8.344  39.402  12.902
69576W        W33135  35.441  10.666   4.728
69577W        W33136  15.672  23.705  11.044
69578W        W33137  18.107  29.423   3.341
69579W        W33138   8.693   7.795  14.373
69580W        W33139  41.900  14.832   1.392
69581W        W33140  30.928  32.566  11.526
69582W        W33141   9.307  27.954   3.662
69583W        W33142  30.638  35.960  13.946
69584W        W33143  41.836   3.428  12.553
69585W        W33144  43.912  32.489   4.140
69586W        W33145  29.442   1.299   4.682
69587W        W33146  29.062  33.909  14.337
69588W        W33147  15.268  24.998   0.369
69589W        W33148  44.956  37.419   1.218
69590W        W33149  27.617  16.776   4.293
69591W        W33150  32.508  37.516  13.417
69592W        W33151  13.754  14.820  12.854
69593W        W33152  25.087  43.343  13.339
69594W        W33153   0.812  38.948   1.395
69595W        W33154  18.670  18.702   2.379
69596W        W33155  19.159   3.765  12.094
69597W        W33156  23.091  35.543   0.350
69598W        W33157  23.579  11.227  14.966
69599W        W33158   4.748  44.920   4.148
69600W        W33159  14.094  41.908  12.375
69601W        W33160   2.868  42.907  10.994
69602W        W33161  27.996  28.527   1.912
69603W        W33162  32.457  15.726   2.352
69604W        W33163  36.410  26.676  14.310
69605W        W33164  15.172  22.194   1.371
69606W        W33165  32.014  39.455  11.467
69607W        W33166  39.951  22.513  11.912
69608W        W33167  35.066   3.216  10.887
69609W        W33168  17.697   0.918  14.324
69610W        W33169  32.076  24.020   3.666
69611W        W33170  12.748  20.065  15.000
69612W        W33171  19.580  32.415  13.497
69613W        W33172  32.911  24.622  13.441
69614W        W33173  31.975  39.990  14.012
69615W        W33174  10.328  21.703  10.601
69616W        W33175  11.318   7.787   3.762
69617W        W33176   5.429   7.313  11.488
69618W        W33177   0.371  10.875  12.851
69619W        W33178  17.689   2.346   2.896
69620W        W33179  15.680  14.157   1.379
69621W        W33180  36.497   7.267  13.356
69622W        W33181   2.916  23.197  11.013
69623W        W33182  26.137  24.566  12.070
69624W        W33183  17.662  26.954  10.593
69625W        W33184  25.003  44.754   3.350
69626W        W33185  11.289  22.630   3.783
69627W        W33186  12.669  39.408  13.849
69628W        W33187  43.928  42.458   4.600
69629W        W33188  35.992  31.939   0.760
69630W        W33189  17.250  26.979   1.847
69631W        W33190  32.420   8.232  13.493
69632W        W33191  10.371  30.048  10.487
69633W        W33192  37.530  16.645  10.047
69634W        W33193  33.472  44.785   4.830
69635W        W33194  20.071  39.386  12.923
69636W        W33195   3.329  36.002  12.368
69637W        W33196  17.687   3.838  13.451
69638W        W33197  24.985  31.134   4.774
69639W        W33198  10.835  40.479  12.485
69640W        W33199  29.665  24.032  14.924
69641W        W33200  22.026   5.918  10.965
69642W        W33201  17.639  42.812  11.926
69643W        W33202  11.212  26.959   4.158
69644W        W33203  15.303  37.066  11.418
69645W        W33204  40.397  16.260  11.949
69646W        W33205  38.027  35.894  14.781
69647W        W33206   2.769  11.729  13.995
69648W        W33207  40.035  35.898   3.302
69649W        W33208  35.024  11.738  12.551
69650W        W33209   3.857  15.275   4.180
69651W        W33210   0.285  19.716  11.098
69652W        W33211   5.788  25.603  10.986
69653W        W33212  44.899  22.567  14.781
69654W        W33213  12.637   8.390   9.510
69655W        W33214   9.883  40.835   1.816
69656W        W33215  22.139  17.097  14.866
69657W        W33216  35.494  39.313  12.548
69658W        W33217   5.382  40.320  11.115
69659W        W33218  38.371  27.173   3.364
69660W        W33219  28.119   9.782  14.913
69661W        W33220  40.437  35.987   3.672
69662W        W33221  21.108  31.068   9.922
69663W        W33222   6.280  41.494  11.416
69664W        W33223   3.292  13.240   5.289
69665W        W33224  15.137  39.829  13.941
69666W        W33225  21.236  43.464   1.873
69667W        W33226  12.654  26.984   2.288
69668W        W33227  19.577  41.918  12.547
69669W        W33228  26.569  19.732  11.512
69670W        W33229  35.407   3.780  11.572
69671W        W33230   1.783  20.730   0.878
69672W        W33231  12.318  18.089  14.282
69673W        W33232  38.403  40.501  13.018
69674W        W33233  32.625  44.948   3.255
69675W        W33234   0.828   2.794  10.547
69676W        W33235  20.112  17.071   2.774
69677W        W33236  29.132  28.993   2.748
69678W        W33237  24.663   7.835   1.434
69679W        W33238  18.062  20.720   3.767
69680W        W33239   3.294  30.490   1.931
69681W        W33240   2.233  27.971  14.978
69682W        W33241  25.651  35.492  11.063
69683W        W33242  44.349  41.927  14.879
69684W        W33243   9.348  11.201  14.399
69685W        W33244   0.457  17.745   1.917
69686W        W33245  25.190  28.016  14.933
69687W        W33246  21.086  11.208   4.269
69688W        W33247  15.787  19.115   4.705
69689W        W33248  21.725  23.192  12.380
69690W        W33249  42.326  40.811  14.833
69691W        W33250  20.232  15.776   2.321
69692W        W33251  42.459  42.833  14.394
69693W        W33252  24.135  41.483  14.803
69694W        W33253   3.288  35.542   0.905
69695W        W33254  28.521  37.906   4.341
69696W        W33255   7.383  41.518   1.248
69697W        W33256  23.650  44.333  12.554
69698W        W33257  15.601  40.528   3.745
69699W        W33258   0.865   4.404  13.890
69700W        W33259  26.617  38.557   3.322
69701W        W33260  37.008  38.466  11.442
69702W        W33261  30.964  15.300  11.124
69703W        W33262  27.064  41.340  11.900
69704W        W33263  15.319  17.179  13.026
69705W        W33264  37.342  29.973   1.338
69706W        W33265  13.614  44.908   3.318
69707W        W33266  33.028  10.259  11.421
69708W        W33267  26.139  42.998   4.658
69709W        W33268  41.833  11.733  13.418
69710W        W33269  32.956  23.194  11.119
69711W        W33270  11.781  20.270   4.198
69712W        W33271  10.161   0.372  14.013
69713W        W33272  21.233  43.425  13.828
69714W        W33273  44.388  39.926   1.713
69715W        W33274  24.549   2.326  10.424
69716W        W33275   8.406   4.246   4.264
69717W        W33276  40.854  30.516  13.842
69718W        W33277  12.122  39.442  14.442
69719W        W33278  27.640  23.537   0.281
69720W        W33279  41.447  30.620  11.507
69721W        W33280  19.102  40.923  12.452
69722W        W33281  24.600  18.551  12.907
69723W        W33282  44.381  31.418   3.190
69724W        W33283  15.665  34.995  12.047
69725W        W33284   9.889   8.182   3.370
69726W        W33285  20.258  24.999  12.551
69727W        W33286   9.178  15.820   3.800
69728W        W33287  40.439  31.953   1.333
69729W        W33288  15.140  26.994  13.321
69730W        W33289  15.578  21.612  12.946
69731W        W33290   1.886  13.718  11.946
69732W        W33291  11.328  31.561  13.935
69733W        W33292  11.137  42.898   2.314
69734W        W33293  15.752  15.264  14.773
69735W        W33294  16.607   2.450   0.336
69736W        W33295  35.043  19.188  12.531
69737W        W33296   1.748  29.524  14.503
69738W        W33297  27.975  32.070  10.459
69739W        W33298  35.589  11.848   1.839
69740W        W33299  14.320  17.238  14.921
69741W        W33300  23.593  15.090   0.855
69742W        W33301  25.215  10.748  13.036
69743W        W33302  27.500   4.296  12.916
69744W        W33303  22.126  19.049  13.820
69745W        W33304  27.049  40.358  14.918
69746W        W33305  15.190  41.969  14.796
69747W        W33306  21.608   2.269  14.984
69748W        W33307  34.018  39.553   3.630
69749W        W33308  15.222  20.084  14.325
69750W        W33309   5.318   0.422  14.380
69751W        W33310   8.705   6.878   3.226
69752W        W33311   3.395  23.554   3.231
69753W        W33312  31.047  20.535   3.720
69754W        W33313  28.507   6.815   2.867
69755W        W33314   5.224   5.195  12.964
69756W        W33315  36.478   8.874   2.822
69757W        W33316  26.655  30.532   2.371
69758W        W33317   1.399   3.347   1.907
69759W        W33318   6.253   1.733   3.642
69760W        W33319   3.358   0.762  14.916
69761W        W33320  15.620  16.706   2.663
69762W        W33321  20.159  44.805   0.867
69763W        W33322  28.646  22.559   3.802
69764W        W33323   8.733   7.273  12.549
69765W        W33324  15.324  14.594  11.014
69766W        W33325  17.583   7.707  10.543
69767W        W33326  42.957   2.891   2.252
69768W        W33327  30.018  17.235   1.429
69769W        W33328  31.458   7.771  13.511
69770W        W33329  34.426  34.052   0.756
69771W        W33330   5.803  13.126  14.945
69772W        W33331   1.308   7.388  10.413
69773W        W33332  25.587  34.481   1.798
69774W        W33333   5.386  29.114  10.464
69775W        W33334   2.728  35.029   3.194
69776W        W33335  15.696  22.722  14.016
69777W        W33336  11.255   6.425   2.219
69778W        W33337  25.654   4.242   0.908
69779W        W33338  22.551   9.314   4.169
69780W        W33339  15.823  42.292  13.930
69781W        W33340  25.146  29.095  13.413
69782W        W33341   8.702  36.381  12.874
69783W        W33342  33.530  15.742   0.814
69784W        W33343  36.905  11.685   1.281
69785W        W33344  14.302  21.677  14.894
69786W        W33345  12.131  10.320   5.101
69787W        W33346  10.370  26.004   3.742
69788W        W33347   2.799  32.579   4.680
69789W        W33348   2.333  26.621  11.126
69790W        W33349  33.541  40.029  13.794
69791W        W33350   6.205   0.964  14.992
69792W        W33351  17.132  25.212   2.281
69793W        W33352  32.543  44.969  12.940
69794W        W33353   9.725  29.040  12.900
69795W        W33354  17.747   4.823   2.741
69796W        W33355  17.688  30.580  14.873
69797W        W33356  25.562  40.905  13.465
69798W        W33357  11.868  17.128  12.923
69799W        W33358   5.714  38.833  13.374
69800W        W33359  35.991  18.585   0.905
69801W        W33360  32.137  35.551   1.440
69802W        W33361  24.486  24.692   9.931
69803W        W33362  22.645   4.285   3.235
69804W        W33363  36.856  33.614   1.882
69805W        W33364  36.935  20.593   2.268
69806W        W33365   2.369  21.630   3.871
69807W        W33366  12.830  40.467   2.232
69808W        W33367  30.060  38.861  10.428
69809W        W33368  33.459   8.185  10.001
69810W        W33369  43.325  15.231  12.994
69811W        W33370  28.547  16.149  10.935
69812W        W33371  19.221   9.368   2.735
69813W        W33372   8.235  42.913   2.201
69814W        W33373   5.758  21.104   1.870
69815W        W33374  26.465   5.721   1.920
69816W        W33375  35.065  40.832   0.477
69817W        W33376   3.377   7.848   3.379
69818W        W33377  12.733  38.074   3.645
69819W        W33378  15.292  38.564  10.603
69820W        W33379  21.693  40.539   4.687
69821W        W33380  33.506  18.065  12.355
69822W        W33381   5.306  17.685   1.283
69823W        W33382  44.310  28.601  11.908
69824W        W33383   1.889  23.208  10.961
69825W        W33384  21.664  32.908  11.886
69826W        W33385  18.202  42.312  13.532
69827W        W33386  17.109  42.373   3.682
69828W        W33387  31.135  39.843  11.883
69829W        W33388   9.742   7.762   2.395
69830W        W33389  22.131   6.404   1.697
69831W        W33390  24.200  17.159   3.645
69832W        W33391  13.760  32.993  11.480
69833W        W33392  28.177  34.529  14.425
69834W        W33393   6.840  43.408  13.926
69835W        W33394   4.781  39.479  11.089
69836W        W33395  27.129  26.961   3.386
69837W        W33396  24.543  15.146   4.113
69838W        W33397  31.132  11.796   1.889
69839W        W33398  18.577  33.507  14.497
69840W        W33399   5.351  19.715  11.578
69841W        W33400  24.637   7.893   2.198
69842W        W33401  21.527  20.532  13.401
69843W        W33402  13.261  31.993  11.554
69844W        W33403  26.674  32.991  12.496
69845W        W33404   5.716  33.499  14.855
69846W        W33405   4.225  41.848   2.746
69847W        W33406  25.978  28.538  10.602
69848W        W33407  14.820  31.114  14.497
69849W        W33408  37.510  19.734  13.818
69850W        W33409   1.277   3.441   3.258
69851W        W33410  21.168   3.221  14.393
69852W        W33411  24.989  41.883   0.882
69853W        W33412  44.792   7.737  10.512
69854W        W33413  28.521   9.760   0.277
69855W        W33414   8.321  17.794  12.037
69856W        W33415   2.882  26.016   4.302
69857W        W33416  27.677  37.051   1.267
69858W        W33417  21.193  36.904  12.510
69859W        W33418   2.311  30.642  10.577
69860W        W33419  36.373  41.901  13.968
69861W        W33420  37.464   6.414  10.468
69862W        W33421  41.491  31.579  10.603
69863W        W33422  40.467  24.121  13.824
69864W        W33423   5.772  30.145  11.896
69865W        W33424   8.742  41.927  14.470
69866W        W33425  22.574  30.472  14.494
69867W        W33426  33.002  26.620  11.996
69868W        W33427  44.886   5.767   2.277
69869W        W33428   8.748  42.523  11.535
69870W        W33429  41.307  40.437   2.708
69871W        W33430  41.955  16.218  13.849
69872W        W33431   0.265  15.120  14.958
69873W        W33432  40.822   5.387   2.783
69874W        W33433  19.709  13.687  10.509
69875W        W33434  23.528  36.385   2.331
69876W        W33435  44.842   0.492  12.854
69877W        W33436  42.435  23.724  14.816
69878W        W33437  20.759   2.880  12.019
69879W        W33438   9.246  36.950  13.407
69880W        W33439  14.322   6.211  14.959
69881W        W33440   4.726  33.997  11.553
69882W        W33441   1.965  11.824  10.557
69883W        W33442  31.492  38.998  12.401
69884W        W33443  17.673  44.914  12.967
69885W        W33444  23.611  37.863   2.414
69886W        W33445  15.696  15.602  11.937
69887W        W33446  44.369  44.411   2.371
69888W        W33447  28.679  31.958  12.014
69889W        W33448   4.264   2.811   2.773
69890W        W33449  40.463   1.893   4.648
69891W        W33450  36.077  17.776  10.482
69892W        W33451  22.097  11.164   3.224
69893W        W33452   5.313  35.090  11.493
69894W        W33453   4.423  20.709   2.864
69895W        W33454  26.475   9.785  12.990
69896W        W33455  36.036  23.170  12.493
69897W        W33456  28.576  38.023  14.941
69898W        W33457  41.857  10.374   0.310
69899W        W33458  25.117  21.654   0.950
69900W        W33459  29.963  44.382   0.282
69901W        W33460  10.179  30.960  10.569
69902W        W33461  35.581   6.297   3.181
69903W        W33462  27.990  24.493   0.274
69904W        W33463  43.002  27.468   0.742
69905W        W33464  23.574  27.080   2.309
69906W        W33465  20.268  14.799  13.482
69907W        W33466  16.287   6.379   1.414
69908W        W33467  39.834  10.761  14.278
69909W        W33468  24.651  33.036  14.399
69910W        W33469  20.190  18.752   0.412
69911W        W33470   2.404  23.193   3.288
69912W        W33471  13.690   4.286  14.461
69913W        W33472  42.362  42.845   4.750
69914W        W33473   0.277   2.853   1.834
69915W        W33474   6.823   5.233   0.940
69916W        W33475   6.294  23.565   0.467
69917W        W33476  21.653  37.504  11.421
69918W        W33477  44.880  41.008  10.952
69919W        W33478  32.910  22.603  11.520
69920W        W33479  15.642  14.190   4.123
69921W        W33480  39.474   4.767   2.695
69922W        W33481  38.417   0.863  12.921
69923W        W33482  29.533   1.927   2.770
69924W        W33483  34.404  43.896   3.669
69925W        W33484  28.153  32.919   1.304
69926W        W33485  23.579  29.586   3.633
69927W        W33486  34.912  24.025   0.784
69928W        W33487  36.989  11.236  13.942
69929W        W33488   8.878   0.363   2.898
69930W        W33489  38.561  18.551   2.254
69931W        W33490   5.387  38.557  13.482
69932W        W33491  35.970  21.224  10.606
69933W        W33492  13.251  13.239   4.114
69934W        W33493  34.389  14.244   3.348
69935W        W33494  25.684  19.283  12.476
69936W        W33495  33.898  32.436   3.799
69937W        W33496  40.040  24.498   2.739
69938W        W33497  43.439   6.218   2.274
69939W        W33498  12.835  29.964   1.725
69940W        W33499  17.732  26.174  14.513
69941W        W33500   7.230  12.730   3.262
69942W        W33501  28.458  15.267   0.268
69943W        W33502  44.465  11.849  11.899
69944W        W33503  10.755  41.336  12.356
69945W        W33504   6.225   0.880  11.405
69946W        W33505  25.178  21.699  12.535
69947W        W33506  27.988  36.420  13.357
69948W        W33507  43.507  14.263   2.903
69949W        W33508  34.925  24.101  11.880
69950W        W33509  39.010  29.457  13.835
69951W        W33510   9.786  18.752   4.781
69952W        W33511  26.070  23.164  14.994
69953W        W33512   8.165  37.077  13.969
69954W        W33513   4.282  39.950   3.672
69955W        W33514  17.090  16.293   2.702
69956W        W33515  15.289  33.029  13.826
69957W        W33516  37.910  22.638   0.750
69958W        W33517  34.947   3.895  14.301
69959W        W33518  42.451  27.496  10.563
69960W        W33519   0.863  21.062   2.263
69961W        W33520  16.785  43.281   3.673
69962W        W33521  13.254   6.843   1.279
69963W        W33522  37.072  29.053  12.362
69964W        W33523  38.908  26.112   1.837
69965W        W33524  28.055   2.266   0.386
69966W        W33525  27.561  16.598  10.965
69967W        W33526  22.995  11.354   1.334
69968W        W33527  26.177  21.564  13.319
69969W        W33528  23.097  10.281  10.466
69970W        W33529  12.682  31.506  12.996
69971W        W33530   7.708   5.320  11.902
69972W        W33531   8.360   2.947   1.797
69973W        W33532  39.379  15.820  12.370
69974W        W33533   9.331  43.308  13.352
69975W        W33534  19.741  44.775  10.626
69976W        W33535  22.509  40.498  12.070
69977W        W33536  12.257   9.289   0.248
69978W        W33537  40.982  29.578   2.260
69979W        W33538   9.253  20.208  14.961
69980W        W33539  18.258  17.758  12.554
69981W        W33540  32.006  12.267  11.495
69982W        W33541  29.427  13.105   4.691
69983W        W33542  44.348  39.527   2.238
69984W        W33543  30.038  26.026   4.779
69985W        W33544  29.526  37.947  14.905
69986W        W33545   2.741  26.023  14.318
69987W        W33546  33.986   7.832   3.324
69988W        W33547  14.199   1.470   1.792
69989W        W33548  20.115  35.861   1.243
69990W        W33549   4.922  19.603   9.930
69991W        W33550  33.421   6.223  13.792
69992W        W33551   7.832   2.390  11.551
69993W        W33552  31.642  18.710  10.607
69994W        W33553  40.341   5.209  10.544
69995W        W33554   3.878  12.680  10.457
69996W        W33555  38.004  33.005  14.495
69997W        W33556  38.458  33.065  10.907
69998W        W33557  17.092  27.552   0.452
69999W        W33558  18.555  34.077   1.871
70000W        W33559  11.849  15.217  12.563
70001W        W33560  27.473   9.769  12.460
70002W        W33561   9.713  26.123  10.620
70003W        W33562  23.085  38.842  12.032
70004W        W33563  13.746  21.233   0.895
70005W        W33564  23.591  10.753   3.221
70006W        W33565  20.694   7.723   4.134
70007W        W33566  23.160   1.371  12.017
70008W        W33567  37.405   7.371  12.985
70009W        W33568  30.511  42.807  11.074
70010W        W33569   7.247  26.168  14.339
70011W        W33570  12.146  35.512   0.963
70012W        W33571  42.439  18.557  10.910
70013W        W33572  11.338   8.708   1.709
70014W        W33573   8.172  35.892  13.529
70015W        W33574  44.979  29.082   2.220
70016W        W33575  20.708  25.141  13.799
70017W        W33576   1.766  26.612  12.408
70018W        W33577  17.181   6.834   0.396
70019W        W33578  30.017  22.595  11.485
70020W        W33579   2.774  39.349   0.739
70021W        W33580  36.534  23.558   0.796
70022W        W33581  30.474   0.973  12.492
70023W        W33582   4.206   9.190  12.084
70024W        W33583  43.397   9.730  10.971
70025W        W33584  25.558  38.040   2.664
70026W        W33585  25.518  37.035  12.998
70027W        W33586  10.834  37.542  10.126
70028W        W33587  44.871  15.134  13.505
70029W        W33588  13.653  22.085  13.033
70030W        W33589   3.305  25.121  10.448
70031W        W33590  15.747  19.679  10.641
70032W        W33591  32.904  41.351   1.308
70033W        W33592   8.807   4.350   0.354
70034W        W33593  14.286  34.106   1.379
70035W        W33594  14.825  18.216  14.799
70036W        W33595  12.197   6.838  14.440
70037W        W33596  16.299  12.339   2.849
70038W        W33597   5.779   2.332   0.863
70039W        W33598  15.785   0.312   4.711
70040W        W33599   2.756  24.081   1.332
70041W        W33600  37.437  13.208   1.700
70042W        W33601   9.838  39.555  13.900
70043W        W33602  41.820   4.720   4.671
70044W        W33603  18.076  38.993  12.090
70045W        W33604  44.443  15.584  13.487
70046W        W33605  21.101  34.398   1.784
70047W        W33606  19.584   6.216   2.745
70048W        W33607  22.027   9.293  10.430
70049W        W33608   7.171  18.753  14.492
70050W        W33609   7.876   4.423   3.667
70051W        W33610  17.588  34.995  10.420
70052W        W33611  25.521   5.719  14.490
70053W        W33612  41.904  42.373  14.880
70054W        W33613  38.435   4.399   4.773
70055W        W33614   2.412  18.097   3.185
70056W        W33615  17.634  25.030   4.699
70057W        W33616  11.360  29.442  11.553
70058W        W33617  13.244  21.164   1.313
70059W        W33618  23.162  32.885  11.971
70060W        W33619  26.481  10.208  11.438
70061W        W33620  37.993  22.238  10.554
70062W        W33621  11.828  34.525   1.727
70063W        W33622  39.976  43.801  13.797
70064W        W33623  25.977  19.246   4.744
70065W        W33624  24.509  33.399   3.852
70066W        W33625  34.396   8.865   0.306
70067W        W33626  33.062   2.369   4.728
70068W        W33627   2.370  33.008   4.674
70069W        W33628  13.227   5.785   4.126
70070W        W33629  14.801  20.190   3.164
70071W        W33630   4.904   0.455   0.345
70072W        W33631   8.307  25.088  10.591
70073W        W33632  38.821  28.949   0.354
70074W        W33633  27.601  37.031  13.915
70075W        W33634  32.103  11.347  12.089
70076W        W33635  34.468  14.251   3.822
70077W        W33636  33.113  19.631  13.518
70078W        W33637  15.182  15.809  13.535
70079W        W33638  34.444  40.346  10.925
70080W        W33639  44.970   4.740   1.339
70081W        W33640  20.691  10.155  10.491
70082W        W33641  42.334   9.831   4.751
70083W        W33642   7.879  40.010  14.317
70084W        W33643  22.511  19.654  10.944
70085W        W33644  17.664  42.938   4.712
70086W        W33645  23.159  41.460  14.457
70087W        W33646  36.556   6.890   3.320
70088W        W33647  10.314  18.209   3.370
70089W        W33648  24.702  41.524   0.864
70090W        W33649  32.951  28.032   0.866
70091W        W33650  17.174   7.912   0.363
70092W        W33651  43.512  32.618   4.200
70093W        W33652  40.837  29.466   3.722
70094W        W33653  22.066  25.629  13.425
70095W        W33654  39.889  19.039   2.266
70096W        W33655  13.818  18.631  11.945
70097W        W33656  31.032  34.987   4.621
70098W        W33657  34.584  25.575   4.338
70099W        W33658  23.147  24.225   3.683
70100W        W33659  30.018  10.368  13.363
70101W        W33660  38.508   6.253   4.759
70102W        W33661  43.876  44.486  14.941
70103W        W33662  41.878  26.003   1.449
70104W        W33663  14.791  19.771  10.485
70105W        W33664  35.898  23.217  12.837
70106W        W33665   8.870  39.544  11.480
70107W        W33666  32.015   6.747  13.939
70108W        W33667   5.908  29.016  11.884
70109W        W33668   5.294   2.261   3.863
70110W        W33669  27.626  37.405   4.815
70111W        W33670  32.052  16.773   0.480
70112W        W33671  18.175  26.674  11.588
70113W        W33672  23.213  43.916  14.954
70114W        W33673  15.166   8.218   3.648
70115W        W33674   3.220  26.494   2.765
70116W        W33675   2.786   3.230   2.364
70117W        W33676  15.776  27.507  13.856
70118W        W33677  26.587  24.145   0.409
70119W        W33678  24.557   9.314   1.439
70120W        W33679  12.295  17.625  10.472
70121W        W33680  10.262  22.709  11.452
70122W        W33681  19.072  39.455  11.999
70123W        W33682  40.863  21.204   0.311
70124W        W33683  22.661  23.210   0.387
70125W        W33684  23.115   5.384  10.591
70126W        W33685  20.214  15.802  14.768
70127W        W33686  28.072  23.114   3.258
70128W        W33687  30.931  11.702  13.871
70129W        W33688  11.310  11.217   2.884
70130W        W33689  15.106  31.646  13.886
70131W        W33690  14.285  37.928  14.812
70132W        W33691  37.503   0.974  11.459
70133W        W33692  37.876  27.662  10.538
70134W        W33693  38.961  28.587   2.851
70135W        W33694  20.157   9.248  12.450
70136W        W33695   9.350  38.563   0.429
70137W        W33696  10.229   4.302  13.908
70138W        W33697  30.943  18.551   0.380
70139W        W33698  19.729  18.596   5.245
70140W        W33699  15.145   0.922  12.566
70141W        W33700  40.372  36.497   3.364
70142W        W33701  37.458  34.070   2.330
70143W        W33702   0.250  23.673   0.393
70144W        W33703  33.487  21.253  10.035
70145W        W33704  30.909  35.864   3.723
70146W        W33705  15.193  26.200   3.829
70147W        W33706   1.916  44.771  13.799
70148W        W33707   3.298   7.675  13.954
70149W        W33708   1.439  29.129  11.885
70150W        W33709  17.227  38.462  13.371
70151W        W33710  14.175  17.194   2.416
70152W        W33711  32.035  39.881  11.964
70153W        W33712  32.142  35.597  14.772
70154W        W33713   0.316  21.151  12.092
70155W        W33714   8.325   4.409   1.320
70156W        W33715   3.262  21.049   3.273
70157W        W33716  14.108  22.589  13.002
70158W        W33717   7.865  32.424   3.331
70159W        W33718  15.295  40.919  13.875
70160W        W33719  17.706  29.971   2.323
70161W        W33720  10.161  41.986  12.999
70162W        W33721  39.912  29.643   0.405
70163W        W33722  43.808  18.704   2.823
70164W        W33723  43.981  30.567   4.209
70165W        W33724  28.449  44.348  13.996
70166W        W33725  11.242   8.216  12.002
70167W        W33726  31.941  36.933  10.574
70168W        W33727  44.329  19.647   2.323
70169W        W33728  18.780  36.956   0.299
70170W        W33729  27.133  32.895  10.502
70171W        W33730  27.477  36.436  10.539
70172W        W33731  37.905  33.047   4.304
70173W        W33732  40.817  18.716  13.833
70174W        W33733  17.141  29.480   4.217
70175W        W33734  14.724   3.830   4.824
70176W        W33735  37.425  39.886   3.163
70177W        W33736  18.146   1.851   2.861
70178W        W33737   8.787  42.942   0.894
70179W        W33738  33.115  15.310  13.052
70180W        W33739  12.312  28.524   0.742
70181W        W33740  39.056  21.195  10.616
70182W        W33741  38.024  30.937   2.275
70183W        W33742  42.424  31.914  14.765
70184W        W33743  17.714  41.928  11.523
70185W        W33744  24.531  40.037   2.723
70186W        W33745  28.060  24.174  11.976
70187W        W33746  12.814  33.625  14.455
70188W        W33747  19.277  29.061   4.154
70189W        W33748  16.221  38.827  11.389
70190W        W33749  30.448  15.135   0.860
70191W        W33750  42.434  10.305   2.841
70192W        W33751  30.153   8.685  11.041
70193W        W33752   1.808  12.812  13.041
70194W        W33753  33.557  36.525   3.798
70195W        W33754  35.886  15.784  13.052
70196W        W33755   6.191   2.918  14.928
70197W        W33756  44.813   1.444  14.992
70198W        W33757  35.389  12.640  13.811
70199W        W33758  34.439  41.335  12.424
70200W        W33759  29.588   9.886   1.408
70201W        W33760  38.326   8.771  12.000
70202W        W33761  22.117  12.241  11.015
70203W        W33762  19.658  15.285   2.810
70204W        W33763  28.106   9.267   1.279
70205W        W33764   1.283  34.560  13.350
70206W        W33765   7.686  33.494   3.769
70207W        W33766  36.491  27.499  13.356
70208W        W33767  38.368  14.780  11.430
70209W        W33768  26.163  32.520  14.505
70210W        W33769  18.221  37.084   4.820
70211W        W33770   8.212  37.569   0.826
70212W        W33771  24.026   7.877   1.357
70213W        W33772  26.564  26.677  10.529
70214W        W33773   1.819  42.936  14.958
70215W        W33774   1.356  23.533   2.880
70216W        W33775   3.714   0.878  12.453
70217W        W33776  12.842   4.803   1.870
70218W        W33777  29.544  33.404   1.933
70219W        W33778  18.106  30.045  12.404
70220W        W33779  13.611   1.313  10.899
70221W        W33780  16.136   5.419   1.258
70222W        W33781  10.783  42.491   4.621
70223W        W33782  40.880  16.257   2.364
70224W        W33783  10.156  25.653  14.870
70225W        W33784  16.225  12.665  12.983
70226W        W33785  39.362  26.494  12.855
70227W        W33786   2.434  29.598   1.836
70228W        W33787  29.596  27.049   3.673
70229W        W33788  36.029  40.870  12.558
70230W        W33789  35.402  15.607  11.021
70231W        W33790  28.069  21.623   3.848
70232W        W33791  14.146  28.565  10.639
70233W        W33792  44.503  13.625   3.695
70234W        W33793   2.937  36.051  13.541
70235W        W33794  34.515   3.385   2.846
70236W        W33795  39.981  13.148  14.822
70237W        W33796  20.648  26.000   2.200
70238W        W33797  24.142  36.535   3.308
70239W        W33798   9.709   6.322  10.956
70240W        W33799  34.090  14.729   3.211
70241W        W33800  13.714  43.403  11.603
70242W        W33801  22.184  11.127  14.837
70243W        W33802  30.134   2.309   4.652
70244W        W33803   9.279  44.913  14.925
70245W        W33804  36.861  40.022   0.301
70246W        W33805  16.728  39.439   1.730
70247W        W33806  35.864   7.354   3.337
70248W        W33807  12.821   3.234  14.412
70249W        W33808   1.761  17.250   4.741
70250W        W33809  17.784   7.315   3.817
70251W        W33810   3.417  14.747  14.786
70252W        W33811  43.944   0.755   3.707
70253W        W33812  21.623  32.492   0.748
70254W        W33813  38.563  14.638   2.240
70255W        W33814  32.032  34.414   3.660
70256W        W33815  22.172   5.195   1.299
70257W        W33816  39.923   9.779   1.781
70258W        W33817  17.747   5.247  11.550
70259W        W33818  11.338  12.833   1.757
70260W        W33819   1.374  33.906  14.790
70261W        W33820  20.680   1.430   2.829
70262W        W33821  27.468  25.112   9.620
70263W        W33822   6.694  30.917   2.258
70264W        W33823  21.229   9.676  14.467
70265W        W33824  24.995   8.821   1.798
70266W        W33825   2.914   2.234  10.484
70267W        W33826  35.959  37.895   4.300
70268W        W33827  16.752  11.146  14.509
70269W        W33828  22.110   3.944  11.036
70270W        W33829  37.371  26.640   0.949
70271W        W33830  22.071  43.794  13.431
70272W        W33831  32.634  41.993  11.514
70273W        W33832   8.268  19.549  14.983
70274W        W33833  31.048  20.676  13.997
70275W        W33834   3.435  39.054   0.833
70276W        W33835  24.481  35.094   1.302
70277W        W33836  39.988  39.020  11.424
70278W        W33837   0.473  31.594  13.473
70279W        W33838  11.776  20.635   2.794
70280W        W33839  23.550  18.553   4.826
70281W        W33840  33.496  10.240   5.599
70282W        W33841  10.269  17.688   3.219
70283W        W33842  40.973  38.446   2.268
70284W        W33843  16.747   5.345  12.999
70285W        W33844  16.598  41.874   3.685
70286W        W33845  34.019  25.100   4.181
70287W        W33846  37.969  32.625  13.927
70288W        W33847  29.993  18.120  11.126
70289W        W33848   4.877  22.616  12.553
70290W        W33849  19.616   4.927  14.948
70291W        W33850  44.917  19.194  13.332
70292W        W33851   6.207   7.231  13.513
70293W        W33852   7.171  24.086  14.420
70294W        W33853  17.227  41.857   4.266
70295W        W33854  23.239  17.784   0.932
70296W        W33855  24.522  33.520  10.627
70297W        W33856  44.414  39.884  12.012
70298W        W33857  12.218  15.151  10.895
70299W        W33858  44.298   4.734  12.062
70300W        W33859  20.154  38.517  11.967
70301W        W33860  31.065  22.731   0.328
70302W        W33861   6.223   8.310  11.577
70303W        W33862  17.083  44.505   2.701
70304W        W33863  13.328  41.857  14.930
70305W        W33864  41.893  10.163  14.279
70306W        W33865  17.590   1.248  14.011
70307W        W33866   6.684   6.784   2.359
70308W        W33867  31.072  40.365   1.384
70309W        W33868  13.127  44.464   1.425
70310W        W33869  29.666  29.629   5.218
70311W        W33870  14.620  41.471  10.455
70312W        W33871  14.814  31.534   4.663
70313W        W33872   1.893  14.138  14.026
70314W        W33873   6.233  12.811   3.686
70315W        W33874  34.988  10.317   3.152
70316W        W33875  10.745  25.969   4.801
70317W        W33876  42.487  29.536  12.885
70318W        W33877  11.868  29.533   0.749
70319W        W33878  21.745  19.084  14.829
70320W        W33879  43.791  36.028  13.004
70321W        W33880   8.281   9.688  13.797
70322W        W33881  33.884  15.675  10.436
70323W        W33882   0.381   4.279  13.858
70324W        W33883   1.316  21.572   3.864
70325W        W33884   6.798  24.155   1.336
70326W        W33885  21.100  17.238   2.239
70327W        W33886  11.669  22.648   4.242
70328W        W33887  38.428  23.126  12.528
70329W        W33888  36.065  20.089   0.459
70330W        W33889  22.738   2.847   1.242
70331W        W33890  30.621  33.480   3.637
70332W        W33891  14.321   5.831   1.313
70333W        W33892  34.015  35.453  12.930
70334W        W33893  27.064  20.267   3.673
70335W        W33894   4.720  19.765   2.194
70336W        W33895  33.034  20.677  13.502
70337W        W33896  21.253  44.977  14.957
70338W        W33897  31.420  28.664   2.758
70339W        W33898  34.375  33.937   1.922
70340W        W33899  27.003  20.199   1.298
70341W        W33900   8.292  22.574   3.275
70342W        W33901  16.653  34.408  11.890
70343W        W33902  31.051  15.586   1.289
70344W        W33903  31.017   7.355  14.952
70345W        W33904  11.650  28.972   0.951
70346W        W33905   3.230  18.071  14.350
70347W        W33906   8.796  28.659  14.287
70348W        W33907  13.643  39.013   3.798
70349W        W33908  21.246  41.487   0.335
70350W        W33909  22.570   5.394   4.295
70351W        W33910  34.976  12.675   0.429
70352W        W33911  18.256  39.420   0.315
70353W        W33912  41.948   7.853   3.785
70354W        W33913  27.089  27.013  12.977
70355W        W33914  12.622   9.216  14.892
70356W        W33915  39.979  40.966   0.351
70357W        W33916  30.907  35.066  10.072
70358W        W33917  40.894  22.519  13.021
70359W        W33918  19.601  37.035  11.502
70360W        W33919  16.774   3.332  11.524
70361W        W33920   7.331  21.527  12.451
70362W        W33921   7.274  23.105  10.628
70363W        W33922  13.616  44.330  11.524
70364W        W33923  21.218  36.569   1.785
70365W        W33924  43.382   4.807   1.712
70366W        W33925  39.014   6.361   1.226
70367W        W33926  43.271  34.385   1.370
70368W        W33927  28.537  37.579  12.463
70369W        W33928  44.976  20.553   3.666
70370W        W33929  44.757  14.830   3.793
70371W        W33930  34.026  19.565  13.856
70372W        W33931   6.803  16.277   3.739
70373W        W33932  32.909   3.899  14.972
70374W        W33933   2.319   1.275   2.753
70375W        W33934  14.143  10.860   1.444
70376W        W33935  41.455  24.516  14.447
70377W        W33936  24.489  10.377   2.196
70378W        W33937  38.075  32.016   5.210
70379W        W33938  14.260  36.450  12.974
70380W        W33939  26.191  42.779   3.223
70381W        W33940  30.585  37.854   3.829
70382W        W33941  14.325   5.355  13.931
70383W        W33942   8.819  20.028  12.546
70384W        W33943  36.389  10.179  11.394
70385W        W33944  20.642   1.739   0.857
70386W        W33945   2.814   1.881  12.090
70387W        W33946  27.092  22.008   0.802
70388W        W33947  32.483  35.479   0.482
70389W        W33948  37.062   7.239   3.194
70390W        W33949  32.950  35.561   2.892
70391W        W33950   3.394  21.208  14.031
70392W        W33951   3.345  33.973  14.794
70393W        W33952  38.865   1.857  12.522
70394W        W33953  31.613   2.953  13.886
70395W        W33954  33.026  34.953  11.000
70396W        W33955   7.269  14.708  12.073
70397W        W33956  30.474  13.176  11.416
70398W        W33957   8.661  13.838   1.865
70399W        W33958  23.076  18.102   0.909
70400W        W33959  19.644  24.155  12.048
70401W        W33960  13.312  44.849   0.352
70402W        W33961  41.007  36.926   4.807
70403W        W33962   8.668  44.284  13.999
70404W        W33963   8.266  12.647   5.117
70405W        W33964  44.927  27.510  11.567
70406W        W33965   2.749  43.455   1.923
70407W        W33966  35.431   6.748  11.082
70408W        W33967   6.856  19.588  13.939
70409W        W33968   4.847  31.131   4.158
70410W        W33969  30.020  18.681   1.884
70411W        W33970  19.215  36.908   0.894
70412W        W33971  33.570  43.286   4.693
70413W        W33972  38.002  34.467  14.912
70414W        W33973  24.579  10.197   2.705
70415W        W33974  43.802  14.739  12.897
70416W        W33975  30.001  42.446   0.465
70417W        W33976   2.382  22.173   2.180
70418W        W33977   5.341  24.988   4.311
70419W        W33978   2.226   8.787  11.007
70420W        W33979   2.888  21.132  13.471
70421W        W33980  26.667  11.662  12.568
70422W        W33981  43.477  20.028  11.424
70423W        W33982   6.883   8.844   3.809
70424W        W33983  27.961  29.142   4.215
70425W        W33984  30.487   5.289  13.918
70426W        W33985  41.425   9.888   0.372
70427W        W33986  41.352  25.484  14.501
70428W        W33987   1.961  21.117   0.456
70429W        W33988  21.550  38.959   1.697
70430W        W33989  15.111  25.072  14.761
70431W        W33990   3.723  30.597   1.914
70432W        W33991  39.355  34.920   3.713
70433W        W33992  40.995  22.555  12.377
70434W        W33993  42.476  20.717   4.311
70435W        W33994   8.182  15.225   0.418
70436W        W33995  14.339  44.976  12.902
70437W        W33996   8.826  31.598   0.833
70438W        W33997  28.599  15.304  14.023
70439W        W33998  40.325  41.521  11.494
70440W        W33999   6.807  38.030   4.657
70441W        W34000  15.247  31.580  12.429
70442W        W34001  26.692  14.698   1.354
70443W        W34002  16.269  32.442   2.752
70444W        W34003  26.989  33.115   3.306
70445W        W34004  29.963  44.009   0.732
70446W        W34005  10.684  42.303  11.855
70447W        W34006   7.848  16.114  13.000
70448W        W34007  14.103  26.071  10.517
70449W        W34008  38.058  15.313  10.567
70450W        W34009  20.054  12.755   2.327
70451W        W34010  19.697   9.149  11.965
70452W        W34011  26.592  40.906   0.889
70453W        W34012  32.542  31.403   0.264
70454W        W34013  25.124  43.783   3.257
70455W        W34014  11.764  40.412  11.920
70456W        W34015  44.984  30.460   2.825
70457W        W34016  20.665   5.696  10.624
70458W        W34017  22.069  12.848  12.075
70459W        W34018  14.677  16.185  12.452
70460W        W34019  40.326  43.341   1.736
70461W        W34020  23.180  21.065   0.884
70462W        W34021  13.714  42.444  12.857
70463W        W34022   7.725   5.380   3.176
70464W        W34023  33.395  23.500  13.351
70465W        W34024  28.438   6.764  14.024
70466W        W34025  44.817   5.411  14.991
70467W        W34026  28.673  31.110   2.843
70468W        W34027   2.933  30.585   4.312
70469W        W34028  20.204  24.487  14.936
70470W        W34029  29.648   9.289  12.869
70471W        W34030  33.065   9.220  11.991
70472W        W34031  40.982   8.703   3.245
70473W        W34032   3.264  34.931  14.483
70474W        W34033  28.124   2.305   4.303
70475W        W34034  22.168  39.379   4.165
70476W        W34035  22.104   7.192  13.814
70477W        W34036  24.076  14.827   1.294
70478W        W34037  23.538  10.213  10.156
70479W        W34038  43.874  18.758   1.852
70480W        W34039  31.009  28.480  11.451
70481W        W34040  29.976  18.179   0.350
70482W        W34041  30.563  36.866   5.215
70483W        W34042  27.447   5.225   1.318
70484W        W34043  34.564  22.162  13.032
70485W        W34044  11.157   1.786  13.884
70486W        W34045  37.917   9.376   1.789
70487W        W34046  33.930   9.699  11.449
70488W        W34047  36.409  41.486  14.943
70489W        W34048  33.452  33.417  13.977
70490W        W34049  19.073  16.147   4.618
70491W        W34050  19.051   0.310  12.353
70492W        W34051   6.856   2.233  12.460
70493W        W34052  37.055  22.628  10.995
70494W        W34053  34.955  20.084   2.270
70495W        W34054   6.870  16.203  11.526
70496W        W34055  32.550  37.439   3.793
70497W        W34056   8.662  21.187   4.650
70498W        W34057  11.858   5.820   0.839
70499W        W34058  14.783  42.019  14.814
70500W        W34059  25.499  23.541  10.072
70501W        W34060  18.552  31.044   0.772
70502W        W34061   3.263  12.652  11.885
70503W        W34062  22.683   5.263   4.757
70504W        W34063  40.813  14.661  13.870
70505W        W34064  17.143   7.405  10.427
70506W        W34065  32.564  28.589  10.451
70507W        W34066  23.522  14.190  11.423
70508W        W34067   4.721  35.438   5.212
70509W        W34068  33.094  39.515  12.967
70510W        W34069  41.457  42.980  12.486
70511W        W34070   9.880   8.725   0.483
70512W        W34071   6.801  29.637   3.660
70513W        W34072  27.112  12.626   5.175
70514W        W34073  14.785  39.416   2.379
70515W        W34074  23.114   8.184  10.416
70516W        W34075   7.730  36.552   4.327
70517W        W34076  13.799  24.697  14.933
70518W        W34077  13.304  22.501   1.445
70519W        W34078  28.632  24.164   2.204
70520W        W34079   1.937   6.253   1.706
70521W        W34080  41.974  35.895   4.280
70522W        W34081  10.711  35.897   2.713
70523W        W34082  44.755  32.441  14.929
70524W        W34083  31.409  25.679  14.987
70525W        W34084  30.021  30.638   2.699
70526W        W34085  21.754  20.268  12.876
70527W        W34086  25.683  27.170  13.335
70528W        W34087  34.575  39.008   1.910
70529W        W34088  22.024  37.037  11.864
70530W        W34089  31.553  32.926   1.266
70531W        W34090  17.096  34.500  13.365
70532W        W34091   3.314  35.573   1.899
70533W        W34092   6.383   8.839  11.943
70534W        W34093  10.208  22.053  14.356
70535W        W34094  22.084  32.918   3.765
70536W        W34095   3.269  44.964  13.799
70537W        W34096  34.471  43.437  14.361
70538W        W34097   9.862  33.932   0.954
70539W        W34098   5.432  20.673   4.202
70540W        W34099  44.977  42.418  13.442
70541W        W34100  27.477  24.634  10.644
70542W        W34101  37.355  15.266  14.813
70543W        W34102  28.504   5.742  11.094
70544W        W34103   2.250  41.334  13.546
70545W        W34104   2.390  31.459  12.891
70546W        W34105  31.987  30.542   0.754
70547W        W34106  37.420  13.740  13.019
70548W        W34107  32.563   7.899   4.687
70549W        W34108   0.814  40.414   2.178
70550W        W34109   1.767  35.873   1.794
70551W        W34110  43.299  16.267   1.300
70552W        W34111  42.885  18.129   4.157
70553W        W34112  38.471  24.184   4.610
70554W        W34113  13.315  27.476   2.256
70555W        W34114  28.676   7.665   1.451
70556W        W34115   4.878   8.703   0.902
70557W        W34116  30.993  41.906   2.801
70558W        W34117  22.717  10.656   9.656
70559W        W34118   3.944  41.997  11.914
70560W        W34119  17.261  24.989  10.072
70561W        W34120  29.073  29.940  14.281
70562W        W34121  42.501  43.768   3.335
70563W        W34122  13.263  17.299   2.278
70564W        W34123  19.044  32.554  14.790
70565W        W34124  32.946  23.072   1.231
70566W        W34125  14.776  14.289   0.927
70567W        W34126  31.978  10.745  13.532
70568W        W34127   0.833  16.639  10.422
70569W        W34128  32.102  17.620   3.320
70570W        W34129  15.190  37.395  13.404
70571W        W34130  34.120  27.659   4.286
70572W        W34131  23.025  24.996  14.968
70573W        W34132  20.646  11.363   3.824
70574W        W34133  28.991   7.765   3.751
70575W        W34134  26.080  24.146  13.435
70576W        W34135  10.205  33.880  11.878
70577W        W34136  27.032  38.351   2.253
70578W        W34137   6.193  24.123   1.358
70579W        W34138  38.392  39.827  13.420
70580W        W34139  21.614   7.779   1.238
70581W        W34140  23.511  39.423   3.194
70582W        W34141  28.118  30.658   0.873
70583W        W34142  37.499  21.559  12.497
70584W        W34143  43.801  41.823   1.447
70585W        W34144  39.064  21.168  11.478
70586W        W34145  41.302  13.645   2.702
70587W        W34146   8.684   7.695  12.555
70588W        W34147   8.771  39.994  10.583
70589W        W34148  33.385   8.666   9.588
70590W        W34149  28.576  23.655  12.457
70591W        W34150  16.726  36.481   4.642
70592W        W34151  32.995  24.165   4.154
70593W        W34152  14.156  35.968  10.519
70594W        W34153  21.247  36.974   3.364
70595W        W34154  40.908  16.689  11.378
70596W        W34155  27.003  32.957  11.499
70597W        W34156   6.873  10.210  13.790
70598W        W34157   9.862  37.942   3.167
70599W        W34158  35.083   0.342   0.781
70600W        W34159  20.745  34.031  12.509
70601W        W34160  34.417  33.465  12.987
70602W        W34161   4.719  20.525  11.515
70603W        W34162  20.703  22.712  13.842
70604W        W34163  32.571  37.037  10.466
70605W        W34164  36.496  13.624  14.485
70606W        W34165  40.491  28.493  11.015
70607W        W34166  40.473  19.047   2.854
70608W        W34167   2.351   2.963   1.905
70609W        W34168  14.336  32.942   0.751
70610W        W34169   4.374  20.568  14.980
70611W        W34170   4.355  40.381  12.360
70612W        W34171  28.096  13.166  12.046
70613W        W34172   3.409  30.147  13.813
70614W        W34173  26.983  35.570  12.937
70615W        W34174  18.065  42.861  11.892
70616W        W34175  27.049   5.382   4.818
70617W        W34176  16.195  39.447  11.428
70618W        W34177   5.819  22.100   4.699
70619W        W34178   6.717  22.544  13.897
70620W        W34179  38.530  18.204  12.096
70621W        W34180  15.279  18.258  11.538
70622W        W34181  33.949  15.233   1.311
70623W        W34182   2.394  28.483  14.437
70624W        W34183  24.028  13.772  12.921
70625W        W34184   6.413  14.225   2.337
70626W        W34185  44.278   2.865  14.435
70627W        W34186  25.033  24.702   4.129
70628W        W34187  43.966  13.252   1.265
70629W        W34188  16.214  18.663  12.401
70630W        W34189  17.288  26.462   4.789
70631W        W34190  17.578  28.113   4.163
70632W        W34191  12.186   6.350  12.493
70633W        W34192  41.792   1.879  11.929
70634W        W34193  30.532  21.726  12.051
70635W        W34194  16.787  31.451  14.951
70636W        W34195  40.446  32.889  13.857
70637W        W34196  37.557  33.429  13.914
70638W        W34197  10.829  26.596   0.298
70639W        W34198   3.401  14.100   1.327
70640W        W34199  22.556   3.825   3.697
70641W        W34200  18.614   6.190  12.941
70642W        W34201  28.061  38.497   2.858
70643W        W34202   0.405  39.401  14.793
70644W        W34203  22.208  21.523   3.665
70645W        W34204  17.191  16.645   4.280
70646W        W34205   6.826  25.645  13.843
70647W        W34206  40.874  14.278  13.945
70648W        W34207  26.010  40.536  13.978
70649W        W34208  28.040  27.635  10.138
70650W        W34209  28.020   4.795   2.709
70651W        W34210  10.655  15.791   0.439
70652W        W34211   5.919  37.403  14.401
70653W        W34212  21.071  40.393  12.437
70654W        W34213  15.816  35.980  14.906
70655W        W34214   0.975  44.335   1.835
70656W        W34215  25.113   3.283  10.574
70657W        W34216  24.002   9.753   3.647
70658W        W34217  12.298  40.484   0.354
70659W        W34218   6.877  37.476  13.037
70660W        W34219  24.995   7.667  10.887
70661W        W34220   1.270  20.261  12.468
70662W        W34221   3.952   4.213   1.921
70663W        W34222  20.749  25.477   4.828
70664W        W34223  28.992   4.416  12.922
70665W        W34224   9.737  44.841   1.731
70666W        W34225  44.438   5.212   4.690
70667W        W34226   2.800   0.343  12.023
70668W        W34227   4.754  44.439  13.992
70669W        W34228  35.030   8.230  10.483
70670W        W34229  30.110   6.749   4.124
70671W        W34230  38.384  22.150   4.239
70672W        W34231  33.014   8.765  12.874
70673W        W34232  26.649  30.558   4.215
70674W        W34233   7.244  11.666  13.053
70675W        W34234   6.260  21.078   5.315
70676W        W34235   2.847  26.167   3.734
70677W        W34236  13.839  19.600   4.723
70678W        W34237  26.618  28.082  14.276
70679W        W34238  32.570  16.246  10.533
70680W        W34239  25.188   9.706   1.739
70681W        W34240   1.439  15.602   4.344
70682W        W34241   3.339   7.787   4.642
70683W        W34242  23.210  11.657   4.733
70684W        W34243  39.849  15.314   0.427
70685W        W34244  42.847  42.515   0.785
70686W        W34245   6.854  37.940   1.437
70687W        W34246  17.707  22.205   1.392
70688W        W34247  34.487  37.376   3.348
70689W        W34248  22.072  27.032   1.859
70690W        W34249  20.571  10.747   1.932
70691W        W34250  26.111  17.685  11.425
70692W        W34251  17.081  15.252   0.781
70693W        W34252  13.649   0.857  10.458
70694W        W34253   2.396  41.505  13.036
70695W        W34254   5.870  34.432  10.449
70696W        W34255  31.921  11.182  14.431
70697W        W34256  35.479  30.509  14.435
70698W        W34257  31.955  41.295  12.512
70699W        W34258  19.692  38.031   1.749
70700W        W34259   4.429  13.209  11.876
70701W        W34260   8.336  16.745  11.914
70702W        W34261  13.114  13.115  13.376
70703W        W34262   9.691   5.341   2.218
70704W        W34263  20.668  18.252   1.360
70705W        W34264  31.488  38.560   2.812
70706W        W34265   6.827  31.126  12.029
70707W        W34266  39.385  38.356   2.892
70708W        W34267  38.894  16.284  11.397
70709W        W34268  21.617  31.500   4.812
70710W        W34269  18.595   6.824   4.718
70711W        W34270  21.131  17.764  14.794
70712W        W34271  26.501  20.670  13.812
70713W        W34272  19.278  14.218   2.287
70714W        W34273  22.088  22.576   0.831
70715W        W34274  41.299  42.897  12.999
70716W        W34275  15.589  25.110   1.371
70717W        W34276  39.415  40.970   3.289
70718W        W34277  18.276  23.141   0.905
70719W        W34278  11.849  26.535  12.408
70720W        W34279  32.411  13.714  13.492
70721W        W34280  35.489  43.298  12.851
70722W        W34281  12.283  34.865  11.449
70723W        W34282  14.658  38.911  12.428
70724W        W34283  18.643  13.659   1.333
70725W        W34284   6.271  14.249  11.037
70726W        W34285   2.754  32.901   4.308
70727W        W34286  35.527  23.071  10.922
70728W        W34287  18.170  31.488  14.381
70729W        W34288  37.880  31.977   9.928
70730W        W34289  24.230   6.185   3.379
70731W        W34290  15.225  18.277   3.166
70732W        W34291  31.088   5.438   2.198
70733W        W34292  35.025   8.340   2.347
70734W        W34293   3.911  20.702   4.719
70735W        W34294  22.656   5.865  13.799
70736W        W34295  33.131  27.114   1.332
70737W        W34296   8.161   5.305  14.926
70738W        W34297  15.301  21.165  10.091
70739W        W34298  31.556  29.033   4.701
70740W        W34299  19.132  29.946  11.039
70741W        W34300  15.696  36.519  14.004
70742W        W34301  36.568  20.108  14.364
70743W        W34302  37.084  21.145   1.417
70744W        W34303  37.448  28.611   1.447
70745W        W34304  18.581   2.934   0.726
70746W        W34305  11.131  35.599  11.981
70747W        W34306  44.930  10.330   3.307
70748W        W34307  42.797  24.600   0.858
70749W        W34308  10.752  23.566  14.296
70750W        W34309   2.271  34.479   2.818
70751W        W34310  13.300  29.612  13.349
70752W        W34311  14.775   4.233  10.923
70753W        W34312  19.140  33.952   2.364
70754W        W34313  41.311   3.240   4.256
70755W        W34314   6.737  37.889  12.509
70756W        W34315  10.661  26.195   1.755
70757W        W34316  26.611  11.260   4.243
70758W        W34317  31.967  35.924  10.560
70759W        W34318  39.933  37.877   2.293
70760W        W34319   4.281  17.201   0.962
70761W        W34320  40.001  21.158   5.270
70762W        W34321  24.167  16.671   4.818
70763W        W34322  37.356  24.051   1.323
70764W        W34323  26.504  39.867   0.946
70765W        W34324   8.313  30.501  10.445
70766W        W34325  24.572   8.672  12.869
70767W        W34326  12.338  35.045  12.470
70768W        W34327   0.840   3.400  11.416
70769W        W34328  23.150  25.031  12.522
70770W        W34329  27.455  22.745  12.949
70771W        W34330  33.085  16.690  14.507
70772W        W34331  42.880  16.735   2.803
70773W        W34332  33.124   9.856   3.698
70774W        W34333  32.932   3.776  11.503
70775W        W34334  27.608  19.587   1.386
70776W        W34335  33.417   8.197   2.753
70777W        W34336  41.034  15.141   2.233
70778W        W34337  20.272  38.910  10.932
70779W        W34338  17.063  44.446   4.663
70780W        W34339  22.120   7.690  14.409
70781W        W34340  10.802  40.034  10.546
70782W        W34341  35.368  36.530   1.349
70783W        W34342  41.859  21.667  12.955
70784W        W34343  11.676  15.210  10.947
70785W        W34344  24.210  31.085  12.025
70786W        W34345  25.200  20.262   4.773
70787W        W34346  34.095  34.024   2.394
70788W        W34347  26.699  42.865   3.362
70789W        W34348  25.967  37.853   1.830
70790W        W34349  20.732  18.627  14.955
70791W        W34350   2.789  18.558  12.521
70792W        W34351   1.459  20.687  12.356
70793W        W34352  25.003  36.060   2.675
70794W        W34353   3.455  25.060  11.989
70795W        W34354  44.966  25.211   3.837
70796W        W34355  19.277  24.012  11.441
70797W        W34356  16.605   6.730   9.543
70798W        W34357  27.529  28.535  10.975
70799W        W34358  13.801  25.590   1.405
70800W        W34359  24.011  15.630   1.364
70801W        W34360   9.316  41.533   2.816
70802W        W34361   7.849   5.733  14.961
70803W        W34362  23.571  25.686  10.422
70804W        W34363  15.610  12.149  13.378
70805W        W34364   4.312  17.781   1.794
70806W        W34365  40.886  29.425   1.821
70807W        W34366  41.527  18.135   1.823
70808W        W34367  12.124   0.751  12.497
70809W        W34368  28.994  13.788  11.879
70810W        W34369  41.305  32.952  10.508
70811W        W34370  39.007   9.680   3.771
70812W        W34371  44.286   4.232  10.907
70813W        W34372  33.394  21.560   2.872
70814W        W34373  25.496  37.850   1.884
70815W        W34374  21.540  24.684  11.901
70816W        W34375   2.942  24.006  11.504
70817W        W34376  37.040  43.782  10.431
70818W        W34377  42.853  27.651   0.253
70819W        W34378  12.314  14.264  12.463
70820W        W34379  27.511   1.791  11.912
70821W        W34380  17.710  35.403  11.469
70822W        W34381   7.883   1.345   4.681
70823W        W34382  43.272  10.772  13.034
70824W        W34383  41.834  12.657   1.767
70825W        W34384  26.999   3.892   0.277
70826W        W34385  33.947  44.944  14.328
70827W        W34386  32.955  39.380   2.197
70828W        W34387  43.916  41.895   2.185
70829W        W34388   8.216  43.849   2.415
70830W        W34389  33.127   0.473  11.112
70831W        W34390  38.986  15.158  12.014
70832W        W34391  39.365   2.923   1.834
70833W        W34392  26.064  32.603  10.917
70834W        W34393  25.603  42.392   4.780
70835W        W34394   0.827   0.929  13.938
70836W        W34395   8.833  19.170  11.129
70837W        W34396  20.263   8.782   3.213
70838W        W34397  21.090  27.144   2.753
70839W        W34398  33.596   6.756  13.978
70840W        W34399  28.170   7.382   2.844
70841W        W34400  32.100  19.623   1.345
70842W        W34401  43.502  39.482   0.472
70843W        W34402  43.922  35.438   1.865
70844W        W34403  20.100  27.009   0.336
70845W        W34404   0.308   9.165  10.536
70846W        W34405  22.024  19.060   1.260
70847W        W34406  19.191   3.407   2.347
70848W        W34407  26.131  39.331   3.821
70849W        W34408   2.411  10.763   2.691
70850W        W34409   5.422  32.087   1.343
70851W        W34410  10.310  17.134  12.062
70852W        W34411  43.499   6.900  13.859
70853W        W34412   3.368  40.501   2.220
70854W        W34413  18.269   2.233  14.867
70855W        W34414   4.247  34.010   1.740
70856W        W34415  27.098   1.429  14.856
70857W        W34416  13.143  13.673   0.903
70858W        W34417  29.946  36.949  10.576
70859W        W34418  17.164  19.257  12.896
70860W        W34419  44.912  39.402  10.503
70861W        W34420  30.004   4.391   4.747
70862W        W34421  15.617  36.458  12.546
70863W        W34422  33.043   6.803   3.671
70864W        W34423  37.958  39.005   1.784
70865W        W34424  11.307  18.106   0.777
70866W        W34425  39.905  35.945  13.995
70867W        W34426  13.612  16.733  11.061
70868W        W34427  23.727   5.271  10.598
70869W        W34428  15.802  16.642   0.888
70870W        W34429   3.390   9.182   2.210
70871W        W34430  13.182  13.184  12.542
70872W        W34431  30.112   2.935  12.367
70873W        W34432  20.042   3.439  12.455
70874W        W34433   8.374  27.994   3.239
70875W        W34434  44.936  44.325  14.387
70876W        W34435   7.213  40.949   2.288
70877W        W34436   9.212   5.390  13.523
70878W        W34437   5.263   9.153  10.448
70879W        W34438   1.478  34.503  12.827
70880W        W34439  39.455  16.222  12.536
70881W        W34440  35.984  32.567   5.153
70882W        W34441   9.882  27.955   4.600
70883W        W34442  38.379   4.765   2.380
70884W        W34443  44.968  24.207   3.777
70885W        W34444   2.369   6.416  12.539
70886W        W34445  23.693   1.374  14.775
70887W        W34446  14.718  35.369   0.349
70888W        W34447  28.666  39.345  14.790
70889W        W34448  20.674   3.827   0.866
70890W        W34449  44.334  13.714   1.798
70891W        W34450   1.812  18.710   3.656
70892W        W34451  36.547  30.554  13.016
70893W        W34452  32.611   1.832   4.121
70894W        W34453   3.252  39.948   3.693
70895W        W34454   6.702  14.784   0.933
70896W        W34455   3.457  38.885   1.354
70897W        W34456  44.811  39.504  11.886
70898W        W34457  32.545  21.564  10.990
70899W        W34458   9.848  36.856   3.768
70900W        W34459  15.112  36.386   2.376
70901W        W34460  16.251  28.061   1.757
70902W        W34461  36.418  38.829   1.910
70903W        W34462  16.777  19.215  14.819
70904W        W34463  25.503  16.734  12.504
70905W        W34464  24.580  38.828   2.870
70906W        W34465  30.123  39.458   1.274
70907W        W34466   8.684  29.010  12.921
70908W        W34467  21.757  13.163  13.827
70909W        W34468  26.553   5.308   2.412
70910W        W34469   9.332  42.889   5.195
70911W        W34470  14.132  13.755  13.822
70912W        W34471  21.133  30.151   2.254
70913W        W34472  40.930  40.859  11.940
70914W        W34473  20.767  19.564  12.884
70915W        W34474  22.025  44.293   2.897
70916W        W34475   9.154  43.901   4.307
70917W        W34476  39.018  11.360  12.465
70918W        W34477   1.391   1.306  14.389
70919W        W34478   1.438  22.013  14.483
70920W        W34479  36.855  42.007  10.890
70921W        W34480  15.272  15.322   1.844
70922W        W34481  15.794  30.067   4.207
70923W        W34482  35.019  18.127   3.715
70924W        W34483  13.204  42.896   9.942
70925W        W34484  24.540   8.349  14.305
70926W        W34485  42.332  30.141  14.403
70927W        W34486  29.021  35.445  13.866
70928W        W34487  41.296  39.343  13.970
70929W        W34488  31.468   1.917   4.785
70930W        W34489  11.144   4.425   3.351
70931W        W34490  17.748  14.829  10.568
70932W        W34491  28.619  11.330  14.394
70933W        W34492   0.255  31.491  11.523
70934W        W34493  26.681  25.569  13.307
70935W        W34494  32.546  37.491  10.473
70936W        W34495  29.065  15.773  12.956
70937W        W34496  21.085   2.243  13.985
70938W        W34497   9.176   3.767  11.107
70939W        W34498  38.861  40.929  12.475
70940W        W34499   1.843  10.232   3.837
70941W        W34500  14.679   6.289   2.407
70942W        W34501  19.083  25.965  14.825
70943W        W34502   7.329  42.852  10.134
70944W        W34503  11.718  31.967   0.729
70945W        W34504  33.065  40.946  14.965
70946W        W34505  17.078   8.696  14.390
70947W        W34506  31.090  24.174  11.915
70948W        W34507   2.877   7.809  11.922
70949W        W34508  24.197   1.961   5.121
70950W        W34509  32.968  12.621   4.186
70951W        W34510  16.141  12.710  14.496
70952W        W34511  27.118  26.014   3.695
70953W        W34512  10.809  26.634   2.220
70954W        W34513  22.574  21.610  11.125
70955W        W34514  25.006  20.150   4.165
70956W        W34515   9.293  20.632   3.277
70957W        W34516  33.547  20.709  12.487
70958W        W34517  43.947  19.254  14.816
70959W        W34518   4.754   8.250  14.307
70960W        W34519  25.639   1.302  14.424
70961W        W34520  30.415  44.783   2.836
70962W        W34521  26.121   8.282   4.320
70963W        W34522  39.841  39.940  13.447
70964W        W34523  39.537   5.787  12.520
70965W        W34524  31.965  35.892  14.024
70966W        W34525  30.646  36.413  14.910
70967W        W34526  15.312  39.450  14.784
70968W        W34527   5.780   8.192   1.369
70969W        W34528  43.421   5.867   4.836
70970W        W34529  30.135  22.735   0.267
70971W        W34530  29.101  22.587   4.350
70972W        W34531  27.533   2.799  11.106
70973W        W34532   5.915  29.016   4.699
70974W        W34533  10.222  21.081   4.343
70975W        W34534  28.443   2.469  13.882
70976W        W34535  15.205   9.678   1.734
70977W        W34536  39.489  32.118   0.390
70978W        W34537  37.995  14.708  11.566
70979W        W34538  38.028  27.479   4.809
70980W        W34539  31.909  36.474   4.265
70981W        W34540  21.209  26.698  13.430
70982W        W34541   2.318  16.166   4.823
70983W        W34542  43.839  19.600   2.349
70984W        W34543  16.200  20.207   1.287
70985W        W34544  16.575   2.877   2.256
70986W        W34545   8.761  34.906   0.249
70987W        W34546  35.394  16.588   3.242
70988W        W34547  17.758  23.570   4.282
70989W        W34548   7.709   0.436   0.851
70990W        W34549   6.266  33.927  13.018
70991W        W34550  13.710  12.329  10.895
70992W        W34551  42.019  23.198  10.931
70993W        W34552  36.398   7.810  13.836
70994W        W34553  41.020   7.861   4.208
70995W        W34554  24.007  17.062   0.431
70996W        W34555  35.560   5.888  10.561
70997W        W34556  30.146   0.899  12.035
70998W        W34557   3.330   3.352  14.949
70999W        W34558   1.936  23.236  12.009
71000W        W34559  26.158   8.212  13.976
71001W        W34560   8.200  10.243   4.323
71002W        W34561  24.040  18.103   4.183
71003W        W34562  37.962  23.007   1.840
71004W        W34563   1.264   7.283   3.650
71005W        W34564  12.215  26.117   1.831
71006W        W34565  39.537  13.251  11.858
71007W        W34566  21.747  27.682   5.083
71008W        W34567  12.211   3.386  13.836
71009W        W34568  42.338   9.848   3.785
71010W        W34569  17.756   8.391   0.436
71011W        W34570  14.297  40.898   3.799
71012W        W34571   8.720   3.720   1.771
71013W        W34572  38.365  21.193   4.120
71014W        W34573  38.962  10.322  13.912
71015W        W34574   5.334  34.943   2.807
71016W        W34575  26.497  40.456   5.144
71017W        W34576  38.905  15.143   2.318
71018W        W34577   6.740   9.870  14.966
71019W        W34578  29.500   7.216   2.233
71020W        W34579  19.737   8.397   0.357
71021W        W34580  14.143  43.771   0.293
71022W        W34581  29.607  29.158  13.031
71023W        W34582  26.584  18.197   4.158
71024W        W34583  44.318  40.352   4.228
71025W        W34584  32.495  39.999  13.950
71026W        W34585  25.575   7.266  12.546
71027W        W34586  23.098  19.536  14.472
71028W        W34587   0.854   3.298   0.272
71029W        W34588  18.681  29.517   4.616
71030W        W34589  21.082  34.002   3.679
71031W        W34590   8.382  39.552  11.108
71032W        W34591  39.914  43.921  12.514
71033W        W34592  22.545  33.045   1.394
71034W        W34593  21.646  25.646  10.955
71035W        W34594  36.066  26.656  12.507
71036W        W34595  34.484  25.113   3.257
71037W        W34596  41.023  37.987  12.546
71038W        W34597  40.905  33.584  12.953
71039W        W34598   7.226  33.478  14.365
71040W        W34599   6.195  25.968   2.270
71041W        W34600  38.482   0.958  14.326
71042W        W34601  22.196  43.373   2.896
71043W        W34602  32.987  11.743   4.645
71044W        W34603  25.530  31.635   4.745
71045W        W34604  14.132  12.176   2.732
71046W        W34605  22.713   3.762  14.837
71047W        W34606  18.763  35.933   4.664
71048W        W34607  26.196  30.971  11.095
71049W        W34608  35.940   4.699   2.382
71050W        W34609  11.244   7.687   4.121
71051W        W34610   0.359  26.185   1.345
71052W        W34611  31.925   0.954  14.999
71053W        W34612  24.160  37.003   3.707
71054W        W34613  38.500   3.402  13.392
71055W        W34614  11.737  40.491  10.464
71056W        W34615  43.507  24.509  13.984
71057W        W34616  38.540  34.979   9.675
71058W        W34617  16.725  32.968   3.648
71059W        W34618   8.188   2.895   3.305
71060W        W34619  43.495  22.094  13.470
71061W        W34620  42.019   8.399   4.819
71062W        W34621   7.364  17.722   0.341
71063W        W34622  37.507   1.396   3.226
71064W        W34623   1.891  20.560   1.280
71065W        W34624  13.203   9.276  13.439
71066W        W34625   2.248   2.266   4.679
71067W        W34626   8.784  10.699  12.876
71068W        W34627   9.354   0.979   0.960
71069W        W34628  22.668   9.381   2.692
71070W        W34629  13.278   1.437  12.459
71071W        W34630   2.778  25.585   1.730
71072W        W34631  28.024  25.145   3.361
71073W        W34632  14.107  26.533   3.346
71074W        W34633  20.122   2.742   0.807
71075W        W34634  16.247  42.957  14.378
71076W        W34635  33.515  34.484  13.857
71077W        W34636   5.311  15.787   5.321
71078W        W34637  16.193  20.523   2.214
71079W        W34638   9.795  33.475   2.791
71080W        W34639  23.572   3.374   1.809
71081W        W34640  37.926   1.927   5.092
71082W        W34641  32.590  20.622  10.938
71083W        W34642  39.535  37.999  13.515
71084W        W34643  23.613  11.311  12.469
71085W        W34644  20.263  40.861   0.302
71086W        W34645  38.560  38.888   4.139
71087W        W34646  13.282  38.422   4.730
71088W        W34647  25.561  32.535  11.018
71089W        W34648   8.843  33.986  12.512
71090W        W34649   8.780  36.877  14.759
71091W        W34650  33.922  35.092   0.954
71092W        W34651  42.482   5.210  13.381
71093W        W34652  29.101  21.180  14.029
71094W        W34653  43.324   7.396   5.250
71095W        W34654   2.466  36.546  14.972
71096W        W34655  44.363  25.473  14.329
71097W        W34656  44.948  36.402  12.559
71098W        W34657  41.895  36.434  14.811
71099W        W34658   6.211  26.175  13.998
71100W        W34659   5.855   9.887   1.242
71101W        W34660  21.261  28.107  14.413
71102W        W34661   5.772   4.900  11.516
71103W        W34662  36.373  23.103   0.451
71104W        W34663  18.751  38.455  11.091
71105W        W34664  11.216  11.781   2.856
71106W        W34665  39.946  33.919   0.258
71107W        W34666  25.114  35.500   3.182
71108W        W34667  22.212  25.211  13.955
71109W        W34668  11.644  23.039   1.430
71110W        W34669  23.207   8.160  12.361
71111W        W34670  40.503  37.966  10.632
71112W        W34671  41.307  39.458  14.503
71113W        W34672  23.655  40.915   2.696
71114W        W34673  32.405   0.869  11.588
71115W        W34674  15.577  29.600   0.884
71116W        W34675  27.033   4.286  13.887
71117W        W34676   5.293  39.835  12.357
71118W        W34677  32.069  30.156  11.488
71119W        W34678  23.069  37.927  13.448
71120W        W34679  30.523  37.941   1.780
71121W        W34680  24.171  19.145   0.748
71122W        W34681  13.749  30.547   0.845
71123W        W34682  36.964   6.267  13.866
71124W        W34683   7.842  21.741  11.973
71125W        W34684  19.242  40.851  10.489
71126W        W34685  25.194   1.388   1.802
71127W        W34686  20.105  39.039  12.545
71128W        W34687  33.115  20.256   2.279
71129W        W34688  37.549  39.539  14.814
71130W        W34689  36.358   2.963   0.482
71131W        W34690  29.989   7.807   2.774
71132W        W34691  37.374  34.036  14.375
71133W        W34692  28.649   0.841   4.332
71134W        W34693  44.463   4.788  13.941
71135W        W34694  34.870  12.634   2.328
71136W        W34695  44.480  39.026  14.801
71137W        W34696  27.483  36.570   1.317
71138W        W34697  40.316  12.253   4.766
71139W        W34698  28.957  35.457   0.387
71140W        W34699  28.574  38.066   3.829
71141W        W34700  13.275  43.303   3.728
71142W        W34701   4.771   9.698  12.834
71143W        W34702   0.272   0.889   3.346
71144W        W34703   2.928  41.307  12.464
71145W        W34704   8.727  19.270   0.258
71146W        W34705  14.196   4.859   2.761
71147W        W34706  28.488   6.329   1.914
71148W        W34707  43.805  28.643   4.647
71149W        W34708  38.868   8.234   0.301
71150W        W34709  15.590  40.396   2.756
71151W        W34710  19.200   6.808   2.348
71152W        W34711   1.351  13.822   3.159
71153W        W34712   7.718   1.853   1.325
71154W        W34713   0.328  27.602  14.418
71155W        W34714  38.481  13.276  11.583
71156W        W34715  41.977   6.368   9.943
71157W        W34716  38.534  38.498  12.364
71158W        W34717  25.610  34.864   2.299
71159W        W34718  33.543   6.394  13.340
71160W        W34719  36.582  40.819  14.982
71161W        W34720  19.773  18.729   4.152
71162W        W34721  18.680  37.832  14.292
71163W        W34722  23.585  32.101  14.776
71164W        W34723   8.287  11.284  13.446
71165W        W34724  21.042  27.518  11.108
71166W        W34725  21.071  32.931   0.413
71167W        W34726   8.286  26.151   3.338
71168W        W34727  20.537  23.699  13.345
71169W        W34728   5.311  28.958   4.758
71170W        W34729  27.555  15.737  10.008
71171W        W34730  25.150  28.103   1.411
71172W        W34731  33.951  12.668   4.762
71173W        W34732  31.909  21.136   1.840
71174W        W34733   6.766  24.189  14.014
71175W        W34734  21.250   1.759  13.456
71176W        W34735  20.560  26.613  10.519
71177W        W34736  44.345  37.541  10.504
71178W        W34737  37.534   1.888   4.170
71179W        W34738   4.353  29.481  11.047
71180W        W34739   5.702  21.535  14.784
71181W        W34740  35.021   9.646  14.514
71182W        W34741  18.282  41.481   2.357
71183W        W34742  27.494  30.420   2.671
71184W        W34743  33.925  23.570   3.713
71185W        W34744  25.991  44.848   4.691
71186W        W34745  33.881  30.434   2.782
71187W        W34746  15.675  38.068   4.238
71188W        W34747  22.122  15.580  14.508
71189W        W34748  12.785  38.358  13.505
71190W        W34749   3.455  13.764  12.070
71191W        W34750  34.095  25.649  13.024
71192W        W34751  27.008  24.212   0.368
71193W        W34752   1.449  33.922  13.005
71194W        W34753  21.024  29.428   2.267
71195W        W34754  41.921  11.697  10.552
71196W        W34755  21.590   7.892   3.226
71197W        W34756   2.853  16.193   4.171
71198W        W34757  43.835   6.701   2.364
71199W        W34758  34.103  43.960  11.537
71200W        W34759   1.465  43.913  11.998
71201W        W34760   2.333  22.521  13.901
71202W        W34761  33.995  25.125   4.806
71203W        W34762  43.403  22.996   3.852
71204W        W34763  12.280  33.389  14.447
71205W        W34764  37.064  19.701   4.823
71206W        W34765  35.429  42.463   4.626
71207W        W34766  22.639  11.189  11.005
71208W        W34767  15.687  41.920  14.429
71209W        W34768  29.670  21.622  13.046
71210W        W34769   9.804  31.973  12.368
71211W        W34770  29.036   6.423   1.857
71212W        W34771  10.637  16.074  12.075
71213W        W34772  40.396  42.879   4.215
71214W        W34773  19.691  21.176  13.038
71215W        W34774  42.936  14.617  13.054
71216W        W34775  22.012  43.784   0.767
71217W        W34776  10.865  35.575   1.715
71218W        W34777  35.939  29.077   4.655
71219W        W34778  30.122  18.783  14.788
71220W        W34779  29.536  21.544   1.873
71221W        W34780  24.083  24.197  11.500
71222W        W34781  17.712  20.085   1.268
71223W        W34782  37.846  15.312   4.252
71224W        W34783  31.517  10.192  10.426
71225W        W34784  16.133  25.564   4.798
71226W        W34785   7.877   2.844  11.575
71227W        W34786  27.976  17.787  11.095
71228W        W34787  24.213  38.830  10.099
71229W        W34788  16.166  29.640   4.215
71230W        W34789  16.696   3.358   1.740
71231W        W34790  44.784  32.942  11.530
71232W        W34791  13.226  35.078  13.840
71233W        W34792   4.375  36.415   3.711
71234W        W34793  29.142  36.528   3.858
71235W        W34794  24.005  28.485   1.905
71236W        W34795  15.644  31.465  14.416
71237W        W34796   3.311   4.801   3.306
71238W        W34797   1.470   9.694  13.007
71239W        W34798  34.430  10.193  14.840
71240W        W34799  37.014  30.915   5.257
71241W        W34800  37.999   7.834  11.587
71242W        W34801  16.135   6.865   4.626
71243W        W34802   0.913  15.714  10.592
71244W        W34803  41.809  22.570   2.825
71245W        W34804  38.980  23.508  13.363
71246W        W34805  42.909  12.305  13.835
71247W        W34806  24.678  37.894  13.899
71248W        W34807  23.188  35.979   3.654
71249W        W34808  32.036  31.483  12.863
71250W        W34809  11.738  26.643  13.445
71251W        W34810  34.079   8.223   2.857
71252W        W34811  35.387   0.762   2.770
71253W        W34812  10.346  44.490   4.349
71254W        W34813   0.452  34.997   1.859
71255W        W34814  19.589  17.682  10.429
71256W        W34815  21.569  19.099  13.475
71257W        W34816   6.422  19.063   0.765
71258W        W34817  12.690   3.864   0.734
71259W        W34818   4.380  28.003   2.404
71260W        W34819  43.485  18.208   2.706
71261W        W34820  40.808  34.555  12.843
71262W        W34821  14.276   7.328   0.923
71263W        W34822  39.557  31.916  12.907
71264W        W34823  30.927   9.207  11.992
71265W        W34824  34.068  21.625  14.417
71266W        W34825  28.141  26.094  10.498
71267W        W34826   1.929  20.571   2.749
71268W        W34827  37.553  23.988   0.773
71269W        W34828  34.499  25.656  13.905
71270W        W34829  19.072  20.750   1.884
71271W        W34830  24.514  33.012   2.221
71272W        W34831  28.525   2.434  12.418
71273W        W34832  34.451  38.421   4.276
71274W        W34833   7.746  34.379  13.970
71275W        W34834  30.079  16.594   1.278
71276W        W34835  37.540  35.369  10.539
71277W        W34836  13.121   1.882  11.550
71278W        W34837  35.062  37.355  14.999
71279W        W34838  35.959  40.971   3.679
71280W        W34839  26.471  34.952  13.503
71281W        W34840  40.360  17.110   4.186
71282W        W34841  40.368  38.428  10.427
71283W        W34842   9.685  27.555  13.062
71284W        W34843  31.641   2.776   4.712
71285W        W34844  18.700   8.707  12.833
71286W        W34845  14.129  41.527  13.314
71287W        W34846   4.844  11.697  13.907
71288W        W34847  10.874  26.203   2.342
71289W        W34848  37.437  22.573   3.789
71290W        W34849  31.148   1.483  11.919
71291W        W34850   6.385  40.975   0.467
71292W        W34851  27.560  39.539   4.726
71293W        W34852  40.356   4.890   2.385
71294W        W34853  31.572  39.331  14.841
71295W        W34854  30.059  43.835   3.696
71296W        W34855  31.106  37.560  11.115
71297W        W34856   2.358  34.052   3.813
71298W        W34857  18.686  37.845   0.278
71299W        W34858   8.222  18.102  10.985
71300W        W34859   4.915  18.791  14.398
71301W        W34860  24.036  16.646  14.388
71302W        W34861   1.254  27.515  12.837
71303W        W34862  41.476  14.112  13.377
71304W        W34863  26.958  20.173   4.269
71305W        W34864   4.822  14.810   4.200
71306W        W34865  25.644  44.948   1.704
71307W        W34866  35.998  36.885  10.584
71308W        W34867  13.784  23.690  14.917
71309W        W34868  35.408  29.669  10.601
71310W        W34869  32.619  32.110  10.090
71311W        W34870   4.233   7.201  12.070
71312W        W34871  26.544  40.894   3.716
71313W        W34872  43.906   5.823   1.429
71314W        W34873  21.638   0.404  12.962
71315W        W34874   5.251  44.491  11.883
71316W        W34875  18.121  27.185  14.023
71317W        W34876   9.688  12.809   0.416
71318W        W34877  38.549  25.667  14.883
71319W        W34878  21.525  33.445   4.186
71320W        W34879  18.186  20.086  11.020
71321W        W34880   4.937  27.181  14.968
71322W        W34881  37.852  23.129  12.937
71323W        W34882   0.847  16.155   3.864
71324W        W34883  44.782  25.591  11.535
71325W        W34884  24.001  11.131  12.954
71326W        W34885  35.020  29.980  13.964
71327W        W34886  41.980  18.274  11.981
71328W        W34887  23.496  37.040  12.064
71329W        W34888   0.810  11.794  14.498
71330W        W34889  23.166  29.000   3.370
71331W        W34890   3.846   2.929  12.083
71332W        W34891   9.332  39.000  13.540
71333W        W34892  33.089  30.608   0.258
71334W        W34893  27.567  10.732  10.953
71335W        W34894  41.016  28.676  12.869
71336W        W34895  16.305   4.410  14.920
71337W        W34896  10.653   1.365   0.312
71338W        W34897  41.973  18.583   2.190
71339W        W34898  39.347   7.858   2.669
71340W        W34899  12.724  43.447  14.920
71341W        W34900  41.865  12.294  13.906
71342W        W34901  39.441  19.724  13.939
71343W        W34902  26.687  33.029  14.275
71344W        W34903  18.077   2.445  13.022
71345W        W34904   4.920  44.903   3.705
71346W        W34905  15.759  16.311  12.867
71347W        W34906  37.974  12.780  13.506
71348W        W34907  13.699  10.307   1.292
71349W        W34908  39.365  29.555   4.190
71350W        W34909  34.372  29.008   0.381
71351W        W34910   9.693  40.920  13.541
71352W        W34911   9.664  22.677   3.261
71353W        W34912   1.789  13.617   0.832
71354W        W34913  34.615  24.132   0.354
71355W        W34914  11.642  37.867   3.148
71356W        W34915   6.789  28.166   3.318
71357W        W34916  24.548  18.223  11.538
71358W        W34917  23.161   9.154   4.168
71359W        W34918  23.730  11.275   4.351
71360W        W34919  34.950  17.285  13.932
71361W        W34920  13.646  43.292  12.491
71362W        W34921   3.339  32.449   0.265
71363W        W34922  24.068   1.413   4.659
71364W        W34923  20.111  42.999  11.967
71365W        W34924  41.455  35.993   3.349
71366W        W34925  28.020  21.625   2.319
71367W        W34926   4.941   0.909  13.868
71368W        W34927  32.471   2.444   3.272
71369W        W34928  44.994  24.607   0.736
71370W        W34929  40.866  44.428   1.293
71371W        W34930   2.944   8.287  10.974
71372W        W34931   7.346  28.495  10.527
71373W        W34932  24.537  18.560   3.171
71374W        W34933  25.093  32.512   2.667
71375W        W34934  27.452  42.328  12.444
71376W        W34935   4.432  27.484   3.353
71377W        W34936  44.456   5.788   4.735
71378W        W34937  29.004  21.188   0.366
71379W        W34938  34.570   4.737   0.784
71380W        W34939  20.254  37.565  14.029
71381W        W34940  14.130  42.422   1.401
71382W        W34941  11.142   1.811   3.818
71383W        W34942  32.009  36.403   2.825
71384W        W34943  11.351  26.647   1.815
71385W        W34944  30.025  18.106  13.063
71386W        W34945  12.128  18.586  13.964
71387W        W34946   6.341  24.665  14.790
71388W        W34947  32.918  15.106   2.329
71389W        W34948  21.688  41.942  10.450
71390W        W34949  30.965  36.383   3.739
71391W        W34950  25.584   1.339  13.861
71392W        W34951  10.757  30.523   4.216
71393W        W34952  26.582   8.733  10.103
71394W        W34953  18.188  29.493  11.865
71395W        W34954  10.722  27.487   3.243
71396W        W34955   2.299  31.139  11.410
71397W        W34956  41.832  34.118  12.505
71398W        W34957  26.598  38.331   3.724
71399W        W34958  34.462  36.408  12.069
71400W        W34959  14.154  27.659  11.451
71401W        W34960  20.594  27.502   1.331
71402W        W34961  42.874  15.786   5.166
71403W        W34962  14.599  10.197   2.279
71404W        W34963   4.204  21.070  13.832
71405W        W34964  30.973  11.231  14.506
71406W        W34965  18.603  12.774  11.922
71407W        W34966   4.277  42.015   3.788
71408W        W34967  17.714  33.024  13.955
71409W        W34968  33.883  27.980  13.938
71410W        W34969  24.509  14.304   0.270
71411W        W34970  40.856   2.745   3.689
71412W        W34971  40.840  15.786   3.347
71413W        W34972  28.049  19.248   4.173
71414W        W34973  28.158   3.776   3.163
71415W        W34974  19.614  44.876   1.831
71416W        W34975  38.881  30.530   0.278
71417W        W34976   4.895  23.555   0.369
71418W        W34977   7.912   0.270  12.897
71419W        W34978   5.388  40.399  11.518
71420W        W34979  33.444   4.261  14.801
71421W        W34980  21.513  15.777   0.954
71422W        W34981  14.681  39.351  11.007
71423W        W34982   9.867  20.123  15.000
71424W        W34983   9.360  40.453  14.779
71425W        W34984  24.069   5.899   4.738
71426W        W34985  25.062  42.398  13.808
71427W        W34986  31.043  15.189   3.756
71428W        W34987  28.637  13.218   0.308
71429W        W34988   3.457  26.512   3.828
71430W        W34989  29.490  44.377   9.984
71431W        W34990   8.257  20.609   3.835
71432W        W34991  13.817   3.377   1.233
71433W        W34992  15.193  38.558  14.915
71434W        W34993   5.299   2.812   2.258
71435W        W34994  26.055   1.862   2.714
71436W        W34995  31.471   8.857  11.013
71437W        W34996  38.500   6.785  14.768
71438W        W34997   1.973  25.633  13.379
71439W        W34998  25.696  32.430  12.020
71440W        W34999  18.157  32.001   3.208
71441W        W35000  22.643  26.618  12.444
71442W        W35001  37.050   2.804  14.456
71443W        W35002  13.826  42.294  11.553
71444W        W35003  32.126  10.380   3.213
71445W        W35004  14.734  17.065  12.835
71446W        W35005  23.731  43.792   0.776
71447W        W35006   5.910  16.799   3.192
71448W        W35007   5.700  23.069  12.547
71449W        W35008  30.612   8.835   3.820
71450W        W35009   4.756   0.970   3.777
71451W        W35010  43.906  17.132  14.332
71452W        W35011  29.652  17.606  14.378
71453W        W35012  26.476  34.583   3.244
71454W        W35013  23.692  18.248  13.374
71455W        W35014   5.768  44.851  10.459
71456W        W35015  17.640  14.602   1.288
71457W        W35016  31.927  13.634   2.815
71458W        W35017   5.206  22.083  12.419
71459W        W35018  36.478  34.869  11.911
71460W        W35019  12.677  13.686  10.564
71461W        W35020  19.052  16.245  11.066
71462W        W35021  34.446  33.901   1.415
71463W        W35022  24.488  24.135  14.891
71464W        W35023  10.233   9.269   0.799
71465W        W35024   6.875   2.745  14.024
71466W        W35025  32.022  43.494  14.487
71467W        W35026  44.764  21.620  14.802
71468W        W35027   3.932  26.011   2.249
71469W        W35028   7.697  31.575   1.233
71470W        W35029  18.736  35.873   2.222
71471W        W35030  13.207  41.461   3.192
71472W        W35031  10.361  40.464  14.843
71473W        W35032  13.825  15.756  12.523
71474W        W35033  43.291  22.571  12.484
71475W        W35034  32.061  24.576  11.464
71476W        W35035  10.662   3.342  12.527
71477W        W35036   5.778  19.607   0.386
71478W        W35037  22.717   9.843   4.725
71479W        W35038  34.404  17.277   2.382
71480W        W35039  30.503  13.324   1.389
71481W        W35040  31.143  28.587  11.102
71482W        W35041  23.216   5.885  11.463
71483W        W35042   3.228  17.177  11.963
71484W        W35043  41.538  10.841   4.643
71485W        W35044   6.868  31.441   1.705
71486W        W35045  34.383   7.849   0.752
71487W        W35046   3.816  27.510  13.965
71488W        W35047  15.707  40.425  12.359
71489W        W35048  38.511  23.104  14.506
71490W        W35049  22.522  29.492  14.477
71491W        W35050   8.350  12.210   4.783
71492W        W35051   6.761  27.101   3.728
71493W        W35052  40.889  26.188  12.006
71494W        W35053  17.733  22.597  12.947
71495W        W35054   7.199  21.572   3.294
71496W        W35055  43.857  10.200  13.872
71497W        W35056  13.638  15.327  12.451
71498W        W35057  14.259  18.057  13.933
71499W        W35058  19.681  37.006  13.442
71500W        W35059  35.045  21.249   1.218
71501W        W35060  39.819   4.239   1.806
71502W        W35061  11.714  14.203   5.169
71503W        W35062  32.917  23.150   3.282
71504W        W35063  19.733  41.890   0.453
71505W        W35064  33.127  37.915  11.863
71506W        W35065  15.294  28.081  14.327
71507W        W35066  30.024  35.088   1.309
71508W        W35067  22.043  36.932  14.275
71509W        W35068  13.336  35.944   4.148
71510W        W35069  14.124  32.470  13.491
71511W        W35070  42.406   7.296   0.950
71512W        W35071  43.935  26.027   1.883
71513W        W35072   9.274  43.348  10.974
71514W        W35073  31.067  20.069  12.931
71515W        W35074  33.505  10.254   2.329
71516W        W35075  31.416  27.062  13.503
71517W        W35076  14.330  31.560   1.694
71518W        W35077  10.222  32.909   4.294
71519W        W35078  20.533   8.316  14.432
71520W        W35079  13.127  39.490  14.489
71521W        W35080  12.685  12.812  13.941
71522W        W35081  24.014   3.876  13.868
71523W        W35082  28.451  22.075  13.434
71524W        W35083   1.765  24.008  13.349
71525W        W35084  28.638  16.196  14.899
71526W        W35085   5.813  42.405   2.889
71527W        W35086  42.873  13.834  14.765
71528W        W35087   8.881  19.540   4.652
71529W        W35088  15.766  29.086   2.208
71530W        W35089  38.908  34.371   2.226
71531W        W35090  31.094  28.064   0.826
71532W        W35091  31.047  41.440   4.331
71533W        W35092  29.590  12.325  12.005
71534W        W35093  26.625  27.663   2.738
71535W        W35094  27.660  14.338  10.593
71536W        W35095  14.158   1.387   0.957
71537W        W35096  33.008  12.722   0.443
71538W        W35097  34.049  13.743   0.274
71539W        W35098  19.274  23.012   0.836
71540W        W35099  38.399  18.676   1.753
71541W        W35100  29.082  14.182   1.280
71542W        W35101  33.434  32.904  11.921
71543W        W35102  18.564  16.198   2.325
71544W        W35103  27.632  36.087  11.043
71545W        W35104   7.878   5.260  13.324
71546W        W35105  44.273  26.509  10.494
71547W        W35106  10.860  22.732   9.948
71548W        W35107  16.280  38.526  13.955
71549W        W35108  11.132  24.135  12.889
71550W        W35109  18.707   7.794   1.304
71551W        W35110  24.093  44.385  10.147
71552W        W35111   7.361  12.821   9.484
71553W        W35112  44.950  43.933  11.457
71554W        W35113  34.008  42.004  14.375
71555W        W35114  18.749   0.822   3.313
71556W        W35115   6.367  29.958  10.015
71557W        W35116  28.628  15.714  13.433
71558W        W35117  42.835  30.463   2.863
71559W        W35118  30.156  32.450   1.422
71560W        W35119  16.297   3.842   2.794
71561W        W35120   6.746  38.352   4.266
71562W        W35121  35.560  17.705  13.358
71563W        W35122   3.461  44.759   4.228
71564W        W35123  21.678  13.252  14.507
71565W        W35124  42.894   0.443  11.590
71566W        W35125  31.967   9.316   3.770
71567W        W35126  34.576   4.797   1.854
71568W        W35127  33.886  16.224   3.833
71569W        W35128  41.337  14.789   1.703
71570W        W35129  27.170  11.801  14.833
71571W        W35130   2.463  34.923  11.866
71572W        W35131  27.612  27.104   0.348
71573W        W35132  41.351  15.171  14.957
71574W        W35133  26.566  36.564  11.020
71575W        W35134  28.083  22.514   1.897
71576W        W35135   8.256  42.937  11.033
71577W        W35136  15.085  16.308  13.816
71578W        W35137   7.202  33.400  12.861
71579W        W35138  34.577  10.238  12.869
71580W        W35139   7.879  27.068   1.302
71581W        W35140  41.297  44.398   1.435
71582W        W35141   7.764  39.524  11.597
71583W        W35142  31.520  16.798  12.580
71584W        W35143  11.188   7.828   2.407
71585W        W35144  31.103  36.051  12.946
71586W        W35145  13.843   0.265  10.924
71587W        W35146  18.725  13.771  12.019
71588W        W35147  23.028   4.424  11.373
71589W        W35148  10.698   9.687  11.014
71590W        W35149   4.437  39.954  12.876
71591W        W35150   2.379  31.150  11.855
71592W        W35151  39.833   7.746   4.249
71593W        W35152  34.076  26.143   2.819
71594W        W35153  31.433   0.881  12.541
71595W        W35154  15.164  16.718  14.346
71596W        W35155   8.665  29.100   1.394
71597W        W35156  22.084   6.826  11.046
71598W        W35157  11.629  10.203  10.516
71599W        W35158  19.671  39.485  13.354
71600W        W35159  42.987  31.414   1.344
71601W        W35160   1.960  17.579  12.841
71602W        W35161  30.617  26.510   0.462
71603W        W35162  22.173  26.973   0.361
71604W        W35163  41.500   5.323   3.201
71605W        W35164  21.707  38.076  14.962
71606W        W35165  13.352  18.702  14.794
71607W        W35166  19.167  19.603   3.325
71608W        W35167  18.622  40.944  12.400
71609W        W35168  11.699  28.169   3.354
71610W        W35169  36.007   5.868  14.892
71611W        W35170  39.313   3.718  11.946
71612W        W35171  17.788  28.658  10.910
71613W        W35172  14.646  22.624  10.001
71614W        W35173   1.877   6.678   1.340
71615W        W35174  36.886  11.260  14.412
71616W        W35175  35.009  43.491  10.468
71617W        W35176  25.675  39.504  12.490
71618W        W35177   3.745  41.901   4.205
71619W        W35178   9.389   9.801   1.371
71620W        W35179  11.741   2.924  10.974
71621W        W35180  42.352  28.437   1.924
71622W        W35181  34.406   7.767   5.656
71623W        W35182  29.127  37.962   1.864
71624W        W35183   8.193  42.384   0.318
71625W        W35184  25.007   7.303  14.769
71626W        W35185  39.343  36.891   2.840
71627W        W35186  44.914   2.283   4.705
71628W        W35187   4.341   7.768   1.892
71629W        W35188  26.621  10.342   0.944
71630W        W35189   6.279   1.448   0.304
71631W        W35190   0.280  32.586  12.513
71632W        W35191  28.146   0.407  14.322
71633W        W35192   6.233  15.295  12.438
71634W        W35193  18.149   8.174  11.002
71635W        W35194  28.648   0.760  12.427
71636W        W35195  32.949  24.988   4.195
71637W        W35196  37.496  43.000   2.678
71638W        W35197  19.641  33.575   5.116
71639W        W35198  29.075  19.756  11.919
71640W        W35199  21.636  24.637  13.964
71641W        W35200   6.197  16.277  12.086
71642W        W35201  10.779   5.387  11.972
71643W        W35202  30.578   4.245   2.758
71644W        W35203  29.117   0.425   2.860
71645W        W35204  35.899  24.495   4.115
71646W        W35205  19.659  13.656   3.739
71647W        W35206  10.835  33.425  12.050
71648W        W35207  36.550  44.872  14.770
71649W        W35208   2.406  30.549  14.026
71650W        W35209  19.645  25.066   1.723
71651W        W35210  44.997  22.066   3.302
71652W        W35211  42.388  41.791   1.894
71653W        W35212   4.252  43.796   2.376
71654W        W35213  11.683  14.274  10.507
71655W        W35214  22.127  17.698  14.938
71656W        W35215  23.165   4.851   0.453
71657W        W35216   9.277  37.451   3.677
71658W        W35217  39.823   3.789  12.973
71659W        W35218  36.898   3.382   1.336
71660W        W35219  18.656  19.660   3.365
71661W        W35220  33.596  40.540  10.941
71662W        W35221  26.484  26.031  12.460
71663W        W35222  34.571   5.781   0.963
71664W        W35223  21.075  31.522  10.119
71665W        W35224   4.853  34.029   4.598
71666W        W35225  19.577  37.056   1.341
71667W        W35226  36.591  29.096  12.849
71668W        W35227  25.698  41.429  12.965
71669W        W35228  23.551  19.766   0.804
71670W        W35229  34.373  11.680  10.151
71671W        W35230  33.533  26.628  11.393
71672W        W35231  19.180  19.200  12.951
71673W        W35232  29.129  24.013  10.570
71674W        W35233  33.901  42.302  13.473
71675W        W35234  26.540  39.408  10.494
71676W        W35235   5.256  29.176   3.209
71677W        W35236  32.111   9.349   1.730
71678W        W35237  39.520  30.133   4.352
71679W        W35238  33.390  44.844  12.541
71680W        W35239  25.538  12.740  13.961
71681W        W35240  21.754  24.180  14.382
71682W        W35241  21.630  33.070  14.395
71683W        W35242   1.754  27.478   0.314
71684W        W35243   5.819   4.815   4.209
71685W        W35244   9.309  32.495   1.242
71686W        W35245   1.478  42.932   5.250
71687W        W35246  35.467   3.377   2.276
71688W        W35247  27.972  10.751  14.857
71689W        W35248  23.576   3.303  13.420
71690W        W35249   2.237   1.319  12.435
71691W        W35250  13.834  28.151   2.249
71692W        W35251   9.740  42.942   1.380
71693W        W35252  41.979  29.527   4.628
71694W        W35253  32.988   0.324  13.363
71695W        W35254  39.026  20.221  11.888
71696W        W35255  43.826   2.887   4.774
71697W        W35256  42.372  18.143   4.736
71698W        W35257  10.752   8.280   2.380
71699W        W35258  33.010  33.006   4.222
71700W        W35259  27.131  11.128  13.841
71701W        W35260  20.213  42.482  11.537
71702W        W35261  37.500  31.123  13.907
71703W        W35262  38.027  15.744   4.621
71704W        W35263  16.147  11.142  11.025
71705W        W35264  24.205  38.493   1.394
71706W        W35265  12.820   5.715  13.348
71707W        W35266  33.436  16.656   4.762
71708W        W35267  37.563   7.233   3.847
71709W        W35268  27.048   1.890   3.789
71710W        W35269  24.166  12.784  12.075
71711W        W35270  19.179   0.442   0.750
71712W        W35271  25.581  35.031  13.497
71713W        W35272  36.539  31.453   0.834
71714W        W35273  19.551   2.954   0.375
71715W        W35274   8.214  14.801  13.064
71716W        W35275  18.124   9.151   2.820
71717W        W35276  33.527  27.546  12.522
71718W        W35277  40.053  26.703  10.989
71719W        W35278  27.662  36.441  13.383
71720W        W35279  31.621   5.785  14.467
71721W        W35280  25.472  26.559   1.694
71722W        W35281   7.877  39.029  10.919
71723W        W35282  18.266   1.883  12.359
71724W        W35283  42.975  34.941   1.344
71725W        W35284  38.841  11.236   0.788
71726W        W35285  36.970  36.996   3.374
71727W        W35286  28.456  38.921   2.312
71728W        W35287  39.031   5.226  12.529
71729W        W35288   2.844  30.514   0.904
71730W        W35289  12.807   5.881  12.557
71731W        W35290  42.338  13.133  10.903
71732W        W35291  27.586   4.257  14.284
71733W        W35292  16.219  25.973   0.301
71734W        W35293   5.757  32.090   0.278
71735W        W35294  24.228  35.370   3.646
71736W        W35295   8.308  10.823   3.848
71737W        W35296  17.081  22.503  10.977
71738W        W35297   5.239  42.919  10.407
71739W        W35298  19.552  35.903  12.037
71740W        W35299  43.891  28.130  12.937
71741W        W35300  30.121  13.276   2.822
71742W        W35301  11.290  11.764   1.918
71743W        W35302  42.783  25.610   0.772
71744W        W35303  37.427  23.072  14.370
71745W        W35304  12.311   2.902  10.414
71746W        W35305   6.266  11.231   0.294
71747W        W35306  26.520  24.650  14.441
71748W        W35307  35.377  33.063   2.884
71749W        W35308  35.020  38.846   3.330
71750W        W35309  14.320  23.651  12.923
71751W        W35310  44.280   0.872   1.917
71752W        W35311   7.711   7.834   0.821
71753W        W35312  15.270  25.665  11.092
71754W        W35313  24.204  13.786  11.905
71755W        W35314   3.310  14.673   2.797
71756W        W35315   3.904   5.342   2.813
71757W        W35316  40.962  35.097  10.970
71758W        W35317   3.752  31.149  14.497
71759W        W35318  23.179   7.895   2.662
71760W        W35319  25.699  33.586  13.984
71761W        W35320  13.822  15.713  10.938
71762W        W35321   2.450  24.133  12.463
71763W        W35322  29.612  31.981  14.795
71764W        W35323  21.717  12.292   3.259
71765W        W35324   7.244  17.565   1.704
71766W        W35325  22.521   8.857  11.856
71767W        W35326  11.194  18.613  12.471
71768W        W35327  18.102  40.362  10.577
71769W        W35328   9.810  35.049  14.454
71770W        W35329   2.267  44.762   3.674
71771W        W35330  33.958  22.179   4.748
71772W        W35331  26.054  26.614   1.289
71773W        W35332  34.899   8.360   5.611
71774W        W35333  30.061  37.440   2.715
71775W        W35334  13.813  11.805   0.875
71776W        W35335  17.185   8.190  13.840
71777W        W35336  20.210  28.517  13.438
71778W        W35337  19.259   9.308  11.893
71779W        W35338  25.637  19.718   2.772
71780W        W35339  13.783  38.537  10.969
71781W        W35340  30.975  15.094  12.056
71782W        W35341  19.267  28.528   0.894
71783W        W35342  44.380   3.314   3.792
71784W        W35343  31.985  16.589   1.313
71785W        W35344  23.147  41.434   1.425
71786W        W35345   8.668  41.443  11.592
71787W        W35346  34.464  32.541  14.949
71788W        W35347  41.471  44.777   3.219
71789W        W35348  41.331   9.290  12.089
71790W        W35349  20.130  18.260   4.290
71791W        W35350  20.083  13.279  14.010
71792W        W35351  32.482   7.364   2.771
71793W        W35352  28.956  42.443  11.877
71794W        W35353  26.017  41.389   4.295
71795W        W35354  23.696  12.676  12.571
71796W        W35355   5.409  28.054  12.394
71797W        W35356   6.316   3.405  12.859
71798W        W35357  28.121   7.293   0.824
71799W        W35358  41.835  16.238   1.780
71800W        W35359  12.310  26.116  10.110
71801W        W35360  31.008   8.745   5.242
71802W        W35361   0.388  27.137   4.711
71803W        W35362  22.174  44.956   2.338
71804W        W35363  24.202  21.059  11.059
71805W        W35364  43.855  17.662   4.339
71806W        W35365  39.050   3.296  14.366
71807W        W35366  10.190  12.140   3.642
71808W        W35367  38.049  27.968   3.734
71809W        W35368   8.247  10.330  11.515
71810W        W35369  35.458  29.648   3.802
71811W        W35370  37.384  10.666  10.541
71812W        W35371   6.215  33.543   2.679
71813W        W35372  14.229  38.031  14.306
71814W        W35373  31.531   9.173  10.526
71815W        W35374  20.140   8.275   1.443
71816W        W35375   0.272   3.776  10.430
71817W        W35376  32.531  23.575  10.561
71818W        W35377  17.794  24.069   4.128
71819W        W35378  35.901  30.911   1.404
71820W        W35379  42.411  33.897  10.940
71821W        W35380  11.229   5.225  14.355
71822W        W35381  10.216  21.047  11.074
71823W        W35382  31.470  29.598   1.445
71824W        W35383  24.681   5.847  14.500
71825W        W35384  25.220  42.831  11.037
71826W        W35385   0.931  25.519  12.460
71827W        W35386  20.165  20.555   4.335
71828W        W35387  13.720  22.214   1.934
71829W        W35388  22.074  25.042   1.724
71830W        W35389  38.971  37.011   4.133
71831W        W35390  29.486   9.697  13.797
71832W        W35391   3.371   8.753  11.968
71833W        W35392  38.820  20.269   4.344
71834W        W35393  10.844   0.426  12.538
71835W        W35394   9.729  32.913   3.384
71836W        W35395  18.052  19.177  14.991
71837W        W35396  30.089  21.172  11.509
71838W        W35397  12.658  21.626  12.052
71839W        W35398  29.531  31.450  13.947
71840W        W35399  40.976  32.397   2.899
71841W        W35400  31.028   4.317  10.562
71842W        W35401  13.152  21.198   3.266
71843W        W35402   3.902  10.374   2.358
71844W        W35403  11.843   2.360   2.898
71845W        W35404   3.394  14.599   5.225
71846W        W35405  28.096  16.733  14.005
71847W        W35406  22.684  23.020   0.923
71848W        W35407  23.075  30.494   3.630
71849W        W35408  43.479  25.016  11.392
71850W        W35409  13.650  14.638  12.365
71851W        W35410  24.993  10.707   4.677
71852W        W35411   3.793  40.549   2.716
71853W        W35412   9.235  14.640   9.958
71854W        W35413  40.814  23.612  14.912
71855W        W35414   3.760   7.877  14.855
71856W        W35415  12.769  20.713   2.787
71857W        W35416   7.383  20.572   1.300
71858W        W35417  23.527  26.633   0.950
71859W        W35418   1.328  39.053   2.226
71860W        W35419  17.293  21.033  10.005
71861W        W35420  36.011   2.435   0.929
71862W        W35421  44.350  41.415  11.127
71863W        W35422  23.562  40.995  14.953
71864W        W35423  30.426  27.653  11.520
71865W        W35424   8.838  36.945   1.260
71866W        W35425   9.152  32.933  11.994
71867W        W35426  23.034  42.856   3.339
71868W        W35427  13.727  34.884   3.743
71869W        W35428  20.606  42.845   1.798
71870W        W35429  32.911   6.851   3.294
71871W        W35430  36.969  23.007   4.777
71872W        W35431  32.111  14.340  11.973
71873W        W35432  41.879  41.807   1.860
71874W        W35433  33.918  41.351  14.945
71875W        W35434  27.579  12.735  13.397
71876W        W35435  44.894   7.691   3.163
71877W        W35436  14.251  14.109  12.369
71878W        W35437  38.401  12.211   2.816
71879W        W35438  29.013  26.008   4.724
71880W        W35439  16.749  30.112  14.416
71881W        W35440   6.314  42.782  13.802
71882W        W35441  35.085  33.566  13.895
71883W        W35442  23.145  40.023  13.981
71884W        W35443  13.688  40.487  14.009
71885W        W35444  27.069   9.383   0.894
71886W        W35445  41.800  39.372   2.814
71887W        W35446  18.149  23.095   1.275
71888W        W35447   5.920  30.533  12.424
71889W        W35448  41.311  19.166   2.754
71890W        W35449  26.989  19.249   3.236
71891W        W35450  15.242  18.679   2.226
71892W        W35451  10.239  18.784   3.353
71893W        W35452   8.229   2.889  11.428
71894W        W35453  19.594   6.812   3.299
71895W        W35454  34.013   5.734   4.153
71896W        W35455   9.867  41.514   0.921
71897W        W35456  14.164  21.749  13.319
71898W        W35457  39.016  22.084  10.003
71899W        W35458  28.964  27.096   3.724
71900W        W35459   2.868  15.086   3.803
71901W        W35460  19.245  37.867  14.897
71902W        W35461  10.158  33.052   1.274
71903W        W35462  40.460   3.262  11.892
71904W        W35463  38.399  30.428   1.445
71905W        W35464  31.022  16.147   1.725
71906W        W35465   3.748  11.671   2.248
71907W        W35466  10.335  32.038   5.113
71908W        W35467  28.002  41.395   2.760
71909W        W35468  39.831  20.166  11.593
71910W        W35469  10.275  21.517   4.679
71911W        W35470   0.960  42.823   2.852
71912W        W35471  28.115  41.535  14.914
71913W        W35472  12.711  11.658  11.461
71914W        W35473  23.166  33.954  13.529
71915W        W35474   8.708  43.877  11.922
71916W        W35475  15.647  37.876  13.407
71917W        W35476  42.824  41.421   1.710
71918W        W35477  39.013  22.602   3.351
71919W        W35478  32.977  43.021   0.249
71920W        W35479   4.212  10.804   3.646
71921W        W35480  28.444   4.915   4.758
71922W        W35481  38.863  23.047  11.918
71923W        W35482  16.251  13.599  11.048
71924W        W35483  18.601  22.628  11.875
71925W        W35484  16.732  31.574   3.772
71926W        W35485  19.568   3.846   4.305
71927W        W35486  19.083  27.006   4.738
71928W        W35487   7.293  10.720   1.731
71929W        W35488   5.342  33.611   2.179
71930W        W35489  27.580  16.732   0.393
71931W        W35490  23.152  27.673   3.734
71932W        W35491  15.687  23.193   4.641
71933W        W35492  17.758  17.249   4.794
71934W        W35493  34.069  38.503   1.826
71935W        W35494   2.914   3.257   3.189
71936W        W35495  23.122  13.178  14.026
71937W        W35496  11.335  42.523   2.185
71938W        W35497   5.346  12.798  14.427
71939W        W35498   6.358  29.507  12.001
71940W        W35499  12.301   4.864  10.545
71941W        W35500  27.987  31.923   1.294
71942W        W35501  13.304  28.184   1.816
71943W        W35502   4.252  37.461  12.359
71944W        W35503  22.744  13.286   4.777
71945W        W35504  19.769  22.716   1.869
71946W        W35505  20.264  36.569  12.883
71947W        W35506  12.138  40.506  11.433
71948W        W35507  15.281  36.854   1.844
71949W        W35508  44.396  26.591   3.267
71950W        W35509   6.296  32.616   0.451
71951W        W35510  39.820  14.792  12.506
71952W        W35511  16.801  19.266  11.045
71953W        W35512  13.172  38.478  11.082
71954W        W35513  40.965  21.592  13.902
71955W        W35514  16.117  20.258  12.882
71956W        W35515  16.256  17.104  10.069
71957W        W35516  14.681  33.582   0.284
71958W        W35517  42.998  24.610  14.334
71959W        W35518  38.533   3.337  12.499
71960W        W35519  29.162  24.148   1.293
71961W        W35520  19.676  23.537   2.718
71962W        W35521  29.947  38.340  13.925
71963W        W35522  19.105  38.437   3.698
71964W        W35523  44.258  10.757  12.524
71965W        W35524  41.532  13.731  14.027
71966W        W35525   9.685  19.115  11.457
71967W        W35526  22.205   0.842   2.312
71968W        W35527  20.616   2.410  11.961
71969W        W35528  20.052  38.505   3.780
71970W        W35529  39.046  40.455   4.671
71971W        W35530  18.242  20.727   1.376
71972W        W35531   6.775  13.308   2.297
71973W        W35532   4.940   4.295   0.431
71974W        W35533   5.934   3.744  13.825
71975W        W35534  35.428  15.820   4.746
71976W        W35535  10.669  29.574   1.858
71977W        W35536  41.968  27.485   4.229
71978W        W35537  16.646   5.777  10.644
71979W        W35538  12.270  43.432   0.312
71980W        W35539  26.579  18.224  10.951
71981W        W35540  32.971  22.072   2.298
71982W        W35541  20.035  24.487  11.977
71983W        W35542  23.616   5.744  13.870
71984W        W35543   9.681  29.457   1.273
71985W        W35544   3.243   2.289   1.412
71986W        W35545   3.357  17.714  14.821
71987W        W35546  38.954  39.000   3.362
71988W        W35547  18.142  31.629  11.558
71989W        W35548  35.573  40.385   2.242
71990W        W35549  10.855  42.304   0.963
71991W        W35550   1.765   1.370  14.760
71992W        W35551   2.897  12.174   2.202
71993W        W35552  30.041  21.088   4.253
71994W        W35553  23.668  38.380  10.967
71995W        W35554  20.538  33.069  13.874
71996W        W35555  41.798  31.539   1.759
71997W        W35556  42.420  34.505   0.917
71998W        W35557   7.758  31.992   4.131
71999W        W35558  30.564  12.631  12.078
72000W        W35559  38.466  13.144  14.315
72001W        W35560  40.513   4.936  12.998
72002W        W35561  42.515   9.715   0.867
72003W        W35562  30.941  32.451  12.441
72004W        W35563  28.156  40.999   4.170
72005W        W35564  35.548  23.172  11.609
72006W        W35565  26.072   5.223  12.523
72007W        W35566   5.281  13.254  12.893
72008W        W35567  29.519  31.112  12.052
72009W        W35568  31.008   0.391   3.167
72010W        W35569   4.255  28.615  11.054
72011W        W35570  18.085  23.181  12.854
72012W        W35571  10.671  43.289   1.742
72013W        W35572  13.807  24.019  10.502
72014W        W35573   8.782  22.069  10.906
72015W        W35574  17.729  15.672   2.327
72016W        W35575  21.171  12.348  14.963
72017W        W35576  35.561  32.966   9.920
72018W        W35577  15.597  10.801   2.228
72019W        W35578  40.351   7.341  11.438
72020W        W35579  33.497  15.250  13.028
72021W        W35580   9.704  23.686   0.896
72022W        W35581  31.983   9.160   5.644
72023W        W35582  30.957  43.321   0.293
72024W        W35583   3.867  28.656  11.498
72025W        W35584   8.863  35.532   0.243
72026W        W35585  28.006   5.385   1.312
72027W        W35586  20.041  17.801  14.972
72028W        W35587   4.776  41.368   0.375
72029W        W35588   1.862  33.053  12.827
72030W        W35589  38.999  13.223   2.743
72031W        W35590  14.658  20.106  12.980
72032W        W35591   4.204   6.886  10.489
72033W        W35592  12.198  44.866   0.259
72034W        W35593  18.667  24.505   0.801
72035W        W35594   6.424  25.082  11.465
72036W        W35595   0.753   8.729  11.996
72037W        W35596  22.098  33.403  14.393
72038W        W35597  12.732  33.466  12.997
72039W        W35598   5.383   6.748  13.400
72040W        W35599  15.296  18.778   4.643
72041W        W35600  15.295  19.233  10.613
72042W        W35601   9.731  40.338  13.054
72043W        W35602   5.927   3.945  14.875
72044W        W35603  41.963   0.307   0.873
72045W        W35604  23.991  29.526  12.080
72046W        W35605  38.374  28.164  14.884
72047W        W35606  12.790  27.069  12.950
72048W        W35607  12.186  10.342   4.266
72049W        W35608  41.011  28.018   1.325
72050W        W35609  10.373  20.596  11.082
72051W        W35610  20.612  43.814   1.715
72052W        W35611  37.483  25.067  14.340
72053W        W35612  23.579  19.577   3.312
72054W        W35613  31.940  25.522  11.054
72055W        W35614  14.640   9.805  14.937
72056W        W35615   2.349  42.355  11.057
72057W        W35616  32.946  23.733  11.491
72058W        W35617  27.578  27.987   2.309
72059W        W35618  42.790  41.985  13.063
72060W        W35619  27.536  34.613  11.071
72061W        W35620  39.965  16.671   3.242
72062W        W35621  30.946  31.916   1.308
72063W        W35622  36.420  34.578   4.259
72064W        W35623  20.242  17.206   0.259
72065W        W35624  42.425  30.985   4.766
72066W        W35625  14.648  35.859   4.762
72067W        W35626  26.139  21.067  11.867
72068W        W35627  43.308  43.792  13.324
72069W        W35628   0.470  29.016  11.874
72070W        W35629  33.550  19.554   0.843
72071W        W35630  43.857  23.663  10.931
72072W        W35631  15.804  17.799  10.508
72073W        W35632  28.961  18.078  10.507
72074W        W35633   7.340   2.850  13.487
72075W        W35634  15.115  35.411   4.173
72076W        W35635  15.800  23.174  13.989
72077W        W35636   3.766   7.316   4.647
72078W        W35637  20.674   5.743   0.353
72079W        W35638  44.918   2.347  11.980
72080W        W35639  40.325  44.758   3.279
72081W        W35640   6.242   2.836  13.837
72082W        W35641  33.129   2.384  11.455
72083W        W35642   8.877   6.747   4.306
72084W        W35643  40.343  42.804  14.003
72085W        W35644  30.590   0.367   2.872
72086W        W35645  31.475  13.154  14.816
72087W        W35646  34.548  34.962   4.196
72088W        W35647  15.578  21.615   2.691
72089W        W35648  18.647   7.876  10.579
72090W        W35649  39.325  16.106  12.860
72091W        W35650  41.345   1.238  12.538
72092W        W35651   8.364  12.182  12.058
72093W        W35652  41.833  44.281  11.404
72094W        W35653  21.247  33.079   2.806
72095W        W35654  15.591  11.284   9.927
72096W        W35655  42.994  37.834  11.972
72097W        W35656  15.790  19.097  14.801
72098W        W35657  17.737   5.754   1.917
72099W        W35658  25.982  26.956  13.468
72100W        W35659   2.944  25.057  14.459
72101W        W35660  18.717   2.830  13.323
72102W        W35661  11.760  29.961  11.965
72103W        W35662   2.827  19.576   4.260
72104W        W35663  33.885  11.853  12.566
72105W        W35664  44.851   7.740  14.489
72106W        W35665   1.785  44.826   1.694
72107W        W35666  34.986  34.905  13.867
72108W        W35667  16.621  41.807  11.561
72109W        W35668  29.540  26.134   1.783
72110W        W35669  34.609   5.330   2.415
72111W        W35670   8.738  36.457   1.863
72112W        W35671  30.119  13.332   1.371
72113W        W35672  42.786   0.794  11.591
72114W        W35673  40.930  25.641  10.535
72115W        W35674  31.071   7.416   1.749
72116W        W35675  39.531  17.717   2.888
72117W        W35676   8.745  22.199   1.361
72118W        W35677  26.201  15.266   1.749
72119W        W35678  19.701  34.966  12.841
72120W        W35679   8.208  37.474  14.969
72121W        W35680  26.059  34.077  11.389
72122W        W35681   9.837  22.107   2.285
72123W        W35682  23.097  28.530   3.295
72124W        W35683   2.849  17.137  12.944
72125W        W35684   6.187  10.840   4.259
72126W        W35685   5.323   6.412   4.783
72127W        W35686  13.716  19.206  12.557
72128W        W35687   6.377  28.460   2.793
72129W        W35688  16.104  29.089  14.027
72130W        W35689  40.816  37.525   4.346
72131W        W35690  39.036  37.411   0.300
72132W        W35691  32.429  33.019  11.602
72133W        W35692  34.409   4.273   4.614
72134W        W35693  10.666  11.684  13.950
72135W        W35694   6.914  39.834  13.031
72136W        W35695  28.183  40.840  11.878
72137W        W35696  24.123  29.151   4.837
72138W        W35697  20.174   8.259  11.463
72139W        W35698  40.968  28.990  10.500
72140W        W35699  11.675  26.701   1.889
72141W        W35700  10.789   3.883   4.833
72142W        W35701  30.156  43.334  12.456
72143W        W35702  31.087  35.855   5.243
72144W        W35703   5.292   0.441   4.718
72145W        W35704  44.386  37.006   3.732
72146W        W35705  18.052  38.944  10.439
72147W        W35706  13.718  35.927   0.934
72148W        W35707  22.130  13.827   2.773
72149W        W35708  40.445  35.071   3.680
72150W        W35709  23.546  33.553   2.694
72151W        W35710   9.817  22.525   3.739
72152W        W35711  43.826  40.541   2.261
72153W        W35712  23.188  17.187   4.664
72154W        W35713  38.477  33.534   3.242
72155W        W35714  18.110  17.264  14.976
72156W        W35715  14.115  26.650  14.932
72157W        W35716  11.297  17.658  13.812
72158W        W35717  38.343  23.724   3.823
72159W        W35718  43.333  27.568  11.889
72160W        W35719  41.477  32.980  11.048
72161W        W35720  10.798  42.876   4.623
72162W        W35721  35.517  24.645   2.232
72163W        W35722  26.570  40.339   4.232
72164W        W35723  16.694  17.608   1.414
72165W        W35724  25.207  32.954   1.933
72166W        W35725  25.017  24.012  12.539
72167W        W35726  10.211  30.490   3.730
72168W        W35727  29.505  44.819   3.289
72169W        W35728   6.805  44.469  11.075
72170W        W35729  41.826  13.265   4.124
72171W        W35730  37.405  13.737  11.407
72172W        W35731  32.132  28.635  11.901
72173W        W35732  33.606  21.566   4.190
72174W        W35733  12.677  28.945  13.008
72175W        W35734  21.040  34.516  12.962
72176W        W35735  44.963  20.663  14.323
72177W        W35736  15.714  13.144  11.866
72178W        W35737   3.771  17.154   3.321
72179W        W35738  37.513   4.246  10.615
72180W        W35739  16.138  18.189   0.913
72181W        W35740  12.175  29.526  11.924
72182W        W35741  33.059  37.986   1.391
72183W        W35742  24.003   5.316   0.846
72184W        W35743   2.721  40.826   0.772
72185W        W35744  42.953   6.726  13.349
72186W        W35745  33.957  40.441   0.441
72187W        W35746  17.132  41.506   3.652
72188W        W35747  37.024  44.897  11.606
72189W        W35748  28.150   3.249   1.789
72190W        W35749   9.653  24.561  12.833
72191W        W35750  20.200  13.784   0.904
72192W        W35751  17.778  26.201  11.494
72193W        W35752  31.133  25.089   5.301
72194W        W35753   4.268  11.734  10.910
72195W        W35754   4.353  15.256  11.888
72196W        W35755   3.869  14.778  11.060
72197W        W35756  29.076  42.961  12.990
72198W        W35757  15.168   8.369   1.390
72199W        W35758  12.128   9.192  11.969
72200W        W35759  29.965  34.880   3.712
72201W        W35760  26.522  12.290   3.151
72202W        W35761  37.463  18.737   4.325
72203W        W35762   2.787  24.082   4.174
72204W        W35763   4.380  35.409   2.876
72205W        W35764  43.338   2.731  13.350
72206W        W35765  23.673  31.901   4.227
72207W        W35766   1.406  40.037   1.424
72208W        W35767  34.963   6.319   5.143
72209W        W35768  10.780  40.321  12.847
72210W        W35769  14.672  26.478  14.420
72211W        W35770  43.803  34.116   2.304
72212W        W35771  38.836  31.992  12.056
72213W        W35772  15.217  12.117  10.412
72214W        W35773  32.071   8.801  10.951
72215W        W35774  33.114  27.102  12.889
72216W        W35775  37.366  36.999  12.488
72217W        W35776  26.140  13.805  12.535
72218W        W35777  15.664  15.784  14.410
72219W        W35778  16.660  44.275   2.720
72220W        W35779  31.602   2.778  14.846
72221W        W35780  11.371  39.341  14.988
72222W        W35781  19.200  41.333  14.320
72223W        W35782  23.532  17.117   4.253
72224W        W35783  39.532  28.117  14.512
72225W        W35784  35.928  24.021  12.423
72226W        W35785   0.381  38.527   0.371
72227W        W35786  21.613  41.791   3.266
72228W        W35787  15.325  18.603  14.453
72229W        W35788  41.905  18.749  11.460
72230W        W35789   1.952   0.832   3.849
72231W        W35790  12.662  11.145   3.820
72232W        W35791  38.936   6.395   5.093
72233W        W35792  37.471  14.134   1.295
72234W        W35793  23.546   4.729   3.786
72235W        W35794  33.533  39.487  11.545
72236W        W35795  37.389  36.396   4.113
72237W        W35796  28.656   3.359  13.506
72238W        W35797   1.842  19.585  10.545
72239W        W35798   5.933  18.091   4.185
72240W        W35799  39.438  40.368  12.094
72241W        W35800  34.008  20.682   3.677
72242W        W35801   5.289  33.439  10.904
72243W        W35802   8.396  33.935   5.248
72244W        W35803  44.826  40.409  11.462
72245W        W35804  15.657  35.887  12.550
72246W        W35805  20.143  15.787  11.972
72247W        W35806  35.964  18.181  11.107
72248W        W35807   2.241  14.706   4.348
72249W        W35808  23.119  29.545   3.653
72250W        W35809  25.557  23.620  12.876
72251W        W35810  23.515  30.954  10.105
72252W        W35811   2.806  35.376   2.665
72253W        W35812   5.280   7.771  11.030
72254W        W35813  28.010  39.815   0.418
72255W        W35814   1.275  28.147   2.888
72256W        W35815  40.050   7.863   0.396
72257W        W35816  18.180  36.921   3.279
72258W        W35817  24.007   9.698  10.970
72259W        W35818  38.560  13.167   4.146
72260W        W35819  37.421  11.136   1.772
72261W        W35820  12.740   8.821   0.408
72262W        W35821   8.765  35.485   2.383
72263W        W35822  26.684  21.692   1.443
72264W        W35823   9.645  33.502  14.032
72265W        W35824  26.969  36.083   1.865
72266W        W35825  16.634  27.676  10.937
72267W        W35826   7.186  19.197   1.287
72268W        W35827  20.554  32.053  11.495
72269W        W35828  29.563  25.120   0.272
72270W        W35829  44.822  39.457   2.204
72271W        W35830  44.300  19.240  14.796
72272W        W35831  39.950  21.072  10.493
72273W        W35832  20.661  19.721   2.190
72274W        W35833  26.622  21.124   9.952
72275W        W35834  25.517  31.562  13.866
72276W        W35835  14.293   7.678   4.806
72277W        W35836  16.159  10.217   1.892
72278W        W35837   3.920  21.709   4.136
72279W        W35838  28.517  35.895  13.844
72280W        W35839  19.724   5.398  11.997
72281W        W35840  23.046   7.843   0.309
72282W        W35841   9.791   3.228  13.313
72283W        W35842  27.083  29.127   3.843
72284W        W35843   1.358  40.316  11.375
72285W        W35844   8.700  36.466  12.498
72286W        W35845  24.133  39.343  14.372
72287W        W35846  37.575  22.040  12.880
72288W        W35847   0.362  29.532   1.731
72289W        W35848  18.150  35.936  14.873
72290W        W35849  10.363  42.918  10.073
72291W        W35850  34.063  40.359  13.915
72292W        W35851  31.616  43.380  14.875
72293W        W35852  23.595  23.066  14.497
72294W        W35853   1.806  22.044   2.803
72295W        W35854   7.251   1.794   4.745
72296W        W35855  26.472  19.124   0.433
72297W        W35856   9.736   1.288   1.707
72298W        W35857   2.318   4.895   3.643
72299W        W35858  28.102  35.924  10.422
72300W        W35859  38.507  21.018  13.846
72301W        W35860  17.267  39.335  14.466
72302W        W35861  19.735  41.871   3.304
72303W        W35862  29.015  38.416   0.798
72304W        W35863  37.537  25.521   1.226
72305W        W35864  28.572  39.460   4.666
72306W        W35865  27.498   3.325  14.794
72307W        W35866  35.984  10.204   1.415
72308W        W35867  26.594  25.185  13.416
72309W        W35868  34.918   5.344  12.347
72310W        W35869  26.563  20.124  14.512
72311W        W35870   2.892  24.206  13.056
72312W        W35871   9.817  19.641  14.824
72313W        W35872   4.418  11.300   4.610
72314W        W35873  44.818  42.018  10.490
72315W        W35874  25.508  29.566   2.851
72316W        W35875   3.412  31.922  10.584
72317W        W35876   8.351  14.734  12.011
72318W        W35877  44.400  19.171   2.880
72319W        W35878  35.534  43.430   0.464
72320W        W35879  19.138  38.437   3.159
72321W        W35880  19.132   2.241  13.337
72322W        W35881  32.019  12.702   3.696
72323W        W35882  41.956  17.572   4.166
72324W        W35883  25.605  17.235  12.367
72325W        W35884  12.818  18.711  10.419
72326W        W35885  19.235  17.756   1.926
72327W        W35886  39.557  14.133   2.275
72328W        W35887   6.828  34.375  11.903
72329W        W35888  34.064   2.904   4.765
72330W        W35889  15.726  42.287   3.641
72331W        W35890  28.172  42.282  14.416
72332W        W35891  20.537  14.786  13.915
72333W        W35892  37.846  26.523   3.871
72334W        W35893  16.620  37.846   3.695
72335W        W35894  32.924  26.079   2.761
72336W        W35895  38.009   9.677  12.540
72337W        W35896  12.153  21.568   2.363
72338W        W35897  31.543  41.840   5.302
72339W        W35898   6.916  36.892  13.407
72340W        W35899  32.556  22.597  10.486
72341W        W35900  43.489   7.336   3.705
72342W        W35901  35.005  14.152  13.492
72343W        W35902   3.782  33.928   2.713
72344W        W35903   7.417  13.260  14.319
72345W        W35904  16.773  19.044   4.739
72346W        W35905  44.388  32.446   0.847
72347W        W35906  36.898  29.616   4.701
72348W        W35907   1.313  25.511  12.479
72349W        W35908  11.825   3.754  14.854
72350W        W35909  14.197  11.840   5.144
72351W        W35910  20.044   5.309  10.532
72352W        W35911  28.536  15.112  10.961
72353W        W35912  15.150   9.700  12.966
72354W        W35913  16.201  43.018   3.192
72355W        W35914   6.767  20.730   1.807
72356W        W35915  34.038  40.467  14.354
72357W        W35916  11.148  25.547   1.732
72358W        W35917  37.869  32.044   2.880
72359W        W35918   8.239   8.302  10.900
72360W        W35919  31.133  36.054  10.143
72361W        W35920   3.920  41.530  12.978
72362W        W35921   2.445  20.586   4.773
72363W        W35922   9.660  23.580  14.298
72364W        W35923   4.327  24.208   4.309
72365W        W35924  29.561  34.406  14.836
72366W        W35925  28.067  40.926   3.650
72367W        W35926  21.148   1.454  14.442
72368W        W35927  42.894   2.842   2.701
72369W        W35928  22.667  19.096  10.454
72370W        W35929  12.802  35.382  12.482
72371W        W35930  19.274  21.259   2.860
72372W        W35931  42.350  10.377   4.145
72373W        W35932  22.136   2.400   1.918
72374W        W35933   1.388  25.964  13.379
72375W        W35934  28.565   8.787  11.483
72376W        W35935  23.025  39.453  14.336
72377W        W35936  29.131  23.220  10.087
72378W        W35937   2.260  34.077  12.538
72379W        W35938  39.997  30.962  14.385
72380W        W35939  38.375  18.668  11.593
72381W        W35940   9.779  11.717  10.039
72382W        W35941  28.510  25.081   3.684
72383W        W35942  39.959   2.952   1.318
72384W        W35943  26.165  40.865  14.345
72385W        W35944  43.454  19.568   0.868
72386W        W35945  11.138  11.664  13.521
72387W        W35946   2.292  24.670  13.539
72388W        W35947  13.205  23.724  12.925
72389W        W35948  19.064  39.349   0.863
72390W        W35949  11.790  44.894   1.824
72391W        W35950  30.939  29.598   2.674
72392W        W35951  27.021  28.466   1.420
72393W        W35952  38.483  36.581   4.200
72394W        W35953  11.204  18.099  11.374
72395W        W35954  30.935  29.431   1.858
72396W        W35955  12.823  27.164   2.863
72397W        W35956  14.292  38.019   0.395
72398W        W35957   7.326   0.907  13.895
72399W        W35958  37.027   1.414   2.232
72400W        W35959  13.129  38.476   2.733
72401W        W35960  33.102  32.499   0.287
72402W        W35961   6.357  10.186  11.414
72403W        W35962   6.290   3.461  10.483
72404W        W35963  26.962  30.452  13.406
72405W        W35964  44.412  20.590  12.489
72406W        W35965  36.880  14.771   1.856
72407W        W35966  43.462   8.793  12.848
72408W        W35967   4.293   2.785   3.180
72409W        W35968  44.497  26.025   4.835
72410W        W35969  14.278   8.350  13.411
72411W        W35970  42.513  20.080   2.283
72412W        W35971  24.603  32.453   3.230
72413W        W35972  16.739  30.538   2.254
72414W        W35973  24.999  25.709   0.352
72415W        W35974  37.949  19.041   0.331
72416W        W35975  23.145  22.681   1.885
72417W        W35976  13.262  21.557  12.545
72418W        W35977  27.035  11.847   5.231
72419W        W35978  18.180  30.145   0.407
72420W        W35979  19.756  17.569   0.843
72421W        W35980  37.383  25.137   3.769
72422W        W35981   9.756   9.208  14.461
72423W        W35982  43.299  21.253  12.499
72424W        W35983  13.645   4.382   1.233
72425W        W35984  18.287  44.428  14.804
72426W        W35985  25.575  11.850   1.373
72427W        W35986  29.494  23.601  11.417
72428W        W35987  16.076  20.212   4.809
72429W        W35988  40.328  24.623  13.417
72430W        W35989  31.524  36.568  11.901
72431W        W35990  19.208  30.616  11.998
72432W        W35991  29.669  28.589  14.902
72433W        W35992  12.144   1.892   4.281
72434W        W35993   6.803  22.050   3.721
72435W        W35994  37.047  41.944  13.809
72436W        W35995   3.410   9.707  12.569
72437W        W35996  19.589  42.307   3.823
72438W        W35997  43.017   2.848  12.341
72439W        W35998  27.103  26.150   2.345
72440W        W35999   9.238  41.473   4.612
72441W        W36000  12.611  42.948   4.118
72442W        W36001   4.892  21.633   0.889
72443W        W36002  43.299  37.375  13.850
72444W        W36003  27.489  42.410   1.411
72445W        W36004  26.206  23.629   2.673
72446W        W36005   7.351  33.540   0.842
72447W        W36006  41.455  30.602  13.412
72448W        W36007   8.188  23.220  12.406
72449W        W36008  21.586   4.379  11.118
72450W        W36009  27.967  26.487   2.255
72451W        W36010  14.787  30.098   1.933
72452W        W36011  44.342  20.646  11.124
72453W        W36012  25.696  24.096  11.009
72454W        W36013   4.305  10.675   0.855
72455W        W36014  39.993  19.631   4.125
72456W        W36015  17.084  35.380  12.918
72457W        W36016  23.190   2.305  13.530
72458W        W36017  29.923  31.408   2.698
72459W        W36018  44.431  34.021   2.249
72460W        W36019  33.381  33.905   1.708
72461W        W36020  25.033  16.613  12.873
72462W        W36021  31.634  39.933  14.363
72463W        W36022  22.053  28.539   0.247
72464W        W36023  27.034  22.111   1.336
72465W        W36024  40.866  13.779  13.012
72466W        W36025  37.922  44.279  11.883
72467W        W36026  21.740  43.000   4.206
72468W        W36027  16.739  20.063   0.809
72469W        W36028  36.872   3.394  13.792
72470W        W36029  30.562  13.804  13.869
72471W        W36030  28.972   7.414   3.831
72472W        W36031  26.526  33.523  10.966
72473W        W36032   7.363  18.268   3.823
72474W        W36033  16.626  25.565  10.467
72475W        W36034  34.972  39.382   4.710
72476W        W36035  29.105  14.651  12.343
72477W        W36036  24.160   6.767  10.905
72478W        W36037  36.584  15.612  12.471
72479W        W36038  38.376  26.555  14.381
72480W        W36039  43.929  41.317   1.388
72481W        W36040  29.665   1.903  11.095
72482W        W36041  40.442  30.950   1.700
72483W        W36042  38.456   0.925   4.692
72484W        W36043  20.583  26.951   2.371
72485W        W36044   9.296  36.392   4.706
72486W        W36045  22.531   1.452   0.805
72487W        W36046   1.940   7.760   1.418
72488W        W36047  38.371  15.126  14.767
72489W        W36048  37.032  42.360   2.898
72490W        W36049  43.812  35.890   4.720
72491W        W36050  16.726  39.016  10.607
72492W        W36051  10.640  38.514  13.003
72493W        W36052  22.023   5.267  14.328
72494W        W36053   2.471  14.749  13.424
72495W        W36054  39.879  16.147   2.185
72496W        W36055  31.951   3.402   1.888
72497W        W36056  44.459  43.823  11.116
72498W        W36057  16.629  14.658  14.513
72499W        W36058  36.470   5.418  12.432
72500W        W36059  16.781  34.051  14.954
72501W        W36060  12.232  26.037   3.766
72502W        W36061   3.274  27.167  13.363
72503W        W36062   4.747  30.962  14.905
72504W        W36063  28.642  20.537   1.282
72505W        W36064  26.184  12.741  11.100
72506W        W36065  20.523  30.075  12.986
72507W        W36066  16.166  38.467   3.271
72508W        W36067  23.214  19.257   0.464
72509W        W36068   8.665  24.609  10.950
72510W        W36069  33.455  33.506  12.965
72511W        W36070  34.387  14.623  13.901
72512W        W36071  15.241   1.357   4.248
72513W        W36072  11.803  32.984   4.187
72514W        W36073  31.963  17.065  13.949
72515W        W36074  25.170  40.346  11.885
72516W        W36075  18.233   0.315   4.775
72517W        W36076  35.409  40.321   0.799
72518W        W36077  35.446  36.841  11.474
72519W        W36078  21.539  37.857  13.860
72520W        W36079  12.753   3.316   2.691
72521W        W36080  31.921  32.416   0.389
72522W        W36081  24.199  24.155   3.654
72523W        W36082  26.098   3.861   0.924
72524W        W36083   7.235  28.107  13.395
72525W        W36084   3.454   5.290  12.358
72526W        W36085   3.258   7.724  12.473
72527W        W36086   6.408  38.395  13.794
72528W        W36087  16.137  11.814  10.516
72529W        W36088  44.812   5.729   0.480
72530W        W36089  15.139  17.673  14.945
72531W        W36090  17.582  15.652  13.059
72532W        W36091  35.070   3.946  10.442
72533W        W36092  29.157  37.948  13.385
72534W        W36093  25.037  40.391  14.845
72535W        W36094  33.572  32.498  12.431
72536W        W36095  43.936  20.713   3.771
72537W        W36096   9.268  34.492   2.294
72538W        W36097  31.614  10.181  14.465
72539W        W36098  39.943  11.830   2.835
72540W        W36099  22.707   9.383  10.421
72541W        W36100  19.654   4.749   4.661
72542W        W36101   3.759  42.307   2.322
72543W        W36102   8.269  21.032  10.527
72544W        W36103   1.865  13.792   1.309
72545W        W36104  15.666  10.206  10.076
72546W        W36105  17.624   8.866   1.385
72547W        W36106  19.041  44.942  12.462
72548W        W36107  17.770  16.657  10.483
72549W        W36108  28.067  41.950   3.186
72550W        W36109   3.324  36.844   1.297
72551W        W36110  29.606  20.097   3.632
72552W        W36111  11.135  44.267   1.334
72553W        W36112  25.980  20.669   3.225
72554W        W36113  14.217  38.007   2.741
72555W        W36114  44.401   2.817   4.260
72556W        W36115  18.618  27.615   0.340
72557W        W36116  19.051  21.079   3.710
72558W        W36117  10.879  32.035  10.105
72559W        W36118  17.181  42.432  13.318
72560W        W36119  41.481   0.408  13.352
72561W        W36120   4.933  40.347   3.662
72562W        W36121  22.505  13.767  13.921
72563W        W36122  15.313  25.496  13.890
72564W        W36123  23.569  23.719   4.253
72565W        W36124  32.570  11.722  10.574
72566W        W36125  21.225  17.066  12.923
72567W        W36126  37.862  30.567   2.296
72568W        W36127  10.208  22.070   2.191
72569W        W36128  29.951  40.514   1.827
72570W        W36129  42.441  14.729  13.895
72571W        W36130  24.565   4.375   0.956
72572W        W36131   7.176   4.870   1.257
72573W        W36132  20.177  17.276  13.810
72574W        W36133  16.204  30.432   3.176
72575W        W36134  16.228  14.712   3.812
72576W        W36135  40.439  12.691  10.420
72577W        W36136   3.928  10.247   1.217
72578W        W36137   3.924  31.089  13.810
72579W        W36138   0.357  20.030  10.915
72580W        W36139  34.964  37.947  12.985
72581W        W36140  33.572  18.767   1.260
72582W        W36141  10.647   5.336   2.735
72583W        W36142  27.019  41.319   1.780
72584W        W36143  44.441  34.482   1.890
72585W        W36144  36.967  10.653  12.087
72586W        W36145  31.646  14.669  14.811
72587W        W36146  34.377  41.502   3.826
72588W        W36147  32.064  40.909   5.652
72589W        W36148  42.980  44.281  12.420
72590W        W36149  41.430   7.682   0.821
72591W        W36150  32.573   3.876  12.060
72592W        W36151  29.007  23.517   4.643
72593W        W36152  36.533  20.605  10.963
72594W        W36153  44.349  22.523   3.225
72595W        W36154  18.549  35.972   0.898
72596W        W36155  15.685  34.582   2.886
72597W        W36156  20.760  40.382   3.172
72598W        W36157   8.777   2.956   4.620
72599W        W36158  14.270  14.806   3.653
72600W        W36159  27.522   5.205   3.261
72601W        W36160  41.863   9.706   2.298
72602W        W36161  34.525  25.084   4.152
72603W        W36162  41.475   1.846  12.941
72604W        W36163   2.735  23.100  11.856
72605W        W36164  35.079   9.179   3.319
72606W        W36165   8.163   0.801   1.273
72607W        W36166  19.764  43.499   0.815
72608W        W36167  38.456  12.789  14.996
72609W        W36168  40.500  21.238   3.668
72610W        W36169  30.658  24.607   0.420
72611W        W36170  14.307   0.873  13.447
72612W        W36171  35.588  24.211  12.530
72613W        W36172  34.119  14.639   4.606
72614W        W36173  44.994  26.632   4.188
72615W        W36174  18.121   3.328  14.971
72616W        W36175  36.947   7.732  13.470
72617W        W36176  23.623  19.571   4.667
72618W        W36177   4.401  15.164  11.575
72619W        W36178   1.458  15.675  12.038
72620W        W36179  35.445   1.343  12.405
72621W        W36180  25.171   2.462  13.523
72622W        W36181  11.358   0.989  11.103
72623W        W36182  30.571  38.074   0.752
72624W        W36183  36.496   2.353  14.295
72625W        W36184  43.342  14.154   3.350
72626W        W36185  42.393  19.191   3.809
72627W        W36186  41.861   4.793  11.870
72628W        W36187  41.034   4.747   4.771
72629W        W36188  27.029  29.027  14.283
72630W        W36189  24.124  17.566  12.353
72631W        W36190   5.787   1.917   1.872
72632W        W36191  30.621  15.768   0.843
72633W        W36192   5.769  43.818  12.090
72634W        W36193  22.996  34.448   2.224
72635W        W36194   4.370  31.131  12.093
72636W        W36195   1.257  29.524  14.904
72637W        W36196  40.976  26.549  12.494
72638W        W36197  15.313  10.173  13.975
72639W        W36198   9.888  35.859  14.276
72640W        W36199   0.825  33.590  10.603
72641W        W36200  23.628  23.523  10.487
72642W        W36201   8.674  12.248  13.525
72643W        W36202   4.320  14.736   3.194
72644W        W36203   3.712  32.423  13.540
72645W        W36204  25.565  32.410  14.795
72646W        W36205  15.668  38.932   2.890
72647W        W36206  39.851   3.726   2.208
72648W        W36207  16.273  40.972   0.348
72649W        W36208  37.523  26.472   9.962
72650W        W36209  41.820  16.192   4.284
72651W        W36210  18.282  12.127  11.911
72652W        W36211  39.911  42.962   0.931
72653W        W36212   3.729  43.443  12.445
72654W        W36213  41.371   4.889   2.888
72655W        W36214  21.691  29.517   4.206
72656W        W36215  34.435  40.517   0.265
72657W        W36216  36.932  28.516   2.197
72658W        W36217  17.265  23.569  12.386
72659W        W36218  13.817  28.044  12.824
72660W        W36219  10.639  37.847   4.627
72661W        W36220  30.124  40.462  14.802
72662W        W36221  32.125   4.817  12.505
72663W        W36222  27.095  29.092  13.509
72664W        W36223  28.969  21.543   0.820
72665W        W36224  16.283  33.544  10.973
72666W        W36225   7.688   6.756   3.303
72667W        W36226  13.208  39.018  11.005
72668W        W36227   0.455   5.740   1.930
72669W        W36228   8.842  16.150   3.743
72670W        W36229  16.581   2.933  13.970
72671W        W36230  17.602  16.238  12.564
72672W        W36231   3.461  13.155  11.532
72673W        W36232   6.698  34.546  14.352
72674W        W36233  26.481  37.924   0.853
72675W        W36234  15.203  37.027  13.885
72676W        W36235  20.171  29.589  11.072
72677W        W36236  40.898  40.543   4.242
72678W        W36237  36.417  37.022  12.054
72679W        W36238   2.807   2.775   0.825
72680W        W36239  27.958  19.731  11.579
72681W        W36240  38.931  22.715   1.314
72682W        W36241  19.106  21.252  13.377
72683W        W36242  15.096  18.665   1.404
72684W        W36243  35.463   7.210   0.417
72685W        W36244  12.702   2.776   2.409
72686W        W36245  23.042   7.867   1.834
72687W        W36246  42.988  17.135   0.841
72688W        W36247  39.924  38.917   2.326
72689W        W36248   2.286  43.936  12.573
72690W        W36249  34.991   7.241  12.025
72691W        W36250  21.219  29.986  12.353
72692W        W36251  26.481   6.893   3.854
72693W        W36252  27.171   0.351  14.338
72694W        W36253  23.615  26.551   1.773
72695W        W36254   8.772  24.612  12.512
72696W        W36255  13.105  13.736  12.078
72697W        W36256  38.053  14.642  14.907
72698W        W36257  17.303  13.688   4.600
72699W        W36258   2.908  32.520   2.271
72700W        W36259   7.706  24.984  10.434
72701W        W36260  19.678  26.589   0.886
72702W        W36261  42.428  12.268  12.833
72703W        W36262  28.039  14.094   2.750
72704W        W36263   6.193   6.712   1.744
72705W        W36264  30.147  44.938  13.323
72706W        W36265  42.376  23.671   3.822
72707W        W36266  29.517  18.172  13.929
72708W        W36267  12.225  15.593  14.403
72709W        W36268  31.070  43.001  11.608
72710W        W36269  23.076  43.009  11.069
72711W        W36270   3.771  38.824   4.309
72712W        W36271  16.669  33.588   3.660
72713W        W36272  35.368  12.849   5.631
72714W        W36273  29.955  43.863   4.350
72715W        W36274  19.111   2.458  14.023
72716W        W36275  27.118  24.156  13.340
72717W        W36276  27.047  29.475   1.423
72718W        W36277  30.916  38.460   0.879
72719W        W36278   8.740  20.598   1.348
72720W        W36279   4.341   6.398  10.425
72721W        W36280  13.664  28.491   2.874
72722W        W36281   8.875  25.147  10.460
72723W        W36282  28.469  25.008   4.336
72724W        W36283  36.035  22.644  14.011
72725W        W36284  41.348  39.866   3.215
72726W        W36285  40.881  32.430   2.300
72727W        W36286  43.361   3.227   3.797
72728W        W36287  31.050  14.709  12.992
72729W        W36288  17.670  20.263   2.835
72730W        W36289  31.407  43.844  12.977
72731W        W36290  21.517  11.262  12.564
72732W        W36291  20.054   2.247  13.904
72733W        W36292  13.648   3.817   2.199
72734W        W36293  11.796  39.988   1.227
72735W        W36294   4.700  20.204  11.865
72736W        W36295  25.543   0.980   0.295
72737W        W36296  41.009   8.718  14.504
72738W        W36297  15.674  20.581  10.471
72739W        W36298  15.655   1.473   1.346
72740W        W36299  23.684  17.200   4.650
72741W        W36300  22.126  24.637   3.763
72742W        W36301  33.454  34.864   3.270
72743W        W36302  19.543  34.583   4.120
72744W        W36303  31.063  40.385  12.360
72745W        W36304   6.353  35.530   3.707
72746W        W36305  19.683   7.299  13.867
72747W        W36306  40.385   2.235  12.885
72748W        W36307  22.997   2.827   3.382
72749W        W36308  24.082   8.712   4.752
72750W        W36309  19.534  12.326  11.403
72751W        W36310   7.342  14.102   9.965
72752W        W36311  32.970  22.146   2.844
72753W        W36312  32.526  41.322  11.507
72754W        W36313  31.007  42.888   2.843
72755W        W36314   0.897   1.914   1.738
72756W        W36315  11.358   8.404  13.541
72757W        W36316  14.686  20.076  12.442
72758W        W36317  43.930  27.085   2.735
72759W        W36318   6.383  44.887  13.463
72760W        W36319  28.651  36.895  14.926
72761W        W36320   4.352  30.488   3.216
72762W        W36321  13.729  30.655  12.840
72763W        W36322   9.876  38.953  13.937
72764W        W36323   1.454  26.194  10.434
72765W        W36324  19.663  37.543  10.434
72766W        W36325  36.490  28.637   0.776
72767W        W36326  27.655  11.341  10.631
72768W        W36327  10.305  33.491   0.863
72769W        W36328  21.149  19.221   2.341
72770W        W36329  12.728  37.020   1.325
72771W        W36330  37.942   0.277   3.728
72772W        W36331  30.070   0.908   2.379
72773W        W36332  40.465  32.139  13.473
72774W        W36333  20.100  20.615  12.858
72775W        W36334  35.070  32.947  13.994
72776W        W36335  19.246  30.160  13.042
72777W        W36336  36.030  29.550  14.851
72778W        W36337  39.404  40.000   1.733
72779W        W36338  38.444  43.969   3.290
72780W        W36339  37.547  11.739   4.323
72781W        W36340   5.817  40.485   2.750
72782W        W36341  11.202  31.972   0.298
72783W        W36342   9.338   3.766  11.879
72784W        W36343  20.122  37.437   1.885
72785W        W36344  34.595  38.368  11.440
72786W        W36345   4.845  44.793   2.798
72787W        W36346  22.736   2.294   3.715
72788W        W36347  27.942  10.667  10.953
72789W        W36348  14.296   7.794  12.030
72790W        W36349  42.802   4.763  13.916
72791W        W36350  24.556   3.934  11.106
72792W        W36351   3.352   6.816   3.346
72793W        W36352  39.336   2.369  12.081
72794W        W36353  26.093  19.164  14.405
72795W        W36354  44.394  24.626  11.873
72796W        W36355  39.396   7.677   3.362
72797W        W36356  36.952  41.526  11.377
72798W        W36357  30.121  15.203  13.520
72799W        W36358  36.971  10.259   1.896
72800W        W36359  22.170  25.700   2.329
72801W        W36360   6.684  41.985  12.561
72802W        W36361  40.837  36.066   4.702
72803W        W36362  26.469  30.417  13.912
72804W        W36363  34.577  43.925  13.012
72805W        W36364  38.929  41.533  13.882
72806W        W36365   4.753  42.318  13.388
72807W        W36366  13.203  29.157   2.183
72808W        W36367   4.334   7.744  13.436
72809W        W36368  44.283  23.134   0.787
72810W        W36369  34.538  27.052   3.206
72811W        W36370  36.917  43.021  10.975
72812W        W36371  34.598  12.671   5.246
72813W        W36372   3.799  35.912  10.489
72814W        W36373  44.453  12.197   4.146
72815W        W36374  44.478  19.232   3.347
72816W        W36375  42.903   4.919   3.244
72817W        W36376  40.042   0.340  14.453
72818W        W36377   1.254  19.161   3.148
72819W        W36378  15.692  30.510   0.739
72820W        W36379   9.228  38.909   4.796
72821W        W36380  17.172  15.288  11.128
72822W        W36381  24.975  10.323   4.727
72823W        W36382  28.511  24.514   1.393
72824W        W36383  18.575  11.817  11.505
72825W        W36384   2.465  30.434   5.280
72826W        W36385   8.238  40.531  13.921
72827W        W36386  20.149  23.108   0.844
72828W        W36387   8.217   3.764  11.552
72829W        W36388  30.578  41.821   4.224
72830W        W36389  24.565  28.043   2.340
72831W        W36390  25.529   8.893   9.602
72832W        W36391  40.439  24.083   1.328
72833W        W36392   4.274  14.338  13.310
72834W        W36393  16.730  42.830   2.710
72835W        W36394  42.438  16.680  13.411
72836W        W36395  30.955  27.131   0.849
72837W        W36396  20.143  19.595  13.509
72838W        W36397  37.532  23.687  14.928
72839W        W36398  39.359  33.428  11.385
72840W        W36399  36.898  35.924  12.040
72841W        W36400  17.237  14.685  11.412
72842W        W36401   4.341  21.570  12.576
72843W        W36402  40.483  13.760   3.269
72844W        W36403  41.479  33.961   2.877
72845W        W36404   2.370  37.054  10.411
72846W        W36405  28.045  34.921   4.140
72847W        W36406  10.872  41.021  11.454
72848W        W36407  10.674  24.055   3.207
72849W        W36408   4.385   4.748  10.443
72850W        W36409  26.558  17.557  14.905
72851W        W36410  10.315  28.969  10.536
72852W        W36411   5.267  15.132  10.467
72853W        W36412  23.122  35.905   1.878
72854W        W36413  10.809  11.202   3.858
72855W        W36414  39.396  28.158  12.347
72856W        W36415   4.943  30.056   0.966
72857W        W36416   2.366  35.994  12.428
72858W        W36417  42.833  33.416  13.946
72859W        W36418  38.938   9.681   2.205
72860W        W36419  26.666  17.234  13.017
72861W        W36420  18.224  17.145   0.789
72862W        W36421  20.562   0.302   0.459
72863W        W36422  34.509  30.522   2.226
72864W        W36423  18.138  10.854   3.329
72865W        W36424  24.198  16.715  10.998
72866W        W36425  20.693  17.568   0.425
72867W        W36426  11.656   7.788   3.700
72868W        W36427  17.248  40.859  13.851
72869W        W36428  29.952  24.024  13.053
72870W        W36429  11.648  24.053   2.686
72871W        W36430   6.837  41.834   2.801
72872W        W36431  14.253  14.204   2.336
72873W        W36432  43.823   4.323  13.425
72874W        W36433  21.247  11.273   2.856
72875W        W36434  20.731   2.856  10.991
72876W        W36435  37.481   1.316  13.058
72877W        W36436   3.717  36.844   3.186
72878W        W36437  38.337  22.193   0.413
72879W        W36438   3.362  40.336   1.720
72880W        W36439  29.476  18.742  10.034
72881W        W36440  35.057  44.991  14.027
72882W        W36441  37.461  34.974   0.346
72883W        W36442  11.347   6.326  14.776
72884W        W36443  10.288   1.236   0.753
72885W        W36444  37.478  16.775   2.815
72886W        W36445   8.374  17.077  13.954
72887W        W36446  23.067  20.100   0.411
72888W        W36447  22.107  10.162   0.743
72889W        W36448  29.469  33.910  13.409
72890W        W36449  39.883   3.352  10.531
72891W        W36450   2.954   7.203   2.676
72892W        W36451  35.961  27.678  11.585
72893W        W36452   4.720   8.830  13.338
72894W        W36453   1.897  29.640  14.999
72895W        W36454  35.439  19.554   2.361
72896W        W36455  36.571  11.326   1.397
72897W        W36456  12.345  21.565   3.857
72898W        W36457  26.116  18.714   3.799
72899W        W36458  11.293  13.189  12.068
72900W        W36459  30.571   4.801   3.162
72901W        W36460  26.070  32.017  13.517
72902W        W36461  40.887  44.755  13.043
72903W        W36462  40.405  20.582   1.866
72904W        W36463  43.893   4.777   0.346
72905W        W36464   3.258  38.863  11.096
72906W        W36465  15.091  32.080  14.427
72907W        W36466  19.751  11.240   2.321
72908W        W36467  22.208  12.347   1.406
72909W        W36468  29.444  15.802   2.898
72910W        W36469  29.449   1.926   5.161
72911W        W36470  13.647  14.739  13.892
72912W        W36471  25.573  36.899   2.700
72913W        W36472  17.595   7.272   0.912
72914W        W36473  23.650  26.505   5.278
72915W        W36474  25.577  40.522   3.202
72916W        W36475   3.890  36.883   0.406
72917W        W36476  18.194  25.611  12.052
72918W        W36477  12.700  34.954   2.833
72919W        W36478  16.150  16.721  13.031
72920W        W36479  28.113  37.508   3.799
72921W        W36480  24.488  27.597   4.309
72922W        W36481  38.843  26.631  14.325
72923W        W36482  35.577   6.878   0.965
72924W        W36483   4.832  15.259  12.452
72925W        W36484  30.474  36.002   4.115
72926W        W36485  18.651  40.525  13.837
72927W        W36486  22.621  42.439   4.797
72928W        W36487  27.509  20.724  13.884
72929W        W36488  31.518   5.867  10.985
72930W        W36489   0.795  34.090  12.529
72931W        W36490  13.321  42.998   0.835
72932W        W36491  13.841  39.500   2.341
72933W        W36492   9.839   9.650  11.438
72934W        W36493  43.330   6.201  13.350
72935W        W36494   6.753  25.974  10.989
72936W        W36495  24.981   0.837  13.316
72937W        W36496  17.259  37.489   2.672
72938W        W36497  41.964  25.598  14.321
72939W        W36498  37.895  40.319   2.266
72940W        W36499  27.948   1.287  11.467
72941W        W36500  12.351  33.082  14.399
72942W        W36501   9.358  20.142   0.958
72943W        W36502  39.385  40.489  13.973
72944W        W36503  14.136  44.806   0.858
72945W        W36504  39.941  23.585  11.449
72946W        W36505  37.954  28.027   0.483
72947W        W36506  44.459  25.102   4.257
72948W        W36507  23.236  32.953   2.384
72949W        W36508   2.237  39.363  13.923
72950W        W36509  40.963  39.439   2.879
72951W        W36510  11.627  37.433  10.982
72952W        W36511  38.376  16.691   2.365
72953W        W36512  30.452  12.628  12.445
72954W        W36513   2.812  17.741  14.902
72955W        W36514  24.090  43.917   2.879
72956W        W36515  21.530   6.272  10.413
72957W        W36516   8.761   1.740  11.878
72958W        W36517  37.462  31.972  13.350
72959W        W36518   1.277  17.749   1.447
72960W        W36519  22.619  37.490  12.383
72961W        W36520  16.570   4.348   1.718
72962W        W36521  37.451  23.241   0.342
72963W        W36522  19.255  17.722  11.919
72964W        W36523  17.090  35.442   3.165
72965W        W36524  22.572  12.283   2.330
72966W        W36525  42.372   6.351  13.326
72967W        W36526  20.114   2.907  13.961
72968W        W36527   0.976  12.669   3.301
72969W        W36528  29.669  37.550  13.425
72970W        W36529  31.984  10.247  11.385
72971W        W36530  18.636  41.515   3.374
72972W        W36531  19.591  24.695   1.449
72973W        W36532   4.334  35.472   4.816
72974W        W36533  10.215  41.473   1.743
72975W        W36534  44.929   5.320   2.891
72976W        W36535  19.643  17.260  12.362
72977W        W36536  38.001   7.285  12.367
72978W        W36537  36.844   0.390  12.055
72979W        W36538  36.478  14.752  11.980
72980W        W36539   4.818  31.004   4.764
72981W        W36540  38.927  42.393   2.329
72982W        W36541   7.779   1.796  13.319
72983W        W36542  34.525  35.563  11.547
72984W        W36543  43.824  35.502  10.626
72985W        W36544  39.888   8.262  12.439
72986W        W36545  27.627  10.236   2.215
72987W        W36546  29.590  20.214   1.717
72988W        W36547   1.465  13.707  12.941
72989W        W36548   0.448   9.773   4.667
72990W        W36549  43.839   9.152   3.384
72991W        W36550  27.136  20.614   2.765
72992W        W36551  11.678  31.899  12.013
72993W        W36552  35.056  24.634   4.187
72994W        W36553  38.399  11.663  11.499
72995W        W36554   0.401  18.167   4.163
72996W        W36555  16.585  11.623  11.511
72997W        W36556  41.521  44.797  10.942
72998W        W36557  44.857  44.955  12.471
72999W        W36558  20.578  43.462  12.829
73000W        W36559  32.113   9.157  12.461
73001W        W36560  27.053  17.151  11.412
73002W        W36561  28.675  28.613  11.373
73003W        W36562   4.744  24.012  13.522
73004W        W36563  22.667  29.164   3.817
73005W        W36564  23.560  15.816   3.322
73006W        W36565  36.371   6.731  13.477
73007W        W36566  37.459  39.832   4.176
73008W        W36567   2.756  44.319  14.770
73009W        W36568   5.324  12.753   1.299
73010W        W36569  36.885  32.486   1.402
73011W        W36570  10.293   3.870   3.754
73012W        W36571  29.016  34.449   0.920
73013W        W36572  43.905  16.626  10.528
73014W        W36573  24.028  17.801  13.442
73015W        W36574  32.900  29.033  10.640
73016W        W36575  37.997  22.068  13.868
73017W        W36576  40.462  33.995  13.842
73018W        W36577   3.249  16.570   0.903
73019W        W36578  37.005  35.975   4.123
73020W        W36579   0.490   3.288   0.868
73021W        W36580  35.426  31.896   1.756
73022W        W36581   5.863  31.452  14.795
73023W        W36582  35.493  28.126  12.493
73024W        W36583  16.078  25.044   4.217
73025W        W36584  21.122  23.187   0.766
73026W        W36585  15.734  10.301   3.210
73027W        W36586  30.598   8.685  13.398
73028W        W36587  36.929  33.912   1.889
73029W        W36588   9.758  22.222  14.499
73030W        W36589  23.594  30.647   5.218
73031W        W36590  11.683  44.827   3.721
73032W        W36591  15.629  19.547  10.907
73033W        W36592   6.310  38.070   1.290
73034W        W36593  36.035  41.458   1.364
73035W        W36594  38.558  13.319  11.934
73036W        W36595  28.563  35.073  12.521
73037W        W36596  26.202  34.604   0.284
73038W        W36597  26.505  10.675  12.846
73039W        W36598   0.491  27.970   2.765
73040W        W36599  24.166  15.673  11.986
73041W        W36600  16.308  37.476   4.618
73042W        W36601  32.006   1.361   2.819
73043W        W36602  17.239  41.832   2.374
73044W        W36603  32.922   7.276  13.877
73045W        W36604  24.643  21.168  14.932
73046W        W36605  40.492  41.006   0.436
73047W        W36606  40.535  30.021   0.915
73048W        W36607  17.733  27.054   1.875
73049W        W36608  38.554  40.050   0.294
73050W        W36609  44.925  33.931  13.390
73051W        W36610  21.218  22.532   2.862
73052W        W36611  38.830  15.646  13.047
73053W        W36612  32.018  26.152  10.887
73054W        W36613  22.654   5.815  10.583
73055W        W36614  33.456  38.565   5.214
73056W        W36615  13.125  42.369  10.908
73057W        W36616  32.557  39.524  11.414
73058W        W36617   2.850  25.529  14.453
73059W        W36618   9.706  42.402   4.255
73060W        W36619  28.462  26.983  11.449
73061W        W36620  42.010  20.154   3.651
73062W        W36621  43.870  32.506  12.882
73063W        W36622  37.500   5.364  12.440
73064W        W36623  35.075  41.788  14.336
73065W        W36624  43.814   3.729  13.981
73066W        W36625  24.581  32.081   2.849
73067W        W36626  10.755  43.272  11.974
73068W        W36627  35.966  18.222  14.392
73069W        W36628   5.933  39.049  12.428
73070W        W36629  30.450  18.150  13.888
73071W        W36630  14.735   5.196   5.596
73072W        W36631  29.000  30.096   1.741
73073W        W36632  24.992  26.153  13.925
73074W        W36633   5.359  11.755   1.740
73075W        W36634  24.185  32.052  12.485
73076W        W36635  21.512  16.591  13.930
73077W        W36636  23.716   6.777  12.390
73078W        W36637  10.791  44.862  14.763
73079W        W36638   2.306  42.509   2.328
73080W        W36639   6.828  36.092  12.461
73081W        W36640  12.759  28.575  14.413
73082W        W36641  27.608  22.609   3.312
73083W        W36642  27.591   2.881   4.611
73084W        W36643  22.699   9.174   3.644
73085W        W36644   5.209  15.256  11.903
73086W        W36645  39.484   7.337  13.039
73087W        W36646  40.507   4.880   3.203
73088W        W36647  11.164  27.967  13.534
73089W        W36648  43.440  39.505  12.949
73090W        W36649  36.979   7.704   1.732
73091W        W36650  27.493  20.051  14.837
73092W        W36651  23.162  20.593   2.744
73093W        W36652  37.981  13.837   4.141
73094W        W36653  43.785  21.234   2.838
73095W        W36654   8.782  24.094   1.837
73096W        W36655  35.065  41.430  12.412
73097W        W36656  30.438  28.567  14.423
73098W        W36657   4.705  36.892  13.376
73099W        W36658  30.982  38.489  13.052
73100W        W36659  34.091  29.592   2.805
73101W        W36660  11.771  42.500  10.442
73102W        W36661  15.714  41.900   0.848
73103W        W36662  14.189  14.666  13.342
73104W        W36663  36.085  18.132   1.926
73105W        W36664   7.903  14.238   3.250
73106W        W36665  38.503  34.423   5.310
73107W        W36666   4.265  31.489  10.913
73108W        W36667  42.864   4.930   5.119
73109W        W36668  11.830  35.989   1.837
73110W        W36669  24.683  23.072   3.275
73111W        W36670  12.853   9.742   4.119
73112W        W36671  19.085   9.211   2.247
73113W        W36672  13.773   9.212   5.225
73114W        W36673  33.400  44.829  11.028
73115W        W36674  13.335  38.998  13.366
73116W        W36675  44.345  30.065   1.225
73117W        W36676  24.519  42.810   2.318
73118W        W36677   0.465  32.507   3.168
73119W        W36678   1.448  38.483   2.805
73120W        W36679  12.216  35.021  11.918
73121W        W36680   2.760   7.320   0.820
73122W        W36681   7.360  30.426   1.272
73123W        W36682  41.948  38.821  14.784
73124W        W36683  28.980  22.670  11.877
73125W        W36684   9.393  23.714   2.236
73126W        W36685   9.731  25.662   4.323
73127W        W36686  14.151  40.365   2.218
73128W        W36687  12.216  15.672   1.737
73129W        W36688  37.531   9.726  11.429
73130W        W36689  31.644  18.559   0.418
73131W        W36690  39.326   5.389  14.292
73132W        W36691  19.152  44.784   1.897
73133W        W36692   5.234  40.834   1.736
73134W        W36693  13.166  15.113   2.801
73135W        W36694  30.109  37.033  13.465
73136W        W36695   3.812  31.648   0.464
73137W        W36696  28.072  38.418   2.268
73138W        W36697  23.232  25.098   4.798
73139W        W36698   4.363  11.244   4.120
73140W        W36699   2.422  10.636   3.358
73141W        W36700  31.139  37.946   3.301
73142W        W36701  15.737  39.348   0.876
73143W        W36702  24.024  17.156  10.903
73144W        W36703  18.202   9.345  10.501
73145W        W36704  26.148  32.445  14.019
73146W        W36705  23.188  29.998   1.839
73147W        W36706  10.327  18.610  14.321
73148W        W36707  19.683  10.214  12.443
73149W        W36708  18.672  41.429  14.024
73150W        W36709  16.701  30.633  13.518
73151W        W36710  35.971  15.716  13.409
73152W        W36711  11.199   7.773  12.554
73153W        W36712  42.407  29.533  13.527
73154W        W36713  19.620  12.621  13.791
73155W        W36714  11.697  38.048  11.423
73156W        W36715  19.205  32.896   0.910
73157W        W36716   9.181  34.562   4.157
73158W        W36717  24.028  31.094   9.994
73159W        W36718  40.925  24.715  14.028
73160W        W36719  25.580   6.399  14.773
73161W        W36720  41.405  40.917  14.302
73162W        W36721   7.302  29.661   4.195
73163W        W36722  37.383  33.919  12.949
73164W        W36723  28.675  44.809   0.302
73165W        W36724  30.432   6.360   4.660
73166W        W36725   0.289  33.958  11.570
73167W        W36726   3.292  14.227   4.745
73168W        W36727  26.154   6.813  10.952
73169W        W36728  36.882  43.405   2.756
73170W        W36729  24.620  12.203  10.066
73171W        W36730   9.789  15.747   1.258
73172W        W36731  18.265  15.739   2.828
73173W        W36732   2.234  12.702   4.652
73174W        W36733  16.630  24.500  13.340
73175W        W36734   3.365  11.371  12.504
73176W        W36735  13.601  10.318   4.837
73177W        W36736  29.087  36.975  14.822
73178W        W36737  40.811  29.981   4.337
73179W        W36738  31.960  43.404  13.885
73180W        W36739  41.369  30.621  14.792
73181W        W36740   2.757   5.368   3.683
73182W        W36741  43.862  21.135  10.047
73183W        W36742  29.009  44.934   0.308
73184W        W36743   1.248  24.596   4.209
73185W        W36744   4.374  18.609   0.917
73186W        W36745  32.597  20.247  11.994
73187W        W36746  11.295  38.007   2.703
73188W        W36747   2.390  29.055  10.145
73189W        W36748  37.430  20.603  14.847
73190W        W36749   4.416  21.131   3.232
73191W        W36750  26.164  19.170   4.263
73192W        W36751  26.604  12.351   0.460
73193W        W36752  33.383  44.834   3.660
73194W        W36753  22.734  33.004   9.925
73195W        W36754  11.708  12.631   2.265
73196W        W36755  34.109  28.145   2.364
73197W        W36756   8.791  11.832   4.654
73198W        W36757   4.260  32.085   4.743
73199W        W36758  27.946  40.997  11.513
73200W        W36759  11.868  42.897   2.318
73201W        W36760  33.602   3.720  11.008
73202W        W36761  11.211  43.863   2.743
73203W        W36762  21.574  22.208   2.372
73204W        W36763  43.922  15.104   4.195
73205W        W36764  26.001  27.130   2.812
73206W        W36765  29.109  21.203   3.354
73207W        W36766  16.290  41.986   3.787
73208W        W36767  31.616  30.651   0.322
73209W        W36768   0.298  10.737  11.869
73210W        W36769  30.623   4.929  11.488
73211W        W36770  18.059  21.590   2.702
73212W        W36771  17.789  18.660  14.821
73213W        W36772  10.713  28.146   4.656
73214W        W36773   2.734   2.902   1.407
73215W        W36774  18.220   7.842   1.801
73216W        W36775   7.833  38.388  11.096
73217W        W36776   6.876  13.301   1.331
73218W        W36777  11.283  27.642   3.364
73219W        W36778  20.122   6.846   1.826
73220W        W36779  22.056  13.821  11.596
73221W        W36780  29.486  24.130   3.373
73222W        W36781   9.874  15.614   5.100
73223W        W36782  23.735   0.960  14.810
73224W        W36783   1.898  21.139  12.931
73225W        W36784  24.099  27.689   2.294
73226W        W36785  26.114  15.670   4.320
73227W        W36786   8.294  39.338   0.768
73228W        W36787   1.436  31.086   1.350
73229W        W36788  24.708   0.764  13.957
73230W        W36789  15.242  27.557   3.822
73231W        W36790  39.958  25.597   0.452
73232W        W36791  32.051  37.337  13.918
73233W        W36792  18.626  31.084   1.908
73234W        W36793  32.419  26.109  13.963
73235W        W36794  15.725  35.371  13.912
73236W        W36795   6.892   9.721   3.723
73237W        W36796  27.071  22.728   2.186
73238W        W36797   6.786  15.196   2.226
73239W        W36798  42.801  15.208  14.427
73240W        W36799  26.502  43.795   3.653
73241W        W36800   5.306   3.215  12.033
73242W        W36801  25.139  36.075   3.772
73243W        W36802  29.667  23.525   3.373
73244W        W36803  13.218  22.193   5.309
73245W        W36804  23.178   0.410   2.773
73246W        W36805   1.396   7.688   2.318
73247W        W36806  12.355   1.410   2.214
73248W        W36807  43.468  10.266   3.819
73249W        W36808  17.591  23.161   1.375
73250W        W36809  30.964   2.889   4.641
73251W        W36810  11.314  22.651   0.947
73252W        W36811  16.093  40.498  10.515
73253W        W36812  31.603  21.573  14.801
73254W        W36813  21.705  38.351   2.230
73255W        W36814  27.179  21.755  14.774
73256W        W36815  11.208  28.609   1.420
73257W        W36816  35.601  38.904   3.351
73258W        W36817   5.321  27.098   0.277
73259W        W36818   5.252   3.772  13.443
73260W        W36819   1.965  28.982   1.401
73261W        W36820  30.597   3.760   2.400
73262W        W36821   4.235   0.949   2.376
73263W        W36822  27.074  10.206  13.985
73264W        W36823  24.578  22.730  14.379
73265W        W36824  37.374  26.008   4.665
73266W        W36825  41.929   4.758   0.339
73267W        W36826  10.714  40.342  14.001
73268W        W36827  17.772   0.763  10.978
73269W        W36828   1.944  26.533  12.969
73270W        W36829   6.279   5.379  11.523
73271W        W36830  40.816  29.086  12.953
73272W        W36831  13.282  10.727  14.319
73273W        W36832  17.706  26.208   4.255
73274W        W36833  25.989  33.029   3.645
73275W        W36834  24.716  43.796  10.414
73276W        W36835  22.619  40.355  11.561
73277W        W36836   1.778  27.602   1.350
73278W        W36837   0.345  43.831   0.410
73279W        W36838  19.536  41.005   0.280
73280W        W36839  44.861  34.545   2.400
73281W        W36840  25.527  26.133   0.349
73282W        W36841  35.985  16.618   4.795
73283W        W36842   3.828  16.088   2.357
73284W        W36843   2.243  34.402  12.424
73285W        W36844   9.177  32.545  13.982
73286W        W36845  22.184  40.384   0.903
73287W        W36846  37.866  20.689   3.646
73288W        W36847  12.735  18.599  11.949
73289W        W36848   6.359   2.353   4.148
73290W        W36849  12.642  39.516  12.392
73291W        W36850  19.567  28.942  14.768
73292W        W36851  31.084  32.472   3.327
73293W        W36852  34.092   3.288   0.452
73294W        W36853   7.729  26.092   4.621
73295W        W36854  29.094  41.882   0.924
73296W        W36855  33.517   8.312   3.203
73297W        W36856  16.092  28.963  10.910
73298W        W36857   6.701  14.141   4.732
73299W        W36858   3.947  14.642  14.833
73300W        W36859   8.310  41.796   0.817
73301W        W36860  21.603  44.828  10.966
73302W        W36861  28.951   9.204  11.462
73303W        W36862   6.837  11.719   4.143
73304W        W36863  20.706   9.763  13.476
73305W        W36864  11.727  44.887   0.459
73306W        W36865  39.426  40.809  12.059
73307W        W36866   8.713   1.292  11.954
73308W        W36867   1.794  44.298  10.513
73309W        W36868   9.299  36.355  13.970
73310W        W36869  36.002  18.652   1.857
73311W        W36870  37.890  33.464   1.420
73312W        W36871   9.156  33.057  11.058
73313W        W36872  22.234  25.541   3.256
73314W        W36873  25.526  31.532   3.815
73315W        W36874  37.518   5.823  11.121
73316W        W36875  37.991  29.625  10.555
73317W        W36876  17.065  24.220   4.703
73318W        W36877  18.713  11.824  12.918
73319W        W36878  34.522   3.884  12.925
73320W        W36879  28.490  18.087   2.901
73321W        W36880   5.899  12.718   4.806
73322W        W36881  17.094  31.109   3.638
73323W        W36882  10.383  11.672  11.003
73324W        W36883   1.924  27.044  12.514
73325W        W36884  42.470  26.469  11.529
73326W        W36885  36.567  11.320  13.435
73327W        W36886  23.538  20.744  10.477
73328W        W36887  24.012  16.204  11.563
73329W        W36888  28.675  27.153   3.731
73330W        W36889  22.096  29.109  11.876
73331W        W36890  38.041  43.967  11.558
73332W        W36891   7.350  43.474   3.732
73333W        W36892  42.992  15.675  14.835
73334W        W36893  14.633   3.731  10.564
73335W        W36894  24.002   0.826   3.268
73336W        W36895  29.478  15.823  11.909
73337W        W36896   0.794   5.409   4.227
73338W        W36897  36.510  24.128   4.786
73339W        W36898  10.381  19.732   0.297
73340W        W36899  34.492  35.358  12.423
73341W        W36900   9.232   9.306   3.150
73342W        W36901   7.231  37.523   5.158
73343W        W36902  43.328  29.533  13.869
73344W        W36903  13.841  30.068  12.086
73345W        W36904  11.131   9.832   1.342
73346W        W36905   3.452   2.946   0.739
73347W        W36906   1.820  14.763  11.414
73348W        W36907  35.554   6.190  14.793
73349W        W36908   3.457  39.348  11.958
73350W        W36909   1.928  43.482   4.681
73351W        W36910  37.021  16.225   4.210
73352W        W36911  21.666   4.840   4.647
73353W        W36912  34.445  41.886   2.669
73354W        W36913  10.223   1.440   4.310
73355W        W36914  36.506  35.467  11.466
73356W        W36915  39.036   0.792  10.458
73357W        W36916  29.000  31.532   0.344
73358W        W36917  21.079  33.919   1.438
73359W        W36918  12.830   6.877   5.744
73360W        W36919  43.992   8.712   1.893
73361W        W36920  14.708  26.048   9.946
73362W        W36921  28.087  27.651   2.265
73363W        W36922  14.613  29.106  11.450
73364W        W36923  21.632  38.984   2.763
73365W        W36924  27.082   6.313   0.456
73366W        W36925  43.437  13.655  13.848
73367W        W36926  17.132  28.595   4.835
73368W        W36927   2.253  12.722   1.827
73369W        W36928  40.985   1.883  11.412
73370W        W36929   6.744  42.002  10.999
73371W        W36930  32.432   6.834   4.136
73372W        W36931  13.669  39.037   0.854
73373W        W36932  41.309  35.940  11.544
73374W        W36933   0.307  29.534   2.865
73375W        W36934   2.895   8.179  12.027
73376W        W36935  18.744   9.886   3.352
73377W        W36936  42.369   0.743   3.718
73378W        W36937   6.376  14.749  13.915
73379W        W36938  13.813  10.732  12.885
73380W        W36939  20.038  35.107  12.527
73381W        W36940   0.757  42.313   2.273
73382W        W36941  20.577  21.142  11.968
73383W        W36942  10.720  39.494  10.618
73384W        W36943  30.020  21.662   4.271
73385W        W36944  31.120   0.913   3.743
73386W        W36945   5.834   6.884  11.569
73387W        W36946  27.075  39.985  14.460
73388W        W36947  43.283  28.107  10.137
73389W        W36948  38.012  40.833  13.349
73390W        W36949  35.496   7.827  11.994
73391W        W36950  27.619  37.880   3.379
73392W        W36951  35.922  27.020  12.835
73393W        W36952   2.730  21.645  14.351
73394W        W36953  42.290  28.490  12.071
73395W        W36954  29.031  32.433   3.771
73396W        W36955  41.836   6.217  12.048
73397W        W36956   5.910  22.154  12.867
73398W        W36957  43.900   0.257   3.783
73399W        W36958   7.266  23.122  11.062
73400W        W36959   0.867  33.402   2.251
73401W        W36960   9.816  44.467   2.365
73402W        W36961  39.044   9.208  12.846
73403W        W36962  22.228   5.235   0.891
73404W        W36963  12.776  15.653   0.267
73405W        W36964   1.329  42.805  12.459
73406W        W36965  20.107  11.223  14.906
73407W        W36966  37.420   1.940  14.837
73408W        W36967  15.678  36.481  11.030
73409W        W36968  27.105  11.182   4.272
73410W        W36969  31.095   6.910  11.984
73411W        W36970  19.068  34.527   0.867
73412W        W36971   0.920  24.556   2.293
73413W        W36972   6.803  35.926   2.764
73414W        W36973  21.540  20.708   2.669
73415W        W36974  28.118   8.747   3.291
73416W        W36975  13.127  32.041   3.303
73417W        W36976  43.293  22.672   9.973
73418W        W36977  44.305  22.195   1.823
73419W        W36978  14.098  13.127   3.730
73420W        W36979  31.921  16.630  11.425
73421W        W36980  13.651  41.021   3.815
73422W        W36981   2.268  12.765   1.254
73423W        W36982  17.664   4.713  11.052
73424W        W36983  27.056  33.106   0.790
73425W        W36984   9.784  34.400  13.314
73426W        W36985  22.638  12.164  12.012
73427W        W36986  12.766  28.971  13.344
73428W        W36987  39.853  12.332  13.925
73429W        W36988   4.367  12.265   3.211
73430W        W36989  42.312   3.822   1.231
73431W        W36990  19.549   3.364   3.175
73432W        W36991  35.974  43.922   0.895
73433W        W36992   5.728  43.995  12.526
73434W        W36993  33.593  14.593   2.748
73435W        W36994  13.743  32.124  13.344
73436W        W36995   2.399  12.186   3.170
73437W        W36996  29.046  15.585  12.527
73438W        W36997  44.969  41.472  12.542
73439W        W36998  10.144  44.838  14.277
73440W        W36999   5.697   1.435  11.965
73441W        W37000  13.623  33.114   3.355
73442W        W37001  20.572   4.707   0.775
73443W        W37002  24.701  23.186  13.467
73444W        W37003   0.860   7.843  12.373
73445W        W37004  18.124  22.163   0.351
73446W        W37005   5.371  36.887   0.781
73447W        W37006  34.090  19.230   2.881
73448W        W37007  42.947  22.225  11.453
73449W        W37008  33.117  35.388   0.899
73450W        W37009  15.262  19.070  11.976
73451W        W37010   6.276  25.618  12.470
73452W        W37011  30.435   5.396   0.304
73453W        W37012   6.866  42.831  12.069
73454W        W37013  18.152  24.151   1.804
73455W        W37014   8.277  44.881  10.619
73456W        W37015  18.645  41.491   2.746
73457W        W37016   3.904  34.907  10.903
73458W        W37017  18.108   4.305   1.710
73459W        W37018  40.419  22.521   4.801
73460W        W37019  38.851  39.000   4.624
73461W        W37020  28.602  39.005  12.909
73462W        W37021  16.168  17.620   3.276
73463W        W37022   9.169  28.160   2.391
73464W        W37023  41.030   0.406   4.254
73465W        W37024  35.436  40.935  13.938
73466W        W37025  27.675  26.611  14.017
73467W        W37026   3.714   8.285  11.508
73468W        W37027   5.319  10.867  12.047
73469W        W37028  40.948   2.963   0.265
73470W        W37029  26.110   8.389   3.332
73471W        W37030  38.479  36.471  13.821
73472W        W37031  43.472  23.631  10.577
73473W        W37032  15.143  36.356   1.313
73474W        W37033   0.844  21.021   4.781
73475W        W37034  14.241  23.612   3.842
73476W        W37035   7.295  20.576  11.086
73477W        W37036   3.944   3.776   3.326
73478W        W37037   3.902   8.295  11.053
73479W        W37038   7.722  19.203  12.847
73480W        W37039  18.760   1.963  11.568
73481W        W37040  29.127  31.997  13.877
73482W        W37041  40.008  35.076   3.340
73483W        W37042   2.885  34.985  13.393
73484W        W37043  29.170  26.485  14.872
73485W        W37044  25.153  41.922   2.399
73486W        W37045  10.310  17.728   3.825
73487W        W37046  44.339  19.202   1.277
73488W        W37047  11.305   9.299   0.802
73489W        W37048   8.772  43.472  14.979
73490W        W37049  35.039  33.559   4.808
73491W        W37050  24.158   5.746   3.774
73492W        W37051   2.863  43.795   3.253
73493W        W37052  17.289  43.362  12.522
73494W        W37053  27.649  12.766  12.374
73495W        W37054  25.093   3.824  14.789
73496W        W37055  31.947  22.088   0.868
73497W        W37056   0.876   4.295   3.835
73498W        W37057   6.232  20.143  13.333
73499W        W37058  18.720  43.825   4.765
73500W        W37059  16.745  31.034  14.980
73501W        W37060  29.087  24.062   5.233
73502W        W37061   8.342  24.081  11.528
73503W        W37062   1.908  39.322  14.853
73504W        W37063  31.014  16.747   3.160
73505W        W37064  20.751  34.001  11.118
73506W        W37065   0.334  39.036  10.430
73507W        W37066  29.950  17.259   3.658
73508W        W37067  28.544  19.726   4.350
73509W        W37068  21.132  25.525   3.150
73510W        W37069  37.511  21.632   3.709
73511W        W37070  42.353  28.931  10.414
73512W        W37071  32.107  20.115   4.159
73513W        W37072  27.504  16.142   4.232
73514W        W37073  16.292  16.576  12.553
73515W        W37074  28.543  20.692  12.981
73516W        W37075   4.340   4.844   4.732
73517W        W37076  37.433  11.316  11.479
73518W        W37077  30.963  17.164  10.499
73519W        W37078  15.192  29.541   1.398
73520W        W37079  42.455  15.596   4.732
73521W        W37080  28.170  31.133   1.325
73522W        W37081  40.817  32.611  12.505
73523W        W37082  17.687  26.568  14.359
73524W        W37083   1.411  27.655   0.476
73525W        W37084  28.542  18.269  14.510
73526W        W37085  22.562  29.942   2.286
73527W        W37086  14.105  12.250  13.906
73528W        W37087  20.681  13.804  11.463
73529W        W37088   5.217  21.232   1.254
73530W        W37089  14.186  15.287   4.617
73531W        W37090   7.910  25.591   0.922
73532W        W37091   8.219  43.297  11.469
73533W        W37092   4.789  39.365  13.024
73534W        W37093  27.651   9.733   4.681
73535W        W37094  13.217  22.695   1.861
73536W        W37095  44.310   6.683  12.097
73537W        W37096  22.599   0.924  12.577
73538W        W37097   6.904   0.255   3.349
73539W        W37098  36.586  41.867   3.147
73540W        W37099  42.352  42.877   4.289
73541W        W37100  23.549  28.089   1.846
73542W        W37101  40.493  10.731  14.302
73543W        W37102  18.691  43.896   0.316
73544W        W37103   9.692  25.119   2.722
73545W        W37104   4.285  18.268   0.748
73546W        W37105  35.940  11.179  13.469
73547W        W37106  31.455  17.291  10.945
73548W        W37107  23.573  29.649   5.719
73549W        W37108  39.062   2.352  10.994
73550W        W37109   0.479  24.086  12.828
73551W        W37110   2.921  11.855  11.555
73552W        W37111   0.787  44.432  10.507
73553W        W37112  30.606  11.287  10.994
73554W        W37113  43.363   3.713  13.837
73555W        W37114  11.702  14.683  13.547
73556W        W37115  41.473  29.080  12.572
73557W        W37116  17.162  38.513  14.365
73558W        W37117  28.060  12.655  14.027
73559W        W37118  25.182  43.816   4.739
73560W        W37119  26.126  39.377  12.497
73561W        W37120   5.224   6.732  11.601
73562W        W37121  35.564  37.940   4.686
73563W        W37122  31.942   8.875   4.708
73564W        W37123  30.057  33.546   1.385
73565W        W37124   8.745  21.512   1.869
73566W        W37125  23.192  42.490  14.979
73567W        W37126  33.622  28.049   3.633
73568W        W37127  16.206  24.010  10.446
73569W        W37128  32.063  22.585  14.407
73570W        W37129   7.780  10.383   0.859
73571W        W37130   9.384  13.220   4.300
73572W        W37131  12.795  43.281   1.373
73573W        W37132   8.201  10.806  11.587
73574W        W37133  23.577  20.065   0.902
73575W        W37134  41.030  27.154   4.340
73576W        W37135   3.897  10.722   1.785
73577W        W37136  37.080   1.351  11.892
73578W        W37137  12.804  10.693   0.295
73579W        W37138  27.097  14.153   5.228
73580W        W37139  30.918  44.391   9.947
73581W        W37140  27.551  29.512  10.916
73582W        W37141  39.519  18.158   0.475
73583W        W37142  34.867  13.721  12.969
73584W        W37143  12.633  28.519  11.530
73585W        W37144  21.254   6.865  10.514
73586W        W37145  32.902   7.233  10.551
73587W        W37146  10.244   9.854   1.231
73588W        W37147  26.021   6.776   2.364
73589W        W37148  40.934  16.273  11.947
73590W        W37149  15.788  13.303  13.936
73591W        W37150   4.295  37.854  14.461
73592W        W37151  20.654  13.182  14.330
73593W        W37152  15.600  20.203  13.992
73594W        W37153  31.001  30.611   0.808
73595W        W37154  16.695  36.428   1.261
73596W        W37155  10.873  44.453   2.823
73597W        W37156  27.595  38.483  14.409
73598W        W37157  17.178  18.099   2.223
73599W        W37158  38.553  37.381   2.284
73600W        W37159  31.527  22.181  14.416
73601W        W37160  35.918   5.845  14.405
73602W        W37161  24.678   2.828  11.984
73603W        W37162  40.354  33.953  12.578
73604W        W37163   4.879  32.962   2.418
73605W        W37164  24.117   9.207   3.221
73606W        W37165   4.937  20.612   5.270
73607W        W37166  38.852  39.889  14.446
73608W        W37167  10.863  30.518   0.775
73609W        W37168  13.225   5.699  12.434
73610W        W37169  36.432  25.685   0.479
73611W        W37170   1.363  17.715  10.888
73612W        W37171   5.714  16.132  14.332
73613W        W37172  42.873   5.785   0.303
73614W        W37173  44.823  38.904   2.860
73615W        W37174  37.927  16.631   1.348
73616W        W37175  37.925  19.129  12.509
73617W        W37176  38.901  31.605   2.283
73618W        W37177  26.582  18.201  14.499
73619W        W37178  24.664  29.144  10.962
73620W        W37179   6.189  32.541  13.454
73621W        W37180  41.390  19.047  12.576
73622W        W37181  43.480  44.838   4.243
73623W        W37182  19.639  22.209   1.804
73624W        W37183  42.845  18.093  11.057
73625W        W37184  10.351  10.349  12.579
73626W        W37185  33.501  25.010  10.941
73627W        W37186  10.780  36.537  10.534
73628W        W37187  33.453  33.406   2.410
73629W        W37188  39.325  31.540  13.059
73630W        W37189  23.132  39.525  10.965
73631W        W37190   6.351  26.060   2.851
73632W        W37191  30.560  31.100  14.919
73633W        W37192   0.308  10.640  11.394
73634W        W37193  24.631   5.364   3.248
73635W        W37194  27.567  34.025   3.785
73636W        W37195  26.562  21.584  12.395
73637W        W37196   4.945   6.406   0.248
73638W        W37197  29.156   4.807  14.788
73639W        W37198  21.181  41.444   9.941
73640W        W37199  34.559  23.520  11.382
73641W        W37200  15.126   2.461  13.437
73642W        W37201   5.863  25.596  12.470
73643W        W37202  18.077  29.106   4.216
73644W        W37203  23.156  28.567  11.448
73645W        W37204  33.961  38.830   3.324
73646W        W37205  22.670  32.574  13.445
73647W        W37206  30.438  35.550  14.289
73648W        W37207  42.356  14.171  14.781
73649W        W37208  44.306  35.103  13.426
73650W        W37209   7.327  40.025   1.253
73651W        W37210  44.784   8.312   1.325
73652W        W37211  15.301  12.360   2.407
73653W        W37212  32.582  15.202   3.210
73654W        W37213  13.773  33.105  12.940
73655W        W37214   7.306  36.918  11.583
73656W        W37215  19.166  19.219   0.809
73657W        W37216   4.357  28.630   4.831
73658W        W37217  10.648   8.327  10.909
73659W        W37218   4.836   1.899  13.470
73660W        W37219  38.034  32.046  14.954
73661W        W37220  31.425  31.949   0.383
73662W        W37221  14.736  26.973  12.470
73663W        W37222  16.174  31.551   0.792
73664W        W37223  21.528  40.014  10.505
73665W        W37224  19.228   0.432  10.912
73666W        W37225  16.262  16.738   3.202
73667W        W37226  44.485  44.765  12.864
73668W        W37227  23.236  44.373  12.079
73669W        W37228   5.212   8.226  13.309
73670W        W37229  23.007  32.952   1.781
73671W        W37230  43.823   4.919  12.075
73672W        W37231  14.605  15.641  13.939
73673W        W37232   8.803  36.548  14.502
73674W        W37233  16.271  34.369   1.905
73675W        W37234  29.158  31.621   4.768
73676W        W37235   8.214  35.380  14.512
73677W        W37236  44.358  20.099   3.307
73678W        W37237  42.296  37.410  13.338
73679W        W37238   9.712   3.755  11.574
73680W        W37239  17.647  37.366   3.688
73681W        W37240  34.894  17.291   4.254
73682W        W37241  40.022  23.704   4.774
73683W        W37242  33.563  29.579   4.162
73684W        W37243   2.315  23.727  11.883
73685W        W37244  30.656  26.491  13.964
73686W        W37245  36.935  38.467  13.791
73687W        W37246   4.794  28.954   2.405
73688W        W37247  32.620   8.370  10.954
73689W        W37248  38.419  16.091   3.160
73690W        W37249  24.637  23.053  10.892
73691W        W37250  20.059  12.329   3.643
73692W        W37251  36.001  43.466   1.345
73693W        W37252  17.135   4.854   1.840
73694W        W37253  29.473  24.586   2.781
73695W        W37254   8.361  38.853  10.643
73696W        W37255  33.577   1.873  14.453
73697W        W37256  39.371  27.190  14.381
73698W        W37257  17.781   8.348  12.579
73699W        W37258  27.954   7.408  13.408
73700W        W37259  29.648  27.542  13.967
73701W        W37260   0.940  15.731   1.805
73702W        W37261  42.321  39.430   3.740
73703W        W37262  32.105  30.652  10.405
73704W        W37263  29.985  32.895   3.271
73705W        W37264  35.380  24.059   1.253
73706W        W37265  17.230   7.380   3.721
73707W        W37266   1.753   3.268   1.815
73708W        W37267   0.961  36.913  12.528
73709W        W37268  37.354  24.113  12.048
73710W        W37269  24.615   9.816   3.772
73711W        W37270   2.791  29.435   2.831
73712W        W37271  22.635  33.124   3.869
73713W        W37272  15.781  35.553  12.459
73714W        W37273  39.877   1.878   3.797
73715W        W37274  27.184  10.380   1.875
73716W        W37275  28.645  31.430   4.598
73717W        W37276  21.685  36.437  12.414
73718W        W37277  40.545  18.116  14.288
73719W        W37278  23.232  11.154  13.483
73720W        W37279  40.448  27.064  10.572
73721W        W37280  44.918  35.049   4.234
73722W        W37281  10.368  33.590   5.304
73723W        W37282   6.412   1.958   0.462
73724W        W37283   1.437  16.171  14.768
73725W        W37284  20.627  17.088   4.678
73726W        W37285  31.630  11.653  10.913
73727W        W37286  29.106  31.621  13.048
73728W        W37287   9.252   6.887  12.409
73729W        W37288   5.341  13.631   3.846
73730W        W37289  18.685  25.181  12.844
73731W        W37290  23.554  29.591  12.887
73732W        W37291  33.952  27.572   3.230
73733W        W37292   5.287   8.319  11.064
73734W        W37293  15.277  12.751  11.590
73735W        W37294   3.725   7.387   4.223
73736W        W37295  39.463  15.617   4.156
73737W        W37296  26.070  23.606  11.003
73738W        W37297   5.869  43.392  13.455
73739W        W37298  31.637  32.568   1.925
73740W        W37299  16.625   8.172   2.881
73741W        W37300  39.555  39.869   0.285
73742W        W37301  26.135   1.887  12.049
73743W        W37302  21.123  15.671   1.344
73744W        W37303  37.070  15.138   3.760
73745W        W37304  11.361  21.140   4.681
73746W        W37305  11.191   8.270   1.360
73747W        W37306  43.405  39.825   1.409
73748W        W37307  21.052  13.622  12.078
73749W        W37308  36.424  16.212   3.351
73750W        W37309  24.562  18.057   2.893
73751W        W37310  39.500  17.102  13.976
73752W        W37311   6.418  32.040   1.823
73753W        W37312  21.063  42.981  13.936
73754W        W37313   8.394  22.049   0.457
73755W        W37314  39.980  32.550   2.669
73756W        W37315  14.262   2.229   4.237
73757W        W37316  38.954  37.527  11.569
73758W        W37317  40.459  35.978   2.304
73759W        W37318  34.079  36.846  10.935
73760W        W37319  18.243   4.301  14.997
73761W        W37320  16.095  33.993   3.756
73762W        W37321  37.876  31.917  10.582
73763W        W37322  28.492  18.217  13.394
73764W        W37323  33.915  19.647  10.639
73765W        W37324  18.713  31.491   0.818
73766W        W37325  40.808  40.968  14.325
73767W        W37326   3.368  12.629  10.408
73768W        W37327  22.095  26.589  10.928
73769W        W37328  30.518  43.828   1.699
73770W        W37329  44.390  43.938  14.409
73771W        W37330   1.339  44.476   0.959
73772W        W37331  32.901  18.098  12.830
73773W        W37332   7.702  13.726   4.290
73774W        W37333  24.564   5.696  13.400
73775W        W37334  32.141  15.611  10.570
73776W        W37335  16.167  15.819   4.790
73777W        W37336  18.112  16.626  11.938
73778W        W37337  17.649  20.102  14.376
73779W        W37338   7.238  13.190   2.192
73780W        W37339  27.097  10.205   0.938
73781W        W37340  22.527   1.763  10.445
73782W        W37341  38.857  24.549   0.325
73783W        W37342  13.341   0.828  10.063
73784W        W37343  33.602  40.877  13.959
73785W        W37344  17.076  22.610  14.432
73786W        W37345  16.271   3.403  14.892
73787W        W37346  39.324   7.803  10.636
73788W        W37347  22.236  37.398  14.349
73789W        W37348   7.197  36.892   2.728
73790W        W37349  42.315  37.344   1.763
73791W        W37350   5.834   6.305  12.339
73792W        W37351  39.450   2.875   0.441
73793W        W37352  42.288  18.253  11.590
73794W        W37353  16.703  30.960  11.084
73795W        W37354  15.149  28.603   0.342
73796W        W37355  36.938   5.252  10.490
73797W        W37356  22.204  17.236   1.309
73798W        W37357  15.262  42.863   3.326
73799W        W37358  25.560  43.781  11.530
73800W        W37359  13.690  22.537  14.292
73801W        W37360   9.879  43.287  13.969
73802W        W37361  18.551   4.746  12.049
73803W        W37362  16.245  34.076  10.996
73804W        W37363  32.960  26.180  12.088
73805W        W37364  25.663   4.240   1.255
73806W        W37365  40.376  22.665  10.952
73807W        W37366  34.418  12.319   0.880
73808W        W37367  27.147   8.181  11.049
73809W        W37368  22.615  20.184  14.968
73810W        W37369  42.846  23.639  13.347
73811W        W37370  30.930   5.828   4.201
73812W        W37371  41.832  16.745  10.436
73813W        W37372   3.812  37.914  14.838
73814W        W37373  34.005  35.384  11.044
73815W        W37374   7.669  26.146  12.907
73816W        W37375  27.945   8.210  11.580
73817W        W37376  13.332  43.959  11.494
73818W        W37377  19.084  18.753   0.411
73819W        W37378  37.506  11.285  13.053
73820W        W37379  43.333  32.467   0.459
73821W        W37380  40.326   7.726  13.801
73822W        W37381  31.014  41.885   0.763
73823W        W37382  15.774  37.938  11.503
73824W        W37383  40.036  39.061  13.894
73825W        W37384  23.059  31.922   3.334
73826W        W37385  31.039   3.342   1.815
73827W        W37386  26.099  17.246   2.787
73828W        W37387  20.630  12.325  13.883
73829W        W37388  33.108   5.924   3.378
73830W        W37389   3.259  39.338  12.544
73831W        W37390   4.926  42.007   3.735
73832W        W37391  28.958  42.388  14.989
73833W        W37392  29.612  19.604  11.488
73834W        W37393  35.955   0.283   2.228
73835W        W37394   5.806  38.532  13.825
73836W        W37395  28.175  38.879   4.639
73837W        W37396  38.004  43.458  14.980
73838W        W37397  15.678  37.087  10.913
73839W        W37398  22.128  35.568   4.730
73840W        W37399   5.772  34.953  10.640
73841W        W37400  28.026  11.283   4.683
73842W        W37401   3.273  33.913   1.866
73843W        W37402  10.352  22.109  14.958
73844W        W37403  19.696  44.467   5.162
73845W        W37404  15.149  26.641   1.792
73846W        W37405  10.777   5.430  13.441
73847W        W37406  41.787  41.822  12.369
73848W        W37407  25.080  20.724  12.030
73849W        W37408  35.988  11.163  12.361
73850W        W37409   8.791  15.223  14.377
73851W        W37410  30.523  14.131   3.201
73852W        W37411   3.870  31.049   3.301
73853W        W37412   8.365  10.751  10.913
73854W        W37413   6.888  12.702   5.117
73855W        W37414  28.006  40.009   2.673
73856W        W37415   1.320  16.088   2.178
73857W        W37416   6.766  15.611   2.870
73858W        W37417  29.631  33.973  10.641
73859W        W37418   8.728  18.112  13.539
73860W        W37419  44.431  26.653   0.335
73861W        W37420   4.830  28.466  13.431
73862W        W37421  20.551  37.005   2.759
73863W        W37422   9.800  23.146  14.829
73864W        W37423  41.880  10.785  14.907
73865W        W37424  24.622  22.618  13.802
73866W        W37425  24.516  44.833  12.957
73867W        W37426   5.726  24.023  14.402
73868W        W37427  29.515  28.461  13.878
73869W        W37428  10.191  34.876  14.478
73870W        W37429   0.334  18.584   2.687
73871W        W37430  39.909  26.693  14.839
73872W        W37431  37.916  17.245  12.088
73873W        W37432  21.521  23.122   2.187
73874W        W37433   7.768  15.316  10.417
73875W        W37434  27.080  16.156  14.890
73876W        W37435  25.526  26.050   2.860
73877W        W37436  42.944  42.006   1.428
73878W        W37437  39.999  41.899   2.891
73879W        W37438  29.001  12.130   3.852
73880W        W37439  29.115  10.377  13.826
73881W        W37440   4.391  40.920  14.394
73882W        W37441   8.319  25.973  14.400
73883W        W37442  20.552  39.926  11.474
73884W        W37443   1.809  10.282  14.831
73885W        W37444  14.828  39.368  13.528
73886W        W37445   0.927  10.213   4.620
73887W        W37446  10.746  23.564  12.832
73888W        W37447  24.169   1.885   1.298
73889W        W37448   3.250  34.449   4.318
73890W        W37449  31.468  38.489   5.786
73891W        W37450  36.024   9.831  14.291
73892W        W37451  41.974  39.830   4.283
73893W        W37452  27.040  28.595  12.487
73894W        W37453  16.091  19.236   1.338
73895W        W37454  29.112  23.551   4.244
73896W        W37455   4.228  36.986  14.356
73897W        W37456  43.879   3.266   1.729
73898W        W37457   6.405  23.205  11.489
73899W        W37458  24.675  18.736  14.854
73900W        W37459  28.099  27.959   4.295
73901W        W37460  35.063   4.802  10.482
73902W        W37461   9.871  21.051  12.975
73903W        W37462  16.705  31.066   2.694
73904W        W37463  15.795  27.992   4.348
73905W        W37464   9.254  37.048  11.081
73906W        W37465  33.875   2.334  11.406
73907W        W37466  16.667  25.110  12.393
73908W        W37467  26.558  16.211   2.864
73909W        W37468  29.115  17.623   3.647
73910W        W37469  31.469   5.714  11.515
73911W        W37470  13.694  39.014  11.438
73912W        W37471   6.199   9.709  10.623
73913W        W37472   5.771   9.266   1.247
73914W        W37473  40.886  20.528   4.237
73915W        W37474   9.360   3.278   0.385
73916W        W37475  44.358  12.625   0.784
73917W        W37476  38.948  23.012  12.957
73918W        W37477   2.248  24.548   0.407
73919W        W37478  14.265  29.567  10.619
73920W        W37479   1.482  22.253   3.243
73921W        W37480  40.469  44.862  13.528
73922W        W37481   0.316  32.466   4.260
73923W        W37482   0.376   7.910   0.778
73924W        W37483  35.564  12.818   9.986
73925W        W37484   5.934   3.250   0.765
73926W        W37485  36.094   9.850   2.379
73927W        W37486  25.202  33.056   4.303
73928W        W37487  17.710  31.125  11.972
73929W        W37488   2.761  10.328  14.843
73930W        W37489  23.137  30.926   3.385
73931W        W37490   7.707  42.408  13.887
73932W        W37491  27.578  25.630   5.663
73933W        W37492  15.095  18.174  14.304
73934W        W37493  35.445  38.378  14.925
73935W        W37494  38.920  32.528   2.707
73936W        W37495   4.817  15.191  11.478
73937W        W37496  23.176  20.059   0.862
73938W        W37497  44.292  33.443   4.712
73939W        W37498  16.169   3.747  12.429
73940W        W37499  33.941  30.437  11.974
73941W        W37500   0.983   9.809   0.930
73942W        W37501  33.997   6.817   4.146
73943W        W37502   9.229  22.549  11.909
73944W        W37503  37.998  12.625   0.822
73945W        W37504   5.238  34.997   3.700
73946W        W37505   5.235  27.534  14.383
73947W        W37506  11.278  39.449  12.345
73948W        W37507  19.763  16.602   3.824
73949W        W37508  39.929   6.214   4.116
73950W        W37509  39.930   6.227   1.315
73951W        W37510   6.364  34.369  12.346
73952W        W37511   5.925  44.394   3.298
73953W        W37512   9.770  35.860   1.803
73954W        W37513  33.561  36.040   9.960
73955W        W37514  29.429   0.905  11.073
73956W        W37515  16.103  34.958   4.258
73957W        W37516   7.905  11.340  11.121
73958W        W37517  13.294  42.009  12.082
73959W        W37518  21.729   9.285  12.077
73960W        W37519  17.196   5.931   1.905
73961W        W37520  15.726  22.569   4.623
73962W        W37521  15.635  30.555   3.663
73963W        W37522  43.308   4.342   3.767
73964W        W37523  17.222   9.170  13.413
73965W        W37524  15.278  41.850  11.093
73966W        W37525  40.901  35.956   0.348
73967W        W37526   0.298  36.347   0.458
73968W        W37527   6.271  15.584  12.070
73969W        W37528  40.455   4.255   1.212
73970W        W37529  24.675  35.535   1.243
73971W        W37530  39.339   2.843   0.967
73972W        W37531  31.519  35.900  13.315
73973W        W37532  27.063  44.263  12.910
73974W        W37533  34.408   8.813  10.506
73975W        W37534  39.908  17.137   2.759
73976W        W37535  16.604  17.679   0.373
73977W        W37536  28.110  16.257  11.117
73978W        W37537   0.898   1.469  12.937
73979W        W37538  37.491  31.133  10.095
73980W        W37539  17.202  29.509  10.572
73981W        W37540  35.518  17.662   4.779
73982W        W37541  14.770  14.789   3.648
73983W        W37542   3.902  34.589  11.939
73984W        W37543  35.434   2.848   1.761
73985W        W37544   8.194  41.003   4.117
73986W        W37545  18.245  35.858   2.737
73987W        W37546  37.895  22.613  11.884
73988W        W37547   8.383  17.788  10.418
73989W        W37548  19.662  28.135  12.345
73990W        W37549  38.470  38.862   3.868
73991W        W37550   6.899  25.633  10.482
73992W        W37551  26.973  35.374   3.858
73993W        W37552   0.429   0.881   2.886
73994W        W37553  26.038   0.360  13.391
73995W        W37554  32.548   4.370  13.949
73996W        W37555  44.393  26.673  14.848
73997W        W37556   0.902  36.395   0.242
73998W        W37557  17.571   2.770  14.976
73999W        W37558  30.077  12.622  12.858
74000W        W37559  35.362   1.297   2.686
74001W        W37560  27.168  25.215   2.802
74002W        W37561  10.687   5.436  14.785
74003W        W37562   3.334   3.901  14.346
74004W        W37563   6.383  30.938   0.263
74005W        W37564  13.192   6.892   2.682
74006W        W37565  32.142  20.607   0.321
74007W        W37566  31.647   5.281   2.375
74008W        W37567  41.988  40.370  12.960
74009W        W37568  29.971  17.576   2.876
74010W        W37569  13.753   2.941   4.335
74011W        W37570  23.731  22.131   1.792
74012W        W37571  27.013  28.180  11.552
74013W        W37572  26.648   7.764   5.199
74014W        W37573  29.650  29.070   3.188
74015W        W37574  33.511  13.826   1.701
74016W        W37575  21.747  39.835   3.183
74017W        W37576  44.406  27.498   3.749
74018W        W37577  13.210  36.586  13.476
74019W        W37578  28.107  23.662  13.956
74020W        W37579  27.649  13.699  14.772
74021W        W37580  23.051  24.693   2.848
74022W        W37581  32.119  13.750  13.027
74023W        W37582  29.125  25.006   1.898
74024W        W37583  25.512  39.915   1.694
74025W        W37584  30.077   0.919   3.686
74026W        W37585  37.910  23.647  14.028
74027W        W37586  11.364  38.358  13.855
74028W        W37587  34.505  40.335  10.136
74029W        W37588  23.688  42.297  14.310
74030W        W37589  35.542  32.961   4.341
74031W        W37590  43.455  44.288  10.478
74032W        W37591  35.514  21.530  14.473
74033W        W37592  13.814  23.587  14.002
74034W        W37593  13.838  41.794  12.870
74035W        W37594  21.042  32.885  10.453
74036W        W37595  22.590  15.769   4.607
74037W        W37596  32.534   9.200   2.314
74038W        W37597  34.021  39.421  14.792
74039W        W37598  13.174  12.808  13.507
74040W        W37599  41.395  16.274   1.359
74041W        W37600  20.145   9.393   0.922
74042W        W37601  10.732  12.339   0.265
74043W        W37602   9.802  18.560   1.296
74044W        W37603   1.474  20.736  13.799
74045W        W37604  26.149  21.234  13.805
74046W        W37605   7.886  15.227  10.942
74047W        W37606  37.929  16.717  12.544
74048W        W37607  31.611   0.301  12.353
74049W        W37608   1.931   0.290   4.786
74050W        W37609  29.594  25.579  13.433
74051W        W37610  22.647  13.715  14.929
74052W        W37611   7.763  26.565   2.814
74053W        W37612   0.478  41.503   0.837
74054W        W37613  22.714  36.490   4.679
74055W        W37614  38.380   1.289  12.044
74056W        W37615  36.033  30.908  12.339
74057W        W37616  10.768  24.205  12.047
74058W        W37617  39.455   9.720  13.984
74059W        W37618  22.031  40.049   1.786
74060W        W37619   9.220  27.619   3.363
74061W        W37620   0.909  44.828   3.637
74062W        W37621  19.059  18.694  12.992
74063W        W37622  17.245   2.769  14.504
74064W        W37623   9.778  21.569  14.818
74065W        W37624  24.492  22.044  12.831
74066W        W37625  34.870  11.739  12.926
74067W        W37626  33.060   4.317  14.357
74068W        W37627  20.609   3.713  14.802
74069W        W37628   0.352  23.234  13.392
74070W        W37629   2.450  13.693   4.302
74071W        W37630   5.747  13.846   3.679
74072W        W37631  29.121  18.129  11.973
74073W        W37632  41.475  22.538  14.812
74074W        W37633  23.122  40.345  14.789
74075W        W37634  22.504  10.827   1.745
74076W        W37635  23.505  26.121   4.187
74077W        W37636  16.743  29.632   1.410
74078W        W37637  41.809   2.739   3.855
74079W        W37638   0.329   6.303  10.932
74080W        W37639   9.820  15.301   0.908
74081W        W37640   8.392  41.527  12.382
74082W        W37641  13.178  30.544   0.409
74083W        W37642  18.232  39.984   4.213
74084W        W37643   7.254   4.348  12.934
74085W        W37644  32.467  36.592  14.398
74086W        W37645  17.171  10.878   4.172
74087W        W37646   4.896   4.213  10.595
74088W        W37647  35.861  25.510  14.997
74089W        W37648  34.098  44.497   0.299
74090W        W37649  20.126  35.552  12.905
74091W        W37650   1.318  36.099  14.352
74092W        W37651  39.809   5.379   0.479
74093W        W37652  10.793  28.120   2.768
74094W        W37653   1.893  12.815   3.829
74095W        W37654  16.089  17.760  10.985
74096W        W37655   0.869  13.795  14.797
74097W        W37656  18.105  20.606  14.277
74098W        W37657  31.620  25.080  13.033
74099W        W37658  16.289  10.242  12.887
74100W        W37659  24.583  30.639   2.265
74101W        W37660  26.150  15.647   1.845
74102W        W37661   3.400  32.888  13.483
74103W        W37662  43.985  40.334   0.774
74104W        W37663  11.235  17.095  13.425
74105W        W37664  26.624  15.263   3.160
74106W        W37665  32.529  12.832  11.919
74107W        W37666   9.196  12.170  14.845
74108W        W37667  21.132  10.159   5.257
74109W        W37668  40.303  33.016   2.703
74110W        W37669  13.281   9.687   3.167
74111W        W37670  19.247  42.379  13.371
74112W        W37671  38.830   6.309  10.105
74113W        W37672  29.537  32.521   4.248
74114W        W37673  16.802  18.167  14.826
74115W        W37674   2.306  41.951   2.803
74116W        W37675   3.773  18.110   1.447
74117W        W37676   5.293   0.794  12.934
74118W        W37677  31.626  44.976   0.835
74119W        W37678  31.446  12.141   0.789
74120W        W37679  33.443  30.592   3.641
74121W        W37680  42.908  30.558  12.484
74122W        W37681  13.826   5.236  10.502
74123W        W37682  32.980  23.570   4.155
74124W        W37683  39.386  32.944   2.368
74125W        W37684  16.245  25.533   3.230
74126W        W37685  20.091  43.320  13.548
74127W        W37686   8.803   6.819   2.353
74128W        W37687  31.491   4.440   2.401
74129W        W37688  29.148  34.603  10.410
74130W        W37689   6.923  12.267   0.462
74131W        W37690  42.464  11.731   4.221
74132W        W37691   1.396  31.427  13.431
74133W        W37692  12.774  35.929   3.766
74134W        W37693   6.919  15.307   0.350
74135W        W37694   5.239   7.813   3.771
74136W        W37695  19.239  39.335  10.619
74137W        W37696  36.395  40.310  13.535
74138W        W37697   5.241   6.858  12.488
74139W        W37698  25.658  29.598  14.368
74140W        W37699  13.213  15.585  11.522
74141W        W37700  35.015  37.928   1.827
74142W        W37701  17.686  27.566  14.824
74143W        W37702  43.354   5.931  11.042
74144W        W37703   1.926  27.081  10.453
74145W        W37704  26.653  33.954  12.493
74146W        W37705  32.520   1.244   2.678
74147W        W37706  25.991  40.928   4.345
74148W        W37707  43.910  10.641  14.796
74149W        W37708  14.681  28.658   4.808
74150W        W37709   7.324  29.574   2.215
74151W        W37710  10.699  26.698   1.335
74152W        W37711  26.654   8.338   1.761
74153W        W37712   0.912  35.065  12.823
74154W        W37713   7.682   2.759  14.493
74155W        W37714  35.943  12.222   9.503
74156W        W37715  26.004   5.912   1.294
74157W        W37716  35.939   1.242   0.891
74158W        W37717  26.524  13.258  10.931
74159W        W37718   4.397  31.633   2.845
74160W        W37719  27.975  17.791   1.248
74161W        W37720  30.490  39.817   1.231
74162W        W37721  19.762  11.676   5.128
74163W        W37722  19.552   6.362  14.461
74164W        W37723  17.150   1.757  13.359
74165W        W37724  32.575   4.928   3.333
74166W        W37725  20.168  18.742   2.270
74167W        W37726  37.950  22.118   3.275
74168W        W37727  11.786  35.530  11.906
74169W        W37728  18.676  15.679   1.910
74170W        W37729  11.293  44.376   3.664
74171W        W37730  41.813  14.600  11.502
74172W        W37731  13.723  36.571  14.950
74173W        W37732  44.959  24.655  14.978
74174W        W37733  19.097  35.404   4.234
74175W        W37734  21.552  25.710   2.279
74176W        W37735  14.181  16.107  14.880
74177W        W37736  23.985  44.904   0.893
74178W        W37737  15.678  30.631  12.827
74179W        W37738  30.943   4.237  12.880
74180W        W37739   7.712  27.571   1.367
74181W        W37740  20.175  10.271  14.032
74182W        W37741   2.891  25.638  11.033
74183W        W37742  16.662  27.124   2.790
74184W        W37743   7.219  20.740   2.710
74185W        W37744  14.119   3.294   0.274
74186W        W37745  27.547  30.941  11.950
74187W        W37746  24.559  42.336  14.809
74188W        W37747   1.367  12.226   2.305
74189W        W37748  43.782   2.300  11.596
74190W        W37749  29.430   8.884  14.799
74191W        W37750  26.581  42.796   0.827
74192W        W37751  43.013   9.207  14.433
74193W        W37752  15.633   0.347   9.991
74194W        W37753  40.840  39.959  11.559
74195W        W37754  18.222   0.851  13.973
74196W        W37755  43.769  39.470  14.361
74197W        W37756  36.958  12.151   3.706
74198W        W37757   7.906  36.037  13.511
74199W        W37758  42.964  16.765   3.870
74200W        W37759  23.617   4.242  13.337
74201W        W37760   7.340  18.755   2.838
74202W        W37761   3.257  18.087   3.791
74203W        W37762  14.737  12.165  13.418
74204W        W37763  41.437  33.416   1.887
74205W        W37764   1.389  23.597  11.115
74206W        W37765  16.235  41.841   2.317
74207W        W37766  33.898   6.791   3.823
74208W        W37767  29.603   3.718   3.701
74209W        W37768  40.402  42.884   2.259
74210W        W37769  23.642  26.141   1.337
74211W        W37770  13.270   3.889   3.332
74212W        W37771  33.586   0.435   4.677
74213W        W37772  33.430  18.640  14.795
74214W        W37773  12.776  31.453   0.330
74215W        W37774  36.414  40.446   2.292
74216W        W37775  24.065  35.571   0.925
74217W        W37776  30.459  16.808  12.401
74218W        W37777  17.671   8.711  10.574
74219W        W37778  12.251   7.215  11.445
74220W        W37779  19.103   3.711   1.719
74221W        W37780  32.447  44.440  11.043
74222W        W37781  15.793   0.899   0.309
74223W        W37782  20.056  12.635   2.700
74224W        W37783  15.194  22.076  10.945
74225W        W37784  19.214  30.595  12.947
74226W        W37785   5.719  32.537   2.713
74227W        W37786  17.251   8.347   4.685
74228W        W37787  36.917  33.613  14.978
74229W        W37788  43.794  26.001   2.323
74230W        W37789  31.528  23.553  11.389
74231W        W37790  43.927   7.302   1.870
74232W        W37791  14.750  43.771  11.425
74233W        W37792  26.077  38.853   4.128
74234W        W37793  15.139  24.649   3.643
74235W        W37794  44.867   4.369  13.361
74236W        W37795  18.683  16.299  10.607
74237W        W37796  35.585  15.633   0.747
74238W        W37797   8.797  17.082  11.394
74239W        W37798   1.882  41.333   2.849
74240W        W37799  16.260  14.183  11.599
74241W        W37800  17.066  26.560  14.361
74242W        W37801   4.312  31.635   4.735
74243W        W37802  21.050   3.328   2.828
74244W        W37803  22.629  33.468  10.984
74245W        W37804  41.895  10.163   1.763
74246W        W37805  11.660  32.959   0.864
74247W        W37806   8.405   4.341   3.152
74248W        W37807   6.757  36.565   1.280
74249W        W37808  27.171   9.704  10.594
74250W        W37809  34.874  37.523   2.786
74251W        W37810  23.090  13.172  14.833
74252W        W37811  39.900  17.201  12.523
74253W        W37812  40.007  12.310   0.745
74254W        W37813  39.402  42.289  10.590
74255W        W37814  11.240  39.537  13.954
74256W        W37815  29.539  23.208   1.409
74257W        W37816  15.712  40.968   0.372
74258W        W37817  43.980  22.231   4.247
74259W        W37818  22.735  34.961   0.328
74260W        W37819  34.108  22.051  13.389
74261W        W37820   6.321  12.317  13.824
74262W        W37821  36.985  18.276   1.435
74263W        W37822  41.895  13.142   4.673
74264W        W37823  36.980  36.900  14.888
74265W        W37824   8.789  26.556  11.909
74266W        W37825   9.311  32.948  13.948
74267W        W37826  12.647  33.029  11.582
74268W        W37827  25.491  39.872  14.995
74269W        W37828   2.868   5.805  13.841
74270W        W37829  19.595  23.637   0.402
74271W        W37830  44.846  23.038   3.760
74272W        W37831  10.249   2.294   3.840
74273W        W37832   6.827  19.182  14.900
74274W        W37833  37.479  25.600   4.832
74275W        W37834  44.315   5.292  14.882
74276W        W37835  19.692  30.628   4.117
74277W        W37836  19.666  29.428   1.878
74278W        W37837   5.800  22.512  13.331
74279W        W37838  23.702  25.099   1.385
74280W        W37839  22.632  17.631  12.090
74281W        W37840  44.784   8.771   1.837
74282W        W37841   8.328  29.062  11.877
74283W        W37842  11.144  33.963  12.090
74284W        W37843  32.399  32.965  13.797
74285W        W37844   8.292  40.898   1.817
74286W        W37845   2.736   4.240  10.923
74287W        W37846  18.258  41.345  14.002
74288W        W37847  34.867  41.481   2.766
74289W        W37848  39.487  40.844   0.288
74290W        W37849  24.479   5.408  14.329
74291W        W37850  10.184  38.551  12.383
74292W        W37851  37.023  37.483   1.379
74293W        W37852  13.721   1.942   3.343
74294W        W37853  30.032  25.530  10.490
74295W        W37854  22.154  22.558   4.283
74296W        W37855  23.709  19.163   1.415
74297W        W37856  16.581  43.458   0.834
74298W        W37857  29.962  13.192   3.312
74299W        W37858  31.526  37.356   0.845
74300W        W37859   4.224  38.374   2.779
74301W        W37860  31.534  23.603  12.434
74302W        W37861  36.452  17.257  14.802
74303W        W37862  27.653  12.234   4.746
74304W        W37863  41.991  11.165   3.678
74305W        W37864  11.828  39.017   1.394
74306W        W37865  43.881  14.299   3.788
74307W        W37866   9.751  31.916  13.427
74308W        W37867   5.897  37.468   3.227
74309W        W37868  10.187  24.029   3.223
74310W        W37869   0.320  19.580   2.409
74311W        W37870   8.826  24.177  11.931
74312W        W37871  21.082   5.266  14.906
74313W        W37872   8.668  33.123   3.649
74314W        W37873   7.179  41.866   4.655
74315W        W37874  11.740   1.846   1.307
74316W        W37875  37.419  31.596   0.809
74317W        W37876  26.516  26.080   2.296
74318W        W37877  16.795  35.965  13.951
74319W        W37878  43.408  23.608   3.826
74320W        W37879  15.234  22.564  11.479
74321W        W37880  28.451  25.690   3.657
74322W        W37881   0.260  26.064  11.041
74323W        W37882  18.143  45.000  12.979
74324W        W37883  19.728  16.577  12.061
74325W        W37884  29.583  34.488   2.681
74326W        W37885  19.663   3.882  11.430
74327W        W37886  22.187  30.127  13.832
74328W        W37887  27.125  13.149  13.338
74329W        W37888  42.446  30.013   4.632
74330W        W37889  19.070   4.723   3.186
74331W        W37890  18.656  31.150   1.307
74332W        W37891  40.016  14.127   3.291
74333W        W37892  31.005  21.133  12.845
74334W        W37893  15.641  25.148  10.082
74335W        W37894   8.340  40.548   2.719
74336W        W37895  13.700  39.991   4.154
74337W        W37896  40.545  18.201  13.448
74338W        W37897  23.197  19.047  10.984
74339W        W37898  11.256  23.076  13.830
74340W        W37899  38.367  35.424  13.063
74341W        W37900  23.240   4.941  13.388
74342W        W37901  25.047  44.354   1.275
74343W        W37902  38.563   2.755   4.635
74344W        W37903  22.674  40.497   4.835
74345W        W37904  23.177  17.797  13.830
74346W        W37905  31.027   3.903   4.239
74347W        W37906  22.162   6.834   4.147
74348W        W37907  35.399  29.162  12.019
74349W        W37908  10.657   5.786  13.452
74350W        W37909  42.514  35.930   3.298
74351W        W37910  33.571  19.728  11.096
74352W        W37911  29.163  21.645   2.184
74353W        W37912  26.654  36.568   4.684
74354W        W37913   3.392  38.961   4.249
74355W        W37914  26.161  23.626   3.329
74356W        W37915  24.134   9.162  11.027
74357W        W37916  32.110   6.877   0.831
74358W        W37917   7.385   2.458   2.793
74359W        W37918  41.323  39.462  11.439
74360W        W37919   5.779  26.596   3.268
74361W        W37920  16.270  43.935   4.300
74362W        W37921  16.079  40.855   1.243
74363W        W37922   0.942  22.182  10.636
74364W        W37923  30.131   6.288  11.472
74365W        W37924  28.456   2.423   3.244
74366W        W37925  30.066  11.313  14.773
74367W        W37926  31.647  31.616   2.276
74368W        W37927  27.542  44.483  12.490
74369W        W37928  14.238  20.562   0.310
74370W        W37929   7.353  30.068  14.975
74371W        W37930  16.742  32.947  13.315
74372W        W37931  38.009  34.485   1.802
74373W        W37932  40.522  33.395  14.308
74374W        W37933  42.324  19.637   4.238
74375W        W37934  37.081  24.661   4.172
74376W        W37935  32.117  27.141  13.440
74377W        W37936  35.393  17.595   0.331
74378W        W37937  17.100  41.322  14.873
74379W        W37938  35.510  15.329  13.894
74380W        W37939  27.579  12.207   3.859
74381W        W37940  24.550  34.970   4.771
74382W        W37941  25.610  22.582   0.465
74383W        W37942  42.500  30.468   3.341
74384W        W37943   0.828   0.857   2.758
74385W        W37944  43.975  12.222  12.563
74386W        W37945   0.436  22.182  12.361
74387W        W37946  24.077  27.479   4.183
74388W        W37947  42.451  17.167   2.772
74389W        W37948  18.260  26.162   3.816
74390W        W37949  33.028   7.311  13.308
74391W        W37950   8.175  41.431   3.729
74392W        W37951  21.580  10.638  13.517
74393W        W37952  37.862   4.889  10.576
74394W        W37953  41.874  34.549  10.085
74395W        W37954  16.623  22.537   1.244
74396W        W37955   4.294  13.800  12.490
74397W        W37956  39.037  33.987  13.926
74398W        W37957  32.038   8.270  11.988
74399W        W37958   8.681  40.856   0.409
74400W        W37959  38.456  19.538  13.468
74401W        W37960  34.926  42.874   0.300
74402W        W37961  34.961  33.049   2.210
74403W        W37962  26.586  21.025   1.808
74404W        W37963  15.708  42.349   0.316
74405W        W37964  32.931  31.091  12.403
74406W        W37965   8.204  35.500   2.752
74407W        W37966   5.304  41.357  13.820
74408W        W37967  10.844  15.711  11.912
74409W        W37968   4.243  22.501  11.527
74410W        W37969  42.483  30.534   4.667
74411W        W37970  35.890  33.897   2.793
74412W        W37971  10.149  16.767   0.247
74413W        W37972  23.572  32.970  13.059
74414W        W37973   3.328  10.364   4.625
74415W        W37974  23.572  44.274   3.735
74416W        W37975  40.549  31.937  10.941
74417W        W37976  30.988  44.795   4.710
74418W        W37977  17.242  23.145  12.470
74419W        W37978   6.343   3.248  14.994
74420W        W37979  42.972  14.116  14.895
74421W        W37980  29.987   7.186  12.942
74422W        W37981  27.024  13.196  10.158
74423W        W37982  38.906  36.883   2.284
74424W        W37983  29.015  24.578   2.718
74425W        W37984   5.267  28.494  14.364
74426W        W37985   9.851   9.857  13.457
74427W        W37986  19.137  28.027  10.591
74428W        W37987  28.507   0.947  14.325
74429W        W37988   2.827  44.482  12.363
74430W        W37989  26.681  29.628   1.371
74431W        W37990  30.019  40.372  10.616
74432W        W37991  34.933  19.611  11.023
74433W        W37992  41.909  25.646  12.404
74434W        W37993  14.648  19.068  10.957
74435W        W37994  13.668  26.018   3.854
74436W        W37995  43.276  38.354   1.861
74437W        W37996  40.453  35.940   2.774
74438W        W37997  44.465  34.601   4.244
74439W        W37998  35.048  23.547  14.925
74440W        W37999  23.178  44.461   2.680
74441W        W38000   3.723  14.732   0.481
74442W        W38001  28.081  35.601   4.148
74443W        W38002   5.195  39.415  11.045
74444W        W38003  34.422  29.023  10.987
74445W        W38004  22.726   8.193   0.752
74446W        W38005   8.372  23.594   0.347
74447W        W38006  13.718   9.689   5.109
74448W        W38007  34.521  39.335   0.828
74449W        W38008  41.311   6.416   5.248
74450W        W38009  29.935  22.604   4.769
74451W        W38010  22.567  44.272   3.689
74452W        W38011   3.410  43.916  14.324
74453W        W38012   2.838  32.480  13.369
74454W        W38013  19.742   5.342  13.473
74455W        W38014  28.508  12.206  12.926
74456W        W38015  36.955  38.412   4.236
74457W        W38016   3.227  31.079   4.608
74458W        W38017  19.632  16.709  12.484
74459W        W38018  10.640   9.688   2.776
74460W        W38019  34.571  20.231   2.693
74461W        W38020  36.452  13.178  14.856
74462W        W38021  30.502  28.499  11.129
74463W        W38022   4.378   9.171  14.499
74464W        W38023  21.114   2.932  14.994
74465W        W38024   2.431  19.100   1.363
74466W        W38025  41.497  17.190   2.261
74467W        W38026  36.361  30.656  11.478
74468W        W38027  44.449   0.285   3.769
74469W        W38028   2.339  15.124  12.572
74470W        W38029  13.791  35.492  12.342
74471W        W38030  35.474   5.297   2.181
74472W        W38031  24.573  36.572  11.975
74473W        W38032  40.372   9.266   1.779
74474W        W38033   6.213  37.443  11.436
74475W        W38034   5.844  38.864   1.935
74476W        W38035  41.393  33.118  11.955
74477W        W38036  42.363  26.087   4.209
74478W        W38037  27.116   9.325  14.894
74479W        W38038  34.895  21.617  12.451
74480W        W38039   4.251   3.458   4.258
74481W        W38040   3.832   5.794  14.948
74482W        W38041  34.871  15.222   1.765
74483W        W38042  18.599  37.449   4.205
74484W        W38043  13.324  27.136   0.792
74485W        W38044   8.866  34.897   4.777
74486W        W38045  20.208  33.505  13.829
74487W        W38046  14.692  34.555   0.781
74488W        W38047  12.187  36.458   1.857
74489W        W38048  44.300  27.529  13.908
74490W        W38049  39.393  17.690  12.992
74491W        W38050  41.320  30.005  14.893
74492W        W38051   7.325  36.424  10.929
74493W        W38052  26.684  21.187   3.328
74494W        W38053  43.478  44.981  13.461
74495W        W38054   7.670  40.974  11.003
74496W        W38055  20.619  34.458  13.424
74497W        W38056  25.156  33.032  10.529
74498W        W38057  35.942   2.293  13.039
74499W        W38058  24.135  13.776  14.012
74500W        W38059  39.507   2.356   4.757
74501W        W38060  21.194  19.203   1.284
74502W        W38061  44.872  21.693  14.389
74503W        W38062  43.491   3.258   0.264
74504W        W38063   2.744  30.429  11.034
74505W        W38064   8.771  41.946  13.824
74506W        W38065  25.095  12.817   2.316
74507W        W38066  20.031   7.690  10.530
74508W        W38067  20.662   0.254   2.758
74509W        W38068  34.891  39.055  10.113
74510W        W38069  36.970  29.564  13.540
74511W        W38070  20.039  36.029  14.409
74512W        W38071  27.553  16.120   3.719
74513W        W38072  34.436  44.835   4.817
74514W        W38073   2.394  42.472  12.015
74515W        W38074  30.646  13.702  14.801
74516W        W38075  43.409  24.171  12.376
74517W        W38076  37.361  20.559  11.048
74518W        W38077  36.568  32.089  11.105
74519W        W38078   3.870  20.180  13.847
74520W        W38079  35.576  11.776   2.801
74521W        W38080  35.378  42.801   3.779
74522W        W38081  40.029   2.843  13.874
74523W        W38082   4.765  31.942   0.445
74524W        W38083  23.135  39.945  10.980
74525W        W38084  10.245  31.026  11.112
74526W        W38085   8.658  43.314   3.245
74527W        W38086   4.934  22.615   3.216
74528W        W38087  11.139  23.124   1.793
74529W        W38088  28.161  36.569  14.283
74530W        W38089  24.018   8.253   0.867
74531W        W38090   7.884   8.714   1.323
74532W        W38091  43.483  14.110   4.781
74533W        W38092   3.777  13.121  12.570
74534W        W38093  41.830  24.659  11.481
74535W        W38094  18.666  38.541  13.511
74536W        W38095   4.234  31.540  11.384
74537W        W38096  18.615  13.804   0.376
74538W        W38097   1.890  25.971   1.911
74539W        W38098  13.732  35.395  14.278
74540W        W38099  41.452  41.804  14.438
74541W        W38100   3.850  38.473   0.778
74542W        W38101  13.632   2.329  11.596
74543W        W38102  10.267   0.750   5.142
74544W        W38103  35.392  31.959  14.840
74545W        W38104  14.801  23.012   2.362
74546W        W38105  29.527  44.350   1.231
74547W        W38106  38.873  35.577  11.390
74548W        W38107  22.104  17.698  13.929
74549W        W38108  17.182  17.247   1.696
74550W        W38109  35.547  15.700   3.354
74551W        W38110  13.796   6.420  11.874
74552W        W38111   7.231  44.894   3.177
74553W        W38112  17.256  25.561  12.034
74554W        W38113  33.051   1.872   3.308
74555W        W38114   0.409  12.788   2.298
74556W        W38115  44.793  44.381   0.374
74557W        W38116  26.512  23.179  12.343
74558W        W38117  21.626  27.081  14.914
74559W        W38118  22.197  35.465   2.693
74560W        W38119  37.379  32.999  11.374
74561W        W38120  11.754  44.324   4.269
74562W        W38121  30.910   1.326  10.538
74563W        W38122  10.721  32.403   5.168
74564W        W38123   3.823   2.243  11.484
74565W        W38124  11.636  28.445   2.407
74566W        W38125  18.199   5.302  12.494
74567W        W38126  14.228  16.099   3.737
74568W        W38127  37.947  27.484  14.957
74569W        W38128   5.738  38.387   1.880
74570W        W38129   4.779  39.898  10.142
74571W        W38130   6.807   5.227   2.337
74572W        W38131  18.716  40.498   3.723
74573W        W38132   7.878  24.716   2.795
74574W        W38133  18.740  10.716  13.402
74575W        W38134  18.071   9.818   0.963
74576W        W38135  44.860  24.167   3.335
74577W        W38136   1.936  13.829  13.449
74578W        W38137   9.350  30.559  12.002
74579W        W38138  18.648   2.760  12.940
74580W        W38139   2.723  25.116  13.353
74581W        W38140  19.166  21.688  13.001
74582W        W38141   1.745   4.438   0.433
74583W        W38142  29.041  40.430  14.869
74584W        W38143  32.495  39.473   1.801
74585W        W38144  41.927  44.805  13.360
74586W        W38145  11.740  22.560   0.255
74587W        W38146  10.226  18.087  14.901
74588W        W38147   2.385  21.642  12.446
74589W        W38148  17.062  18.156  11.043
74590W        W38149   1.773  36.083  11.890
74591W        W38150  14.805  31.460  12.044
74592W        W38151  25.025  40.862   0.872
74593W        W38152  34.605   7.887  10.501
74594W        W38153  43.905   6.798  13.947
74595W        W38154  25.616  24.222  12.401
74596W        W38155  14.304  29.659   1.281
74597W        W38156  13.745  33.896   1.258
74598W        W38157  35.869   5.324   1.698
74599W        W38158   1.837   2.365  13.348
74600W        W38159   1.768  13.736  10.897
74601W        W38160  29.992  23.011   4.270
74602W        W38161  34.101  33.515  14.921
74603W        W38162  37.519   7.693  12.979
74604W        W38163   8.663   8.836  10.566
74605W        W38164  26.027   6.258   2.769
74606W        W38165  34.911  38.414   1.214
74607W        W38166   8.253  21.065  14.514
74608W        W38167   1.465  16.717   3.346
74609W        W38168  35.101  43.003  10.583
74610W        W38169  31.898  38.404   3.683
74611W        W38170  39.509   4.362   0.303
74612W        W38171   2.783  31.492   3.364
74613W        W38172  40.440  31.899  14.308
74614W        W38173  24.601   3.274   1.823
74615W        W38174  40.961   6.260  11.413
74616W        W38175  44.362  16.739   0.905
74617W        W38176   8.317  41.315  12.959
74618W        W38177  36.497  22.081   0.425
74619W        W38178  10.182  32.010   3.285
74620W        W38179  36.469  22.506   1.258
74621W        W38180  30.640  36.455   5.213
74622W        W38181   9.340  21.129  14.285
74623W        W38182  28.604  40.856   0.458
74624W        W38183   4.930  37.346  12.959
74625W        W38184  20.185  36.921  14.481
74626W        W38185  28.572  12.819  13.955
74627W        W38186  27.489  10.151  11.917
74628W        W38187  32.933  16.762   0.879
74629W        W38188  22.511  14.620   4.252
74630W        W38189  17.185  18.698   3.818
74631W        W38190  32.129  13.736   4.274
74632W        W38191   4.863  13.202   4.254
74633W        W38192  15.708  14.593  12.366
74634W        W38193  31.508  11.238   4.115
74635W        W38194  39.971   8.242  11.988
74636W        W38195   8.744  39.522   1.695
74637W        W38196   0.315  31.040   2.316
74638W        W38197  30.518  29.991  11.032
74639W        W38198   7.802  35.595  14.770
74640W        W38199  24.228  38.849   3.204
74641W        W38200  38.024  22.738   1.841
74642W        W38201  28.111  25.696   2.268
74643W        W38202  43.421   8.693  10.890
74644W        W38203  23.239  44.412   0.423
74645W        W38204   0.787  44.974   1.900
74646W        W38205  16.263  12.169  14.391
74647W        W38206  30.425  19.544   1.295
74648W        W38207  40.487  22.007   4.202
74649W        W38208   0.459  38.001  14.369
74650W        W38209  32.143  40.493  12.938
74651W        W38210   6.877  39.853  12.483
74652W        W38211  17.133  40.961  12.405
74653W        W38212   1.960  19.223   4.823
74654W        W38213  38.012   3.407  12.970
74655W        W38214   8.844   0.750   4.604
74656W        W38215  25.550  10.345  13.408
74657W        W38216  43.389  35.934   0.821
74658W        W38217  10.267   2.415   4.714
74659W        W38218  20.110  19.188   3.363
74660W        W38219  21.636  44.964  12.021
74661W        W38220   5.707  34.036  14.000
74662W        W38221  44.406  37.025   2.691
74663W        W38222  29.474  32.088   2.863
74664W        W38223   8.245  26.482   1.930
74665W        W38224  43.927  42.491   2.317
74666W        W38225   2.851  28.649   2.384
74667W        W38226   3.801  15.624   4.655
74668W        W38227  10.327  44.942  13.545
74669W        W38228  31.132  11.696  10.582
74670W        W38229  44.916  10.792  13.816
74671W        W38230  28.128  44.463   3.724
74672W        W38231  32.518   0.896  11.855
74673W        W38232  30.431  43.922  13.850
74674W        W38233   6.751   2.316  11.100
74675W        W38234  37.931  43.930   1.244
74676W        W38235  40.967   6.291  14.906
74677W        W38236  26.503  15.696   5.087
74678W        W38237  44.284  16.198  11.446
74679W        W38238  31.031   6.339  11.079
74680W        W38239   6.286  44.471  13.932
74681W        W38240  31.519  43.296   4.678
74682W        W38241  26.100  37.897  14.861
74683W        W38242   0.973  19.221   2.724
74684W        W38243  14.131   0.768  10.582
74685W        W38244  41.295  38.524  14.384
74686W        W38245  18.067  31.974  14.874
74687W        W38246   3.832  16.635  14.412
74688W        W38247  24.630  37.890   0.765
74689W        W38248  41.326  29.938   0.478
74690W        W38249  18.234  15.117  11.078
74691W        W38250   0.851  22.605  11.443
74692W        W38251   7.850   6.424  10.096
74693W        W38252  43.269  21.547   2.307
74694W        W38253   1.420  29.126   4.243
74695W        W38254   8.307  33.964   0.812
74696W        W38255  30.459   3.795  12.387
74697W        W38256  41.818  34.372  14.951
74698W        W38257  40.050  19.724  12.377
74699W        W38258  38.559  38.379  12.891
74700W        W38259  14.264  26.556  12.908
74701W        W38260  20.075  26.102  13.446
74702W        W38261   4.828  15.146   2.724
74703W        W38262  12.653  28.991  14.323
74704W        W38263  11.833  35.494  12.576
74705W        W38264  14.766  31.106   3.294
74706W        W38265  23.171  17.797   4.680
74707W        W38266  15.083  39.936   0.450
74708W        W38267  14.832   2.300   3.199
74709W        W38268  26.697  31.119   5.191
74710W        W38269   3.864  18.112  14.838
74711W        W38270  35.865  21.173   2.839
74712W        W38271   0.310  25.016   3.651
74713W        W38272   3.937  35.985  10.112
74714W        W38273  41.410  28.020  14.403
74715W        W38274  36.444  37.505  13.048
74716W        W38275  23.510  13.306  11.018
74717W        W38276  33.024  13.283  14.030
74718W        W38277  20.592  13.768   3.714
74719W        W38278  18.747   7.786  13.029
74720W        W38279  24.572   3.859  11.941
74721W        W38280  29.033  10.731  11.394
74722W        W38281   7.331   4.307  14.876
74723W        W38282  14.616  37.079  11.115
74724W        W38283  12.767  36.443  10.616
74725W        W38284  24.218  43.456   2.193
74726W        W38285  25.525  40.905   1.428
74727W        W38286  18.106  42.517  13.963
74728W        W38287  33.578  37.386   4.122
74729W        W38288  14.116  26.100   1.749
74730W        W38289  41.515  15.086  14.428
74731W        W38290  32.925  23.101  13.801
74732W        W38291  38.857  17.237  13.496
74733W        W38292  13.610  10.203   4.148
74734W        W38293  18.267  30.499   2.288
74735W        W38294  28.087   5.374   4.124
74736W        W38295  11.812  35.915   0.739
74737W        W38296  28.132  15.771   5.208
74738W        W38297  35.360   6.394  13.896
74739W        W38298  41.012  34.462   4.177
74740W        W38299  23.528   8.743   4.323
74741W        W38300  24.550   9.237   2.758
74742W        W38301  38.883   0.796  11.049
74743W        W38302   0.371   9.760   2.310
74744W        W38303  35.052  33.569   3.315
74745W        W38304  32.000   0.899   3.858
74746W        W38305  12.715  29.552  14.960
74747W        W38306  29.052  11.306   3.183
74748W        W38307  43.478  15.113  13.401
74749W        W38308   8.361  13.196   1.709
74750W        W38309  12.315  40.967  10.581
74751W        W38310  26.635  12.205  12.895
74752W        W38311  30.523   2.379   4.168
74753W        W38312  15.279  36.927  14.851
74754W        W38313  15.704  30.523  11.055
74755W        W38314  40.987  44.008   1.212
74756W        W38315  32.088   3.458   4.148
74757W        W38316  16.630  17.797   4.727
74758W        W38317  36.510  41.980   4.628
74759W        W38318  41.384  22.588  12.561
74760W        W38319   0.281   7.775  13.811
74761W        W38320  43.334  25.023  14.867
74762W        W38321  22.511  35.549  14.794
74763W        W38322  38.044  38.930  11.509
74764W        W38323  32.120  33.579   3.654
74765W        W38324  43.373  14.639  11.549
74766W        W38325  22.120  32.993   3.194
74767W        W38326  39.046  27.962  10.107
74768W        W38327  38.334   2.434  12.453
74769W        W38328  28.639  43.770   0.894
74770W        W38329  40.829   9.871  13.923
74771W        W38330  17.248  13.835  14.991
74772W        W38331  18.589   8.773   3.760
74773W        W38332   4.412  29.160   3.154
74774W        W38333  18.071  15.290  12.560
74775W        W38334  11.733  26.585   0.397
74776W        W38335  34.503  24.111  14.898
74777W        W38336   2.277  11.170   2.245
74778W        W38337  25.205  31.471  14.026
74779W        W38338  27.588  39.491  11.081
74780W        W38339  44.456   6.879  12.519
74781W        W38340  16.166  22.509   2.190
74782W        W38341  32.589   8.863  14.910
74783W        W38342  14.148  30.019   4.619
74784W        W38343  30.464  22.146  12.427
74785W        W38344   0.412   4.786   4.223
74786W        W38345  29.978   0.369   0.358
74787W        W38346   7.899  35.533   2.346
74788W        W38347  16.743   5.925  12.971
74789W        W38348  15.650  44.469  12.967
74790W        W38349  26.654   5.697  11.857
74791W        W38350   0.330  23.109  10.918
74792W        W38351  21.092  28.156  12.879
74793W        W38352  18.779  30.453   4.636
74794W        W38353  22.080  34.396   2.763
74795W        W38354   1.886  42.455  12.878
74796W        W38355  29.923  21.724  14.359
74797W        W38356  15.207  39.367   2.676
74798W        W38357  26.019   5.797  14.994
74799W        W38358   0.887   0.380   3.312
74800W        W38359  39.526  41.529   0.484
74801W        W38360  18.137  44.814   3.349
74802W        W38361  28.962  17.251   3.768
74803W        W38362   4.764  29.552   0.731
74804W        W38363   7.718  41.411   3.687
74805W        W38364  18.629  20.748  12.900
74806W        W38365  42.460  13.836   3.231
74807W        W38366   5.211   2.400   2.291
74808W        W38367  10.820  12.796  13.448
74809W        W38368  38.481  35.861   1.431
74810W        W38369  29.175  23.186   3.322
74811W        W38370  38.441  31.970  12.534
74812W        W38371  18.206  39.902   2.718
74813W        W38372   0.356  14.311  14.816
74814W        W38373  17.719   1.307  14.307
74815W        W38374  44.333  13.288   3.352
74816W        W38375   1.421   5.889  13.349
74817W        W38376   0.749  12.681   5.251
74818W        W38377   6.889   9.250   3.635
74819W        W38378  32.429  26.553   2.782
74820W        W38379  13.341  22.570   0.778
74821W        W38380   5.901  30.452  14.403
74822W        W38381  22.506  21.162   1.367
74823W        W38382   5.436  31.527   0.429
74824W        W38383   5.809  40.965   2.713
74825W        W38384  27.978  31.080   0.905
74826W        W38385  34.509   5.246   4.602
74827W        W38386  22.559  32.103  13.809
74828W        W38387   4.316  19.563  14.945
74829W        W38388  36.570  34.027  14.798
74830W        W38389  22.125  43.941  11.534
74831W        W38390  14.758  33.974   5.591
74832W        W38391  38.982  42.022   0.476
74833W        W38392  12.289  23.108  12.872
74834W        W38393   0.465  28.509   3.839
74835W        W38394   2.913  33.492  13.047
74836W        W38395  39.017  11.364  10.093
74837W        W38396  16.613   6.885  10.967
74838W        W38397  28.013  20.712   4.672
74839W        W38398  38.557  34.089   0.454
74840W        W38399  14.763  20.591   1.269
74841W        W38400  40.825  38.338   1.864
74842W        W38401   7.773  33.050   1.241
74843W        W38402  10.181   5.264  10.994
74844W        W38403  26.968   3.844  14.330
74845W        W38404  27.132  35.423   0.341
74846W        W38405  43.311   7.371  11.448
74847W        W38406  25.153   6.229   3.718
74848W        W38407  39.869  11.212   4.761
74849W        W38408   6.318  17.290   1.857
74850W        W38409  42.871  29.957  13.332
74851W        W38410  23.996   6.814  11.432
74852W        W38411  16.092  35.459   2.854
74853W        W38412  32.903  40.415  13.532
74854W        W38413   6.817   6.331   1.391
74855W        W38414  13.316  21.708  14.483
74856W        W38415  16.088  37.484  14.020
74857W        W38416  31.904   8.248  14.416
74858W        W38417  36.519  19.556  12.049
74859W        W38418   5.349  35.968  13.424
74860W        W38419  14.235  33.522  14.332
74861W        W38420  22.675  15.586   3.785
74862W        W38421  32.141  37.409  14.815
74863W        W38422  37.019  10.687  13.544
74864W        W38423  39.364  40.854  12.531
74865W        W38424  24.099  31.425   3.213
74866W        W38425  24.162   6.799  13.966
74867W        W38426   4.841  34.903  13.483
74868W        W38427  26.050  37.015  11.078
74869W        W38428  24.169   7.362  12.956
74870W        W38429  15.229  28.957  12.361
74871W        W38430   4.229  37.344  11.986
74872W        W38431  12.221  23.033  14.007
74873W        W38432  22.538  27.164   1.722
74874W        W38433  34.413  18.217   2.662
74875W        W38434  21.533  34.910   4.122
74876W        W38435   0.752   5.212  13.860
74877W        W38436  35.578   8.735  11.552
74878W        W38437   5.351   9.870  10.415
74879W        W38438   8.296  39.830  14.021
74880W        W38439   7.762   7.700   1.266
74881W        W38440  26.017   6.757   2.763
74882W        W38441   6.204  13.708  12.018
74883W        W38442  16.747  44.371   2.360
74884W        W38443   9.318  10.859   2.868
74885W        W38444  39.395  23.681   0.339
74886W        W38445  29.652  44.281   2.249
74887W        W38446   6.344  34.869  14.762
74888W        W38447   1.475   0.371   4.162
74889W        W38448  26.138  20.716  11.472
74890W        W38449  18.627   5.916  14.001
74891W        W38450  23.188  13.341   3.374
74892W        W38451   0.841  34.605  13.369
74893W        W38452  16.610   8.654  14.344
74894W        W38453   4.769   0.986  11.951
74895W        W38454  34.965  22.233   1.763
74896W        W38455  32.997   3.229  11.462
74897W        W38456   5.831  42.787   2.417
74898W        W38457   4.342  35.361  13.502
74899W        W38458  17.073   8.170  13.399
74900W        W38459  22.167  25.120  11.999
74901W        W38460  37.491  34.573   1.300
74902W        W38461  29.008  31.605   2.209
74903W        W38462  41.336  11.791  13.485
74904W        W38463  24.578  27.042  10.552
74905W        W38464  31.061   3.710   2.307
74906W        W38465  34.467  18.545  11.996
74907W        W38466  20.050  40.455  11.056
74908W        W38467  19.277  40.945   3.636
74909W        W38468  10.767  34.444   2.856
74910W        W38469   9.708  25.204   0.395
74911W        W38470   5.217  22.550  12.943
74912W        W38471  29.480  44.961  10.493
74913W        W38472  10.671   9.231   1.902
74914W        W38473  23.720  25.974  13.950
74915W        W38474  11.688   2.294   3.321
74916W        W38475  17.802  21.081  10.485
74917W        W38476  43.782  31.440  10.641
74918W        W38477  26.567  22.514   2.256
74919W        W38478  22.728  19.568  10.139
74920W        W38479  27.574   5.932   3.283
74921W        W38480  17.634  34.080  14.455
74922W        W38481  25.144   3.807   3.345
74923W        W38482  24.699  33.555  13.919
74924W        W38483  43.457  24.027  11.499
74925W        W38484  29.133   9.270  12.830
74926W        W38485  23.654  43.335   0.841
74927W        W38486  19.146  36.548   3.820
74928W        W38487  33.393  28.014   1.786
74929W        W38488  41.513  39.324   2.718
74930W        W38489  18.774   7.729   3.262
74931W        W38490  24.042  41.453  11.860
74932W        W38491  14.747  15.807   3.255
74933W        W38492  33.505  11.237   4.806
74934W        W38493  18.167  34.104   3.248
74935W        W38494   9.691  35.936  12.401
74936W        W38495  15.099  10.296  13.437
74937W        W38496  42.499  27.446   3.800
74938W        W38497  30.469  36.964   2.704
74939W        W38498  17.689  40.810  14.465
74940W        W38499  18.228  39.515  12.012
74941W        W38500  37.474  36.404  12.850
74942W        W38501  25.661   8.169   2.762
74943W        W38502   2.282  19.614  11.005
74944W        W38503  23.144  35.997  12.949
74945W        W38504  16.208  30.085  12.893
74946W        W38505   8.384  43.280  10.597
74947W        W38506  25.983   2.882  14.797
74948W        W38507  29.999  16.169   3.742
74949W        W38508  31.062  24.552  12.030
74950W        W38509  13.693  28.512  11.432
74951W        W38510  19.667  14.724  13.541
74952W        W38511  36.559  10.873  13.996
74953W        W38512  37.071  42.462   4.149
74954W        W38513  19.552  13.817   3.323
74955W        W38514  42.412   4.779   4.307
74956W        W38515  11.809  20.561  12.939
74957W        W38516  28.506  20.126   0.342
74958W        W38517  22.182  31.959  10.927
74959W        W38518  43.806  23.562   2.229
74960W        W38519  44.405  18.166  10.927
74961W        W38520  34.941  17.561  11.427
74962W        W38521   7.819  44.861  14.864
74963W        W38522  40.025  11.850   0.729
74964W        W38523  41.492  28.178  13.918
74965W        W38524  28.129   2.824   4.675
74966W        W38525  12.218  24.147  11.116
74967W        W38526  31.596  14.817   0.780
74968W        W38527  36.038  37.415  11.904
74969W        W38528  40.841   4.764   0.733
74970W        W38529   1.377   4.913  13.036
74971W        W38530  41.895  33.940  11.942
74972W        W38531   5.358   4.375   1.339
74973W        W38532  34.426  38.490  12.839
74974W        W38533  16.184  22.211  13.989
74975W        W38534  33.995  32.537   0.354
74976W        W38535  12.818  30.117   4.815
74977W        W38536  12.656   4.741  14.805
74978W        W38537  28.516  32.576  12.403
74979W        W38538  17.699  42.311  14.487
74980W        W38539  26.612   7.334   0.451
74981W        W38540  31.951  12.349  10.470
74982W        W38541  37.936   6.849   1.696
74983W        W38542  13.799  24.719   5.566
74984W        W38543  43.923  37.937  14.018
74985W        W38544  39.368  35.485   2.245
74986W        W38545  19.611  35.362   4.691
74987W        W38546  29.165  44.866  10.935
74988W        W38547  34.483  27.554   4.343
74989W        W38548  37.493  40.046  14.004
74990W        W38549   4.942  20.219  13.953
74991W        W38550  22.026  35.472   3.799
74992W        W38551   1.851  40.377  14.464
74993W        W38552  27.013  10.140   2.178
74994W        W38553  40.321  27.498  12.950
74995W        W38554  20.179  33.481  14.791
74996W        W38555  12.841   3.946   2.679
74997W        W38556   6.790   0.908  13.515
74998W        W38557  23.219  42.281   0.292
74999W        W38558  32.512  42.521   1.803
75000W        W38559  44.431  41.934   3.151
75001W        W38560  30.964   1.788   4.145
75002W        W38561  16.701  22.200   4.699
75003W        W38562  10.684   7.879  14.900
75004W        W38563  33.381  32.110   0.729
75005W        W38564  20.142  40.048   4.118
75006W        W38565  30.441   9.820   2.800
75007W        W38566   1.766  15.755  11.111
75008W        W38567  39.949  24.178  10.419
75009W        W38568  41.515  43.943   3.750
75010W        W38569  17.159  28.678  13.326
75011W        W38570  25.128   9.321  12.886
75012W        W38571   5.416  22.743   3.295
75013W        W38572  13.282   1.732  14.947
75014W        W38573   8.788  40.928  12.349
75015W        W38574   7.763  12.662  13.062
75016W        W38575   0.289  39.323   4.806
75017W        W38576  40.970  20.232   2.283
75018W        W38577  24.656   6.242   4.238
75019W        W38578   1.913  10.234  12.084
75020W        W38579  38.950   2.350  14.400
75021W        W38580  10.686   8.188   3.638
75022W        W38581  15.149  32.023  13.468
75023W        W38582  41.314  31.490   2.823
75024W        W38583  37.975   4.823   2.862
75025W        W38584  31.934  22.554   2.356
75026W        W38585  10.253  40.046   3.324
75027W        W38586   0.365  41.002   0.822
75028W        W38587  22.160   0.288   3.776
75029W        W38588  41.508  29.459   1.355
75030W        W38589  27.634  21.646   1.835
75031W        W38590  43.330  44.775   0.785
75032W        W38591  12.155  16.298   1.919
75033W        W38592   1.844  28.030  14.841
75034W        W38593  19.040  11.756   0.270
75035W        W38594  24.670  35.472   4.748
75036W        W38595  35.921  26.087   3.203
75037W        W38596  42.393  39.877   2.675
75038W        W38597  11.139  15.718  13.354
75039W        W38598  19.550  12.256   1.233
75040W        W38599   2.872  16.716   0.809
75041W        W38600  15.291  40.317  12.889
75042W        W38601   9.728   6.873   4.808
75043W        W38602  18.230  10.863  10.983
75044W        W38603  43.479  24.594  10.514
75045W        W38604  13.267  12.614  12.011
75046W        W38605  39.429  28.649   0.398
75047W        W38606  15.641  37.062  13.362
75048W        W38607  44.943  39.927   1.213
75049W        W38608  44.772  15.687  13.994
75050W        W38609  16.798   0.818  13.361
75051W        W38610   4.739   2.933   4.681
75052W        W38611  44.485  34.109   5.193
75053W        W38612  12.774  12.617   2.869
75054W        W38613  21.691   1.822   4.804
75055W        W38614  10.813  36.029   0.897
75056W        W38615  32.577   9.304   3.703
75057W        W38616  37.930  42.375  12.826
75058W        W38617   1.738  32.135  11.012
75059W        W38618  31.008   2.790  14.898
75060W        W38619  43.344   1.276  12.952
75061W        W38620  43.018   3.300  13.017
75062W        W38621  29.454   5.854  12.406
75063W        W38622  22.062  32.625   2.695
75064W        W38623  24.008  41.449  11.484
75065W        W38624  44.491  23.510  14.360
75066W        W38625  21.243   4.739  10.960
75067W        W38626   0.262  42.481   2.208
75068W        W38627  41.891   6.304   1.448
75069W        W38628  35.968  37.582  12.535
75070W        W38629  13.145  11.818  13.546
75071W        W38630   4.709  31.512   0.818
75072W        W38631   6.382  38.523   0.385
75073W        W38632  43.008  22.995   2.352
75074W        W38633   3.354  41.032   3.760
75075W        W38634  36.381  24.039   4.321
75076W        W38635  31.490  38.366   3.342
75077W        W38636  17.118  36.896   4.208
75078W        W38637  38.047  15.141  12.415
75079W        W38638  34.369  24.109  13.044
75080W        W38639   8.234   7.724  11.023
75081W        W38640   7.278  15.252   4.122
75082W        W38641  26.647  41.463   2.847
75083W        W38642   6.373  24.214   4.725
75084W        W38643  28.510  36.513  12.341
75085W        W38644  41.880  35.518   4.671
75086W        W38645  37.399   7.350   2.278
75087W        W38646  36.445  29.443   2.296
75088W        W38647   5.396  35.921  12.354
75089W        W38648  38.400  26.114  11.983
75090W        W38649  28.159   5.724  11.605
75091W        W38650  40.974  10.862   2.335
75092W        W38651  28.063  14.615   0.753
75093W        W38652  43.963   8.797  14.937
75094W        W38653  21.076  29.076   4.131
75095W        W38654  44.341  14.314  10.541
75096W        W38655  26.151   2.241   0.302
75097W        W38656  22.735  36.534  10.931
75098W        W38657  26.680  43.417  13.399
75099W        W38658  10.833   0.875   3.806
75100W        W38659  19.222  16.672   4.124
75101W        W38660  17.706  15.255  14.288
75102W        W38661  18.117  12.616   0.811
75103W        W38662  44.394  15.704   1.821
75104W        W38663  31.003  25.533   2.861
75105W        W38664   7.895   6.191  14.961
75106W        W38665  32.573  27.946   2.701
75107W        W38666  23.142   5.433   1.408
75108W        W38667  30.643   0.421   1.297
75109W        W38668  28.931  25.089   0.481
75110W        W38669  22.216  20.664  12.443
75111W        W38670  15.817  35.008   3.176
75112W        W38671  11.745  32.579   2.366
75113W        W38672  40.040   9.238   2.841
75114W        W38673   6.182   1.939   2.365
75115W        W38674  36.487  39.518   2.880
75116W        W38675  34.115  37.375   4.676
75117W        W38676  15.645  18.703  12.973
75118W        W38677  23.007  31.920   1.327
75119W        W38678  12.772   0.293  14.377
75120W        W38679  28.952  23.701   2.880
75121W        W38680  38.418  16.657   3.662
75122W        W38681   7.813  30.532  14.353
75123W        W38682  26.522  37.037  11.891
75124W        W38683  33.891  39.022   2.193
75125W        W38684  36.421  18.132   3.190
75126W        W38685  29.529  15.636   1.733
75127W        W38686   6.378  34.472  11.004
75128W        W38687   0.381  42.018  13.004
75129W        W38688   5.297  14.235  11.382
75130W        W38689   2.435  35.999  13.439
75131W        W38690  31.910  28.637   4.628
75132W        W38691  35.602  17.686  12.903
75133W        W38692  24.144  37.066   2.196
75134W        W38693  44.991  14.270  11.089
75135W        W38694  32.942  41.483   4.224
75136W        W38695  32.396  18.691  13.977
75137W        W38696  22.626   7.351   1.354
75138W        W38697   0.433   5.419  11.469
75139W        W38698  38.448  34.505   0.345
75140W        W38699  39.862  28.076   0.917
75141W        W38700  30.934  10.367   1.327
75142W        W38701  26.697  24.660  10.404
75143W        W38702   9.731  26.038  11.993
75144W        W38703  12.698  32.439  13.403
75145W        W38704  10.291  35.048  13.852
75146W        W38705  33.965  23.535  12.559
75147W        W38706  15.741   2.419  11.994
75148W        W38707  34.020  40.842   0.368
75149W        W38708  40.839  28.500  11.583
75150W        W38709  27.463   7.250   2.193
75151W        W38710  29.160  20.181  11.494
75152W        W38711  23.177   3.451  14.020
75153W        W38712  22.014  32.899  13.350
75154W        W38713  17.079  21.062   0.262
75155W        W38714   3.813  22.626  14.285
75156W        W38715  28.935  32.885   1.716
75157W        W38716   4.292  42.435   1.338
75158W        W38717  41.459  36.451   4.334
75159W        W38718  43.868  42.826   0.794
75160W        W38719  41.496  20.134  12.550
75161W        W38720  11.665  37.442   4.691
75162W        W38721  38.034  42.524  11.565
75163W        W38722  36.480  32.572   2.353
75164W        W38723  15.578  13.808  12.347
75165W        W38724  37.975   6.803   0.378
75166W        W38725  32.108  22.147  12.364
75167W        W38726   1.448  37.841   4.645
75168W        W38727  37.410  29.074  13.455
75169W        W38728  29.481   6.920  10.622
75170W        W38729  26.697  10.149   2.810
75171W        W38730  30.621  15.120  13.794
75172W        W38731  15.762   1.367  13.536
75173W        W38732  13.653  22.136  10.957
75174W        W38733   1.755  25.077  13.054
75175W        W38734  26.162  16.090   1.865
75176W        W38735  35.956  36.074   1.796
75177W        W38736  30.165  23.995  14.829
75178W        W38737  13.339   5.420  14.399
75179W        W38738  32.128  42.920   4.793
75180W        W38739   9.727   6.832  13.879
75181W        W38740  40.966  18.171   2.351
75182W        W38741  42.299  43.465   2.879
75183W        W38742  32.397  40.040  12.440
75184W        W38743   8.378  26.701   2.320
75185W        W38744  11.721   1.742   0.333
75186W        W38745  20.608  44.413   4.835
75187W        W38746  22.505  18.294  14.894
75188W        W38747  26.640  25.499   4.227
75189W        W38748  20.030   3.930  13.487
75190W        W38749   0.751   0.867  10.997
75191W        W38750   3.728  11.665   3.148
75192W        W38751  23.131   3.432  11.904
75193W        W38752  29.597  27.575   2.356
75194W        W38753  34.581  14.295  12.907
75195W        W38754   4.309   0.433   1.751
75196W        W38755  27.135  15.650  13.991
75197W        W38756  16.685   3.243   0.448
75198W        W38757  24.602   9.729  12.987
75199W        W38758  30.150  19.204  14.404
75200W        W38759   6.397  28.949  14.477
75201W        W38760  44.961  21.582   3.232
75202W        W38761  35.600   5.203  11.890
75203W        W38762   6.891  43.837   3.368
75204W        W38763  39.513  24.982   0.293
75205W        W38764  12.721  16.273   0.957
75206W        W38765  11.815  34.043  12.925
75207W        W38766  23.204  33.955  11.047
75208W        W38767  23.521  24.713  12.046
75209W        W38768  26.009  31.055   2.854
75210W        W38769  10.707  28.667   2.355
75211W        W38770  41.372  18.068  12.963
75212W        W38771   7.675   2.409  13.474
75213W        W38772   0.279  22.719  11.046
75214W        W38773  41.847   6.679  11.966
75215W        W38774  30.478  43.999  13.531
75216W        W38775  33.586  12.211   1.777
75217W        W38776  24.669  43.892   2.313
75218W        W38777  30.043  27.953   1.717
75219W        W38778   4.902  39.908   4.199
75220W        W38779  39.552   9.360   3.785
75221W        W38780   7.353  27.082  11.890
75222W        W38781   7.370   6.749   0.891
75223W        W38782  29.588  18.609   2.383
75224W        W38783  32.590   3.865   1.326
75225W        W38784   2.965   9.150  10.619
75226W        W38785  13.781   8.839  12.010
75227W        W38786  35.924  25.129   3.833
75228W        W38787  34.075  22.225   4.149
75229W        W38788   6.206   5.232  14.995
75230W        W38789  29.051  37.881   1.422
75231W        W38790  31.039  28.035   5.186
75232W        W38791  38.355  17.755   4.634
75233W        W38792  29.146  23.108   5.693
75234W        W38793  33.598  26.640   4.676
75235W        W38794  37.486  21.148   2.881
75236W        W38795  13.740  28.139   1.816
75237W        W38796  20.050  13.312   1.843
75238W        W38797  35.082  38.363   3.838
75239W        W38798  18.746  26.095  14.443
75240W        W38799   8.751  21.708   3.313
75241W        W38800  16.090  32.453   4.187
75242W        W38801  19.595  32.466   3.167
75243W        W38802  30.954  28.607  11.959
75244W        W38803   8.863  38.411   0.450
75245W        W38804  14.700   1.383  12.532
75246W        W38805  17.216  43.963  15.000
75247W        W38806  44.813   6.744   2.401
75248W        W38807  40.033  18.546   4.256
75249W        W38808  21.180  32.515  10.571
75250W        W38809  38.880   2.402   2.194
75251W        W38810  21.231   4.343   3.758
75252W        W38811   3.759   3.310   1.782
75253W        W38812  30.154  16.647   3.183
75254W        W38813  25.670  39.041   1.279
75255W        W38814  19.039  25.079   3.352
75256W        W38815   8.171  25.563   1.425
75257W        W38816  44.435  37.868  14.760
75258W        W38817  33.934   4.739  10.509
75259W        W38818  12.850  43.877  14.506
75260W        W38819   2.841  16.600   3.175
75261W        W38820  36.017  33.483  11.084
75262W        W38821   2.907  44.368  13.980
75263W        W38822  17.093  40.468  12.984
75264W        W38823  39.987  32.914  12.939
75265W        W38824  38.547  29.479   3.374
75266W        W38825  43.482   2.230  13.813
75267W        W38826  28.075  38.334  10.947
75268W        W38827   1.331  37.390   2.251
75269W        W38828  13.334  10.837   0.760
75270W        W38829  28.111  31.579   3.234
75271W        W38830  36.095  25.003  14.382
75272W        W38831  25.208  23.723  10.424
75273W        W38832   0.248   9.225   0.757
75274W        W38833   3.324  14.100  11.378
75275W        W38834  30.924  17.731  11.547
75276W        W38835  34.889   1.916   3.740
75277W        W38836  15.159  38.889   3.258
75278W        W38837  41.996  13.259  14.918
75279W        W38838   2.361  33.557   2.727
75280W        W38839  34.376  26.553  10.448
75281W        W38840   4.295  24.217  14.993
75282W        W38841  27.950  18.679  11.079
75283W        W38842  44.005  37.345   2.666
75284W        W38843  30.640   4.702   0.384
75285W        W38844  36.455  29.654   3.714
75286W        W38845  14.660  14.601  12.384
75287W        W38846  33.555  21.229   4.345
75288W        W38847   3.262  27.492   0.464
75289W        W38848  32.563   8.249  11.880
75290W        W38849   4.803  16.317   0.821
75291W        W38850   2.851  39.523  13.534
75292W        W38851   0.940  35.969   2.372
75293W        W38852   3.807   5.413   2.385
75294W        W38853  33.069   2.927   1.818
75295W        W38854  34.883  36.472   0.873
75296W        W38855  30.655  29.581  13.316
75297W        W38856  11.825   3.779   2.780
75298W        W38857  16.275  13.702   1.758
75299W        W38858  29.994  35.403  11.427
75300W        W38859  23.501  40.028   3.267
75301W        W38860  23.499  13.827  13.849
75302W        W38861  17.758  34.112  11.536
75303W        W38862   4.862  26.598   1.442
75304W        W38863  30.096  14.180   0.261
75305W        W38864  28.476   5.776  13.413
75306W        W38865   0.284   1.736  14.510
75307W        W38866  34.413  27.987   2.346
75308W        W38867   6.777  30.579   2.705
75309W        W38868  38.384  33.911  13.837
75310W        W38869  42.781  30.127  12.548
75311W        W38870  31.960  25.514  13.056
75312W        W38871  20.630  32.114  14.950
75313W        W38872  29.583  19.574  10.478
75314W        W38873  27.565  38.978  11.057
75315W        W38874  34.000  10.243   3.197
75316W        W38875  40.408  34.926  12.494
75317W        W38876  14.679  43.314  11.519
75318W        W38877  41.988  15.271  14.412
75319W        W38878  19.554  38.843  13.968
75320W        W38879   2.798  13.762   2.773
75321W        W38880  24.605  20.695   2.231
75322W        W38881  12.682  32.619  13.813
75323W        W38882  17.684  16.707  12.357
75324W        W38883  20.242  31.581  14.464
75325W        W38884  13.609  18.715  13.840
75326W        W38885  42.783  12.194  11.438
75327W        W38886  30.499  32.905  14.972
75328W        W38887  25.984  40.475   0.396
75329W        W38888   3.929  11.758   2.694
75330W        W38889   1.388  30.161  14.478
75331W        W38890  22.716  37.928   3.678
75332W        W38891  28.000  41.380  14.280
75333W        W38892  30.988  43.308  10.497
75334W        W38893  38.567  34.879  10.093
75335W        W38894  17.100  28.123   0.908
75336W        W38895   9.150   5.729   1.778
75337W        W38896  10.831  11.679   4.163
75338W        W38897  15.629  39.870   9.929
75339W        W38898   8.193  35.359  10.002
75340W        W38899   7.729  21.069   2.244
75341W        W38900  19.626  24.486  11.946
75342W        W38901  37.925   1.970   4.718
75343W        W38902  33.999  44.316  12.565
75344W        W38903   0.433  21.688  14.799
75345W        W38904  36.359  29.654  13.994
75346W        W38905  34.433   4.869  14.939
75347W        W38906  18.736  12.189  13.926
75348W        W38907   9.770  25.589  13.040
75349W        W38908  22.996  28.524   0.893
75350W        W38909  42.849  10.862   2.692
75351W        W38910   6.741   2.274   4.685
75352W        W38911  19.247  20.671   1.356
75353W        W38912  15.805  38.016  13.903
75354W        W38913  44.974  18.715   1.422
75355W        W38914  26.132  16.191   2.232
75356W        W38915  31.609  29.578   0.436
75357W        W38916  33.903   6.788   9.449
75358W        W38917  18.574  10.653   3.170
75359W        W38918  23.534  24.199  10.517
75360W        W38919   5.280   9.740  13.943
75361W        W38920  17.113  41.396   2.864
75362W        W38921  32.027   7.275   0.792
75363W        W38922  44.349  13.188   3.817
75364W        W38923  25.509   6.404   4.302
75365W        W38924  19.725  32.020  13.847
75366W        W38925  44.401  44.450  13.893
75367W        W38926  12.737  39.948  12.036
75368W        W38927  16.289   9.300  13.362
75369W        W38928  17.126  29.946   0.298
75370W        W38929  17.588  12.737   4.228
75371W        W38930   2.824  21.030  10.532
75372W        W38931  28.124   7.239   1.286
75373W        W38932   4.724  13.781  14.844
75374W        W38933  26.527  13.661  12.522
75375W        W38934  32.039  20.260  13.369
75376W        W38935  19.142   8.272   2.669
75377W        W38936  43.985  32.940  13.536
75378W        W38937  14.140  33.039   4.754
75379W        W38938  32.022  34.045  14.869
75380W        W38939  10.731  35.596  13.412
75381W        W38940  37.862  14.771  10.994
75382W        W38941   0.442   6.187   2.272
75383W        W38942  29.429  30.059   3.248
75384W        W38943  15.788   0.276  14.473
75385W        W38944  12.739  21.041   5.673
75386W        W38945  37.491   1.281   0.856
75387W        W38946   9.802   2.338  11.423
75388W        W38947   9.217  36.942   3.632
75389W        W38948  43.422  43.004  12.490
75390W        W38949   1.772  35.950  12.869
75391W        W38950  29.998   4.820   4.675
75392W        W38951   9.883  40.404  14.993
75393W        W38952  12.768  10.853   3.300
75394W        W38953   6.875   0.782   3.819
75395W        W38954  11.238  20.601  14.972
75396W        W38955  37.416  21.585   2.756
75397W        W38956  22.236  23.008   3.154
75398W        W38957  34.093  24.228  10.454
75399W        W38958   7.198  28.567   3.753
75400W        W38959  18.238  32.463  13.872
75401W        W38960  28.620  14.666  14.836
75402W        W38961  30.947  12.255  11.006
75403W        W38962  42.288  15.607   1.442
75404W        W38963  10.228  26.200   1.701
75405W        W38964  24.579   9.778   9.940
75406W        W38965  33.471  24.114   1.415
75407W        W38966  14.310  18.134  11.110
75408W        W38967  22.043   8.690  12.552
75409W        W38968  27.652  35.941  10.630
75410W        W38969   6.815  22.008  13.005
75411W        W38970  27.070  24.589  11.090
75412W        W38971  34.962  43.388   0.335
75413W        W38972  18.776  34.112  13.879
75414W        W38973  43.476  32.551  14.318
75415W        W38974  29.500  15.236  14.768
75416W        W38975   8.703  30.049   2.900
75417W        W38976  16.782  32.010   0.741
75418W        W38977  20.184  21.549   4.297
75419W        W38978   3.342  15.653   5.217
75420W        W38979  20.524  43.489   4.163
75421W        W38980  22.022  38.927   0.814
75422W        W38981   8.349   3.855   4.681
75423W        W38982  33.501  13.829   1.317
75424W        W38983   3.860   9.171   1.909
75425W        W38984  28.527  13.726  14.355
75426W        W38985  26.489  38.021  12.050
75427W        W38986  26.672  26.473  14.917
75428W        W38987  42.908   7.847   0.832
75429W        W38988  44.454  11.275   1.801
75430W        W38989   4.220   4.259   1.732
75431W        W38990  24.595  38.030   2.400
75432W        W38991  24.192   4.901   9.940
75433W        W38992  16.709  20.606   2.814
75434W        W38993  42.450   1.857   1.703
75435W        W38994  26.655   3.373   4.756
75436W        W38995  12.340  41.033   3.253
75437W        W38996  39.318  16.160  11.973
75438W        W38997  38.061  26.620  11.499
75439W        W38998   3.223   8.269   1.796
75440W        W38999  39.398  30.447  10.097
75441W        W39000  38.002  37.562  11.576
75442W        W39001  30.155   9.165  12.509
75443W        W39002  38.552  37.071  12.564
75444W        W39003  38.986  12.297   4.126
75445W        W39004  10.326  37.517  11.081
75446W        W39005  38.475  19.599  13.003
75447W        W39006   3.856  44.968   2.191
75448W        W39007  12.764  18.772  14.819
75449W        W39008  20.526   7.349   1.813
75450W        W39009  33.065   0.896   1.827
75451W        W39010  37.514  27.494  11.579
75452W        W39011  18.169  24.496  11.060
75453W        W39012  43.434  34.495  14.296
75454W        W39013  13.338  37.336  12.952
75455W        W39014  27.074  36.924   0.398
75456W        W39015  15.153   7.815  14.283
75457W        W39016  17.665  18.607   1.308
75458W        W39017   6.850   8.261   4.242
75459W        W39018  35.443  29.955  12.452
75460W        W39019   2.749  29.423   3.190
75461W        W39020  39.397  39.927   3.772
75462W        W39021  39.490   2.925  10.440
75463W        W39022   7.874  21.057  12.481
75464W        W39023  31.138  18.605  14.941
75465W        W39024  20.591  35.360  13.880
75466W        W39025  15.192   9.884  14.877
75467W        W39026  35.493  20.611  14.887
75468W        W39027  16.270  40.372   2.896
75469W        W39028  39.962  25.514  13.414
75470W        W39029  36.508  16.630   0.742
75471W        W39030  34.547  13.692   0.936
75472W        W39031  12.207  39.844  12.542
75473W        W39032  24.666  34.934   1.827
75474W        W39033  28.576  23.052   1.743
75475W        W39034  25.056  13.219  11.073
75476W        W39035   4.351  25.124  12.580
75477W        W39036  14.218  38.968   1.288
75478W        W39037  10.282  38.423  13.469
75479W        W39038  36.003  24.686  13.505
75480W        W39039  20.228  44.798   0.261
75481W        W39040  38.844  37.365  11.037
75482W        W39041   4.275   9.782   4.235
75483W        W39042  24.974  26.118  11.120
75484W        W39043   3.855  31.018  12.983
75485W        W39044   2.754  32.925  12.556
75486W        W39045  25.165  20.105  10.603
75487W        W39046   4.316  32.517   0.951
75488W        W39047   3.739  27.158   0.917
75489W        W39048  28.157  36.953   0.358
75490W        W39049  30.139   6.235   4.129
75491W        W39050  15.781   3.292   4.323
75492W        W39051  28.036  30.064   3.239
75493W        W39052  37.917   8.174  14.423
75494W        W39053  40.455  33.454   1.419
75495W        W39054  29.117  17.735  13.472
75496W        W39055  11.840  13.615  11.028
75497W        W39056  27.535  14.320   2.382
75498W        W39057  23.631   9.251   1.303
75499W        W39058   1.409  24.022   4.171
75500W        W39059   2.901  41.993  10.954
75501W        W39060  29.628  10.703  10.940
75502W        W39061   6.236  13.707   0.342
75503W        W39062  24.116  31.626   2.349
75504W        W39063   6.718   0.858   4.773
75505W        W39064  27.530  10.289   3.633
75506W        W39065  22.013  39.822  14.918
75507W        W39066   5.203   7.196  12.545
75508W        W39067  31.101  17.577  11.026
75509W        W39068  43.926  14.707  13.856
75510W        W39069  38.884  44.762   0.366
75511W        W39070  32.896   5.826  11.126
75512W        W39071  11.644   7.884   4.719
75513W        W39072  40.913  37.005  13.015
75514W        W39073  38.895  27.046   4.688
75515W        W39074  40.926  27.005  10.631
75516W        W39075  12.776  32.888  10.481
75517W        W39076   9.378  27.600   1.840
75518W        W39077  35.595  18.176   2.877
75519W        W39078   1.935  40.852   1.288
75520W        W39079  34.952  23.494   3.722
75521W        W39080  29.472   5.275   1.726
75522W        W39081  44.412  25.481  12.345
75523W        W39082   6.194  43.967   3.337
75524W        W39083  37.439  39.041  10.154
75525W        W39084  16.809  26.603   5.168
75526W        W39085  11.179  40.504   3.310
75527W        W39086   4.438  24.579  14.280
75528W        W39087  32.529   0.988  13.390
75529W        W39088   4.716   1.449  10.919
75530W        W39089  31.913  27.481  13.421
75531W        W39090   7.761  34.470  12.508
75532W        W39091  32.451  37.053  14.829
75533W        W39092   6.821  26.672  11.431
75534W        W39093  26.981  14.649   3.210
75535W        W39094  10.658  30.009   0.479
75536W        W39095  24.080   6.387  14.411
75537W        W39096   7.329  42.416  14.470
75538W        W39097  15.664  27.654  14.849
75539W        W39098  20.648   2.850  13.327
75540W        W39099  16.095  38.050  10.644
75541W        W39100  34.016  41.519   5.209
75542W        W39101  19.048  43.455  11.383
75543W        W39102  36.000  38.388   1.230
75544W        W39103  39.977  17.577  10.938
75545W        W39104  11.821  37.036   3.161
75546W        W39105  33.120  37.427   1.281
75547W        W39106  11.646  10.292   4.721
75548W        W39107  40.905  30.990   2.256
75549W        W39108  39.952   9.649  12.868
75550W        W39109  40.471  37.074  12.892
75551W        W39110  12.734  35.028  13.839
75552W        W39111  35.487   9.353  14.960
75553W        W39112  36.023  20.173  14.930
75554W        W39113  10.167  34.068  12.363
75555W        W39114  28.947   7.735  11.377
75556W        W39115  35.098   5.369  11.964
75557W        W39116  15.271  39.496  12.370
75558W        W39117   5.831   1.352  12.545
75559W        W39118  36.492  19.059  12.536
75560W        W39119  43.016  25.091   2.329
75561W        W39120  34.043  35.405   2.288
75562W        W39121  20.753  40.969   1.450
75563W        W39122  28.519  34.962   4.332
75564W        W39123  38.014   4.723  13.535
75565W        W39124  16.295  17.706  12.035
75566W        W39125  30.066  40.874   0.477
75567W        W39126  32.547  24.484  13.419
75568W        W39127  24.514  35.924  11.110
75569W        W39128  25.698   1.902   2.309
75570W        W39129  15.169  18.577  14.829
75571W        W39130  35.877   4.429   4.175
75572W        W39131  44.486  16.590   4.149
75573W        W39132  17.229   5.725   0.765
75574W        W39133  31.086  44.990   3.208
75575W        W39134  35.857   2.783   0.299
75576W        W39135   7.904   7.332  10.991
75577W        W39136  26.077  12.664   1.425
75578W        W39137  29.533  16.102   3.194
75579W        W39138  18.191  26.042  13.914
75580W        W39139  25.480  23.515  11.491
75581W        W39140  41.931  29.950  13.005
75582W        W39141  10.369  34.416  11.072
75583W        W39142  41.473   0.933  12.922
75584W        W39143   0.978  41.888   3.713
75585W        W39144  38.458   7.911  14.302
75586W        W39145   7.797  35.944   4.677
75587W        W39146  10.322  29.945  11.400
75588W        W39147  24.012  23.509   4.320
75589W        W39148  37.476  25.058   2.810
75590W        W39149   5.699  25.599  11.604
75591W        W39150   8.376  13.188  14.820
75592W        W39151  25.681  36.080   1.219
75593W        W39152  26.166   3.370   1.851
75594W        W39153  25.205  19.714   1.863
75595W        W39154  44.271  14.233   0.250
75596W        W39155  20.102  13.290   0.322
75597W        W39156   1.369  21.578   2.726
75598W        W39157  19.699   9.387   2.749
75599W        W39158  23.205  39.379  11.950
75600W        W39159  40.892  25.587  11.503
75601W        W39160  14.331  34.513   3.856
75602W        W39161  41.904   8.317  12.920
75603W        W39162  41.017  38.975  11.584
75604W        W39163  27.990  24.632   4.329
75605W        W39164  19.681  29.074   1.393
75606W        W39165  38.854  26.159   0.897
75607W        W39166  30.020  16.658  10.572
75608W        W39167  14.801  37.362   3.295
75609W        W39168   4.860  24.483   0.855
75610W        W39169  41.480  13.236   4.324
75611W        W39170  16.169  14.192  14.937
75612W        W39171  33.009  16.153  13.981
75613W        W39172  27.018  14.202  14.773
75614W        W39173  24.624  29.042   1.905
75615W        W39174  22.183  34.558  10.467
75616W        W39175  16.748  11.188  11.389
75617W        W39176  44.960   8.890  11.871
75618W        W39177  41.989   4.742   1.388
75619W        W39178  42.980  33.405   2.700
75620W        W39179  30.998  41.802  13.470
75621W        W39180  24.225   0.918  12.054
75622W        W39181  44.281  39.355   3.841
75623W        W39182  24.105  23.184  12.986
75624W        W39183  21.665  41.883   2.798
75625W        W39184  18.067  11.150   2.379
75626W        W39185   1.356  39.460  11.915
75627W        W39186  12.181  28.975  12.519
75628W        W39187  13.662  35.360  10.550
75629W        W39188  37.353  44.413  14.978
75630W        W39189  25.614  27.457   2.863
75631W        W39190  17.664  39.012  13.541
75632W        W39191   3.365  12.658  14.957
75633W        W39192   5.749  29.108  12.538
75634W        W39193  30.994  39.395  14.376
75635W        W39194  17.206  28.175  14.764
75636W        W39195  40.944  22.715   3.189
75637W        W39196   2.433  37.958   2.871
75638W        W39197  23.577  33.938  12.453
75639W        W39198  26.526  23.501  11.589
75640W        W39199   0.432  34.063  10.611
75641W        W39200  28.126  34.495  11.573
75642W        W39201   5.340  14.775   2.898
75643W        W39202   6.257  31.059  14.406
75644W        W39203  33.471  42.836  12.365
75645W        W39204  28.119  34.526   0.738
75646W        W39205  23.182  30.038  13.849
75647W        W39206  31.493  20.184   2.370
75648W        W39207  43.478  39.444   2.419
75649W        W39208  33.592  20.067  13.944
75650W        W39209  41.992  39.809  10.992
75651W        W39210  15.261  26.666   4.325
75652W        W39211  14.680  32.035  14.913
75653W        W39212  24.062   4.936  11.906
75654W        W39213   3.278  41.987  14.773
75655W        W39214  27.553  23.561  11.889
75656W        W39215  40.842   0.312   2.246
75657W        W39216   6.283  24.496  11.030
75658W        W39217   1.410  40.397   4.281
75659W        W39218  27.177   3.261  14.495
75660W        W39219  40.488  20.104  10.940
75661W        W39220  44.819  27.512   3.764
75662W        W39221  22.732  41.377  11.378
75663W        W39222   5.840  26.524   2.193
75664W        W39223  35.088  28.021   3.260
75665W        W39224  14.319  44.473   2.777
75666W        W39225  19.698   5.886   4.121
75667W        W39226   6.886   4.845   0.859
75668W        W39227  24.483  26.488   0.799
75669W        W39228  38.854  41.307  12.015
75670W        W39229  10.340  14.678   0.847
75671W        W39230  19.577  19.734  11.544
75672W        W39231  21.248  10.727   2.889
75673W        W39232   3.410  19.675   3.787
75674W        W39233  38.389   9.827  11.538
75675W        W39234  32.555   7.354   4.140
75676W        W39235  22.101  18.606   1.451
75677W        W39236  14.599  31.590  12.939
75678W        W39237  44.485  23.509   0.787
75679W        W39238  23.205  34.484  14.790
75680W        W39239  14.756  14.824  14.391
75681W        W39240  40.472  29.111  12.998
75682W        W39241  17.782  19.729   3.868
75683W        W39242  38.942   6.306  11.492
75684W        W39243   2.834   7.800   4.726
75685W        W39244   4.873   2.751   0.808
75686W        W39245  12.664  10.751   1.327
75687W        W39246   1.239  10.727  14.975
75688W        W39247  35.389   9.148   2.217
75689W        W39248  14.661  34.950   2.859
75690W        W39249  39.819  19.748  10.907
75691W        W39250  36.432   2.396   0.844
75692W        W39251  26.143  12.778   4.736
75693W        W39252  41.917  24.983   0.294
75694W        W39253  31.002   2.739   0.739
75695W        W39254  41.328  21.089  13.831
75696W        W39255  41.848  41.950  12.852
75697W        W39256  13.335  32.440   0.770
75698W        W39257  43.777  29.526   0.277
75699W        W39258  41.394  24.093   3.768
75700W        W39259   5.211  24.646   2.268
75701W        W39260   5.825   8.160   1.851
75702W        W39261  32.472   2.430  13.513
75703W        W39262  41.845   5.236   3.239
75704W        W39263  16.311  36.361   1.768
75705W        W39264  33.118   3.740   3.310
75706W        W39265  42.003  26.661  12.515
75707W        W39266  25.146  17.572  11.458
75708W        W39267   4.234  40.991   2.302
75709W        W39268  30.161  33.041   2.871
75710W        W39269   7.375   6.260   0.450
75711W        W39270  37.338  28.457   2.774
75712W        W39271  10.658   8.403  12.425
75713W        W39272  21.223   4.437  12.512
75714W        W39273  13.151  41.318   3.693
75715W        W39274  28.110  14.314   4.336
75716W        W39275  28.574  14.333  11.457
75717W        W39276   5.925  21.251  10.413
75718W        W39277  39.896  17.111  11.476
75719W        W39278  44.958  10.298  13.918
75720W        W39279  43.821   8.349   3.253
75721W        W39280  18.732   9.888  12.907
75722W        W39281  39.325  42.481   0.761
75723W        W39282  13.680  12.259   1.371
75724W        W39283  20.214   1.911   4.725
75725W        W39284  24.040   7.359  13.374
75726W        W39285  33.046  30.468  11.978
75727W        W39286  26.981  27.093  12.422
75728W        W39287  38.341  39.038   4.758
75729W        W39288   5.297  22.628   4.253
75730W        W39289  35.067  21.026   3.299
75731W        W39290  43.459  26.146  11.874
75732W        W39291  24.564  43.278   3.279
75733W        W39292   0.428   2.271   3.148
75734W        W39293   8.267  37.087  12.041
75735W        W39294  32.622  41.901   5.691
75736W        W39295  15.678  26.623  13.502
75737W        W39296   5.257  33.105  11.011
75738W        W39297  38.510  18.079  11.078
75739W        W39298  18.207  17.749  13.933
75740W        W39299  41.446  17.620   0.452
75741W        W39300  26.085  27.172  13.968
75742W        W39301  16.244   5.888   9.587
75743W        W39302  39.494  21.638  12.470
75744W        W39303  37.945  25.163   0.388
75745W        W39304   8.733  34.506   2.694
75746W        W39305   1.790   7.235   0.941
75747W        W39306  15.294  26.020   4.285
75748W        W39307  35.389  30.547   2.326
75749W        W39308  38.324  40.314  13.501
75750W        W39309  32.947   8.379  13.969
75751W        W39310  26.545  42.428   1.360
75752W        W39311  14.325   9.804   0.899
75753W        W39312   5.415   6.206  12.565
75754W        W39313  40.967  35.578  10.427
75755W        W39314  42.917   5.355  10.978
75756W        W39315  21.194  38.527  13.946
75757W        W39316   2.464  34.070  12.002
75758W        W39317  36.844  33.969   2.747
75759W        W39318  25.592  29.621  13.799
75760W        W39319  40.845  34.083  11.538
75761W        W39320  21.746  34.045  11.603
75762W        W39321   9.775  38.989  12.855
75763W        W39322  21.514   2.253  10.620
75764W        W39323  33.912  42.904  13.814
75765W        W39324   8.734  23.597  13.498
75766W        W39325  34.510  10.773  13.817
75767W        W39326  16.776  25.509  12.084
75768W        W39327  39.549   2.363  13.906
75769W        W39328   0.891  21.116   0.385
75770W        W39329  10.813  34.398  11.580
75771W        W39330   4.391  36.036   2.211
75772W        W39331  12.752  31.565   0.868
75773W        W39332  40.812  27.073  11.548
75774W        W39333   4.827  34.423   4.739
75775W        W39334   8.193  17.698  11.040
75776W        W39335   5.917   2.892  10.981
75777W        W39336  17.239  20.530   4.755
75778W        W39337  23.025  36.849  13.038
75779W        W39338  34.605  14.261   2.877
75780W        W39339  30.491  15.110   3.801
75781W        W39340   4.802   7.739   1.303
75782W        W39341   9.784  28.437   0.856
75783W        W39342   8.352  12.796   0.479
75784W        W39343  29.990   2.864  11.955
75785W        W39344  12.309  22.606  11.454
75786W        W39345   9.340  18.288  14.361
75787W        W39346  26.072   1.740  13.009
75788W        W39347   7.239  29.079   0.778
75789W        W39348  14.639  24.647   5.117
75790W        W39349  17.665  21.752   2.191
75791W        W39350  10.806  18.785  10.912
75792W        W39351  18.274  28.081  12.424
75793W        W39352  35.377  32.930   0.752
75794W        W39353  18.575  36.939  14.411
75795W        W39354  42.847  42.842  11.480
75796W        W39355  21.252  13.731   1.390
75797W        W39356   0.494   7.217   0.420
75798W        W39357  21.234  42.399   4.309
75799W        W39358  35.996  25.968  12.013
75800W        W39359  10.169  27.037   3.700
75801W        W39360   2.870   7.758  14.327
75802W        W39361   1.366  29.450  12.058
75803W        W39362  33.593   9.334   0.466
75804W        W39363  38.948  34.467  13.336
75805W        W39364  20.648  32.093  14.406
75806W        W39365  31.583  13.644   4.270
75807W        W39366  43.964   4.443   4.270
75808W        W39367  10.279  31.004  14.340
75809W        W39368  20.113  13.174   4.804
75810W        W39369   0.313  36.095   3.266
75811W        W39370  31.988  41.369  11.409
75812W        W39371   2.868   9.665  14.442
75813W        W39372   6.894  41.805   1.441
75814W        W39373  35.599   0.461  12.038
75815W        W39374   2.250   3.837  11.510
75816W        W39375  24.579  35.900   3.635
75817W        W39376  25.695  33.590  11.596
75818W        W39377  28.943  31.563  10.429
75819W        W39378  36.417   5.241   4.230
75820W        W39379  19.121  37.543   4.731
75821W        W39380  21.177  31.512   2.802
75822W        W39381  10.794   2.322  11.128
75823W        W39382  43.363  29.968   4.614
75824W        W39383  26.595  24.180  11.042
75825W        W39384  42.282  27.625  13.848
75826W        W39385  34.528  21.674  14.025
75827W        W39386  25.562  20.185  13.406
75828W        W39387  26.598  31.089   4.786
75829W        W39388  21.139   7.267  10.916
75830W        W39389  35.564  11.231   2.336
75831W        W39390   9.720  14.792  10.434
75832W        W39391  44.314  10.228   1.396
75833W        W39392  28.082  23.567   2.888
75834W        W39393   6.414  21.258  11.374
75835W        W39394  44.448  30.556   1.317
75836W        W39395  29.951  33.117   1.897
75837W        W39396  21.084   7.352  12.409
75838W        W39397  20.580  33.448   1.270
75839W        W39398  15.276   6.370  12.532
75840W        W39399  13.219   2.232  11.899
75841W        W39400   6.184  31.116  10.567
75842W        W39401   4.790   1.912   4.745
75843W        W39402   8.270  40.351  14.896
75844W        W39403  12.310  29.155   4.223
75845W        W39404  20.690  30.985   0.928
75846W        W39405  33.567  12.840   3.336
75847W        W39406  16.787  37.937  13.366
75848W        W39407  14.180  10.274  13.491
75849W        W39408  21.717  17.136  13.407
75850W        W39409  26.975   7.907  10.577
75851W        W39410  38.336  31.099  11.058
75852W        W39411  17.118   2.908   1.804
75853W        W39412  17.677  39.900  10.496
75854W        W39413  26.466  28.134   3.828
75855W        W39414  39.877  32.960  13.338
75856W        W39415  36.546  10.242   1.431
75857W        W39416  44.388   7.767  14.448
75858W        W39417  34.115  34.476  10.889
75859W        W39418  10.795  44.756   3.780
75860W        W39419  39.898   9.719  11.050
75861W        W39420   9.258  36.365   5.244
75862W        W39421  11.654  43.812  12.568
75863W        W39422   0.351  27.009  11.966
75864W        W39423  14.209  16.632  11.917
75865W        W39424  33.612   9.288  11.583
75866W        W39425  22.518  37.031   4.820
75867W        W39426  34.529  26.509  14.475
75868W        W39427  36.527   3.368   4.674
75869W        W39428  40.000   2.364  12.081
75870W        W39429  22.152  22.008   0.401
75871W        W39430  29.987  38.061   3.823
75872W        W39431  25.677  19.682  14.389
75873W        W39432  39.999  24.149  13.956
75874W        W39433   7.743   7.873   5.222
75875W        W39434   8.895  17.740   4.772
75876W        W39435  24.721  43.280  11.578
75877W        W39436  24.101  19.650   2.216
75878W        W39437   4.726   3.954   5.317
75879W        W39438  28.453   9.714  11.587
75880W        W39439  42.836  14.789  10.897
75881W        W39440  16.126   1.434   4.244
75882W        W39441  22.685  18.254  14.404
75883W        W39442  38.833  11.706   3.740
75884W        W39443  25.146  39.905   2.377
75885W        W39444  12.660  26.673  11.502
75886W        W39445  12.300  29.446   0.384
75887W        W39446  35.599  15.306   3.703
75888W        W39447  10.701  43.300  12.352
75889W        W39448  29.110  15.154  13.032
75890W        W39449  11.771  11.762   1.788
75891W        W39450  32.521  14.241  13.842
75892W        W39451  32.607  14.330   1.272
75893W        W39452  10.151  33.383  10.480
75894W        W39453  28.668  38.338  12.847
75895W        W39454  36.456  27.131  11.970
75896W        W39455  20.029   3.779  14.007
75897W        W39456  15.646  23.186   0.852
75898W        W39457  44.458   1.459  14.314
75899W        W39458  36.510  25.077  12.928
75900W        W39459  11.273  36.377   1.297
75901W        W39460   5.865  17.211  11.606
75902W        W39461   6.262  30.599   1.885
75903W        W39462  28.653   7.868  10.924
75904W        W39463  34.614  29.484  12.876
75905W        W39464  23.695  37.450   3.372
75906W        W39465  35.491   0.913   0.918
75907W        W39466   5.427  19.536   2.343
75908W        W39467   1.893   7.776  11.124
75909W        W39468  18.637   9.240   2.205
75910W        W39469  44.259  19.721  11.914
75911W        W39470  40.035   4.318   3.322
75912W        W39471  20.107  18.122  13.833
75913W        W39472   7.783  31.470   3.730
75914W        W39473   2.430  44.904  13.893
75915W        W39474  12.346   7.204   1.888
75916W        W39475  24.612  24.994  11.468
75917W        W39476  31.079  30.128  12.383
75918W        W39477  36.929   3.349   4.735
75919W        W39478  14.124  34.091  13.461
75920W        W39479  18.624  36.486   2.679
75921W        W39480  16.678  12.637   4.323
75922W        W39481   4.354  31.113   3.171
75923W        W39482  39.927  11.770   1.413
75924W        W39483  21.187  37.422  14.510
75925W        W39484  31.073  34.581  11.878
75926W        W39485  16.683   6.359   4.832
75927W        W39486  24.683  42.020  13.460
75928W        W39487  21.256  41.829   2.847
75929W        W39488  22.513  14.811   3.639
75930W        W39489   0.916  14.177  12.545
75931W        W39490  32.449  42.340  14.366
75932W        W39491  36.049  30.020   1.423
75933W        W39492   9.233  15.229   3.309
75934W        W39493  32.430  34.117  13.947
75935W        W39494  18.737  13.170   0.800
75936W        W39495  13.758  36.579  11.587
75937W        W39496  12.244  26.488  12.490
75938W        W39497  38.496   6.246   4.128
75939W        W39498  28.116   0.415   2.260
75940W        W39499   5.761   0.837  11.950
75941W        W39500  36.888  33.043  11.591
75942W        W39501  33.113  10.317  14.867
75943W        W39502  42.435  41.975  10.934
75944W        W39503  24.612  25.660   0.864
75945W        W39504  23.650  10.846  13.907
75946W        W39505  14.714   5.792   3.361
75947W        W39506  21.712  32.522  10.041
75948W        W39507   5.756  16.122  11.061
75949W        W39508   9.212  39.342  10.535
75950W        W39509  37.898  36.449  13.059
75951W        W39510  28.121   6.775  10.447
75952W        W39511  21.030   8.690  11.578
75953W        W39512  38.478   7.741  10.985
75954W        W39513  41.326  17.650   1.380
75955W        W39514  37.885  25.596   4.188
75956W        W39515  38.445  23.094   1.766
75957W        W39516  12.339  20.036   0.783
75958W        W39517  39.351   8.843   4.688
75959W        W39518  41.831  40.354   2.244
75960W        W39519  16.668  13.769  13.477
75961W        W39520  19.774  26.139   3.667
75962W        W39521  32.425  28.515   0.283
75963W        W39522  25.163  11.254  13.379
75964W        W39523  32.083  37.071   5.748
75965W        W39524  42.434  22.695   0.749
75966W        W39525   7.400  11.811   4.135
75967W        W39526  29.437  10.206   1.411
75968W        W39527   2.455   2.234   3.251
75969W        W39528   5.911  43.487   4.314
75970W        W39529   3.461  30.085   3.284
75971W        W39530   4.820  18.054  11.533
75972W        W39531  40.888  36.382   0.268
75973W        W39532   5.437  42.788   4.633
75974W        W39533  11.277  27.003  14.399
75975W        W39534  23.515  37.376   1.270
75976W        W39535  23.088  31.904   1.704
75977W        W39536  39.839   9.667  12.062
75978W        W39537  23.118  32.528  12.953
75979W        W39538   3.445  20.749  14.390
75980W        W39539   6.822  19.715   4.814
75981W        W39540  18.621  18.159   4.703
75982W        W39541  39.344  34.420  13.399
75983W        W39542   0.948  28.603  10.936
75984W        W39543  40.923  10.783   4.748
75985W        W39544  43.791  14.240   1.245
75986W        W39545  21.609  43.409  10.524
75987W        W39546  11.674  17.701   2.682
75988W        W39547  38.469   3.860  13.899
75989W        W39548  21.215  20.747   2.240
75990W        W39549  22.160  41.016   1.764
75991W        W39550   9.879  42.376   3.823
75992W        W39551  15.240   4.825   3.637
75993W        W39552  37.371  29.441  13.377
75994W        W39553   9.251  39.816   0.738
75995W        W39554  15.658  31.433  10.466
75996W        W39555  40.360  19.129  11.532
75997W        W39556   7.671  36.853   1.397
75998W        W39557  15.262  24.206  11.055
75999W        W39558   2.862  22.720  10.435
76000W        W39559  39.468  14.825   0.263
76001W        W39560  38.019   6.834  11.385
76002W        W39561  41.528   5.282  13.022
76003W        W39562  41.419  30.555   0.329
76004W        W39563  43.769   1.405  10.496
76005W        W39564  32.490   7.224  14.005
76006W        W39565  31.586  18.237  14.869
76007W        W39566  25.067  37.484   3.794
76008W        W39567  13.106  42.346   2.778
76009W        W39568  10.800  13.763  11.035
76010W        W39569  15.652  13.348   4.602
76011W        W39570  31.912   6.415   0.785
76012W        W39571  22.015   7.252  11.938
76013W        W39572  32.120   3.282   2.354
76014W        W39573  37.519  41.355  12.548
76015W        W39574  37.415  32.140  12.414
76016W        W39575  40.950  23.531  11.599
76017W        W39576  37.993  25.211   3.773
76018W        W39577  39.325  36.568  14.298
76019W        W39578  17.282  34.925   3.187
76020W        W39579  33.120  12.168   3.859
76021W        W39580  18.069  41.984   2.895
76022W        W39581  19.601   3.954   2.211
76023W        W39582  28.150  25.008   1.440
76024W        W39583   8.673   9.684   2.415
76025W        W39584   2.762  34.948   1.756
76026W        W39585   2.843  13.156   3.686
76027W        W39586  39.348  16.732   4.170
76028W        W39587  41.296  27.477   2.883
76029W        W39588   4.347   8.315   2.217
76030W        W39589  28.544   8.242  10.519
76031W        W39590  17.063  34.945  11.938
76032W        W39591  34.937   7.796  14.389
76033W        W39592  28.645   4.847   3.638
76034W        W39593  19.555  32.492  11.050
76035W        W39594  29.969  34.555   2.902
76036W        W39595  41.864  14.721  12.348
76037W        W39596   3.778  21.257  11.927
76038W        W39597  14.281  38.958   5.286
76039W        W39598  12.774  36.380   3.334
76040W        W39599  38.471  43.395  11.521
76041W        W39600  32.061  12.796  14.516
76042W        W39601   5.795  39.524  14.032
76043W        W39602   1.792   5.844   4.605
76044W        W39603  25.159  17.607   2.349
76045W        W39604  25.172  17.567   3.865
76046W        W39605  36.578  13.175  10.888
76047W        W39606  35.410  29.944   4.620
76048W        W39607  43.307  20.731  13.496
76049W        W39608  38.882   1.894   1.326
76050W        W39609  28.098  22.146   2.864
76051W        W39610   1.841  25.469  12.013
76052W        W39611  16.243   0.754   3.342
76053W        W39612  41.916  29.120   1.394
76054W        W39613  15.734  43.962   0.817
76055W        W39614   5.839  27.540   4.637
76056W        W39615  34.615   2.947  11.479
76057W        W39616  32.982   1.361  12.059
76058W        W39617  15.152  15.256  11.570
76059W        W39618   1.263  22.241  10.609
76060W        W39619  37.948  21.099   1.249
76061W        W39620  44.345  12.845  12.998
76062W        W39621   7.719  32.603   2.374
76063W        W39622  44.443   0.900  11.055
76064W        W39623  15.634   0.307   1.858
76065W        W39624   2.874   2.365  11.922
76066W        W39625  35.107  42.982   3.188
76067W        W39626  31.591  15.304   0.469
76068W        W39627   6.425  39.529  13.023
76069W        W39628  22.577  30.459   3.812
76070W        W39629  44.951  20.593  13.492
76071W        W39630   5.238  41.916  11.381
76072W        W39631  34.946   0.958  13.974
76073W        W39632   0.474  31.136   1.891
76074W        W39633   8.406  14.810   2.346
76075W        W39634  39.823   4.802   3.334
76076W        W39635  11.203  28.603   2.326
76077W        W39636  20.704   3.910  11.873
76078W        W39637  33.890  23.202  13.405
76079W        W39638  12.738  39.958  14.800
76080W        W39639  44.891  17.708  11.880
76081W        W39640   5.263  29.428  13.889
76082W        W39641  33.580  10.208  12.845
76083W        W39642  42.937   9.340   3.769
76084W        W39643  25.491  38.454   3.263
76085W        W39644  40.940   9.372   0.931
76086W        W39645  27.007  17.237   3.853
76087W        W39646  28.155  41.942   4.723
76088W        W39647  14.096  43.446   3.820
76089W        W39648   1.765  13.177   4.294
76090W        W39649  13.133  21.067  14.968
76091W        W39650  13.815  42.825   2.668
76092W        W39651  34.408  18.657  13.999
76093W        W39652  20.653  29.630   4.276
76094W        W39653   1.908  25.025  14.368
76095W        W39654   6.348  33.435  10.896
76096W        W39655  32.548  15.808   3.804
76097W        W39656  37.419  28.617   0.832
76098W        W39657  41.378  10.204   4.634
76099W        W39658  24.683  22.747  10.933
76100W        W39659   4.322  23.151   2.790
76101W        W39660  24.199  23.710  14.485
76102W        W39661   4.756  19.250  11.506
76103W        W39662  27.119  26.627  11.019
76104W        W39663  13.243  25.712   4.639
76105W        W39664  39.516  29.988  13.400
76106W        W39665  12.764   3.773   1.251
76107W        W39666  22.723  13.148  13.494
76108W        W39667  15.585  40.492  13.993
76109W        W39668  30.082  40.516   0.782
76110W        W39669  11.680  17.186  10.493
76111W        W39670  36.901  36.550   3.187
76112W        W39671   3.766  34.949   3.828
76113W        W39672  33.912  40.050   2.189
76114W        W39673  25.135  33.396   3.736
76115W        W39674  23.989  32.130  13.884
76116W        W39675  31.583   7.384  14.476
76117W        W39676  13.819  43.874   3.864
76118W        W39677   6.707  18.249   2.778
76119W        W39678  22.235  13.664  12.457
76120W        W39679  19.682  31.032  10.625
76121W        W39680  11.793  18.268  10.502
76122W        W39681  40.887  34.596   1.754
76123W        W39682  18.770   9.681  11.996
76124W        W39683   6.328  36.063   2.192
76125W        W39684   2.433  30.022   1.267
76126W        W39685   7.390   7.193  10.618
76127W        W39686   9.354  20.542   1.227
76128W        W39687  27.455  15.682   3.676
76129W        W39688   4.738  13.206   0.903
76130W        W39689   3.879   4.931   0.822
76131W        W39690  40.943  40.313  13.868
76132W        W39691  16.798   7.704   3.370
76133W        W39692  24.174  20.721   0.480
76134W        W39693  39.314  35.073  14.508
76135W        W39694  22.519  16.258  13.001
76136W        W39695  20.213  44.305   4.773
76137W        W39696  25.711  31.962   0.869
76138W        W39697  26.468  37.346   4.127
76139W        W39698  42.790   6.820  11.569
76140W        W39699   0.302   7.384  12.905
76141W        W39700  23.635  41.004   3.235
76142W        W39701  15.596  34.077   2.664
76143W        W39702  15.745  39.887   3.765
76144W        W39703  29.486  10.686  13.501
76145W        W39704  17.766  16.181   3.770
76146W        W39705  41.449  42.846  11.436
76147W        W39706  33.615  28.012   2.877
76148W        W39707  32.447  43.476   4.341
76149W        W39708  32.897  42.357  11.458
76150W        W39709  11.712  19.283   0.791
76151W        W39710  22.727  23.044  14.454
76152W        W39711  21.168  44.767  14.454
76153W        W39712  17.098  19.578   2.772
76154W        W39713  40.017  35.992   4.288
76155W        W39714  22.579  44.777  13.808
76156W        W39715  24.082  11.331  13.920
76157W        W39716   0.835   9.794  11.913
76158W        W39717  20.538  18.661   0.280
76159W        W39718  19.588   6.714  10.950
76160W        W39719  25.506  28.552   2.670
76161W        W39720   4.736   8.209  12.407
76162W        W39721  24.101  10.746  12.943
76163W        W39722  38.924  30.496   1.911
76164W        W39723  17.171  26.979   3.696
76165W        W39724   8.682   1.740  14.318
76166W        W39725  37.423  42.288   2.689
76167W        W39726   3.846  38.958  10.931
76168W        W39727   1.934  32.499  10.451
76169W        W39728  27.538  25.006   4.660
76170W        W39729  25.040   5.431  11.488
76171W        W39730  33.045  11.713   4.133
76172W        W39731   6.409  14.712   2.738
76173W        W39732  13.160  38.988   0.399
76174W        W39733  29.126  11.324  13.061
76175W        W39734  34.444  36.003   0.967
76176W        W39735  12.193   5.298  10.925
76177W        W39736  22.666  33.397   0.453
76178W        W39737  42.918   6.850   1.731
76179W        W39738  28.522  10.790   1.334
76180W        W39739  12.697  24.651  12.369
76181W        W39740  42.366  17.745  13.512
76182W        W39741  25.208  14.640   3.823
76183W        W39742  22.694   4.799   0.427
76184W        W39743   8.207  42.922   0.759
76185W        W39744  23.574  35.865  14.023
76186W        W39745  32.129  23.571   4.115
76187W        W39746  20.744  29.637   3.657
76188W        W39747  38.935   3.347   4.606
76189W        W39748  23.120  38.454  13.982
76190W        W39749  41.972   8.362  13.900
76191W        W39750  16.717  20.175  11.929
76192W        W39751  19.235  44.998  13.965
76193W        W39752  11.779   9.280  12.827
76194W        W39753   7.870  35.066  14.957
76195W        W39754  10.662   9.849  14.401
76196W        W39755  21.144   5.390  13.513
76197W        W39756  41.834  24.124   2.801
76198W        W39757  12.686  26.669  12.083
76199W        W39758   2.346  12.663   9.993
76200W        W39759   6.316  14.648  12.457
76201W        W39760  16.734   5.220   0.268
76202W        W39761   8.859   3.358   4.188
76203W        W39762   7.833   9.330   0.245
76204W        W39763  16.173  11.316   2.888
76205W        W39764  11.295  36.098  13.500
76206W        W39765  27.535   9.182  12.517
76207W        W39766  23.007  41.892   3.848
76208W        W39767  14.659  12.320  14.399
76209W        W39768  43.418  21.217   4.661
76210W        W39769  17.082   8.175  11.373
76211W        W39770  23.090  12.301  10.489
76212W        W39771  43.504  26.178   0.736
76213W        W39772  37.527  39.840   9.967
76214W        W39773  30.582  44.778  11.080
76215W        W39774  36.012  39.991  14.495
76216W        W39775  42.493  36.371   4.127
76217W        W39776  27.990  34.107  11.560
76218W        W39777  32.020  27.565  13.056
76219W        W39778   5.270  14.833  12.934
76220W        W39779   5.308  19.739   3.346
76221W        W39780  16.152   3.752  14.501
76222W        W39781  18.686  22.032  12.031
76223W        W39782  14.164  36.899   4.802
76224W        W39783  29.511   8.281  13.322
76225W        W39784   3.807  10.258  14.348
76226W        W39785  30.570   7.297   2.896
76227W        W39786   9.760  39.918  11.936
76228W        W39787  22.151  33.508   1.929
76229W        W39788   0.308  23.240   4.301
76230W        W39789  38.034   3.756   2.392
76231W        W39790  34.499  17.604  14.490
76232W        W39791   8.688  27.026  14.872
76233W        W39792  42.830   8.381  11.570
76234W        W39793  24.027  32.893   4.741
76235W        W39794  31.146  31.430   2.666
76236W        W39795  11.822  22.099  11.976
76237W        W39796   7.722  27.472   2.339
76238W        W39797  22.724  42.968  12.058
76239W        W39798  10.757  10.651   3.381
76240W        W39799  23.629  37.972  11.082
76241W        W39800  28.591  36.591  13.486
76242W        W39801  32.131  39.858  13.501
76243W        W39802   5.287  19.744   4.694
76244W        W39803   2.849   6.389   0.769
76245W        W39804  36.998  30.528  12.843
76246W        W39805  42.012  24.051  12.859
76247W        W39806  16.197  15.316   2.886
76248W        W39807  30.152   9.819  12.497
76249W        W39808  11.128  24.614   4.317
76250W        W39809  25.551  21.703   1.906
76251W        W39810  20.165  12.158   1.833
76252W        W39811  13.263  36.581  14.458
76253W        W39812  13.286   6.269   2.708
76254W        W39813  34.476   0.953   0.769
76255W        W39814  38.003  15.743   3.653
76256W        W39815  20.199   0.988   1.402
76257W        W39816  44.907  31.080   0.435
76258W        W39817   2.280   8.345  12.523
76259W        W39818  12.839  29.141   2.240
76260W        W39819   8.664  22.651   1.862
76261W        W39820  39.835  27.988  12.010
76262W        W39821  13.114  39.838   3.272
76263W        W39822  17.573  31.559   0.254
76264W        W39823  40.054  22.197  12.094
76265W        W39824  14.330   4.748   5.094
76266W        W39825  22.196   2.908  12.371
76267W        W39826  19.168  44.777   3.685
76268W        W39827   2.859  25.681  12.543
76269W        W39828  24.662   3.791   2.251
76270W        W39829  37.499  30.412   9.931
76271W        W39830  29.489  11.189  10.515
76272W        W39831  36.560  16.236  13.882
76273W        W39832  33.021   7.204   0.797
76274W        W39833   1.829  25.992  10.611
76275W        W39834   7.310  39.342  10.890
76276W        W39835  27.518  41.805   0.246
76277W        W39836   2.262  38.899   0.875
76278W        W39837  25.534   1.806  12.843
76279W        W39838   7.869   1.954  13.031
76280W        W39839   1.337  37.998  11.946
76281W        W39840  40.932   0.755  11.396
76282W        W39841  36.525  21.113   1.360
76283W        W39842  33.466  26.462  12.851
76284W        W39843   9.373  35.396  11.523
76285W        W39844   0.851  21.188   2.776
76286W        W39845  24.517  14.158  11.495
76287W        W39846  34.466  12.308  10.110
76288W        W39847  13.329  25.491   0.807
76289W        W39848  13.309   9.228  11.955
76290W        W39849  37.366  31.512   9.940
76291W        W39850  13.687   9.286  13.535
76292W        W39851  42.927  26.483   0.776
76293W        W39852  42.347  42.372   2.688
76294W        W39853   2.468   3.734  10.936
76295W        W39854  43.774  29.104   4.291
76296W        W39855  30.995   1.953  10.987
76297W        W39856  42.832  26.564  12.489
76298W        W39857   9.877  13.229  11.055
76299W        W39858  38.331  24.635  11.903
76300W        W39859  21.750  12.169  14.925
76301W        W39860  18.057  11.310  11.128
76302W        W39861  13.153   6.265   9.949
76303W        W39862  15.679   7.687   0.441
76304W        W39863  10.174   6.791   4.248
76305W        W39864  25.480  14.751   3.734
76306W        W39865   1.441  25.990  11.548
76307W        W39866  13.328  38.032   3.341
76308W        W39867  14.794   7.236  12.096
76309W        W39868   8.406  17.083   1.740
76310W        W39869  25.687  20.699   0.905
76311W        W39870  19.580   8.751  12.888
76312W        W39871  35.978  24.721   3.184
76313W        W39872   6.372   8.719   3.688
76314W        W39873  11.701  13.302   2.811
76315W        W39874  35.534  33.940  10.082
76316W        W39875  15.678  22.119  14.850
76317W        W39876  16.809  37.460   0.869
76318W        W39877  35.462   2.967   4.353
76319W        W39878  13.127   6.688  14.948
76320W        W39879  33.932  13.833  11.457
76321W        W39880  19.651  21.575   2.298
76322W        W39881   1.397   8.858   1.822
76323W        W39882  16.768  40.424  13.031
76324W        W39883   6.259  33.007   4.658
76325W        W39884  12.204  36.008  14.763
76326W        W39885  31.525  24.716  13.883
76327W        W39886  44.980  43.434   2.873
76328W        W39887  23.580  11.271   2.374
76329W        W39888  38.555  37.376   2.714
76330W        W39889   7.680  24.000  14.433
76331W        W39890  18.168  18.057   3.792
76332W        W39891  27.004  42.404   3.782
76333W        W39892  21.183  41.957  10.576
76334W        W39893  39.528  38.061  11.500
76335W        W39894  39.417  14.696  10.917
76336W        W39895  42.934  37.075  13.423
76337W        W39896  26.595   8.291  13.510
76338W        W39897   0.955  11.174   0.322
76339W        W39898  41.510  20.761  12.869
76340W        W39899  27.197  10.334  10.114
76341W        W39900  18.596  36.052  14.438
76342W        W39901  28.528  23.075  14.338
76343W        W39902   6.780  27.125  12.429
76344W        W39903  34.546  44.827  12.935
76345W        W39904  23.241  18.592  11.428
76346W        W39905  17.641  37.422  14.971
76347W        W39906  18.116  18.553  11.073
76348W        W39907  21.077   8.333  11.027
76349W        W39908  31.964  23.027  11.973
76350W        W39909  18.191   8.406   3.226
76351W        W39910  32.099   3.420   3.207
76352W        W39911  35.927   0.420   1.862
76353W        W39912  22.186   8.712  13.415
76354W        W39913  26.003  16.201  12.008
76355W        W39914  44.947   5.234   2.278
76356W        W39915  27.521  21.214   0.393
76357W        W39916  41.458  38.066   0.273
76358W        W39917  37.974  16.277   4.787
76359W        W39918  11.227  20.590  13.867
76360W        W39919  37.477  24.482  14.436
76361W        W39920  28.018   3.860   4.353
76362W        W39921  28.567  21.095   3.209
76363W        W39922  35.025  37.404   0.283
76364W        W39923  12.724  18.597  13.925
76365W        W39924  23.667  40.449   1.872
76366W        W39925  24.530  27.152  11.962
76367W        W39926  31.553  30.922   4.725
76368W        W39927  37.446  43.786  13.499
76369W        W39928  15.329   2.404   2.368
76370W        W39929   6.212  12.293   2.878
76371W        W39930  27.063  33.910  11.865
76372W        W39931   6.387   9.708   1.257
76373W        W39932   7.738  19.705   3.190
76374W        W39933   9.247  37.338   2.706
76375W        W39934  17.183  42.839   2.201
76376W        W39935  44.364  11.208  13.419
76377W        W39936  41.474  36.083   3.639
76378W        W39937   2.749  43.837   1.778
76379W        W39938  19.241  11.795   1.220
76380W        W39939  23.011  26.657  12.451
76381W        W39940  28.013  25.041  12.482
76382W        W39941  42.357  27.970   2.767
76383W        W39942  21.560  18.271   0.828
76384W        W39943  43.325  13.665  13.465
76385W        W39944  10.246  27.077  10.972
76386W        W39945  13.654  23.154  14.843
76387W        W39946  17.623  31.119  14.890
76388W        W39947  14.276   8.362   0.308
76389W        W39948  14.740  37.836  13.798
76390W        W39949  27.486  27.639   1.730
76391W        W39950  14.664   1.475  10.406
76392W        W39951  13.625  31.132   0.346
76393W        W39952  30.024  24.100  14.407
76394W        W39953   4.847  28.039  13.427
76395W        W39954  31.510  32.983   4.118
76396W        W39955  16.638  27.174  12.870
76397W        W39956  41.399  21.710   1.744
76398W        W39957  23.650  28.633   9.933
76399W        W39958  38.420  31.009   1.837
76400W        W39959  44.902  13.254  12.876
76401W        W39960  21.257  37.960   4.297
76402W        W39961  28.555   2.927   3.319
76403W        W39962  30.560  43.834   2.327
76404W        W39963  22.006  19.723   4.820
76405W        W39964  17.598  29.111   2.814
76406W        W39965  43.954  35.022  13.493
76407W        W39966  33.956  17.207  12.364
76408W        W39967  25.003  15.785  12.358
76409W        W39968  39.558  22.587  13.441
76410W        W39969   6.286  10.383  10.129
76411W        W39970  27.545  21.046   1.861
76412W        W39971  44.010  20.763  10.549
76413W        W39972  24.042  41.385  13.428
76414W        W39973  34.919   2.741   0.730
76415W        W39974  38.889  13.725   4.606
76416W        W39975   5.869   9.259   1.781
76417W        W39976  22.077  10.213   9.950
76418W        W39977  42.833   4.820  13.316
76419W        W39978  17.091   4.218   2.278
76420W        W39979  38.440  25.642  10.439
76421W        W39980   2.450  43.823   4.353
76422W        W39981  21.260  22.558  14.858
76423W        W39982   8.766  14.704   0.829
76424W        W39983  36.922  29.988   2.732
76425W        W39984  33.929  32.457  13.891
76426W        W39985  43.910  40.814  10.913
76427W        W39986   3.287   7.262  13.339
76428W        W39987  25.191  12.744  13.791
76429W        W39988  13.760   7.359  12.372
76430W        W39989  39.946  32.509   3.680
76431W        W39990   4.395   5.773   2.664
76432W        W39991  15.224  21.663   0.391
76433W        W39992  24.074  14.112   5.313
76434W        W39993   2.849   1.875   1.874
76435W        W39994   6.417  41.346  10.427
76436W        W39995  32.109  23.507  12.539
76437W        W39996  10.285  15.095  12.067
76438W        W39997  26.127   7.388  13.858
76439W        W39998   2.241  26.039   4.738
76440W        W39999  29.441   2.316   1.809
76441W        W40000  40.368  19.717  13.003
76442W        W40001   4.930  22.515  11.855
76443W        W40002  28.050  31.953  11.860
76444W        W40003   7.878  27.605   4.816
76445W        W40004  21.729  19.119   1.819
76446W        W40005  15.679  10.289  14.771
76447W        W40006  38.068  39.415  14.514
76448W        W40007  44.000  10.344   0.762
76449W        W40008   6.398  15.748   3.830
76450W        W40009  42.522  28.569  11.375
76451W        W40010  22.219  17.672   3.646
76452W        W40011  34.935  36.458   2.269
76453W        W40012  34.449  24.141  11.466
76454W        W40013  23.080  23.729   1.214
76455W        W40014  21.211  15.710  14.838
76456W        W40015   6.205   4.749  12.398
76457W        W40016  33.934  33.394  11.075
76458W        W40017   9.878  12.201   5.709
76459W        W40018   3.898   0.340   0.912
76460W        W40019  14.173   9.169   4.175
76461W        W40020  25.030  27.544  11.543
76462W        W40021  29.051   0.375  13.867
76463W        W40022  30.045  11.349   0.892
76464W        W40023   4.710  27.447   2.359
76465W        W40024  32.457  42.333   5.093
76466W        W40025  39.860  23.102  14.409
76467W        W40026  31.498  32.521   1.262
76468W        W40027  15.601  20.041  10.470
76469NA+    NA+40028  28.480   9.319   4.704
76470NA+    NA+40029  26.603  13.349  14.775
76471NA+    NA+40030  36.463  35.964   0.409
76472NA+    NA+40031  40.512  36.464  13.309
76473NA+    NA+40032  18.194  37.006   4.221
76474NA+    NA+40033  22.639  33.981  12.553
76475NA+    NA+40034  20.123  33.389   3.730
76476NA+    NA+40035  15.150  26.695   3.330
76477NA+    NA+40036  15.281  12.704   4.128
76478NA+    NA+40037  26.153  28.105  10.966
76479NA+    NA+40038  18.593   0.913   5.146
76480NA+    NA+40039  17.104  29.132  14.874
76481NA+    NA+40040   9.661  12.186  13.882
76482NA+    NA+40041  35.401  10.163   0.259
76483NA+    NA+40042  43.996  20.531   4.118
76484NA+    NA+40043  18.780  29.970   3.378
76485NA+    NA+40044  16.269  23.727   2.333
76486NA+    NA+40045  43.366   2.252  12.353
76487NA+    NA+40046   3.792  10.332  11.500
76488NA+    NA+40047   0.781  28.646  14.835
76489NA+    NA+40048   8.792   3.456  14.310
76490NA+    NA+40049   7.394  22.691  13.420
76491NA+    NA+40050   8.669  38.532  11.000
76492NA+    NA+40051  44.492  37.925  10.471
76493NA+    NA+40052  43.317  31.422  11.934
76494NA+    NA+40053  14.723   9.194   0.759
76495NA+    NA+40054  29.016  26.690   1.863
76496NA+    NA+40055  38.976  15.738  11.390
76497NA+    NA+40056  12.766  39.475   0.766
76498NA+    NA+40057  28.133   0.958   2.819
76499NA+    NA+40058  10.261   4.373  14.961
76500NA+    NA+40059  22.016   0.900  11.599
76501NA+    NA+40060  26.207   7.751   4.810
76502NA+    NA+40061  43.849  33.947  12.021
76503NA+    NA+40062  18.249   7.175  11.893
76504NA+    NA+40063  15.160   7.417   3.285
76505NA+    NA+40064  23.169  22.130   4.272
76506NA+    NA+40065  34.032  34.472   3.296
76507NA+    NA+40066  22.171  25.531  13.964
76508NA+    NA+40067  14.635   9.373  14.803
76509NA+    NA+40068  41.495  10.719  11.418
76510NA+    NA+40069  21.756   0.325  11.574
76511NA+    NA+40070  14.329  36.403  14.381
76512NA+    NA+40071  31.003   6.417   0.962
76513NA+    NA+40072   5.225  25.591  13.447
76514NA+    NA+40073  19.049  20.081  14.937
76515NA+    NA+40074   6.772  22.718   3.708
76516NA+    NA+40075   2.751  33.411  10.060
76517NA+    NA+40076  17.101  32.617  10.624
76518NA+    NA+40077  21.143  19.716   2.398
76519NA+    NA+40078  30.502  14.645  13.492
76520NA+    NA+40079  28.960  14.606  13.910
76521NA+    NA+40080  16.191  33.018  13.508
76522NA+    NA+40081  31.606  12.645   2.392
76523NA+    NA+40082  12.834  15.742   1.793
76524NA+    NA+40083  15.281  31.622   4.771
76525NA+    NA+40084  15.644  36.378   0.366
76526NA+    NA+40085  27.615  32.495   1.779
76527NA+    NA+40086  11.250  18.181   4.633
76528NA+    NA+40087  32.524   0.366   4.711
76529NA+    NA+40088  43.413  34.939   4.709
76530NA+    NA+40089  19.133  41.875  12.425
76531NA+    NA+40090  42.931   5.793   3.270
76532NA+    NA+40091  21.559   4.833  12.353
76533NA+    NA+40092  34.981  25.508   1.270
76534NA+    NA+40093  33.953  44.878   0.347
76535NA+    NA+40094  18.234  38.418   1.853
76536NA+    NA+40095  11.697  41.503  13.445
76537NA+    NA+40096  28.155  11.322  11.922
76538NA+    NA+40097   8.894  12.360  11.429
76539NA+    NA+40098   8.343  18.731   0.381
76540NA+    NA+40099  39.809  31.141   0.385
76541NA+    NA+40100   8.871  37.485   4.177
76542NA+    NA+40101  17.105  18.138   2.810
76543NA+    NA+40102  12.794  42.997  14.473
76544NA+    NA+40103  36.027  33.108   3.806
76545NA+    NA+40104  13.637  29.148  12.411
76546NA+    NA+40105  16.683  28.479   3.751
76547NA+    NA+40106  15.203  23.094   0.731
76548NA+    NA+40107   5.353  41.947   2.394
76549NA+    NA+40108  14.251   7.367   1.267
76550NA+    NA+40109  35.043   7.688   3.755
76551NA+    NA+40110  20.576  44.488   3.800
76552NA+    NA+40111  10.383  36.937  11.974
76553NA+    NA+40112  40.980  16.110   1.298
76554NA+    NA+40113  27.183   6.737   0.901
76555NA+    NA+40114  34.480  39.977  11.963
76556NA+    NA+40115   0.812   4.819   2.279
76557NA+    NA+40116  14.747  13.673  10.929
76558NA+    NA+40117  24.003  40.882   2.276
76559NA+    NA+40118  18.099  18.693  10.411
76560NA+    NA+40119  29.483  15.766   4.162
76561NA+    NA+40120  43.293   2.776  12.371
76562NA+    NA+40121  12.130  11.133  10.545
76563NA+    NA+40122   4.942   4.735   3.731
76564NA+    NA+40123  14.736  23.024  12.413
76565NA+    NA+40124  29.092  27.174  11.028
76566NA+    NA+40125  26.466  14.766  10.642
76567NA+    NA+40126   8.237  20.175  14.436
76568NA+    NA+40127  20.229  14.287   3.242
76569NA+    NA+40128   4.214  30.536  13.438
76570NA+    NA+40129   0.286  27.195  12.467
76571NA+    NA+40130   9.334  11.334   3.309
76572NA+    NA+40131  28.018  25.069   2.813
76573NA+    NA+40132  19.698   1.286   0.373
76574NA+    NA+40133  30.512   8.193   2.383
76575NA+    NA+40134  24.724  27.181  10.980
76576NA+    NA+40135  12.646  37.523   1.918
76577NA+    NA+40136  27.195  41.936   4.737
76578NA+    NA+40137   6.271  43.972  13.471
76579NA+    NA+40138   0.454  33.041  13.333
76580NA+    NA+40139  43.786   2.323  14.803
76581NA+    NA+40140  32.598  11.274   5.204
76582NA+    NA+40141  21.214  38.959   3.870
76583NA+    NA+40142  20.151  36.014   4.287
76584NA+    NA+40143  12.235  33.617  12.551
76585NA+    NA+40144  27.952  12.258  12.396
76586NA+    NA+40145  40.812  27.059  14.481
76587NA+    NA+40146  15.815  22.551   1.814
76588NA+    NA+40147  35.962  43.346  14.338
76589NA+    NA+40148  18.295   2.403   1.813
76590NA+    NA+40149  32.058   4.862  10.603
76591NA+    NA+40150  35.415  44.978   0.844
76592NA+    NA+40151  27.078  36.450  12.954
76593NA+    NA+40152  19.107  25.070  13.345
76594NA+    NA+40153  39.933  42.325   1.364
76595NA+    NA+40154  13.803   6.876  13.943
76596NA+    NA+40155  26.463  27.462  13.835
76597NA+    NA+40156  15.732  30.997   3.681
76598NA+    NA+40157  35.564  21.553  11.396
76599NA+    NA+40158  31.558  12.153   3.345
76600NA+    NA+40159  43.881  15.682  10.958
76601NA+    NA+40160  27.468   5.211  12.883
76602NA+    NA+40161  44.369   4.762   4.348
76603NA+    NA+40162  15.109  21.560  10.638
76604NA+    NA+40163   4.214   3.253  12.547
76605NA+    NA+40164   1.348  37.437   0.888
76606NA+    NA+40165   0.292  25.130  13.049
76607NA+    NA+40166   7.827  12.206  10.016
76608NA+    NA+40167  33.986  19.733   4.729
76609NA+    NA+40168  24.041  19.553   5.099
76610NA+    NA+40169  38.985  35.601   4.152
76611NA+    NA+40170  43.834  40.905   3.246
76612NA+    NA+40171   5.705  30.622   2.217
76613NA+    NA+40172  28.957  29.953  10.907
76614NA+    NA+40173  14.664   6.406   4.354
76615NA+    NA+40174  25.987   4.868   3.749
76616NA+    NA+40175  12.181  35.397   0.290
76617NA+    NA+40176  11.640  39.515   4.322
76618NA+    NA+40177  12.651  11.641   4.612
76619NA+    NA+40178  32.494  25.169  13.990
76620NA+    NA+40179  23.589  38.064   4.625
76621NA+    NA+40180  14.648  36.935   1.831
76622NA+    NA+40181  35.445  17.584  11.381
76623NA+    NA+40182  40.802  22.713  11.128
76624NA+    NA+40183  26.634  10.866  13.315
76625NA+    NA+40184  20.039  42.809   4.731
76626NA+    NA+40185  14.191   0.805  12.411
76627NA+    NA+40186  26.474   8.173   1.412
76628NA+    NA+40187   5.428  10.848   1.797
76629NA+    NA+40188  29.037  39.047   0.811
76630NA+    NA+40189  40.901   3.790  10.418
76631NA+    NA+40190  14.329  21.248  14.328
76632NA+    NA+40191  23.491  18.568   1.376
76633NA+    NA+40192  39.927  40.013  11.947
76634NA+    NA+40193   0.815   1.334   4.630
76635NA+    NA+40194  24.660   3.364  12.828
76636NA+    NA+40195   8.846  41.298   3.648
76637NA+    NA+40196  34.480   5.778  12.919
76638NA+    NA+40197  34.044  44.288   2.834
76639NA+    NA+40198   4.286   9.884  11.098
76640NA+    NA+40199  12.805   1.858  14.869
76641NA+    NA+40200   9.199  33.113  14.820
76642NA+    NA+40201  36.461  36.479  13.863
76643NA+    NA+40202  24.497  20.245   1.806
76644NA+    NA+40203  28.518  41.890   2.752
76645NA+    NA+40204  38.936   8.735   5.265
76646NA+    NA+40205  38.515   7.888  13.408
76647NA+    NA+40206  17.264  20.231   3.788
76648NA+    NA+40207   5.866  27.627  10.488
76649NA+    NA+40208  25.485  39.510  12.861
76650NA+    NA+40209  10.834  14.782   4.122
76651NA+    NA+40210   5.840  15.741   4.660
76652NA+    NA+40211  33.571  37.054   2.671
76653NA+    NA+40212  29.094  42.968   0.244
76654NA+    NA+40213  10.787  23.657   4.147
76655NA+    NA+40214  43.391  40.481   3.234
76656NA+    NA+40215  15.597  28.039  13.972
76657NA+    NA+40216  44.496  19.536  10.145
76658NA+    NA+40217  12.661  25.499  14.863
76659NA+    NA+40218  16.155  43.858   2.378
76660NA+    NA+40219  40.310  27.070   1.447
76661NA+    NA+40220  31.959  18.723  10.603
76662NA+    NA+40221  40.378  32.434   3.279
76663NA+    NA+40222  25.178  42.957   4.229
76664NA+    NA+40223  30.624  44.804   2.344
76665NA+    NA+40224  33.082  11.339   4.161
76666NA+    NA+40225  42.895   5.221   3.723
76667NA+    NA+40226   6.360   7.821   4.227
76668NA+    NA+40227  41.876  19.716  10.109
76669NA+    NA+40228  31.963  44.407   3.244
76670NA+    NA+40229  11.855  42.461   4.794
76671NA+    NA+40230  38.021   0.325  13.968
76672NA+    NA+40231  27.513  27.592  14.438
76673NA+    NA+40232  34.868   1.242  11.910
76674NA+    NA+40233  24.162   6.683   3.671
76675NA+    NA+40234  41.959  41.532   3.741
76676NA+    NA+40235  33.416  14.656   1.922
76677NA+    NA+40236   7.396  21.750   3.643
76678NA+    NA+40237   5.733  23.734   3.663
76679NA+    NA+40238  13.809   1.361   4.760
76680NA+    NA+40239  14.252  14.739  11.091
76681NA+    NA+40240   0.825  25.986   4.160
76682NA+    NA+40241  29.620  19.650   5.210
76683NA+    NA+40242  29.426  11.310   3.157
76684NA+    NA+40243  37.949   1.268  12.881
76685NA+    NA+40244  37.885  15.261   1.210
76686NA+    NA+40245   7.215  41.483  11.594
76687NA+    NA+40246  43.930   0.345  14.000
76688NA+    NA+40247  29.473   3.824   4.708
76689NA+    NA+40248  37.935   5.325   3.379
76690NA+    NA+40249  43.817  39.383   0.963
76691NA+    NA+40250  43.889  43.402   2.788
76692NA+    NA+40251  15.083  43.492  13.906
76693NA+    NA+40252  31.053  39.835   1.406
76694NA+    NA+40253  20.543  12.651   2.662
76695NA+    NA+40254   8.254  35.600   5.232
76696NA+    NA+40255  32.125  23.561  13.375
76697NA+    NA+40256  31.544  17.783   0.954
76698NA+    NA+40257  36.463  15.288  10.436
76699NA+    NA+40258  36.353  22.211   9.995
76700NA+    NA+40259   3.397   7.901   4.141
76701NA+    NA+40260   8.818  13.172  12.837
76702NA+    NA+40261  22.547  38.844   0.826
76703NA+    NA+40262  37.429  36.994   1.403
76704NA+    NA+40263  29.503  26.043   3.223
76705NA+    NA+40264   0.790  37.456  12.921
76706NA+    NA+40265  27.130  24.547   3.721
76707NA+    NA+40266   1.755  14.319   4.627
76708NA+    NA+40267  19.137   8.829   0.313
76709NA+    NA+40268  40.441  44.911  14.906
76710NA+    NA+40269  18.613  29.511   0.366
76711NA+    NA+40270  17.596  43.500  10.633
76712NA+    NA+40271  10.320  43.453   1.852
76713NA+    NA+40272  39.862  20.222   4.269
76714NA+    NA+40273  42.830  17.791  10.450
76715NA+    NA+40274  17.184  44.459  12.024
76716NA+    NA+40275  13.351  20.129   3.273
76717NA+    NA+40276  17.105  43.415  13.858
76718NA+    NA+40277  34.607  18.712   1.283
76719NA+    NA+40278  38.566  28.065  14.356
76720NA+    NA+40279  34.016  18.703  14.882
76721NA+    NA+40280   6.303   3.919  11.424
76722NA+    NA+40281  35.509  35.506   2.808
76723NA+    NA+40282   4.829  25.069  12.871
76724NA+    NA+40283  26.196  12.210  12.898
76725NA+    NA+40284   5.723  38.553  14.464
76726NA+    NA+40285   3.711   1.268  11.424
76727NA+    NA+40286  33.041   1.471   4.255
76728NA+    NA+40287  44.876  23.535   1.367
76729NA+    NA+40288  39.954   4.900  14.895
76730NA+    NA+40289  35.388  17.067   1.299
76731NA+    NA+40290  26.693   6.774  14.840
76732NA+    NA+40291  34.556  36.949  13.338
76733NA+    NA+40292  33.436  15.211   1.317
76734NA+    NA+40293  34.065  22.659  12.462
76735NA+    NA+40294  16.205  43.937   0.807
76736NA+    NA+40295   9.855  12.617  14.832
76737NA+    NA+40296  34.091  22.686   0.773
76738NA+    NA+40297  36.911  31.995  11.542
76739NA+    NA+40298  10.647  21.120   4.707
76740NA+    NA+40299  22.508  35.070   3.678
76741NA+    NA+40300  41.303  41.534  11.868
76742NA+    NA+40301  30.109  15.756  11.544
76743NA+    NA+40302   8.374   1.756   4.297
76744NA+    NA+40303  37.936  26.665   1.361
76745NA+    NA+40304  17.711  32.617  12.407
76746NA+    NA+40305  28.998  29.126  14.371
76747NA+    NA+40306  42.323  25.573   4.150
76748NA+    NA+40307  14.324  44.882  11.561
76749NA+    NA+40308  23.169   5.765   3.153
76750NA+    NA+40309   7.713  28.984   0.387
76751NA+    NA+40310  33.906  36.922   1.835
76752NA+    NA+40311  32.586  34.879  13.992
76753NA+    NA+40312  40.819  26.568  14.809
76754NA+    NA+40313  29.616  31.439  10.463
76755NA+    NA+40314  20.607  17.286  10.578
76756NA+    NA+40315  27.512  18.259   4.170
76757NA+    NA+40316  13.335  27.010   0.338
76758NA+    NA+40317  12.741  25.491   4.291
76759NA+    NA+40318  40.325  32.574  10.951
76760NA+    NA+40319  20.262  43.500  11.522
76761NA+    NA+40320  26.575   1.420  10.931
76762NA+    NA+40321  35.957  39.503   3.192
76763NA+    NA+40322  36.951  41.013   2.774
76764NA+    NA+40323  18.735  34.607  11.983
76765NA+    NA+40324   0.457  28.937  13.023
76766NA+    NA+40325  19.154  22.181   1.703
76767NA+    NA+40326  42.827  30.956  12.071
76768NA+    NA+40327  15.240  18.109   1.897
76769NA+    NA+40328  17.101  25.141   2.762
76770NA+    NA+40329  18.737   1.942  13.489
76771NA+    NA+40330   8.679  35.099   1.900
76772NA+    NA+40331  17.298  18.547   2.696
76773NA+    NA+40332  31.087  13.707   1.832
76774NA+    NA+40333   6.852  27.524  13.805
76775NA+    NA+40334  25.105   8.694   0.895
76776NA+    NA+40335  28.594  36.081  14.890
76777NA+    NA+40336   6.247  11.844   4.295
76778NA+    NA+40337  18.077  19.577   1.766
76779NA+    NA+40338  11.623   2.449  11.925
76780NA+    NA+40339  17.079  10.348  11.087
76781NA+    NA+40340  28.475  42.988   0.906
76782NA+    NA+40341   2.389  20.062  13.451
76783NA+    NA+40342  11.272  31.592  11.947
76784NA+    NA+40343  35.995   3.272  12.050
76785NA+    NA+40344  25.683   6.270   0.922
76786NA+    NA+40345  14.326  10.208  12.849
76787NA+    NA+40346  15.741  29.081  10.533
76788NA+    NA+40347  42.782  23.041   0.807
76789NA+    NA+40348  40.542   1.457  11.509
76790NA+    NA+40349  13.329  14.634  10.018
76791NA+    NA+40350  16.744  27.185  10.598
76792NA+    NA+40351   4.824  12.264  13.973
76793NA+    NA+40352  25.586   1.424   4.340
76794NA+    NA+40353  23.130  35.367   0.960
76795NA+    NA+40354   8.222   8.261  12.540
76796NA+    NA+40355  18.280  38.561   0.894
76797NA+    NA+40356  38.406   3.302  12.905
76798NA+    NA+40357  17.742  11.193   0.453
76799NA+    NA+40358  18.770  12.253  13.404
76800NA+    NA+40359   6.363  44.788  14.009
76801NA+    NA+40360  37.981  37.467  14.990
76802NA+    NA+40361  43.288  21.561  13.792
76803NA+    NA+40362  31.521  33.520  10.496
76804NA+    NA+40363   1.817  21.127  13.925
76805NA+    NA+40364  35.946  27.087  14.506
76806NA+    NA+40365  39.854  36.885   1.318
76807NA+    NA+40366   3.354   6.808   2.359
76808NA+    NA+40367  43.455  27.467   3.234
76809NA+    NA+40368  25.644  16.612  11.382
76810NA+    NA+40369  20.750  35.990  11.111
76811NA+    NA+40370  26.178  26.098  14.443
76812NA+    NA+40371  33.449  29.588  11.531
76813NA+    NA+40372  11.159  42.372  11.104
76814NA+    NA+40373  13.688  42.487   3.275
76815NA+    NA+40374  17.705  17.232   0.293
76816NA+    NA+40375  23.499  34.399   1.712
76817NA+    NA+40376  22.513  13.207  12.396
76818NA+    NA+40377  25.004   1.440   0.465
76819NA+    NA+40378  38.420  35.414   4.119
76820NA+    NA+40379  29.452  12.244   4.173
76821NA+    NA+40380  26.461  22.642  12.862
76822NA+    NA+40381  31.475   6.776  13.428
76823NA+    NA+40382  13.304   0.981   5.317
76824NA+    NA+40383  27.027  34.435   0.863
76825NA+    NA+40384  14.668  16.760  11.543
76826NA+    NA+40385  36.525  43.011  14.853
76827NA+    NA+40386  43.316  11.630  11.430
76828NA+    NA+40387  22.098  44.272   0.945
76829NA+    NA+40388  32.117  20.209   1.281
76830NA+    NA+40389   3.283   8.248  10.909
76831NA+    NA+40390  23.161  39.991   0.846
76832NA+    NA+40391  34.413   0.831  11.090
76833NA+    NA+40392   2.394  24.074   0.829
76834NA+    NA+40393   8.357  18.691  11.388
76835NA+    NA+40394   5.792  32.553  12.479
76836NA+    NA+40395  17.798  44.302  12.010
76837NA+    NA+40396  33.504  30.602   3.224
76838NA+    NA+40397  18.153   5.925  11.937
76839NA+    NA+40398  15.814  43.872   2.743
76840NA+    NA+40399   3.408  40.053   1.376
76841NA+    NA+40400  28.040  23.669  13.411
76842NA+    NA+40401   2.802  22.197   4.312
76843NA+    NA+40402   5.799   2.422   1.892
76844NA+    NA+40403   1.735  43.283   2.317
76845NA+    NA+40404  29.118  41.322   2.668
76846NA+    NA+40405  18.210  26.666  10.552
76847NA+    NA+40406  30.473   0.863  11.591
76848NA+    NA+40407   5.809  42.518  11.387
76849NA+    NA+40408  17.247   6.860   4.251
76850NA+    NA+40409  29.143  25.154  13.309
76851NA+    NA+40410  33.112  10.717  13.947
76852NA+    NA+40411   2.772  13.132   1.903
76853NA+    NA+40412  38.419  11.335  12.340
76854NA+    NA+40413  16.135  17.586  13.958
76855NA+    NA+40414  42.341   6.763  13.323
76856NA+    NA+40415   0.400  20.681   2.230
76857NA+    NA+40416  41.437  25.171   1.830
76858NA+    NA+40417  20.107   6.810   3.858
76859NA+    NA+40418  42.804  18.720  11.454
76860NA+    NA+40419  41.000  35.064  11.570
76861NA+    NA+40420  43.409  36.568  12.927
76862NA+    NA+40421  26.120   1.777  13.447
76863NA+    NA+40422  27.004  37.910  11.458
76864NA+    NA+40423  23.571  29.604  11.449
76865NA+    NA+40424  37.886  39.370   2.800
76866NA+    NA+40425  36.468  15.176  14.367
76867NA+    NA+40426  21.261  41.980   0.298
76868NA+    NA+40427   6.718  28.622  13.940
76869NA+    NA+40428  34.496  13.614  14.451
76870NA+    NA+40429  36.493   5.421   0.426
76871NA+    NA+40430  16.301  30.017  14.765
76872NA+    NA+40431  28.658   2.462  12.826
76873NA+    NA+40432  17.081  36.516   4.775
76874NA+    NA+40433  31.950  43.915  11.968
76875NA+    NA+40434  19.574   7.360   1.333
76876NA+    NA+40435  44.838  26.514   3.158
76877NA+    NA+40436  23.187  25.563   1.697
76878NA+    NA+40437  30.060  28.662   3.363
76879NA+    NA+40438   3.834  16.303  14.402
76880NA+    NA+40439  10.187  44.310  12.071
76881NA+    NA+40440  29.512  34.003   0.926
76882NA+    NA+40441  19.638   1.887   1.255
76883NA+    NA+40442  42.838  26.005  12.528
76884NA+    NA+40443  36.998  22.188  14.491
76885NA+    NA+40444  13.316  17.180   9.955
76886NA+    NA+40445  24.025  17.255   1.418
76887NA+    NA+40446   7.340  41.930   1.444
76888NA+    NA+40447  32.002   4.331   4.808
76889NA+    NA+40448  21.208  22.095   4.148
76890NA+    NA+40449  38.454  39.373   4.345
76891NA+    NA+40450  31.444  26.156   0.922
76892NA+    NA+40451   5.750  22.527   3.165
76893NA+    NA+40452  29.478  16.080   3.864
76894NA+    NA+40453  22.631  36.480   2.677
76895NA+    NA+40454  13.702  35.074  11.874
76896NA+    NA+40455  20.106  14.673   3.686
76897NA+    NA+40456  35.382   2.255   4.236
76898NA+    NA+40457  33.054   7.354   3.741
76899NA+    NA+40458   6.279  14.172  13.917
76900NA+    NA+40459  29.664  33.016  11.924
76901NA+    NA+40460   5.729   5.691  11.076
76902NA+    NA+40461   8.846  40.471  11.554
76903NA+    NA+40462   1.283  14.097  13.913
76904NA+    NA+40463   6.770  23.005  13.486
76905NA+    NA+40464  35.915   5.863   0.900
76906NA+    NA+40465  42.340   9.684  10.484
76907NA+    NA+40466  28.046  31.101  12.417
76908NA+    NA+40467  43.856  23.217  10.608
76909NA+    NA+40468   8.222  38.328   2.678
76910NA+    NA+40469  37.841   5.696   1.317
76911NA+    NA+40470   9.205  37.909  12.915
76912NA+    NA+40471   7.275  38.846  13.436
76913NA+    NA+40472   2.918   6.762   0.302
76914NA+    NA+40473  33.929   1.882  11.401
76915NA+    NA+40474  19.072  42.517  11.470
76916NA+    NA+40475  12.123  37.874   5.747
76917NA+    NA+40476  10.270  22.556   5.296
76918NA+    NA+40477  26.984   0.445   0.249
76919NA+    NA+40478   2.720  41.927  10.543
76920NA+    NA+40479  11.281  19.544  11.578
76921NA+    NA+40480   0.880  18.758   2.715
76922NA+    NA+40481  36.426   1.732   2.876
76923NA+    NA+40482  34.534   5.332   0.348
76924NA+    NA+40483  27.664  26.474   2.838
76925NA+    NA+40484  38.479   1.831  10.944
76926NA+    NA+40485  10.835  21.547   0.331
76927NA+    NA+40486   5.375   0.817   0.345
76928NA+    NA+40487  17.263  26.123   3.782
76929NA+    NA+40488  39.376   3.952   3.729
76930NA+    NA+40489   4.227  14.288   0.287
76931NA+    NA+40490  37.433  32.582  12.443
76932NA+    NA+40491  35.402  17.654   0.934
76933NA+    NA+40492  39.911  32.048   0.763
76934NA+    NA+40493  40.009  35.974   3.714
76935NA+    NA+40494  28.155  41.504   3.727
76936NA+    NA+40495  19.714  37.997   1.408
76937NA+    NA+40496  29.534   0.341  12.835
76938NA+    NA+40497  42.841  11.302  12.896
76939NA+    NA+40498  34.041  23.105  11.056
76940NA+    NA+40499  11.782  24.111   0.957
76941NA+    NA+40500  43.786  14.650  12.344
76942NA+    NA+40501  11.770  44.315  10.514
76943NA+    NA+40502  44.334  26.646   3.840
76944NA+    NA+40503  38.379  26.694  11.392
76945NA+    NA+40504  44.790   6.728  14.912
76946NA+    NA+40505  12.272  37.941  14.407
76947NA+    NA+40506  23.490   7.765   4.167
76948NA+    NA+40507  42.315  26.489  10.577
76949NA+    NA+40508  24.209   6.770   4.635
76950NA+    NA+40509  27.481  11.293   2.236
76951NA+    NA+40510   8.707  12.618   5.288
76952NA+    NA+40511  24.479   3.786  13.837
76953NA+    NA+40512  41.499  19.089   2.214
76954NA+    NA+40513  17.156  38.541  12.388
76955NA+    NA+40514  22.541   2.729  13.503
76956NA+    NA+40515  23.657  27.613   1.222
76957NA+    NA+40516  37.345  13.709  14.899
76958NA+    NA+40517  20.528   8.881  14.928
76959NA+    NA+40518  44.772  44.394   2.185
76960NA+    NA+40519  13.729  14.283  10.423
76961NA+    NA+40520  33.002  28.949   0.423
76962NA+    NA+40521  14.295  22.113   4.231
76963NA+    NA+40522  30.019  21.245   3.725
76964NA+    NA+40523  42.863  15.209   0.802
76965NA+    NA+40524   8.378   0.303  10.596
76966NA+    NA+40525  24.138  29.919  12.345
76967NA+    NA+40526  43.862  40.454  11.051
76968NA+    NA+40527  43.967  21.667   0.760
76969NA+    NA+40528  22.148   2.722   4.606
76970NA+    NA+40529   3.810  33.535   1.364
76971NA+    NA+40530   5.735  39.518   4.798
76972NA+    NA+40531  18.081  34.393  12.934
76973NA+    NA+40532   6.272  16.621   1.253
76974NA+    NA+40533   7.215  18.100   0.835
76975NA+    NA+40534  33.621  40.340   2.298
76976NA+    NA+40535  42.873  29.629   3.818
76977NA+    NA+40536  37.449  41.361  12.077
76978NA+    NA+40537  19.664  34.953   4.224
76979NA+    NA+40538  32.069  31.524  13.865
76980NA+    NA+40539   1.470  10.697  12.353
76981NA+    NA+40540   2.315  35.014   5.168
76982NA+    NA+40541  40.305  25.017   3.311
76983NA+    NA+40542  17.075  28.440  12.942
76984NA+    NA+40543  22.604   2.278  13.394
76985NA+    NA+40544   6.364  22.697  13.395
76986NA+    NA+40545  24.627   6.351  14.330
76987NA+    NA+40546  17.744  32.419  14.349
76988NA+    NA+40547  13.300  41.336   0.729
76989NA+    NA+40548  22.064  17.630  10.467
76990NA+    NA+40549  44.376  20.555  10.494
76991NA+    NA+40550  26.198   4.714   4.794
76992NA+    NA+40551  25.991  19.633   5.295
76993NA+    NA+40552   8.260  34.113   2.304
76994NA+    NA+40553  18.086  31.070  11.597
76995NA+    NA+40554  16.792  40.992  12.994
76996NA+    NA+40555   3.850   1.400   3.852
76997NA+    NA+40556   3.727  39.853  13.362
76998NA+    NA+40557   9.839  35.417   3.643
76999NA+    NA+40558  10.719  13.316   4.214
77000NA+    NA+40559  25.573  13.339   9.989
77001NA+    NA+40560  34.069  25.568  14.340
77002NA+    NA+40561  38.446  18.066   1.906
77003NA+    NA+40562  17.153  44.493   2.316
77004NA+    NA+40563  41.402  15.808  11.527
77005NA+    NA+40564  18.570  37.051   1.228
77006NA+    NA+40565  36.091  42.491   2.674
77007NA+    NA+40566   4.777   3.448   0.801
77008NA+    NA+40567  42.923  29.972   1.433
77009NA+    NA+40568  15.707   1.331  14.992
77010NA+    NA+40569  30.983   0.435  12.428
77011NA+    NA+40570  34.925   8.281  12.084
77012NA+    NA+40571  35.592  36.053  12.897
77013NA+    NA+40572   4.728  21.117  14.322
77014NA+    NA+40573  33.473   8.345   1.373
77015NA+    NA+40574   2.259   3.375   2.179
77016NA+    NA+40575  23.570   0.757  12.405
77017NA+    NA+40576  37.416  16.699  14.904
77018NA+    NA+40577  10.273  10.704  12.060
77019NA+    NA+40578  31.139  10.678   0.411
77020NA+    NA+40579   3.314  16.181   3.305
77021NA+    NA+40580   9.299  26.635   4.816
77022NA+    NA+40581  22.204  30.973  11.055
77023NA+    NA+40582  31.992  32.497  11.025
77024NA+    NA+40583   8.191  16.173   1.794
77025NA+    NA+40584   5.419   9.659   1.342
77026NA+    NA+40585  20.559  35.518   4.239
77027NA+    NA+40586  43.302  13.769  11.020
77028NA+    NA+40587  41.805  39.926   3.312
77029NA+    NA+40588  20.043   3.287   3.147
77030NA+    NA+40589  37.422  37.537  13.861
77031NA+    NA+40590   9.725  15.652  11.952
77032NA+    NA+40591  43.888  11.192   3.836
77033NA+    NA+40592  44.788  26.671   0.829
77034NA+    NA+40593  21.540  19.236   2.337
77035NA+    NA+40594  44.441  36.514  14.018
77036NA+    NA+40595  44.974  37.953  12.464
77037NA+    NA+40596  41.318  30.977  14.862
77038NA+    NA+40597  18.099  38.450   2.761
77039NA+    NA+40598  42.830   7.831  12.372
77040NA+    NA+40599   7.220  40.402   3.635
77041NA+    NA+40600  41.905   4.450   2.192
77042NA+    NA+40601  22.155  35.519   0.383
77043NA+    NA+40602  44.997  14.240  14.501
77044NA+    NA+40603  20.604  26.628   3.666
77045NA+    NA+40604  24.635  26.463  13.388
77046NA+    NA+40605   7.864  22.006   2.708
77047NA+    NA+40606  18.158   2.868   1.871
77048NA+    NA+40607  36.518   3.777  14.280
77049NA+    NA+40608  15.221  10.384   5.223
77050NA+    NA+40609   4.238   9.214   2.887
77051NA+    NA+40610   6.748  34.428   3.675
77052NA+    NA+40611  19.675  14.252  13.060
77053NA+    NA+40612  27.056  14.277  10.971
77054NA+    NA+40613  40.850  39.991  11.924
77055NA+    NA+40614  16.184  25.965  12.014
77056NA+    NA+40615  36.455  13.651   1.736
77057NA+    NA+40616   0.338   6.694  10.904
77058NA+    NA+40617   9.743  22.561  13.381
77059NA+    NA+40618   7.841  44.959  11.994
77060NA+    NA+40619  18.695  16.763  11.919
77061NA+    NA+40620  30.629   4.870  12.044
77062NA+    NA+40621  33.018   7.732   3.709
77063NA+    NA+40622  20.272   5.310   0.265
77064NA+    NA+40623  25.599  36.024   0.460
77065NA+    NA+40624  14.164  20.630   2.211
77066NA+    NA+40625  43.299  16.631  14.942
77067NA+    NA+40626   2.353  43.354   3.366
77068NA+    NA+40627  26.526  36.934  10.604
77069NA+    NA+40628  44.407  42.926   5.102
77070NA+    NA+40629  21.757  34.581   0.768
77071NA+    NA+40630   5.199  29.978  12.370
77072NA+    NA+40631  38.836  22.221   2.828
77073NA+    NA+40632  31.036  18.245   0.893
77074NA+    NA+40633  12.766  21.623   0.455
77075NA+    NA+40634  32.563  22.555   3.782
77076NA+    NA+40635  44.991  18.651  14.400
77077NA+    NA+40636  22.647  10.362   1.865
77078NA+    NA+40637  17.292  27.551   3.708
77079NA+    NA+40638   7.247  11.283   3.690
77080NA+    NA+40639  35.964  42.327  10.519
77081NA+    NA+40640   5.700  32.960  11.066
77082NA+    NA+40641   8.785  44.777   3.732
77083NA+    NA+40642  17.786  30.010   1.401
77084NA+    NA+40643  43.357  44.947   1.318
77085NA+    NA+40644  28.499   2.847  13.862
77086NA+    NA+40645   8.659  26.975   2.204
77087NA+    NA+40646  10.700   6.806   3.310
77088NA+    NA+40647  22.741  28.099  13.913
77089NA+    NA+40648   7.220  32.054   2.269
77090NA+    NA+40649   4.815  23.526   4.214
77091NA+    NA+40650  16.193  30.470  10.613
77092NA+    NA+40651  28.001   5.264  10.997
77093NA+    NA+40652   0.801  44.946   2.330
77094NA+    NA+40653  20.667  20.144  11.105
77095NA+    NA+40654  30.075  26.618  14.883
77096NA+    NA+40655  37.867  32.057   3.378
77097NA+    NA+40656  35.503  20.639   4.663
77098NA+    NA+40657   0.861  33.515   3.784
77099NA+    NA+40658  31.510  35.448  13.882
77100NA+    NA+40659   4.268   1.900   1.229
77101NA+    NA+40660  16.260   3.760  13.819
77102NA+    NA+40661  21.589  27.166   5.185
77103NA+    NA+40662   2.455  32.017  11.113
77104NA+    NA+40663   8.721  41.518   2.857
77105NA+    NA+40664  39.933  34.566   3.203
77106NA+    NA+40665  28.472  30.482   0.962
77107NA+    NA+40666  41.403   0.931  10.467
77108NA+    NA+40667  35.962   2.778   2.405
77109NA+    NA+40668   3.733  20.152   3.693
77110NA+    NA+40669   5.694  29.608   4.677
77111NA+    NA+40670  42.990  24.713  11.899
77112NA+    NA+40671  25.145  43.467   0.801
77113NA+    NA+40672  38.907  15.731   5.202
77114NA+    NA+40673  27.165  13.809   0.782
77115NA+    NA+40674  24.173   6.213  12.841
77116NA+    NA+40675   2.806  12.237  10.475
77117NA+    NA+40676  28.474  22.596   4.166
77118NA+    NA+40677   0.973  18.095  12.068
77119NA+    NA+40678  44.425   1.437   3.273
77120NA+    NA+40679  38.386  41.836   4.616
77121NA+    NA+40680  29.453  19.727   0.371
77122NA+    NA+40681  25.140  27.573  14.790
77123NA+    NA+40682  39.833   6.218   3.168
77124NA+    NA+40683  29.556  34.491  14.426
77125NA+    NA+40684  43.327  20.737   4.625
77126NA+    NA+40685  36.968  10.690  10.149
77127NA+    NA+40686   8.348  11.160   2.224
77128NA+    NA+40687  44.996  38.510   4.784
77129NA+    NA+40688  10.740  32.450  12.078
77130NA+    NA+40689  37.444  30.002   0.248
77131NA+    NA+40690  32.010  23.641   0.257
77132NA+    NA+40691  19.674  18.660   3.171
77133NA+    NA+40692   1.470   4.424  14.924
77134NA+    NA+40693  32.073   5.722  13.911
77135NA+    NA+40694  24.597   0.888   2.799
77136NA+    NA+40695  22.108   3.388  12.943
77137NA+    NA+40696  27.453  34.596  12.571
77138NA+    NA+40697  23.997  17.209  10.433
77139NA+    NA+40698  27.646  23.222  11.950
77140NA+    NA+40699  19.745  21.739   1.757
77141NA+    NA+40700  37.490  25.541   3.757
77142NA+    NA+40701  26.087   5.746   4.748
77143NA+    NA+40702  44.389   7.899  12.969
77144NA+    NA+40703   9.181  12.301   2.877
77145NA+    NA+40704   9.767  19.694  13.969
77146NA+    NA+40705  44.879  17.603  10.936
77147NA+    NA+40706  11.132  13.201   4.231
77148NA+    NA+40707   7.873  28.583  11.879
77149NA+    NA+40708  42.798   0.391  10.513
77150NA+    NA+40709   7.742  19.750  10.507
77151NA+    NA+40710  28.941  23.224  11.389
77152NA+    NA+40711  22.727   3.288  13.009
77153NA+    NA+40712  30.493  12.188  13.035
77154NA+    NA+40713   7.360   5.926  12.455
77155NA+    NA+40714   5.361   6.768   3.689
77156NA+    NA+40715  18.247  14.096   2.283
77157NA+    NA+40716  30.614  12.848   4.205
77158NA+    NA+40717  27.531  37.987  11.463
77159NA+    NA+40718  32.111  19.231   0.809
77160NA+    NA+40719  24.212  15.132  12.485
77161NA+    NA+40720   6.261  15.196  11.863
77162NA+    NA+40721  28.181  44.912   3.163
77163NA+    NA+40722  31.405  30.658  12.828
77164NA+    NA+40723  35.421  34.017  12.881
77165NA+    NA+40724  38.431  12.300   3.752
77166NA+    NA+40725  15.636   5.706  13.898
77167NA+    NA+40726  31.410  27.471  13.478
77168NA+    NA+40727  42.502   2.326   2.682
77169NA+    NA+40728  21.750  16.579   4.611
77170NA+    NA+40729   2.889   8.715   3.656
77171NA+    NA+40730   3.845  42.349   1.868
77172NA+    NA+40731   2.346   1.419  14.987
77173NA+    NA+40732  32.518  31.623  12.837
77174NA+    NA+40733  19.729  40.324   3.635
77175NA+    NA+40734   5.753  34.054   3.820
77176NA+    NA+40735  38.058  26.091  11.099
77177NA+    NA+40736  41.839  26.989  11.412
77178NA+    NA+40737  12.356  37.905  13.364
77179NA+    NA+40738  19.633  32.930  14.971
77180NA+    NA+40739  16.099  31.638   2.357
77181NA+    NA+40740  22.236  42.993   5.101
77182NA+    NA+40741  16.244  26.959   2.808
77183NA+    NA+40742  41.406  36.364   4.725
77184NA+    NA+40743  27.071   9.795   2.188
77185NA+    NA+40744  39.441  42.426   4.138
77186NA+    NA+40745   1.765  34.465  10.587
77187NA+    NA+40746   6.328  26.513  12.529
77188NA+    NA+40747  23.700  18.757  10.639
77189NA+    NA+40748  33.524  43.378  10.495
77190NA+    NA+40749  43.287   2.769   3.828
77191NA+    NA+40750  37.855  35.484   5.153
77192NA+    NA+40751   2.414  43.410   1.725
77193NA+    NA+40752  44.772  10.642  14.504
77194NA+    NA+40753   0.383   7.333   2.413
77195NA+    NA+40754  44.501  33.002   3.822
77196NA+    NA+40755  23.533  16.187  13.386
77197NA+    NA+40756  12.340  13.180   4.701
77198NA+    NA+40757  39.321  39.913   1.250
77199NA+    NA+40758  31.547  13.655  14.433
77200NA+    NA+40759  33.942  24.593  14.453
77201NA+    NA+40760  37.036  34.587   3.859
77202NA+    NA+40761  34.979  37.980  12.426
77203NA+    NA+40762   6.850   0.901   2.832
77204NA+    NA+40763   3.452  22.720  12.415
77205NA+    NA+40764  37.960  17.734  12.875
77206NA+    NA+40765  33.964   3.296  10.593
77207NA+    NA+40766   3.305  29.097  10.918
77208NA+    NA+40767  15.145  25.172   4.699
77209NA+    NA+40768  17.689   5.423   2.866
77210NA+    NA+40769  41.817  34.586  13.430
77211NA+    NA+40770  13.767  38.414   2.868
77212NA+    NA+40771  24.648   7.275   1.694
77213NA+    NA+40772   9.812   2.828   3.234
77214NA+    NA+40773  13.813  44.413  12.390
77215NA+    NA+40774  39.353  20.747  14.962
77216NA+    NA+40775  21.702  38.372  13.314
77217NA+    NA+40776   5.879  15.732   3.150
77218NA+    NA+40777  22.736   3.849   3.333
77219NA+    NA+40778  40.947  29.528   3.384
77220NA+    NA+40779  13.611  40.473   2.752
77221NA+    NA+40780  12.143   5.305   1.715
77222NA+    NA+40781  37.949  39.476   3.158
77223NA+    NA+40782  35.095  18.286   0.768
77224NA+    NA+40783  43.465  24.114  13.363
77225NA+    NA+40784  24.622  24.582  11.112
77226NA+    NA+40785   2.943   2.322  11.040
77227NA+    NA+40786  15.124   6.346   2.753
77228NA+    NA+40787  44.376  36.913  11.425
77229NA+    NA+40788   4.398   5.404  10.442
77230NA+    NA+40789  18.085   4.211  10.414
77231NA+    NA+40790   1.790  27.040   1.923
77232NA+    NA+40791  17.628   2.745   2.346
77233NA+    NA+40792  28.585  33.894  10.567
77234NA+    NA+40793  31.442  31.608  11.560
77235NA+    NA+40794   2.870  35.105  14.512
77236NA+    NA+40795  34.027  17.580  11.046
77237NA+    NA+40796  43.819  21.708   0.266
77238NA+    NA+40797  14.106   0.335   0.910
77239NA+    NA+40798  16.137   7.180   9.979
77240NA+    NA+40799  25.164  35.853   3.323
77241NA+    NA+40800  24.155   1.465   0.386
77242NA+    NA+40801  40.985   3.936  13.044
77243NA+    NA+40802  26.615  37.518  14.286
77244NA+    NA+40803   4.433  42.830  10.563
77245NA+    NA+40804   1.451   6.282  13.854
77246NA+    NA+40805  19.591  34.947  12.577
77247NA+    NA+40806  36.556  18.770   0.960
77248NA+    NA+40807  21.042   3.877   0.322
77249NA+    NA+40808  14.826  30.622   4.615
77250NA+    NA+40809  14.792  28.601   2.249
77251NA+    NA+40810  14.738  40.348  13.352
77252NA+    NA+40811  23.183   0.304  11.872
77253NA+    NA+40812   0.267  14.736  10.471
77254NA+    NA+40813   7.402  20.168  11.521
77255NA+    NA+40814  28.150  33.571  12.868
77256NA+    NA+40815   7.247  35.988  12.838
77257NA+    NA+40816  34.595  37.915  14.849
77258NA+    NA+40817  16.159   7.798   2.398
77259NA+    NA+40818  13.604  29.469   2.222
77260NA+    NA+40819   1.431  36.365  12.958
77261NA+    NA+40820   9.785   9.391  10.552
77262NA+    NA+40821  24.110  22.235   2.807
77263NA+    NA+40822  34.390  27.671  11.458
77264NA+    NA+40823  22.017   7.769   1.242
77265NA+    NA+40824  34.447   7.182   5.269
77266NA+    NA+40825  13.794  41.837  12.424
77267NA+    NA+40826  16.134  28.571  14.327
77268NA+    NA+40827  37.414  38.334  10.560
77269NA+    NA+40828  42.477  16.222   0.264
77270NA+    NA+40829  21.073  16.093  13.498
77271NA+    NA+40830   9.246  13.299  11.061
77272NA+    NA+40831   5.203  15.147  11.108
77273NA+    NA+40832  10.338  43.469   3.741
77274NA+    NA+40833   3.896  23.543  10.073
77275NA+    NA+40834  10.682  12.348  13.004
77276NA+    NA+40835   6.248  39.844   2.799
77277NA+    NA+40836  34.411  24.479   0.897
77278NA+    NA+40837   8.298  42.995   1.228
77279NA+    NA+40838   3.928   7.798   2.419
77280NA+    NA+40839  18.777   4.912  10.898
77281NA+    NA+40840  27.161  17.720   4.221
77282NA+    NA+40841  44.472  38.554   3.688
77283NA+    NA+40842  32.472  31.547  13.509
77284NA+    NA+40843   9.242  24.492  13.015
77285NA+    NA+40844  44.755  16.582  14.369
77286NA+    NA+40845   5.881   6.287  10.915
77287NA+    NA+40846  13.661  22.109   0.321
77288NA+    NA+40847   2.428   5.879   4.254
77289NA+    NA+40848  41.519  32.120  14.971
77290NA+    NA+40849  27.463  14.118  12.950
77291NA+    NA+40850  27.108  29.000  12.957
77292NA+    NA+40851  38.413  20.524   1.400
77293NA+    NA+40852  22.633  43.964  11.577
77294NA+    NA+40853   3.925  36.034   5.200
77295NA+    NA+40854  12.749  36.909  12.425
77296NA+    NA+40855  33.531  14.697  13.996
77297NA+    NA+40856   6.771  18.730  13.863
77298NA+    NA+40857   1.456  20.075   0.380
77299NA+    NA+40858   5.345  23.198  10.979
77300NA+    NA+40859   2.955  12.670   1.236
77301NA+    NA+40860  36.410  36.394  14.834
77302NA+    NA+40861  39.039   2.773   2.228
77303NA+    NA+40862  34.998  16.134   1.900
77304NA+    NA+40863  29.997   6.707   3.681
77305NA+    NA+40864  13.776  25.161   1.920
77306NA+    NA+40865   5.785  30.545  14.803
77307NA+    NA+40866  11.174  32.442   3.165
77308NA+    NA+40867  37.537  19.544  12.052
77309NA+    NA+40868  43.802  27.017   4.228
77310NA+    NA+40869  35.368  31.449  11.909
77311NA+    NA+40870  13.258   0.789   0.842
77312NA+    NA+40871   4.722  12.758   1.767
77313NA+    NA+40872  28.594  19.274  10.619
77314NA+    NA+40873   8.262  21.747   2.901
77315NA+    NA+40874  35.956  14.721  12.865
77316NA+    NA+40875  16.285   7.844  13.009
77317NA+    NA+40876  39.038  34.930  11.601
77318NA+    NA+40877   7.790  39.944  11.528
77319NA+    NA+40878  25.581  36.016   0.839
77320NA+    NA+40879   0.486   2.768   4.196
77321NA+    NA+40880  31.437  17.798  10.531
77322NA+    NA+40881  44.415   4.440   0.278
77323NA+    NA+40882  37.058  32.904  14.279
77324NA+    NA+40883  20.571  14.722   0.472
77325NA+    NA+40884  14.258  32.437   3.362
77326NA+    NA+40885   6.687  33.460   2.692
77327NA+    NA+40886   2.236   6.775  13.359
77328NA+    NA+40887   3.763  35.963  13.353
77329NA+    NA+40888  42.984  44.364   2.322
77330NA+    NA+40889  43.879  40.507  13.310
77331NA+    NA+40890   2.303  17.242  11.556
77332NA+    NA+40891  29.466  31.960   3.791
77333NA+    NA+40892  43.822  28.062   1.252
77334NA+    NA+40893  30.578  44.267   2.730
77335NA+    NA+40894   6.371   4.761   3.850
77336NA+    NA+40895  23.598  37.531  14.338
77337NA+    NA+40896  39.339   6.347  13.804
77338NA+    NA+40897  26.996   4.270  14.964
77339NA+    NA+40898  39.542  42.948   4.193
77340NA+    NA+40899  38.510  24.047  12.545
77341NA+    NA+40900  42.847  21.589   4.696
77342NA+    NA+40901  19.650  34.996   3.353
77343NA+    NA+40902  16.267  32.918  10.592
77344NA+    NA+40903  14.214   1.919  10.547
77345NA+    NA+40904  23.609  36.445  12.998
77346NA+    NA+40905  10.833  29.425   4.834
77347NA+    NA+40906  36.098  18.662   2.417
77348NA+    NA+40907   0.346  25.018   4.146
77349NA+    NA+40908  28.932  38.910   1.349
77350NA+    NA+40909  34.508  13.269  13.499
77351NA+    NA+40910  35.405  12.736   1.229
77352NA+    NA+40911  31.112   9.674  13.029
77353NA+    NA+40912  39.008  44.438   4.157
77354NA+    NA+40913  33.049   5.438   1.305
77355NA+    NA+40914  36.488  27.621   0.282
77356NA+    NA+40915  38.568  43.882  13.371
77357NA+    NA+40916  41.982   9.193   4.838
77358NA+    NA+40917   9.394   8.695  10.456
77359NA+    NA+40918  29.574  20.585  12.008
77360NA+    NA+40919  17.754  27.691   3.767
77361NA+    NA+40920  13.734   0.390  12.027
77362NA+    NA+40921  31.030  36.905   2.665
77363NA+    NA+40922  32.431  19.058   2.810
77364NA+    NA+40923  28.614  19.698  10.642
77365NA+    NA+40924  18.213   2.912  11.069
77366NA+    NA+40925  13.624   4.383   4.726
77367NA+    NA+40926   4.828   5.804  11.379
77368NA+    NA+40927   3.766  12.291   3.678
77369NA+    NA+40928  34.575   0.771   4.203
77370NA+    NA+40929  11.659  36.476   3.371
77371NA+    NA+40930  41.890  32.472   2.323
77372NA+    NA+40931  27.545   3.753  10.902
77373NA+    NA+40932  11.371  32.986  11.081
77374NA+    NA+40933  12.273  41.445  13.849
77375NA+    NA+40934  24.033  25.141   2.684
77376NA+    NA+40935  27.681  22.674   1.365
77377NA+    NA+40936  44.871  26.176   0.420
77378NA+    NA+40937   8.300   0.249   1.218
77379NA+    NA+40938  24.630  28.495   0.351
77380NA+    NA+40939  18.253  22.110   4.317
77381NA+    NA+40940  26.634  16.568   2.791
77382NA+    NA+40941  40.885  40.923   0.757
77383NA+    NA+40942  28.157  37.836   0.820
77384NA+    NA+40943   4.874  31.407   2.249
77385NA+    NA+40944  10.224   8.874   3.162
77386NA+    NA+40945  35.027  24.547   0.908
77387NA+    NA+40946   6.198  26.602   1.217
77388NA+    NA+40947  34.871  10.197   0.923
77389NA+    NA+40948  18.241  21.096  10.130
77390NA+    NA+40949  22.606  44.001  11.895
77391NA+    NA+40950  27.668  32.012  11.947
77392NA+    NA+40951   5.429  32.092   3.248
77393NA+    NA+40952   7.368   7.850   0.466
77394NA+    NA+40953  34.957  44.876  14.474
77395NA+    NA+40954   4.832  39.884   3.161
77396NA+    NA+40955  12.773  13.260   4.289
77397NA+    NA+40956   6.237   0.956   3.765
77398NA+    NA+40957   6.241  11.157  13.464
77399NA+    NA+40958  32.133  18.261  13.006
77400NA+    NA+40959   3.859  28.502   4.812
77401NA+    NA+40960  21.236  39.432  12.427
77402NA+    NA+40961  19.762  25.981  13.415
77403NA+    NA+40962   4.391  33.512   4.802
77404NA+    NA+40963  16.790   5.773  10.999
77405NA+    NA+40964   1.419  32.935   2.391
77406NA+    NA+40965   9.793  15.125  12.497
77407NA+    NA+40966  18.678  42.789  10.063
77408NA+    NA+40967  23.536  14.227   2.224
77409NA+    NA+40968  21.690  26.074   0.339
77410NA+    NA+40969   4.704  27.539  12.825
77411NA+    NA+40970  13.697  18.709   0.843
77412NA+    NA+40971  18.744  21.591  13.353
77413NA+    NA+40972  23.650  11.267   1.390
77414NA+    NA+40973  19.230  38.462  14.784
77415NA+    NA+40974  14.193  11.150  10.049
77416NA+    NA+40975   8.824  11.865  12.000
77417NA+    NA+40976  22.146  42.777  11.600
77418NA+    NA+40977  36.469  31.135  13.450
77419NA+    NA+40978  42.947  29.547  11.898
77420NA+    NA+40979   2.894  33.955   0.940
77421NA+    NA+40980  33.034  33.380  12.049
77422NA+    NA+40981  40.905  34.017   1.441
77423NA+    NA+40982  35.588  24.016  14.362
77424NA+    NA+40983  30.574   7.354   3.688
77425NA+    NA+40984  37.932   4.768   3.149
77426NA+    NA+40985  34.401   4.325  13.845
77427NA+    NA+40986   2.879  23.002   0.785
77428NA+    NA+40987  19.277  31.127  13.989
77429NA+    NA+40988  20.125  24.544   0.469
77430NA+    NA+40989  41.412   0.769   0.852
77431NA+    NA+40990  34.006  17.691   4.738
77432NA+    NA+40991   6.682  38.554  12.935
77433NA+    NA+40992  25.089  12.223   0.906
77434NA+    NA+40993  24.510   2.398  12.455
77435NA+    NA+40994  31.939  24.058  14.295
77436NA+    NA+40995   8.271   1.481   0.845
77437NA+    NA+40996  30.471  37.905   4.243
77438NA+    NA+40997  36.458  33.973   1.753
77439NA+    NA+40998  17.640   1.312   0.960
77440NA+    NA+40999  38.984  10.195   4.250
77441NA+    NA+41000  32.403  25.196  13.464
77442NA+    NA+41001  38.918   3.775  11.012
77443NA+    NA+41002  26.470  43.292   2.197
77444NA+    NA+41003  37.472  14.266   0.274
77445NA+    NA+41004  27.534  42.965  14.462
77446NA+    NA+41005  40.049  42.887   0.377
77447NA+    NA+41006  26.694   9.151   4.303
77448NA+    NA+41007  13.785  17.191  14.887
77449NA+    NA+41008  26.561  42.843   1.281
77450NA+    NA+41009  39.369  40.894  14.847
77451NA+    NA+41010  36.453  42.433  14.774
77452NA+    NA+41011  27.111  19.160  11.112
77453NA+    NA+41012  41.503  38.424   3.253
77454NA+    NA+41013  41.361  44.822   0.966
77455NA+    NA+41014   1.948   9.680  12.444
77456NA+    NA+41015  34.584  20.694   0.791
77457NA+    NA+41016  17.732  40.832   3.199
77458NA+    NA+41017  31.002  20.157   4.347
77459NA+    NA+41018   5.920   2.833   1.398
77460NA+    NA+41019  43.969   5.791  12.542
77461NA+    NA+41020  33.489  29.556   3.341
77462NA+    NA+41021  41.459  16.176  10.408
77463NA+    NA+41022  39.961   3.795  10.487
77464NA+    NA+41023  20.632  20.658  14.374
77465NA+    NA+41024   9.763  18.149   2.812
77466NA+    NA+41025   5.839  15.216  13.826
77467NA+    NA+41026  14.790  22.649   3.284
77468NA+    NA+41027  28.463  25.574  11.993
77469NA+    NA+41028  32.498  43.929  12.459
77470NA+    NA+41029  29.135  32.510   1.263
77471NA+    NA+41030  36.589  37.835  13.908
77472NA+    NA+41031  40.539  31.619   2.717
77473NA+    NA+41032  44.273  31.926   0.903
77474NA+    NA+41033  14.812   9.282   1.220
77475NA+    NA+41034  20.733  43.916  10.633
77476NA+    NA+41035  39.511  15.170   3.634
77477NA+    NA+41036  22.066  14.694  12.885
77478NA+    NA+41037  13.264  24.562   3.855
77479NA+    NA+41038  34.992  14.332   0.447
77480NA+    NA+41039   9.181  28.504   3.212
77481NA+    NA+41040  17.132  42.343   3.354
77482NA+    NA+41041  24.711  36.847   4.770
77483NA+    NA+41042  15.814  19.693  13.378
77484NA+    NA+41043  32.516   1.963  14.821
77485NA+    NA+41044  30.088  24.704  13.353
77486NA+    NA+41045  25.625  38.527  10.578
77487NA+    NA+41046   9.350  14.588   3.185
77488NA+    NA+41047  36.972  24.063   4.685
77489NA+    NA+41048  32.469  14.168  10.140
77490NA+    NA+41049  44.324  42.439   3.216
77491NA+    NA+41050  22.550   4.861   5.100
77492NA+    NA+41051  24.083  23.079   0.376
77493NA+    NA+41052  38.884   5.723  12.823
77494NA+    NA+41053  43.444   3.742   2.672
77495NA+    NA+41054  40.888  25.979   0.379
77496NA+    NA+41055  19.066  26.606   2.245
77497NA+    NA+41056  37.460  33.620  12.824
77498NA+    NA+41057  24.002  44.961  12.885
77499NA+    NA+41058   8.288  29.476   1.230
77500NA+    NA+41059  28.012  29.005  13.335
77501NA+    NA+41060  27.662  14.654   2.387
77502NA+    NA+41061  25.575  38.568  14.491
77503NA+    NA+41062  38.421  16.592   1.422
77504NA+    NA+41063  23.605  41.919   3.845
77505NA+    NA+41064   6.799  32.433  12.512
77506NA+    NA+41065  28.018  42.826   5.228
77507NA+    NA+41066  21.167  29.145  11.601
77508NA+    NA+41067   4.265  27.009  10.891
77509NA+    NA+41068  33.016  28.514  13.379
77510NA+    NA+41069   9.178  19.150  12.989
77511NA+    NA+41070  27.127  19.176  14.976
77512NA+    NA+41071  23.511   3.754   1.251
77513NA+    NA+41072   4.736  37.911  14.969
77514NA+    NA+41073   6.853  41.498   2.235
77515NA+    NA+41074  42.783  15.754  11.005
77516NA+    NA+41075  18.230   7.689   4.139
77517NA+    NA+41076  10.660  36.511   5.104
77518NA+    NA+41077  18.204  18.192  11.603
77519NA+    NA+41078  29.466  44.394  14.792
77520NA+    NA+41079   1.273  13.211   2.202
77521NA+    NA+41080  15.269  32.062   2.380
77522NA+    NA+41081  11.683  13.712   0.410
77523NA+    NA+41082   4.392  39.876   4.714
77524NA+    NA+41083  30.961  17.126   3.164
77525NA+    NA+41084  36.561  20.609   1.849
77526NA+    NA+41085  15.689  24.091   5.572
77527NA+    NA+41086  43.961   8.716   4.133
77528NA+    NA+41087  29.932  18.069  13.873
77529NA+    NA+41088   1.345  20.047  14.446
77530NA+    NA+41089  33.573  28.101  10.605
77531NA+    NA+41090   9.801  35.073   1.415
77532NA+    NA+41091  18.603   9.740   4.654
77533NA+    NA+41092   3.437  40.808  14.374
77534NA+    NA+41093  14.639  41.522  13.903
77535NA+    NA+41094  42.971  15.607   1.741
77536NA+    NA+41095  29.451  26.697   9.932
77537NA+    NA+41096  12.662   2.740   3.375
77538NA+    NA+41097  25.988  30.943  14.369
77539NA+    NA+41098  15.612  20.184   3.366
77540NA+    NA+41099  19.043  16.702  13.000
77541NA+    NA+41100   9.751  28.439   0.449
77542NA+    NA+41101  24.054  42.289  11.607
77543NA+    NA+41102  36.950  22.120   1.348
77544NA+    NA+41103  29.075  36.847   1.815
77545NA+    NA+41104  37.489  31.555  11.933
77546NA+    NA+41105  25.073   5.201   2.887
77547NA+    NA+41106  39.946   0.907  10.509
77548NA+    NA+41107  37.438  30.442   0.880
77549NA+    NA+41108  18.171  35.027  13.933
77550NA+    NA+41109  31.986   3.938  10.936
77551NA+    NA+41110  14.314  43.903   3.327
77552NA+    NA+41111   1.793  14.667   0.373
77553NA+    NA+41112  32.067  43.879   1.824
77554NA+    NA+41113  28.480   2.433   3.723
77555NA+    NA+41114  11.213  12.634   1.276
77556NA+    NA+41115  25.068  18.714  12.580
77557NA+    NA+41116  22.133  40.047  13.056
77558NA+    NA+41117  41.963  11.720   5.239
77559NA+    NA+41118  23.605   1.258   0.861
77560NA+    NA+41119   4.267  22.053  10.537
77561NA+    NA+41120  21.744   5.855   1.809
77562NA+    NA+41121  36.371  16.172   0.853
77563NA+    NA+41122  38.409  35.520  14.817
77564NA+    NA+41123  24.210  25.105  12.501
77565NA+    NA+41124  36.370   4.398  12.013
77566NA+    NA+41125  29.112  27.083  12.420
77567NA+    NA+41126   4.734  30.032  13.538
77568NA+    NA+41127  38.832  29.174   1.256
77569NA+    NA+41128  19.714   5.919   0.407
77570NA+    NA+41129  27.460  19.599   0.871
77571NA+    NA+41130  27.507  19.274   0.479
77572NA+    NA+41131  19.207   6.746  11.603
77573NA+    NA+41132  41.868  34.080  14.495
77574NA+    NA+41133  12.147  15.714   3.364
77575NA+    NA+41134  30.596  38.964   4.192
77576NA+    NA+41135  35.021  44.279  10.047
77577NA+    NA+41136  18.265  43.476  11.033
77578NA+    NA+41137  13.831  10.192  13.792
77579NA+    NA+41138  14.716  24.131  12.871
77580NA+    NA+41139  37.940  42.880  14.470
77581NA+    NA+41140  26.522  35.467  11.910
77582NA+    NA+41141   7.177   7.367  13.384
77583NA+    NA+41142   0.889  11.785   0.846
77584NA+    NA+41143   4.313  14.692   4.113
77585NA+    NA+41144  24.148  44.834  10.959
77586NA+    NA+41145  37.976  25.576   1.800
77587NA+    NA+41146  11.855  15.232  13.389
77588NA+    NA+41147  33.031  32.430  10.968
77589NA+    NA+41148  36.588  17.122   4.836
77590NA+    NA+41149  17.602  11.226   4.130
77591NA+    NA+41150  23.074   9.369  12.088
77592NA+    NA+41151   3.312   2.431   0.739
77593NA+    NA+41152  28.647  35.372  13.341
77594NA+    NA+41153  24.656  31.404  11.106
77595NA+    NA+41154   6.771  21.219  12.984
77596NA+    NA+41155  11.261  16.264  13.456
77597NA+    NA+41156  43.410  36.400   4.747
77598NA+    NA+41157  37.955   0.407   2.881
77599NA+    NA+41158  28.004   4.354  11.575
77600NA+    NA+41159  15.727  35.098   0.770
77601NA+    NA+41160  20.057   9.799   0.765
77602NA+    NA+41161  19.098  19.203  12.407
77603NA+    NA+41162  22.631  14.199  13.847
77604NA+    NA+41163  34.057  18.109   3.307
77605NA+    NA+41164   6.899  29.175   0.459
77606NA+    NA+41165  41.942  35.468  13.832
77607NA+    NA+41166  30.583  23.733   4.736
77608NA+    NA+41167  22.044  13.788  13.439
77609NA+    NA+41168   9.291  26.538   5.265
77610NA+    NA+41169  37.392   5.742   4.676
77611NA+    NA+41170  18.661   8.788   2.730
77612NA+    NA+41171  17.083  37.409   1.332
77613NA+    NA+41172  14.254  23.201   2.775
77614NA+    NA+41173   9.213   6.366   3.847
77615NA+    NA+41174   6.715  23.149  12.984
77616NA+    NA+41175  36.961  41.485  12.461
77617NA+    NA+41176  16.683  34.070   3.146
77618NA+    NA+41177  36.911   4.854  13.849
77619NA+    NA+41178   9.827  16.189  10.600
77620NA+    NA+41179  13.599  43.831  13.863
77621NA+    NA+41180  23.659  16.095  13.964
77622NA+    NA+41181  44.419  24.520   3.651
77623NA+    NA+41182  44.306  10.800  12.092
77624NA+    NA+41183  31.976  35.438  13.004
77625NA+    NA+41184   9.805  35.109   2.211
77626NA+    NA+41185  37.383  27.979  12.875
77627NA+    NA+41186  17.266   1.317   4.321
77628NA+    NA+41187  11.676  44.269  14.418
77629NA+    NA+41188  23.616  27.045   0.349
77630NA+    NA+41189  13.113  21.702   1.332
77631NA+    NA+41190  43.484  44.801  11.535
77632NA+    NA+41191   4.907   7.217  14.840
77633NA+    NA+41192  17.174   3.853   0.388
77634NA+    NA+41193  13.200  19.078   4.164
77635NA+    NA+41194  32.617  34.064   0.738
77636NA+    NA+41195   0.858  43.280   0.300
77637NA+    NA+41196  30.625  37.961  13.921
77638NA+    NA+41197  31.535  12.685   0.430
77639NA+    NA+41198  44.976  36.909   4.663
77640NA+    NA+41199  23.065  20.176  12.406
77641NA+    NA+41200   8.350   3.944   0.835
77642NA+    NA+41201  14.720  41.868   1.767
77643NA+    NA+41202  40.500  27.576  14.467
77644NA+    NA+41203   9.851  15.753   3.368
77645NA+    NA+41204  10.859  25.208   2.218
77646NA+    NA+41205  28.975  18.263  13.026
77647NA+    NA+41206  43.872  20.709  13.946
77648NA+    NA+41207  37.038  30.497  13.876
77649NA+    NA+41208  32.906  34.560  14.311
77650NA+    NA+41209  35.482  36.962  10.967
77651NA+    NA+41210   4.414  18.116  12.002
77652NA+    NA+41211   1.348  27.613  14.014
77653NA+    NA+41212  38.996   3.772   3.380
77654NA+    NA+41213   8.802   9.699  13.480
77655NA+    NA+41214  12.333  25.495  13.473
77656NA+    NA+41215   3.348  42.520   3.385
77657NA+    NA+41216  28.123   2.734   3.281
77658NA+    NA+41217  22.135  12.626   9.440
77659NA+    NA+41218   2.804  11.332  14.761
77660NA+    NA+41219  25.543  30.021   0.820
77661NA+    NA+41220   9.227  26.487   1.241
77662NA+    NA+41221  33.943  11.757   1.407
77663NA+    NA+41222  23.583  10.840  11.002
77664NA+    NA+41223  35.418  35.444  11.481
77665NA+    NA+41224   6.806  40.958  14.834
77666NA+    NA+41225  20.095  24.984  11.561
77667NA+    NA+41226   3.910  41.520  13.931
77668NA+    NA+41227  23.077  12.290  14.861
77669NA+    NA+41228  26.702  41.901  14.982
77670NA+    NA+41229  44.353  25.190   4.741
77671NA+    NA+41230  39.838   9.214   1.794
77672NA+    NA+41231  34.079  40.361   3.681
77673NA+    NA+41232  41.538  33.070   4.118
77674NA+    NA+41233  39.396  11.308   1.816
77675NA+    NA+41234  29.514   5.735   0.851
77676NA+    NA+41235  14.660  11.676  14.461
77677NA+    NA+41236   1.318  24.998   4.198
77678NA+    NA+41237   2.298   3.316   4.622
77679NA+    NA+41238  36.469  30.000   3.651
77680NA+    NA+41239  27.542  42.841  13.011
77681NA+    NA+41240   9.305   8.818   1.321
77682NA+    NA+41241  23.211   9.696  14.899
77683NA+    NA+41242  42.950  14.187  14.418
77684NA+    NA+41243  29.620   8.296  11.400
77685NA+    NA+41244  31.539   0.442  10.594
77686NA+    NA+41245  21.224   1.978   4.811
77687NA+    NA+41246  33.960   9.310   3.170
77688NA+    NA+41247  19.549   9.186   2.294
77689NA+    NA+41248  37.005  23.226  14.868
77690NA+    NA+41249  12.646  16.780   1.358
77691NA+    NA+41250  43.909  25.704  10.597
77692NA+    NA+41251  15.107   3.330   9.999
77693NA+    NA+41252  32.434  17.662  10.918
77694NA+    NA+41253  36.451  19.122   2.339
77695NA+    NA+41254  28.953  26.178  12.969
77696NA+    NA+41255  10.330   6.745   0.447
77697NA+    NA+41256  25.608   2.242   0.462
77698NA+    NA+41257  23.706   4.832  14.299
77699NA+    NA+41258  43.795  29.155   0.892
77700NA+    NA+41259  38.905  15.206  14.949
77701NA+    NA+41260  40.991  40.537  13.061
77702NA+    NA+41261  15.237  13.351   4.649
77703NA+    NA+41262  29.044  18.205   0.458
77704NA+    NA+41263  35.070  42.829  14.016
77705NA+    NA+41264  19.270  18.571   3.694
77706NA+    NA+41265  14.208  39.056  10.955
77707NA+    NA+41266  13.109  17.152   0.753
77708NA+    NA+41267  29.122   9.762   0.857
77709NA+    NA+41268   1.304   9.886   4.709
77710NA+    NA+41269  11.356  31.428   0.315
77711NA+    NA+41270  42.508  43.915  11.857
77712NA+    NA+41271  36.509  42.386   4.193
77713NA+    NA+41272  14.148  18.737   3.801
77714NA+    NA+41273   2.820  43.333   3.275
77715NA+    NA+41274   5.725  43.312  11.384
77716NA+    NA+41275   1.456  29.172  13.495
77717NA+    NA+41276  42.879  17.300   4.607
77718NA+    NA+41277  32.946  13.606   3.796
77719NA+    NA+41278  19.133   0.855   1.722
77720NA+    NA+41279  23.716   8.387   2.715
77721NA+    NA+41280  14.754  20.173   0.389
77722NA+    NA+41281   2.757  33.573  14.463
77723NA+    NA+41282  21.171  21.703   1.256
77724NA+    NA+41283   1.738  23.542   4.285
77725NA+    NA+41284   3.906  44.964   0.763
77726NA+    NA+41285  19.269   3.800  14.797
77727NA+    NA+41286  42.478  44.467   3.816
77728NA+    NA+41287  36.565   8.200  10.161
77729NA+    NA+41288  44.478  14.228   2.807
77730NA+    NA+41289   3.768  38.963   2.357
77731NA+    NA+41290  31.025  19.540   4.784
77732NA+    NA+41291  27.102  21.130  14.773
77733NA+    NA+41292  40.034  16.590  10.964
77734NA+    NA+41293  22.700  38.028   1.708
77735NA+    NA+41294   8.832   5.419   1.754
77736NA+    NA+41295  23.162  32.490   3.829
77737NA+    NA+41296  19.231  22.154  14.801
77738NA+    NA+41297  29.014  43.844  10.554
77739NA+    NA+41298  10.217   6.855  10.964
77740NA+    NA+41299  21.605  14.182  10.610
77741NA+    NA+41300   3.279   7.407   4.783
77742NA+    NA+41301  15.733   3.380   1.227
77743NA+    NA+41302  18.270   1.274  13.534
77744NA+    NA+41303  32.105   6.255   2.400
77745NA+    NA+41304  13.331   3.838  13.798
77746NA+    NA+41305  11.685  39.853  13.959
77747NA+    NA+41306  15.808  30.067   2.204
77748NA+    NA+41307  44.407  11.261   2.343
77749NA+    NA+41308  27.031   1.266   1.854
77750NA+    NA+41309   8.348   1.897   1.329
77751NA+    NA+41310  14.256  35.108  11.480
77752NA+    NA+41311  24.210  15.713  12.512
77753NA+    NA+41312   2.753  33.937  11.426
77754NA+    NA+41313  38.972  24.578   4.120
77755NA+    NA+41314  39.544  30.036   2.879
77756NA+    NA+41315  23.629  31.433  10.105
77757NA+    NA+41316  36.577  40.859   1.293
77758NA+    NA+41317  39.844  44.305  12.580
77759NA+    NA+41318  10.261   9.795  13.532
77760NA+    NA+41319  30.934  17.142  14.004
77761NA+    NA+41320  33.399  16.663  10.928
77762NA+    NA+41321  15.719  16.712  13.934
77763NA+    NA+41322   0.876  42.434  14.472
77764NA+    NA+41323  11.839  23.630  14.988
77765NA+    NA+41324  29.558  21.513  13.463
77766NA+    NA+41325  25.686   7.176  14.952
77767NA+    NA+41326  15.202  16.161   3.184
77768NA+    NA+41327  43.510  31.425  10.899
77769NA+    NA+41328  37.375  18.641  13.058
77770NA+    NA+41329  44.890  17.741   3.282
77771NA+    NA+41330  26.098   4.827  13.354
77772NA+    NA+41331  38.064  27.952  14.459
77773NA+    NA+41332  14.724   6.709   1.335
77774NA+    NA+41333   5.732  34.413   1.425
77775NA+    NA+41334  18.747   6.281   9.976
77776NA+    NA+41335  37.420  20.557  12.540
77777NA+    NA+41336  27.572  30.043   4.322
77778NA+    NA+41337  28.635  10.357  12.571
77779NA+    NA+41338  32.105  24.007  13.797
77780NA+    NA+41339  25.559  43.310   0.354
77781NA+    NA+41340  18.552  37.390   4.664
77782NA+    NA+41341   6.247  21.175  12.048
77783NA+    NA+41342  43.909  32.092   2.778
77784NA+    NA+41343  18.730  21.666  14.328
77785NA+    NA+41344  38.451  21.087   0.243
77786NA+    NA+41345  15.234  33.910  12.842
77787NA+    NA+41346  27.110   4.837  10.500
77788NA+    NA+41347   6.298  33.387  12.560
77789NA+    NA+41348  42.478  43.823   0.457
77790NA+    NA+41349  22.649  17.144  10.012
77791NA+    NA+41350   0.973  31.466  14.314
77792NA+    NA+41351  29.099   8.286  12.414
77793NA+    NA+41352  36.995  12.689  11.890
77794NA+    NA+41353   6.693   1.976   4.780
77795NA+    NA+41354  36.005  13.106   0.436
77796NA+    NA+41355   6.188  43.440  10.616
77797NA+    NA+41356  21.139  22.128  14.789
77798NA+    NA+41357  29.514  17.091   2.404
77799NA+    NA+41358  12.117  18.709   4.651
77800NA+    NA+41359  16.597   3.825   1.886
77801NA+    NA+41360  13.228  35.425   5.141
77802NA+    NA+41361  40.897  15.219   2.730
77803NA+    NA+41362   9.375   5.409  12.568
77804NA+    NA+41363  24.686  40.419   2.207
77805NA+    NA+41364  17.712  26.027   0.307
77806NA+    NA+41365  34.463  14.333  13.523
77807NA+    NA+41366  13.203  20.067   4.347
77808NA+    NA+41367  18.757  30.135  12.497
77809NA+    NA+41368  16.638  34.407  10.418
77810NA+    NA+41369  26.661  36.056  10.596
77811NA+    NA+41370   5.297  15.695  14.775
77812NA+    NA+41371  35.092  42.489   1.793
77813NA+    NA+41372  41.019  40.391   3.257
77814NA+    NA+41373   2.871  14.239  10.529
77815NA+    NA+41374  23.103  31.522  11.007
77816NA+    NA+41375  11.166  13.111   0.849
77817NA+    NA+41376  40.399  11.809  10.537
77818NA+    NA+41377  29.003  36.412   1.274
77819NA+    NA+41378  11.195  18.166  10.512
77820NA+    NA+41379  42.804  37.901   2.393
77821NA+    NA+41380   2.778  18.052   4.290
77822NA+    NA+41381  19.048  26.666   3.765
77823NA+    NA+41382   0.823  12.730   4.342
77824NA+    NA+41383  26.122  17.222  12.401
77825NA+    NA+41384  40.415  23.668   2.350
77826NA+    NA+41385  39.379  10.861  10.905
77827NA+    NA+41386  32.567   8.725  12.825
77828NA+    NA+41387  40.543   8.883  14.353
77829NA+    NA+41388  22.251  10.843  10.967
77830NA+    NA+41389   2.271  13.253  14.427
77831NA+    NA+41390  33.438  17.272   4.230
77832NA+    NA+41391  40.868   8.819   2.281
77833NA+    NA+41392  37.498   7.216  10.497
77834NA+    NA+41393  19.596   7.870   3.172
77835NA+    NA+41394  35.464  26.568   0.748
77836NA+    NA+41395   3.823  25.671  12.991
77837NA+    NA+41396  32.005  40.824   5.312
77838NA+    NA+41397  44.898  44.827  14.992
77839NA+    NA+41398  11.746  29.441  10.498
77840NA+    NA+41399  28.546  23.717   1.426
77841NA+    NA+41400  23.005  12.133  11.857
77842NA+    NA+41401  21.536  18.697  14.992
77843NA+    NA+41402  21.590   0.938   0.760
77844NA+    NA+41403   0.433  44.824   3.725
77845NA+    NA+41404  36.944  22.518  14.822
77846NA+    NA+41405  40.452  36.038  11.450
77847NA+    NA+41406  22.575  24.005   2.410
77848NA+    NA+41407  39.422  31.496   5.297
77849NA+    NA+41408  42.847  20.045   3.296
77850NA+    NA+41409  13.113  41.481   1.694
77851NA+    NA+41410  13.227   3.460  10.933
77852NA+    NA+41411  26.462  21.082   0.465
77853NA+    NA+41412   3.756  21.120   2.371
77854NA+    NA+41413  21.084   6.905  12.928
77855NA+    NA+41414  28.484   4.367   2.870
77856NA+    NA+41415  35.517  28.103  13.986
77857NA+    NA+41416   0.262   1.334  14.026
77858NA+    NA+41417  17.200  26.522   3.787
77859NA+    NA+41418  16.224  27.677  10.483
77860NA+    NA+41419   6.813   4.316  11.045
77861NA+    NA+41420   9.294  36.964  13.841
77862NA+    NA+41421   1.888  36.892  10.493
77863NA+    NA+41422  17.162  34.575   3.867
77864NA+    NA+41423   5.767  42.415  13.871
77865NA+    NA+41424  12.847  41.329  13.896
77866NA+    NA+41425  12.849  28.078  10.505
77867NA+    NA+41426  21.575  30.528  12.353
77868NA+    NA+41427  37.008   9.816  12.578
77869NA+    NA+41428   4.265  18.565  12.393
77870NA+    NA+41429   2.277  19.676   3.363
77871NA+    NA+41430  26.205  20.259  12.870
77872NA+    NA+41431  35.886  25.118   1.400
77873NA+    NA+41432   6.282  22.634   4.630
77874NA+    NA+41433   8.826  44.327  11.524
77875NA+    NA+41434  19.553  17.196  12.927
77876NA+    NA+41435  39.912  28.506   0.736
77877NA+    NA+41436   3.710  41.318  12.042
77878NA+    NA+41437   1.417  41.425   4.297
77879NA+    NA+41438  42.821   0.340   0.249
77880NA+    NA+41439  10.698  37.463   1.914
77881NA+    NA+41440   1.401  15.630  11.554
77882NA+    NA+41441   4.280  15.275  13.374
77883NA+    NA+41442  33.119  41.388  13.927
77884NA+    NA+41443  19.054  19.638   2.890
77885NA+    NA+41444   0.888   9.193   4.662
77886NA+    NA+41445  14.751   7.236   2.369
77887NA+    NA+41446  31.120  33.994   0.838
77888NA+    NA+41447  11.251  16.172   1.259
77889NA+    NA+41448  31.131  11.166  10.988
77890NA+    NA+41449  43.997  25.014  12.534
77891NA+    NA+41450  37.543   2.765   3.181
77892NA+    NA+41451  24.677   6.310  11.978
77893NA+    NA+41452  39.326  44.408   0.395
77894NA+    NA+41453  38.935   0.381  11.534
77895NA+    NA+41454  25.635  29.576  13.480
77896NA+    NA+41455   4.931  30.049  14.945
77897NA+    NA+41456  43.003  41.942   2.801
77898NA+    NA+41457  39.538   5.883   4.339
77899NA+    NA+41458  11.783  28.142   1.303
77900NA+    NA+41459  41.960  19.724  13.042
77901NA+    NA+41460  22.095  19.073   2.216
77902NA+    NA+41461  33.064  22.743   1.225
77903NA+    NA+41462  44.482  40.907  13.863
77904NA+    NA+41463  11.215  11.221  11.128
77905NA+    NA+41464  34.452  31.918   3.772
77906NA+    NA+41465  44.847  43.369   3.651
77907NA+    NA+41466   2.906  35.099   0.310
77908NA+    NA+41467  39.976  22.020  13.481
77909NA+    NA+41468  44.275  32.906   2.198
77910NA+    NA+41469  30.160  12.269   0.848
77911NA+    NA+41470  21.239  12.187   1.417
77912NA+    NA+41471   9.683  31.074   1.226
77913NA+    NA+41472   3.715  12.173  13.814
77914NA+    NA+41473  18.552  20.034  13.980
77915NA+    NA+41474   2.800  21.025   1.751
77916NA+    NA+41475  32.951  44.898  13.482
77917NA+    NA+41476  41.488  17.254   1.918
77918NA+    NA+41477  33.392  12.129   0.888
77919NA+    NA+41478  38.452  12.257   0.375
77920NA+    NA+41479   2.843  16.115   4.720
77921NA+    NA+41480  41.788  28.181   4.219
77922NA+    NA+41481  37.024   1.971   0.782
77923NA+    NA+41482   6.833  12.279   1.813
77924NA+    NA+41483  29.586   8.732  12.873
77925NA+    NA+41484  36.495  33.978   3.785
77926NA+    NA+41485  26.507  17.271   5.209
77927NA+    NA+41486  10.672  23.555  12.052
77928NA+    NA+41487   4.896  16.295  11.552
77929NA+    NA+41488  34.880  34.955  10.576
77930NA+    NA+41489   9.886  14.178  11.575
77931NA+    NA+41490  30.055  16.754   0.302
77932NA+    NA+41491  22.544   6.406   0.857
77933NA+    NA+41492  18.648   0.918  10.586
77934NA+    NA+41493  18.614  40.836  14.510
77935NA+    NA+41494  29.940   4.230  13.825
77936NA+    NA+41495  16.760  27.607   4.747
77937NA+    NA+41496  30.446  25.066   3.272
77938NA+    NA+41497  21.569  35.933  12.461
77939NA+    NA+41498   3.845  36.071  11.423
77940NA+    NA+41499  36.958  33.468   2.822
77941NA+    NA+41500  21.237   8.203  12.419
77942NA+    NA+41501  33.551  21.098   2.307
77943NA+    NA+41502  20.132  43.975   1.744
77944NA+    NA+41503  32.893  21.216   4.275
77945NA+    NA+41504  27.542   8.822  12.074
77946NA+    NA+41505  22.557  16.669   1.892
77947NA+    NA+41506  42.949  22.580   4.276
77948NA+    NA+41507  21.513  26.608  11.926
77949NA+    NA+41508  19.224  33.928  10.906
77950NA+    NA+41509  44.925  27.607   3.277
77951NA+    NA+41510  35.427  44.325  13.941
77952NA+    NA+41511  14.256   7.834   1.898
77953NA+    NA+41512  15.578   1.924  13.874
77954NA+    NA+41513  41.856  21.616   0.442
77955NA+    NA+41514   3.896   6.229   4.302
77956NA+    NA+41515  19.599  40.885   3.298
77957NA+    NA+41516  17.178  28.997   3.857
77958NA+    NA+41517  28.466  17.165   3.223
77959NA+    NA+41518  35.973  41.938   3.776
77960NA+    NA+41519  17.298  10.751  11.537
77961NA+    NA+41520  33.985   3.281  14.794
77962NA+    NA+41521   1.260   7.885   2.682
77963NA+    NA+41522  12.232  28.454  13.331
77964NA+    NA+41523  23.171  35.934  11.460
77965NA+    NA+41524  20.657  44.360  12.341
77966NA+    NA+41525  24.032   2.434   2.756
77967NA+    NA+41526   6.696  17.683   0.751
77968NA+    NA+41527  25.593  26.017   4.303
77969NA+    NA+41528  24.070  23.016   4.767
77970NA+    NA+41529  23.528   7.202  10.454
77971NA+    NA+41530   3.743  27.997  12.853
77972NA+    NA+41531  43.829  31.410  13.891
77973NA+    NA+41532   7.400  19.643  12.866
77974NA+    NA+41533  44.399  23.598  10.939
77975NA+    NA+41534  43.288  26.209   2.405
77976NA+    NA+41535  34.573  41.538  11.040
77977NA+    NA+41536  42.374  43.945  10.555
77978NA+    NA+41537  44.290  12.212  11.958
77979NA+    NA+41538  17.152   3.281   9.980
77980NA+    NA+41539  37.409  12.162  13.932
77981NA+    NA+41540  18.188  12.776  10.924
77982NA+    NA+41541  27.469   5.740  11.516
77983NA+    NA+41542  21.691   8.690   0.389
77984NA+    NA+41543  20.574  21.578  13.988
77985NA+    NA+41544  24.656  15.216   0.791
77986NA+    NA+41545  27.940  15.128   0.472
77987NA+    NA+41546  30.601  35.533   4.780
77988NA+    NA+41547  19.127  14.141  14.509
77989NA+    NA+41548  37.530  43.312   2.236
77990NA+    NA+41549   7.911  37.906  12.087
77991NA+    NA+41550   8.694  35.970   2.701
77992NA+    NA+41551  41.954  15.580   0.358
77993NA+    NA+41552  37.539  31.561  13.835
77994NA+    NA+41553  31.435  21.695   4.136
77995NA+    NA+41554  20.164   0.825   0.963
77996NA+    NA+41555   5.756  33.570   4.696
77997NA+    NA+41556  40.429  16.291   1.215
77998NA+    NA+41557  27.540  36.507  11.560
77999NA+    NA+41558  39.001  25.580  10.629
78000NA+    NA+41559  12.634  19.684   3.336
78001NA+    NA+41560  31.051   4.782  11.067
78002NA+    NA+41561  13.229  30.139   1.294
78003NA+    NA+41562  11.731  23.091  12.457
78004NA+    NA+41563   8.266  44.755  12.574
78005NA+    NA+41564  14.228  14.725  14.340
78006NA+    NA+41565   9.236  22.019  11.387
78007NA+    NA+41566  32.954  20.177  12.982
78008NA+    NA+41567  23.051  27.464   4.344
78009NA+    NA+41568   2.378  41.511   5.287
78010NA+    NA+41569   6.807   5.409  13.467
78011NA+    NA+41570  25.126  12.343   1.852
78012NA+    NA+41571  26.592  26.002   0.745
78013NA+    NA+41572  11.346  42.870  11.380
78014NA+    NA+41573  43.363  27.520   1.851
78015NA+    NA+41574  43.430  25.099  13.877
78016NA+    NA+41575  44.829  44.771   3.704
78017NA+    NA+41576  29.606   9.842   3.274
78018NA+    NA+41577  21.232  40.014  12.918
78019NA+    NA+41578   6.337  12.790   5.226
78020NA+    NA+41579  25.075  25.042   0.946
78021NA+    NA+41580   1.921  11.709   0.411
78022NA+    NA+41581   2.247  34.019  13.979
78023NA+    NA+41582  25.471  20.635   1.380
78024NA+    NA+41583  39.494  18.773   4.165
78025NA+    NA+41584  32.939  16.779   4.662
78026NA+    NA+41585  18.664  19.088   1.817
78027NA+    NA+41586  29.150  27.582   2.748
78028NA+    NA+41587  35.946  33.395   3.263
78029NA+    NA+41588  19.219  44.781   1.337
78030NA+    NA+41589  32.453  14.214  13.334
78031NA+    NA+41590  30.480  24.099  10.504
78032NA+    NA+41591  43.823  28.015   2.848
78033NA+    NA+41592  16.593  30.559   4.666
78034NA+    NA+41593  22.196  21.114   2.406
78035NA+    NA+41594  23.526  31.538   1.749
78036NA+    NA+41595   6.693  30.651   1.899
78037NA+    NA+41596  24.089  20.105  11.982
78038NA+    NA+41597   6.850   1.797  12.505
78039NA+    NA+41598  21.220  31.518  11.483
78040NA+    NA+41599  15.762  21.678  11.520
78041NA+    NA+41600  11.329  16.744   3.306
78042NA+    NA+41601   7.709  19.611  12.038
78043NA+    NA+41602   9.371  16.293  11.606
78044NA+    NA+41603  18.279   3.894  12.974
78045NA+    NA+41604  25.645  17.267   1.900
78046NA+    NA+41605  44.407   6.300  14.874
78047NA+    NA+41606  35.477  10.696  14.857
78048NA+    NA+41607  40.385  10.368   1.334
78049NA+    NA+41608  10.673  29.153  11.033
78050NA+    NA+41609   8.270  38.997  14.964
78051NA+    NA+41610  12.639  17.598   2.805
78052NA+    NA+41611  22.665   9.158   0.393
78053NA+    NA+41612  36.979  10.235  12.947
78054NA+    NA+41613  23.024  29.058  12.934
78055NA+    NA+41614  35.384  34.958  14.505
78056NA+    NA+41615  42.305  23.674  10.978
78057NA+    NA+41616  27.462  34.072  12.549
78058NA+    NA+41617  39.469   5.854  14.358
78059NA+    NA+41618  42.931  41.834  14.491
78060NA+    NA+41619  36.402  22.121  10.502
78061NA+    NA+41620   3.292   4.885  11.112
78062NA+    NA+41621  24.163  21.123   1.721
78063NA+    NA+41622  17.610  39.337  13.975
78064NA+    NA+41623  22.553  39.433  12.908
78065NA+    NA+41624  27.508  11.670   1.824
78066NA+    NA+41625  25.491   0.884  12.449
78067NA+    NA+41626   6.699  37.443  10.410
78068NA+    NA+41627   1.257   7.691   3.385
78069NA+    NA+41628  27.664  41.873   0.822
78070NA+    NA+41629  14.677  27.492   3.859
78071NA+    NA+41630  19.111   1.361   3.175
78072NA+    NA+41631  37.983   8.327   4.354
78073NA+    NA+41632  11.802  26.016  13.322
78074NA+    NA+41633  19.726  12.837  14.767
78075NA+    NA+41634   2.425  32.406   3.833
78076NA+    NA+41635  13.339  43.986   1.395
78077NA+    NA+41636   5.906  44.274   3.685
78078NA+    NA+41637  15.798  21.557   4.728
78079NA+    NA+41638   7.859   9.296  13.968
78080NA+    NA+41639  10.207  32.025  14.812
78081NA+    NA+41640   9.669  16.217   1.309
78082NA+    NA+41641   9.169  12.126   9.924
78083NA+    NA+41642  43.907  27.082   1.397
78084NA+    NA+41643  41.982   8.201   0.344
78085NA+    NA+41644  35.907  13.244   1.834
78086NA+    NA+41645  20.170  43.806  10.508
78087NA+    NA+41646  19.745  36.000   2.335
78088NA+    NA+41647  29.495  32.989   4.766
78089NA+    NA+41648  41.032  42.456   3.205
78090NA+    NA+41649  11.818  12.297   5.158
78091NA+    NA+41650  22.012   6.717  12.392
78092NA+    NA+41651  18.125  27.620  12.079
78093NA+    NA+41652   2.293   8.278  10.465
78094NA+    NA+41653  17.174  41.431  10.904
78095NA+    NA+41654   0.851  43.371   3.167
78096NA+    NA+41655  44.408  25.029   2.272
78097NA+    NA+41656  35.585   4.334   2.895
78098NA+    NA+41657   0.770  23.166   1.238
78099NA+    NA+41658  14.101   4.846  14.489
78100NA+    NA+41659  11.628  32.963  10.955
78101NA+    NA+41660  39.048  43.996   0.263
78102NA+    NA+41661  23.529  13.346   1.343
78103NA+    NA+41662  43.773  10.751   2.289
78104NA+    NA+41663   8.178  41.856  14.448
78105NA+    NA+41664  26.575  41.466   1.330
78106NA+    NA+41665  41.376  26.678  13.329
78107NA+    NA+41666  26.201  35.057   0.420
78108NA+    NA+41667  26.995  13.795   2.294
78109NA+    NA+41668  23.121  30.021   0.742
78110NA+    NA+41669  25.178  31.914  12.013
78111NA+    NA+41670  40.305  25.175   4.289
78112NA+    NA+41671  33.880  38.010   1.748
78113NA+    NA+41672  43.843   3.742  12.526
78114NA+    NA+41673  23.700  20.741  13.872
78115NA+    NA+41674  18.173   8.244   2.788
78116NA+    NA+41675  36.509  14.127   5.105
78117NA+    NA+41676  20.074  42.852  14.340
78118NA+    NA+41677  41.963   1.941   2.233
78119NA+    NA+41678  27.146  11.316  11.492
78120NA+    NA+41679  27.490  24.206   2.238
78121NA+    NA+41680  36.917  31.931  13.019
78122NA+    NA+41681  37.074  26.018  10.444
78123NA+    NA+41682  10.687  33.512  10.525
78124NA+    NA+41683  13.767   0.821   3.696
78125NA+    NA+41684  36.466  38.430  13.881
78126NA+    NA+41685  36.925  39.486  11.495
78127NA+    NA+41686  25.603   0.295   2.188
78128NA+    NA+41687   5.235  35.932   2.725
78129NA+    NA+41688  18.728   8.172  13.997
78130NA+    NA+41689  21.150  32.917  12.070
78131NA+    NA+41690  10.185  25.091   2.786
78132NA+    NA+41691  17.264  15.177   2.876
78133NA+    NA+41692  28.435  30.100   3.332
78134NA+    NA+41693   5.407  32.973   2.720
78135NA+    NA+41694  17.166  40.857  11.464
78136NA+    NA+41695  36.593  40.015  13.058
78137NA+    NA+41696  31.067  26.191  14.391
78138NA+    NA+41697  35.915  25.205   4.632
78139NA+    NA+41698  36.855  36.934   2.414
78140NA+    NA+41699   9.359  16.699  14.325
78141NA+    NA+41700  14.121  15.615  11.012
78142NA+    NA+41701  28.467   6.368   0.455
78143NA+    NA+41702  39.329   0.945   2.872
78144NA+    NA+41703  23.025  21.162   3.659
78145NA+    NA+41704  36.586  43.991  13.908
78146NA+    NA+41705  43.826  17.746   2.856
78147NA+    NA+41706  19.745  11.659   4.650
78148NA+    NA+41707  11.820  41.037   4.198
78149NA+    NA+41708  44.947  13.663  10.556
78150NA+    NA+41709  39.047  13.284  13.043
78151NA+    NA+41710  27.131  20.230  10.936
78152NA+    NA+41711  39.905  38.477  10.580
78153NA+    NA+41712  27.546  11.786   4.795
78154NA+    NA+41713  26.091  43.993  12.983
78155NA+    NA+41714  19.597  43.383  12.390
78156NA+    NA+41715  35.603  12.686   3.679
78157NA+    NA+41716  13.164  18.597   0.782
78158NA+    NA+41717  35.987  20.756  14.475
78159NA+    NA+41718   8.855  10.197  13.386
78160NA+    NA+41719  37.998   1.908   1.437
78161NA+    NA+41720  25.518   6.340  13.005
78162NA+    NA+41721  22.528  25.513   0.370
78163NA+    NA+41722  13.713  26.162   4.603
78164NA+    NA+41723  16.237  32.502   3.654
78165NA+    NA+41724   1.794  25.138  11.453
78166NA+    NA+41725   6.686  26.142  11.518
78167NA+    NA+41726  37.086  27.952  14.993
78168NA+    NA+41727   1.291   5.413   3.149
78169NA+    NA+41728  13.159   6.342  11.412
78170NA+    NA+41729   7.327  34.382  11.376
78171NA+    NA+41730  28.435  13.604  11.066
78172NA+    NA+41731   7.366  40.403   4.127
78173NA+    NA+41732   5.198  39.322  13.351
78174NA+    NA+41733  18.628   7.734   1.927
78175NA+    NA+41734  11.639  10.816  12.365
78176NA+    NA+41735  16.197  23.007  10.896
78177NA+    NA+41736  27.522  43.283  11.564
78178NA+    NA+41737  37.945  30.995  13.450
78179NA+    NA+41738  12.296  39.847  12.899
78180NA+    NA+41739  38.410  33.980   0.919
78181NA+    NA+41740  15.717  25.002   3.713
78182NA+    NA+41741  11.274  29.610   0.434
78183NA+    NA+41742  44.271   2.894   0.398
78184NA+    NA+41743  40.912   8.201   3.638
78185NA+    NA+41744  34.091  25.172  11.007
78186NA+    NA+41745  18.274  31.486   1.795
78187NA+    NA+41746   6.269  38.852   5.266
78188NA+    NA+41747  25.965  11.242   2.412
78189NA+    NA+41748  23.032   6.348  10.914
78190NA+    NA+41749  11.866  19.061   1.866
78191NA+    NA+41750  40.496   7.184  13.321
78192NA+    NA+41751   5.870  36.954   3.836
78193NA+    NA+41752  29.996  12.211  13.362
78194NA+    NA+41753  35.602   3.359   1.814
78195NA+    NA+41754  24.677  33.505  12.030
78196NA+    NA+41755   9.213  13.775  14.820
78197NA+    NA+41756  19.561  21.239  11.435
78198NA+    NA+41757   3.254  27.482  13.854
78199NA+    NA+41758  37.518  21.052   3.169
78200NA+    NA+41759  43.883  11.826  11.449
78201NA+    NA+41760   7.867   2.796   2.196
78202NA+    NA+41761   9.651   8.231   2.263
78203NA+    NA+41762  21.073  10.140   1.273
78204NA+    NA+41763  14.111  27.637   3.813
78205NA+    NA+41764  18.224   1.436   3.382
78206NA+    NA+41765  23.179  23.630  13.499
78207NA+    NA+41766  33.576  36.476   3.348
78208NA+    NA+41767  39.477  10.842   0.348
78209NA+    NA+41768  37.046   5.306  12.354
78210NA+    NA+41769   5.259   9.711  14.375
78211NA+    NA+41770  20.599   9.652  13.806
78212NA+    NA+41771  28.562  25.205   2.276
78213NA+    NA+41772  25.630  33.077   0.815
78214NA+    NA+41773  37.470  37.381   2.179
78215NA+    NA+41774  34.967  16.653   4.115
78216NA+    NA+41775  23.140  44.316  14.831
78217NA+    NA+41776  22.699   3.235   0.264
78218NA+    NA+41777  43.270  22.191  13.899
78219NA+    NA+41778  14.703   0.753   0.861
78220NA+    NA+41779   5.431  37.400   1.267
78221NA+    NA+41780   1.890  19.184  10.568
78222NA+    NA+41781  34.926  21.260   5.231
78223NA+    NA+41782  15.676  15.748  11.451
78224NA+    NA+41783  41.917   6.922  10.510
78225NA+    NA+41784  36.071  25.092  11.938
78226NA+    NA+41785  38.920  23.663   9.942
78227NA+    NA+41786  39.861   5.805   0.363
78228NA+    NA+41787  17.134  27.450  11.978
78229NA+    NA+41788  20.738   9.150  12.382
78230NA+    NA+41789  24.690   1.378   4.698
78231NA+    NA+41790  30.491  29.095   3.846
78232NA+    NA+41791  12.276  35.538  14.356
78233NA+    NA+41792  25.580  42.393  14.471
78234NA+    NA+41793  17.235  28.537  11.476
78235NA+    NA+41794  21.136  28.602  14.833
78236NA+    NA+41795   5.898  37.975  11.540
78237NA+    NA+41796  36.029  12.160   4.215
78238NA+    NA+41797  23.584  18.227  14.428
78239NA+    NA+41798  37.942  34.099  13.008
78240NA+    NA+41799  19.115  33.480  11.896
78241NA+    NA+41800  22.178  14.339   0.296
78242NA+    NA+41801  44.377  27.104   0.916
78243NA+    NA+41802  10.146   7.846   3.166
78244NA+    NA+41803  19.230  41.359   2.281
78245NA+    NA+41804  36.862   7.351   2.854
78246NA+    NA+41805  35.405   7.389   3.360
78247NA+    NA+41806   7.726  13.814   1.855
78248NA+    NA+41807  13.679  30.990  14.509
78249NA+    NA+41808   1.401  30.610   1.778
78250NA+    NA+41809  22.061  16.085  12.349
78251NA+    NA+41810  24.133   0.963  13.406
78252NA+    NA+41811  20.554  20.736   3.163
78253NA+    NA+41812  17.115  31.972   3.347
78254NA+    NA+41813  13.124  16.148   4.240
78255NA+    NA+41814  39.526  12.213  11.428
78256NA+    NA+41815   8.669  28.565  13.912
78257NA+    NA+41816   0.289  13.756  13.452
78258NA+    NA+41817  14.770  31.598  13.834
78259NA+    NA+41818  33.086  37.013   1.446
78260NA+    NA+41819   4.253   2.274   3.867
78261NA+    NA+41820  12.343  23.609   2.391
78262NA+    NA+41821  20.120  22.014   0.857
78263NA+    NA+41822   5.926  32.453   1.913
78264NA+    NA+41823  26.203   1.287  13.009
78265NA+    NA+41824  20.065  41.926   3.771
78266NA+    NA+41825  15.162  36.950   4.637
78267NA+    NA+41826  23.710   9.257   3.660
78268NA+    NA+41827  11.787   7.846   2.245
78269NA+    NA+41828  18.626  24.156   2.899
78270NA+    NA+41829  24.561   2.942   0.750
78271NA+    NA+41830   5.896  28.469  10.627
78272NA+    NA+41831   3.808  37.868  12.961
78273NA+    NA+41832  32.540  18.761  14.319
78274NA+    NA+41833   7.732  17.660   3.754
78275NA+    NA+41834  19.696  11.626  12.076
78276NA+    NA+41835  12.270  18.086   0.838
78277NA+    NA+41836  36.377  29.536  12.055
78278NA+    NA+41837   3.785  26.119  12.982
78279NA+    NA+41838  31.457  32.539  11.028
78280NA+    NA+41839   8.873  43.772   0.364
78281NA+    NA+41840  40.947  37.405  11.400
78282NA+    NA+41841  31.044   4.239   3.693
78283NA+    NA+41842  15.650   4.763   4.150
78284NA+    NA+41843  27.124  37.449   4.352
78285NA+    NA+41844  39.915  31.454  12.896
78286NA+    NA+41845  41.967  43.308   4.737
78287NA+    NA+41846  38.063  21.080   0.455
78288NA+    NA+41847  39.397  41.321  12.507
78289NA+    NA+41848   6.225   7.171   1.215
78290NA+    NA+41849   0.754  25.555   4.344
78291NA+    NA+41850  24.495  19.263   2.378
78292NA+    NA+41851   4.721  25.487  13.426
78293NA+    NA+41852  21.674  10.879   3.800
78294NA+    NA+41853  31.140  41.015  11.105
78295NA+    NA+41854   7.261  40.055  10.410
78296NA+    NA+41855  25.138  34.914  13.907
78297NA+    NA+41856  19.660  20.206   4.335
78298NA+    NA+41857   5.691   4.829   3.706
78299CL-    CL-41858  33.444  39.337  14.960
78300CL-    CL-41859  17.693  11.310   3.378
78301CL-    CL-41860   0.935  21.096  12.377
78302CL-    CL-41861  33.556  40.889   4.241
78303CL-    CL-41862  28.934  40.857  12.500
78304CL-    CL-41863  33.388   5.899   3.643
78305CL-    CL-41864  16.157  14.246  13.343
78306CL-    CL-41865  12.675  39.375  12.992
78307CL-    CL-41866  14.137  16.215  11.609
78308CL-    CL-41867  12.616  22.200   3.343
78309CL-    CL-41868   5.345  21.752   0.806
78310CL-    CL-41869  23.067  25.482  12.022
78311CL-    CL-41870  24.004  12.757  11.076
78312CL-    CL-41871   3.878  24.612   2.299
78313CL-    CL-41872  17.074  44.959  13.860
78314CL-    CL-41873  33.947  27.140  13.991
78315CL-    CL-41874  38.570  25.047  14.790
78316CL-    CL-41875  22.233  39.344  13.337
78317CL-    CL-41876  25.976   0.835   0.392
78318CL-    CL-41877  34.924  27.587   3.673
78319CL-    CL-41878  20.189  41.870  12.412
78320CL-    CL-41879   0.818  16.242   3.293
78321CL-    CL-41880   5.845  14.596  13.829
78322CL-    CL-41881   1.796   6.793   0.311
78323CL-    CL-41882   5.921  31.067  12.022
78324CL-    CL-41883   9.316   9.178  10.434
78325CL-    CL-41884  36.544  27.082  13.029
78326CL-    CL-41885  16.738  17.758   2.878
78327CL-    CL-41886   3.897  34.906  12.911
78328CL-    CL-41887  29.171  14.103  10.909
78329CL-    CL-41888  13.348  16.093  14.496
78330CL-    CL-41889  37.869   2.898  13.950
78331CL-    CL-41890   8.784  35.604  13.896
78332CL-    CL-41891  37.854   9.391  11.509
78333CL-    CL-41892   5.849  28.474   4.697
78334CL-    CL-41893  36.934   0.973  13.871
78335CL-    CL-41894   8.687  34.579   0.871
78336CL-    CL-41895   5.194  30.635  13.061
78337CL-    CL-41896  11.788  16.219   2.755
78338CL-    CL-41897  22.559  23.107   3.866
78339CL-    CL-41898  32.515  41.979   9.552
78340CL-    CL-41899  43.320   1.838   5.137
78341CL-    CL-41900   7.833  23.164  11.891
78342CL-    CL-41901  38.369   6.895   1.893
78343CL-    CL-41902  35.438  17.623  12.469
78344CL-    CL-41903  13.735   6.711   0.357
78345CL-    CL-41904  20.199   5.333   3.236
78346CL-    CL-41905  38.963   6.403  11.922
78347CL-    CL-41906  11.353   3.940  12.575
78348CL-    CL-41907  28.139  37.440   3.291
78349CL-    CL-41908   6.417  31.080   2.303
78350CL-    CL-41909  26.955   6.742  13.808
78351CL-    CL-41910  24.602  13.764   0.754
78352CL-    CL-41911   8.746   2.259   0.793
78353CL-    CL-41912  23.663   3.784  14.892
78354CL-    CL-41913  11.179  14.105   9.939
78355CL-    CL-41914  28.485  18.201   3.166
78356CL-    CL-41915  18.290  20.153   2.271
78357CL-    CL-41916  25.657  12.646  10.957
78358CL-    CL-41917  17.260  44.385  13.356
78359CL-    CL-41918   9.701   5.687   4.252
78360CL-    CL-41919  41.388  18.765  12.925
78361CL-    CL-41920   6.316  21.058  10.949
78362CL-    CL-41921  19.543  17.630   0.375
78363CL-    CL-41922  30.068  27.150  11.944
78364CL-    CL-41923   9.844  10.765  13.033
78365CL-    CL-41924  10.193  18.711  14.781
78366CL-    CL-41925  41.318  32.452   2.793
78367CL-    CL-41926  33.576  29.956   0.747
78368CL-    CL-41927  15.243  43.825  14.015
78369CL-    CL-41928   1.766   3.867   0.751
78370CL-    CL-41929  29.921  16.280   3.160
78371CL-    CL-41930  10.737   0.387  13.061
78372CL-    CL-41931  24.029  40.928   0.728
78373CL-    CL-41932  40.336  37.911  11.459
78374CL-    CL-41933  16.601  15.298   3.322
78375CL-    CL-41934  30.106  31.642  14.764
78376CL-    CL-41935   9.276  28.551  13.389
78377CL-    CL-41936  22.556  18.106  13.939
78378CL-    CL-41937  25.560   3.870  11.584
78379CL-    CL-41938   1.455   5.434  11.063
78380CL-    CL-41939  15.204  43.833   1.306
78381CL-    CL-41940  43.332  31.125   2.870
78382CL-    CL-41941   9.826   7.872   0.278
78383CL-    CL-41942  40.829  39.870  13.023
78384CL-    CL-41943  43.416  35.491  12.065
78385CL-    CL-41944  25.079  21.062   5.262
78386CL-    CL-41945  34.104   8.161   1.911
78387CL-    CL-41946  30.996  25.528   3.776
78388CL-    CL-41947   9.700  43.827  14.418
78389CL-    CL-41948  34.980  28.458  11.035
78390CL-    CL-41949  17.601  15.638  14.761
78391CL-    CL-41950  33.554  33.385   4.681
78392CL-    CL-41951  15.195  28.625  14.769
78393CL-    CL-41952  32.026  10.184  11.091
78394CL-    CL-41953  30.958  23.615  13.956
78395CL-    CL-41954  42.491  29.934   1.365
78396CL-    CL-41955   5.316  22.134  10.478
78397CL-    CL-41956  30.932   9.653   2.369
78398CL-    CL-41957  22.620   9.333  14.845
78399CL-    CL-41958  20.704   7.883  10.462
78400CL-    CL-41959  20.037  36.356   1.349
78401CL-    CL-41960  26.120   7.262  12.499
78402CL-    CL-41961  32.942   7.724  11.960
78403CL-    CL-41962  21.604   3.719   0.437
78404CL-    CL-41963  43.278  28.597   3.713
78405CL-    CL-41964  29.468  29.951  14.778
78406CL-    CL-41965   8.235  34.959   4.146
78407CL-    CL-41966  19.242  10.253   3.292
78408CL-    CL-41967   5.301  40.812   0.929
78409CL-    CL-41968  38.958  28.135  10.966
78410CL-    CL-41969  14.122  22.211  11.070
78411CL-    CL-41970  27.613   1.299   3.850
78412CL-    CL-41971   0.941  20.580   1.705
78413CL-    CL-41972  10.838  10.642  11.509
78414CL-    CL-41973  29.565  22.505  11.579
78415CL-    CL-41974  33.912   1.940   3.240
78416CL-    CL-41975  38.364   3.457   1.324
78417CL-    CL-41976   9.296  43.817   2.364
78418CL-    CL-41977  32.439  29.096   2.189
78419CL-    CL-41978   0.877  29.511  13.394
78420CL-    CL-41979  26.631  29.504  11.483
78421CL-    CL-41980   6.367   0.845  13.961
78422CL-    CL-41981  21.582   2.270   0.346
78423CL-    CL-41982  20.197  18.650  13.946
78424CL-    CL-41983  17.241   7.417   3.167
78425CL-    CL-41984   5.374   6.215   9.973
78426CL-    CL-41985   1.837  44.479  13.449
78427CL-    CL-41986  34.379  19.761   3.247
78428CL-    CL-41987  21.198  21.105   3.279
78429CL-    CL-41988  33.496  29.449  12.552
78430CL-    CL-41989  30.037  43.410  13.059
78431CL-    CL-41990  42.484  21.195  11.875
78432CL-    CL-41991  13.754  22.715   2.384
78433CL-    CL-41992  19.577  21.227   2.222
78434CL-    CL-41993  14.754  42.897  14.867
78435CL-    CL-41994  30.498  25.526   0.912
78436CL-    CL-41995   3.412  18.238   1.829
78437CL-    CL-41996  14.337  11.222   0.778
78438CL-    CL-41997  13.719   6.262  12.840
78439CL-    CL-41998   3.919  32.031   0.754
78440CL-    CL-41999  27.127  37.400   4.755
78441CL-    CL-42000  20.741   9.867  10.413
78442CL-    CL-42001  27.989  42.957  11.535
78443CL-    CL-42002  31.009  16.619   2.799
78444CL-    CL-42003  28.950   1.324   0.812
78445CL-    CL-42004  33.962  20.666  14.892
78446CL-    CL-42005   4.234  21.193   0.938
78447CL-    CL-42006  43.467  24.659  11.008
78448CL-    CL-42007   6.821  16.139   4.240
78449CL-    CL-42008  16.191  39.455  12.979
78450CL-    CL-42009  23.667  41.291  12.529
78451CL-    CL-42010  43.314  13.285   0.807
78452CL-    CL-42011  27.956   4.277   2.736
78453CL-    CL-42012   0.397  11.823   1.438
78454CL-    CL-42013  15.127  11.629  12.073
78455CL-    CL-42014  39.442   1.415   4.274
78456CL-    CL-42015  26.651  43.010  13.994
78457CL-    CL-42016  43.441  35.027  14.490
78458CL-    CL-42017  28.530  37.999  12.405
78459CL-    CL-42018  34.571   2.366   4.697
78460CL-    CL-42019   0.291   1.844   2.679
78461CL-    CL-42020  35.556  15.147  14.359
78462CL-    CL-42021   6.785  21.726   2.811
78463CL-    CL-42022  22.107  36.429   4.751
78464CL-    CL-42023  15.698   7.277   3.759
78465CL-    CL-42024  38.337  36.481   2.184
78466CL-    CL-42025  35.066  42.380  14.795
78467CL-    CL-42026   2.939   9.840  11.447
78468CL-    CL-42027  28.141  21.667  11.514
78469CL-    CL-42028  16.666  13.623   1.379
78470CL-    CL-42029  13.267  34.615   1.737
78471CL-    CL-42030  34.897  10.854   2.267
78472CL-    CL-42031  13.821  28.534   3.366
78473CL-    CL-42032  13.315   8.762   1.720
78474CL-    CL-42033  30.917  35.067  10.990
78475CL-    CL-42034  27.096   6.858   2.336
78476CL-    CL-42035  10.290  21.019   2.212
78477CL-    CL-42036   3.349  24.498  10.513
78478CL-    CL-42037   2.248   8.336   1.701
78479CL-    CL-42038  12.328  30.992   1.316
78480CL-    CL-42039  15.645  13.662   4.683
78481CL-    CL-42040  16.684  35.554  14.400
78482CL-    CL-42041  17.105  28.937  12.020
78483CL-    CL-42042  34.598  34.924  14.357
78484CL-    CL-42043  11.660  13.640   3.282
78485CL-    CL-42044   1.954   8.865   2.840
78486CL-    CL-42045  14.607  34.076   1.416
78487CL-    CL-42046   4.902  41.919   3.170
78488CL-    CL-42047  43.499  19.070  13.976
78489CL-    CL-42048  17.661  24.146  12.554
78490CL-    CL-42049  29.031  20.611  10.999
78491CL-    CL-42050  19.100  41.393  12.467
78492CL-    CL-42051   1.974  38.848  11.051
78493CL-    CL-42052  17.084  22.113  14.966
78494CL-    CL-42053  38.897  37.039  10.630
78495CL-    CL-42054   5.807  42.482   4.611
78496CL-    CL-42055  14.160  43.387   5.288
78497CL-    CL-42056  16.739  29.575   4.789
78498CL-    CL-42057   3.227   8.375   0.401
78499CL-    CL-42058  40.805   4.863   2.870
78500CL-    CL-42059   5.333  37.449   2.219
78501CL-    CL-42060  10.790   5.429  11.524
78502CL-    CL-42061   0.394  21.716   2.308
78503CL-    CL-42062  14.781  42.781  11.482
78504CL-    CL-42063  22.546   6.335   5.254
78505CL-    CL-42064   3.944   9.260   3.847
78506CL-    CL-42065  17.673   7.696   0.347
78507CL-    CL-42066  22.632   8.830   2.271
78508CL-    CL-42067  37.918  24.207   3.761
78509CL-    CL-42068   8.366  13.824  11.560
78510CL-    CL-42069  32.977  35.094  12.014
78511CL-    CL-42070  30.604   9.835   1.855
78512CL-    CL-42071  30.079   4.413   2.322
78513CL-    CL-42072  16.190  10.177  12.498
78514CL-    CL-42073  21.701  25.204  11.498
78515CL-    CL-42074   7.790  20.099   1.799
78516CL-    CL-42075  22.680  28.108  12.857
78517CL-    CL-42076  25.503   2.782   4.660
78518CL-    CL-42077  35.886  17.567  14.839
78519CL-    CL-42078  26.564  16.155  13.035
78520CL-    CL-42079   8.210  24.161  12.081
78521CL-    CL-42080  21.738  37.418   3.738
78522CL-    CL-42081   6.778  14.627   2.683
78523CL-    CL-42082  36.019  18.249   2.844
78524CL-    CL-42083   4.770  23.075  11.947
78525CL-    CL-42084   3.243   1.337  13.347
78526CL-    CL-42085  27.658  22.086  12.520
78527CL-    CL-42086  14.670  15.594   4.746
78528CL-    CL-42087  22.996  44.297   1.238
78529CL-    CL-42088  22.585  12.252   2.868
78530CL-    CL-42089  18.771  19.706   1.792
78531CL-    CL-42090  29.634  36.873  13.023
78532CL-    CL-42091   9.292  38.072   3.225
78533CL-    CL-42092  10.382  30.082  13.486
78534CL-    CL-42093   9.184  29.166   1.755
78535CL-    CL-42094  21.566  34.538  13.992
78536CL-    CL-42095  43.311   7.701  11.025
78537CL-    CL-42096  23.682  36.076   2.727
78538CL-    CL-42097   5.347  23.613   1.309
78539CL-    CL-42098   3.262  32.099  10.986
78540CL-    CL-42099  33.935  40.037  12.835
78541CL-    CL-42100  36.552  27.123  13.972
78542CL-    CL-42101  43.822   9.364   3.760
78543CL-    CL-42102  16.749  42.976   2.198
78544CL-    CL-42103  26.172  24.661   3.730
78545CL-    CL-42104   6.232   5.435   0.866
78546CL-    CL-42105  40.508  31.576  11.092
78547CL-    CL-42106  11.317   6.303  13.999
78548CL-    CL-42107  42.838  19.281  11.487
78549CL-    CL-42108   0.858  12.317   2.737
78550CL-    CL-42109   2.883  37.929  13.846
78551CL-    CL-42110   2.823  38.456  14.496
78552CL-    CL-42111  15.236  33.528  14.361
78553CL-    CL-42112  30.915  24.104  14.369
78554CL-    CL-42113  36.933   4.931   4.692
78555CL-    CL-42114  39.880  43.964   3.354
78556CL-    CL-42115  38.888  20.272   4.659
78557CL-    CL-42116  43.272  27.688   0.330
78558CL-    CL-42117  13.235  17.272  13.933
78559CL-    CL-42118  37.373  24.637   0.400
78560CL-    CL-42119  34.457  29.610   2.717
78561CL-    CL-42120  12.850  22.583   1.712
78562CL-    CL-42121  16.609   5.332  14.918
78563CL-    CL-42122  34.006  16.647  13.899
78564CL-    CL-42123  12.174  16.730  11.379
78565CL-    CL-42124  31.477  24.160  13.541
78566CL-    CL-42125   6.800  29.128   1.827
78567CL-    CL-42126  17.160  20.731  12.879
78568CL-    CL-42127  31.914  34.907  10.410
78569CL-    CL-42128  19.625  34.527  12.361
78570CL-    CL-42129  44.870  16.724   2.694
78571CL-    CL-42130   5.322  22.026  12.027
78572CL-    CL-42131  35.547  21.089  14.907
78573CL-    CL-42132  42.426   5.217  11.047
78574CL-    CL-42133  34.979  14.690   4.340
78575CL-    CL-42134  44.842   1.802  11.110
78576CL-    CL-42135  10.690  43.435   4.667
78577CL-    CL-42136  36.996  37.502  11.458
78578CL-    CL-42137  33.524   2.441  11.506
78579CL-    CL-42138  42.948  29.966   0.734
78580CL-    CL-42139  14.676   7.326  13.383
78581CL-    CL-42140  38.557   4.902  13.411
78582CL-    CL-42141  33.432   2.445  13.901
78583CL-    CL-42142  39.550  11.330   3.814
78584CL-    CL-42143  36.959  20.179  13.950
78585CL-    CL-42144  40.339  43.422  12.572
78586CL-    CL-42145  26.181  34.871  10.542
78587CL-    CL-42146  36.433  31.035  12.943
78588CL-    CL-42147  22.093  26.488   2.868
78589CL-    CL-42148  33.971   4.751   3.795
78590CL-    CL-42149  17.248  35.362  10.113
78591CL-    CL-42150  18.573  42.458  14.355
78592CL-    CL-42151  15.785  26.120   1.448
78593CL-    CL-42152  28.932  16.148  13.413
78594CL-    CL-42153  31.528  41.871   1.423
78595CL-    CL-42154  44.414   6.785   2.244
78596CL-    CL-42155   1.459  26.570  14.319
78597CL-    CL-42156  40.436   5.923  12.368
78598CL-    CL-42157  13.183  23.096  12.091
78599CL-    CL-42158  42.464  27.970   0.870
78600CL-    CL-42159  43.323  38.528   3.820
78601CL-    CL-42160   6.743  24.123   0.845
78602CL-    CL-42161  42.315   8.234  11.105
78603CL-    CL-42162  36.037  19.252  12.017
78604CL-    CL-42163  14.335  44.876   3.299
78605CL-    CL-42164  16.189  21.547   0.842
78606CL-    CL-42165   9.375   8.168  10.928
78607CL-    CL-42166  26.012   9.821  10.988
78608CL-    CL-42167  11.305  19.237  11.077
78609CL-    CL-42168  24.063  25.504   2.749
78610CL-    CL-42169   7.741  43.934  12.477
78611CL-    CL-42170  32.967   3.242   2.260
78612CL-    CL-42171  24.042   5.929  14.778
78613CL-    CL-42172  33.494   7.299  13.861
78614CL-    CL-42173   2.735  17.298  10.890
78615CL-    CL-42174   7.261   6.780  10.450
78616CL-    CL-42175  22.015   1.877   3.227
78617CL-    CL-42176   0.416   5.252  13.889
78618CL-    CL-42177  15.656   2.906   1.714
78619CL-    CL-42178   9.746  32.539  12.350
78620CL-    CL-42179   6.814  11.166  13.879
78621CL-    CL-42180  34.958  33.979   5.085
78622CL-    CL-42181  14.106  28.633  14.779
78623CL-    CL-42182  12.726   9.716   0.302
78624CL-    CL-42183  11.812   7.412   0.816
78625CL-    CL-42184  24.013  25.557   3.340
78626CL-    CL-42185  27.606  31.622   3.337
78627CL-    CL-42186  43.801  25.992   4.816
78628CL-    CL-42187  37.034   2.446   1.244
78629CL-    CL-42188  34.970   4.366   0.780
78630CL-    CL-42189  44.872  14.788   3.282
78631CL-    CL-42190  33.915  10.663  10.997
78632CL-    CL-42191  22.219   0.252  14.800
78633CL-    CL-42192  12.288  10.195  11.929
78634CL-    CL-42193  29.946  44.900   2.336
78635CL-    CL-42194  11.128  42.284  12.879
78636CL-    CL-42195  14.173  16.613  14.296
78637CL-    CL-42196  21.043   6.367   3.226
78638CL-    CL-42197   0.783  41.836  14.487
78639CL-    CL-42198  35.472   3.884  13.824
78640CL-    CL-42199   8.757  37.530   1.422
78641CL-    CL-42200   1.471   4.868   3.278
78642CL-    CL-42201  21.691  15.661   3.361
78643CL-    CL-42202  25.505   9.797   0.802
78644CL-    CL-42203   7.669  21.239   1.803
78645CL-    CL-42204  15.249  17.603  13.809
78646CL-    CL-42205  16.298   7.713  11.424
78647CL-    CL-42206  17.768  16.685  13.898
78648CL-    CL-42207  44.938  12.229   0.772
78649CL-    CL-42208  22.033  12.341   9.663
78650CL-    CL-42209  24.590  28.486   0.768
78651CL-    CL-42210  17.193  35.026   4.606
78652CL-    CL-42211  24.209  40.967  12.069
78653CL-    CL-42212   4.716   9.834  12.553
78654CL-    CL-42213  26.033  10.686  14.929
78655CL-    CL-42214  11.221  41.801   2.847
78656CL-    CL-42215   1.447   9.196  14.994
78657CL-    CL-42216  10.270  37.450   4.701
78658CL-    CL-42217   6.301  39.451   4.181
78659CL-    CL-42218  32.054  41.850   2.760
78660CL-    CL-42219  19.757   3.274  13.312
78661CL-    CL-42220  28.559  42.305  12.545
78662CL-    CL-42221   9.710  40.457   2.719
78663CL-    CL-42222  40.450  20.133   3.767
78664CL-    CL-42223  41.862  13.198   3.362
78665CL-    CL-42224  24.164   2.313  10.456
78666CL-    CL-42225   4.869  31.416  14.866
78667CL-    CL-42226  22.617  12.212  10.507
78668CL-    CL-42227  40.961  10.259  12.493
78669CL-    CL-42228   6.833  40.815  11.538
78670CL-    CL-42229  17.276  42.481  13.877
78671CL-    CL-42230  22.663  13.616   1.781
78672CL-    CL-42231  24.642  16.745  14.286
78673CL-    CL-42232  35.367  25.623   3.640
78674CL-    CL-42233   7.713  23.645   1.357
78675CL-    CL-42234  23.098  42.898  14.964
78676CL-    CL-42235  24.707  17.266   0.770
78677CL-    CL-42236  40.335  12.743  14.408
78678CL-    CL-42237   1.929   2.261  10.887
78679CL-    CL-42238  12.257  28.549   0.395
78680CL-    CL-42239  43.857  12.145   0.289
78681CL-    CL-42240  20.736  44.401  14.285
78682CL-    CL-42241  36.501  13.666   4.234
78683CL-    CL-42242  36.564  28.040   3.741
78684CL-    CL-42243  16.644  13.682  11.539
78685CL-    CL-42244  25.596  29.524   2.193
78686CL-    CL-42245  33.585   9.863  10.982
78687CL-    CL-42246  12.184   1.296  12.404
78688CL-    CL-42247  21.106  15.595   5.233
78689CL-    CL-42248   2.955  17.651   1.828
78690CL-    CL-42249  26.674  34.975   1.335
78691CL-    CL-42250  25.165  15.300  11.400
78692CL-    CL-42251   9.719   2.247  13.902
78693CL-    CL-42252   4.303  27.106   4.295
78694CL-    CL-42253  29.494  42.303   1.928
78695CL-    CL-42254  12.703  37.875  13.895
78696CL-    CL-42255  32.501   8.875   0.251
78697CL-    CL-42256  31.028   4.740  10.620
78698CL-    CL-42257  26.126   8.741  12.510
78699CL-    CL-42258  26.480  35.411  12.564
78700CL-    CL-42259  33.461  29.541  10.556
78701CL-    CL-42260  35.057  35.424  13.904
78702CL-    CL-42261  29.945  42.776   0.258
78703CL-    CL-42262  27.539  37.928   1.768
78704CL-    CL-42263   4.244  22.166  12.529
78705CL-    CL-42264  12.291  31.432  12.463
78706CL-    CL-42265  23.067  35.033   3.725
78707CL-    CL-42266  28.145  10.827  12.507
78708CL-    CL-42267  21.191  36.010   4.771
78709CL-    CL-42268  44.829  32.081  10.425
78710CL-    CL-42269  38.416  15.746   3.658
78711CL-    CL-42270  15.200  17.175  13.482
78712CL-    CL-42271  32.453  10.816   4.622
78713CL-    CL-42272  42.435   9.813   2.216
78714CL-    CL-42273  18.608  44.384   0.381
78715CL-    CL-42274  27.121  31.986   3.166
78716CL-    CL-42275   9.710  20.133  12.057
78717CL-    CL-42276  14.717   8.741   0.299
78718CL-    CL-42277  37.051  19.539  10.498
78719CL-    CL-42278   6.361  35.419   4.142
78720CL-    CL-42279   9.746   1.317   2.350
78721CL-    CL-42280  39.314   7.742  11.109
78722CL-    CL-42281  13.191   0.283   1.718
78723CL-    CL-42282   4.808  35.095  10.009
78724CL-    CL-42283   5.261  11.141  13.375
78725CL-    CL-42284  23.551   5.856   1.831
78726CL-    CL-42285  29.000  34.985   4.612
78727CL-    CL-42286  28.457   1.417   1.737
78728CL-    CL-42287  36.537  17.168   1.262
78729CL-    CL-42288   7.340   3.425   3.209
78730CL-    CL-42289  23.720  36.428   3.313
78731CL-    CL-42290  19.745  41.484  14.985
78732CL-    CL-42291  10.271   0.984  12.354
78733CL-    CL-42292   3.933  38.377   1.427
78734CL-    CL-42293  37.830   7.367   2.794
78735CL-    CL-42294  13.139  39.526  12.510
78736CL-    CL-42295  22.193   9.171  12.539
78737CL-    CL-42296   2.462  44.779  14.481
78738CL-    CL-42297  20.597  14.283   1.374
78739CL-    CL-42298  35.601   9.865  10.420
78740CL-    CL-42299  43.314  26.117   1.225
78741CL-    CL-42300   1.956  24.662   4.116
78742CL-    CL-42301  26.645  12.789   0.849
78743CL-    CL-42302  24.613   0.386  11.498
78744CL-    CL-42303  21.629  25.055   2.765
78745CL-    CL-42304  41.037   1.244   4.199
78746CL-    CL-42305   6.195   8.659  11.059
78747CL-    CL-42306  32.528  39.515   1.425
78748CL-    CL-42307  25.598  20.675   3.379
78749CL-    CL-42308  24.592  14.773  11.921
78750CL-    CL-42309  19.614   7.668   3.860
78751CL-    CL-42310   5.736  38.075  13.846
78752CL-    CL-42311   4.436  16.155   0.878
78753CL-    CL-42312   9.209  21.219  10.085
78754CL-    CL-42313   1.422  34.926   0.800
78755CL-    CL-42314  10.775  23.176  13.035
78756CL-    CL-42315  11.243  27.658   4.232
78757CL-    CL-42316  40.442   5.227  11.954
78758CL-    CL-42317  32.934  12.645  12.873
78759CL-    CL-42318  30.911  21.035   4.182
78760CL-    CL-42319  39.015  31.006   4.143
78761CL-    CL-42320   8.709  38.058  13.537
78762CL-    CL-42321  33.543   3.920  11.410
78763CL-    CL-42322   4.842  34.933   4.214
78764CL-    CL-42323  16.191  42.850  13.027
78765CL-    CL-42324   1.885  37.009   3.750
78766CL-    CL-42325  31.032  20.178  13.953
78767CL-    CL-42326  28.605  41.494   2.755
78768CL-    CL-42327   1.978  17.715  14.804
78769CL-    CL-42328  15.722  37.582   5.193
78770CL-    CL-42329   2.315  10.234   3.770
78771CL-    CL-42330  35.393  42.793   2.791
78772CL-    CL-42331   4.301  21.254  10.104
78773CL-    CL-42332  30.618   1.314   3.223
78774CL-    CL-42333  23.726  31.076   4.672
78775CL-    CL-42334  29.459   9.772   1.822
78776CL-    CL-42335  29.043   1.934  14.764
78777CL-    CL-42336  23.141  28.136   3.789
78778CL-    CL-42337  40.839   7.228  12.865
78779CL-    CL-42338   3.444  36.448  13.986
78780CL-    CL-42339  20.077  15.624   3.868
78781CL-    CL-42340   0.438  28.655   0.805
78782CL-    CL-42341   9.831   0.749   0.768
78783CL-    CL-42342  39.830  19.146  12.356
78784CL-    CL-42343  32.011  41.900  14.810
78785CL-    CL-42344   0.860  18.660   2.281
78786CL-    CL-42345  38.520  18.558  11.907
78787CL-    CL-42346  14.654  21.126   0.886
78788CL-    CL-42347  16.772   1.291  11.408
78789CL-    CL-42348   9.872   9.680   3.339
78790CL-    CL-42349  27.942  30.147  11.008
78791CL-    CL-42350   0.266  33.126   3.676
78792CL-    CL-42351  13.349   4.763  14.876
78793CL-    CL-42352  17.703  39.929  14.873
78794CL-    CL-42353  25.483  19.136  12.024
78795CL-    CL-42354  39.417  43.369  11.049
78796CL-    CL-42355  34.466  41.954  10.405
78797CL-    CL-42356  35.600   5.845   4.648
78798CL-    CL-42357  27.623  30.931  13.382
78799CL-    CL-42358  10.737   0.924   2.198
78800CL-    CL-42359  31.067   7.802  11.478
78801CL-    CL-42360  22.573   8.818   5.114
78802CL-    CL-42361  34.999  15.280  10.954
78803CL-    CL-42362  21.647   5.273   2.755
78804CL-    CL-42363  28.564   6.767   1.350
78805CL-    CL-42364  14.312   5.384   0.387
78806CL-    CL-42365   3.745  10.842   0.901
78807CL-    CL-42366   2.303  10.723  14.314
78808CL-    CL-42367  37.495  21.690  11.928
78809CL-    CL-42368   2.901   4.844   2.336
78810CL-    CL-42369  37.481  25.163  13.012
78811CL-    CL-42370  34.517  15.807  12.980
78812CL-    CL-42371  24.092  34.537  14.405
78813CL-    CL-42372  44.432  27.630   4.237
78814CL-    CL-42373   4.701  29.938   5.261
78815CL-    CL-42374   3.426  12.341   3.633
78816CL-    CL-42375  36.946  37.535   2.265
78817CL-    CL-42376  22.617  19.594   3.811
78818CL-    CL-42377  32.098   5.837   1.409
78819CL-    CL-42378  41.478  13.110   1.262
78820CL-    CL-42379  38.440   6.882   4.259
78821CL-    CL-42380  41.391  13.265   4.644
78822CL-    CL-42381  24.709  14.210  12.045
78823CL-    CL-42382  21.199  37.021   0.799
78824CL-    CL-42383  13.341  36.465   5.311
78825CL-    CL-42384  38.505  35.055   0.850
78826CL-    CL-42385  37.547  14.263   4.657
78827CL-    CL-42386  16.189  17.192   3.763
78828CL-    CL-42387   6.690  24.081  12.043
78829CL-    CL-42388  43.411  15.688   3.642
78830CL-    CL-42389  18.117  41.798  14.441
78831CL-    CL-42390   3.427  40.549  12.435
78832CL-    CL-42391   6.263  26.691   0.336
78833CL-    CL-42392  19.568  19.209  14.360
78834CL-    CL-42393  29.630   8.721   1.870
78835CL-    CL-42394  20.616   9.716   3.214
78836CL-    CL-42395  31.407  39.411   3.381
78837CL-    CL-42396  22.127  43.815  13.962
78838CL-    CL-42397  13.192  15.238   3.809
78839CL-    CL-42398  32.636  24.634   0.252
78840CL-    CL-42399   0.925  21.617  12.438
78841CL-    CL-42400  41.493  29.027  14.510
78842CL-    CL-42401  24.102   7.814  12.397
78843CL-    CL-42402  14.340  18.274   3.167
78844CL-    CL-42403  30.067  13.695   3.176
78845CL-    CL-42404  22.232   1.302   1.303
78846CL-    CL-42405  20.594  25.106   1.354
78847CL-    CL-42406  42.431  34.587  14.478
78848CL-    CL-42407  11.141  37.428   3.292
78849CL-    CL-42408   2.312  20.599  11.513
78850CL-    CL-42409  13.702  38.825   4.315
78851CL-    CL-42410   4.747  31.503  12.097
78852CL-    CL-42411  13.692  11.215   0.297
78853CL-    CL-42412  24.642   9.192  10.487
78854CL-    CL-42413   6.332  19.618   4.340
78855CL-    CL-42414  34.414   7.843   3.832
78856CL-    CL-42415  29.099  24.606  10.912
78857CL-    CL-42416  10.238  30.121  10.011
78858CL-    CL-42417  17.297   2.459   0.262
78859CL-    CL-42418   6.837  22.633   4.254
78860CL-    CL-42419  24.479  25.594  12.473
78861CL-    CL-42420   1.319  40.827   4.275
78862CL-    CL-42421  39.328  35.009  11.936
78863CL-    CL-42422  35.562   0.988   2.304
78864CL-    CL-42423   5.257  29.950   3.779
78865CL-    CL-42424  28.070  40.457   2.362
78866CL-    CL-42425  41.789  20.688  13.913
78867CL-    CL-42426  41.855  22.995  10.635
78868CL-    CL-42427  14.593  37.367  12.999
78869CL-    CL-42428  22.586  34.961  10.586
78870CL-    CL-42429  31.059  36.968   0.349
78871CL-    CL-42430  32.074   8.326   0.404
78872CL-    CL-42431   4.783  39.378  14.388
78873CL-    CL-42432  18.705  35.086   2.716
78874CL-    CL-42433  21.236  15.607  11.905
78875CL-    CL-42434   7.398  37.939   3.866
78876CL-    CL-42435  30.058  15.656   1.749
78877CL-    CL-42436  23.609  38.987   4.282
78878CL-    CL-42437   5.931  19.241   1.853
78879CL-    CL-42438  30.570   8.180   4.239
78880CL-    CL-42439   8.255  29.668   0.350
78881CL-    CL-42440   6.736  14.666  10.610
78882CL-    CL-42441   0.822  12.203  14.979
78883CL-    CL-42442  25.670  44.274   0.337
78884CL-    CL-42443   9.380  18.147  10.518
78885CL-    CL-42444  31.150  21.145  11.533
78886CL-    CL-42445  23.036  30.139  14.373
78887CL-    CL-42446  26.635   6.301   1.448
78888CL-    CL-42447   7.286  32.947   0.735
78889CL-    CL-42448   5.351  32.902   0.804
78890CL-    CL-42449   2.774  43.456   2.190
78891CL-    CL-42450  17.139  23.700  11.966
78892CL-    CL-42451  31.472  19.627   3.843
78893CL-    CL-42452  21.722  38.019  11.501
78894CL-    CL-42453  11.818   3.763   1.922
78895CL-    CL-42454  21.061   9.849  10.990
78896CL-    CL-42455  17.659  29.169  13.914
78897CL-    CL-42456   6.276  25.505   3.792
78898CL-    CL-42457  26.460  27.519   5.185
78899CL-    CL-42458  32.554   9.750   4.145
78900CL-    CL-42459  30.920  35.551  13.382
78901CL-    CL-42460  32.604  25.987   0.965
78902CL-    CL-42461  41.437  23.051   4.677
78903CL-    CL-42462  15.787  33.003   0.440
78904CL-    CL-42463   7.745   2.281   1.337
78905CL-    CL-42464   5.433  22.547  12.341
78906CL-    CL-42465   1.350   8.853   3.636
78907CL-    CL-42466  21.688  15.581  10.575
78908CL-    CL-42467  14.731  44.286  11.608
78909CL-    CL-42468  32.502   4.838   3.722
78910CL-    CL-42469  23.663   7.700   3.246
78911CL-    CL-42470  12.116  38.000   5.251
78912CL-    CL-42471   6.730   5.751  14.017
78913CL-    CL-42472  21.528  17.702   4.295
78914CL-    CL-42473  15.738  35.555  10.438
78915CL-    CL-42474  34.056  11.693  10.437
78916CL-    CL-42475  18.066  42.355  12.854
78917CL-    CL-42476  33.456  24.044  12.532
78918CL-    CL-42477   7.207   7.836  12.537
78919CL-    CL-42478  29.932  29.543  12.830
78920CL-    CL-42479  18.544  34.376  12.555
78921CL-    CL-42480   7.905  26.606  12.565
78922CL-    CL-42481  23.052  17.662   2.819
78923CL-    CL-42482  22.073   4.792  13.362
78924CL-    CL-42483  44.960   6.234  10.448
78925CL-    CL-42484  23.119  20.088  11.411
78926CL-    CL-42485  17.298  42.934  14.966
78927CL-    CL-42486  12.822   7.767  13.931
78928CL-    CL-42487  19.555   2.322  14.493
78929CL-    CL-42488  20.039  37.547  12.824
78930CL-    CL-42489   6.833  36.508  12.453
78931CL-    CL-42490  23.702  24.682   2.271
78932CL-    CL-42491  38.993  41.895  12.361
78933CL-    CL-42492  11.130  40.813  12.955
78934CL-    CL-42493  40.801  28.936  13.489
78935CL-    CL-42494   4.432  15.099  12.566
78936CL-    CL-42495  31.562   6.372   4.621
78937CL-    CL-42496  19.657  20.130  10.635
78938CL-    CL-42497  21.576   9.314  14.874
78939CL-    CL-42498  32.020   3.819   3.741
78940CL-    CL-42499   9.876   9.701   1.442
78941CL-    CL-42500  14.762  34.120  14.390
78942CL-    CL-42501  41.949   3.341   0.248
78943CL-    CL-42502   2.335  15.603  14.416
78944CL-    CL-42503  38.350  20.751  14.950
78945CL-    CL-42504  17.720  34.899  14.380
78946CL-    CL-42505   5.386   2.349   4.809
78947CL-    CL-42506  37.527  20.266   1.718
78948CL-    CL-42507  43.381  41.803   3.181
78949CL-    CL-42508   4.836   2.274   3.149
78950CL-    CL-42509  10.700  32.636   1.756
78951CL-    CL-42510   0.332   2.750  12.437
78952CL-    CL-42511   9.754  24.984   3.350
78953CL-    CL-42512   2.926   8.214  10.578
78954CL-    CL-42513   7.277  32.621  12.076
78955CL-    CL-42514  20.725  37.972   2.219
78956CL-    CL-42515  35.093   3.374   3.384
78957CL-    CL-42516  28.551  39.840   0.434
78958CL-    CL-42517   2.730  23.041   2.825
78959CL-    CL-42518  27.065  37.392  10.452
78960CL-    CL-42519   1.913  15.149  11.919
78961CL-    CL-42520  34.601  44.883  11.044
78962CL-    CL-42521  17.742   5.858   3.780
78963CL-    CL-42522   4.213  34.094  14.445
78964CL-    CL-42523  26.984  40.891  11.980
78965CL-    CL-42524  30.109  22.155   0.397
78966CL-    CL-42525  28.529  22.148   0.742
78967CL-    CL-42526  42.462   1.765  13.047
78968CL-    CL-42527  19.656   6.346   1.717
78969CL-    CL-42528  11.738  14.612   3.859
78970CL-    CL-42529  17.297  30.067  12.482
78971CL-    CL-42530   2.382  36.586   4.265
78972CL-    CL-42531  34.891  31.593   4.724
78973CL-    CL-42532  21.600  13.729  14.313
78974CL-    CL-42533   1.317   0.793  11.895
78975CL-    CL-42534   4.843  28.992  12.340
78976CL-    CL-42535  14.110  19.083   1.389
78977CL-    CL-42536  20.736  21.583   3.851
78978CL-    CL-42537   6.730   8.400  13.839
78979CL-    CL-42538  13.611   1.907  11.010
78980CL-    CL-42539  15.650  42.388   1.756
78981CL-    CL-42540   4.443  12.247  12.511
78982CL-    CL-42541  38.475  10.298  10.969
78983CL-    CL-42542   3.414  33.000   2.356
78984CL-    CL-42543  27.636  32.900   4.227
78985CL-    CL-42544  44.266  30.940  12.493
78986CL-    CL-42545  36.023  34.609   3.345
78987CL-    CL-42546  35.976  19.711  11.405
78988CL-    CL-42547  22.725  38.561   1.280
78989CL-    CL-42548  24.540   1.835   2.768
78990CL-    CL-42549   6.887   1.396  11.904
78991CL-    CL-42550  31.630   6.728   0.795
78992CL-    CL-42551  34.951  42.789  11.856
78993CL-    CL-42552   0.438  10.165   2.337
78994CL-    CL-42553   7.246  26.204  10.463
78995CL-    CL-42554  23.176  42.463   2.377
78996CL-    CL-42555  27.038   2.932   0.901
78997CL-    CL-42556  42.496   3.830   0.867
78998CL-    CL-42557  36.853  11.721  11.887
78999CL-    CL-42558  32.483   9.195   0.745
79000CL-    CL-42559  30.589  37.997   3.285
79001CL-    CL-42560  35.498  34.572  12.501
79002CL-    CL-42561  13.168   5.434   1.786
79003CL-    CL-42562  38.475  28.458   4.639
79004CL-    CL-42563  16.627  44.494   3.182
79005CL-    CL-42564  40.051  27.527  13.516
79006CL-    CL-42565  25.113  14.101  12.502
79007CL-    CL-42566  25.659   8.726   2.777
79008CL-    CL-42567  30.048  37.857  12.386
79009CL-    CL-42568  18.287   2.807  11.442
79010CL-    CL-42569   0.309  32.421   1.279
79011CL-    CL-42570  42.807   5.435   0.887
79012CL-    CL-42571  35.995  43.768  12.424
79013CL-    CL-42572  44.968   5.795  10.485
79014CL-    CL-42573  31.626  14.195   3.308
79015CL-    CL-42574  11.358  39.419   3.386
79016CL-    CL-42575  34.522  32.023  10.546
79017CL-    CL-42576  18.222  23.708   3.856
79018CL-    CL-42577  26.498  11.151  13.797
79019CL-    CL-42578  44.829  10.818  13.020
79020CL-    CL-42579  15.734  13.686  10.504
79021CL-    CL-42580  38.487  39.451  11.452
79022CL-    CL-42581  25.119  15.257   0.825
79023CL-    CL-42582   7.813   8.817   0.929
79024CL-    CL-42583  28.119  12.621   0.746
79025CL-    CL-42584   7.321  44.821   0.396
79026CL-    CL-42585  29.548  13.319  11.518
79027CL-    CL-42586  15.263  35.369   2.294
79028CL-    CL-42587  34.070  38.446  10.053
79029CL-    CL-42588  10.794  43.889   0.919
79030CL-    CL-42589  24.165  34.952   4.269
79031CL-    CL-42590   5.708  37.342   4.610
79032CL-    CL-42591   9.332   4.381   1.360
79033CL-    CL-42592  25.470   9.149   3.249
79034CL-    CL-42593  12.253  22.241  13.966
79035CL-    CL-42594  32.520  29.041  10.970
79036CL-    CL-42595  29.518  32.629  13.798
79037CL-    CL-42596  14.706  22.241  14.406
79038CL-    CL-42597  40.949  40.492  13.508
79039CL-    CL-42598   2.783  26.558   4.718
79040CL-    CL-42599   2.464  16.676   3.826
79041CL-    CL-42600  25.018  31.995   4.341
79042CL-    CL-42601  23.589  14.162  10.435
79043CL-    CL-42602  25.701  32.533  14.430
79044CL-    CL-42603   1.971  35.003  11.602
79045CL-    CL-42604   0.485   3.789  12.057
79046CL-    CL-42605  28.075  11.705  12.061
79047CL-    CL-42606  30.600  28.003   4.206
79048CL-    CL-42607  20.108  19.688  10.966
79049CL-    CL-42608  13.694  31.010   2.386
79050CL-    CL-42609  24.078  39.879  14.823
79051CL-    CL-42610  43.970  20.610   2.703
79052CL-    CL-42611  34.872  29.133  13.481
79053CL-    CL-42612   8.358  23.700   4.690
79054CL-    CL-42613  36.449  21.049  13.883
79055CL-    CL-42614   7.768  35.960   0.837
79056CL-    CL-42615  37.967  26.027   2.306
79057CL-    CL-42616  22.124  31.448  12.872
79058CL-    CL-42617  20.104   1.974   1.347
79059CL-    CL-42618  42.446  39.894   3.380
79060CL-    CL-42619  37.085   2.299  13.333
79061CL-    CL-42620  32.475  32.461  11.472
79062CL-    CL-42621  12.235  23.686   0.804
79063CL-    CL-42622  18.113  12.202   0.852
79064CL-    CL-42623  12.193  32.139  14.927
79065CL-    CL-42624  33.626  35.095  12.366
79066CL-    CL-42625  30.476  23.128   4.723
79067CL-    CL-42626   3.793  40.377   4.274
79068CL-    CL-42627  33.540  21.150   0.892
79069CL-    CL-42628  18.722  15.273  13.310
79070CL-    CL-42629  44.468  17.181  12.018
79071CL-    CL-42630   2.370  20.677  10.466
79072CL-    CL-42631  26.474  30.517  11.428
79073CL-    CL-42632  36.425  17.137   0.818
79074CL-    CL-42633  27.038  26.617   0.244
79075CL-    CL-42634  42.282  22.193   1.766
79076CL-    CL-42635  34.504  23.057   2.223
79077CL-    CL-42636   4.936   6.820  12.062
79078CL-    CL-42637  28.650  15.155   1.876
79079CL-    CL-42638   4.873  12.767   4.632
79080CL-    CL-42639  37.077  28.554  10.489
79081CL-    CL-42640  34.545  25.039   3.805
79082CL-    CL-42641  35.376  29.460  13.502
79083CL-    CL-42642  44.337  18.058   1.391
79084CL-    CL-42643  19.170   1.773  10.605
79085CL-    CL-42644  24.608   4.900  12.519
79086CL-    CL-42645  32.889  22.657   0.463
79087CL-    CL-42646   3.386  41.811   0.932
79088CL-    CL-42647   7.355  12.216   5.216
79089CL-    CL-42648  14.194  40.507   3.154
79090CL-    CL-42649  42.891  29.590   1.434
79091CL-    CL-42650  38.018  22.513  13.912
79092CL-    CL-42651  19.716  32.483   4.199
79093CL-    CL-42652  41.357   9.348  10.907
79094CL-    CL-42653   7.686  15.792   2.297
79095CL-    CL-42654  12.670  27.966  12.423
79096CL-    CL-42655   0.932  30.025  13.477
79097CL-    CL-42656  17.717   1.259  12.342
79098CL-    CL-42657  39.345  39.454   2.291
79099CL-    CL-42658   7.212  27.450   1.272
79100CL-    CL-42659  41.844  21.578  14.329
79101CL-    CL-42660  23.731  17.200  13.417
79102CL-    CL-42661   1.802  20.669  13.897
79103CL-    CL-42662  35.885  22.505   1.842
79104CL-    CL-42663  32.579  13.712  11.374
79105CL-    CL-42664   0.267   7.417  14.999
79106CL-    CL-42665  21.252   0.351   2.852
79107CL-    CL-42666  21.545  29.651   1.423
79108CL-    CL-42667   6.872  23.588  12.463
79109CL-    CL-42668  26.494  22.205  11.991
79110CL-    CL-42669  23.518  32.471   3.685
79111CL-    CL-42670  14.209  26.179  10.116
79112CL-    CL-42671   4.413  38.486   1.347
79113CL-    CL-42672  43.914   4.861   3.356
79114CL-    CL-42673  37.961  14.137  11.062
79115CL-    CL-42674   7.825  44.814   1.883
79116CL-    CL-42675  35.983  11.842  10.958
79117CL-    CL-42676   5.911  21.094  13.937
79118CL-    CL-42677  14.262  18.081   2.367
79119CL-    CL-42678  21.239  11.759   4.325
79120CL-    CL-42679  24.052   8.399  11.377
79121CL-    CL-42680  13.258  19.712   2.413
79122CL-    CL-42681   6.243  33.577   2.302
79123CL-    CL-42682  39.389  34.894   1.856
79124CL-    CL-42683  11.781  11.292  14.766
79125CL-    CL-42684  30.004  43.872  12.386
79126CL-    CL-42685   6.388  26.697  12.956
79127CL-    CL-42686   0.255  43.949   2.887
79128CL-    CL-42687  32.029  15.633   1.408
79129CL-    CL-42688  27.691  30.604  11.036
79130CL-    CL-42689  16.196  39.446   0.332
79131CL-    CL-42690  17.632  31.433  10.504
79132CL-    CL-42691  18.243  14.206   1.222
79133CL-    CL-42692   8.678  24.179  13.487
79134CL-    CL-42693  27.140  44.410  11.065
79135CL-    CL-42694   7.850   7.394   4.693
79136CL-    CL-42695  29.064  23.669  14.961
79137CL-    CL-42696   1.934  14.150   0.866
79138CL-    CL-42697  31.642  18.571   4.228
79139CL-    CL-42698  32.083  29.614  14.955
79140CL-    CL-42699  16.646  28.620   2.232
79141CL-    CL-42700  11.210  14.809   2.725
79142CL-    CL-42701  32.988  18.566  13.315
79143CL-    CL-42702   5.801  31.054  12.952
79144CL-    CL-42703   2.236  14.689   1.450
79145CL-    CL-42704  38.921  18.050   4.305
79146CL-    CL-42705  32.447   5.328  14.881
79147CL-    CL-42706  34.541  35.555  10.965
79148CL-    CL-42707  31.113  12.170   1.717
79149CL-    CL-42708  29.441  10.694  12.019
79150CL-    CL-42709  33.003  32.026   0.876
79151CL-    CL-42710  27.447  25.005   2.876
79152CL-    CL-42711  13.296   5.215   0.480
79153CL-    CL-42712  37.477  20.130   4.782
79154CL-    CL-42713  22.655  34.429  12.449
79155CL-    CL-42714  14.719  28.471   0.956
79156CL-    CL-42715   7.370   8.266  11.430
79157CL-    CL-42716  40.320  30.544  12.538
79158CL-    CL-42717   9.352  26.992  12.375
79159CL-    CL-42718  41.792  42.293   1.377
79160CL-    CL-42719   7.814  33.406  11.966
79161CL-    CL-42720  43.365  31.907   4.683
79162CL-    CL-42721  23.544  41.817  11.997
79163CL-    CL-42722  39.467  44.963   2.744
79164CL-    CL-42723   1.247  27.012  12.951
79165CL-    CL-42724  38.553   1.419  13.915
79166CL-    CL-42725  40.358  22.583  13.033
79167CL-    CL-42726  43.346  24.669   4.803
79168CL-    CL-42727  39.414   2.334  14.416
79169CL-    CL-42728   2.959  28.504   4.338
79170CL-    CL-42729  31.520  36.960   0.462
79171CL-    CL-42730  32.478   0.847   4.261
79172CL-    CL-42731   4.218  20.672  13.849
79173CL-    CL-42732  18.627  30.655   2.669
79174CL-    CL-42733  42.288  32.062  10.576
79175CL-    CL-42734  23.128  13.195   2.299
79176CL-    CL-42735  44.837  21.541  11.540
79177CL-    CL-42736  21.519  33.438   3.285
79178CL-    CL-42737   1.288  25.026   1.290
79179CL-    CL-42738   9.710   9.701   3.831
79180CL-    CL-42739  43.019  32.531  11.534
79181CL-    CL-42740  29.462  18.697   4.631
79182CL-    CL-42741  19.138   9.725  13.462
79183CL-    CL-42742   0.908   8.178  12.503
79184CL-    CL-42743  33.080  27.159   3.692
79185CL-    CL-42744   0.909   2.371  14.987
79186CL-    CL-42745  11.146  42.871   4.784
79187CL-    CL-42746   7.414   0.270  14.980
79188CL-    CL-42747   5.316   5.247   4.332
79189CL-    CL-42748  16.311  26.515  10.632
79190CL-    CL-42749  35.550   1.805   3.270
79191CL-    CL-42750   4.427  42.388  12.376
79192CL-    CL-42751  33.043  42.817  11.922
79193CL-    CL-42752  11.858  18.713  10.516
79194CL-    CL-42753  26.529  11.137  11.577
79195CL-    CL-42754  25.592   4.719   2.730
79196CL-    CL-42755  27.682   6.296  10.559
79197CL-    CL-42756  23.068  44.422  13.390
79198CL-    CL-42757  11.212  41.371  10.557
79199CL-    CL-42758  27.186  32.997  11.119
79200CL-    CL-42759  10.665   2.748   3.310
79201CL-    CL-42760   3.350  21.113  10.468
79202CL-    CL-42761   3.262   3.782  10.645
79203CL-    CL-42762  32.522  10.877  11.986
79204CL-    CL-42763  10.276  15.306  11.537
79205CL-    CL-42764   5.809   7.184   2.756
79206CL-    CL-42765  20.116  16.763   2.755
79207CL-    CL-42766  26.082  20.164   3.653
79208CL-    CL-42767  17.285   3.394   0.849
79209CL-    CL-42768  43.797  34.426   3.298
79210CL-    CL-42769  26.100  12.302   1.288
79211CL-    CL-42770  40.332  38.930   4.274
79212CL-    CL-42771   8.805  13.231  11.008
79213CL-    CL-42772  37.890  13.198  11.875
79214CL-    CL-42773   1.460  31.027   1.867
79215CL-    CL-42774  34.403   6.687   1.449
79216CL-    CL-42775  14.697   5.349  13.451
79217CL-    CL-42776  43.796  37.922   2.828
79218CL-    CL-42777   9.710   4.285   3.192
79219CL-    CL-42778  43.469  38.483  10.515
79220CL-    CL-42779  21.157  13.246   1.291
79221CL-    CL-42780  21.104  42.324  11.602
79222CL-    CL-42781  36.424  11.802   0.436
79223CL-    CL-42782  31.402  36.413   2.330
79224CL-    CL-42783  27.063   0.442  11.414
79225CL-    CL-42784  43.959  14.109  11.895
79226CL-    CL-42785  40.463  30.611  14.283
79227CL-    CL-42786  17.156  41.451   0.842
79228CL-    CL-42787  20.604  23.675   3.735
79229CL-    CL-42788  21.620  31.622  12.870
79230CL-    CL-42789  30.956   1.750  10.619
79231CL-    CL-42790  11.141  10.138   3.304
79232CL-    CL-42791  37.389   9.220  11.045
79233CL-    CL-42792  20.100   5.364   2.187
79234CL-    CL-42793  16.139  37.900   4.774
79235CL-    CL-42794  42.475  23.985  14.883
79236CL-    CL-42795  15.102  31.478   2.850
79237CL-    CL-42796  24.488   8.238   9.982
79238CL-    CL-42797   2.279  27.482   4.156
79239CL-    CL-42798  36.523   0.893  13.825
79240CL-    CL-42799  35.512  31.948   0.836
79241CL-    CL-42800  10.637   9.335  11.006
79242CL-    CL-42801   9.392  28.014   3.383
79243CL-    CL-42802  42.367  38.953  13.821
79244CL-    CL-42803   9.276  24.558   1.262
79245CL-    CL-42804  11.795  11.683  11.422
79246CL-    CL-42805  17.151  27.680   2.746
79247CL-    CL-42806  15.268  35.391  10.575
79248CL-    CL-42807  14.265  13.317  12.489
79249CL-    CL-42808  13.637  26.063  12.379
79250CL-    CL-42809  35.511  11.714  10.498
79251CL-    CL-42810  19.176  34.998   4.674
79252CL-    CL-42811  25.015  19.667   2.898
79253CL-    CL-42812  41.359   6.744   3.350
79254CL-    CL-42813  20.153   5.829   3.777
79255CL-    CL-42814   9.149  42.420  11.409
79256CL-    CL-42815  12.687  15.761  13.340
79257CL-    CL-42816  32.628  11.335   4.830
79258CL-    CL-42817  26.586  14.688  11.607
79259CL-    CL-42818  13.778  29.579   1.771
79260CL-    CL-42819  43.010  11.757   0.810
79261CL-    CL-42820  25.982  40.800   0.361
79262CL-    CL-42821  35.888   0.465  14.456
79263CL-    CL-42822  31.014  10.271  11.900
79264CL-    CL-42823  37.897  10.165   1.908
79265CL-    CL-42824  36.395  35.544  12.052
79266CL-    CL-42825  19.609  29.647  14.424
79267CL-    CL-42826  38.868  41.810   5.224
79268CL-    CL-42827  30.550  41.406   2.850
79269CL-    CL-42828  44.965  35.080   1.269
79270CL-    CL-42829   4.736  34.885   3.719
79271CL-    CL-42830  18.705  13.132  14.325
79272CL-    CL-42831  13.115  15.660  10.109
79273CL-    CL-42832  23.227  36.040  13.536
79274CL-    CL-42833  33.435  21.511   1.744
79275CL-    CL-42834   4.216  26.100  13.430
79276CL-    CL-42835  32.078  24.974  12.390
79277CL-    CL-42836   1.823  15.673  14.398
79278CL-    CL-42837  27.479   8.736  14.310
79279CL-    CL-42838  16.772  15.708   2.187
79280CL-    CL-42839  17.704  17.088  13.542
79281CL-    CL-42840  41.420  22.669  13.424
79282CL-    CL-42841   2.749  27.513   0.850
79283CL-    CL-42842  38.556   4.849  10.921
79284CL-    CL-42843  35.533  35.929  12.552
79285CL-    CL-42844  38.012   2.390   0.759
79286CL-    CL-42845  21.169   8.182  10.632
79287CL-    CL-42846   9.809  38.518   4.239
79288CL-    CL-42847  29.507  24.059  10.497
79289CL-    CL-42848   3.738  33.988   0.408
79290CL-    CL-42849  22.189   7.847   0.434
79291CL-    CL-42850  22.515  19.187   0.250
79292CL-    CL-42851  25.023   5.196  11.028
79293CL-    CL-42852  13.767   6.861  10.088
79294CL-    CL-42853  44.834  20.202  10.587
79295CL-    CL-42854  15.672   7.318  12.566
79296CL-    CL-42855  40.910  30.549   4.339
79297CL-    CL-42856  41.932   1.912   3.653
79298CL-    CL-42857  13.211  37.415   1.788
79299CL-    CL-42858  43.809  42.519  13.815
79300CL-    CL-42859  25.468  39.433  11.504
79301CL-    CL-42860  16.268  24.494   0.906
79302CL-    CL-42861  21.235   7.365  13.822
79303CL-    CL-42862  38.484   5.255   0.803
79304CL-    CL-42863  34.957  26.026   1.698
79305CL-    CL-42864  43.434  33.115   2.828
79306CL-    CL-42865  38.476  37.360   0.363
79307CL-    CL-42866  38.051  12.188   0.337
79308CL-    CL-42867  34.107  22.111  14.970
79309CL-    CL-42868  19.628  37.085   4.309
79310CL-    CL-42869  29.073  38.425   5.176
79311CL-    CL-42870  34.471   4.862  11.415
79312CL-    CL-42871  23.188  23.107   2.827
79313CL-    CL-42872   0.381   1.746  12.365
79314CL-    CL-42873  21.518   2.300   1.211
79315CL-    CL-42874  42.465  28.081  14.424
79316CL-    CL-42875  34.900   0.758   3.678
79317CL-    CL-42876  35.036  18.776  10.111
79318CL-    CL-42877  14.771   7.796  12.450
79319CL-    CL-42878   3.907  36.467  12.536
79320CL-    CL-42879   0.461  31.908   0.932
79321CL-    CL-42880  22.047   5.229  11.033
79322CL-    CL-42881  37.339  37.016  13.002
79323CL-    CL-42882  39.001   5.311  12.900
79324CL-    CL-42883  28.608   8.746  13.369
79325CL-    CL-42884  26.070   6.893  13.333
79326CL-    CL-42885  28.655  32.540  13.898
79327CL-    CL-42886  10.269   8.659   4.311
79328CL-    CL-42887  11.702  33.015  10.153
79329CL-    CL-42888   0.412  19.276  11.503
79330CL-    CL-42889  35.049  22.218   4.310
79331CL-    CL-42890  10.856  12.213   2.716
79332CL-    CL-42891  36.981  41.460  14.418
79333CL-    CL-42892  26.545  37.948  14.325
79334CL-    CL-42893  34.914  19.140  14.871
79335CL-    CL-42894   9.204   0.464   1.806
79336CL-    CL-42895  16.234   7.290  13.909
79337CL-    CL-42896  38.568  29.934   5.641
79338CL-    CL-42897  41.823  13.276   2.380
79339CL-    CL-42898   1.801  21.581  13.896
79340CL-    CL-42899  33.621  14.235  11.011
79341CL-    CL-42900  14.599  28.621  12.424
79342CL-    CL-42901  40.914  15.270  12.385
79343CL-    CL-42902  18.555  41.305   0.883
79344CL-    CL-42903   7.300  21.098  14.834
79345CL-    CL-42904  21.222  34.868   1.859
79346CL-    CL-42905  16.731  32.931   2.332
79347CL-    CL-42906  28.111  41.385   1.315
79348CL-    CL-42907  18.608  43.274   1.212
79349CL-    CL-42908  43.782  22.080   2.183
79350CL-    CL-42909   2.374  42.885   1.329
79351CL-    CL-42910  24.528  25.104   0.880
79352CL-    CL-42911  11.660  16.625   2.674
79353CL-    CL-42912  34.423  11.325   1.784
79354CL-    CL-42913  35.505  37.552   0.805
79355CL-    CL-42914  16.649  37.934   4.218
79356CL-    CL-42915  20.193  31.041   1.700
79357CL-    CL-42916  26.980  30.909   2.850
79358CL-    CL-42917  43.010   4.373   4.335
79359CL-    CL-42918   3.731   4.722   1.289
79360CL-    CL-42919  17.226  27.515   1.417
79361CL-    CL-42920   7.399  42.518   4.641
79362CL-    CL-42921  13.178  35.978  10.115
79363CL-    CL-42922  14.817   9.367  12.507
79364CL-    CL-42923  15.109  20.668  11.604
79365CL-    CL-42924  18.552  29.139   3.826
79366CL-    CL-42925  30.053  38.006  14.765
79367CL-    CL-42926  39.824  34.940  10.152
79368CL-    CL-42927  19.551  20.706   0.438
79369CL-    CL-42928   6.732   5.325   1.855
79370CL-    CL-42929  21.619  14.180   3.360
79371CL-    CL-42930  11.756  22.116   0.849
79372CL-    CL-42931  40.500   4.329   2.684
79373CL-    CL-42932  21.642   3.277   3.682
79374CL-    CL-42933  32.116   9.760  14.898
79375CL-    CL-42934  22.540  37.564   1.363
79376CL-    CL-42935  39.903  19.703   3.767
79377CL-    CL-42936  23.620  11.803  11.940
79378CL-    CL-42937  19.744  20.032  11.004
79379CL-    CL-42938   2.326  18.586  11.563
79380CL-    CL-42939  37.474  23.069   2.740
79381CL-    CL-42940  16.160  24.591   1.386
79382CL-    CL-42941  27.026   7.845   4.714
79383CL-    CL-42942   1.862  37.561  11.516
79384CL-    CL-42943  30.479   0.885   4.134
79385CL-    CL-42944  26.980  33.005   1.729
79386CL-    CL-42945  38.527  39.821   2.841
79387CL-    CL-42946  31.051  32.533  14.924
79388CL-    CL-42947  24.542   2.352   2.399
79389CL-    CL-42948  29.512  14.625  11.417
79390CL-    CL-42949  17.651  32.444  11.502
79391CL-    CL-42950   2.863   8.719  13.366
79392CL-    CL-42951  34.590   8.310  14.493
79393CL-    CL-42952  18.063  44.465   2.235
79394CL-    CL-42953  14.757  33.088   2.234
79395CL-    CL-42954  30.010   6.346  12.431
79396CL-    CL-42955  33.071   1.790  11.502
79397CL-    CL-42956  44.875  19.755  12.096
79398CL-    CL-42957   5.926   9.889   2.817
79399CL-    CL-42958  21.180  10.832  13.847
79400CL-    CL-42959  30.155  39.409  13.851
79401CL-    CL-42960  38.379  36.366  14.281
79402CL-    CL-42961  40.932  25.674   2.413
79403CL-    CL-42962  23.160  23.067  14.327
79404CL-    CL-42963  17.606  26.036   4.609
79405CL-    CL-42964   2.961  41.807   3.681
79406CL-    CL-42965  36.581  17.142   5.280
79407CL-    CL-42966   7.272   1.354   0.891
79408CL-    CL-42967  28.943  37.043  12.034
79409CL-    CL-42968   7.827  40.908   4.796
79410CL-    CL-42969  24.013   1.460  14.373
79411CL-    CL-42970  39.505  34.390  12.039
79412CL-    CL-42971  32.408  35.418  14.447
79413CL-    CL-42972   9.302  35.457   5.201
79414CL-    CL-42973   5.411  28.042  11.475
79415CL-    CL-42974   3.264  42.481   0.924
79416CL-    CL-42975  40.457  35.523   2.386
79417CL-    CL-42976  44.947  10.878   1.855
79418CL-    CL-42977  12.187  41.837  14.401
79419CL-    CL-42978  30.480  13.769   2.231
79420CL-    CL-42979  14.827  22.659   4.782
79421CL-    CL-42980  31.607  24.217  10.610
79422CL-    CL-42981  27.617  35.521  11.569
79423CL-    CL-42982  27.466  37.006  11.114
79424CL-    CL-42983  31.524  30.658  14.780
79425CL-    CL-42984   7.784  44.451  10.407
79426CL-    CL-42985  18.661  37.082  13.954
79427CL-    CL-42986  29.484  29.666  13.955
79428CL-    CL-42987  11.232  19.593  11.867
79429CL-    CL-42988  12.735  28.455   4.671
79430CL-    CL-42989  30.050   9.843  14.923
79431CL-    CL-42990  27.652  38.868   1.884
79432CL-    CL-42991  25.619  21.596  14.331
79433CL-    CL-42992  10.804  20.724  13.435
79434CL-    CL-42993  34.971  32.949   1.421
79435CL-    CL-42994  33.010  35.509  11.381
79436CL-    CL-42995   2.285  31.645   1.854
79437CL-    CL-42996  44.446  38.931   5.149
79438CL-    CL-42997  19.241  27.651  12.520
79439CL-    CL-42998   9.870  42.468   0.472
79440CL-    CL-42999  25.647   3.355  12.078
79441CL-    CL-43000  16.114   0.423  13.362
79442CL-    CL-43001   6.835   2.279   2.300
79443CL-    CL-43002  26.082  42.385  11.897
79444CL-    CL-43003   0.360  34.534  12.371
79445CL-    CL-43004  36.069  34.926  13.318
79446CL-    CL-43005  24.491  21.045   2.377
79447CL-    CL-43006  15.120   4.860   0.818
79448CL-    CL-43007  26.514  20.590  14.809
79449CL-    CL-43008  28.481  40.892   2.794
79450CL-    CL-43009   8.207  29.631  10.996
79451CL-    CL-43010  21.749  44.349  11.581
79452CL-    CL-43011  14.793  32.526   4.810
79453CL-    CL-43012   3.253  19.624  14.371
79454CL-    CL-43013  27.526  16.147  13.897
79455CL-    CL-43014  20.183  34.612  11.913
79456CL-    CL-43015  40.433  31.545  14.300
79457CL-    CL-43016  33.036  38.355  13.910
79458CL-    CL-43017  21.052  19.103   2.691
79459CL-    CL-43018  44.790   2.324   1.921
79460CL-    CL-43019  24.085   5.692  13.464
79461CL-    CL-43020   0.383  35.979  13.971
79462CL-    CL-43021  18.699  10.256  13.960
79463CL-    CL-43022  34.554  19.752  11.421
79464CL-    CL-43023  17.240   9.820  12.973
79465CL-    CL-43024   6.811  31.144   0.878
79466CL-    CL-43025   1.384   0.371  14.340
79467CL-    CL-43026  20.123  31.087  12.567
79468CL-    CL-43027  28.605  37.082  12.096
79469CL-    CL-43028  40.942  29.461  14.831
79470CL-    CL-43029   8.864  10.333   0.923
79471CL-    CL-43030  22.596  39.346  11.558
79472CL-    CL-43031   5.689  29.171   3.798
79473CL-    CL-43032  17.139  39.349  12.450
79474CL-    CL-43033  24.189  17.147   4.167
79475CL-    CL-43034   3.301  27.035   3.363
79476CL-    CL-43035  16.256  41.370  13.401
79477CL-    CL-43036  33.926   0.288  13.362
79478CL-    CL-43037   3.241  38.331   4.196
79479CL-    CL-43038   1.781  18.723  12.018
79480CL-    CL-43039   7.201  21.077   1.345
79481CL-    CL-43040   7.272  22.652  13.875
79482CL-    CL-43041  22.560  40.841  12.512
79483CL-    CL-43042   5.208  44.840   1.412
79484CL-    CL-43043  28.984  40.530   5.176
79485CL-    CL-43044  26.969  13.792  11.911
79486CL-    CL-43045  38.511  42.309   1.229
79487CL-    CL-43046   0.480  24.568   0.401
79488CL-    CL-43047  29.538  27.623   4.621
79489CL-    CL-43048  31.471  20.176  10.497
79490CL-    CL-43049   6.860  41.461  12.457
79491CL-    CL-43050  30.428  40.805   1.804
79492CL-    CL-43051   3.742  24.509  14.880
79493CL-    CL-43052  30.513  40.835  12.904
79494CL-    CL-43053   6.377  22.156  13.328
79495CL-    CL-43054   6.335  19.175   1.319
79496CL-    CL-43055  41.437  32.590   1.762
79497CL-    CL-43056  42.384   7.851   3.295
79498CL-    CL-43057   9.661  16.624   1.378
79499CL-    CL-43058  33.474  30.566  14.914
79500CL-    CL-43059  19.569  23.620   4.288
79501CL-    CL-43060   6.327  19.252   2.777
79502CL-    CL-43061  30.919  28.545   4.176
79503CL-    CL-43062  10.662  11.240  14.806
79504CL-    CL-43063  40.539  36.062  12.346
79505CL-    CL-43064   1.322   7.364  12.496
79506CL-    CL-43065  34.563  39.931  13.521
79507CL-    CL-43066   5.873  21.739   3.775
79508CL-    CL-43067   1.263  10.709  10.993
79509CL-    CL-43068  38.562  20.186   3.660
79510CL-    CL-43069  26.533  44.465  13.515
79511CL-    CL-43070  44.468  15.251  14.820
79512CL-    CL-43071  37.480   1.848   2.255
79513CL-    CL-43072  36.517  28.570  14.808
79514CL-    CL-43073  25.183  11.802   3.854
79515CL-    CL-43074   6.704  14.604   0.457
79516CL-    CL-43075   9.834  42.424  12.481
79517CL-    CL-43076   9.387  21.565  12.571
79518CL-    CL-43077  29.511   5.916  10.638
79519CL-    CL-43078  32.938   0.977   3.204
79520CL-    CL-43079   7.803  40.380   4.641
79521CL-    CL-43080  10.147  38.376  13.807
79522CL-    CL-43081  11.727   7.869  10.024
79523CL-    CL-43082  26.670  27.967   4.774
79524CL-    CL-43083  40.532   8.884  11.977
79525CL-    CL-43084  26.987  38.014   2.790
79526CL-    CL-43085  21.211  17.691  11.419
79527CL-    CL-43086   7.703  22.016   4.294
79528CL-    CL-43087  20.717  28.618  14.453
79529CL-    CL-43088   3.885  12.117   4.666
79530CL-    CL-43089  15.143  34.903   4.239
79531CL-    CL-43090  25.677  25.640   0.903
79532CL-    CL-43091  32.956   4.336   4.813
79533CL-    CL-43092  38.468  25.604   4.296
79534CL-    CL-43093  22.619  31.476  12.949
79535CL-    CL-43094  28.492  10.811   0.369
79536CL-    CL-43095  17.606  12.615  13.360
79537CL-    CL-43096  14.128  42.019  12.878
79538CL-    CL-43097   4.321  19.760   3.795
79539CL-    CL-43098   4.881  11.803  12.482
79540CL-    CL-43099  12.285  40.487   3.212
79541CL-    CL-43100  13.654   7.312   2.285
79542CL-    CL-43101  13.844  32.436   4.181
79543CL-    CL-43102  27.659  36.455   1.709
79544CL-    CL-43103  29.644  36.424  13.371
79545CL-    CL-43104   2.259  42.437   3.290
79546CL-    CL-43105  14.244  31.025   4.318
79547CL-    CL-43106  41.005  12.250   2.393
79548CL-    CL-43107  34.519  28.101   4.774
79549CL-    CL-43108   7.250   5.418  11.595
79550CL-    CL-43109  29.088   7.228  13.379
79551CL-    CL-43110  17.190  31.981  14.420
79552CL-    CL-43111   3.454  12.347   1.350
79553CL-    CL-43112   5.723  21.607   1.247
79554CL-    CL-43113   3.940  14.247   3.808
79555CL-    CL-43114  32.464  23.548  14.376
79556CL-    CL-43115   7.191  10.791   4.650
79557CL-    CL-43116  23.719  25.977  10.927
79558CL-    CL-43117   7.839  31.599   2.767
79559CL-    CL-43118  43.366  30.468   4.835
79560CL-    CL-43119  25.011  13.800  10.057
79561CL-    CL-43120  28.576  23.057  13.495
79562CL-    CL-43121  35.014  41.859   3.775
79563CL-    CL-43122  16.617  28.137   2.367
79564CL-    CL-43123  16.143  24.061   0.942
79565CL-    CL-43124  31.940  41.458   2.796
79566CL-    CL-43125   4.780  41.344   4.319
79567CL-    CL-43126  25.688  18.691   3.321
79568CL-    CL-43127  10.745  41.351  11.883
79569CL-    CL-43128  24.105   5.928   1.765
79570CL-    CL-43129  43.964  16.263  11.607
79571CL-    CL-43130  16.262  11.635   1.889
79572CL-    CL-43131   1.791   6.278   2.410
79573CL-    CL-43132  21.125   9.254  12.531
79574CL-    CL-43133  28.175  12.154  14.862
79575CL-    CL-43134   5.797  14.771  14.814
79576CL-    CL-43135   0.977   1.341  13.482
79577CL-    CL-43136   1.777  12.350  12.835
79578CL-    CL-43137  37.856  32.422  12.453
79579CL-    CL-43138  42.453  37.427   1.413
79580CL-    CL-43139  10.749  19.095   0.478
79581CL-    CL-43140   7.776  44.368  13.471
79582CL-    CL-43141   9.229  32.568   2.377
79583CL-    CL-43142  37.939  31.962  13.912
79584CL-    CL-43143  32.006  22.240   4.719
79585CL-    CL-43144  13.815  28.085  13.871
79586CL-    CL-43145  36.484   5.337  13.867
79587CL-    CL-43146   2.763  26.141   1.328
79588CL-    CL-43147   1.352  19.561   1.293
79589CL-    CL-43148  13.137  15.717   0.309
79590CL-    CL-43149  21.238  15.115  11.428
79591CL-    CL-43150  27.652   5.697   2.738
79592CL-    CL-43151  12.219   9.256   4.204
79593CL-    CL-43152  34.426  31.608   2.831
79594CL-    CL-43153  29.634  27.091   2.728
79595CL-    CL-43154  33.935  29.963   3.386
79596CL-    CL-43155  24.052  10.195  14.346
79597CL-    CL-43156   7.294  22.587   2.745
79598CL-    CL-43157   1.318  26.695   4.335
79599CL-    CL-43158   2.729  21.549   1.837
79600CL-    CL-43159  19.541  43.845  13.809
79601CL-    CL-43160   2.368   2.895   4.616
79602CL-    CL-43161  27.458  13.800  14.504
79603CL-    CL-43162  18.732  12.632   0.864
79604CL-    CL-43163  26.086  19.666   0.387
79605CL-    CL-43164  15.735  23.073   0.281
79606CL-    CL-43165  40.857   2.243  13.959
79607CL-    CL-43166   5.872  23.688  12.529
79608CL-    CL-43167  12.826   8.720  10.599
79609CL-    CL-43168  23.136  13.628   0.738
79610CL-    CL-43169  27.142   7.363  14.948
79611CL-    CL-43170  12.296  16.656  11.944
79612CL-    CL-43171  31.612  18.062  12.956
79613CL-    CL-43172  23.203   1.817   4.213
79614CL-    CL-43173  26.697  18.575  12.505
79615CL-    CL-43174  17.718  21.715   3.387
79616CL-    CL-43175  27.524   3.765  13.382
79617CL-    CL-43176  33.963  14.597  11.062
79618CL-    CL-43177  34.442  30.478  11.494
79619CL-    CL-43178  27.963  20.091   3.208
79620CL-    CL-43179  42.325  42.284   0.874
79621CL-    CL-43180   2.446  26.995   4.813
79622CL-    CL-43181  32.017   7.331  12.891
79623CL-    CL-43182  15.722  24.621   3.252
79624CL-    CL-43183  28.129  15.318  12.059
79625CL-    CL-43184  30.446  16.252   2.847
79626CL-    CL-43185  27.624  22.091   2.723
79627CL-    CL-43186  14.832  36.569  13.452
79628CL-    CL-43187  32.063  41.007   2.817
79629CL-    CL-43188  36.054   5.269  11.570
79630CL-    CL-43189  27.505  10.706   4.770
79631CL-    CL-43190  16.620  23.707  14.315
79632CL-    CL-43191  35.362  33.007   5.195
79633CL-    CL-43192  23.197  44.371   4.817
79634CL-    CL-43193  36.904  39.339  12.340
79635CL-    CL-43194  19.078  12.765   1.849
79636CL-    CL-43195   3.943  21.077   3.836
79637CL-    CL-43196  42.328  32.477   3.723
79638CL-    CL-43197   0.286  26.952   3.303
79639CL-    CL-43198  23.638  33.001   1.357
79640CL-    CL-43199  44.476  27.479   2.359
79641CL-    CL-43200  34.370  39.317   2.220
79642CL-    CL-43201   3.733  34.495   4.151
79643CL-    CL-43202   8.848  11.646  11.390
79644CL-    CL-43203  21.596  21.576   2.888
79645CL-    CL-43204  16.257  35.566  12.022
79646CL-    CL-43205   7.735  11.373   1.909
79647CL-    CL-43206  19.565   1.419   1.291
79648CL-    CL-43207  23.733  25.658  13.392
79649CL-    CL-43208  30.003   6.886  13.020
79650CL-    CL-43209  16.296  20.145  12.475
79651CL-    CL-43210  36.437  43.896  11.025
79652CL-    CL-43211  35.082   0.410   9.976
79653CL-    CL-43212   2.840  13.329  12.474
79654CL-    CL-43213  41.420  37.018  14.761
79655CL-    CL-43214  38.886  24.195   1.833
79656CL-    CL-43215   8.329  28.092  14.368
79657CL-    CL-43216  25.202  34.523   1.869
79658CL-    CL-43217  27.989   0.454  13.854
79659CL-    CL-43218  14.129   3.904   5.139
79660CL-    CL-43219  11.238  15.216   2.331
79661CL-    CL-43220  24.973  28.979   1.843
79662CL-    CL-43221   7.205   9.294   2.799
79663CL-    CL-43222  18.778  33.456   4.756
79664CL-    CL-43223  34.982  12.735  10.412
79665CL-    CL-43224  37.831   4.261  14.430
79666CL-    CL-43225  43.511   0.488   2.710
79667CL-    CL-43226  38.475  20.054  13.429
79668CL-    CL-43227  14.693  35.358   5.243
79669CL-    CL-43228   1.740  20.168  11.393
79670CL-    CL-43229  28.486  41.414   2.228
79671CL-    CL-43230  14.605  27.455  13.485
79672CL-    CL-43231  23.063  17.145  14.955
79673CL-    CL-43232  22.216   9.329   3.851
79674CL-    CL-43233  17.068   4.866  10.550
79675CL-    CL-43234  15.607  21.666  10.911
79676CL-    CL-43235   6.735  42.500  10.409
79677CL-    CL-43236  12.797  11.801   0.796
79678CL-    CL-43237   1.436  20.739   3.734
79679CL-    CL-43238  38.909  37.935  11.070
79680CL-    CL-43239  16.291  34.514   4.675
79681CL-    CL-43240  34.036   6.818   3.385
79682CL-    CL-43241  25.207  32.092   3.219
79683CL-    CL-43242   1.304  41.377   0.919
79684CL-    CL-43243  43.963   7.911   0.771
79685CL-    CL-43244   8.219  19.231   4.708
79686CL-    CL-43245  44.363  27.597   2.691
79687CL-    CL-43246  37.538   8.357  11.950
79688CL-    CL-43247  28.176  27.685  11.889
79689CL-    CL-43248  41.375   4.420   3.640
79690CL-    CL-43249  23.648   4.219  12.889
79691CL-    CL-43250  18.116  30.005   3.166
79692CL-    CL-43251  19.656  19.736   4.616
79693CL-    CL-43252  12.144  38.429   2.259
79694CL-    CL-43253  12.653   4.204   3.197
79695CL-    CL-43254  12.610  12.744  14.353
79696CL-    CL-43255  27.062   9.294   4.349
79697CL-    CL-43256  37.070  12.614   0.736
79698CL-    CL-43257   4.810   4.742  13.356
79699CL-    CL-43258  19.755   3.735   3.656
79700CL-    CL-43259  11.734   3.329  13.398
79701CL-    CL-43260  15.239  43.776  14.863
79702CL-    CL-43261  35.474  44.790  13.866
79703CL-    CL-43262   4.430   0.341   3.261
79704CL-    CL-43263  11.291  40.311  10.413
79705CL-    CL-43264  24.068  38.911   0.446
79706CL-    CL-43265  10.217   4.847   3.267
79707CL-    CL-43266  23.568  33.104  14.766
79708CL-    CL-43267   3.880  28.589   0.375
79709CL-    CL-43268  30.052  35.971  12.831
79710CL-    CL-43269  39.325  42.861  13.526
79711CL-    CL-43270  12.617  33.007   4.623
79712CL-    CL-43271  13.284  29.075   3.668
79713CL-    CL-43272  12.848   1.326  14.318
79714CL-    CL-43273  38.908  11.857   5.188
79715CL-    CL-43274  42.855  15.812   1.450
79716CL-    CL-43275   8.248   0.309   0.845
79717CL-    CL-43276   9.784  36.867   0.747
79718CL-    CL-43277  43.304   6.303   2.774
79719CL-    CL-43278  27.481  38.871   0.396
79720CL-    CL-43279  28.464  31.959   1.380
79721CL-    CL-43280  42.855  29.555   2.895
79722CL-    CL-43281  13.625  28.993   1.796
79723CL-    CL-43282  12.693  26.680   1.451
79724CL-    CL-43283  21.259  18.287  14.495
79725CL-    CL-43284  37.874   0.785   3.798
79726CL-    CL-43285  17.068  16.134  13.840
79727CL-    CL-43286   4.738  41.002  12.483
79728CL-    CL-43287  12.361  31.562   3.223
79729CL-    CL-43288  34.886  24.101   0.416
79730CL-    CL-43289   9.811  37.389  13.534
79731CL-    CL-43290  43.329   2.947   4.159
79732CL-    CL-43291  43.856  44.943   2.770
79733CL-    CL-43292  30.042  37.966   0.926
79734CL-    CL-43293   2.406  35.461   0.454
79735CL-    CL-43294  21.694  29.463   3.333
79736CL-    CL-43295   8.828   6.399   2.702
79737CL-    CL-43296   3.954  25.975  13.527
79738CL-    CL-43297  38.501  10.202  12.513
79739CL-    CL-43298  15.600  38.413  12.369
79740CL-    CL-43299  26.099   2.796  13.331
79741CL-    CL-43300  27.080   9.812  12.441
79742CL-    CL-43301  23.667  17.093  10.616
79743CL-    CL-43302  22.221   2.291   4.191
79744CL-    CL-43303  35.372  17.120   2.363
79745CL-    CL-43304  22.566   9.762  13.452
79746CL-    CL-43305   9.184  12.145  12.517
79747CL-    CL-43306  39.535  26.675  11.475
79748CL-    CL-43307  29.534  14.189   4.816
79749CL-    CL-43308  22.658  17.583   0.448
79750CL-    CL-43309   0.890  26.642   4.225
79751CL-    CL-43310  25.532  25.638  14.941
79752CL-    CL-43311  21.654   7.327   1.335
79753CL-    CL-43312  12.246  11.705  13.351
79754CL-    CL-43313  44.298  21.515  12.878
79755CL-    CL-43314  32.082  23.083  11.447
79756CL-    CL-43315  33.455   6.753  13.307
79757CL-    CL-43316  11.365  19.260  12.577
79758CL-    CL-43317   5.361  26.154  10.618
79759CL-    CL-43318  25.148  43.277   3.816
79760CL-    CL-43319  14.162  12.770  12.083
79761CL-    CL-43320  10.635   9.660  13.842
79762CL-    CL-43321  41.845  44.352   2.766
79763CL-    CL-43322   2.894  27.509  14.840
79764CL-    CL-43323  30.594   6.425   2.755
79765CL-    CL-43324   1.282   9.669  14.991
79766CL-    CL-43325   1.257   1.796   1.840
79767CL-    CL-43326  34.397  14.311  14.027
79768CL-    CL-43327  14.267  39.390  12.352
79769CL-    CL-43328  43.957   5.744   0.438
79770CL-    CL-43329  20.752  41.937   3.196
79771CL-    CL-43330  37.878  42.907   2.728
79772CL-    CL-43331  42.343  27.027  10.961
79773CL-    CL-43332   8.721  14.640  12.076
79774CL-    CL-43333   0.959  10.363  14.374
79775CL-    CL-43334  38.918  14.156   2.788
79776CL-    CL-43335  43.979  20.559   3.247
79777CL-    CL-43336  13.757  31.015   2.868
79778CL-    CL-43337  33.931  18.145  11.015
79779CL-    CL-43338  39.351  40.017  14.357
79780CL-    CL-43339  15.254  32.055  12.013
79781CL-    CL-43340  16.574   6.314   9.448
79782CL-    CL-43341  24.018  21.696  13.458
79783CL-    CL-43342  44.992   9.372   0.378
79784CL-    CL-43343  32.635   4.271  11.032
79785CL-    CL-43344  36.467  21.548  13.344
79786CL-    CL-43345  41.297  16.723  13.023
79787CL-    CL-43346   4.330  14.164  12.006
79788CL-    CL-43347  19.048  16.593   0.885
79789CL-    CL-43348  13.122  40.407   3.819
79790CL-    CL-43349   2.780  18.246  11.082
79791CL-    CL-43350  22.144  43.468   4.164
79792CL-    CL-43351  39.993  16.210   2.900
79793CL-    CL-43352   7.781  44.280   1.294
79794CL-    CL-43353  16.663  16.077  11.419
79795CL-    CL-43354  42.913  44.316   0.771
79796CL-    CL-43355  19.709  13.627  14.478
79797CL-    CL-43356  11.252  26.636  10.606
79798CL-    CL-43357  43.334  33.567  12.343
79799CL-    CL-43358  38.447  28.600  11.010
79800CL-    CL-43359  29.550  42.987  12.025
79801CL-    CL-43360  15.577   7.242   1.713
79802CL-    CL-43361  24.558  36.969  13.900
79803CL-    CL-43362  35.077  25.155  10.973
79804CL-    CL-43363   0.353  13.823   2.389
79805CL-    CL-43364  18.077  44.347  10.891
79806CL-    CL-43365  31.928  14.616  11.430
79807CL-    CL-43366  18.188  15.202   3.286
79808CL-    CL-43367  35.362  36.386   2.281
79809CL-    CL-43368   8.337  44.945   4.200
79810CL-    CL-43369  17.673  25.084   1.301
79811CL-    CL-43370  35.362  38.880   1.841
79812CL-    CL-43371  36.588  23.507  11.108
79813CL-    CL-43372  36.437  43.338  13.847
79814CL-    CL-43373  39.488   2.374   1.710
79815CL-    CL-43374   8.221  33.458   0.910
79816CL-    CL-43375   7.341   8.829  13.437
79817CL-    CL-43376  25.214   7.673   1.764
79818CL-    CL-43377  19.109  31.093   3.382
79819CL-    CL-43378   1.781  12.690   3.149
79820CL-    CL-43379   5.262  17.214  10.911
79821CL-    CL-43380  43.498  42.287  12.832
79822CL-    CL-43381   9.780  14.224   3.381
79823CL-    CL-43382  31.457  20.099   1.867
79824CL-    CL-43383  21.181  11.743   0.736
79825CL-    CL-43384  17.203   0.328   4.787
79826CL-    CL-43385  37.994  27.184  13.325
79827CL-    CL-43386  39.423  12.344  14.893
79828CL-    CL-43387  32.036  18.222   1.406
79829CL-    CL-43388  39.329  42.425   1.788
79830CL-    CL-43389  12.758  40.856   3.211
79831CL-    CL-43390  38.047  19.242  14.776
79832CL-    CL-43391   9.650   4.779  10.125
79833CL-    CL-43392  23.000  36.888  11.494
79834CL-    CL-43393  33.956  13.142   1.332
79835CL-    CL-43394  29.648  38.821  10.971
79836CL-    CL-43395  20.083  10.763   2.335
79837CL-    CL-43396  28.180  33.453   1.714
79838CL-    CL-43397  36.583  32.129   5.312
79839CL-    CL-43398  29.050  32.072  12.455
79840CL-    CL-43399   4.940  36.010   1.255
79841CL-    CL-43400  11.189   3.318  10.118
79842CL-    CL-43401   0.428  32.995   4.139
79843CL-    CL-43402   8.169  37.961  11.891
79844CL-    CL-43403  13.745  44.500   4.175
79845CL-    CL-43404   8.354  23.088   1.861
79846CL-    CL-43405  15.637  21.516   3.349
79847CL-    CL-43406  17.282   6.893  10.966
79848CL-    CL-43407  34.072  21.644   1.243
79849CL-    CL-43408  34.455  12.851  13.325
79850CL-    CL-43409  42.290  23.709   3.262
79851CL-    CL-43410  34.005  12.627  11.896
79852CL-    CL-43411  33.514  38.482  12.377
79853CL-    CL-43412  43.431   9.809  12.388
79854CL-    CL-43413  12.264  30.446  11.517
79855CL-    CL-43414  12.252   6.795  14.876
79856CL-    CL-43415  43.332   3.405  11.524
79857CL-    CL-43416   4.792  11.712   3.364
79858CL-    CL-43417  13.298  44.927  12.948
79859CL-    CL-43418  40.486  28.676   0.348
79860CL-    CL-43419  10.780  36.868  14.442
79861CL-    CL-43420  24.559   9.653  13.950
79862CL-    CL-43421  32.410   3.874   3.761
79863CL-    CL-43422   8.349  27.504   3.201
79864CL-    CL-43423   7.279  20.146   1.917
79865CL-    CL-43424   0.382  24.069   4.632
79866CL-    CL-43425  32.916  43.332   2.198
79867CL-    CL-43426  12.856  11.190  13.823
79868CL-    CL-43427  22.037  17.714   0.302
79869CL-    CL-43428  33.571   5.395   5.266
79870CL-    CL-43429  42.387  38.544  14.833
79871CL-    CL-43430   5.778   2.932  14.024
79872CL-    CL-43431  28.142   8.844   2.692
79873CL-    CL-43432  26.639   1.759  10.592
79874CL-    CL-43433  19.157   5.339  12.552
79875CL-    CL-43434  36.877  16.106   4.768
79876CL-    CL-43435  36.888  29.160  11.889
79877CL-    CL-43436  26.155  25.963   4.312
79878CL-    CL-43437  17.752  21.199  14.968
79879CL-    CL-43438  25.511  12.223   1.253
79880CL-    CL-43439  40.952  42.336  12.062
79881CL-    CL-43440  15.274   5.726  13.987
79882CL-    CL-43441  20.072  25.075  11.099
79883CL-    CL-43442  17.280  18.649   5.143
79884CL-    CL-43443  28.110  37.421  10.625
79885CL-    CL-43444  18.147  17.188  13.387
79886CL-    CL-43445  34.877  34.517   2.902
79887CL-    CL-43446  10.328  10.806   3.797
79888CL-    CL-43447   3.448  11.819  12.490
79889CL-    CL-43448  15.737  17.229  14.426
79890CL-    CL-43449   7.711  19.234  13.534
79891CL-    CL-43450   1.266  38.403  10.417
79892CL-    CL-43451   5.763  36.885   0.330
79893CL-    CL-43452  31.149  30.631  12.975
79894CL-    CL-43453  43.311  40.460   0.323
79895CL-    CL-43454  15.314   1.787   2.366
79896CL-    CL-43455  31.066  13.318   0.373
79897CL-    CL-43456  27.578  16.676  11.408
79898CL-    CL-43457  29.588  36.855   0.450
79899CL-    CL-43458  33.971   3.715  12.530
79900CL-    CL-43459  33.624  43.932  13.520
79901CL-    CL-43460  16.686  31.495   3.172
79902CL-    CL-43461   7.394  20.703   3.680
79903CL-    CL-43462  39.366  29.045  13.442
79904CL-    CL-43463  14.319  28.474   0.744
79905CL-    CL-43464  43.915  32.554   0.773
79906CL-    CL-43465   0.977  33.920  10.934
79907CL-    CL-43466  24.003  16.770   3.147
79908CL-    CL-43467  16.754  11.205  10.614
79909CL-    CL-43468   6.257  12.712  13.961
79910CL-    CL-43469  31.618  38.994   2.817
79911CL-    CL-43470   0.279  25.153  11.924
79912CL-    CL-43471  16.617  11.707  12.528
79913CL-    CL-43472   9.385  11.165  14.876
79914CL-    CL-43473  14.610  28.507   3.769
79915CL-    CL-43474  26.015  41.501   3.769
79916CL-    CL-43475  14.683  25.559   2.314
79917CL-    CL-43476   7.702  28.670   3.695
79918CL-    CL-43477  22.128  37.577   4.208
79919CL-    CL-43478  33.039  41.814  11.994
79920CL-    CL-43479  21.023  25.998   4.756
79921CL-    CL-43480  26.029   5.812  11.467
79922CL-    CL-43481  14.782  39.520   3.183
79923CL-    CL-43482  42.827  15.245   2.815
79924CL-    CL-43483  28.551  11.695   0.743
79925CL-    CL-43484  17.704   5.784   2.817
79926CL-    CL-43485   0.947   6.797   4.337
79927CL-    CL-43486  10.721  24.637   2.850
79928CL-    CL-43487  12.747  14.623   2.209
79929CL-    CL-43488  26.694  10.333   4.315
79930CL-    CL-43489  17.216  16.255   4.746
79931CL-    CL-43490   0.987   0.363   0.259
79932CL-    CL-43491  39.316  14.222   1.301
79933CL-    CL-43492  21.554  18.767   3.650
79934CL-    CL-43493   1.756  19.160   1.823
79935CL-    CL-43494  27.624  11.164  13.425
79936CL-    CL-43495  28.069   2.922  12.958
79937CL-    CL-43496  27.141  13.140   0.272
79938CL-    CL-43497  21.139  17.781   3.661
79939CL-    CL-43498   5.910  25.485   4.821
79940CL-    CL-43499  42.445  43.778  12.446
79941CL-    CL-43500  26.997   3.295   4.274
79942CL-    CL-43501  12.345   2.942   3.767
79943CL-    CL-43502  42.428  10.679   4.609
79944CL-    CL-43503  28.550  34.974  14.368
79945CL-    CL-43504   3.389  17.243   4.820
79946CL-    CL-43505  37.395  22.119  14.767
79947CL-    CL-43506  38.396  31.648  11.375
79948CL-    CL-43507  16.567  25.073   3.754
79949CL-    CL-43508  25.189  12.237   2.298
79950CL-    CL-43509  19.173  13.722   0.912
79951CL-    CL-43510  39.842  20.601  14.782
79952CL-    CL-43511  34.902  39.850  14.337
79953CL-    CL-43512  41.444   1.845  11.423
79954CL-    CL-43513  42.829   3.450  13.401
79955CL-    CL-43514   2.728  23.706  13.323
79956CL-    CL-43515  44.987  38.394  14.477
79957CL-    CL-43516  24.026  23.706   3.342
79958CL-    CL-43517  24.620  29.628   2.268
79959CL-    CL-43518  20.230  23.099   4.306
79960CL-    CL-43519  23.683   5.744   3.659
79961CL-    CL-43520  30.941  36.459  13.956
79962CL-    CL-43521  33.121  10.253   5.322
79963CL-    CL-43522   2.781  40.470   0.954
79964CL-    CL-43523  44.466  18.631   4.225
79965CL-    CL-43524   5.197  28.092  11.101
79966CL-    CL-43525   3.364  15.811  11.506
79967CL-    CL-43526  13.843  13.259  12.569
79968CL-    CL-43527  31.024  33.930   0.400
79969CL-    CL-43528   7.266  30.564   4.683
79970CL-    CL-43529  27.610  38.443  11.513
79971CL-    CL-43530  34.893  35.952   1.711
79972CL-    CL-43531  13.835   0.416  10.628
79973CL-    CL-43532  29.046  41.826   9.472
79974CL-    CL-43533  44.317  35.882   1.739
79975CL-    CL-43534  21.541  38.517  12.570
79976CL-    CL-43535   1.963  41.944   4.729
79977CL-    CL-43536  21.725  10.199  12.393
79978CL-    CL-43537   2.810   0.855   2.832
79979CL-    CL-43538   2.813  28.108  11.037
79980CL-    CL-43539  25.509  37.911   3.771
79981CL-    CL-43540  15.240  17.214  14.299
79982CL-    CL-43541   4.284  30.573  11.003
79983CL-    CL-43542  27.632   9.342   1.772
79984CL-    CL-43543  23.103   3.221  11.056
79985CL-    CL-43544   1.779  19.762   1.907
79986CL-    CL-43545  16.278  11.672  13.842
79987CL-    CL-43546  16.109  24.722   1.803
79988CL-    CL-43547  35.100   3.406  14.012
79989CL-    CL-43548   8.171   1.768   0.868
79990CL-    CL-43549   5.806  41.318   4.154
79991CL-    CL-43550  16.774   5.874   9.492
79992CL-    CL-43551  25.521  12.350   4.656
79993CL-    CL-43552  39.857  39.838   2.404
79994CL-    CL-43553  39.840  44.406   3.638
79995CL-    CL-43554  32.463   6.793   2.773
79996CL-    CL-43555  44.891  27.163   4.704
79997CL-    CL-43556   1.297  32.897   3.148
79998CL-    CL-43557  35.548  14.228  10.501
79999CL-    CL-43558  36.923  35.508  13.029
80000CL-    CL-43559  31.632  11.148  13.998
80001CL-    CL-43560   2.230  14.207   0.858
80002CL-    CL-43561  16.732   2.776   3.685
80003CL-    CL-43562   3.353   8.166   4.618
80004CL-    CL-43563  10.350  38.505   3.847
80005CL-    CL-43564  36.526  16.616   4.831
80006CL-    CL-43565  23.161  38.540   2.236
80007CL-    CL-43566   7.707  10.221  13.532
80008CL-    CL-43567  33.518  41.324  11.960
80009CL-    CL-43568   4.782  21.074  11.077
80010CL-    CL-43569   8.768   2.753  13.007
80011CL-    CL-43570   4.783  32.507  13.331
80012CL-    CL-43571  25.138  36.562   3.821
80013CL-    CL-43572  35.053  11.718  10.929
80014CL-    CL-43573   2.786  31.932   2.218
80015CL-    CL-43574  36.578   6.269   5.134
80016CL-    CL-43575  11.782  28.029  14.443
80017CL-    CL-43576  23.235  44.960   0.431
80018CL-    CL-43577  24.222  16.588   0.347
80019CL-    CL-43578   7.293  19.695   0.852
80020CL-    CL-43579  22.644  19.779  13.473
80021CL-    CL-43580  28.487  34.570  13.050
80022CL-    CL-43581  23.705  43.836   3.692
80023CL-    CL-43582  44.491   0.341  10.992
80024CL-    CL-43583  28.068  29.007   0.331
80025CL-    CL-43584  18.587   7.372  11.439
80026CL-    CL-43585   5.292   7.815  12.881
80027CL-    CL-43586  35.544  21.731  13.869
80028CL-    CL-43587   2.305  42.407   4.619
80029CL-    CL-43588   6.916  18.290   0.246
80030CL-    CL-43589  12.263  22.094  14.971
80031CL-    CL-43590  16.141  27.976  12.912
80032CL-    CL-43591  29.074  32.134   4.716
80033CL-    CL-43592  15.693  40.367  13.026
80034CL-    CL-43593  18.589  40.453  12.416
80035CL-    CL-43594  37.918  36.964   2.231
80036CL-    CL-43595   9.271  41.801  10.992
80037CL-    CL-43596  37.424  39.351   0.907
80038CL-    CL-43597  26.686  32.132  14.362
80039CL-    CL-43598   8.789   1.911   1.292
80040CL-    CL-43599   3.905  18.162  13.826
80041CL-    CL-43600   6.321  33.122  10.909
80042CL-    CL-43601   9.730   8.348  14.455
80043CL-    CL-43602   4.856   2.906  13.941
80044CL-    CL-43603  24.622  17.640  13.809
80045CL-    CL-43604  26.156  39.536  13.344
80046CL-    CL-43605  26.113  23.636   4.699
80047CL-    CL-43606  20.256  40.370  10.453
80048CL-    CL-43607  32.547  26.648  10.601
80049CL-    CL-43608  20.682   0.795   0.368
80050CL-    CL-43609   2.445  29.983   3.827
80051CL-    CL-43610  21.541  20.057  13.436
80052CL-    CL-43611  12.636  38.339  12.848
80053CL-    CL-43612  17.770   4.768   2.301
80054CL-    CL-43613  20.677  27.611   2.277
80055CL-    CL-43614  38.015   0.297   2.357
80056CL-    CL-43615   5.281  32.061  11.909
80057CL-    CL-43616  38.381  42.944  13.921
80058CL-    CL-43617   2.844  15.229   0.335
80059CL-    CL-43618  35.573  40.949  13.535
80060CL-    CL-43619  34.423  10.632  11.599
80061CL-    CL-43620   0.317  30.511  12.380
80062CL-    CL-43621   9.720  41.964   0.856
80063CL-    CL-43622  10.663  26.663   4.175
80064CL-    CL-43623  33.884  25.094  14.388
80065CL-    CL-43624  19.739  11.635  10.996
80066CL-    CL-43625  12.256  17.696   4.724
80067CL-    CL-43626  44.850  41.020  12.362
80068CL-    CL-43627   6.337  30.011   2.182
80069CL-    CL-43628  21.235  38.865   4.167
80070CL-    CL-43629  34.995  19.207   1.417
80071CL-    CL-43630  12.196  33.110  11.985
80072CL-    CL-43631   2.345  18.057   1.696
80073CL-    CL-43632  19.578   8.799   4.726
80074CL-    CL-43633  43.873  41.979   0.889
80075CL-    CL-43634  19.197  33.586  11.401
80076CL-    CL-43635   1.746  22.615   1.287
80077CL-    CL-43636  35.579  21.062  10.129
80078CL-    CL-43637  41.872  39.015  12.010
80079CL-    CL-43638  16.688   5.305  14.428
80080CL-    CL-43639  22.177  21.541   0.453
80081CL-    CL-43640  38.336  24.606  13.014
80082CL-    CL-43641  25.031  33.617  11.077
80083CL-    CL-43642  38.335  22.995   4.290
80084CL-    CL-43643  19.222   4.245  12.549
80085CL-    CL-43644  33.620  37.562   3.368
80086CL-    CL-43645  36.931   4.306  13.063
80087CL-    CL-43646  24.626  14.790   0.906
80088CL-    CL-43647  13.146  34.012   4.810
80089CL-    CL-43648  44.967   4.300  13.880
80090CL-    CL-43649  41.463   3.386   2.205
80091CL-    CL-43650  36.534   0.950  11.104
80092CL-    CL-43651   6.756  34.031   2.715
80093CL-    CL-43652   8.758  33.399  11.442
80094CL-    CL-43653  27.484   7.275  14.907
80095CL-    CL-43654  18.070  24.078  13.994
80096CL-    CL-43655  32.000  18.242  10.431
80097CL-    CL-43656  41.480   8.376   0.800
80098CL-    CL-43657   3.775  32.098  14.996
80099CL-    CL-43658  12.215  36.564   4.792
80100CL-    CL-43659  40.390   5.324   4.705
80101CL-    CL-43660  26.567   7.231  14.282
80102CL-    CL-43661  24.992  11.717  12.364
80103CL-    CL-43662  19.618  32.530  10.045
80104CL-    CL-43663  12.258  19.716   4.714
80105CL-    CL-43664   4.334  15.182  10.509
80106CL-    CL-43665   1.348   2.772  11.479
80107CL-    CL-43666   4.725  10.191  12.995
80108CL-    CL-43667  14.338  43.499  12.521
80109CL-    CL-43668  18.255  16.315   4.777
80110CL-    CL-43669  15.633  19.128  12.904
80111CL-    CL-43670   2.949   6.854   4.831
80112CL-    CL-43671  30.573  18.559  11.479
80113CL-    CL-43672  42.963  13.331   3.868
80114CL-    CL-43673  27.197  23.550  10.961
80115CL-    CL-43674  26.594  15.776   4.268
80116CL-    CL-43675  20.645  32.887  14.326
80117CL-    CL-43676  24.185  28.149   0.422
80118CL-    CL-43677   9.335  22.211   1.797
80119CL-    CL-43678   8.242  32.070  14.814
80120CL-    CL-43679  11.289  20.735   3.348
80121CL-    CL-43680   0.402  25.538  14.363
80122CL-    CL-43681  33.988  42.886  12.534
80123CL-    CL-43682  34.499  18.209  12.372
80124CL-    CL-43683  34.919  37.369   4.351
80125CL-    CL-43684  40.971  37.955  10.518
80126CL-    CL-43685   1.322  13.790   1.227
80127CL-    CL-43686  10.845  12.325  10.483
80128CL-    CL-43687  30.629  31.452  11.457
  45.00000  45.00000  15.00000   0.00000   0.00000   0.00000   0.00000   0.00000   0.00000

